mobley_8117218_GMX.gro created by acpype (v: 2023.10.27) on Thu May 21 00:13:02 2026
 2364
    1MOL     C1    1   2.467   2.160   2.494
    1MOL     C2    2   2.387   2.219   2.585
    1MOL     C3    3   2.382   2.551   2.267
    1MOL     C4    4   2.396   2.413   2.202
    1MOL     C5    5   2.262   2.511   2.354
    1MOL     C6    6   2.401   2.312   2.320
    1MOL     C7    7   2.307   2.381   2.427
    1MOL     C8    8   2.254   2.396   2.143
    1MOL     C9    9   2.164   2.462   2.245
    1MOL    C10   10   2.525   2.271   2.407
    1MOL    C11   11   2.392   2.370   2.558
    1MOL    C12   12   2.544   2.376   2.521
    1MOL     O1   13   2.178   2.514   2.113
    1MOL    CL1   14   2.492   1.995   2.469
    1MOL    CL2   15   2.288   2.145   2.701
    1MOL    CL3   16   2.667   2.231   2.313
    1MOL    CL4   17   2.339   2.474   2.688
    1MOL    CL5   18   2.616   2.533   2.482
    1MOL    CL6   19   2.656   2.319   2.656
    1MOL     H1   20   2.468   2.589   2.319
    1MOL     H2   21   2.357   2.630   2.195
    1MOL     H3   22   2.475   2.403   2.128
    1MOL     H4   23   2.221   2.589   2.417
    1MOL     H5   24   2.353   2.219   2.284
    1MOL     H6   25   2.216   2.321   2.442
    1MOL     H7   26   2.228   2.302   2.098
    1MOL     H8   27   2.072   2.416   2.277
   14SOL     OW   28   1.460   1.505   1.339
   14SOL    HW1   29   1.484   1.599   1.365
   14SOL    HW2   30   1.444   1.451   1.421
   18SOL     OW   31   1.127   1.341   1.690
   18SOL    HW1   32   1.174   1.341   1.778
   18SOL    HW2   33   1.079   1.254   1.679
   35SOL     OW   34   1.187   1.792   1.616
   35SOL    HW1   35   1.211   1.852   1.540
   35SOL    HW2   36   1.194   1.697   1.586
   56SOL     OW   37   1.227   1.550   1.506
   56SOL    HW1   38   1.233   1.473   1.570
   56SOL    HW2   39   1.175   1.524   1.426
   95SOL     OW   40   1.754   1.223   1.588
   95SOL    HW1   41   1.845   1.184   1.575
   95SOL    HW2   42   1.762   1.319   1.612
   97SOL     OW   43   1.592   1.629   1.625
   97SOL    HW1   44   1.619   1.663   1.535
   97SOL    HW2   45   1.671   1.591   1.671
  122SOL     OW   46   1.728   0.935   1.854
  122SOL    HW1   47   1.682   0.928   1.765
  122SOL    HW2   48   1.666   0.979   1.920
  126SOL     OW   49   0.980   1.573   1.700
  126SOL    HW1   50   0.960   1.617   1.612
  126SOL    HW2   51   1.019   1.482   1.684
  127SOL     OW   52   1.859   1.518   1.605
  127SOL    HW1   53   1.873   1.545   1.510
  127SOL    HW2   54   1.942   1.540   1.658
  152SOL     OW   55   1.759   1.747   1.154
  152SOL    HW1   56   1.820   1.777   1.081
  152SOL    HW2   57   1.721   1.658   1.132
  153SOL     OW   58   1.252   1.731   1.128
  153SOL    HW1   59   1.336   1.736   1.074
  153SOL    HW2   60   1.229   1.635   1.146
  163SOL     OW   61   1.650   1.720   1.394
  163SOL    HW1   62   1.703   1.730   1.310
  163SOL    HW2   63   1.623   1.810   1.428
  171SOL     OW   64   1.614   1.292   1.289
  171SOL    HW1   65   1.674   1.295   1.369
  171SOL    HW2   66   1.539   1.356   1.302
  184SOL     OW   67   1.493   1.767   0.959
  184SOL    HW1   68   1.526   1.831   0.890
  184SOL    HW2   69   1.559   1.761   1.034
  186SOL     OW   70   1.450   1.220   1.633
  186SOL    HW1   71   1.441   1.210   1.732
  186SOL    HW2   72   1.546   1.213   1.607
  192SOL     OW   73   1.730   0.934   1.517
  192SOL    HW1   74   1.768   1.025   1.532
  192SOL    HW2   75   1.722   0.917   1.418
  197SOL     OW   76   1.861   1.569   0.851
  197SOL    HW1   77   1.790   1.557   0.781
  197SOL    HW2   78   1.862   1.490   0.911
  203SOL     OW   79   1.705   1.487   1.104
  203SOL    HW1   80   1.612   1.462   1.077
  203SOL    HW2   81   1.731   1.437   1.186
  219SOL     OW   82   1.555   1.511   2.565
  219SOL    HW1   83   1.498   1.495   2.646
  219SOL    HW2   84   1.496   1.521   2.485
  227SOL     OW   85   1.460   1.505   3.201
  227SOL    HW1   86   1.484   1.599   3.227
  227SOL    HW2   87   1.444   1.451   3.283
  238SOL     OW   88   1.842   1.767   2.221
  238SOL    HW1   89   1.896   1.738   2.301
  238SOL    HW2   90   1.872   1.857   2.192
  240SOL     OW   91   1.689   0.922   2.474
  240SOL    HW1   92   1.784   0.893   2.482
  240SOL    HW2   93   1.681   0.987   2.399
  241SOL     OW   94   1.641   1.108   2.294
  241SOL    HW1   95   1.727   1.110   2.242
  241SOL    HW2   96   1.655   1.155   2.382
  247SOL     OW   97   1.525   0.999   2.052
  247SOL    HW1   98   1.462   0.923   2.065
  247SOL    HW2   99   1.573   1.017   2.138
  248SOL     OW  100   1.187   1.792   3.478
  248SOL    HW1  101   1.211   1.852   3.402
  248SOL    HW2  102   1.194   1.697   3.448
  250SOL     OW  103   1.466   1.417   2.815
  250SOL    HW1  104   1.407   1.423   2.895
  250SOL    HW2  105   1.451   1.329   2.769
  251SOL     OW  106   1.667   1.714   2.434
  251SOL    HW1  107   1.626   1.691   2.346
  251SOL    HW2  108   1.649   1.640   2.499
  254SOL     OW  109   1.576   1.662   2.169
  254SOL    HW1  110   1.665   1.708   2.172
  254SOL    HW2  111   1.555   1.638   2.074
  264SOL     OW  112   1.362   1.144   2.407
  264SOL    HW1  113   1.445   1.115   2.359
  264SOL    HW2  114   1.313   1.211   2.351
  266SOL     OW  115   1.008   1.456   2.339
  266SOL    HW1  116   0.962   1.528   2.287
  266SOL    HW2  117   1.004   1.476   2.437
  268SOL     OW  118   1.795   1.066   2.735
  268SOL    HW1  119   1.733   1.051   2.659
  268SOL    HW2  120   1.743   1.077   2.820
  269SOL     OW  121   1.227   1.550   3.368
  269SOL    HW1  122   1.233   1.473   3.432
  269SOL    HW2  123   1.175   1.524   3.288
  273SOL     OW  124   1.111   1.776   2.099
  273SOL    HW1  125   1.051   1.714   2.149
  273SOL    HW2  126   1.142   1.732   2.014
  275SOL     OW  127   1.632   1.377   1.943
  275SOL    HW1  128   1.600   1.471   1.933
  275SOL    HW2  129   1.556   1.314   1.931
  279SOL     OW  130   0.940   1.698   2.766
  279SOL    HW1  131   1.020   1.641   2.787
  279SOL    HW2  132   0.891   1.658   2.689
  289SOL     OW  133   1.434   1.188   1.903
  289SOL    HW1  134   1.466   1.112   1.960
  289SOL    HW2  135   1.342   1.215   1.933
  293SOL     OW  136   1.227   1.570   2.655
  293SOL    HW1  137   1.248   1.644   2.590
  293SOL    HW2  138   1.295   1.570   2.728
  295SOL     OW  139   1.271   1.797   2.453
  295SOL    HW1  140   1.315   1.861   2.389
  295SOL    HW2  141   1.221   1.849   2.523
  301SOL     OW  142   1.429   1.173   2.729
  301SOL    HW1  143   1.374   1.089   2.722
  301SOL    HW2  144   1.455   1.202   2.637
  303SOL     OW  145   1.857   0.833   2.239
  303SOL    HW1  146   1.899   0.769   2.303
  303SOL    HW2  147   1.819   0.782   2.161
  305SOL     OW  148   1.664   1.280   2.519
  305SOL    HW1  149   1.763   1.288   2.533
  305SOL    HW2  150   1.619   1.364   2.550
  308SOL     OW  151   1.754   1.223   3.450
  308SOL    HW1  152   1.845   1.184   3.437
  308SOL    HW2  153   1.762   1.319   3.474
  310SOL     OW  154   1.592   1.629   3.487
  310SOL    HW1  155   1.619   1.663   3.397
  310SOL    HW2  156   1.671   1.591   3.533
  312SOL     OW  157   1.638   1.099   2.941
  312SOL    HW1  158   1.643   1.180   3.000
  312SOL    HW2  159   1.552   1.101   2.890
  321SOL     OW  160   1.252   1.348   2.250
  321SOL    HW1  161   1.302   1.425   2.290
  321SOL    HW2  162   1.157   1.350   2.282
  322SOL     OW  163   1.272   1.445   3.004
  322SOL    HW1  164   1.319   1.458   3.091
  322SOL    HW2  165   1.206   1.371   3.013
  340SOL     OW  166   1.859   1.518   3.467
  340SOL    HW1  167   1.873   1.545   3.372
  340SOL    HW2  168   1.942   1.540   3.520
  344SOL     OW  169   1.068   1.333   2.711
  344SOL    HW1  170   1.075   1.249   2.656
  344SOL    HW2  171   1.130   1.402   2.675
  365SOL     OW  172   1.759   1.747   3.016
  365SOL    HW1  173   1.820   1.777   2.943
  365SOL    HW2  174   1.721   1.658   2.994
  366SOL     OW  175   1.252   1.731   2.990
  366SOL    HW1  176   1.336   1.736   2.936
  366SOL    HW2  177   1.229   1.635   3.008
  370SOL     OW  178   1.388   1.573   2.339
  370SOL    HW1  179   1.455   1.585   2.265
  370SOL    HW2  180   1.348   1.662   2.362
  375SOL     OW  181   1.650   1.720   3.256
  375SOL    HW1  182   1.703   1.730   3.172
  375SOL    HW2  183   1.623   1.810   3.290
  378SOL     OW  184   1.194   1.612   1.893
  378SOL    HW1  185   1.200   1.519   1.930
  378SOL    HW2  186   1.135   1.612   1.813
  381SOL     OW  187   1.504   1.607   1.906
  381SOL    HW1  188   1.412   1.644   1.913
  381SOL    HW2  189   1.542   1.627   1.816
  383SOL     OW  190   1.614   1.292   3.151
  383SOL    HW1  191   1.674   1.295   3.231
  383SOL    HW2  192   1.539   1.356   3.164
  394SOL     OW  193   1.183   1.335   1.981
  394SOL    HW1  194   1.084   1.324   1.983
  394SOL    HW2  195   1.217   1.350   2.074
  396SOL     OW  196   1.493   1.767   2.821
  396SOL    HW1  197   1.526   1.831   2.752
  396SOL    HW2  198   1.559   1.761   2.896
  409SOL     OW  199   1.861   1.569   2.713
  409SOL    HW1  200   1.790   1.557   2.643
  409SOL    HW2  201   1.862   1.490   2.773
  415SOL     OW  202   1.705   1.487   2.966
  415SOL    HW1  203   1.612   1.462   2.939
  415SOL    HW2  204   1.731   1.437   3.048
  417SOL     OW  205   0.812   1.586   2.549
  417SOL    HW1  206   0.844   1.596   2.455
  417SOL    HW2  207   0.733   1.524   2.551
  426SOL     OW  208   0.875   1.646   2.199
  426SOL    HW1  209   0.798   1.611   2.145
  426SOL    HW2  210   0.843   1.717   2.261
  546SOL     OW  211   0.850   2.660   1.823
  546SOL    HW1  212   0.846   2.736   1.888
  546SOL    HW2  213   0.872   2.696   1.732
  550SOL     OW  214   1.460   3.367   1.339
  550SOL    HW1  215   1.484   3.461   1.365
  550SOL    HW2  216   1.444   3.313   1.421
  554SOL     OW  217   1.127   3.203   1.690
  554SOL    HW1  218   1.174   3.203   1.778
  554SOL    HW2  219   1.079   3.116   1.679
  559SOL     OW  220   1.594   1.976   1.480
  559SOL    HW1  221   1.576   2.043   1.408
  559SOL    HW2  222   1.591   2.022   1.569
  567SOL     OW  223   1.293   3.090   1.423
  567SOL    HW1  224   1.330   3.017   1.365
  567SOL    HW2  225   1.345   3.095   1.508
  579SOL     OW  226   1.394   2.331   1.674
  579SOL    HW1  227   1.374   2.374   1.762
  579SOL    HW2  228   1.472   2.269   1.683
  580SOL     OW  229   0.973   2.752   1.572
  580SOL    HW1  230   1.019   2.668   1.543
  580SOL    HW2  231   0.917   2.786   1.497
  581SOL     OW  232   0.991   2.272   1.242
  581SOL    HW1  233   0.914   2.306   1.296
  581SOL    HW2  234   0.957   2.221   1.163
  586SOL     OW  235   1.719   2.447   1.831
  586SOL    HW1  236   1.693   2.536   1.795
  586SOL    HW2  237   1.717   2.379   1.758
  591SOL     OW  238   1.795   2.928   0.873
  591SOL    HW1  239   1.733   2.913   0.797
  591SOL    HW2  240   1.743   2.939   0.958
  592SOL     OW  241   1.227   3.412   1.506
  592SOL    HW1  242   1.233   3.335   1.570
  592SOL    HW2  243   1.175   3.386   1.426
  604SOL     OW  244   1.547   2.084   1.729
  604SOL    HW1  245   1.542   2.121   1.821
  604SOL    HW2  246   1.475   2.015   1.717
  606SOL     OW  247   0.781   2.126   1.749
  606SOL    HW1  248   0.848   2.065   1.792
  606SOL    HW2  249   0.708   2.145   1.814
  608SOL     OW  250   1.351   2.452   1.433
  608SOL    HW1  251   1.379   2.409   1.518
  608SOL    HW2  252   1.376   2.548   1.434
  615SOL     OW  253   1.076   2.545   1.464
  615SOL    HW1  254   0.996   2.484   1.467
  615SOL    HW2  255   1.157   2.492   1.440
  625SOL     OW  256   1.466   2.452   0.992
  625SOL    HW1  257   1.436   2.357   0.999
  625SOL    HW2  258   1.539   2.468   1.058
  631SOL     OW  259   1.754   3.085   1.588
  631SOL    HW1  260   1.845   3.046   1.575
  631SOL    HW2  261   1.762   3.181   1.612
  633SOL     OW  262   1.592   3.491   1.625
  633SOL    HW1  263   1.619   3.525   1.535
  633SOL    HW2  264   1.671   3.453   1.671
  635SOL     OW  265   1.638   2.961   1.079
  635SOL    HW1  266   1.643   3.042   1.138
  635SOL    HW2  267   1.552   2.963   1.028
  637SOL     OW  268   0.980   2.978   1.719
  637SOL    HW1  269   0.881   2.984   1.729
  637SOL    HW2  270   1.003   2.898   1.663
  640SOL     OW  271   1.274   2.248   1.262
  640SOL    HW1  272   1.295   2.322   1.326
  640SOL    HW2  273   1.185   2.265   1.219
  649SOL     OW  274   1.587   2.641   1.670
  649SOL    HW1  275   1.495   2.679   1.665
  649SOL    HW2  276   1.647   2.688   1.605
  650SOL     OW  277   1.013   1.967   1.770
  650SOL    HW1  278   1.019   2.052   1.718
  650SOL    HW2  279   1.045   1.891   1.713
  653SOL     OW  280   1.360   2.724   1.045
  653SOL    HW1  281   1.285   2.724   0.979
  653SOL    HW2  282   1.397   2.632   1.054
  658SOL     OW  283   1.728   2.797   1.854
  658SOL    HW1  284   1.682   2.790   1.765
  658SOL    HW2  285   1.666   2.841   1.920
  663SOL     OW  286   1.859   3.380   1.605
  663SOL    HW1  287   1.873   3.407   1.510
  663SOL    HW2  288   1.942   3.402   1.658
  670SOL     OW  289   1.138   2.242   1.678
  670SOL    HW1  290   1.093   2.305   1.742
  670SOL    HW2  291   1.231   2.273   1.661
  671SOL     OW  292   1.160   2.069   1.477
  671SOL    HW1  293   1.160   2.133   1.554
  671SOL    HW2  294   1.188   2.117   1.394
  678SOL     OW  295   1.369   2.812   1.660
  678SOL    HW1  296   1.408   2.901   1.680
  678SOL    HW2  297   1.379   2.792   1.563
  680SOL     OW  298   1.657   2.466   1.206
  680SOL    HW1  299   1.619   2.397   1.268
  680SOL    HW2  300   1.739   2.430   1.162
  686SOL     OW  301   1.347   2.921   1.234
  686SOL    HW1  302   1.371   2.858   1.160
  686SOL    HW2  303   1.257   2.961   1.216
  699SOL     OW  304   1.650   3.582   1.394
  699SOL    HW1  305   1.703   3.592   1.310
  699SOL    HW2  306   1.623   3.672   1.428
  700SOL     OW  307   1.841   2.037   0.963
  700SOL    HW1  308   1.880   1.952   0.927
  700SOL    HW2  309   1.743   2.039   0.944
  707SOL     OW  310   1.614   3.154   1.289
  707SOL    HW1  311   1.674   3.157   1.369
  707SOL    HW2  312   1.539   3.218   1.302
  711SOL     OW  313   1.709   2.247   1.381
  711SOL    HW1  314   1.782   2.316   1.385
  711SOL    HW2  315   1.737   2.172   1.322
  716SOL     OW  316   1.440   2.718   1.398
  716SOL    HW1  317   1.383   2.770   1.335
  716SOL    HW2  318   1.536   2.730   1.374
  721SOL     OW  319   0.716   2.427   1.708
  721SOL    HW1  320   0.735   2.492   1.782
  721SOL    HW2  321   0.776   2.347   1.717
  722SOL     OW  322   1.450   3.082   1.633
  722SOL    HW1  323   1.441   3.072   1.732
  722SOL    HW2  324   1.546   3.075   1.607
  724SOL     OW  325   1.674   2.745   1.254
  724SOL    HW1  326   1.647   2.656   1.217
  724SOL    HW2  327   1.675   2.813   1.181
  727SOL     OW  328   1.777   2.204   1.642
  727SOL    HW1  329   1.760   2.235   1.548
  727SOL    HW2  330   1.693   2.167   1.680
  728SOL     OW  331   1.730   2.796   1.517
  728SOL    HW1  332   1.768   2.887   1.532
  728SOL    HW2  333   1.722   2.779   1.418
  737SOL     OW  334   1.824   2.054   1.227
  737SOL    HW1  335   1.820   1.964   1.271
  737SOL    HW2  336   1.827   2.043   1.128
  739SOL     OW  337   1.705   3.349   1.104
  739SOL    HW1  338   1.612   3.324   1.077
  739SOL    HW2  339   1.731   3.299   1.186
  742SOL     OW  340   1.424   2.076   1.112
  742SOL    HW1  341   1.476   2.011   1.167
  742SOL    HW2  342   1.375   2.139   1.173
  748SOL     OW  343   1.593   2.083   0.882
  748SOL    HW1  344   1.509   2.082   0.936
  748SOL    HW2  345   1.595   2.166   0.826
  755SOL     OW  346   1.555   3.373   2.565
  755SOL    HW1  347   1.498   3.357   2.646
  755SOL    HW2  348   1.496   3.383   2.485
  756SOL     OW  349   1.135   2.565   2.579
  756SOL    HW1  350   1.192   2.643   2.554
  756SOL    HW2  351   1.075   2.591   2.655
  757SOL     OW  352   1.755   2.469   2.093
  757SOL    HW1  353   1.743   2.456   1.994
  757SOL    HW2  354   1.725   2.388   2.142
  760SOL     OW  355   0.685   2.874   2.527
  760SOL    HW1  356   0.754   2.858   2.597
  760SOL    HW2  357   0.612   2.931   2.565
  763SOL     OW  358   1.460   3.367   3.201
  763SOL    HW1  359   1.484   3.461   3.227
  763SOL    HW2  360   1.444   3.313   3.283
  765SOL     OW  361   1.603   2.309   2.599
  765SOL    HW1  362   1.529   2.355   2.549
  765SOL    HW2  363   1.654   2.377   2.652
  772SOL     OW  364   1.594   1.976   3.342
  772SOL    HW1  365   1.576   2.043   3.270
  772SOL    HW2  366   1.591   2.022   3.431
  774SOL     OW  367   1.842   3.629   2.221
  774SOL    HW1  368   1.896   3.600   2.301
  774SOL    HW2  369   1.872   3.719   2.192
  776SOL     OW  370   1.689   2.784   2.474
  776SOL    HW1  371   1.784   2.755   2.482
  776SOL    HW2  372   1.681   2.849   2.399
  777SOL     OW  373   1.641   2.970   2.294
  777SOL    HW1  374   1.727   2.972   2.242
  777SOL    HW2  375   1.655   3.017   2.382
  780SOL     OW  376   1.293   3.090   3.285
  780SOL    HW1  377   1.330   3.017   3.227
  780SOL    HW2  378   1.345   3.095   3.370
  781SOL     OW  379   0.809   1.866   2.364
  781SOL    HW1  380   0.849   1.957   2.355
  781SOL    HW2  381   0.709   1.874   2.370
  783SOL     OW  382   1.525   2.861   2.052
  783SOL    HW1  383   1.462   2.785   2.065
  783SOL    HW2  384   1.573   2.879   2.138
  786SOL     OW  385   1.466   3.279   2.815
  786SOL    HW1  386   1.407   3.285   2.895
  786SOL    HW2  387   1.451   3.191   2.769
  787SOL     OW  388   1.667   3.576   2.434
  787SOL    HW1  389   1.626   3.553   2.346
  787SOL    HW2  390   1.649   3.502   2.499
  789SOL     OW  391   1.281   2.207   2.806
  789SOL    HW1  392   1.195   2.157   2.793
  789SOL    HW2  393   1.343   2.153   2.862
  790SOL     OW  394   1.576   3.524   2.169
  790SOL    HW1  395   1.665   3.570   2.172
  790SOL    HW2  396   1.555   3.500   2.074
  792SOL     OW  397   1.394   2.331   3.536
  792SOL    HW1  398   1.374   2.374   3.624
  792SOL    HW2  399   1.472   2.269   3.545
  793SOL     OW  400   0.973   2.752   3.434
  793SOL    HW1  401   1.019   2.668   3.405
  793SOL    HW2  402   0.917   2.786   3.359
  794SOL     OW  403   0.991   2.272   3.104
  794SOL    HW1  404   0.914   2.306   3.158
  794SOL    HW2  405   0.957   2.221   3.025
  795SOL     OW  406   1.041   2.563   2.291
  795SOL    HW1  407   1.067   2.559   2.387
  795SOL    HW2  408   0.956   2.512   2.277
  798SOL     OW  409   0.865   2.210   2.057
  798SOL    HW1  410   0.924   2.273   2.008
  798SOL    HW2  411   0.884   2.116   2.028
  799SOL     OW  412   1.719   2.447   3.693
  799SOL    HW1  413   1.693   2.536   3.657
  799SOL    HW2  414   1.717   2.379   3.620
  800SOL     OW  415   1.362   3.006   2.407
  800SOL    HW1  416   1.445   2.977   2.359
  800SOL    HW2  417   1.313   3.073   2.351
  802SOL     OW  418   1.008   3.318   2.339
  802SOL    HW1  419   0.962   3.390   2.287
  802SOL    HW2  420   1.004   3.338   2.437
  804SOL     OW  421   1.795   2.928   2.735
  804SOL    HW1  422   1.733   2.913   2.659
  804SOL    HW2  423   1.743   2.939   2.820
  807SOL     OW  424   1.458   2.597   2.590
  807SOL    HW1  425   1.453   2.532   2.665
  807SOL    HW2  426   1.538   2.656   2.603
  811SOL     OW  427   1.632   3.239   1.943
  811SOL    HW1  428   1.600   3.333   1.933
  811SOL    HW2  429   1.556   3.176   1.931
  813SOL     OW  430   1.400   1.969   2.288
  813SOL    HW1  431   1.376   1.932   2.198
  813SOL    HW2  432   1.499   1.985   2.292
  817SOL     OW  433   1.547   2.084   3.591
  817SOL    HW1  434   1.542   2.121   3.683
  817SOL    HW2  435   1.475   2.015   3.579
  821SOL     OW  436   1.351   2.452   3.295
  821SOL    HW1  437   1.379   2.409   3.380
  821SOL    HW2  438   1.376   2.548   3.296
  823SOL     OW  439   0.922   2.365   2.761
  823SOL    HW1  440   0.897   2.356   2.665
  823SOL    HW2  441   0.970   2.283   2.792
  825SOL     OW  442   1.434   3.050   1.903
  825SOL    HW1  443   1.466   2.974   1.960
  825SOL    HW2  444   1.342   3.077   1.933
  827SOL     OW  445   0.935   2.098   2.342
  827SOL    HW1  446   0.887   2.139   2.264
  827SOL    HW2  447   1.034   2.096   2.323
  828SOL     OW  448   1.076   2.545   3.326
  828SOL    HW1  449   0.996   2.484   3.329
  828SOL    HW2  450   1.157   2.492   3.302
  829SOL     OW  451   1.227   3.432   2.655
  829SOL    HW1  452   1.248   3.506   2.590
  829SOL    HW2  453   1.295   3.432   2.728
  831SOL     OW  454   1.271   3.659   2.453
  831SOL    HW1  455   1.315   3.723   2.389
  831SOL    HW2  456   1.221   3.711   2.523
  832SOL     OW  457   1.032   2.411   1.878
  832SOL    HW1  458   0.991   2.493   1.839
  832SOL    HW2  459   1.096   2.437   1.951
  835SOL     OW  460   0.866   2.316   2.504
  835SOL    HW1  461   0.834   2.388   2.442
  835SOL    HW2  462   0.890   2.235   2.451
  836SOL     OW  463   1.017   1.901   2.615
  836SOL    HW1  464   0.945   1.906   2.546
  836SOL    HW2  465   0.993   1.832   2.684
  837SOL     OW  466   1.429   3.035   2.729
  837SOL    HW1  467   1.374   2.951   2.722
  837SOL    HW2  468   1.455   3.064   2.637
  838SOL     OW  469   1.466   2.452   2.854
  838SOL    HW1  470   1.436   2.357   2.861
  838SOL    HW2  471   1.539   2.468   2.920
  839SOL     OW  472   1.857   2.695   2.239
  839SOL    HW1  473   1.899   2.631   2.303
  839SOL    HW2  474   1.819   2.644   2.161
  841SOL     OW  475   1.664   3.142   2.519
  841SOL    HW1  476   1.763   3.150   2.533
  841SOL    HW2  477   1.619   3.226   2.550
  842SOL     OW  478   1.390   2.437   1.940
  842SOL    HW1  479   1.336   2.416   2.021
  842SOL    HW2  480   1.481   2.396   1.949
  844SOL     OW  481   1.754   3.085   3.450
  844SOL    HW1  482   1.845   3.046   3.437
  844SOL    HW2  483   1.762   3.181   3.474
  845SOL     OW  484   1.064   3.209   3.202
  845SOL    HW1  485   0.984   3.186   3.257
  845SOL    HW2  486   1.147   3.183   3.251
  846SOL     OW  487   1.592   3.491   3.487
  846SOL    HW1  488   1.619   3.525   3.397
  846SOL    HW2  489   1.671   3.453   3.533
  847SOL     OW  490   1.111   3.057   2.962
  847SOL    HW1  491   1.071   3.101   3.043
  847SOL    HW2  492   1.070   3.094   2.879
  848SOL     OW  493   1.638   2.961   2.941
  848SOL    HW1  494   1.643   3.042   3.000
  848SOL    HW2  495   1.552   2.963   2.890
  849SOL     OW  496   0.915   1.951   3.264
  849SOL    HW1  497   0.940   1.931   3.169
  849SOL    HW2  498   0.987   2.007   3.306
  851SOL     OW  499   0.705   2.912   2.230
  851SOL    HW1  500   0.691   2.919   2.329
  851SOL    HW2  501   0.789   2.861   2.212
  853SOL     OW  502   1.274   2.248   3.124
  853SOL    HW1  503   1.295   2.322   3.188
  853SOL    HW2  504   1.185   2.265   3.081
  857SOL     OW  505   1.252   3.210   2.250
  857SOL    HW1  506   1.302   3.287   2.290
  857SOL    HW2  507   1.157   3.212   2.282
  858SOL     OW  508   1.272   3.307   3.004
  858SOL    HW1  509   1.319   3.320   3.091
  858SOL    HW2  510   1.206   3.233   3.013
  859SOL     OW  511   1.582   2.501   2.334
  859SOL    HW1  512   1.551   2.562   2.407
  859SOL    HW2  513   1.632   2.553   2.265
  862SOL     OW  514   1.587   2.641   3.532
  862SOL    HW1  515   1.495   2.679   3.527
  862SOL    HW2  516   1.647   2.688   3.467
  866SOL     OW  517   1.360   2.724   2.907
  866SOL    HW1  518   1.285   2.724   2.841
  866SOL    HW2  519   1.397   2.632   2.916
  867SOL     OW  520   1.209   2.387   2.137
  867SOL    HW1  521   1.222   2.303   2.191
  867SOL    HW2  522   1.180   2.461   2.197
  870SOL     OW  523   0.732   2.496   2.926
  870SOL    HW1  524   0.791   2.470   2.850
  870SOL    HW2  525   0.704   2.592   2.915
  871SOL     OW  526   1.728   2.797   3.716
  871SOL    HW1  527   1.682   2.790   3.627
  871SOL    HW2  528   1.666   2.841   3.782
  873SOL     OW  529   1.622   2.229   2.236
  873SOL    HW1  530   1.624   2.153   2.300
  873SOL    HW2  531   1.574   2.306   2.276
  874SOL     OW  532   1.023   2.628   2.828
  874SOL    HW1  533   1.038   2.649   2.924
  874SOL    HW2  534   0.993   2.533   2.819
  876SOL     OW  535   1.859   3.380   3.467
  876SOL    HW1  536   1.873   3.407   3.372
  876SOL    HW2  537   1.942   3.402   3.520
  878SOL     OW  538   1.540   2.136   1.987
  878SOL    HW1  539   1.479   2.061   2.010
  878SOL    HW2  540   1.562   2.188   2.070
  879SOL     OW  541   1.303   2.700   1.904
  879SOL    HW1  542   1.337   2.607   1.919
  879SOL    HW2  543   1.321   2.727   1.809
  880SOL     OW  544   1.068   3.195   2.711
  880SOL    HW1  545   1.075   3.111   2.656
  880SOL    HW2  546   1.130   3.264   2.675
  883SOL     OW  547   1.138   2.242   3.540
  883SOL    HW1  548   1.093   2.305   3.604
  883SOL    HW2  549   1.231   2.273   3.523
  884SOL     OW  550   1.160   2.069   3.339
  884SOL    HW1  551   1.160   2.133   3.416
  884SOL    HW2  552   1.188   2.117   3.256
  888SOL     OW  553   1.002   2.658   3.100
  888SOL    HW1  554   1.043   2.626   3.186
  888SOL    HW2  555   0.906   2.631   3.097
  891SOL     OW  556   1.369   2.812   3.522
  891SOL    HW1  557   1.408   2.901   3.542
  891SOL    HW2  558   1.379   2.792   3.425
  892SOL     OW  559   0.815   2.434   2.187
  892SOL    HW1  560   0.822   2.345   2.141
  892SOL    HW2  561   0.721   2.468   2.179
  893SOL     OW  562   1.657   2.466   3.068
  893SOL    HW1  563   1.619   2.397   3.130
  893SOL    HW2  564   1.739   2.430   3.024
  899SOL     OW  565   1.347   2.921   3.096
  899SOL    HW1  566   1.371   2.858   3.022
  899SOL    HW2  567   1.257   2.961   3.078
  900SOL     OW  568   1.302   2.717   2.171
  900SOL    HW1  569   1.216   2.686   2.213
  900SOL    HW2  570   1.298   2.703   2.072
  901SOL     OW  571   1.759   3.609   3.016
  901SOL    HW1  572   1.820   3.639   2.943
  901SOL    HW2  573   1.721   3.520   2.994
  902SOL     OW  574   1.252   3.593   2.990
  902SOL    HW1  575   1.336   3.598   2.936
  902SOL    HW2  576   1.229   3.497   3.008
  905SOL     OW  577   1.726   1.997   2.385
  905SOL    HW1  578   1.799   1.980   2.318
  905SOL    HW2  579   1.695   1.910   2.423
  906SOL     OW  580   1.388   3.435   2.339
  906SOL    HW1  581   1.455   3.447   2.265
  906SOL    HW2  582   1.348   3.524   2.362
  908SOL     OW  583   1.280   2.789   2.534
  908SOL    HW1  584   1.340   2.708   2.536
  908SOL    HW2  585   1.320   2.858   2.474
  911SOL     OW  586   1.650   3.582   3.256
  911SOL    HW1  587   1.703   3.592   3.172
  911SOL    HW2  588   1.623   3.672   3.290
  912SOL     OW  589   1.841   2.037   2.825
  912SOL    HW1  590   1.880   1.952   2.789
  912SOL    HW2  591   1.743   2.039   2.806
  914SOL     OW  592   1.194   3.474   1.893
  914SOL    HW1  593   1.200   3.381   1.930
  914SOL    HW2  594   1.135   3.474   1.813
  916SOL     OW  595   0.916   2.772   2.153
  916SOL    HW1  596   0.979   2.810   2.085
  916SOL    HW2  597   0.956   2.689   2.192
  917SOL     OW  598   1.504   3.469   1.906
  917SOL    HW1  599   1.412   3.506   1.913
  917SOL    HW2  600   1.542   3.489   1.816
  919SOL     OW  601   1.614   3.154   3.151
  919SOL    HW1  602   1.674   3.157   3.231
  919SOL    HW2  603   1.539   3.218   3.164
  920SOL     OW  604   1.039   2.960   2.558
  920SOL    HW1  605   0.969   2.913   2.612
  920SOL    HW2  606   1.098   2.892   2.515
  921SOL     OW  607   1.014   2.098   2.833
  921SOL    HW1  608   1.006   2.062   2.740
  921SOL    HW2  609   1.012   2.022   2.898
  923SOL     OW  610   1.709   2.247   3.243
  923SOL    HW1  611   1.782   2.316   3.247
  923SOL    HW2  612   1.737   2.172   3.184
  928SOL     OW  613   1.440   2.718   3.260
  928SOL    HW1  614   1.383   2.770   3.197
  928SOL    HW2  615   1.536   2.730   3.236
  930SOL     OW  616   1.183   3.197   1.981
  930SOL    HW1  617   1.084   3.186   1.983
  930SOL    HW2  618   1.217   3.212   2.074
  932SOL     OW  619   1.493   3.629   2.821
  932SOL    HW1  620   1.526   3.693   2.752
  932SOL    HW2  621   1.559   3.623   2.896
  934SOL     OW  622   1.450   3.082   3.495
  934SOL    HW1  623   1.441   3.072   3.594
  934SOL    HW2  624   1.546   3.075   3.469
  936SOL     OW  625   1.674   2.745   3.116
  936SOL    HW1  626   1.647   2.656   3.079
  936SOL    HW2  627   1.675   2.813   3.043
  937SOL     OW  628   1.225   2.187   2.311
  937SOL    HW1  629   1.290   2.113   2.300
  937SOL    HW2  630   1.245   2.237   2.395
  939SOL     OW  631   1.777   2.204   3.504
  939SOL    HW1  632   1.760   2.235   3.410
  939SOL    HW2  633   1.693   2.167   3.542
  940SOL     OW  634   1.730   2.796   3.379
  940SOL    HW1  635   1.768   2.887   3.394
  940SOL    HW2  636   1.722   2.779   3.280
  943SOL     OW  637   0.859   2.818   2.723
  943SOL    HW1  638   0.913   2.749   2.771
  943SOL    HW2  639   0.827   2.887   2.789
  944SOL     OW  640   1.083   2.846   1.949
  944SOL    HW1  641   1.060   2.899   1.867
  944SOL    HW2  642   1.164   2.790   1.930
  945SOL     OW  643   1.861   3.431   2.713
  945SOL    HW1  644   1.790   3.419   2.643
  945SOL    HW2  645   1.862   3.352   2.773
  949SOL     OW  646   1.824   2.054   3.089
  949SOL    HW1  647   1.820   1.964   3.133
  949SOL    HW2  648   1.827   2.043   2.990
  951SOL     OW  649   1.705   3.349   2.966
  951SOL    HW1  650   1.612   3.324   2.939
  951SOL    HW2  651   1.731   3.299   3.048
  954SOL     OW  652   1.424   2.076   2.974
  954SOL    HW1  653   1.476   2.011   3.029
  954SOL    HW2  654   1.375   2.139   3.035
  955SOL     OW  655   1.001   1.896   3.016
  955SOL    HW1  656   0.938   1.824   2.985
  955SOL    HW2  657   1.094   1.860   3.016
  958SOL     OW  658   1.352   1.914   2.030
  958SOL    HW1  659   1.387   1.873   1.946
  958SOL    HW2  660   1.262   1.876   2.050
  959SOL     OW  661   1.300   2.315   2.553
  959SOL    HW1  662   1.241   2.395   2.557
  959SOL    HW2  663   1.315   2.280   2.646
  960SOL     OW  664   1.593   2.083   2.744
  960SOL    HW1  665   1.509   2.082   2.798
  960SOL    HW2  666   1.595   2.166   2.688
  967SOL     OW  667   1.755   2.469   3.955
  967SOL    HW1  668   1.743   2.456   3.856
  967SOL    HW2  669   1.725   2.388   4.004
 1018SOL     OW  670   1.390   2.437   3.802
 1018SOL    HW1  671   1.336   2.416   3.883
 1018SOL    HW2  672   1.481   2.396   3.811
 1029SOL     OW  673   1.540   2.136   3.849
 1029SOL    HW1  674   1.479   2.061   3.872
 1029SOL    HW2  675   1.562   2.188   3.932
 1030SOL     OW  676   1.303   2.700   3.766
 1030SOL    HW1  677   1.337   2.607   3.781
 1030SOL    HW2  678   1.321   2.727   3.671
 1217SOL     OW  679   1.400   3.831   2.288
 1217SOL    HW1  680   1.376   3.794   2.198
 1217SOL    HW2  681   1.499   3.847   2.292
 1275SOL     OW  682   1.726   3.859   2.385
 1275SOL    HW1  683   1.799   3.842   2.318
 1275SOL    HW2  684   1.695   3.772   2.423
 1277SOL     OW  685   1.841   3.899   2.825
 1277SOL    HW1  686   1.880   3.814   2.789
 1277SOL    HW2  687   1.743   3.901   2.806
 1294SOL     OW  688   1.824   3.916   3.089
 1294SOL    HW1  689   1.820   3.826   3.133
 1294SOL    HW2  690   1.827   3.905   2.990
 1299SOL     OW  691   1.352   3.776   2.030
 1299SOL    HW1  692   1.387   3.735   1.946
 1299SOL    HW2  693   1.262   3.738   2.050
 1301SOL     OW  694   1.593   3.945   2.744
 1301SOL    HW1  695   1.509   3.944   2.798
 1301SOL    HW2  696   1.595   4.028   2.688
 1366SOL     OW  697   2.431   1.275   1.165
 1366SOL    HW1  698   2.338   1.268   1.128
 1366SOL    HW2  699   2.442   1.364   1.209
 1371SOL     OW  700   2.712   0.798   1.823
 1371SOL    HW1  701   2.708   0.874   1.888
 1371SOL    HW2  702   2.734   0.834   1.732
 1373SOL     OW  703   2.548   1.161   1.803
 1373SOL    HW1  704   2.608   1.240   1.817
 1373SOL    HW2  705   2.462   1.192   1.762
 1374SOL     OW  706   2.197   1.435   1.061
 1374SOL    HW1  707   2.119   1.404   1.008
 1374SOL    HW2  708   2.255   1.493   1.004
 1375SOL     OW  709   3.322   1.505   1.339
 1375SOL    HW1  710   3.346   1.599   1.365
 1375SOL    HW2  711   3.306   1.451   1.421
 1379SOL     OW  712   2.989   1.341   1.690
 1379SOL    HW1  713   3.036   1.341   1.778
 1379SOL    HW2  714   2.941   1.254   1.679
 1382SOL     OW  715   2.482   1.786   1.439
 1382SOL    HW1  716   2.390   1.769   1.474
 1382SOL    HW2  717   2.510   1.878   1.465
 1391SOL     OW  718   3.155   1.228   1.423
 1391SOL    HW1  719   3.192   1.155   1.365
 1391SOL    HW2  720   3.207   1.233   1.508
 1395SOL     OW  721   3.049   1.792   1.616
 1395SOL    HW1  722   3.073   1.852   1.540
 1395SOL    HW2  723   3.056   1.697   1.586
 1404SOL     OW  724   2.835   0.890   1.572
 1404SOL    HW1  725   2.881   0.806   1.543
 1404SOL    HW2  726   2.779   0.924   1.497
 1408SOL     OW  727   1.992   1.821   1.571
 1408SOL    HW1  728   1.982   1.806   1.670
 1408SOL    HW2  729   1.906   1.857   1.535
 1414SOL     OW  730   2.213   1.801   0.853
 1414SOL    HW1  731   2.263   1.715   0.859
 1414SOL    HW2  732   2.278   1.878   0.850
 1416SOL     OW  733   3.089   1.550   1.506
 1416SOL    HW1  734   3.095   1.473   1.570
 1416SOL    HW2  735   3.037   1.524   1.426
 1419SOL     OW  736   2.323   1.266   1.727
 1419SOL    HW1  737   2.273   1.267   1.641
 1419SOL    HW2  738   2.260   1.248   1.803
 1425SOL     OW  739   2.111   1.785   1.241
 1425SOL    HW1  740   2.168   1.720   1.291
 1425SOL    HW2  741   2.095   1.752   1.148
 1426SOL     OW  742   2.802   1.698   0.904
 1426SOL    HW1  743   2.882   1.641   0.925
 1426SOL    HW2  744   2.753   1.658   0.827
 1431SOL     OW  745   2.750   1.514   1.195
 1431SOL    HW1  746   2.727   1.489   1.101
 1431SOL    HW2  747   2.811   1.445   1.234
 1433SOL     OW  748   2.665   1.402   0.924
 1433SOL    HW1  749   2.755   1.416   0.882
 1433SOL    HW2  750   2.594   1.404   0.853
 1456SOL     OW  751   2.926   1.347   1.340
 1456SOL    HW1  752   2.846   1.324   1.395
 1456SOL    HW2  753   3.009   1.321   1.389
 1457SOL     OW  754   3.454   1.629   1.625
 1457SOL    HW1  755   3.481   1.663   1.535
 1457SOL    HW2  756   3.533   1.591   1.671
 1461SOL     OW  757   2.842   1.116   1.719
 1461SOL    HW1  758   2.743   1.122   1.729
 1461SOL    HW2  759   2.865   1.036   1.663
 1465SOL     OW  760   1.926   1.564   1.331
 1465SOL    HW1  761   1.880   1.646   1.297
 1465SOL    HW2  762   2.024   1.583   1.340
 1469SOL     OW  763   3.134   1.445   1.142
 1469SOL    HW1  764   3.181   1.458   1.229
 1469SOL    HW2  765   3.068   1.371   1.151
 1471SOL     OW  766   2.216   1.510   1.329
 1471SOL    HW1  767   2.195   1.466   1.242
 1471SOL    HW2  768   2.313   1.536   1.332
 1480SOL     OW  769   1.899   1.310   1.282
 1480SOL    HW1  770   1.952   1.261   1.350
 1480SOL    HW2  771   1.921   1.408   1.287
 1486SOL     OW  772   2.842   1.573   1.700
 1486SOL    HW1  773   2.822   1.617   1.612
 1486SOL    HW2  774   2.881   1.482   1.684
 1487SOL     OW  775   3.721   1.518   1.605
 1487SOL    HW1  776   3.735   1.545   1.510
 1487SOL    HW2  777   3.804   1.540   1.658
 1488SOL     OW  778   2.212   0.898   1.804
 1488SOL    HW1  779   2.288   0.942   1.852
 1488SOL    HW2  780   2.247   0.851   1.722
 1497SOL     OW  781   1.950   1.801   0.927
 1497SOL    HW1  782   1.908   1.715   0.900
 1497SOL    HW2  783   2.044   1.804   0.893
 1498SOL     OW  784   2.366   1.568   0.910
 1498SOL    HW1  785   2.432   1.642   0.919
 1498SOL    HW2  786   2.410   1.489   0.868
 1505SOL     OW  787   2.114   1.564   1.744
 1505SOL    HW1  788   2.084   1.621   1.820
 1505SOL    HW2  789   2.107   1.467   1.770
 1507SOL     OW  790   2.792   1.678   1.465
 1507SOL    HW1  791   2.768   1.660   1.370
 1507SOL    HW2  792   2.822   1.772   1.475
 1509SOL     OW  793   2.021   1.137   1.466
 1509SOL    HW1  794   2.043   1.076   1.542
 1509SOL    HW2  795   2.031   1.088   1.380
 1513SOL     OW  796   3.114   1.731   1.128
 1513SOL    HW1  797   3.198   1.736   1.074
 1513SOL    HW2  798   3.091   1.635   1.146
 1515SOL     OW  799   2.550   1.662   1.716
 1515SOL    HW1  800   2.494   1.743   1.725
 1515SOL    HW2  801   2.602   1.666   1.630
 1519SOL     OW  802   1.992   1.794   1.851
 1519SOL    HW1  803   1.951   1.720   1.904
 1519SOL    HW2  804   2.056   1.845   1.909
 1521SOL     OW  805   2.692   1.273   1.422
 1521SOL    HW1  806   2.687   1.306   1.517
 1521SOL    HW2  807   2.606   1.292   1.376
 1523SOL     OW  808   3.512   1.720   1.394
 1523SOL    HW1  809   3.565   1.730   1.310
 1523SOL    HW2  810   3.485   1.810   1.428
 1527SOL     OW  811   2.684   1.002   1.372
 1527SOL    HW1  812   2.724   1.001   1.280
 1527SOL    HW2  813   2.694   1.094   1.412
 1530SOL     OW  814   2.234   1.288   1.490
 1530SOL    HW1  815   2.221   1.381   1.456
 1530SOL    HW2  816   2.150   1.236   1.477
 1537SOL     OW  817   1.967   1.013   1.726
 1537SOL    HW1  818   1.890   0.980   1.780
 1537SOL    HW2  819   2.052   0.983   1.768
 1545SOL     OW  820   3.312   1.220   1.633
 1545SOL    HW1  821   3.303   1.210   1.732
 1545SOL    HW2  822   3.408   1.213   1.607
 1546SOL     OW  823   2.252   1.741   1.560
 1546SOL    HW1  824   2.161   1.782   1.558
 1546SOL    HW2  825   2.245   1.647   1.592
 1553SOL     OW  826   2.523   1.790   0.953
 1553SOL    HW1  827   2.477   1.878   0.940
 1553SOL    HW2  828   2.622   1.802   0.946
 1557SOL     OW  829   2.083   1.314   1.844
 1557SOL    HW1  830   2.018   1.241   1.823
 1557SOL    HW2  831   2.087   1.328   1.942
 1559SOL     OW  832   2.534   1.391   1.624
 1559SOL    HW1  833   2.456   1.341   1.662
 1559SOL    HW2  834   2.531   1.486   1.655
 1568SOL     OW  835   2.480   1.567   1.284
 1568SOL    HW1  836   2.475   1.649   1.341
 1568SOL    HW2  837   2.569   1.564   1.239
 1577SOL     OW  838   2.431   1.275   3.027
 1577SOL    HW1  839   2.338   1.268   2.990
 1577SOL    HW2  840   2.442   1.364   3.071
 1578SOL     OW  841   3.417   1.511   2.565
 1578SOL    HW1  842   3.360   1.495   2.646
 1578SOL    HW2  843   3.358   1.521   2.485
 1579SOL     OW  844   2.997   0.703   2.579
 1579SOL    HW1  845   3.054   0.781   2.554
 1579SOL    HW2  846   2.937   0.729   2.655
 1581SOL     OW  847   2.630   1.144   2.885
 1581SOL    HW1  848   2.552   1.161   2.945
 1581SOL    HW2  849   2.664   1.231   2.849
 1583SOL     OW  850   2.547   1.012   2.527
 1583SOL    HW1  851   2.616   0.996   2.597
 1583SOL    HW2  852   2.474   1.069   2.565
 1584SOL     OW  853   2.548   1.161   3.665
 1584SOL    HW1  854   2.608   1.240   3.679
 1584SOL    HW2  855   2.462   1.192   3.624
 1585SOL     OW  856   2.197   1.435   2.923
 1585SOL    HW1  857   2.119   1.404   2.870
 1585SOL    HW2  858   2.255   1.493   2.866
 1586SOL     OW  859   3.322   1.505   3.201
 1586SOL    HW1  860   3.346   1.599   3.227
 1586SOL    HW2  861   3.306   1.451   3.283
 1589SOL     OW  862   2.093   1.713   2.345
 1589SOL    HW1  863   2.127   1.790   2.399
 1589SOL    HW2  864   2.137   1.713   2.255
 1590SOL     OW  865   2.989   1.341   3.552
 1590SOL    HW1  866   3.036   1.341   3.640
 1590SOL    HW2  867   2.941   1.254   3.541
 1591SOL     OW  868   2.092   1.434   2.400
 1591SOL    HW1  869   2.066   1.530   2.400
 1591SOL    HW2  870   2.021   1.380   2.445
 1592SOL     OW  871   2.102   1.091   2.748
 1592SOL    HW1  872   2.116   1.007   2.800
 1592SOL    HW2  873   2.047   1.155   2.803
 1593SOL     OW  874   2.482   1.786   3.301
 1593SOL    HW1  875   2.390   1.769   3.336
 1593SOL    HW2  876   2.510   1.878   3.327
 1594SOL     OW  877   2.468   0.964   1.985
 1594SOL    HW1  878   2.475   1.048   1.931
 1594SOL    HW2  879   2.514   0.977   2.073
 1596SOL     OW  880   1.984   0.643   2.425
 1596SOL    HW1  881   1.939   0.555   2.442
 1596SOL    HW2  882   1.983   0.697   2.509
 1597SOL     OW  883   3.704   1.767   2.221
 1597SOL    HW1  884   3.758   1.738   2.301
 1597SOL    HW2  885   3.734   1.857   2.192
 1598SOL     OW  886   1.889   1.596   1.979
 1598SOL    HW1  887   1.870   1.500   2.000
 1598SOL    HW2  888   1.856   1.654   2.054
 1600SOL     OW  889   3.503   1.108   2.294
 1600SOL    HW1  890   3.589   1.110   2.242
 1600SOL    HW2  891   3.517   1.155   2.382
 1602SOL     OW  892   2.475   1.365   2.588
 1602SOL    HW1  893   2.426   1.278   2.597
 1602SOL    HW2  894   2.452   1.408   2.501
 1603SOL     OW  895   3.155   1.228   3.285
 1603SOL    HW1  896   3.192   1.155   3.227
 1603SOL    HW2  897   3.207   1.233   3.370
 1605SOL     OW  898   2.059   0.976   3.126
 1605SOL    HW1  899   2.148   0.931   3.112
 1605SOL    HW2  900   1.986   0.911   3.107
 1606SOL     OW  901   3.387   0.999   2.052
 1606SOL    HW1  902   3.324   0.923   2.065
 1606SOL    HW2  903   3.435   1.017   2.138
 1607SOL     OW  904   3.049   1.792   3.478
 1607SOL    HW1  905   3.073   1.852   3.402
 1607SOL    HW2  906   3.056   1.697   3.448
 1609SOL     OW  907   3.328   1.417   2.815
 1609SOL    HW1  908   3.269   1.423   2.895
 1609SOL    HW2  909   3.313   1.329   2.769
 1610SOL     OW  910   3.529   1.714   2.434
 1610SOL    HW1  911   3.488   1.691   2.346
 1610SOL    HW2  912   3.511   1.640   2.499
 1611SOL     OW  913   2.460   0.729   2.132
 1611SOL    HW1  914   2.484   0.798   2.064
 1611SOL    HW2  915   2.382   0.762   2.186
 1613SOL     OW  916   3.438   1.662   2.169
 1613SOL    HW1  917   3.527   1.708   2.172
 1613SOL    HW2  918   3.417   1.638   2.074
 1618SOL     OW  919   2.903   0.701   2.291
 1618SOL    HW1  920   2.929   0.697   2.387
 1618SOL    HW2  921   2.818   0.650   2.277
 1619SOL     OW  922   1.938   0.811   2.651
 1619SOL    HW1  923   2.037   0.799   2.660
 1619SOL    HW2  924   1.914   0.906   2.672
 1620SOL     OW  925   1.992   1.821   3.433
 1620SOL    HW1  926   1.982   1.806   3.532
 1620SOL    HW2  927   1.906   1.857   3.397
 1623SOL     OW  928   3.224   1.144   2.407
 1623SOL    HW1  929   3.307   1.115   2.359
 1623SOL    HW2  930   3.175   1.211   2.351
 1625SOL     OW  931   2.870   1.456   2.339
 1625SOL    HW1  932   2.824   1.528   2.287
 1625SOL    HW2  933   2.866   1.476   2.437
 1626SOL     OW  934   2.213   1.801   2.715
 1626SOL    HW1  935   2.263   1.715   2.721
 1626SOL    HW2  936   2.278   1.878   2.712
 1628SOL     OW  937   3.089   1.550   3.368
 1628SOL    HW1  938   3.095   1.473   3.432
 1628SOL    HW2  939   3.037   1.524   3.288
 1629SOL     OW  940   2.183   0.943   2.104
 1629SOL    HW1  941   2.265   0.982   2.062
 1629SOL    HW2  942   2.156   0.861   2.055
 1631SOL     OW  943   2.323   1.266   3.589
 1631SOL    HW1  944   2.273   1.267   3.503
 1631SOL    HW2  945   2.260   1.248   3.665
 1632SOL     OW  946   2.973   1.776   2.099
 1632SOL    HW1  947   2.913   1.714   2.149
 1632SOL    HW2  948   3.004   1.732   2.014
 1634SOL     OW  949   3.494   1.377   1.943
 1634SOL    HW1  950   3.462   1.471   1.933
 1634SOL    HW2  951   3.418   1.314   1.931
 1635SOL     OW  952   2.326   1.743   2.185
 1635SOL    HW1  953   2.359   1.782   2.271
 1635SOL    HW2  954   2.402   1.736   2.120
 1637SOL     OW  955   2.111   1.785   3.103
 1637SOL    HW1  956   2.168   1.720   3.153
 1637SOL    HW2  957   2.095   1.752   3.010
 1638SOL     OW  958   2.802   1.698   2.766
 1638SOL    HW1  959   2.882   1.641   2.787
 1638SOL    HW2  960   2.753   1.658   2.689
 1639SOL     OW  961   2.244   0.700   2.342
 1639SOL    HW1  962   2.289   0.610   2.339
 1639SOL    HW2  963   2.150   0.689   2.375
 1643SOL     OW  964   2.750   1.514   3.057
 1643SOL    HW1  965   2.727   1.489   2.963
 1643SOL    HW2  966   2.811   1.445   3.096
 1645SOL     OW  967   2.665   1.402   2.786
 1645SOL    HW1  968   2.755   1.416   2.744
 1645SOL    HW2  969   2.594   1.404   2.715
 1648SOL     OW  970   3.296   1.188   1.903
 1648SOL    HW1  971   3.328   1.112   1.960
 1648SOL    HW2  972   3.204   1.215   1.933
 1652SOL     OW  973   3.089   1.570   2.655
 1652SOL    HW1  974   3.110   1.644   2.590
 1652SOL    HW2  975   3.157   1.570   2.728
 1653SOL     OW  976   2.321   1.152   2.603
 1653SOL    HW1  977   2.250   1.125   2.668
 1653SOL    HW2  978   2.295   1.124   2.510
 1654SOL     OW  979   3.133   1.797   2.453
 1654SOL    HW1  980   3.177   1.861   2.389
 1654SOL    HW2  981   3.083   1.849   2.523
 1660SOL     OW  982   3.291   1.173   2.729
 1660SOL    HW1  983   3.236   1.089   2.722
 1660SOL    HW2  984   3.317   1.202   2.637
 1663SOL     OW  985   2.350   1.385   2.036
 1663SOL    HW1  986   2.263   1.370   2.083
 1663SOL    HW2  987   2.333   1.411   1.941
 1664SOL     OW  988   3.526   1.280   2.519
 1664SOL    HW1  989   3.625   1.288   2.533
 1664SOL    HW2  990   3.481   1.364   2.550
 1668SOL     OW  991   2.926   1.347   3.202
 1668SOL    HW1  992   2.846   1.324   3.257
 1668SOL    HW2  993   3.009   1.321   3.251
 1669SOL     OW  994   3.454   1.629   3.487
 1669SOL    HW1  995   3.481   1.663   3.397
 1669SOL    HW2  996   3.533   1.591   3.533
 1670SOL     OW  997   2.973   1.195   2.962
 1670SOL    HW1  998   2.933   1.239   3.043
 1670SOL    HW2  999   2.932   1.232   2.879
 1671SOL     OW 1000   3.500   1.099   2.941
 1671SOL    HW1 1001   3.505   1.180   3.000
 1671SOL    HW2 1002   3.414   1.101   2.890
 1674SOL     OW 1003   2.567   1.050   2.230
 1674SOL    HW1 1004   2.553   1.057   2.329
 1674SOL    HW2 1005   2.651   0.999   2.212
 1675SOL     OW 1006   2.272   0.813   3.113
 1675SOL    HW1 1007   2.358   0.825   3.163
 1675SOL    HW2 1008   2.230   0.726   3.140
 1677SOL     OW 1009   1.926   1.564   3.193
 1677SOL    HW1 1010   1.880   1.646   3.159
 1677SOL    HW2 1011   2.024   1.583   3.202
 1678SOL     OW 1012   2.229   1.100   2.363
 1678SOL    HW1 1013   2.222   1.183   2.307
 1678SOL    HW2 1014   2.233   1.020   2.303
 1680SOL     OW 1015   3.114   1.348   2.250
 1680SOL    HW1 1016   3.164   1.425   2.290
 1680SOL    HW2 1017   3.019   1.350   2.282
 1681SOL     OW 1018   3.134   1.445   3.004
 1681SOL    HW1 1019   3.181   1.458   3.091
 1681SOL    HW2 1020   3.068   1.371   3.013
 1683SOL     OW 1021   2.216   1.510   3.191
 1683SOL    HW1 1022   2.195   1.466   3.104
 1683SOL    HW2 1023   2.313   1.536   3.194
 1688SOL     OW 1024   2.435   0.870   2.891
 1688SOL    HW1 1025   2.479   0.959   2.882
 1688SOL    HW2 1026   2.372   0.870   2.968
 1692SOL     OW 1027   1.899   1.310   3.144
 1692SOL    HW1 1028   1.952   1.261   3.212
 1692SOL    HW2 1029   1.921   1.408   3.149
 1697SOL     OW 1030   2.885   0.766   2.828
 1697SOL    HW1 1031   2.900   0.787   2.924
 1697SOL    HW2 1032   2.855   0.671   2.819
 1698SOL     OW 1033   2.842   1.573   3.562
 1698SOL    HW1 1034   2.822   1.617   3.474
 1698SOL    HW2 1035   2.881   1.482   3.546
 1702SOL     OW 1036   3.165   0.838   1.904
 1702SOL    HW1 1037   3.199   0.745   1.919
 1702SOL    HW2 1038   3.183   0.865   1.809
 1703SOL     OW 1039   2.930   1.333   2.711
 1703SOL    HW1 1040   2.937   1.249   2.656
 1703SOL    HW2 1041   2.992   1.402   2.675
 1704SOL     OW 1042   2.181   0.810   2.811
 1704SOL    HW1 1043   2.274   0.846   2.816
 1704SOL    HW2 1044   2.175   0.725   2.863
 1708SOL     OW 1045   1.870   1.326   2.062
 1708SOL    HW1 1046   1.777   1.347   2.031
 1708SOL    HW2 1047   1.880   1.227   2.075
 1709SOL     OW 1048   1.950   1.801   2.789
 1709SOL    HW1 1049   1.908   1.715   2.762
 1709SOL    HW2 1050   2.044   1.804   2.755
 1710SOL     OW 1051   2.366   1.568   2.772
 1710SOL    HW1 1052   2.432   1.642   2.781
 1710SOL    HW2 1053   2.410   1.489   2.730
 1717SOL     OW 1054   2.114   1.564   3.606
 1717SOL    HW1 1055   2.084   1.621   3.682
 1717SOL    HW2 1056   2.107   1.467   3.632
 1719SOL     OW 1057   2.792   1.678   3.327
 1719SOL    HW1 1058   2.768   1.660   3.232
 1719SOL    HW2 1059   2.822   1.772   3.337
 1721SOL     OW 1060   2.021   1.137   3.328
 1721SOL    HW1 1061   2.043   1.076   3.404
 1721SOL    HW2 1062   2.031   1.088   3.242
 1722SOL     OW 1063   3.209   1.059   3.096
 1722SOL    HW1 1064   3.233   0.996   3.022
 1722SOL    HW2 1065   3.119   1.099   3.078
 1723SOL     OW 1066   3.164   0.855   2.171
 1723SOL    HW1 1067   3.078   0.824   2.213
 1723SOL    HW2 1068   3.160   0.841   2.072
 1724SOL     OW 1069   3.621   1.747   3.016
 1724SOL    HW1 1070   3.682   1.777   2.943
 1724SOL    HW2 1071   3.583   1.658   2.994
 1725SOL     OW 1072   3.114   1.731   2.990
 1725SOL    HW1 1073   3.198   1.736   2.936
 1725SOL    HW2 1074   3.091   1.635   3.008
 1726SOL     OW 1075   1.945   1.258   2.884
 1726SOL    HW1 1076   1.940   1.257   2.984
 1726SOL    HW2 1077   1.862   1.217   2.846
 1727SOL     OW 1078   2.550   1.662   3.578
 1727SOL    HW1 1079   2.494   1.743   3.587
 1727SOL    HW2 1080   2.602   1.666   3.492
 1729SOL     OW 1081   3.250   1.573   2.339
 1729SOL    HW1 1082   3.317   1.585   2.265
 1729SOL    HW2 1083   3.210   1.662   2.362
 1730SOL     OW 1084   1.992   1.794   3.713
 1730SOL    HW1 1085   1.951   1.720   3.766
 1730SOL    HW2 1086   2.056   1.845   3.771
 1731SOL     OW 1087   3.142   0.927   2.534
 1731SOL    HW1 1088   3.202   0.846   2.536
 1731SOL    HW2 1089   3.182   0.996   2.474
 1732SOL     OW 1090   2.692   1.273   3.284
 1732SOL    HW1 1091   2.687   1.306   3.379
 1732SOL    HW2 1092   2.606   1.292   3.238
 1733SOL     OW 1093   2.534   1.616   2.016
 1733SOL    HW1 1094   2.543   1.626   1.917
 1733SOL    HW2 1095   2.494   1.527   2.037
 1734SOL     OW 1096   3.512   1.720   3.256
 1734SOL    HW1 1097   3.565   1.730   3.172
 1734SOL    HW2 1098   3.485   1.810   3.290
 1737SOL     OW 1099   3.056   1.612   1.893
 1737SOL    HW1 1100   3.062   1.519   1.930
 1737SOL    HW2 1101   2.997   1.612   1.813
 1738SOL     OW 1102   2.684   1.002   3.234
 1738SOL    HW1 1103   2.724   1.001   3.142
 1738SOL    HW2 1104   2.694   1.094   3.274
 1739SOL     OW 1105   2.778   0.910   2.153
 1739SOL    HW1 1106   2.841   0.948   2.085
 1739SOL    HW2 1107   2.818   0.827   2.192
 1740SOL     OW 1108   3.366   1.607   1.906
 1740SOL    HW1 1109   3.274   1.644   1.913
 1740SOL    HW2 1110   3.404   1.627   1.816
 1741SOL     OW 1111   2.234   1.288   3.352
 1741SOL    HW1 1112   2.221   1.381   3.318
 1741SOL    HW2 1113   2.150   1.236   3.339
 1742SOL     OW 1114   3.476   1.292   3.151
 1742SOL    HW1 1115   3.536   1.295   3.231
 1742SOL    HW2 1116   3.401   1.356   3.164
 1743SOL     OW 1117   2.901   1.098   2.558
 1743SOL    HW1 1118   2.831   1.051   2.612
 1743SOL    HW2 1119   2.960   1.030   2.515
 1745SOL     OW 1120   2.452   1.487   2.353
 1745SOL    HW1 1121   2.494   1.429   2.283
 1745SOL    HW2 1122   2.408   1.566   2.309
 1747SOL     OW 1123   2.117   1.348   2.152
 1747SOL    HW1 1124   2.021   1.349   2.125
 1747SOL    HW2 1125   2.129   1.401   2.236
 1753SOL     OW 1126   3.045   1.335   1.981
 1753SOL    HW1 1127   2.946   1.324   1.983
 1753SOL    HW2 1128   3.079   1.350   2.074
 1754SOL     OW 1129   2.475   0.842   3.293
 1754SOL    HW1 1130   2.531   0.923   3.276
 1754SOL    HW2 1131   2.534   0.762   3.296
 1755SOL     OW 1132   3.355   1.767   2.821
 1755SOL    HW1 1133   3.388   1.831   2.752
 1755SOL    HW2 1134   3.421   1.761   2.896
 1758SOL     OW 1135   2.252   1.741   3.422
 1758SOL    HW1 1136   2.161   1.782   3.420
 1758SOL    HW2 1137   2.245   1.647   3.454
 1761SOL     OW 1138   2.456   0.745   2.514
 1761SOL    HW1 1139   2.506   0.830   2.495
 1761SOL    HW2 1140   2.368   0.747   2.466
 1764SOL     OW 1141   2.721   1.374   1.878
 1764SOL    HW1 1142   2.675   1.389   1.966
 1764SOL    HW2 1143   2.765   1.459   1.848
 1765SOL     OW 1144   2.523   1.790   2.815
 1765SOL    HW1 1145   2.477   1.878   2.802
 1765SOL    HW2 1146   2.622   1.802   2.808
 1766SOL     OW 1147   2.721   0.956   2.723
 1766SOL    HW1 1148   2.775   0.887   2.771
 1766SOL    HW2 1149   2.689   1.025   2.789
 1767SOL     OW 1150   2.945   0.984   1.949
 1767SOL    HW1 1151   2.922   1.037   1.867
 1767SOL    HW2 1152   3.026   0.928   1.930
 1768SOL     OW 1153   3.723   1.569   2.713
 1768SOL    HW1 1154   3.652   1.557   2.643
 1768SOL    HW2 1155   3.724   1.490   2.773
 1769SOL     OW 1156   2.083   1.314   3.706
 1769SOL    HW1 1157   2.018   1.241   3.685
 1769SOL    HW2 1158   2.087   1.328   3.804
 1770SOL     OW 1159   1.941   1.240   2.515
 1770SOL    HW1 1160   1.940   1.193   2.603
 1770SOL    HW2 1161   2.023   1.212   2.464
 1771SOL     OW 1162   2.534   1.391   3.486
 1771SOL    HW1 1163   2.456   1.341   3.524
 1771SOL    HW2 1164   2.531   1.486   3.517
 1774SOL     OW 1165   3.567   1.487   2.966
 1774SOL    HW1 1166   3.474   1.462   2.939
 1774SOL    HW2 1167   3.593   1.437   3.048
 1776SOL     OW 1168   2.674   1.586   2.549
 1776SOL    HW1 1169   2.706   1.596   2.455
 1776SOL    HW2 1170   2.595   1.524   2.551
 1779SOL     OW 1171   2.632   1.330   2.163
 1779SOL    HW1 1172   2.586   1.243   2.180
 1779SOL    HW2 1173   2.723   1.327   2.204
 1780SOL     OW 1174   2.480   1.567   3.146
 1780SOL    HW1 1175   2.475   1.649   3.203
 1780SOL    HW2 1176   2.569   1.564   3.101
 1784SOL     OW 1177   1.901   1.077   2.162
 1784SOL    HW1 1178   2.000   1.066   2.153
 1784SOL    HW2 1179   1.861   0.991   2.194
 1785SOL     OW 1180   2.737   1.646   2.199
 1785SOL    HW1 1181   2.660   1.611   2.145
 1785SOL    HW2 1182   2.705   1.717   2.261
 1800SOL     OW 1183   1.889   1.596   3.841
 1800SOL    HW1 1184   1.870   1.500   3.862
 1800SOL    HW2 1185   1.856   1.654   3.916
 1820SOL     OW 1186   2.973   1.776   3.961
 1820SOL    HW1 1187   2.913   1.714   4.011
 1820SOL    HW2 1188   3.004   1.732   3.876
 1822SOL     OW 1189   2.326   1.743   4.047
 1822SOL    HW1 1190   2.359   1.782   4.133
 1822SOL    HW2 1191   2.402   1.736   3.982
 1867SOL     OW 1192   2.534   1.616   3.878
 1867SOL    HW1 1193   2.543   1.626   3.779
 1867SOL    HW2 1194   2.494   1.527   3.899
 1870SOL     OW 1195   3.056   1.612   3.755
 1870SOL    HW1 1196   3.062   1.519   3.792
 1870SOL    HW2 1197   2.997   1.612   3.675
 1882SOL     OW 1198   2.721   1.374   3.740
 1882SOL    HW1 1199   2.675   1.389   3.828
 1882SOL    HW2 1200   2.765   1.459   3.710
 1898SOL     OW 1201   2.087   2.137   0.996
 1898SOL    HW1 1202   2.122   2.120   1.088
 1898SOL    HW2 1203   1.999   2.092   0.984
 1900SOL     OW 1204   2.431   3.137   1.165
 1900SOL    HW1 1205   2.338   3.130   1.128
 1900SOL    HW2 1206   2.442   3.226   1.209
 1902SOL     OW 1207   2.997   2.565   0.717
 1902SOL    HW1 1208   3.054   2.643   0.692
 1902SOL    HW2 1209   2.937   2.591   0.793
 1904SOL     OW 1210   2.630   3.006   1.023
 1904SOL    HW1 1211   2.552   3.023   1.083
 1904SOL    HW2 1212   2.664   3.093   0.987
 1905SOL     OW 1213   2.712   2.660   1.823
 1905SOL    HW1 1214   2.708   2.736   1.888
 1905SOL    HW2 1215   2.734   2.696   1.732
 1906SOL     OW 1216   2.547   2.874   0.665
 1906SOL    HW1 1217   2.616   2.858   0.735
 1906SOL    HW2 1218   2.474   2.931   0.703
 1907SOL     OW 1219   2.548   3.023   1.803
 1907SOL    HW1 1220   2.608   3.102   1.817
 1907SOL    HW2 1221   2.462   3.054   1.762
 1908SOL     OW 1222   2.197   3.297   1.061
 1908SOL    HW1 1223   2.119   3.266   1.008
 1908SOL    HW2 1224   2.255   3.355   1.004
 1909SOL     OW 1225   3.322   3.367   1.339
 1909SOL    HW1 1226   3.346   3.461   1.365
 1909SOL    HW2 1227   3.306   3.313   1.421
 1910SOL     OW 1228   2.300   2.254   1.499
 1910SOL    HW1 1229   2.382   2.198   1.508
 1910SOL    HW2 1230   2.219   2.196   1.503
 1913SOL     OW 1231   2.989   3.203   1.690
 1913SOL    HW1 1232   3.036   3.203   1.778
 1913SOL    HW2 1233   2.941   3.116   1.679
 1915SOL     OW 1234   2.102   2.953   0.886
 1915SOL    HW1 1235   2.116   2.869   0.938
 1915SOL    HW2 1236   2.047   3.017   0.941
 1916SOL     OW 1237   2.482   3.648   1.439
 1916SOL    HW1 1238   2.390   3.631   1.474
 1916SOL    HW2 1239   2.510   3.740   1.465
 1918SOL     OW 1240   3.456   1.976   1.480
 1918SOL    HW1 1241   3.438   2.043   1.408
 1918SOL    HW2 1242   3.453   2.022   1.569
 1923SOL     OW 1243   1.975   2.599   1.597
 1923SOL    HW1 1244   2.063   2.586   1.642
 1923SOL    HW2 1245   1.962   2.696   1.575
 1925SOL     OW 1246   3.155   3.090   1.423
 1925SOL    HW1 1247   3.192   3.017   1.365
 1925SOL    HW2 1248   3.207   3.095   1.508
 1927SOL     OW 1249   2.059   2.838   1.264
 1927SOL    HW1 1250   2.148   2.793   1.250
 1927SOL    HW2 1251   1.986   2.773   1.245
 1929SOL     OW 1252   3.049   3.654   1.616
 1929SOL    HW1 1253   3.073   3.714   1.540
 1929SOL    HW2 1254   3.056   3.559   1.586
 1930SOL     OW 1255   2.179   2.113   1.801
 1930SOL    HW1 1256   2.250   2.184   1.807
 1930SOL    HW2 1257   2.091   2.152   1.829
 1934SOL     OW 1258   3.143   2.207   0.944
 1934SOL    HW1 1259   3.057   2.157   0.931
 1934SOL    HW2 1260   3.205   2.153   1.000
 1936SOL     OW 1261   2.669   2.467   1.465
 1936SOL    HW1 1262   2.622   2.464   1.554
 1936SOL    HW2 1263   2.618   2.412   1.399
 1937SOL     OW 1264   3.256   2.331   1.674
 1937SOL    HW1 1265   3.236   2.374   1.762
 1937SOL    HW2 1266   3.334   2.269   1.683
 1938SOL     OW 1267   2.835   2.752   1.572
 1938SOL    HW1 1268   2.881   2.668   1.543
 1938SOL    HW2 1269   2.779   2.786   1.497
 1939SOL     OW 1270   2.853   2.272   1.242
 1939SOL    HW1 1271   2.776   2.306   1.296
 1939SOL    HW2 1272   2.819   2.221   1.163
 1941SOL     OW 1273   1.938   2.673   0.789
 1941SOL    HW1 1274   2.037   2.661   0.798
 1941SOL    HW2 1275   1.914   2.768   0.810
 1942SOL     OW 1276   1.992   3.683   1.571
 1942SOL    HW1 1277   1.982   3.668   1.670
 1942SOL    HW2 1278   1.906   3.719   1.535
 1944SOL     OW 1279   3.581   2.447   1.831
 1944SOL    HW1 1280   3.555   2.536   1.795
 1944SOL    HW2 1281   3.579   2.379   1.758
 1946SOL     OW 1282   2.412   2.058   0.885
 1946SOL    HW1 1283   2.407   2.053   0.985
 1946SOL    HW2 1284   2.414   2.154   0.856
 1950SOL     OW 1285   3.089   3.412   1.506
 1950SOL    HW1 1286   3.095   3.335   1.570
 1950SOL    HW2 1287   3.037   3.386   1.426
 1953SOL     OW 1288   2.323   3.128   1.727
 1953SOL    HW1 1289   2.273   3.129   1.641
 1953SOL    HW2 1290   2.260   3.110   1.803
 1955SOL     OW 1291   2.064   2.147   1.498
 1955SOL    HW1 1292   1.984   2.207   1.485
 1955SOL    HW2 1293   2.054   2.098   1.584
 1959SOL     OW 1294   2.111   3.647   1.241
 1959SOL    HW1 1295   2.168   3.582   1.291
 1959SOL    HW2 1296   2.095   3.614   1.148
 1962SOL     OW 1297   3.409   2.084   1.729
 1962SOL    HW1 1298   3.404   2.121   1.821
 1962SOL    HW2 1299   3.337   2.015   1.717
 1964SOL     OW 1300   2.643   2.126   1.749
 1964SOL    HW1 1301   2.710   2.065   1.792
 1964SOL    HW2 1302   2.570   2.145   1.814
 1965SOL     OW 1303   2.750   3.376   1.195
 1965SOL    HW1 1304   2.727   3.351   1.101
 1965SOL    HW2 1305   2.811   3.307   1.234
 1966SOL     OW 1306   3.213   2.452   1.433
 1966SOL    HW1 1307   3.241   2.409   1.518
 1966SOL    HW2 1308   3.238   2.548   1.434
 1967SOL     OW 1309   2.665   3.264   0.924
 1967SOL    HW1 1310   2.755   3.278   0.882
 1967SOL    HW2 1311   2.594   3.266   0.853
 1968SOL     OW 1312   2.784   2.365   0.899
 1968SOL    HW1 1313   2.759   2.356   0.803
 1968SOL    HW2 1314   2.832   2.283   0.930
 1973SOL     OW 1315   2.938   2.545   1.464
 1973SOL    HW1 1316   2.858   2.484   1.467
 1973SOL    HW2 1317   3.019   2.492   1.440
 1975SOL     OW 1318   2.321   3.014   0.741
 1975SOL    HW1 1319   2.250   2.987   0.806
 1975SOL    HW2 1320   2.295   2.986   0.648
 1978SOL     OW 1321   1.940   2.418   1.386
 1978SOL    HW1 1322   2.032   2.417   1.345
 1978SOL    HW2 1323   1.934   2.492   1.453
 1979SOL     OW 1324   2.423   2.084   1.147
 1979SOL    HW1 1325   2.461   2.000   1.184
 1979SOL    HW2 1326   2.335   2.103   1.191
 1980SOL     OW 1327   2.728   2.316   0.642
 1980SOL    HW1 1328   2.696   2.388   0.580
 1980SOL    HW2 1329   2.752   2.235   0.589
 1981SOL     OW 1330   2.879   1.901   0.753
 1981SOL    HW1 1331   2.807   1.906   0.684
 1981SOL    HW2 1332   2.855   1.832   0.822
 1983SOL     OW 1333   3.328   2.452   0.992
 1983SOL    HW1 1334   3.298   2.357   0.999
 1983SOL    HW2 1335   3.401   2.468   1.058
 1989SOL     OW 1336   3.616   3.085   1.588
 1989SOL    HW1 1337   3.707   3.046   1.575
 1989SOL    HW2 1338   3.624   3.181   1.612
 1990SOL     OW 1339   2.926   3.209   1.340
 1990SOL    HW1 1340   2.846   3.186   1.395
 1990SOL    HW2 1341   3.009   3.183   1.389
 1991SOL     OW 1342   3.454   3.491   1.625
 1991SOL    HW1 1343   3.481   3.525   1.535
 1991SOL    HW2 1344   3.533   3.453   1.671
 1992SOL     OW 1345   2.973   3.057   1.100
 1992SOL    HW1 1346   2.933   3.101   1.181
 1992SOL    HW2 1347   2.932   3.094   1.017
 1994SOL     OW 1348   2.777   1.951   1.402
 1994SOL    HW1 1349   2.802   1.931   1.307
 1994SOL    HW2 1350   2.849   2.007   1.444
 1995SOL     OW 1351   2.842   2.978   1.719
 1995SOL    HW1 1352   2.743   2.984   1.729
 1995SOL    HW2 1353   2.865   2.898   1.663
 1997SOL     OW 1354   2.272   2.675   1.251
 1997SOL    HW1 1355   2.358   2.687   1.301
 1997SOL    HW2 1356   2.230   2.588   1.278
 1998SOL     OW 1357   3.136   2.248   1.262
 1998SOL    HW1 1358   3.157   2.322   1.326
 1998SOL    HW2 1359   3.047   2.265   1.219
 1999SOL     OW 1360   1.926   3.426   1.331
 1999SOL    HW1 1361   1.880   3.508   1.297
 1999SOL    HW2 1362   2.024   3.445   1.340
 2001SOL     OW 1363   2.428   2.399   0.865
 2001SOL    HW1 1364   2.440   2.465   0.791
 2001SOL    HW2 1365   2.474   2.433   0.948
 2003SOL     OW 1366   3.134   3.307   1.142
 2003SOL    HW1 1367   3.181   3.320   1.229
 2003SOL    HW2 1368   3.068   3.233   1.151
 2005SOL     OW 1369   2.216   3.372   1.329
 2005SOL    HW1 1370   2.195   3.328   1.242
 2005SOL    HW2 1371   2.313   3.398   1.332
 2006SOL     OW 1372   2.264   2.613   1.598
 2006SOL    HW1 1373   2.332   2.668   1.551
 2006SOL    HW2 1374   2.304   2.525   1.625
 2007SOL     OW 1375   3.449   2.641   1.670
 2007SOL    HW1 1376   3.357   2.679   1.665
 2007SOL    HW2 1377   3.509   2.688   1.605
 2008SOL     OW 1378   2.875   1.967   1.770
 2008SOL    HW1 1379   2.881   2.052   1.718
 2008SOL    HW2 1380   2.907   1.891   1.713
 2009SOL     OW 1381   2.366   1.912   1.740
 2009SOL    HW1 1382   2.324   1.855   1.670
 2009SOL    HW2 1383   2.300   1.981   1.772
 2010SOL     OW 1384   2.435   2.732   1.029
 2010SOL    HW1 1385   2.479   2.821   1.020
 2010SOL    HW2 1386   2.372   2.732   1.106
 2011SOL     OW 1387   3.222   2.724   1.045
 2011SOL    HW1 1388   3.147   2.724   0.979
 2011SOL    HW2 1389   3.259   2.632   1.054
 2013SOL     OW 1390   2.169   2.075   1.231
 2013SOL    HW1 1391   2.146   2.112   1.321
 2013SOL    HW2 1392   2.139   1.980   1.225
 2014SOL     OW 1393   1.899   3.172   1.282
 2014SOL    HW1 1394   1.952   3.123   1.350
 2014SOL    HW2 1395   1.921   3.270   1.287
 2015SOL     OW 1396   2.594   2.496   1.064
 2015SOL    HW1 1397   2.653   2.470   0.988
 2015SOL    HW2 1398   2.566   2.592   1.053
 2016SOL     OW 1399   3.590   2.797   1.854
 2016SOL    HW1 1400   3.544   2.790   1.765
 2016SOL    HW2 1401   3.528   2.841   1.920
 2019SOL     OW 1402   2.885   2.628   0.966
 2019SOL    HW1 1403   2.900   2.649   1.062
 2019SOL    HW2 1404   2.855   2.533   0.957
 2020SOL     OW 1405   2.842   3.435   1.700
 2020SOL    HW1 1406   2.822   3.479   1.612
 2020SOL    HW2 1407   2.881   3.344   1.684
 2022SOL     OW 1408   2.212   2.760   1.804
 2022SOL    HW1 1409   2.288   2.804   1.852
 2022SOL    HW2 1410   2.247   2.713   1.722
 2026SOL     OW 1411   2.181   2.672   0.949
 2026SOL    HW1 1412   2.274   2.708   0.954
 2026SOL    HW2 1413   2.175   2.587   1.001
 2027SOL     OW 1414   2.201   2.371   1.006
 2027SOL    HW1 1415   2.149   2.288   0.989
 2027SOL    HW2 1416   2.278   2.376   0.942
 2028SOL     OW 1417   3.000   2.242   1.678
 2028SOL    HW1 1418   2.955   2.305   1.742
 2028SOL    HW2 1419   3.093   2.273   1.661
 2029SOL     OW 1420   3.022   2.069   1.477
 2029SOL    HW1 1421   3.022   2.133   1.554
 2029SOL    HW2 1422   3.050   2.117   1.394
 2033SOL     OW 1423   2.864   2.658   1.238
 2033SOL    HW1 1424   2.905   2.626   1.324
 2033SOL    HW2 1425   2.768   2.631   1.235
 2034SOL     OW 1426   1.902   2.406   1.114
 2034SOL    HW1 1427   1.987   2.373   1.073
 2034SOL    HW2 1428   1.915   2.421   1.212
 2035SOL     OW 1429   2.051   2.382   1.722
 2035SOL    HW1 1430   2.110   2.342   1.652
 2035SOL    HW2 1431   1.993   2.453   1.681
 2036SOL     OW 1432   3.231   2.812   1.660
 2036SOL    HW1 1433   3.270   2.901   1.680
 2036SOL    HW2 1434   3.241   2.792   1.563
 2038SOL     OW 1435   3.519   2.466   1.206
 2038SOL    HW1 1436   3.481   2.397   1.268
 2038SOL    HW2 1437   3.601   2.430   1.162
 2039SOL     OW 1438   2.114   3.426   1.744
 2039SOL    HW1 1439   2.084   3.483   1.820
 2039SOL    HW2 1440   2.107   3.329   1.770
 2040SOL     OW 1441   2.533   2.326   1.269
 2040SOL    HW1 1442   2.499   2.237   1.239
 2040SOL    HW2 1443   2.559   2.380   1.189
 2041SOL     OW 1444   2.792   3.540   1.465
 2041SOL    HW1 1445   2.768   3.522   1.370
 2041SOL    HW2 1446   2.822   3.634   1.475
 2043SOL     OW 1447   2.021   2.999   1.466
 2043SOL    HW1 1448   2.043   2.938   1.542
 2043SOL    HW2 1449   2.031   2.950   1.380
 2044SOL     OW 1450   3.209   2.921   1.234
 2044SOL    HW1 1451   3.233   2.858   1.160
 2044SOL    HW2 1452   3.119   2.961   1.216
 2048SOL     OW 1453   1.945   3.120   1.022
 2048SOL    HW1 1454   1.940   3.119   1.122
 2048SOL    HW2 1455   1.862   3.079   0.984
 2049SOL     OW 1456   2.550   3.524   1.716
 2049SOL    HW1 1457   2.494   3.605   1.725
 2049SOL    HW2 1458   2.602   3.528   1.630
 2053SOL     OW 1459   1.992   3.656   1.851
 2053SOL    HW1 1460   1.951   3.582   1.904
 2053SOL    HW2 1461   2.056   3.707   1.909
 2055SOL     OW 1462   2.692   3.135   1.422
 2055SOL    HW1 1463   2.687   3.168   1.517
 2055SOL    HW2 1464   2.606   3.154   1.376
 2059SOL     OW 1465   2.125   2.188   0.720
 2059SOL    HW1 1466   2.046   2.239   0.686
 2059SOL    HW2 1467   2.116   2.173   0.818
 2061SOL     OW 1468   2.684   2.864   1.372
 2061SOL    HW1 1469   2.724   2.863   1.280
 2061SOL    HW2 1470   2.694   2.956   1.412
 2064SOL     OW 1471   2.234   3.150   1.490
 2064SOL    HW1 1472   2.221   3.243   1.456
 2064SOL    HW2 1473   2.150   3.098   1.477
 2065SOL     OW 1474   3.476   3.154   1.289
 2065SOL    HW1 1475   3.536   3.157   1.369
 2065SOL    HW2 1476   3.401   3.218   1.302
 2067SOL     OW 1477   2.876   2.098   0.971
 2067SOL    HW1 1478   2.868   2.062   0.878
 2067SOL    HW2 1479   2.874   2.022   1.036
 2069SOL     OW 1480   3.571   2.247   1.381
 2069SOL    HW1 1481   3.644   2.316   1.385
 2069SOL    HW2 1482   3.599   2.172   1.322
 2071SOL     OW 1483   1.967   2.875   1.726
 2071SOL    HW1 1484   1.890   2.842   1.780
 2071SOL    HW2 1485   2.052   2.845   1.768
 2072SOL     OW 1486   2.534   2.065   1.489
 2072SOL    HW1 1487   2.624   2.049   1.449
 2072SOL    HW2 1488   2.542   2.070   1.588
 2074SOL     OW 1489   3.302   2.718   1.398
 2074SOL    HW1 1490   3.245   2.770   1.335
 2074SOL    HW2 1491   3.398   2.730   1.374
 2076SOL     OW 1492   2.475   2.704   1.431
 2076SOL    HW1 1493   2.531   2.785   1.414
 2076SOL    HW2 1494   2.534   2.624   1.434
 2078SOL     OW 1495   2.578   2.427   1.708
 2078SOL    HW1 1496   2.597   2.492   1.782
 2078SOL    HW2 1497   2.638   2.347   1.717
 2079SOL     OW 1498   3.312   3.082   1.633
 2079SOL    HW1 1499   3.303   3.072   1.732
 2079SOL    HW2 1500   3.408   3.075   1.607
 2080SOL     OW 1501   2.252   3.603   1.560
 2080SOL    HW1 1502   2.161   3.644   1.558
 2080SOL    HW2 1503   2.245   3.509   1.592
 2081SOL     OW 1504   3.536   2.745   1.254
 2081SOL    HW1 1505   3.509   2.656   1.217
 2081SOL    HW2 1506   3.537   2.813   1.181
 2083SOL     OW 1507   2.456   2.607   0.652
 2083SOL    HW1 1508   2.506   2.692   0.633
 2083SOL    HW2 1509   2.368   2.609   0.604
 2084SOL     OW 1510   3.639   2.204   1.642
 2084SOL    HW1 1511   3.622   2.235   1.548
 2084SOL    HW2 1512   3.555   2.167   1.680
 2085SOL     OW 1513   3.592   2.796   1.517
 2085SOL    HW1 1514   3.630   2.887   1.532
 2085SOL    HW2 1515   3.584   2.779   1.418
 2088SOL     OW 1516   2.721   2.818   0.861
 2088SOL    HW1 1517   2.775   2.749   0.909
 2088SOL    HW2 1518   2.689   2.887   0.927
 2091SOL     OW 1519   2.083   3.176   1.844
 2091SOL    HW1 1520   2.018   3.103   1.823
 2091SOL    HW2 1521   2.087   3.190   1.942
 2093SOL     OW 1522   2.534   3.253   1.624
 2093SOL    HW1 1523   2.456   3.203   1.662
 2093SOL    HW2 1524   2.531   3.348   1.655
 2094SOL     OW 1525   3.686   2.054   1.227
 2094SOL    HW1 1526   3.682   1.964   1.271
 2094SOL    HW2 1527   3.689   2.043   1.128
 2097SOL     OW 1528   2.179   2.409   1.280
 2097SOL    HW1 1529   2.217   2.350   1.352
 2097SOL    HW2 1530   2.219   2.383   1.192
 2099SOL     OW 1531   3.286   2.076   1.112
 2099SOL    HW1 1532   3.338   2.011   1.167
 2099SOL    HW2 1533   3.237   2.139   1.173
 2100SOL     OW 1534   2.863   1.896   1.154
 2100SOL    HW1 1535   2.800   1.824   1.123
 2100SOL    HW2 1536   2.956   1.860   1.154
 2102SOL     OW 1537   2.480   3.429   1.284
 2102SOL    HW1 1538   2.475   3.511   1.341
 2102SOL    HW2 1539   2.569   3.426   1.239
 2108SOL     OW 1540   2.087   2.137   2.858
 2108SOL    HW1 1541   2.122   2.120   2.950
 2108SOL    HW2 1542   1.999   2.092   2.846
 2109SOL     OW 1543   1.881   2.230   2.509
 2109SOL    HW1 1544   1.799   2.273   2.548
 2109SOL    HW2 1545   1.853   2.157   2.446
 2110SOL     OW 1546   2.431   3.137   3.027
 2110SOL    HW1 1547   2.338   3.130   2.990
 2110SOL    HW2 1548   2.442   3.226   3.071
 2111SOL     OW 1549   3.417   3.373   2.565
 2111SOL    HW1 1550   3.360   3.357   2.646
 2111SOL    HW2 1551   3.358   3.383   2.485
 2112SOL     OW 1552   2.997   2.565   2.579
 2112SOL    HW1 1553   3.054   2.643   2.554
 2112SOL    HW2 1554   2.937   2.591   2.655
 2113SOL     OW 1555   3.617   2.469   2.093
 2113SOL    HW1 1556   3.605   2.456   1.994
 2113SOL    HW2 1557   3.587   2.388   2.142
 2114SOL     OW 1558   2.630   3.006   2.885
 2114SOL    HW1 1559   2.552   3.023   2.945
 2114SOL    HW2 1560   2.664   3.093   2.849
 2115SOL     OW 1561   2.712   2.660   3.685
 2115SOL    HW1 1562   2.708   2.736   3.750
 2115SOL    HW2 1563   2.734   2.696   3.594
 2116SOL     OW 1564   2.547   2.874   2.527
 2116SOL    HW1 1565   2.616   2.858   2.597
 2116SOL    HW2 1566   2.474   2.931   2.565
 2117SOL     OW 1567   2.548   3.023   3.665
 2117SOL    HW1 1568   2.608   3.102   3.679
 2117SOL    HW2 1569   2.462   3.054   3.624
 2118SOL     OW 1570   2.197   3.297   2.923
 2118SOL    HW1 1571   2.119   3.266   2.870
 2118SOL    HW2 1572   2.255   3.355   2.866
 2119SOL     OW 1573   3.322   3.367   3.201
 2119SOL    HW1 1574   3.346   3.461   3.227
 2119SOL    HW2 1575   3.306   3.313   3.283
 2120SOL     OW 1576   2.300   2.254   3.361
 2120SOL    HW1 1577   2.382   2.198   3.370
 2120SOL    HW2 1578   2.219   2.196   3.365
 2121SOL     OW 1579   3.465   2.309   2.599
 2121SOL    HW1 1580   3.391   2.355   2.549
 2121SOL    HW2 1581   3.516   2.377   2.652
 2122SOL     OW 1582   2.093   3.575   2.345
 2122SOL    HW1 1583   2.127   3.652   2.399
 2122SOL    HW2 1584   2.137   3.575   2.255
 2123SOL     OW 1585   2.989   3.203   3.552
 2123SOL    HW1 1586   3.036   3.203   3.640
 2123SOL    HW2 1587   2.941   3.116   3.541
 2124SOL     OW 1588   2.092   3.296   2.400
 2124SOL    HW1 1589   2.066   3.392   2.400
 2124SOL    HW2 1590   2.021   3.242   2.445
 2125SOL     OW 1591   2.102   2.953   2.748
 2125SOL    HW1 1592   2.116   2.869   2.800
 2125SOL    HW2 1593   2.047   3.017   2.803
 2126SOL     OW 1594   2.482   3.648   3.301
 2126SOL    HW1 1595   2.390   3.631   3.336
 2126SOL    HW2 1596   2.510   3.740   3.327
 2127SOL     OW 1597   2.468   2.826   1.985
 2127SOL    HW1 1598   2.475   2.910   1.931
 2127SOL    HW2 1599   2.514   2.839   2.073
 2128SOL     OW 1600   3.456   1.976   3.342
 2128SOL    HW1 1601   3.438   2.043   3.270
 2128SOL    HW2 1602   3.453   2.022   3.431
 2129SOL     OW 1603   1.984   2.505   2.425
 2129SOL    HW1 1604   1.939   2.417   2.442
 2129SOL    HW2 1605   1.983   2.559   2.509
 2131SOL     OW 1606   1.889   3.458   1.979
 2131SOL    HW1 1607   1.870   3.362   2.000
 2131SOL    HW2 1608   1.856   3.516   2.054
 2132SOL     OW 1609   3.551   2.784   2.474
 2132SOL    HW1 1610   3.646   2.755   2.482
 2132SOL    HW2 1611   3.543   2.849   2.399
 2133SOL     OW 1612   3.503   2.970   2.294
 2133SOL    HW1 1613   3.589   2.972   2.242
 2133SOL    HW2 1614   3.517   3.017   2.382
 2134SOL     OW 1615   1.975   2.599   3.459
 2134SOL    HW1 1616   2.063   2.586   3.504
 2134SOL    HW2 1617   1.962   2.696   3.437
 2135SOL     OW 1618   2.475   3.227   2.588
 2135SOL    HW1 1619   2.426   3.140   2.597
 2135SOL    HW2 1620   2.452   3.270   2.501
 2136SOL     OW 1621   3.155   3.090   3.285
 2136SOL    HW1 1622   3.192   3.017   3.227
 2136SOL    HW2 1623   3.207   3.095   3.370
 2137SOL     OW 1624   2.671   1.866   2.364
 2137SOL    HW1 1625   2.711   1.957   2.355
 2137SOL    HW2 1626   2.571   1.874   2.370
 2138SOL     OW 1627   2.059   2.838   3.126
 2138SOL    HW1 1628   2.148   2.793   3.112
 2138SOL    HW2 1629   1.986   2.773   3.107
 2139SOL     OW 1630   3.387   2.861   2.052
 2139SOL    HW1 1631   3.324   2.785   2.065
 2139SOL    HW2 1632   3.435   2.879   2.138
 2141SOL     OW 1633   2.179   2.113   3.663
 2141SOL    HW1 1634   2.250   2.184   3.669
 2141SOL    HW2 1635   2.091   2.152   3.691
 2142SOL     OW 1636   3.328   3.279   2.815
 2142SOL    HW1 1637   3.269   3.285   2.895
 2142SOL    HW2 1638   3.313   3.191   2.769
 2143SOL     OW 1639   3.529   3.576   2.434
 2143SOL    HW1 1640   3.488   3.553   2.346
 2143SOL    HW2 1641   3.511   3.502   2.499
 2144SOL     OW 1642   3.143   2.207   2.806
 2144SOL    HW1 1643   3.057   2.157   2.793
 2144SOL    HW2 1644   3.205   2.153   2.862
 2145SOL     OW 1645   3.438   3.524   2.169
 2145SOL    HW1 1646   3.527   3.570   2.172
 2145SOL    HW2 1647   3.417   3.500   2.074
 2146SOL     OW 1648   2.669   2.467   3.327
 2146SOL    HW1 1649   2.622   2.464   3.416
 2146SOL    HW2 1650   2.618   2.412   3.261
 2147SOL     OW 1651   3.256   2.331   3.536
 2147SOL    HW1 1652   3.236   2.374   3.624
 2147SOL    HW2 1653   3.334   2.269   3.545
 2148SOL     OW 1654   2.835   2.752   3.434
 2148SOL    HW1 1655   2.881   2.668   3.405
 2148SOL    HW2 1656   2.779   2.786   3.359
 2149SOL     OW 1657   2.853   2.272   3.104
 2149SOL    HW1 1658   2.776   2.306   3.158
 2149SOL    HW2 1659   2.819   2.221   3.025
 2150SOL     OW 1660   2.903   2.563   2.291
 2150SOL    HW1 1661   2.929   2.559   2.387
 2150SOL    HW2 1662   2.818   2.512   2.277
 2151SOL     OW 1663   1.938   2.673   2.651
 2151SOL    HW1 1664   2.037   2.661   2.660
 2151SOL    HW2 1665   1.914   2.768   2.672
 2152SOL     OW 1666   1.992   3.683   3.433
 2152SOL    HW1 1667   1.982   3.668   3.532
 2152SOL    HW2 1668   1.906   3.719   3.397
 2153SOL     OW 1669   2.727   2.210   2.057
 2153SOL    HW1 1670   2.786   2.273   2.008
 2153SOL    HW2 1671   2.746   2.116   2.028
 2154SOL     OW 1672   3.581   2.447   3.693
 2154SOL    HW1 1673   3.555   2.536   3.657
 2154SOL    HW2 1674   3.579   2.379   3.620
 2155SOL     OW 1675   3.224   3.006   2.407
 2155SOL    HW1 1676   3.307   2.977   2.359
 2155SOL    HW2 1677   3.175   3.073   2.351
 2156SOL     OW 1678   2.870   3.318   2.339
 2156SOL    HW1 1679   2.824   3.390   2.287
 2156SOL    HW2 1680   2.866   3.338   2.437
 2157SOL     OW 1681   2.213   3.663   2.715
 2157SOL    HW1 1682   2.263   3.577   2.721
 2157SOL    HW2 1683   2.278   3.740   2.712
 2158SOL     OW 1684   3.657   2.928   2.735
 2158SOL    HW1 1685   3.595   2.913   2.659
 2158SOL    HW2 1686   3.605   2.939   2.820
 2159SOL     OW 1687   3.089   3.412   3.368
 2159SOL    HW1 1688   3.095   3.335   3.432
 2159SOL    HW2 1689   3.037   3.386   3.288
 2160SOL     OW 1690   2.183   2.805   2.104
 2160SOL    HW1 1691   2.265   2.844   2.062
 2160SOL    HW2 1692   2.156   2.723   2.055
 2161SOL     OW 1693   3.320   2.597   2.590
 2161SOL    HW1 1694   3.315   2.532   2.665
 2161SOL    HW2 1695   3.400   2.656   2.603
 2162SOL     OW 1696   2.323   3.128   3.589
 2162SOL    HW1 1697   2.273   3.129   3.503
 2162SOL    HW2 1698   2.260   3.110   3.665
 2163SOL     OW 1699   2.973   3.638   2.099
 2163SOL    HW1 1700   2.913   3.576   2.149
 2163SOL    HW2 1701   3.004   3.594   2.014
 2164SOL     OW 1702   2.064   2.147   3.360
 2164SOL    HW1 1703   1.984   2.207   3.347
 2164SOL    HW2 1704   2.054   2.098   3.446
 2165SOL     OW 1705   3.494   3.239   1.943
 2165SOL    HW1 1706   3.462   3.333   1.933
 2165SOL    HW2 1707   3.418   3.176   1.931
 2166SOL     OW 1708   2.326   3.605   2.185
 2166SOL    HW1 1709   2.359   3.644   2.271
 2166SOL    HW2 1710   2.402   3.598   2.120
 2167SOL     OW 1711   3.262   1.969   2.288
 2167SOL    HW1 1712   3.238   1.932   2.198
 2167SOL    HW2 1713   3.361   1.985   2.292
 2168SOL     OW 1714   2.111   3.647   3.103
 2168SOL    HW1 1715   2.168   3.582   3.153
 2168SOL    HW2 1716   2.095   3.614   3.010
 2169SOL     OW 1717   2.802   3.560   2.766
 2169SOL    HW1 1718   2.882   3.503   2.787
 2169SOL    HW2 1719   2.753   3.520   2.689
 2170SOL     OW 1720   3.409   2.084   3.591
 2170SOL    HW1 1721   3.404   2.121   3.683
 2170SOL    HW2 1722   3.337   2.015   3.579
 2171SOL     OW 1723   2.476   1.984   1.979
 2171SOL    HW1 1724   2.574   1.962   1.986
 2171SOL    HW2 1725   2.445   1.967   1.886
 2172SOL     OW 1726   2.643   2.126   3.611
 2172SOL    HW1 1727   2.710   2.065   3.654
 2172SOL    HW2 1728   2.570   2.145   3.676
 2173SOL     OW 1729   2.750   3.376   3.057
 2173SOL    HW1 1730   2.727   3.351   2.963
 2173SOL    HW2 1731   2.811   3.307   3.096
 2174SOL     OW 1732   3.213   2.452   3.295
 2174SOL    HW1 1733   3.241   2.409   3.380
 2174SOL    HW2 1734   3.238   2.548   3.296
 2175SOL     OW 1735   2.665   3.264   2.786
 2175SOL    HW1 1736   2.755   3.278   2.744
 2175SOL    HW2 1737   2.594   3.266   2.715
 2176SOL     OW 1738   3.296   3.050   1.903
 2176SOL    HW1 1739   3.328   2.974   1.960
 2176SOL    HW2 1740   3.204   3.077   1.933
 2177SOL     OW 1741   2.159   1.897   2.033
 2177SOL    HW1 1742   2.208   1.981   2.012
 2177SOL    HW2 1743   2.221   1.832   2.078
 2178SOL     OW 1744   2.938   2.545   3.326
 2178SOL    HW1 1745   2.858   2.484   3.329
 2178SOL    HW2 1746   3.019   2.492   3.302
 2179SOL     OW 1747   3.089   3.432   2.655
 2179SOL    HW1 1748   3.110   3.506   2.590
 2179SOL    HW2 1749   3.157   3.432   2.728
 2180SOL     OW 1750   2.321   3.014   2.603
 2180SOL    HW1 1751   2.250   2.987   2.668
 2180SOL    HW2 1752   2.295   2.986   2.510
 2181SOL     OW 1753   3.133   3.659   2.453
 2181SOL    HW1 1754   3.177   3.723   2.389
 2181SOL    HW2 1755   3.083   3.711   2.523
 2182SOL     OW 1756   2.894   2.411   1.878
 2182SOL    HW1 1757   2.853   2.493   1.839
 2182SOL    HW2 1758   2.958   2.437   1.951
 2183SOL     OW 1759   1.940   2.418   3.248
 2183SOL    HW1 1760   2.032   2.417   3.207
 2183SOL    HW2 1761   1.934   2.492   3.315
 2184SOL     OW 1762   2.423   2.084   3.009
 2184SOL    HW1 1763   2.461   2.000   3.046
 2184SOL    HW2 1764   2.335   2.103   3.053
 2185SOL     OW 1765   2.879   1.901   2.615
 2185SOL    HW1 1766   2.807   1.906   2.546
 2185SOL    HW2 1767   2.855   1.832   2.684
 2186SOL     OW 1768   3.291   3.035   2.729
 2186SOL    HW1 1769   3.236   2.951   2.722
 2186SOL    HW2 1770   3.317   3.064   2.637
 2187SOL     OW 1771   3.328   2.452   2.854
 2187SOL    HW1 1772   3.298   2.357   2.861
 2187SOL    HW2 1773   3.401   2.468   2.920
 2188SOL     OW 1774   3.719   2.695   2.239
 2188SOL    HW1 1775   3.761   2.631   2.303
 2188SOL    HW2 1776   3.681   2.644   2.161
 2189SOL     OW 1777   2.350   3.247   2.036
 2189SOL    HW1 1778   2.263   3.232   2.083
 2189SOL    HW2 1779   2.333   3.273   1.941
 2190SOL     OW 1780   3.526   3.142   2.519
 2190SOL    HW1 1781   3.625   3.150   2.533
 2190SOL    HW2 1782   3.481   3.226   2.550
 2191SOL     OW 1783   3.252   2.437   1.940
 2191SOL    HW1 1784   3.198   2.416   2.021
 2191SOL    HW2 1785   3.343   2.396   1.949
 2192SOL     OW 1786   3.616   3.085   3.450
 2192SOL    HW1 1787   3.707   3.046   3.437
 2192SOL    HW2 1788   3.624   3.181   3.474
 2193SOL     OW 1789   2.926   3.209   3.202
 2193SOL    HW1 1790   2.846   3.186   3.257
 2193SOL    HW2 1791   3.009   3.183   3.251
 2195SOL     OW 1792   2.973   3.057   2.962
 2195SOL    HW1 1793   2.933   3.101   3.043
 2195SOL    HW2 1794   2.932   3.094   2.879
 2196SOL     OW 1795   3.500   2.961   2.941
 2196SOL    HW1 1796   3.505   3.042   3.000
 2196SOL    HW2 1797   3.414   2.963   2.890
 2197SOL     OW 1798   2.777   1.951   3.264
 2197SOL    HW1 1799   2.802   1.931   3.169
 2197SOL    HW2 1800   2.849   2.007   3.306
 2198SOL     OW 1801   2.842   2.978   3.581
 2198SOL    HW1 1802   2.743   2.984   3.591
 2198SOL    HW2 1803   2.865   2.898   3.525
 2199SOL     OW 1804   2.567   2.912   2.230
 2199SOL    HW1 1805   2.553   2.919   2.329
 2199SOL    HW2 1806   2.651   2.861   2.212
 2200SOL     OW 1807   2.272   2.675   3.113
 2200SOL    HW1 1808   2.358   2.687   3.163
 2200SOL    HW2 1809   2.230   2.588   3.140
 2201SOL     OW 1810   3.136   2.248   3.124
 2201SOL    HW1 1811   3.157   2.322   3.188
 2201SOL    HW2 1812   3.047   2.265   3.081
 2202SOL     OW 1813   1.926   3.426   3.193
 2202SOL    HW1 1814   1.880   3.508   3.159
 2202SOL    HW2 1815   2.024   3.445   3.202
 2203SOL     OW 1816   2.229   2.962   2.363
 2203SOL    HW1 1817   2.222   3.045   2.307
 2203SOL    HW2 1818   2.233   2.882   2.303
 2204SOL     OW 1819   3.114   3.210   2.250
 2204SOL    HW1 1820   3.164   3.287   2.290
 2204SOL    HW2 1821   3.019   3.212   2.282
 2205SOL     OW 1822   3.134   3.307   3.004
 2205SOL    HW1 1823   3.181   3.320   3.091
 2205SOL    HW2 1824   3.068   3.233   3.013
 2206SOL     OW 1825   3.444   2.501   2.334
 2206SOL    HW1 1826   3.413   2.562   2.407
 2206SOL    HW2 1827   3.494   2.553   2.265
 2207SOL     OW 1828   2.216   3.372   3.191
 2207SOL    HW1 1829   2.195   3.328   3.104
 2207SOL    HW2 1830   2.313   3.398   3.194
 2208SOL     OW 1831   2.264   2.613   3.460
 2208SOL    HW1 1832   2.332   2.668   3.413
 2208SOL    HW2 1833   2.304   2.525   3.487
 2209SOL     OW 1834   3.449   2.641   3.532
 2209SOL    HW1 1835   3.357   2.679   3.527
 2209SOL    HW2 1836   3.509   2.688   3.467
 2210SOL     OW 1837   2.875   1.967   3.632
 2210SOL    HW1 1838   2.881   2.052   3.580
 2210SOL    HW2 1839   2.907   1.891   3.575
 2211SOL     OW 1840   2.366   1.912   3.602
 2211SOL    HW1 1841   2.324   1.855   3.532
 2211SOL    HW2 1842   2.300   1.981   3.634
 2212SOL     OW 1843   2.435   2.732   2.891
 2212SOL    HW1 1844   2.479   2.821   2.882
 2212SOL    HW2 1845   2.372   2.732   2.968
 2213SOL     OW 1846   3.222   2.724   2.907
 2213SOL    HW1 1847   3.147   2.724   2.841
 2213SOL    HW2 1848   3.259   2.632   2.916
 2214SOL     OW 1849   3.071   2.387   2.137
 2214SOL    HW1 1850   3.084   2.303   2.191
 2214SOL    HW2 1851   3.042   2.461   2.197
 2215SOL     OW 1852   2.169   2.075   3.093
 2215SOL    HW1 1853   2.146   2.112   3.183
 2215SOL    HW2 1854   2.139   1.980   3.087
 2216SOL     OW 1855   1.899   3.172   3.144
 2216SOL    HW1 1856   1.952   3.123   3.212
 2216SOL    HW2 1857   1.921   3.270   3.149
 2217SOL     OW 1858   2.594   2.496   2.926
 2217SOL    HW1 1859   2.653   2.470   2.850
 2217SOL    HW2 1860   2.566   2.592   2.915
 2219SOL     OW 1861   2.169   1.925   2.480
 2219SOL    HW1 1862   2.158   2.019   2.513
 2219SOL    HW2 1863   2.164   1.862   2.557
 2220SOL     OW 1864   3.484   2.229   2.236
 2220SOL    HW1 1865   3.486   2.153   2.300
 2220SOL    HW2 1866   3.436   2.306   2.276
 2221SOL     OW 1867   2.885   2.628   2.828
 2221SOL    HW1 1868   2.900   2.649   2.924
 2221SOL    HW2 1869   2.855   2.533   2.819
 2222SOL     OW 1870   2.842   3.435   3.562
 2222SOL    HW1 1871   2.822   3.479   3.474
 2222SOL    HW2 1872   2.881   3.344   3.546
 2224SOL     OW 1873   2.212   2.760   3.666
 2224SOL    HW1 1874   2.288   2.804   3.714
 2224SOL    HW2 1875   2.247   2.713   3.584
 2225SOL     OW 1876   3.402   2.136   1.987
 2225SOL    HW1 1877   3.341   2.061   2.010
 2225SOL    HW2 1878   3.424   2.188   2.070
 2226SOL     OW 1879   3.165   2.700   1.904
 2226SOL    HW1 1880   3.199   2.607   1.919
 2226SOL    HW2 1881   3.183   2.727   1.809
 2227SOL     OW 1882   2.930   3.195   2.711
 2227SOL    HW1 1883   2.937   3.111   2.656
 2227SOL    HW2 1884   2.992   3.264   2.675
 2228SOL     OW 1885   2.181   2.672   2.811
 2228SOL    HW1 1886   2.274   2.708   2.816
 2228SOL    HW2 1887   2.175   2.587   2.863
 2229SOL     OW 1888   3.000   2.242   3.540
 2229SOL    HW1 1889   2.955   2.305   3.604
 2229SOL    HW2 1890   3.093   2.273   3.523
 2230SOL     OW 1891   3.022   2.069   3.339
 2230SOL    HW1 1892   3.022   2.133   3.416
 2230SOL    HW2 1893   3.050   2.117   3.256
 2231SOL     OW 1894   1.870   3.188   2.062
 2231SOL    HW1 1895   1.777   3.209   2.031
 2231SOL    HW2 1896   1.880   3.089   2.075
 2232SOL     OW 1897   1.950   3.663   2.789
 2232SOL    HW1 1898   1.908   3.577   2.762
 2232SOL    HW2 1899   2.044   3.666   2.755
 2233SOL     OW 1900   2.366   3.430   2.772
 2233SOL    HW1 1901   2.432   3.504   2.781
 2233SOL    HW2 1902   2.410   3.351   2.730
 2234SOL     OW 1903   2.864   2.658   3.100
 2234SOL    HW1 1904   2.905   2.626   3.186
 2234SOL    HW2 1905   2.768   2.631   3.097
 2235SOL     OW 1906   1.902   2.406   2.976
 2235SOL    HW1 1907   1.987   2.373   2.935
 2235SOL    HW2 1908   1.915   2.421   3.074
 2236SOL     OW 1909   2.051   2.382   3.584
 2236SOL    HW1 1910   2.110   2.342   3.514
 2236SOL    HW2 1911   1.993   2.453   3.543
 2237SOL     OW 1912   3.231   2.812   3.522
 2237SOL    HW1 1913   3.270   2.901   3.542
 2237SOL    HW2 1914   3.241   2.792   3.425
 2238SOL     OW 1915   3.519   2.466   3.068
 2238SOL    HW1 1916   3.481   2.397   3.130
 2238SOL    HW2 1917   3.601   2.430   3.024
 2239SOL     OW 1918   2.114   3.426   3.606
 2239SOL    HW1 1919   2.084   3.483   3.682
 2239SOL    HW2 1920   2.107   3.329   3.632
 2240SOL     OW 1921   2.533   2.326   3.131
 2240SOL    HW1 1922   2.499   2.237   3.101
 2240SOL    HW2 1923   2.559   2.380   3.051
 2241SOL     OW 1924   2.792   3.540   3.327
 2241SOL    HW1 1925   2.768   3.522   3.232
 2241SOL    HW2 1926   2.822   3.634   3.337
 2242SOL     OW 1927   2.021   2.999   3.328
 2242SOL    HW1 1928   2.043   2.938   3.404
 2242SOL    HW2 1929   2.031   2.950   3.242
 2243SOL     OW 1930   3.209   2.921   3.096
 2243SOL    HW1 1931   3.233   2.858   3.022
 2243SOL    HW2 1932   3.119   2.961   3.078
 2244SOL     OW 1933   3.164   2.717   2.171
 2244SOL    HW1 1934   3.078   2.686   2.213
 2244SOL    HW2 1935   3.160   2.703   2.072
 2246SOL     OW 1936   3.114   3.593   2.990
 2246SOL    HW1 1937   3.198   3.598   2.936
 2246SOL    HW2 1938   3.091   3.497   3.008
 2247SOL     OW 1939   1.945   3.120   2.884
 2247SOL    HW1 1940   1.940   3.119   2.984
 2247SOL    HW2 1941   1.862   3.079   2.846
 2248SOL     OW 1942   2.550   3.524   3.578
 2248SOL    HW1 1943   2.494   3.605   3.587
 2248SOL    HW2 1944   2.602   3.528   3.492
 2249SOL     OW 1945   3.588   1.997   2.385
 2249SOL    HW1 1946   3.661   1.980   2.318
 2249SOL    HW2 1947   3.557   1.910   2.423
 2250SOL     OW 1948   3.250   3.435   2.339
 2250SOL    HW1 1949   3.317   3.447   2.265
 2250SOL    HW2 1950   3.210   3.524   2.362
 2252SOL     OW 1951   3.142   2.789   2.534
 2252SOL    HW1 1952   3.202   2.708   2.536
 2252SOL    HW2 1953   3.182   2.858   2.474
 2253SOL     OW 1954   2.692   3.135   3.284
 2253SOL    HW1 1955   2.687   3.168   3.379
 2253SOL    HW2 1956   2.606   3.154   3.238
 2254SOL     OW 1957   2.534   3.478   2.016
 2254SOL    HW1 1958   2.543   3.488   1.917
 2254SOL    HW2 1959   2.494   3.389   2.037
 2256SOL     OW 1960   3.703   2.037   2.825
 2256SOL    HW1 1961   3.742   1.952   2.789
 2256SOL    HW2 1962   3.605   2.039   2.806
 2257SOL     OW 1963   2.125   2.188   2.582
 2257SOL    HW1 1964   2.046   2.239   2.548
 2257SOL    HW2 1965   2.116   2.173   2.680
 2258SOL     OW 1966   3.056   3.474   1.893
 2258SOL    HW1 1967   3.062   3.381   1.930
 2258SOL    HW2 1968   2.997   3.474   1.813
 2259SOL     OW 1969   2.684   2.864   3.234
 2259SOL    HW1 1970   2.724   2.863   3.142
 2259SOL    HW2 1971   2.694   2.956   3.274
 2260SOL     OW 1972   2.778   2.772   2.153
 2260SOL    HW1 1973   2.841   2.810   2.085
 2260SOL    HW2 1974   2.818   2.689   2.192
 2261SOL     OW 1975   3.366   3.469   1.906
 2261SOL    HW1 1976   3.274   3.506   1.913
 2261SOL    HW2 1977   3.404   3.489   1.816
 2262SOL     OW 1978   2.234   3.150   3.352
 2262SOL    HW1 1979   2.221   3.243   3.318
 2262SOL    HW2 1980   2.150   3.098   3.339
 2263SOL     OW 1981   3.476   3.154   3.151
 2263SOL    HW1 1982   3.536   3.157   3.231
 2263SOL    HW2 1983   3.401   3.218   3.164
 2264SOL     OW 1984   2.901   2.960   2.558
 2264SOL    HW1 1985   2.831   2.913   2.612
 2264SOL    HW2 1986   2.960   2.892   2.515
 2265SOL     OW 1987   2.876   2.098   2.833
 2265SOL    HW1 1988   2.868   2.062   2.740
 2265SOL    HW2 1989   2.874   2.022   2.898
 2266SOL     OW 1990   2.452   3.349   2.353
 2266SOL    HW1 1991   2.494   3.291   2.283
 2266SOL    HW2 1992   2.408   3.428   2.309
 2267SOL     OW 1993   3.571   2.247   3.243
 2267SOL    HW1 1994   3.644   2.316   3.247
 2267SOL    HW2 1995   3.599   2.172   3.184
 2268SOL     OW 1996   2.117   3.210   2.152
 2268SOL    HW1 1997   2.021   3.211   2.125
 2268SOL    HW2 1998   2.129   3.263   2.236
 2269SOL     OW 1999   1.967   2.875   3.588
 2269SOL    HW1 2000   1.890   2.842   3.642
 2269SOL    HW2 2001   2.052   2.845   3.630
 2270SOL     OW 2002   2.534   2.065   3.351
 2270SOL    HW1 2003   2.624   2.049   3.311
 2270SOL    HW2 2004   2.542   2.070   3.450
 2271SOL     OW 2005   1.937   2.207   1.895
 2271SOL    HW1 2006   1.845   2.179   1.866
 2271SOL    HW2 2007   1.968   2.284   1.839
 2272SOL     OW 2008   3.302   2.718   3.260
 2272SOL    HW1 2009   3.245   2.770   3.197
 2272SOL    HW2 2010   3.398   2.730   3.236
 2273SOL     OW 2011   1.934   2.028   2.180
 2273SOL    HW1 2012   1.917   2.111   2.126
 2273SOL    HW2 2013   2.024   1.991   2.158
 2274SOL     OW 2014   3.045   3.197   1.981
 2274SOL    HW1 2015   2.946   3.186   1.983
 2274SOL    HW2 2016   3.079   3.212   2.074
 2275SOL     OW 2017   2.475   2.704   3.293
 2275SOL    HW1 2018   2.531   2.785   3.276
 2275SOL    HW2 2019   2.534   2.624   3.296
 2276SOL     OW 2020   3.355   3.629   2.821
 2276SOL    HW1 2021   3.388   3.693   2.752
 2276SOL    HW2 2022   3.421   3.623   2.896
 2277SOL     OW 2023   2.578   2.427   3.570
 2277SOL    HW1 2024   2.597   2.492   3.644
 2277SOL    HW2 2025   2.638   2.347   3.579
 2278SOL     OW 2026   3.312   3.082   3.495
 2278SOL    HW1 2027   3.303   3.072   3.594
 2278SOL    HW2 2028   3.408   3.075   3.469
 2279SOL     OW 2029   2.252   3.603   3.422
 2279SOL    HW1 2030   2.161   3.644   3.420
 2279SOL    HW2 2031   2.245   3.509   3.454
 2280SOL     OW 2032   3.536   2.745   3.116
 2280SOL    HW1 2033   3.509   2.656   3.079
 2280SOL    HW2 2034   3.537   2.813   3.043
 2281SOL     OW 2035   3.087   2.187   2.311
 2281SOL    HW1 2036   3.152   2.113   2.300
 2281SOL    HW2 2037   3.107   2.237   2.395
 2282SOL     OW 2038   3.639   2.204   3.504
 2282SOL    HW1 2039   3.622   2.235   3.410
 2282SOL    HW2 2040   3.555   2.167   3.542
 2283SOL     OW 2041   3.592   2.796   3.379
 2283SOL    HW1 2042   3.630   2.887   3.394
 2283SOL    HW2 2043   3.584   2.779   3.280
 2284SOL     OW 2044   2.721   3.236   1.878
 2284SOL    HW1 2045   2.675   3.251   1.966
 2284SOL    HW2 2046   2.765   3.321   1.848
 2285SOL     OW 2047   2.523   3.652   2.815
 2285SOL    HW1 2048   2.477   3.740   2.802
 2285SOL    HW2 2049   2.622   3.664   2.808
 2286SOL     OW 2050   2.721   2.818   2.723
 2286SOL    HW1 2051   2.775   2.749   2.771
 2286SOL    HW2 2052   2.689   2.887   2.789
 2287SOL     OW 2053   2.945   2.846   1.949
 2287SOL    HW1 2054   2.922   2.899   1.867
 2287SOL    HW2 2055   3.026   2.790   1.930
 2288SOL     OW 2056   3.723   3.431   2.713
 2288SOL    HW1 2057   3.652   3.419   2.643
 2288SOL    HW2 2058   3.724   3.352   2.773
 2289SOL     OW 2059   2.083   3.176   3.706
 2289SOL    HW1 2060   2.018   3.103   3.685
 2289SOL    HW2 2061   2.087   3.190   3.804
 2290SOL     OW 2062   1.941   3.102   2.515
 2290SOL    HW1 2063   1.940   3.055   2.603
 2290SOL    HW2 2064   2.023   3.074   2.464
 2291SOL     OW 2065   2.534   3.253   3.486
 2291SOL    HW1 2066   2.456   3.203   3.524
 2291SOL    HW2 2067   2.531   3.348   3.517
 2292SOL     OW 2068   3.686   2.054   3.089
 2292SOL    HW1 2069   3.682   1.964   3.133
 2292SOL    HW2 2070   3.689   2.043   2.990
 2293SOL     OW 2071   3.567   3.349   2.966
 2293SOL    HW1 2072   3.474   3.324   2.939
 2293SOL    HW2 2073   3.593   3.299   3.048
 2294SOL     OW 2074   2.179   2.409   3.142
 2294SOL    HW1 2075   2.217   2.350   3.214
 2294SOL    HW2 2076   2.219   2.383   3.054
 2295SOL     OW 2077   2.674   3.448   2.549
 2295SOL    HW1 2078   2.706   3.458   2.455
 2295SOL    HW2 2079   2.595   3.386   2.551
 2296SOL     OW 2080   3.286   2.076   2.974
 2296SOL    HW1 2081   3.338   2.011   3.029
 2296SOL    HW2 2082   3.237   2.139   3.035
 2297SOL     OW 2083   2.863   1.896   3.016
 2297SOL    HW1 2084   2.800   1.824   2.985
 2297SOL    HW2 2085   2.956   1.860   3.016
 2298SOL     OW 2086   2.632   3.192   2.163
 2298SOL    HW1 2087   2.586   3.105   2.180
 2298SOL    HW2 2088   2.723   3.189   2.204
 2299SOL     OW 2089   2.480   3.429   3.146
 2299SOL    HW1 2090   2.475   3.511   3.203
 2299SOL    HW2 2091   2.569   3.426   3.101
 2300SOL     OW 2092   3.214   1.914   2.030
 2300SOL    HW1 2093   3.249   1.873   1.946
 2300SOL    HW2 2094   3.124   1.876   2.050
 2301SOL     OW 2095   3.162   2.315   2.553
 2301SOL    HW1 2096   3.103   2.395   2.557
 2301SOL    HW2 2097   3.177   2.280   2.646
 2302SOL     OW 2098   3.455   2.083   2.744
 2302SOL    HW1 2099   3.371   2.082   2.798
 2302SOL    HW2 2100   3.457   2.166   2.688
 2303SOL     OW 2101   1.901   2.939   2.162
 2303SOL    HW1 2102   2.000   2.928   2.153
 2303SOL    HW2 2103   1.861   2.853   2.194
 2304SOL     OW 2104   2.737   3.508   2.199
 2304SOL    HW1 2105   2.660   3.473   2.145
 2304SOL    HW2 2106   2.705   3.579   2.261
 2305SOL     OW 2107   2.092   2.490   3.837
 2305SOL    HW1 2108   1.999   2.488   3.874
 2305SOL    HW2 2109   2.093   2.451   3.745
 2316SOL     OW 2110   2.468   2.826   3.847
 2316SOL    HW1 2111   2.475   2.910   3.793
 2316SOL    HW2 2112   2.514   2.839   3.935
 2327SOL     OW 2113   2.460   2.591   3.994
 2327SOL    HW1 2114   2.484   2.660   3.926
 2327SOL    HW2 2115   2.382   2.624   4.048
 2332SOL     OW 2116   2.727   2.210   3.919
 2332SOL    HW1 2117   2.786   2.273   3.870
 2332SOL    HW2 2118   2.746   2.116   3.890
 2337SOL     OW 2119   2.183   2.805   3.966
 2337SOL    HW1 2120   2.265   2.844   3.924
 2337SOL    HW2 2121   2.156   2.723   3.917
 2344SOL     OW 2122   2.476   1.984   3.841
 2344SOL    HW1 2123   2.574   1.962   3.848
 2344SOL    HW2 2124   2.445   1.967   3.748
 2348SOL     OW 2125   2.159   1.897   3.895
 2348SOL    HW1 2126   2.208   1.981   3.874
 2348SOL    HW2 2127   2.221   1.832   3.940
 2353SOL     OW 2128   2.894   2.411   3.740
 2353SOL    HW1 2129   2.853   2.493   3.701
 2353SOL    HW2 2130   2.958   2.437   3.813
 2358SOL     OW 2131   2.350   3.247   3.898
 2358SOL    HW1 2132   2.263   3.232   3.945
 2358SOL    HW2 2133   2.333   3.273   3.803
 2360SOL     OW 2134   3.252   2.437   3.802
 2360SOL    HW1 2135   3.198   2.416   3.883
 2360SOL    HW2 2136   3.343   2.396   3.811
 2361SOL     OW 2137   2.389   2.118   4.052
 2361SOL    HW1 2138   2.416   2.059   3.977
 2361SOL    HW2 2139   2.389   2.213   4.021
 2367SOL     OW 2140   3.071   2.387   3.999
 2367SOL    HW1 2141   3.084   2.303   4.053
 2367SOL    HW2 2142   3.042   2.461   4.059
 2372SOL     OW 2143   3.165   2.700   3.766
 2372SOL    HW1 2144   3.199   2.607   3.781
 2372SOL    HW2 2145   3.183   2.727   3.671
 2378SOL     OW 2146   2.677   2.434   4.049
 2378SOL    HW1 2147   2.684   2.345   4.003
 2378SOL    HW2 2148   2.583   2.468   4.041
 2380SOL     OW 2149   2.335   2.362   3.915
 2380SOL    HW1 2150   2.396   2.442   3.919
 2380SOL    HW2 2151   2.240   2.393   3.922
 2390SOL     OW 2152   2.778   2.772   4.015
 2390SOL    HW1 2153   2.841   2.810   3.947
 2390SOL    HW2 2154   2.818   2.689   4.054
 2395SOL     OW 2155   1.937   2.207   3.757
 2395SOL    HW1 2156   1.845   2.179   3.728
 2395SOL    HW2 2157   1.968   2.284   3.701
 2396SOL     OW 2158   1.934   2.028   4.042
 2396SOL    HW1 2159   1.917   2.111   3.988
 2396SOL    HW2 2160   2.024   1.991   4.020
 2401SOL     OW 2161   2.721   3.236   3.740
 2401SOL    HW1 2162   2.675   3.251   3.828
 2401SOL    HW2 2163   2.765   3.321   3.710
 2404SOL     OW 2164   2.945   2.846   3.811
 2404SOL    HW1 2165   2.922   2.899   3.729
 2404SOL    HW2 2166   3.026   2.790   3.792
 2411SOL     OW 2167   3.214   1.914   3.892
 2411SOL    HW1 2168   3.249   1.873   3.808
 2411SOL    HW2 2169   3.124   1.876   3.912
 2431SOL     OW 2170   2.179   3.975   1.801
 2431SOL    HW1 2171   2.250   4.046   1.807
 2431SOL    HW2 2172   2.091   4.014   1.829
 2449SOL     OW 2173   2.643   3.988   1.749
 2449SOL    HW1 2174   2.710   3.927   1.792
 2449SOL    HW2 2175   2.570   4.007   1.814
 2466SOL     OW 2176   2.777   3.813   1.402
 2466SOL    HW1 2177   2.802   3.793   1.307
 2466SOL    HW2 2178   2.849   3.869   1.444
 2473SOL     OW 2179   2.875   3.829   1.770
 2473SOL    HW1 2180   2.881   3.914   1.718
 2473SOL    HW2 2181   2.907   3.753   1.713
 2474SOL     OW 2182   2.366   3.774   1.740
 2474SOL    HW1 2183   2.324   3.717   1.670
 2474SOL    HW2 2184   2.300   3.843   1.772
 2510SOL     OW 2185   2.534   3.927   1.489
 2510SOL    HW1 2186   2.624   3.911   1.449
 2510SOL    HW2 2187   2.542   3.932   1.588
 2529SOL     OW 2188   2.087   3.999   2.858
 2529SOL    HW1 2189   2.122   3.982   2.950
 2529SOL    HW2 2190   1.999   3.954   2.846
 2530SOL     OW 2191   1.881   4.092   2.509
 2530SOL    HW1 2192   1.799   4.135   2.548
 2530SOL    HW2 2193   1.853   4.019   2.446
 2540SOL     OW 2194   2.671   3.728   2.364
 2540SOL    HW1 2195   2.711   3.819   2.355
 2540SOL    HW2 2196   2.571   3.736   2.370
 2552SOL     OW 2197   2.727   4.072   2.057
 2552SOL    HW1 2198   2.786   4.135   2.008
 2552SOL    HW2 2199   2.746   3.978   2.028
 2554SOL     OW 2200   2.412   3.920   2.747
 2554SOL    HW1 2201   2.407   3.915   2.847
 2554SOL    HW2 2202   2.414   4.016   2.718
 2557SOL     OW 2203   3.262   3.831   2.288
 2557SOL    HW1 2204   3.238   3.794   2.198
 2557SOL    HW2 2205   3.361   3.847   2.292
 2560SOL     OW 2206   2.476   3.846   1.979
 2560SOL    HW1 2207   2.574   3.824   1.986
 2560SOL    HW2 2208   2.445   3.829   1.886
 2564SOL     OW 2209   2.401   3.788   2.374
 2564SOL    HW1 2210   2.320   3.789   2.432
 2564SOL    HW2 2211   2.404   3.871   2.319
 2565SOL     OW 2212   2.159   3.759   2.033
 2565SOL    HW1 2213   2.208   3.843   2.012
 2565SOL    HW2 2214   2.221   3.694   2.078
 2566SOL     OW 2215   2.797   3.960   2.342
 2566SOL    HW1 2216   2.749   4.001   2.264
 2566SOL    HW2 2217   2.896   3.958   2.323
 2570SOL     OW 2218   2.423   3.946   3.009
 2570SOL    HW1 2219   2.461   3.862   3.046
 2570SOL    HW2 2220   2.335   3.965   3.053
 2572SOL     OW 2221   2.879   3.763   2.615
 2572SOL    HW1 2222   2.807   3.768   2.546
 2572SOL    HW2 2223   2.855   3.694   2.684
 2576SOL     OW 2224   2.389   3.980   2.190
 2576SOL    HW1 2225   2.416   3.921   2.115
 2576SOL    HW2 2226   2.389   4.075   2.159
 2578SOL     OW 2227   2.777   3.813   3.264
 2578SOL    HW1 2228   2.802   3.793   3.169
 2578SOL    HW2 2229   2.849   3.869   3.306
 2590SOL     OW 2230   2.169   3.937   3.093
 2590SOL    HW1 2231   2.146   3.974   3.183
 2590SOL    HW2 2232   2.139   3.842   3.087
 2593SOL     OW 2233   2.169   3.787   2.480
 2593SOL    HW1 2234   2.158   3.881   2.513
 2593SOL    HW2 2235   2.164   3.724   2.557
 2617SOL     OW 2236   2.125   4.050   2.582
 2617SOL    HW1 2237   2.046   4.101   2.548
 2617SOL    HW2 2238   2.116   4.035   2.680
 2619SOL     OW 2239   2.876   3.960   2.833
 2619SOL    HW1 2240   2.868   3.924   2.740
 2619SOL    HW2 2241   2.874   3.884   2.898
 2625SOL     OW 2242   1.934   3.890   2.180
 2625SOL    HW1 2243   1.917   3.973   2.126
 2625SOL    HW2 2244   2.024   3.853   2.158
 2634SOL     OW 2245   2.290   4.148   2.382
 2634SOL    HW1 2246   2.320   4.076   2.320
 2634SOL    HW2 2247   2.251   4.108   2.465
 2637SOL     OW 2248   2.863   3.758   3.016
 2637SOL    HW1 2249   2.800   3.686   2.985
 2637SOL    HW2 2250   2.956   3.722   3.016
 2638SOL     OW 2251   3.214   3.776   2.030
 2638SOL    HW1 2252   3.249   3.735   1.946
 2638SOL    HW2 2253   3.124   3.738   2.050
 2726SOL     OW 2254   3.854   1.821   1.571
 2726SOL    HW1 2255   3.844   1.806   1.670
 2726SOL    HW2 2256   3.768   1.857   1.535
 2785SOL     OW 2257   3.854   1.794   1.851
 2785SOL    HW1 2258   3.813   1.720   1.904
 2785SOL    HW2 2259   3.918   1.845   1.909
 2827SOL     OW 2260   3.955   1.713   2.345
 2827SOL    HW1 2261   3.989   1.790   2.399
 2827SOL    HW2 2262   3.999   1.713   2.255
 2833SOL     OW 2263   3.751   1.596   1.979
 2833SOL    HW1 2264   3.732   1.500   2.000
 2833SOL    HW2 2265   3.718   1.654   2.054
 2886SOL     OW 2266   3.732   1.326   2.062
 2886SOL    HW1 2267   3.639   1.347   2.031
 2886SOL    HW2 2268   3.742   1.227   2.075
 2887SOL     OW 2269   3.812   1.801   2.789
 2887SOL    HW1 2270   3.770   1.715   2.762
 2887SOL    HW2 2271   3.906   1.804   2.755
 3012SOL     OW 2272   3.837   2.599   1.597
 3012SOL    HW1 2273   3.925   2.586   1.642
 3012SOL    HW2 2274   3.824   2.696   1.575
 3016SOL     OW 2275   4.041   2.113   1.801
 3016SOL    HW1 2276   4.112   2.184   1.807
 3016SOL    HW2 2277   3.953   2.152   1.829
 3028SOL     OW 2278   3.926   2.147   1.498
 3028SOL    HW1 2279   3.846   2.207   1.485
 3028SOL    HW2 2280   3.916   2.098   1.584
 3041SOL     OW 2281   3.802   2.418   1.386
 3041SOL    HW1 2282   3.894   2.417   1.345
 3041SOL    HW2 2283   3.796   2.492   1.453
 3072SOL     OW 2284   3.913   2.382   1.722
 3072SOL    HW1 2285   3.972   2.342   1.652
 3072SOL    HW2 2286   3.855   2.453   1.681
 3091SOL     OW 2287   3.829   2.875   1.726
 3091SOL    HW1 2288   3.752   2.842   1.780
 3091SOL    HW2 2289   3.914   2.845   1.768
 3114SOL     OW 2290   3.954   2.490   1.975
 3114SOL    HW1 2291   3.861   2.488   2.012
 3114SOL    HW2 2292   3.955   2.451   1.883
 3115SOL     OW 2293   3.949   2.137   2.858
 3115SOL    HW1 2294   3.984   2.120   2.950
 3115SOL    HW2 2295   3.861   2.092   2.846
 3116SOL     OW 2296   3.743   2.230   2.509
 3116SOL    HW1 2297   3.661   2.273   2.548
 3116SOL    HW2 2298   3.715   2.157   2.446
 3126SOL     OW 2299   3.964   2.953   2.748
 3126SOL    HW1 2300   3.978   2.869   2.800
 3126SOL    HW2 2301   3.909   3.017   2.803
 3129SOL     OW 2302   3.846   2.505   2.425
 3129SOL    HW1 2303   3.801   2.417   2.442
 3129SOL    HW2 2304   3.845   2.559   2.509
 3130SOL     OW 2305   3.751   3.458   1.979
 3130SOL    HW1 2306   3.732   3.362   2.000
 3130SOL    HW2 2307   3.718   3.516   2.054
 3134SOL     OW 2308   3.921   2.838   3.126
 3134SOL    HW1 2309   4.010   2.793   3.112
 3134SOL    HW2 2310   3.848   2.773   3.107
 3139SOL     OW 2311   3.800   2.673   2.651
 3139SOL    HW1 2312   3.899   2.661   2.660
 3139SOL    HW2 2313   3.776   2.768   2.672
 3145SOL     OW 2314   4.045   2.805   2.104
 3145SOL    HW1 2315   4.127   2.844   2.062
 3145SOL    HW2 2316   4.018   2.723   2.055
 3150SOL     OW 2317   4.106   2.562   2.342
 3150SOL    HW1 2318   4.151   2.472   2.339
 3150SOL    HW2 2319   4.012   2.551   2.375
 3157SOL     OW 2320   4.021   1.897   2.033
 3157SOL    HW1 2321   4.070   1.981   2.012
 3157SOL    HW2 2322   4.083   1.832   2.078
 3160SOL     OW 2323   3.802   2.418   3.248
 3160SOL    HW1 2324   3.894   2.417   3.207
 3160SOL    HW2 2325   3.796   2.492   3.315
 3178SOL     OW 2326   3.761   3.172   3.144
 3178SOL    HW1 2327   3.814   3.123   3.212
 3178SOL    HW2 2328   3.783   3.270   3.149
 3180SOL     OW 2329   4.031   1.925   2.480
 3180SOL    HW1 2330   4.020   2.019   2.513
 3180SOL    HW2 2331   4.026   1.862   2.557
 3184SOL     OW 2332   4.043   2.672   2.811
 3184SOL    HW1 2333   4.136   2.708   2.816
 3184SOL    HW2 2334   4.037   2.587   2.863
 3185SOL     OW 2335   4.063   2.371   2.868
 3185SOL    HW1 2336   4.011   2.288   2.851
 3185SOL    HW2 2337   4.140   2.376   2.804
 3186SOL     OW 2338   3.732   3.188   2.062
 3186SOL    HW1 2339   3.639   3.209   2.031
 3186SOL    HW2 2340   3.742   3.089   2.075
 3190SOL     OW 2341   3.764   2.406   2.976
 3190SOL    HW1 2342   3.849   2.373   2.935
 3190SOL    HW2 2343   3.777   2.421   3.074
 3198SOL     OW 2344   3.807   3.120   2.884
 3198SOL    HW1 2345   3.802   3.119   2.984
 3198SOL    HW2 2346   3.724   3.079   2.846
 3204SOL     OW 2347   3.987   2.188   2.582
 3204SOL    HW1 2348   3.908   2.239   2.548
 3204SOL    HW2 2349   3.978   2.173   2.680
 3211SOL     OW 2350   3.799   2.207   1.895
 3211SOL    HW1 2351   3.707   2.179   1.866
 3211SOL    HW2 2352   3.830   2.284   1.839
 3212SOL     OW 2353   3.796   2.028   2.180
 3212SOL    HW1 2354   3.779   2.111   2.126
 3212SOL    HW2 2355   3.886   1.991   2.158
 3222SOL     OW 2356   3.803   3.102   2.515
 3222SOL    HW1 2357   3.802   3.055   2.603
 3222SOL    HW2 2358   3.885   3.074   2.464
 3224SOL     OW 2359   4.152   2.286   2.382
 3224SOL    HW1 2360   4.182   2.214   2.320
 3224SOL    HW2 2361   4.113   2.246   2.465
 3230SOL     OW 2362   3.763   2.939   2.162
 3230SOL    HW1 2363   3.862   2.928   2.153
 3230SOL    HW2 2364   3.723   2.853   2.194
   4.74924   4.74924   4.74924
