mobley_8723116_GMX.gro created by acpype (v: 2023.10.27) on Tue May 19 14:10:06 2026
 2390
    1MOL     C1    1   2.218   2.381   2.295
    1MOL     C2    2   2.430   2.265   2.301
    1MOL     C3    3   2.216   2.384   2.435
    1MOL     C4    4   2.428   2.268   2.440
    1MOL     C5    5   2.325   2.322   2.228
    1MOL     C6    6   2.321   2.328   2.507
    1MOL     N1    7   2.327   2.318   2.088
    1MOL    CL1    8   2.319   2.332   2.679
    1MOL     H1    9   2.135   2.425   2.240
    1MOL     H2   10   2.514   2.219   2.250
    1MOL     H3   11   2.132   2.431   2.486
    1MOL     H4   12   2.510   2.224   2.496
    1MOL     H5   13   2.253   2.364   2.037
    1MOL     H6   14   2.396   2.263   2.041
   14SOL     OW   15   1.460   1.505   1.339
   14SOL    HW1   16   1.484   1.599   1.365
   14SOL    HW2   17   1.444   1.451   1.421
   18SOL     OW   18   1.127   1.341   1.690
   18SOL    HW1   19   1.174   1.341   1.778
   18SOL    HW2   20   1.079   1.254   1.679
   31SOL     OW   21   1.293   1.228   1.423
   31SOL    HW1   22   1.330   1.155   1.365
   31SOL    HW2   23   1.345   1.233   1.508
   35SOL     OW   24   1.187   1.792   1.616
   35SOL    HW1   25   1.211   1.852   1.540
   35SOL    HW2   26   1.194   1.697   1.586
   56SOL     OW   27   1.227   1.550   1.506
   56SOL    HW1   28   1.233   1.473   1.570
   56SOL    HW2   29   1.175   1.524   1.426
   95SOL     OW   30   1.754   1.223   1.588
   95SOL    HW1   31   1.845   1.184   1.575
   95SOL    HW2   32   1.762   1.319   1.612
   97SOL     OW   33   1.592   1.629   1.625
   97SOL    HW1   34   1.619   1.663   1.535
   97SOL    HW2   35   1.671   1.591   1.671
  122SOL     OW   36   1.728   0.935   1.854
  122SOL    HW1   37   1.682   0.928   1.765
  122SOL    HW2   38   1.666   0.979   1.920
  126SOL     OW   39   0.980   1.573   1.700
  126SOL    HW1   40   0.960   1.617   1.612
  126SOL    HW2   41   1.019   1.482   1.684
  127SOL     OW   42   1.859   1.518   1.605
  127SOL    HW1   43   1.873   1.545   1.510
  127SOL    HW2   44   1.942   1.540   1.658
  142SOL     OW   45   1.369   0.950   1.660
  142SOL    HW1   46   1.408   1.039   1.680
  142SOL    HW2   47   1.379   0.930   1.563
  147SOL     OW   48   0.930   1.678   1.465
  147SOL    HW1   49   0.906   1.660   1.370
  147SOL    HW2   50   0.960   1.772   1.475
  152SOL     OW   51   1.759   1.747   1.154
  152SOL    HW1   52   1.820   1.777   1.081
  152SOL    HW2   53   1.721   1.658   1.132
  153SOL     OW   54   1.252   1.731   1.128
  153SOL    HW1   55   1.336   1.736   1.074
  153SOL    HW2   56   1.229   1.635   1.146
  163SOL     OW   57   1.650   1.720   1.394
  163SOL    HW1   58   1.703   1.730   1.310
  163SOL    HW2   59   1.623   1.810   1.428
  171SOL     OW   60   1.614   1.292   1.289
  171SOL    HW1   61   1.674   1.295   1.369
  171SOL    HW2   62   1.539   1.356   1.302
  184SOL     OW   63   1.493   1.767   0.959
  184SOL    HW1   64   1.526   1.831   0.890
  184SOL    HW2   65   1.559   1.761   1.034
  186SOL     OW   66   1.450   1.220   1.633
  186SOL    HW1   67   1.441   1.210   1.732
  186SOL    HW2   68   1.546   1.213   1.607
  192SOL     OW   69   1.730   0.934   1.517
  192SOL    HW1   70   1.768   1.025   1.532
  192SOL    HW2   71   1.722   0.917   1.418
  197SOL     OW   72   1.861   1.569   0.851
  197SOL    HW1   73   1.790   1.557   0.781
  197SOL    HW2   74   1.862   1.490   0.911
  203SOL     OW   75   1.705   1.487   1.104
  203SOL    HW1   76   1.612   1.462   1.077
  203SOL    HW2   77   1.731   1.437   1.186
  219SOL     OW   78   1.555   1.511   2.565
  219SOL    HW1   79   1.498   1.495   2.646
  219SOL    HW2   80   1.496   1.521   2.485
  227SOL     OW   81   1.460   1.505   3.201
  227SOL    HW1   82   1.484   1.599   3.227
  227SOL    HW2   83   1.444   1.451   3.283
  238SOL     OW   84   1.842   1.767   2.221
  238SOL    HW1   85   1.896   1.738   2.301
  238SOL    HW2   86   1.872   1.857   2.192
  240SOL     OW   87   1.689   0.922   2.474
  240SOL    HW1   88   1.784   0.893   2.482
  240SOL    HW2   89   1.681   0.987   2.399
  241SOL     OW   90   1.641   1.108   2.294
  241SOL    HW1   91   1.727   1.110   2.242
  241SOL    HW2   92   1.655   1.155   2.382
  244SOL     OW   93   1.293   1.228   3.285
  244SOL    HW1   94   1.330   1.155   3.227
  244SOL    HW2   95   1.345   1.233   3.370
  247SOL     OW   96   1.525   0.999   2.052
  247SOL    HW1   97   1.462   0.923   2.065
  247SOL    HW2   98   1.573   1.017   2.138
  248SOL     OW   99   1.187   1.792   3.478
  248SOL    HW1  100   1.211   1.852   3.402
  248SOL    HW2  101   1.194   1.697   3.448
  250SOL     OW  102   1.466   1.417   2.815
  250SOL    HW1  103   1.407   1.423   2.895
  250SOL    HW2  104   1.451   1.329   2.769
  251SOL     OW  105   1.667   1.714   2.434
  251SOL    HW1  106   1.626   1.691   2.346
  251SOL    HW2  107   1.649   1.640   2.499
  254SOL     OW  108   1.576   1.662   2.169
  254SOL    HW1  109   1.665   1.708   2.172
  254SOL    HW2  110   1.555   1.638   2.074
  264SOL     OW  111   1.362   1.144   2.407
  264SOL    HW1  112   1.445   1.115   2.359
  264SOL    HW2  113   1.313   1.211   2.351
  266SOL     OW  114   1.008   1.456   2.339
  266SOL    HW1  115   0.962   1.528   2.287
  266SOL    HW2  116   1.004   1.476   2.437
  268SOL     OW  117   1.795   1.066   2.735
  268SOL    HW1  118   1.733   1.051   2.659
  268SOL    HW2  119   1.743   1.077   2.820
  269SOL     OW  120   1.227   1.550   3.368
  269SOL    HW1  121   1.233   1.473   3.432
  269SOL    HW2  122   1.175   1.524   3.288
  273SOL     OW  123   1.111   1.776   2.099
  273SOL    HW1  124   1.051   1.714   2.149
  273SOL    HW2  125   1.142   1.732   2.014
  275SOL     OW  126   1.632   1.377   1.943
  275SOL    HW1  127   1.600   1.471   1.933
  275SOL    HW2  128   1.556   1.314   1.931
  279SOL     OW  129   0.940   1.698   2.766
  279SOL    HW1  130   1.020   1.641   2.787
  279SOL    HW2  131   0.891   1.658   2.689
  289SOL     OW  132   1.434   1.188   1.903
  289SOL    HW1  133   1.466   1.112   1.960
  289SOL    HW2  134   1.342   1.215   1.933
  293SOL     OW  135   1.227   1.570   2.655
  293SOL    HW1  136   1.248   1.644   2.590
  293SOL    HW2  137   1.295   1.570   2.728
  295SOL     OW  138   1.271   1.797   2.453
  295SOL    HW1  139   1.315   1.861   2.389
  295SOL    HW2  140   1.221   1.849   2.523
  301SOL     OW  141   1.429   1.173   2.729
  301SOL    HW1  142   1.374   1.089   2.722
  301SOL    HW2  143   1.455   1.202   2.637
  303SOL     OW  144   1.857   0.833   2.239
  303SOL    HW1  145   1.899   0.769   2.303
  303SOL    HW2  146   1.819   0.782   2.161
  305SOL     OW  147   1.664   1.280   2.519
  305SOL    HW1  148   1.763   1.288   2.533
  305SOL    HW2  149   1.619   1.364   2.550
  308SOL     OW  150   1.754   1.223   3.450
  308SOL    HW1  151   1.845   1.184   3.437
  308SOL    HW2  152   1.762   1.319   3.474
  310SOL     OW  153   1.592   1.629   3.487
  310SOL    HW1  154   1.619   1.663   3.397
  310SOL    HW2  155   1.671   1.591   3.533
  311SOL     OW  156   1.111   1.195   2.962
  311SOL    HW1  157   1.071   1.239   3.043
  311SOL    HW2  158   1.070   1.232   2.879
  312SOL     OW  159   1.638   1.099   2.941
  312SOL    HW1  160   1.643   1.180   3.000
  312SOL    HW2  161   1.552   1.101   2.890
  321SOL     OW  162   1.252   1.348   2.250
  321SOL    HW1  163   1.302   1.425   2.290
  321SOL    HW2  164   1.157   1.350   2.282
  322SOL     OW  165   1.272   1.445   3.004
  322SOL    HW1  166   1.319   1.458   3.091
  322SOL    HW2  167   1.206   1.371   3.013
  340SOL     OW  168   1.859   1.518   3.467
  340SOL    HW1  169   1.873   1.545   3.372
  340SOL    HW2  170   1.942   1.540   3.520
  344SOL     OW  171   1.068   1.333   2.711
  344SOL    HW1  172   1.075   1.249   2.656
  344SOL    HW2  173   1.130   1.402   2.675
  363SOL     OW  174   1.347   1.059   3.096
  363SOL    HW1  175   1.371   0.996   3.022
  363SOL    HW2  176   1.257   1.099   3.078
  364SOL     OW  177   1.302   0.855   2.171
  364SOL    HW1  178   1.216   0.824   2.213
  364SOL    HW2  179   1.298   0.841   2.072
  365SOL     OW  180   1.759   1.747   3.016
  365SOL    HW1  181   1.820   1.777   2.943
  365SOL    HW2  182   1.721   1.658   2.994
  366SOL     OW  183   1.252   1.731   2.990
  366SOL    HW1  184   1.336   1.736   2.936
  366SOL    HW2  185   1.229   1.635   3.008
  370SOL     OW  186   1.388   1.573   2.339
  370SOL    HW1  187   1.455   1.585   2.265
  370SOL    HW2  188   1.348   1.662   2.362
  372SOL     OW  189   1.280   0.927   2.534
  372SOL    HW1  190   1.340   0.846   2.536
  372SOL    HW2  191   1.320   0.996   2.474
  375SOL     OW  192   1.650   1.720   3.256
  375SOL    HW1  193   1.703   1.730   3.172
  375SOL    HW2  194   1.623   1.810   3.290
  378SOL     OW  195   1.194   1.612   1.893
  378SOL    HW1  196   1.200   1.519   1.930
  378SOL    HW2  197   1.135   1.612   1.813
  381SOL     OW  198   1.504   1.607   1.906
  381SOL    HW1  199   1.412   1.644   1.913
  381SOL    HW2  200   1.542   1.627   1.816
  383SOL     OW  201   1.614   1.292   3.151
  383SOL    HW1  202   1.674   1.295   3.231
  383SOL    HW2  203   1.539   1.356   3.164
  384SOL     OW  204   1.039   1.098   2.558
  384SOL    HW1  205   0.969   1.051   2.612
  384SOL    HW2  206   1.098   1.030   2.515
  394SOL     OW  207   1.183   1.335   1.981
  394SOL    HW1  208   1.084   1.324   1.983
  394SOL    HW2  209   1.217   1.350   2.074
  396SOL     OW  210   1.493   1.767   2.821
  396SOL    HW1  211   1.526   1.831   2.752
  396SOL    HW2  212   1.559   1.761   2.896
  400SOL     OW  213   1.674   0.883   3.116
  400SOL    HW1  214   1.647   0.794   3.079
  400SOL    HW2  215   1.675   0.951   3.043
  409SOL     OW  216   1.861   1.569   2.713
  409SOL    HW1  217   1.790   1.557   2.643
  409SOL    HW2  218   1.862   1.490   2.773
  415SOL     OW  219   1.705   1.487   2.966
  415SOL    HW1  220   1.612   1.462   2.939
  415SOL    HW2  221   1.731   1.437   3.048
  417SOL     OW  222   0.812   1.586   2.549
  417SOL    HW1  223   0.844   1.596   2.455
  417SOL    HW2  224   0.733   1.524   2.551
  426SOL     OW  225   0.875   1.646   2.199
  426SOL    HW1  226   0.798   1.611   2.145
  426SOL    HW2  227   0.843   1.717   2.261
  534SOL     OW  228   0.850   2.660   1.823
  534SOL    HW1  229   0.846   2.736   1.888
  534SOL    HW2  230   0.872   2.696   1.732
  538SOL     OW  231   1.460   3.367   1.339
  538SOL    HW1  232   1.484   3.461   1.365
  538SOL    HW2  233   1.444   3.313   1.421
  540SOL     OW  234   1.603   2.309   0.737
  540SOL    HW1  235   1.529   2.355   0.687
  540SOL    HW2  236   1.654   2.377   0.790
  542SOL     OW  237   1.127   3.203   1.690
  542SOL    HW1  238   1.174   3.203   1.778
  542SOL    HW2  239   1.079   3.116   1.679
  547SOL     OW  240   1.594   1.976   1.480
  547SOL    HW1  241   1.576   2.043   1.408
  547SOL    HW2  242   1.591   2.022   1.569
  555SOL     OW  243   1.293   3.090   1.423
  555SOL    HW1  244   1.330   3.017   1.365
  555SOL    HW2  245   1.345   3.095   1.508
  564SOL     OW  246   1.281   2.207   0.944
  564SOL    HW1  247   1.195   2.157   0.931
  564SOL    HW2  248   1.343   2.153   1.000
  566SOL     OW  249   0.807   2.467   1.465
  566SOL    HW1  250   0.760   2.464   1.554
  566SOL    HW2  251   0.756   2.412   1.399
  567SOL     OW  252   1.394   2.331   1.674
  567SOL    HW1  253   1.374   2.374   1.762
  567SOL    HW2  254   1.472   2.269   1.683
  568SOL     OW  255   0.973   2.752   1.572
  568SOL    HW1  256   1.019   2.668   1.543
  568SOL    HW2  257   0.917   2.786   1.497
  569SOL     OW  258   0.991   2.272   1.242
  569SOL    HW1  259   0.914   2.306   1.296
  569SOL    HW2  260   0.957   2.221   1.163
  574SOL     OW  261   1.719   2.447   1.831
  574SOL    HW1  262   1.693   2.536   1.795
  574SOL    HW2  263   1.717   2.379   1.758
  579SOL     OW  264   1.795   2.928   0.873
  579SOL    HW1  265   1.733   2.913   0.797
  579SOL    HW2  266   1.743   2.939   0.958
  580SOL     OW  267   1.227   3.412   1.506
  580SOL    HW1  268   1.233   3.335   1.570
  580SOL    HW2  269   1.175   3.386   1.426
  592SOL     OW  270   1.547   2.084   1.729
  592SOL    HW1  271   1.542   2.121   1.821
  592SOL    HW2  272   1.475   2.015   1.717
  593SOL     OW  273   0.781   2.126   1.749
  593SOL    HW1  274   0.848   2.065   1.792
  593SOL    HW2  275   0.708   2.145   1.814
  595SOL     OW  276   1.351   2.452   1.433
  595SOL    HW1  277   1.379   2.409   1.518
  595SOL    HW2  278   1.376   2.548   1.434
  602SOL     OW  279   1.076   2.545   1.464
  602SOL    HW1  280   0.996   2.484   1.467
  602SOL    HW2  281   1.157   2.492   1.440
  612SOL     OW  282   1.466   2.452   0.992
  612SOL    HW1  283   1.436   2.357   0.999
  612SOL    HW2  284   1.539   2.468   1.058
  618SOL     OW  285   1.754   3.085   1.588
  618SOL    HW1  286   1.845   3.046   1.575
  618SOL    HW2  287   1.762   3.181   1.612
  620SOL     OW  288   1.592   3.491   1.625
  620SOL    HW1  289   1.619   3.525   1.535
  620SOL    HW2  290   1.671   3.453   1.671
  622SOL     OW  291   1.638   2.961   1.079
  622SOL    HW1  292   1.643   3.042   1.138
  622SOL    HW2  293   1.552   2.963   1.028
  623SOL     OW  294   0.915   1.951   1.402
  623SOL    HW1  295   0.940   1.931   1.307
  623SOL    HW2  296   0.987   2.007   1.444
  624SOL     OW  297   0.980   2.978   1.719
  624SOL    HW1  298   0.881   2.984   1.729
  624SOL    HW2  299   1.003   2.898   1.663
  627SOL     OW  300   1.274   2.248   1.262
  627SOL    HW1  301   1.295   2.322   1.326
  627SOL    HW2  302   1.185   2.265   1.219
  636SOL     OW  303   1.587   2.641   1.670
  636SOL    HW1  304   1.495   2.679   1.665
  636SOL    HW2  305   1.647   2.688   1.605
  637SOL     OW  306   1.013   1.967   1.770
  637SOL    HW1  307   1.019   2.052   1.718
  637SOL    HW2  308   1.045   1.891   1.713
  640SOL     OW  309   1.360   2.724   1.045
  640SOL    HW1  310   1.285   2.724   0.979
  640SOL    HW2  311   1.397   2.632   1.054
  645SOL     OW  312   1.728   2.797   1.854
  645SOL    HW1  313   1.682   2.790   1.765
  645SOL    HW2  314   1.666   2.841   1.920
  650SOL     OW  315   1.859   3.380   1.605
  650SOL    HW1  316   1.873   3.407   1.510
  650SOL    HW2  317   1.942   3.402   1.658
  657SOL     OW  318   1.138   2.242   1.678
  657SOL    HW1  319   1.093   2.305   1.742
  657SOL    HW2  320   1.231   2.273   1.661
  658SOL     OW  321   1.160   2.069   1.477
  658SOL    HW1  322   1.160   2.133   1.554
  658SOL    HW2  323   1.188   2.117   1.394
  662SOL     OW  324   1.002   2.658   1.238
  662SOL    HW1  325   1.043   2.626   1.324
  662SOL    HW2  326   0.906   2.631   1.235
  665SOL     OW  327   1.369   2.812   1.660
  665SOL    HW1  328   1.408   2.901   1.680
  665SOL    HW2  329   1.379   2.792   1.563
  667SOL     OW  330   1.657   2.466   1.206
  667SOL    HW1  331   1.619   2.397   1.268
  667SOL    HW2  332   1.739   2.430   1.162
  673SOL     OW  333   1.347   2.921   1.234
  673SOL    HW1  334   1.371   2.858   1.160
  673SOL    HW2  335   1.257   2.961   1.216
  686SOL     OW  336   1.650   3.582   1.394
  686SOL    HW1  337   1.703   3.592   1.310
  686SOL    HW2  338   1.623   3.672   1.428
  687SOL     OW  339   1.841   2.037   0.963
  687SOL    HW1  340   1.880   1.952   0.927
  687SOL    HW2  341   1.743   2.039   0.944
  694SOL     OW  342   1.614   3.154   1.289
  694SOL    HW1  343   1.674   3.157   1.369
  694SOL    HW2  344   1.539   3.218   1.302
  698SOL     OW  345   1.709   2.247   1.381
  698SOL    HW1  346   1.782   2.316   1.385
  698SOL    HW2  347   1.737   2.172   1.322
  703SOL     OW  348   1.440   2.718   1.398
  703SOL    HW1  349   1.383   2.770   1.335
  703SOL    HW2  350   1.536   2.730   1.374
  708SOL     OW  351   0.716   2.427   1.708
  708SOL    HW1  352   0.735   2.492   1.782
  708SOL    HW2  353   0.776   2.347   1.717
  709SOL     OW  354   1.450   3.082   1.633
  709SOL    HW1  355   1.441   3.072   1.732
  709SOL    HW2  356   1.546   3.075   1.607
  711SOL     OW  357   1.674   2.745   1.254
  711SOL    HW1  358   1.647   2.656   1.217
  711SOL    HW2  359   1.675   2.813   1.181
  714SOL     OW  360   1.777   2.204   1.642
  714SOL    HW1  361   1.760   2.235   1.548
  714SOL    HW2  362   1.693   2.167   1.680
  715SOL     OW  363   1.730   2.796   1.517
  715SOL    HW1  364   1.768   2.887   1.532
  715SOL    HW2  365   1.722   2.779   1.418
  724SOL     OW  366   1.824   2.054   1.227
  724SOL    HW1  367   1.820   1.964   1.271
  724SOL    HW2  368   1.827   2.043   1.128
  726SOL     OW  369   1.705   3.349   1.104
  726SOL    HW1  370   1.612   3.324   1.077
  726SOL    HW2  371   1.731   3.299   1.186
  729SOL     OW  372   1.424   2.076   1.112
  729SOL    HW1  373   1.476   2.011   1.167
  729SOL    HW2  374   1.375   2.139   1.173
  735SOL     OW  375   1.593   2.083   0.882
  735SOL    HW1  376   1.509   2.082   0.936
  735SOL    HW2  377   1.595   2.166   0.826
  742SOL     OW  378   1.555   3.373   2.565
  742SOL    HW1  379   1.498   3.357   2.646
  742SOL    HW2  380   1.496   3.383   2.485
  743SOL     OW  381   1.135   2.565   2.579
  743SOL    HW1  382   1.192   2.643   2.554
  743SOL    HW2  383   1.075   2.591   2.655
  744SOL     OW  384   1.755   2.469   2.093
  744SOL    HW1  385   1.743   2.456   1.994
  744SOL    HW2  386   1.725   2.388   2.142
  745SOL     OW  387   0.768   3.006   2.885
  745SOL    HW1  388   0.690   3.023   2.945
  745SOL    HW2  389   0.802   3.093   2.849
  747SOL     OW  390   0.685   2.874   2.527
  747SOL    HW1  391   0.754   2.858   2.597
  747SOL    HW2  392   0.612   2.931   2.565
  750SOL     OW  393   1.460   3.367   3.201
  750SOL    HW1  394   1.484   3.461   3.227
  750SOL    HW2  395   1.444   3.313   3.283
  752SOL     OW  396   1.603   2.309   2.599
  752SOL    HW1  397   1.529   2.355   2.549
  752SOL    HW2  398   1.654   2.377   2.652
  759SOL     OW  399   1.594   1.976   3.342
  759SOL    HW1  400   1.576   2.043   3.270
  759SOL    HW2  401   1.591   2.022   3.431
  761SOL     OW  402   1.842   3.629   2.221
  761SOL    HW1  403   1.896   3.600   2.301
  761SOL    HW2  404   1.872   3.719   2.192
  763SOL     OW  405   1.689   2.784   2.474
  763SOL    HW1  406   1.784   2.755   2.482
  763SOL    HW2  407   1.681   2.849   2.399
  764SOL     OW  408   1.641   2.970   2.294
  764SOL    HW1  409   1.727   2.972   2.242
  764SOL    HW2  410   1.655   3.017   2.382
  767SOL     OW  411   1.293   3.090   3.285
  767SOL    HW1  412   1.330   3.017   3.227
  767SOL    HW2  413   1.345   3.095   3.370
  768SOL     OW  414   0.809   1.866   2.364
  768SOL    HW1  415   0.849   1.957   2.355
  768SOL    HW2  416   0.709   1.874   2.370
  770SOL     OW  417   1.525   2.861   2.052
  770SOL    HW1  418   1.462   2.785   2.065
  770SOL    HW2  419   1.573   2.879   2.138
  773SOL     OW  420   1.466   3.279   2.815
  773SOL    HW1  421   1.407   3.285   2.895
  773SOL    HW2  422   1.451   3.191   2.769
  774SOL     OW  423   1.667   3.576   2.434
  774SOL    HW1  424   1.626   3.553   2.346
  774SOL    HW2  425   1.649   3.502   2.499
  775SOL     OW  426   0.598   2.591   2.132
  775SOL    HW1  427   0.622   2.660   2.064
  775SOL    HW2  428   0.520   2.624   2.186
  776SOL     OW  429   1.281   2.207   2.806
  776SOL    HW1  430   1.195   2.157   2.793
  776SOL    HW2  431   1.343   2.153   2.862
  777SOL     OW  432   1.576   3.524   2.169
  777SOL    HW1  433   1.665   3.570   2.172
  777SOL    HW2  434   1.555   3.500   2.074
  779SOL     OW  435   1.394   2.331   3.536
  779SOL    HW1  436   1.374   2.374   3.624
  779SOL    HW2  437   1.472   2.269   3.545
  781SOL     OW  438   0.991   2.272   3.104
  781SOL    HW1  439   0.914   2.306   3.158
  781SOL    HW2  440   0.957   2.221   3.025
  782SOL     OW  441   1.041   2.563   2.291
  782SOL    HW1  442   1.067   2.559   2.387
  782SOL    HW2  443   0.956   2.512   2.277
  785SOL     OW  444   0.865   2.210   2.057
  785SOL    HW1  445   0.924   2.273   2.008
  785SOL    HW2  446   0.884   2.116   2.028
  786SOL     OW  447   1.719   2.447   3.693
  786SOL    HW1  448   1.693   2.536   3.657
  786SOL    HW2  449   1.717   2.379   3.620
  787SOL     OW  450   1.362   3.006   2.407
  787SOL    HW1  451   1.445   2.977   2.359
  787SOL    HW2  452   1.313   3.073   2.351
  789SOL     OW  453   1.008   3.318   2.339
  789SOL    HW1  454   0.962   3.390   2.287
  789SOL    HW2  455   1.004   3.338   2.437
  791SOL     OW  456   1.795   2.928   2.735
  791SOL    HW1  457   1.733   2.913   2.659
  791SOL    HW2  458   1.743   2.939   2.820
  794SOL     OW  459   1.458   2.597   2.590
  794SOL    HW1  460   1.453   2.532   2.665
  794SOL    HW2  461   1.538   2.656   2.603
  798SOL     OW  462   1.632   3.239   1.943
  798SOL    HW1  463   1.600   3.333   1.933
  798SOL    HW2  464   1.556   3.176   1.931
  800SOL     OW  465   1.400   1.969   2.288
  800SOL    HW1  466   1.376   1.932   2.198
  800SOL    HW2  467   1.499   1.985   2.292
  804SOL     OW  468   1.547   2.084   3.591
  804SOL    HW1  469   1.542   2.121   3.683
  804SOL    HW2  470   1.475   2.015   3.579
  805SOL     OW  471   0.614   1.984   1.979
  805SOL    HW1  472   0.712   1.962   1.986
  805SOL    HW2  473   0.583   1.967   1.886
  808SOL     OW  474   1.351   2.452   3.295
  808SOL    HW1  475   1.379   2.409   3.380
  808SOL    HW2  476   1.376   2.548   3.296
  810SOL     OW  477   0.922   2.365   2.761
  810SOL    HW1  478   0.897   2.356   2.665
  810SOL    HW2  479   0.970   2.283   2.792
  812SOL     OW  480   1.434   3.050   1.903
  812SOL    HW1  481   1.466   2.974   1.960
  812SOL    HW2  482   1.342   3.077   1.933
  814SOL     OW  483   0.935   2.098   2.342
  814SOL    HW1  484   0.887   2.139   2.264
  814SOL    HW2  485   1.034   2.096   2.323
  815SOL     OW  486   1.076   2.545   3.326
  815SOL    HW1  487   0.996   2.484   3.329
  815SOL    HW2  488   1.157   2.492   3.302
  816SOL     OW  489   1.227   3.432   2.655
  816SOL    HW1  490   1.248   3.506   2.590
  816SOL    HW2  491   1.295   3.432   2.728
  818SOL     OW  492   1.271   3.659   2.453
  818SOL    HW1  493   1.315   3.723   2.389
  818SOL    HW2  494   1.221   3.711   2.523
  819SOL     OW  495   1.032   2.411   1.878
  819SOL    HW1  496   0.991   2.493   1.839
  819SOL    HW2  497   1.096   2.437   1.951
  822SOL     OW  498   0.866   2.316   2.504
  822SOL    HW1  499   0.834   2.388   2.442
  822SOL    HW2  500   0.890   2.235   2.451
  823SOL     OW  501   1.017   1.901   2.615
  823SOL    HW1  502   0.945   1.906   2.546
  823SOL    HW2  503   0.993   1.832   2.684
  824SOL     OW  504   1.429   3.035   2.729
  824SOL    HW1  505   1.374   2.951   2.722
  824SOL    HW2  506   1.455   3.064   2.637
  825SOL     OW  507   1.466   2.452   2.854
  825SOL    HW1  508   1.436   2.357   2.861
  825SOL    HW2  509   1.539   2.468   2.920
  826SOL     OW  510   1.857   2.695   2.239
  826SOL    HW1  511   1.899   2.631   2.303
  826SOL    HW2  512   1.819   2.644   2.161
  828SOL     OW  513   1.664   3.142   2.519
  828SOL    HW1  514   1.763   3.150   2.533
  828SOL    HW2  515   1.619   3.226   2.550
  829SOL     OW  516   1.390   2.437   1.940
  829SOL    HW1  517   1.336   2.416   2.021
  829SOL    HW2  518   1.481   2.396   1.949
  831SOL     OW  519   1.754   3.085   3.450
  831SOL    HW1  520   1.845   3.046   3.437
  831SOL    HW2  521   1.762   3.181   3.474
  832SOL     OW  522   1.064   3.209   3.202
  832SOL    HW1  523   0.984   3.186   3.257
  832SOL    HW2  524   1.147   3.183   3.251
  834SOL     OW  525   1.111   3.057   2.962
  834SOL    HW1  526   1.071   3.101   3.043
  834SOL    HW2  527   1.070   3.094   2.879
  835SOL     OW  528   1.638   2.961   2.941
  835SOL    HW1  529   1.643   3.042   3.000
  835SOL    HW2  530   1.552   2.963   2.890
  836SOL     OW  531   0.915   1.951   3.264
  836SOL    HW1  532   0.940   1.931   3.169
  836SOL    HW2  533   0.987   2.007   3.306
  838SOL     OW  534   0.705   2.912   2.230
  838SOL    HW1  535   0.691   2.919   2.329
  838SOL    HW2  536   0.789   2.861   2.212
  840SOL     OW  537   1.274   2.248   3.124
  840SOL    HW1  538   1.295   2.322   3.188
  840SOL    HW2  539   1.185   2.265   3.081
  844SOL     OW  540   1.252   3.210   2.250
  844SOL    HW1  541   1.302   3.287   2.290
  844SOL    HW2  542   1.157   3.212   2.282
  845SOL     OW  543   1.272   3.307   3.004
  845SOL    HW1  544   1.319   3.320   3.091
  845SOL    HW2  545   1.206   3.233   3.013
  846SOL     OW  546   1.582   2.501   2.334
  846SOL    HW1  547   1.551   2.562   2.407
  846SOL    HW2  548   1.632   2.553   2.265
  849SOL     OW  549   1.587   2.641   3.532
  849SOL    HW1  550   1.495   2.679   3.527
  849SOL    HW2  551   1.647   2.688   3.467
  853SOL     OW  552   1.360   2.724   2.907
  853SOL    HW1  553   1.285   2.724   2.841
  853SOL    HW2  554   1.397   2.632   2.916
  854SOL     OW  555   1.209   2.387   2.137
  854SOL    HW1  556   1.222   2.303   2.191
  854SOL    HW2  557   1.180   2.461   2.197
  857SOL     OW  558   0.732   2.496   2.926
  857SOL    HW1  559   0.791   2.470   2.850
  857SOL    HW2  560   0.704   2.592   2.915
  858SOL     OW  561   1.728   2.797   3.716
  858SOL    HW1  562   1.682   2.790   3.627
  858SOL    HW2  563   1.666   2.841   3.782
  860SOL     OW  564   1.622   2.229   2.236
  860SOL    HW1  565   1.624   2.153   2.300
  860SOL    HW2  566   1.574   2.306   2.276
  861SOL     OW  567   1.023   2.628   2.828
  861SOL    HW1  568   1.038   2.649   2.924
  861SOL    HW2  569   0.993   2.533   2.819
  863SOL     OW  570   1.859   3.380   3.467
  863SOL    HW1  571   1.873   3.407   3.372
  863SOL    HW2  572   1.942   3.402   3.520
  865SOL     OW  573   1.540   2.136   1.987
  865SOL    HW1  574   1.479   2.061   2.010
  865SOL    HW2  575   1.562   2.188   2.070
  866SOL     OW  576   1.303   2.700   1.904
  866SOL    HW1  577   1.337   2.607   1.919
  866SOL    HW2  578   1.321   2.727   1.809
  867SOL     OW  579   1.068   3.195   2.711
  867SOL    HW1  580   1.075   3.111   2.656
  867SOL    HW2  581   1.130   3.264   2.675
  870SOL     OW  582   1.138   2.242   3.540
  870SOL    HW1  583   1.093   2.305   3.604
  870SOL    HW2  584   1.231   2.273   3.523
  871SOL     OW  585   1.160   2.069   3.339
  871SOL    HW1  586   1.160   2.133   3.416
  871SOL    HW2  587   1.188   2.117   3.256
  875SOL     OW  588   1.002   2.658   3.100
  875SOL    HW1  589   1.043   2.626   3.186
  875SOL    HW2  590   0.906   2.631   3.097
  878SOL     OW  591   1.369   2.812   3.522
  878SOL    HW1  592   1.408   2.901   3.542
  878SOL    HW2  593   1.379   2.792   3.425
  879SOL     OW  594   0.815   2.434   2.187
  879SOL    HW1  595   0.822   2.345   2.141
  879SOL    HW2  596   0.721   2.468   2.179
  880SOL     OW  597   1.657   2.466   3.068
  880SOL    HW1  598   1.619   2.397   3.130
  880SOL    HW2  599   1.739   2.430   3.024
  886SOL     OW  600   1.347   2.921   3.096
  886SOL    HW1  601   1.371   2.858   3.022
  886SOL    HW2  602   1.257   2.961   3.078
  887SOL     OW  603   1.302   2.717   2.171
  887SOL    HW1  604   1.216   2.686   2.213
  887SOL    HW2  605   1.298   2.703   2.072
  888SOL     OW  606   1.759   3.609   3.016
  888SOL    HW1  607   1.820   3.639   2.943
  888SOL    HW2  608   1.721   3.520   2.994
  889SOL     OW  609   1.252   3.593   2.990
  889SOL    HW1  610   1.336   3.598   2.936
  889SOL    HW2  611   1.229   3.497   3.008
  892SOL     OW  612   1.726   1.997   2.385
  892SOL    HW1  613   1.799   1.980   2.318
  892SOL    HW2  614   1.695   1.910   2.423
  893SOL     OW  615   1.388   3.435   2.339
  893SOL    HW1  616   1.455   3.447   2.265
  893SOL    HW2  617   1.348   3.524   2.362
  895SOL     OW  618   1.280   2.789   2.534
  895SOL    HW1  619   1.340   2.708   2.536
  895SOL    HW2  620   1.320   2.858   2.474
  898SOL     OW  621   1.650   3.582   3.256
  898SOL    HW1  622   1.703   3.592   3.172
  898SOL    HW2  623   1.623   3.672   3.290
  899SOL     OW  624   1.841   2.037   2.825
  899SOL    HW1  625   1.880   1.952   2.789
  899SOL    HW2  626   1.743   2.039   2.806
  901SOL     OW  627   1.194   3.474   1.893
  901SOL    HW1  628   1.200   3.381   1.930
  901SOL    HW2  629   1.135   3.474   1.813
  903SOL     OW  630   0.916   2.772   2.153
  903SOL    HW1  631   0.979   2.810   2.085
  903SOL    HW2  632   0.956   2.689   2.192
  904SOL     OW  633   1.504   3.469   1.906
  904SOL    HW1  634   1.412   3.506   1.913
  904SOL    HW2  635   1.542   3.489   1.816
  906SOL     OW  636   1.614   3.154   3.151
  906SOL    HW1  637   1.674   3.157   3.231
  906SOL    HW2  638   1.539   3.218   3.164
  907SOL     OW  639   1.039   2.960   2.558
  907SOL    HW1  640   0.969   2.913   2.612
  907SOL    HW2  641   1.098   2.892   2.515
  908SOL     OW  642   1.014   2.098   2.833
  908SOL    HW1  643   1.006   2.062   2.740
  908SOL    HW2  644   1.012   2.022   2.898
  910SOL     OW  645   1.709   2.247   3.243
  910SOL    HW1  646   1.782   2.316   3.247
  910SOL    HW2  647   1.737   2.172   3.184
  915SOL     OW  648   1.440   2.718   3.260
  915SOL    HW1  649   1.383   2.770   3.197
  915SOL    HW2  650   1.536   2.730   3.236
  917SOL     OW  651   1.183   3.197   1.981
  917SOL    HW1  652   1.084   3.186   1.983
  917SOL    HW2  653   1.217   3.212   2.074
  919SOL     OW  654   1.493   3.629   2.821
  919SOL    HW1  655   1.526   3.693   2.752
  919SOL    HW2  656   1.559   3.623   2.896
  921SOL     OW  657   1.450   3.082   3.495
  921SOL    HW1  658   1.441   3.072   3.594
  921SOL    HW2  659   1.546   3.075   3.469
  923SOL     OW  660   1.674   2.745   3.116
  923SOL    HW1  661   1.647   2.656   3.079
  923SOL    HW2  662   1.675   2.813   3.043
  924SOL     OW  663   1.225   2.187   2.311
  924SOL    HW1  664   1.290   2.113   2.300
  924SOL    HW2  665   1.245   2.237   2.395
  925SOL     OW  666   0.594   2.607   2.514
  925SOL    HW1  667   0.644   2.692   2.495
  925SOL    HW2  668   0.506   2.609   2.466
  926SOL     OW  669   1.777   2.204   3.504
  926SOL    HW1  670   1.760   2.235   3.410
  926SOL    HW2  671   1.693   2.167   3.542
  927SOL     OW  672   1.730   2.796   3.379
  927SOL    HW1  673   1.768   2.887   3.394
  927SOL    HW2  674   1.722   2.779   3.280
  928SOL     OW  675   0.859   3.236   1.878
  928SOL    HW1  676   0.813   3.251   1.966
  928SOL    HW2  677   0.903   3.321   1.848
  930SOL     OW  678   0.859   2.818   2.723
  930SOL    HW1  679   0.913   2.749   2.771
  930SOL    HW2  680   0.827   2.887   2.789
  931SOL     OW  681   1.083   2.846   1.949
  931SOL    HW1  682   1.060   2.899   1.867
  931SOL    HW2  683   1.164   2.790   1.930
  932SOL     OW  684   1.861   3.431   2.713
  932SOL    HW1  685   1.790   3.419   2.643
  932SOL    HW2  686   1.862   3.352   2.773
  936SOL     OW  687   1.824   2.054   3.089
  936SOL    HW1  688   1.820   1.964   3.133
  936SOL    HW2  689   1.827   2.043   2.990
  938SOL     OW  690   1.705   3.349   2.966
  938SOL    HW1  691   1.612   3.324   2.939
  938SOL    HW2  692   1.731   3.299   3.048
  941SOL     OW  693   1.424   2.076   2.974
  941SOL    HW1  694   1.476   2.011   3.029
  941SOL    HW2  695   1.375   2.139   3.035
  942SOL     OW  696   1.001   1.896   3.016
  942SOL    HW1  697   0.938   1.824   2.985
  942SOL    HW2  698   1.094   1.860   3.016
  943SOL     OW  699   0.770   3.192   2.163
  943SOL    HW1  700   0.724   3.105   2.180
  943SOL    HW2  701   0.861   3.189   2.204
  945SOL     OW  702   1.352   1.914   2.030
  945SOL    HW1  703   1.387   1.873   1.946
  945SOL    HW2  704   1.262   1.876   2.050
  946SOL     OW  705   1.300   2.315   2.553
  946SOL    HW1  706   1.241   2.395   2.557
  946SOL    HW2  707   1.315   2.280   2.646
  947SOL     OW  708   1.593   2.083   2.744
  947SOL    HW1  709   1.509   2.082   2.798
  947SOL    HW2  710   1.595   2.166   2.688
  954SOL     OW  711   1.755   2.469   3.955
  954SOL    HW1  712   1.743   2.456   3.856
  954SOL    HW2  713   1.725   2.388   4.004
 1002SOL     OW  714   1.390   2.437   3.802
 1002SOL    HW1  715   1.336   2.416   3.883
 1002SOL    HW2  716   1.481   2.396   3.811
 1012SOL     OW  717   1.540   2.136   3.849
 1012SOL    HW1  718   1.479   2.061   3.872
 1012SOL    HW2  719   1.562   2.188   3.932
 1179SOL     OW  720   1.400   3.831   2.288
 1179SOL    HW1  721   1.376   3.794   2.198
 1179SOL    HW2  722   1.499   3.847   2.292
 1230SOL     OW  723   1.726   3.859   2.385
 1230SOL    HW1  724   1.799   3.842   2.318
 1230SOL    HW2  725   1.695   3.772   2.423
 1232SOL     OW  726   1.841   3.899   2.825
 1232SOL    HW1  727   1.880   3.814   2.789
 1232SOL    HW2  728   1.743   3.901   2.806
 1254SOL     OW  729   1.352   3.776   2.030
 1254SOL    HW1  730   1.387   3.735   1.946
 1254SOL    HW2  731   1.262   3.738   2.050
 1311SOL     OW  732   2.431   1.275   1.165
 1311SOL    HW1  733   2.338   1.268   1.128
 1311SOL    HW2  734   2.442   1.364   1.209
 1315SOL     OW  735   2.630   1.144   1.023
 1315SOL    HW1  736   2.552   1.161   1.083
 1315SOL    HW2  737   2.664   1.231   0.987
 1316SOL     OW  738   2.712   0.798   1.823
 1316SOL    HW1  739   2.708   0.874   1.888
 1316SOL    HW2  740   2.734   0.834   1.732
 1318SOL     OW  741   2.548   1.161   1.803
 1318SOL    HW1  742   2.608   1.240   1.817
 1318SOL    HW2  743   2.462   1.192   1.762
 1319SOL     OW  744   2.197   1.435   1.061
 1319SOL    HW1  745   2.119   1.404   1.008
 1319SOL    HW2  746   2.255   1.493   1.004
 1320SOL     OW  747   3.322   1.505   1.339
 1320SOL    HW1  748   3.346   1.599   1.365
 1320SOL    HW2  749   3.306   1.451   1.421
 1324SOL     OW  750   2.989   1.341   1.690
 1324SOL    HW1  751   3.036   1.341   1.778
 1324SOL    HW2  752   2.941   1.254   1.679
 1327SOL     OW  753   2.482   1.786   1.439
 1327SOL    HW1  754   2.390   1.769   1.474
 1327SOL    HW2  755   2.510   1.878   1.465
 1335SOL     OW  756   1.975   0.737   1.597
 1335SOL    HW1  757   2.063   0.724   1.642
 1335SOL    HW2  758   1.962   0.834   1.575
 1337SOL     OW  759   3.155   1.228   1.423
 1337SOL    HW1  760   3.192   1.155   1.365
 1337SOL    HW2  761   3.207   1.233   1.508
 1339SOL     OW  762   2.059   0.976   1.264
 1339SOL    HW1  763   2.148   0.931   1.250
 1339SOL    HW2  764   1.986   0.911   1.245
 1341SOL     OW  765   3.049   1.792   1.616
 1341SOL    HW1  766   3.073   1.852   1.540
 1341SOL    HW2  767   3.056   1.697   1.586
 1350SOL     OW  768   2.835   0.890   1.572
 1350SOL    HW1  769   2.881   0.806   1.543
 1350SOL    HW2  770   2.779   0.924   1.497
 1354SOL     OW  771   1.992   1.821   1.571
 1354SOL    HW1  772   1.982   1.806   1.670
 1354SOL    HW2  773   1.906   1.857   1.535
 1360SOL     OW  774   2.213   1.801   0.853
 1360SOL    HW1  775   2.263   1.715   0.859
 1360SOL    HW2  776   2.278   1.878   0.850
 1362SOL     OW  777   3.089   1.550   1.506
 1362SOL    HW1  778   3.095   1.473   1.570
 1362SOL    HW2  779   3.037   1.524   1.426
 1365SOL     OW  780   2.323   1.266   1.727
 1365SOL    HW1  781   2.273   1.267   1.641
 1365SOL    HW2  782   2.260   1.248   1.803
 1371SOL     OW  783   2.111   1.785   1.241
 1371SOL    HW1  784   2.168   1.720   1.291
 1371SOL    HW2  785   2.095   1.752   1.148
 1372SOL     OW  786   2.802   1.698   0.904
 1372SOL    HW1  787   2.882   1.641   0.925
 1372SOL    HW2  788   2.753   1.658   0.827
 1377SOL     OW  789   2.750   1.514   1.195
 1377SOL    HW1  790   2.727   1.489   1.101
 1377SOL    HW2  791   2.811   1.445   1.234
 1379SOL     OW  792   2.665   1.402   0.924
 1379SOL    HW1  793   2.755   1.416   0.882
 1379SOL    HW2  794   2.594   1.404   0.853
 1402SOL     OW  795   2.926   1.347   1.340
 1402SOL    HW1  796   2.846   1.324   1.395
 1402SOL    HW2  797   3.009   1.321   1.389
 1403SOL     OW  798   3.454   1.629   1.625
 1403SOL    HW1  799   3.481   1.663   1.535
 1403SOL    HW2  800   3.533   1.591   1.671
 1404SOL     OW  801   2.973   1.195   1.100
 1404SOL    HW1  802   2.933   1.239   1.181
 1404SOL    HW2  803   2.932   1.232   1.017
 1407SOL     OW  804   2.842   1.116   1.719
 1407SOL    HW1  805   2.743   1.122   1.729
 1407SOL    HW2  806   2.865   1.036   1.663
 1411SOL     OW  807   1.926   1.564   1.331
 1411SOL    HW1  808   1.880   1.646   1.297
 1411SOL    HW2  809   2.024   1.583   1.340
 1415SOL     OW  810   3.134   1.445   1.142
 1415SOL    HW1  811   3.181   1.458   1.229
 1415SOL    HW2  812   3.068   1.371   1.151
 1417SOL     OW  813   2.216   1.510   1.329
 1417SOL    HW1  814   2.195   1.466   1.242
 1417SOL    HW2  815   2.313   1.536   1.332
 1418SOL     OW  816   2.264   0.751   1.598
 1418SOL    HW1  817   2.332   0.806   1.551
 1418SOL    HW2  818   2.304   0.663   1.625
 1426SOL     OW  819   1.899   1.310   1.282
 1426SOL    HW1  820   1.952   1.261   1.350
 1426SOL    HW2  821   1.921   1.408   1.287
 1432SOL     OW  822   2.842   1.573   1.700
 1432SOL    HW1  823   2.822   1.617   1.612
 1432SOL    HW2  824   2.881   1.482   1.684
 1433SOL     OW  825   3.721   1.518   1.605
 1433SOL    HW1  826   3.735   1.545   1.510
 1433SOL    HW2  827   3.804   1.540   1.658
 1434SOL     OW  828   2.212   0.898   1.804
 1434SOL    HW1  829   2.288   0.942   1.852
 1434SOL    HW2  830   2.247   0.851   1.722
 1443SOL     OW  831   1.950   1.801   0.927
 1443SOL    HW1  832   1.908   1.715   0.900
 1443SOL    HW2  833   2.044   1.804   0.893
 1444SOL     OW  834   2.366   1.568   0.910
 1444SOL    HW1  835   2.432   1.642   0.919
 1444SOL    HW2  836   2.410   1.489   0.868
 1448SOL     OW  837   3.231   0.950   1.660
 1448SOL    HW1  838   3.270   1.039   1.680
 1448SOL    HW2  839   3.241   0.930   1.563
 1451SOL     OW  840   2.114   1.564   1.744
 1451SOL    HW1  841   2.084   1.621   1.820
 1451SOL    HW2  842   2.107   1.467   1.770
 1453SOL     OW  843   2.792   1.678   1.465
 1453SOL    HW1  844   2.768   1.660   1.370
 1453SOL    HW2  845   2.822   1.772   1.475
 1455SOL     OW  846   2.021   1.137   1.466
 1455SOL    HW1  847   2.043   1.076   1.542
 1455SOL    HW2  848   2.031   1.088   1.380
 1459SOL     OW  849   3.114   1.731   1.128
 1459SOL    HW1  850   3.198   1.736   1.074
 1459SOL    HW2  851   3.091   1.635   1.146
 1460SOL     OW  852   1.945   1.258   1.022
 1460SOL    HW1  853   1.940   1.257   1.122
 1460SOL    HW2  854   1.862   1.217   0.984
 1461SOL     OW  855   2.550   1.662   1.716
 1461SOL    HW1  856   2.494   1.743   1.725
 1461SOL    HW2  857   2.602   1.666   1.630
 1465SOL     OW  858   1.992   1.794   1.851
 1465SOL    HW1  859   1.951   1.720   1.904
 1465SOL    HW2  860   2.056   1.845   1.909
 1467SOL     OW  861   2.692   1.273   1.422
 1467SOL    HW1  862   2.687   1.306   1.517
 1467SOL    HW2  863   2.606   1.292   1.376
 1469SOL     OW  864   3.512   1.720   1.394
 1469SOL    HW1  865   3.565   1.730   1.310
 1469SOL    HW2  866   3.485   1.810   1.428
 1473SOL     OW  867   2.684   1.002   1.372
 1473SOL    HW1  868   2.724   1.001   1.280
 1473SOL    HW2  869   2.694   1.094   1.412
 1476SOL     OW  870   2.234   1.288   1.490
 1476SOL    HW1  871   2.221   1.381   1.456
 1476SOL    HW2  872   2.150   1.236   1.477
 1483SOL     OW  873   1.967   1.013   1.726
 1483SOL    HW1  874   1.890   0.980   1.780
 1483SOL    HW2  875   2.052   0.983   1.768
 1488SOL     OW  876   2.475   0.842   1.431
 1488SOL    HW1  877   2.531   0.923   1.414
 1488SOL    HW2  878   2.534   0.762   1.434
 1489SOL     OW  879   3.355   1.767   0.959
 1489SOL    HW1  880   3.388   1.831   0.890
 1489SOL    HW2  881   3.421   1.761   1.034
 1491SOL     OW  882   3.312   1.220   1.633
 1491SOL    HW1  883   3.303   1.210   1.732
 1491SOL    HW2  884   3.408   1.213   1.607
 1492SOL     OW  885   2.252   1.741   1.560
 1492SOL    HW1  886   2.161   1.782   1.558
 1492SOL    HW2  887   2.245   1.647   1.592
 1499SOL     OW  888   2.523   1.790   0.953
 1499SOL    HW1  889   2.477   1.878   0.940
 1499SOL    HW2  890   2.622   1.802   0.946
 1503SOL     OW  891   2.083   1.314   1.844
 1503SOL    HW1  892   2.018   1.241   1.823
 1503SOL    HW2  893   2.087   1.328   1.942
 1505SOL     OW  894   2.534   1.391   1.624
 1505SOL    HW1  895   2.456   1.341   1.662
 1505SOL    HW2  896   2.531   1.486   1.655
 1514SOL     OW  897   2.480   1.567   1.284
 1514SOL    HW1  898   2.475   1.649   1.341
 1514SOL    HW2  899   2.569   1.564   1.239
 1520SOL     OW  900   2.092   0.628   1.975
 1520SOL    HW1  901   1.999   0.626   2.012
 1520SOL    HW2  902   2.093   0.589   1.883
 1523SOL     OW  903   2.431   1.275   3.027
 1523SOL    HW1  904   2.338   1.268   2.990
 1523SOL    HW2  905   2.442   1.364   3.071
 1524SOL     OW  906   3.417   1.511   2.565
 1524SOL    HW1  907   3.360   1.495   2.646
 1524SOL    HW2  908   3.358   1.521   2.485
 1525SOL     OW  909   2.997   0.703   2.579
 1525SOL    HW1  910   3.054   0.781   2.554
 1525SOL    HW2  911   2.937   0.729   2.655
 1527SOL     OW  912   2.630   1.144   2.885
 1527SOL    HW1  913   2.552   1.161   2.945
 1527SOL    HW2  914   2.664   1.231   2.849
 1529SOL     OW  915   2.547   1.012   2.527
 1529SOL    HW1  916   2.616   0.996   2.597
 1529SOL    HW2  917   2.474   1.069   2.565
 1530SOL     OW  918   2.548   1.161   3.665
 1530SOL    HW1  919   2.608   1.240   3.679
 1530SOL    HW2  920   2.462   1.192   3.624
 1531SOL     OW  921   2.197   1.435   2.923
 1531SOL    HW1  922   2.119   1.404   2.870
 1531SOL    HW2  923   2.255   1.493   2.866
 1532SOL     OW  924   3.322   1.505   3.201
 1532SOL    HW1  925   3.346   1.599   3.227
 1532SOL    HW2  926   3.306   1.451   3.283
 1535SOL     OW  927   2.093   1.713   2.345
 1535SOL    HW1  928   2.127   1.790   2.399
 1535SOL    HW2  929   2.137   1.713   2.255
 1536SOL     OW  930   2.989   1.341   3.552
 1536SOL    HW1  931   3.036   1.341   3.640
 1536SOL    HW2  932   2.941   1.254   3.541
 1537SOL     OW  933   2.092   1.434   2.400
 1537SOL    HW1  934   2.066   1.530   2.400
 1537SOL    HW2  935   2.021   1.380   2.445
 1538SOL     OW  936   2.102   1.091   2.748
 1538SOL    HW1  937   2.116   1.007   2.800
 1538SOL    HW2  938   2.047   1.155   2.803
 1539SOL     OW  939   2.482   1.786   3.301
 1539SOL    HW1  940   2.390   1.769   3.336
 1539SOL    HW2  941   2.510   1.878   3.327
 1540SOL     OW  942   2.468   0.964   1.985
 1540SOL    HW1  943   2.475   1.048   1.931
 1540SOL    HW2  944   2.514   0.977   2.073
 1542SOL     OW  945   1.984   0.643   2.425
 1542SOL    HW1  946   1.939   0.555   2.442
 1542SOL    HW2  947   1.983   0.697   2.509
 1543SOL     OW  948   3.704   1.767   2.221
 1543SOL    HW1  949   3.758   1.738   2.301
 1543SOL    HW2  950   3.734   1.857   2.192
 1544SOL     OW  951   1.889   1.596   1.979
 1544SOL    HW1  952   1.870   1.500   2.000
 1544SOL    HW2  953   1.856   1.654   2.054
 1546SOL     OW  954   3.503   1.108   2.294
 1546SOL    HW1  955   3.589   1.110   2.242
 1546SOL    HW2  956   3.517   1.155   2.382
 1548SOL     OW  957   2.475   1.365   2.588
 1548SOL    HW1  958   2.426   1.278   2.597
 1548SOL    HW2  959   2.452   1.408   2.501
 1549SOL     OW  960   3.155   1.228   3.285
 1549SOL    HW1  961   3.192   1.155   3.227
 1549SOL    HW2  962   3.207   1.233   3.370
 1551SOL     OW  963   2.059   0.976   3.126
 1551SOL    HW1  964   2.148   0.931   3.112
 1551SOL    HW2  965   1.986   0.911   3.107
 1552SOL     OW  966   3.387   0.999   2.052
 1552SOL    HW1  967   3.324   0.923   2.065
 1552SOL    HW2  968   3.435   1.017   2.138
 1553SOL     OW  969   3.049   1.792   3.478
 1553SOL    HW1  970   3.073   1.852   3.402
 1553SOL    HW2  971   3.056   1.697   3.448
 1555SOL     OW  972   3.328   1.417   2.815
 1555SOL    HW1  973   3.269   1.423   2.895
 1555SOL    HW2  974   3.313   1.329   2.769
 1556SOL     OW  975   3.529   1.714   2.434
 1556SOL    HW1  976   3.488   1.691   2.346
 1556SOL    HW2  977   3.511   1.640   2.499
 1557SOL     OW  978   2.460   0.729   2.132
 1557SOL    HW1  979   2.484   0.798   2.064
 1557SOL    HW2  980   2.382   0.762   2.186
 1559SOL     OW  981   3.438   1.662   2.169
 1559SOL    HW1  982   3.527   1.708   2.172
 1559SOL    HW2  983   3.417   1.638   2.074
 1564SOL     OW  984   2.903   0.701   2.291
 1564SOL    HW1  985   2.929   0.697   2.387
 1564SOL    HW2  986   2.818   0.650   2.277
 1565SOL     OW  987   1.938   0.811   2.651
 1565SOL    HW1  988   2.037   0.799   2.660
 1565SOL    HW2  989   1.914   0.906   2.672
 1566SOL     OW  990   1.992   1.821   3.433
 1566SOL    HW1  991   1.982   1.806   3.532
 1566SOL    HW2  992   1.906   1.857   3.397
 1569SOL     OW  993   3.224   1.144   2.407
 1569SOL    HW1  994   3.307   1.115   2.359
 1569SOL    HW2  995   3.175   1.211   2.351
 1571SOL     OW  996   2.870   1.456   2.339
 1571SOL    HW1  997   2.824   1.528   2.287
 1571SOL    HW2  998   2.866   1.476   2.437
 1572SOL     OW  999   2.213   1.801   2.715
 1572SOL    HW1 1000   2.263   1.715   2.721
 1572SOL    HW2 1001   2.278   1.878   2.712
 1574SOL     OW 1002   3.089   1.550   3.368
 1574SOL    HW1 1003   3.095   1.473   3.432
 1574SOL    HW2 1004   3.037   1.524   3.288
 1575SOL     OW 1005   2.183   0.943   2.104
 1575SOL    HW1 1006   2.265   0.982   2.062
 1575SOL    HW2 1007   2.156   0.861   2.055
 1577SOL     OW 1008   2.323   1.266   3.589
 1577SOL    HW1 1009   2.273   1.267   3.503
 1577SOL    HW2 1010   2.260   1.248   3.665
 1578SOL     OW 1011   2.973   1.776   2.099
 1578SOL    HW1 1012   2.913   1.714   2.149
 1578SOL    HW2 1013   3.004   1.732   2.014
 1580SOL     OW 1014   3.494   1.377   1.943
 1580SOL    HW1 1015   3.462   1.471   1.933
 1580SOL    HW2 1016   3.418   1.314   1.931
 1581SOL     OW 1017   2.326   1.743   2.185
 1581SOL    HW1 1018   2.359   1.782   2.271
 1581SOL    HW2 1019   2.402   1.736   2.120
 1583SOL     OW 1020   2.111   1.785   3.103
 1583SOL    HW1 1021   2.168   1.720   3.153
 1583SOL    HW2 1022   2.095   1.752   3.010
 1584SOL     OW 1023   2.802   1.698   2.766
 1584SOL    HW1 1024   2.882   1.641   2.787
 1584SOL    HW2 1025   2.753   1.658   2.689
 1585SOL     OW 1026   2.244   0.700   2.342
 1585SOL    HW1 1027   2.289   0.610   2.339
 1585SOL    HW2 1028   2.150   0.689   2.375
 1589SOL     OW 1029   2.750   1.514   3.057
 1589SOL    HW1 1030   2.727   1.489   2.963
 1589SOL    HW2 1031   2.811   1.445   3.096
 1591SOL     OW 1032   2.665   1.402   2.786
 1591SOL    HW1 1033   2.755   1.416   2.744
 1591SOL    HW2 1034   2.594   1.404   2.715
 1594SOL     OW 1035   3.296   1.188   1.903
 1594SOL    HW1 1036   3.328   1.112   1.960
 1594SOL    HW2 1037   3.204   1.215   1.933
 1598SOL     OW 1038   3.089   1.570   2.655
 1598SOL    HW1 1039   3.110   1.644   2.590
 1598SOL    HW2 1040   3.157   1.570   2.728
 1599SOL     OW 1041   2.321   1.152   2.603
 1599SOL    HW1 1042   2.250   1.125   2.668
 1599SOL    HW2 1043   2.295   1.124   2.510
 1600SOL     OW 1044   3.133   1.797   2.453
 1600SOL    HW1 1045   3.177   1.861   2.389
 1600SOL    HW2 1046   3.083   1.849   2.523
 1606SOL     OW 1047   3.291   1.173   2.729
 1606SOL    HW1 1048   3.236   1.089   2.722
 1606SOL    HW2 1049   3.317   1.202   2.637
 1609SOL     OW 1050   2.350   1.385   2.036
 1609SOL    HW1 1051   2.263   1.370   2.083
 1609SOL    HW2 1052   2.333   1.411   1.941
 1610SOL     OW 1053   3.526   1.280   2.519
 1610SOL    HW1 1054   3.625   1.288   2.533
 1610SOL    HW2 1055   3.481   1.364   2.550
 1614SOL     OW 1056   2.926   1.347   3.202
 1614SOL    HW1 1057   2.846   1.324   3.257
 1614SOL    HW2 1058   3.009   1.321   3.251
 1615SOL     OW 1059   3.454   1.629   3.487
 1615SOL    HW1 1060   3.481   1.663   3.397
 1615SOL    HW2 1061   3.533   1.591   3.533
 1616SOL     OW 1062   2.973   1.195   2.962
 1616SOL    HW1 1063   2.933   1.239   3.043
 1616SOL    HW2 1064   2.932   1.232   2.879
 1620SOL     OW 1065   2.567   1.050   2.230
 1620SOL    HW1 1066   2.553   1.057   2.329
 1620SOL    HW2 1067   2.651   0.999   2.212
 1621SOL     OW 1068   2.272   0.813   3.113
 1621SOL    HW1 1069   2.358   0.825   3.163
 1621SOL    HW2 1070   2.230   0.726   3.140
 1623SOL     OW 1071   1.926   1.564   3.193
 1623SOL    HW1 1072   1.880   1.646   3.159
 1623SOL    HW2 1073   2.024   1.583   3.202
 1624SOL     OW 1074   2.229   1.100   2.363
 1624SOL    HW1 1075   2.222   1.183   2.307
 1624SOL    HW2 1076   2.233   1.020   2.303
 1626SOL     OW 1077   3.114   1.348   2.250
 1626SOL    HW1 1078   3.164   1.425   2.290
 1626SOL    HW2 1079   3.019   1.350   2.282
 1627SOL     OW 1080   3.134   1.445   3.004
 1627SOL    HW1 1081   3.181   1.458   3.091
 1627SOL    HW2 1082   3.068   1.371   3.013
 1629SOL     OW 1083   2.216   1.510   3.191
 1629SOL    HW1 1084   2.195   1.466   3.104
 1629SOL    HW2 1085   2.313   1.536   3.194
 1634SOL     OW 1086   2.435   0.870   2.891
 1634SOL    HW1 1087   2.479   0.959   2.882
 1634SOL    HW2 1088   2.372   0.870   2.968
 1638SOL     OW 1089   1.899   1.310   3.144
 1638SOL    HW1 1090   1.952   1.261   3.212
 1638SOL    HW2 1091   1.921   1.408   3.149
 1643SOL     OW 1092   2.885   0.766   2.828
 1643SOL    HW1 1093   2.900   0.787   2.924
 1643SOL    HW2 1094   2.855   0.671   2.819
 1644SOL     OW 1095   2.842   1.573   3.562
 1644SOL    HW1 1096   2.822   1.617   3.474
 1644SOL    HW2 1097   2.881   1.482   3.546
 1648SOL     OW 1098   3.165   0.838   1.904
 1648SOL    HW1 1099   3.199   0.745   1.919
 1648SOL    HW2 1100   3.183   0.865   1.809
 1649SOL     OW 1101   2.930   1.333   2.711
 1649SOL    HW1 1102   2.937   1.249   2.656
 1649SOL    HW2 1103   2.992   1.402   2.675
 1650SOL     OW 1104   2.181   0.810   2.811
 1650SOL    HW1 1105   2.274   0.846   2.816
 1650SOL    HW2 1106   2.175   0.725   2.863
 1654SOL     OW 1107   1.870   1.326   2.062
 1654SOL    HW1 1108   1.777   1.347   2.031
 1654SOL    HW2 1109   1.880   1.227   2.075
 1655SOL     OW 1110   1.950   1.801   2.789
 1655SOL    HW1 1111   1.908   1.715   2.762
 1655SOL    HW2 1112   2.044   1.804   2.755
 1656SOL     OW 1113   2.366   1.568   2.772
 1656SOL    HW1 1114   2.432   1.642   2.781
 1656SOL    HW2 1115   2.410   1.489   2.730
 1657SOL     OW 1116   2.864   0.796   3.100
 1657SOL    HW1 1117   2.905   0.764   3.186
 1657SOL    HW2 1118   2.768   0.769   3.097
 1661SOL     OW 1119   2.677   0.572   2.187
 1661SOL    HW1 1120   2.684   0.483   2.141
 1661SOL    HW2 1121   2.583   0.606   2.179
 1663SOL     OW 1122   2.114   1.564   3.606
 1663SOL    HW1 1123   2.084   1.621   3.682
 1663SOL    HW2 1124   2.107   1.467   3.632
 1665SOL     OW 1125   2.792   1.678   3.327
 1665SOL    HW1 1126   2.768   1.660   3.232
 1665SOL    HW2 1127   2.822   1.772   3.337
 1667SOL     OW 1128   2.021   1.137   3.328
 1667SOL    HW1 1129   2.043   1.076   3.404
 1667SOL    HW2 1130   2.031   1.088   3.242
 1668SOL     OW 1131   3.209   1.059   3.096
 1668SOL    HW1 1132   3.233   0.996   3.022
 1668SOL    HW2 1133   3.119   1.099   3.078
 1669SOL     OW 1134   3.164   0.855   2.171
 1669SOL    HW1 1135   3.078   0.824   2.213
 1669SOL    HW2 1136   3.160   0.841   2.072
 1670SOL     OW 1137   3.621   1.747   3.016
 1670SOL    HW1 1138   3.682   1.777   2.943
 1670SOL    HW2 1139   3.583   1.658   2.994
 1671SOL     OW 1140   3.114   1.731   2.990
 1671SOL    HW1 1141   3.198   1.736   2.936
 1671SOL    HW2 1142   3.091   1.635   3.008
 1672SOL     OW 1143   1.945   1.258   2.884
 1672SOL    HW1 1144   1.940   1.257   2.984
 1672SOL    HW2 1145   1.862   1.217   2.846
 1673SOL     OW 1146   2.550   1.662   3.578
 1673SOL    HW1 1147   2.494   1.743   3.587
 1673SOL    HW2 1148   2.602   1.666   3.492
 1675SOL     OW 1149   3.250   1.573   2.339
 1675SOL    HW1 1150   3.317   1.585   2.265
 1675SOL    HW2 1151   3.210   1.662   2.362
 1676SOL     OW 1152   1.992   1.794   3.713
 1676SOL    HW1 1153   1.951   1.720   3.766
 1676SOL    HW2 1154   2.056   1.845   3.771
 1677SOL     OW 1155   3.142   0.927   2.534
 1677SOL    HW1 1156   3.202   0.846   2.536
 1677SOL    HW2 1157   3.182   0.996   2.474
 1678SOL     OW 1158   2.692   1.273   3.284
 1678SOL    HW1 1159   2.687   1.306   3.379
 1678SOL    HW2 1160   2.606   1.292   3.238
 1679SOL     OW 1161   2.534   1.616   2.016
 1679SOL    HW1 1162   2.543   1.626   1.917
 1679SOL    HW2 1163   2.494   1.527   2.037
 1680SOL     OW 1164   3.512   1.720   3.256
 1680SOL    HW1 1165   3.565   1.730   3.172
 1680SOL    HW2 1166   3.485   1.810   3.290
 1683SOL     OW 1167   3.056   1.612   1.893
 1683SOL    HW1 1168   3.062   1.519   1.930
 1683SOL    HW2 1169   2.997   1.612   1.813
 1684SOL     OW 1170   2.684   1.002   3.234
 1684SOL    HW1 1171   2.724   1.001   3.142
 1684SOL    HW2 1172   2.694   1.094   3.274
 1685SOL     OW 1173   2.778   0.910   2.153
 1685SOL    HW1 1174   2.841   0.948   2.085
 1685SOL    HW2 1175   2.818   0.827   2.192
 1686SOL     OW 1176   3.366   1.607   1.906
 1686SOL    HW1 1177   3.274   1.644   1.913
 1686SOL    HW2 1178   3.404   1.627   1.816
 1687SOL     OW 1179   2.234   1.288   3.352
 1687SOL    HW1 1180   2.221   1.381   3.318
 1687SOL    HW2 1181   2.150   1.236   3.339
 1688SOL     OW 1182   3.476   1.292   3.151
 1688SOL    HW1 1183   3.536   1.295   3.231
 1688SOL    HW2 1184   3.401   1.356   3.164
 1689SOL     OW 1185   2.901   1.098   2.558
 1689SOL    HW1 1186   2.831   1.051   2.612
 1689SOL    HW2 1187   2.960   1.030   2.515
 1691SOL     OW 1188   2.452   1.487   2.353
 1691SOL    HW1 1189   2.494   1.429   2.283
 1691SOL    HW2 1190   2.408   1.566   2.309
 1693SOL     OW 1191   2.117   1.348   2.152
 1693SOL    HW1 1192   2.021   1.349   2.125
 1693SOL    HW2 1193   2.129   1.401   2.236
 1699SOL     OW 1194   3.045   1.335   1.981
 1699SOL    HW1 1195   2.946   1.324   1.983
 1699SOL    HW2 1196   3.079   1.350   2.074
 1700SOL     OW 1197   2.475   0.842   3.293
 1700SOL    HW1 1198   2.531   0.923   3.276
 1700SOL    HW2 1199   2.534   0.762   3.296
 1701SOL     OW 1200   3.355   1.767   2.821
 1701SOL    HW1 1201   3.388   1.831   2.752
 1701SOL    HW2 1202   3.421   1.761   2.896
 1704SOL     OW 1203   2.252   1.741   3.422
 1704SOL    HW1 1204   2.161   1.782   3.420
 1704SOL    HW2 1205   2.245   1.647   3.454
 1707SOL     OW 1206   2.456   0.745   2.514
 1707SOL    HW1 1207   2.506   0.830   2.495
 1707SOL    HW2 1208   2.368   0.747   2.466
 1710SOL     OW 1209   2.721   1.374   1.878
 1710SOL    HW1 1210   2.675   1.389   1.966
 1710SOL    HW2 1211   2.765   1.459   1.848
 1711SOL     OW 1212   2.523   1.790   2.815
 1711SOL    HW1 1213   2.477   1.878   2.802
 1711SOL    HW2 1214   2.622   1.802   2.808
 1712SOL     OW 1215   2.721   0.956   2.723
 1712SOL    HW1 1216   2.775   0.887   2.771
 1712SOL    HW2 1217   2.689   1.025   2.789
 1713SOL     OW 1218   2.945   0.984   1.949
 1713SOL    HW1 1219   2.922   1.037   1.867
 1713SOL    HW2 1220   3.026   0.928   1.930
 1714SOL     OW 1221   3.723   1.569   2.713
 1714SOL    HW1 1222   3.652   1.557   2.643
 1714SOL    HW2 1223   3.724   1.490   2.773
 1715SOL     OW 1224   2.083   1.314   3.706
 1715SOL    HW1 1225   2.018   1.241   3.685
 1715SOL    HW2 1226   2.087   1.328   3.804
 1716SOL     OW 1227   1.941   1.240   2.515
 1716SOL    HW1 1228   1.940   1.193   2.603
 1716SOL    HW2 1229   2.023   1.212   2.464
 1717SOL     OW 1230   2.534   1.391   3.486
 1717SOL    HW1 1231   2.456   1.341   3.524
 1717SOL    HW2 1232   2.531   1.486   3.517
 1720SOL     OW 1233   3.567   1.487   2.966
 1720SOL    HW1 1234   3.474   1.462   2.939
 1720SOL    HW2 1235   3.593   1.437   3.048
 1722SOL     OW 1236   2.674   1.586   2.549
 1722SOL    HW1 1237   2.706   1.596   2.455
 1722SOL    HW2 1238   2.595   1.524   2.551
 1725SOL     OW 1239   2.632   1.330   2.163
 1725SOL    HW1 1240   2.586   1.243   2.180
 1725SOL    HW2 1241   2.723   1.327   2.204
 1726SOL     OW 1242   2.480   1.567   3.146
 1726SOL    HW1 1243   2.475   1.649   3.203
 1726SOL    HW2 1244   2.569   1.564   3.101
 1730SOL     OW 1245   1.901   1.077   2.162
 1730SOL    HW1 1246   2.000   1.066   2.153
 1730SOL    HW2 1247   1.861   0.991   2.194
 1731SOL     OW 1248   2.737   1.646   2.199
 1731SOL    HW1 1249   2.660   1.611   2.145
 1731SOL    HW2 1250   2.705   1.717   2.261
 1747SOL     OW 1251   1.889   1.596   3.841
 1747SOL    HW1 1252   1.870   1.500   3.862
 1747SOL    HW2 1253   1.856   1.654   3.916
 1805SOL     OW 1254   2.534   1.616   3.878
 1805SOL    HW1 1255   2.543   1.626   3.779
 1805SOL    HW2 1256   2.494   1.527   3.899
 1808SOL     OW 1257   3.056   1.612   3.755
 1808SOL    HW1 1258   3.062   1.519   3.792
 1808SOL    HW2 1259   2.997   1.612   3.675
 1819SOL     OW 1260   2.721   1.374   3.740
 1819SOL    HW1 1261   2.675   1.389   3.828
 1819SOL    HW2 1262   2.765   1.459   3.710
 1833SOL     OW 1263   2.087   2.137   0.996
 1833SOL    HW1 1264   2.122   2.120   1.088
 1833SOL    HW2 1265   1.999   2.092   0.984
 1834SOL     OW 1266   1.881   2.230   0.647
 1834SOL    HW1 1267   1.799   2.273   0.686
 1834SOL    HW2 1268   1.853   2.157   0.584
 1835SOL     OW 1269   2.431   3.137   1.165
 1835SOL    HW1 1270   2.338   3.130   1.128
 1835SOL    HW2 1271   2.442   3.226   1.209
 1837SOL     OW 1272   2.997   2.565   0.717
 1837SOL    HW1 1273   3.054   2.643   0.692
 1837SOL    HW2 1274   2.937   2.591   0.793
 1839SOL     OW 1275   2.630   3.006   1.023
 1839SOL    HW1 1276   2.552   3.023   1.083
 1839SOL    HW2 1277   2.664   3.093   0.987
 1840SOL     OW 1278   2.712   2.660   1.823
 1840SOL    HW1 1279   2.708   2.736   1.888
 1840SOL    HW2 1280   2.734   2.696   1.732
 1841SOL     OW 1281   2.547   2.874   0.665
 1841SOL    HW1 1282   2.616   2.858   0.735
 1841SOL    HW2 1283   2.474   2.931   0.703
 1842SOL     OW 1284   2.548   3.023   1.803
 1842SOL    HW1 1285   2.608   3.102   1.817
 1842SOL    HW2 1286   2.462   3.054   1.762
 1843SOL     OW 1287   2.197   3.297   1.061
 1843SOL    HW1 1288   2.119   3.266   1.008
 1843SOL    HW2 1289   2.255   3.355   1.004
 1844SOL     OW 1290   3.322   3.367   1.339
 1844SOL    HW1 1291   3.346   3.461   1.365
 1844SOL    HW2 1292   3.306   3.313   1.421
 1845SOL     OW 1293   2.300   2.254   1.499
 1845SOL    HW1 1294   2.382   2.198   1.508
 1845SOL    HW2 1295   2.219   2.196   1.503
 1848SOL     OW 1296   2.989   3.203   1.690
 1848SOL    HW1 1297   3.036   3.203   1.778
 1848SOL    HW2 1298   2.941   3.116   1.679
 1850SOL     OW 1299   2.102   2.953   0.886
 1850SOL    HW1 1300   2.116   2.869   0.938
 1850SOL    HW2 1301   2.047   3.017   0.941
 1851SOL     OW 1302   2.482   3.648   1.439
 1851SOL    HW1 1303   2.390   3.631   1.474
 1851SOL    HW2 1304   2.510   3.740   1.465
 1853SOL     OW 1305   3.456   1.976   1.480
 1853SOL    HW1 1306   3.438   2.043   1.408
 1853SOL    HW2 1307   3.453   2.022   1.569
 1859SOL     OW 1308   1.975   2.599   1.597
 1859SOL    HW1 1309   2.063   2.586   1.642
 1859SOL    HW2 1310   1.962   2.696   1.575
 1861SOL     OW 1311   3.155   3.090   1.423
 1861SOL    HW1 1312   3.192   3.017   1.365
 1861SOL    HW2 1313   3.207   3.095   1.508
 1863SOL     OW 1314   2.059   2.838   1.264
 1863SOL    HW1 1315   2.148   2.793   1.250
 1863SOL    HW2 1316   1.986   2.773   1.245
 1865SOL     OW 1317   3.049   3.654   1.616
 1865SOL    HW1 1318   3.073   3.714   1.540
 1865SOL    HW2 1319   3.056   3.559   1.586
 1866SOL     OW 1320   2.179   2.113   1.801
 1866SOL    HW1 1321   2.250   2.184   1.807
 1866SOL    HW2 1322   2.091   2.152   1.829
 1870SOL     OW 1323   3.143   2.207   0.944
 1870SOL    HW1 1324   3.057   2.157   0.931
 1870SOL    HW2 1325   3.205   2.153   1.000
 1872SOL     OW 1326   2.669   2.467   1.465
 1872SOL    HW1 1327   2.622   2.464   1.554
 1872SOL    HW2 1328   2.618   2.412   1.399
 1873SOL     OW 1329   3.256   2.331   1.674
 1873SOL    HW1 1330   3.236   2.374   1.762
 1873SOL    HW2 1331   3.334   2.269   1.683
 1874SOL     OW 1332   2.835   2.752   1.572
 1874SOL    HW1 1333   2.881   2.668   1.543
 1874SOL    HW2 1334   2.779   2.786   1.497
 1875SOL     OW 1335   2.853   2.272   1.242
 1875SOL    HW1 1336   2.776   2.306   1.296
 1875SOL    HW2 1337   2.819   2.221   1.163
 1877SOL     OW 1338   1.938   2.673   0.789
 1877SOL    HW1 1339   2.037   2.661   0.798
 1877SOL    HW2 1340   1.914   2.768   0.810
 1878SOL     OW 1341   1.992   3.683   1.571
 1878SOL    HW1 1342   1.982   3.668   1.670
 1878SOL    HW2 1343   1.906   3.719   1.535
 1880SOL     OW 1344   3.581   2.447   1.831
 1880SOL    HW1 1345   3.555   2.536   1.795
 1880SOL    HW2 1346   3.579   2.379   1.758
 1882SOL     OW 1347   2.412   2.058   0.885
 1882SOL    HW1 1348   2.407   2.053   0.985
 1882SOL    HW2 1349   2.414   2.154   0.856
 1886SOL     OW 1350   3.089   3.412   1.506
 1886SOL    HW1 1351   3.095   3.335   1.570
 1886SOL    HW2 1352   3.037   3.386   1.426
 1889SOL     OW 1353   2.323   3.128   1.727
 1889SOL    HW1 1354   2.273   3.129   1.641
 1889SOL    HW2 1355   2.260   3.110   1.803
 1891SOL     OW 1356   2.064   2.147   1.498
 1891SOL    HW1 1357   1.984   2.207   1.485
 1891SOL    HW2 1358   2.054   2.098   1.584
 1895SOL     OW 1359   2.111   3.647   1.241
 1895SOL    HW1 1360   2.168   3.582   1.291
 1895SOL    HW2 1361   2.095   3.614   1.148
 1898SOL     OW 1362   3.409   2.084   1.729
 1898SOL    HW1 1363   3.404   2.121   1.821
 1898SOL    HW2 1364   3.337   2.015   1.717
 1899SOL     OW 1365   2.643   2.126   1.749
 1899SOL    HW1 1366   2.710   2.065   1.792
 1899SOL    HW2 1367   2.570   2.145   1.814
 1900SOL     OW 1368   2.750   3.376   1.195
 1900SOL    HW1 1369   2.727   3.351   1.101
 1900SOL    HW2 1370   2.811   3.307   1.234
 1901SOL     OW 1371   3.213   2.452   1.433
 1901SOL    HW1 1372   3.241   2.409   1.518
 1901SOL    HW2 1373   3.238   2.548   1.434
 1902SOL     OW 1374   2.665   3.264   0.924
 1902SOL    HW1 1375   2.755   3.278   0.882
 1902SOL    HW2 1376   2.594   3.266   0.853
 1903SOL     OW 1377   2.784   2.365   0.899
 1903SOL    HW1 1378   2.759   2.356   0.803
 1903SOL    HW2 1379   2.832   2.283   0.930
 1908SOL     OW 1380   2.938   2.545   1.464
 1908SOL    HW1 1381   2.858   2.484   1.467
 1908SOL    HW2 1382   3.019   2.492   1.440
 1910SOL     OW 1383   2.321   3.014   0.741
 1910SOL    HW1 1384   2.250   2.987   0.806
 1910SOL    HW2 1385   2.295   2.986   0.648
 1913SOL     OW 1386   1.940   2.418   1.386
 1913SOL    HW1 1387   2.032   2.417   1.345
 1913SOL    HW2 1388   1.934   2.492   1.453
 1914SOL     OW 1389   2.423   2.084   1.147
 1914SOL    HW1 1390   2.461   2.000   1.184
 1914SOL    HW2 1391   2.335   2.103   1.191
 1915SOL     OW 1392   2.728   2.316   0.642
 1915SOL    HW1 1393   2.696   2.388   0.580
 1915SOL    HW2 1394   2.752   2.235   0.589
 1916SOL     OW 1395   2.879   1.901   0.753
 1916SOL    HW1 1396   2.807   1.906   0.684
 1916SOL    HW2 1397   2.855   1.832   0.822
 1918SOL     OW 1398   3.328   2.452   0.992
 1918SOL    HW1 1399   3.298   2.357   0.999
 1918SOL    HW2 1400   3.401   2.468   1.058
 1924SOL     OW 1401   3.616   3.085   1.588
 1924SOL    HW1 1402   3.707   3.046   1.575
 1924SOL    HW2 1403   3.624   3.181   1.612
 1925SOL     OW 1404   2.926   3.209   1.340
 1925SOL    HW1 1405   2.846   3.186   1.395
 1925SOL    HW2 1406   3.009   3.183   1.389
 1926SOL     OW 1407   3.454   3.491   1.625
 1926SOL    HW1 1408   3.481   3.525   1.535
 1926SOL    HW2 1409   3.533   3.453   1.671
 1927SOL     OW 1410   2.973   3.057   1.100
 1927SOL    HW1 1411   2.933   3.101   1.181
 1927SOL    HW2 1412   2.932   3.094   1.017
 1929SOL     OW 1413   2.777   1.951   1.402
 1929SOL    HW1 1414   2.802   1.931   1.307
 1929SOL    HW2 1415   2.849   2.007   1.444
 1930SOL     OW 1416   2.842   2.978   1.719
 1930SOL    HW1 1417   2.743   2.984   1.729
 1930SOL    HW2 1418   2.865   2.898   1.663
 1932SOL     OW 1419   2.272   2.675   1.251
 1932SOL    HW1 1420   2.358   2.687   1.301
 1932SOL    HW2 1421   2.230   2.588   1.278
 1933SOL     OW 1422   3.136   2.248   1.262
 1933SOL    HW1 1423   3.157   2.322   1.326
 1933SOL    HW2 1424   3.047   2.265   1.219
 1934SOL     OW 1425   1.926   3.426   1.331
 1934SOL    HW1 1426   1.880   3.508   1.297
 1934SOL    HW2 1427   2.024   3.445   1.340
 1936SOL     OW 1428   2.428   2.399   0.865
 1936SOL    HW1 1429   2.440   2.465   0.791
 1936SOL    HW2 1430   2.474   2.433   0.948
 1938SOL     OW 1431   3.134   3.307   1.142
 1938SOL    HW1 1432   3.181   3.320   1.229
 1938SOL    HW2 1433   3.068   3.233   1.151
 1940SOL     OW 1434   2.216   3.372   1.329
 1940SOL    HW1 1435   2.195   3.328   1.242
 1940SOL    HW2 1436   2.313   3.398   1.332
 1941SOL     OW 1437   2.264   2.613   1.598
 1941SOL    HW1 1438   2.332   2.668   1.551
 1941SOL    HW2 1439   2.304   2.525   1.625
 1942SOL     OW 1440   3.449   2.641   1.670
 1942SOL    HW1 1441   3.357   2.679   1.665
 1942SOL    HW2 1442   3.509   2.688   1.605
 1943SOL     OW 1443   2.875   1.967   1.770
 1943SOL    HW1 1444   2.881   2.052   1.718
 1943SOL    HW2 1445   2.907   1.891   1.713
 1944SOL     OW 1446   2.366   1.912   1.740
 1944SOL    HW1 1447   2.324   1.855   1.670
 1944SOL    HW2 1448   2.300   1.981   1.772
 1945SOL     OW 1449   2.435   2.732   1.029
 1945SOL    HW1 1450   2.479   2.821   1.020
 1945SOL    HW2 1451   2.372   2.732   1.106
 1946SOL     OW 1452   3.222   2.724   1.045
 1946SOL    HW1 1453   3.147   2.724   0.979
 1946SOL    HW2 1454   3.259   2.632   1.054
 1948SOL     OW 1455   2.169   2.075   1.231
 1948SOL    HW1 1456   2.146   2.112   1.321
 1948SOL    HW2 1457   2.139   1.980   1.225
 1949SOL     OW 1458   1.899   3.172   1.282
 1949SOL    HW1 1459   1.952   3.123   1.350
 1949SOL    HW2 1460   1.921   3.270   1.287
 1950SOL     OW 1461   2.594   2.496   1.064
 1950SOL    HW1 1462   2.653   2.470   0.988
 1950SOL    HW2 1463   2.566   2.592   1.053
 1951SOL     OW 1464   3.590   2.797   1.854
 1951SOL    HW1 1465   3.544   2.790   1.765
 1951SOL    HW2 1466   3.528   2.841   1.920
 1952SOL     OW 1467   2.169   1.925   0.618
 1952SOL    HW1 1468   2.158   2.019   0.651
 1952SOL    HW2 1469   2.164   1.862   0.695
 1954SOL     OW 1470   2.885   2.628   0.966
 1954SOL    HW1 1471   2.900   2.649   1.062
 1954SOL    HW2 1472   2.855   2.533   0.957
 1955SOL     OW 1473   2.842   3.435   1.700
 1955SOL    HW1 1474   2.822   3.479   1.612
 1955SOL    HW2 1475   2.881   3.344   1.684
 1957SOL     OW 1476   2.212   2.760   1.804
 1957SOL    HW1 1477   2.288   2.804   1.852
 1957SOL    HW2 1478   2.247   2.713   1.722
 1961SOL     OW 1479   2.181   2.672   0.949
 1961SOL    HW1 1480   2.274   2.708   0.954
 1961SOL    HW2 1481   2.175   2.587   1.001
 1962SOL     OW 1482   2.201   2.371   1.006
 1962SOL    HW1 1483   2.149   2.288   0.989
 1962SOL    HW2 1484   2.278   2.376   0.942
 1963SOL     OW 1485   3.000   2.242   1.678
 1963SOL    HW1 1486   2.955   2.305   1.742
 1963SOL    HW2 1487   3.093   2.273   1.661
 1964SOL     OW 1488   3.022   2.069   1.477
 1964SOL    HW1 1489   3.022   2.133   1.554
 1964SOL    HW2 1490   3.050   2.117   1.394
 1967SOL     OW 1491   2.366   3.430   0.910
 1967SOL    HW1 1492   2.432   3.504   0.919
 1967SOL    HW2 1493   2.410   3.351   0.868
 1968SOL     OW 1494   2.864   2.658   1.238
 1968SOL    HW1 1495   2.905   2.626   1.324
 1968SOL    HW2 1496   2.768   2.631   1.235
 1969SOL     OW 1497   1.902   2.406   1.114
 1969SOL    HW1 1498   1.987   2.373   1.073
 1969SOL    HW2 1499   1.915   2.421   1.212
 1970SOL     OW 1500   2.051   2.382   1.722
 1970SOL    HW1 1501   2.110   2.342   1.652
 1970SOL    HW2 1502   1.993   2.453   1.681
 1971SOL     OW 1503   3.231   2.812   1.660
 1971SOL    HW1 1504   3.270   2.901   1.680
 1971SOL    HW2 1505   3.241   2.792   1.563
 1973SOL     OW 1506   3.519   2.466   1.206
 1973SOL    HW1 1507   3.481   2.397   1.268
 1973SOL    HW2 1508   3.601   2.430   1.162
 1974SOL     OW 1509   2.114   3.426   1.744
 1974SOL    HW1 1510   2.084   3.483   1.820
 1974SOL    HW2 1511   2.107   3.329   1.770
 1975SOL     OW 1512   2.533   2.326   1.269
 1975SOL    HW1 1513   2.499   2.237   1.239
 1975SOL    HW2 1514   2.559   2.380   1.189
 1976SOL     OW 1515   2.792   3.540   1.465
 1976SOL    HW1 1516   2.768   3.522   1.370
 1976SOL    HW2 1517   2.822   3.634   1.475
 1978SOL     OW 1518   2.021   2.999   1.466
 1978SOL    HW1 1519   2.043   2.938   1.542
 1978SOL    HW2 1520   2.031   2.950   1.380
 1979SOL     OW 1521   3.209   2.921   1.234
 1979SOL    HW1 1522   3.233   2.858   1.160
 1979SOL    HW2 1523   3.119   2.961   1.216
 1983SOL     OW 1524   1.945   3.120   1.022
 1983SOL    HW1 1525   1.940   3.119   1.122
 1983SOL    HW2 1526   1.862   3.079   0.984
 1984SOL     OW 1527   2.550   3.524   1.716
 1984SOL    HW1 1528   2.494   3.605   1.725
 1984SOL    HW2 1529   2.602   3.528   1.630
 1988SOL     OW 1530   1.992   3.656   1.851
 1988SOL    HW1 1531   1.951   3.582   1.904
 1988SOL    HW2 1532   2.056   3.707   1.909
 1990SOL     OW 1533   2.692   3.135   1.422
 1990SOL    HW1 1534   2.687   3.168   1.517
 1990SOL    HW2 1535   2.606   3.154   1.376
 1994SOL     OW 1536   2.125   2.188   0.720
 1994SOL    HW1 1537   2.046   2.239   0.686
 1994SOL    HW2 1538   2.116   2.173   0.818
 1996SOL     OW 1539   2.684   2.864   1.372
 1996SOL    HW1 1540   2.724   2.863   1.280
 1996SOL    HW2 1541   2.694   2.956   1.412
 1999SOL     OW 1542   2.234   3.150   1.490
 1999SOL    HW1 1543   2.221   3.243   1.456
 1999SOL    HW2 1544   2.150   3.098   1.477
 2000SOL     OW 1545   3.476   3.154   1.289
 2000SOL    HW1 1546   3.536   3.157   1.369
 2000SOL    HW2 1547   3.401   3.218   1.302
 2002SOL     OW 1548   2.876   2.098   0.971
 2002SOL    HW1 1549   2.868   2.062   0.878
 2002SOL    HW2 1550   2.874   2.022   1.036
 2004SOL     OW 1551   3.571   2.247   1.381
 2004SOL    HW1 1552   3.644   2.316   1.385
 2004SOL    HW2 1553   3.599   2.172   1.322
 2006SOL     OW 1554   1.967   2.875   1.726
 2006SOL    HW1 1555   1.890   2.842   1.780
 2006SOL    HW2 1556   2.052   2.845   1.768
 2007SOL     OW 1557   2.534   2.065   1.489
 2007SOL    HW1 1558   2.624   2.049   1.449
 2007SOL    HW2 1559   2.542   2.070   1.588
 2008SOL     OW 1560   3.302   2.718   1.398
 2008SOL    HW1 1561   3.245   2.770   1.335
 2008SOL    HW2 1562   3.398   2.730   1.374
 2011SOL     OW 1563   2.475   2.704   1.431
 2011SOL    HW1 1564   2.531   2.785   1.414
 2011SOL    HW2 1565   2.534   2.624   1.434
 2013SOL     OW 1566   2.578   2.427   1.708
 2013SOL    HW1 1567   2.597   2.492   1.782
 2013SOL    HW2 1568   2.638   2.347   1.717
 2014SOL     OW 1569   3.312   3.082   1.633
 2014SOL    HW1 1570   3.303   3.072   1.732
 2014SOL    HW2 1571   3.408   3.075   1.607
 2015SOL     OW 1572   2.252   3.603   1.560
 2015SOL    HW1 1573   2.161   3.644   1.558
 2015SOL    HW2 1574   2.245   3.509   1.592
 2016SOL     OW 1575   3.536   2.745   1.254
 2016SOL    HW1 1576   3.509   2.656   1.217
 2016SOL    HW2 1577   3.537   2.813   1.181
 2018SOL     OW 1578   2.456   2.607   0.652
 2018SOL    HW1 1579   2.506   2.692   0.633
 2018SOL    HW2 1580   2.368   2.609   0.604
 2019SOL     OW 1581   3.639   2.204   1.642
 2019SOL    HW1 1582   3.622   2.235   1.548
 2019SOL    HW2 1583   3.555   2.167   1.680
 2020SOL     OW 1584   3.592   2.796   1.517
 2020SOL    HW1 1585   3.630   2.887   1.532
 2020SOL    HW2 1586   3.584   2.779   1.418
 2023SOL     OW 1587   2.721   2.818   0.861
 2023SOL    HW1 1588   2.775   2.749   0.909
 2023SOL    HW2 1589   2.689   2.887   0.927
 2026SOL     OW 1590   2.083   3.176   1.844
 2026SOL    HW1 1591   2.018   3.103   1.823
 2026SOL    HW2 1592   2.087   3.190   1.942
 2028SOL     OW 1593   2.534   3.253   1.624
 2028SOL    HW1 1594   2.456   3.203   1.662
 2028SOL    HW2 1595   2.531   3.348   1.655
 2029SOL     OW 1596   3.686   2.054   1.227
 2029SOL    HW1 1597   3.682   1.964   1.271
 2029SOL    HW2 1598   3.689   2.043   1.128
 2032SOL     OW 1599   2.179   2.409   1.280
 2032SOL    HW1 1600   2.217   2.350   1.352
 2032SOL    HW2 1601   2.219   2.383   1.192
 2034SOL     OW 1602   3.286   2.076   1.112
 2034SOL    HW1 1603   3.338   2.011   1.167
 2034SOL    HW2 1604   3.237   2.139   1.173
 2035SOL     OW 1605   2.863   1.896   1.154
 2035SOL    HW1 1606   2.800   1.824   1.123
 2035SOL    HW2 1607   2.956   1.860   1.154
 2037SOL     OW 1608   2.480   3.429   1.284
 2037SOL    HW1 1609   2.475   3.511   1.341
 2037SOL    HW2 1610   2.569   3.426   1.239
 2043SOL     OW 1611   2.092   2.490   1.975
 2043SOL    HW1 1612   1.999   2.488   2.012
 2043SOL    HW2 1613   2.093   2.451   1.883
 2044SOL     OW 1614   2.087   2.137   2.858
 2044SOL    HW1 1615   2.122   2.120   2.950
 2044SOL    HW2 1616   1.999   2.092   2.846
 2045SOL     OW 1617   1.881   2.230   2.509
 2045SOL    HW1 1618   1.799   2.273   2.548
 2045SOL    HW2 1619   1.853   2.157   2.446
 2046SOL     OW 1620   2.431   3.137   3.027
 2046SOL    HW1 1621   2.338   3.130   2.990
 2046SOL    HW2 1622   2.442   3.226   3.071
 2047SOL     OW 1623   3.417   3.373   2.565
 2047SOL    HW1 1624   3.360   3.357   2.646
 2047SOL    HW2 1625   3.358   3.383   2.485
 2048SOL     OW 1626   2.997   2.565   2.579
 2048SOL    HW1 1627   3.054   2.643   2.554
 2048SOL    HW2 1628   2.937   2.591   2.655
 2049SOL     OW 1629   3.617   2.469   2.093
 2049SOL    HW1 1630   3.605   2.456   1.994
 2049SOL    HW2 1631   3.587   2.388   2.142
 2050SOL     OW 1632   2.630   3.006   2.885
 2050SOL    HW1 1633   2.552   3.023   2.945
 2050SOL    HW2 1634   2.664   3.093   2.849
 2051SOL     OW 1635   2.712   2.660   3.685
 2051SOL    HW1 1636   2.708   2.736   3.750
 2051SOL    HW2 1637   2.734   2.696   3.594
 2052SOL     OW 1638   2.547   2.874   2.527
 2052SOL    HW1 1639   2.616   2.858   2.597
 2052SOL    HW2 1640   2.474   2.931   2.565
 2053SOL     OW 1641   2.548   3.023   3.665
 2053SOL    HW1 1642   2.608   3.102   3.679
 2053SOL    HW2 1643   2.462   3.054   3.624
 2054SOL     OW 1644   2.197   3.297   2.923
 2054SOL    HW1 1645   2.119   3.266   2.870
 2054SOL    HW2 1646   2.255   3.355   2.866
 2055SOL     OW 1647   3.322   3.367   3.201
 2055SOL    HW1 1648   3.346   3.461   3.227
 2055SOL    HW2 1649   3.306   3.313   3.283
 2056SOL     OW 1650   2.300   2.254   3.361
 2056SOL    HW1 1651   2.382   2.198   3.370
 2056SOL    HW2 1652   2.219   2.196   3.365
 2057SOL     OW 1653   3.465   2.309   2.599
 2057SOL    HW1 1654   3.391   2.355   2.549
 2057SOL    HW2 1655   3.516   2.377   2.652
 2058SOL     OW 1656   2.093   3.575   2.345
 2058SOL    HW1 1657   2.127   3.652   2.399
 2058SOL    HW2 1658   2.137   3.575   2.255
 2059SOL     OW 1659   2.989   3.203   3.552
 2059SOL    HW1 1660   3.036   3.203   3.640
 2059SOL    HW2 1661   2.941   3.116   3.541
 2060SOL     OW 1662   2.092   3.296   2.400
 2060SOL    HW1 1663   2.066   3.392   2.400
 2060SOL    HW2 1664   2.021   3.242   2.445
 2061SOL     OW 1665   2.102   2.953   2.748
 2061SOL    HW1 1666   2.116   2.869   2.800
 2061SOL    HW2 1667   2.047   3.017   2.803
 2062SOL     OW 1668   2.482   3.648   3.301
 2062SOL    HW1 1669   2.390   3.631   3.336
 2062SOL    HW2 1670   2.510   3.740   3.327
 2063SOL     OW 1671   2.468   2.826   1.985
 2063SOL    HW1 1672   2.475   2.910   1.931
 2063SOL    HW2 1673   2.514   2.839   2.073
 2064SOL     OW 1674   3.456   1.976   3.342
 2064SOL    HW1 1675   3.438   2.043   3.270
 2064SOL    HW2 1676   3.453   2.022   3.431
 2065SOL     OW 1677   1.984   2.505   2.425
 2065SOL    HW1 1678   1.939   2.417   2.442
 2065SOL    HW2 1679   1.983   2.559   2.509
 2067SOL     OW 1680   1.889   3.458   1.979
 2067SOL    HW1 1681   1.870   3.362   2.000
 2067SOL    HW2 1682   1.856   3.516   2.054
 2068SOL     OW 1683   3.551   2.784   2.474
 2068SOL    HW1 1684   3.646   2.755   2.482
 2068SOL    HW2 1685   3.543   2.849   2.399
 2069SOL     OW 1686   3.503   2.970   2.294
 2069SOL    HW1 1687   3.589   2.972   2.242
 2069SOL    HW2 1688   3.517   3.017   2.382
 2070SOL     OW 1689   1.975   2.599   3.459
 2070SOL    HW1 1690   2.063   2.586   3.504
 2070SOL    HW2 1691   1.962   2.696   3.437
 2071SOL     OW 1692   2.475   3.227   2.588
 2071SOL    HW1 1693   2.426   3.140   2.597
 2071SOL    HW2 1694   2.452   3.270   2.501
 2072SOL     OW 1695   3.155   3.090   3.285
 2072SOL    HW1 1696   3.192   3.017   3.227
 2072SOL    HW2 1697   3.207   3.095   3.370
 2073SOL     OW 1698   2.671   1.866   2.364
 2073SOL    HW1 1699   2.711   1.957   2.355
 2073SOL    HW2 1700   2.571   1.874   2.370
 2074SOL     OW 1701   2.059   2.838   3.126
 2074SOL    HW1 1702   2.148   2.793   3.112
 2074SOL    HW2 1703   1.986   2.773   3.107
 2075SOL     OW 1704   3.387   2.861   2.052
 2075SOL    HW1 1705   3.324   2.785   2.065
 2075SOL    HW2 1706   3.435   2.879   2.138
 2077SOL     OW 1707   2.179   2.113   3.663
 2077SOL    HW1 1708   2.250   2.184   3.669
 2077SOL    HW2 1709   2.091   2.152   3.691
 2078SOL     OW 1710   3.328   3.279   2.815
 2078SOL    HW1 1711   3.269   3.285   2.895
 2078SOL    HW2 1712   3.313   3.191   2.769
 2079SOL     OW 1713   3.529   3.576   2.434
 2079SOL    HW1 1714   3.488   3.553   2.346
 2079SOL    HW2 1715   3.511   3.502   2.499
 2080SOL     OW 1716   2.460   2.591   2.132
 2080SOL    HW1 1717   2.484   2.660   2.064
 2080SOL    HW2 1718   2.382   2.624   2.186
 2081SOL     OW 1719   3.143   2.207   2.806
 2081SOL    HW1 1720   3.057   2.157   2.793
 2081SOL    HW2 1721   3.205   2.153   2.862
 2082SOL     OW 1722   3.438   3.524   2.169
 2082SOL    HW1 1723   3.527   3.570   2.172
 2082SOL    HW2 1724   3.417   3.500   2.074
 2083SOL     OW 1725   2.669   2.467   3.327
 2083SOL    HW1 1726   2.622   2.464   3.416
 2083SOL    HW2 1727   2.618   2.412   3.261
 2084SOL     OW 1728   3.256   2.331   3.536
 2084SOL    HW1 1729   3.236   2.374   3.624
 2084SOL    HW2 1730   3.334   2.269   3.545
 2085SOL     OW 1731   2.835   2.752   3.434
 2085SOL    HW1 1732   2.881   2.668   3.405
 2085SOL    HW2 1733   2.779   2.786   3.359
 2086SOL     OW 1734   2.853   2.272   3.104
 2086SOL    HW1 1735   2.776   2.306   3.158
 2086SOL    HW2 1736   2.819   2.221   3.025
 2087SOL     OW 1737   2.903   2.563   2.291
 2087SOL    HW1 1738   2.929   2.559   2.387
 2087SOL    HW2 1739   2.818   2.512   2.277
 2088SOL     OW 1740   1.938   2.673   2.651
 2088SOL    HW1 1741   2.037   2.661   2.660
 2088SOL    HW2 1742   1.914   2.768   2.672
 2089SOL     OW 1743   1.992   3.683   3.433
 2089SOL    HW1 1744   1.982   3.668   3.532
 2089SOL    HW2 1745   1.906   3.719   3.397
 2090SOL     OW 1746   2.727   2.210   2.057
 2090SOL    HW1 1747   2.786   2.273   2.008
 2090SOL    HW2 1748   2.746   2.116   2.028
 2092SOL     OW 1749   3.224   3.006   2.407
 2092SOL    HW1 1750   3.307   2.977   2.359
 2092SOL    HW2 1751   3.175   3.073   2.351
 2093SOL     OW 1752   2.412   2.058   2.747
 2093SOL    HW1 1753   2.407   2.053   2.847
 2093SOL    HW2 1754   2.414   2.154   2.718
 2094SOL     OW 1755   2.870   3.318   2.339
 2094SOL    HW1 1756   2.824   3.390   2.287
 2094SOL    HW2 1757   2.866   3.338   2.437
 2095SOL     OW 1758   2.213   3.663   2.715
 2095SOL    HW1 1759   2.263   3.577   2.721
 2095SOL    HW2 1760   2.278   3.740   2.712
 2096SOL     OW 1761   3.657   2.928   2.735
 2096SOL    HW1 1762   3.595   2.913   2.659
 2096SOL    HW2 1763   3.605   2.939   2.820
 2097SOL     OW 1764   3.089   3.412   3.368
 2097SOL    HW1 1765   3.095   3.335   3.432
 2097SOL    HW2 1766   3.037   3.386   3.288
 2098SOL     OW 1767   2.183   2.805   2.104
 2098SOL    HW1 1768   2.265   2.844   2.062
 2098SOL    HW2 1769   2.156   2.723   2.055
 2099SOL     OW 1770   3.320   2.597   2.590
 2099SOL    HW1 1771   3.315   2.532   2.665
 2099SOL    HW2 1772   3.400   2.656   2.603
 2100SOL     OW 1773   2.323   3.128   3.589
 2100SOL    HW1 1774   2.273   3.129   3.503
 2100SOL    HW2 1775   2.260   3.110   3.665
 2101SOL     OW 1776   2.973   3.638   2.099
 2101SOL    HW1 1777   2.913   3.576   2.149
 2101SOL    HW2 1778   3.004   3.594   2.014
 2102SOL     OW 1779   2.064   2.147   3.360
 2102SOL    HW1 1780   1.984   2.207   3.347
 2102SOL    HW2 1781   2.054   2.098   3.446
 2103SOL     OW 1782   3.494   3.239   1.943
 2103SOL    HW1 1783   3.462   3.333   1.933
 2103SOL    HW2 1784   3.418   3.176   1.931
 2104SOL     OW 1785   2.326   3.605   2.185
 2104SOL    HW1 1786   2.359   3.644   2.271
 2104SOL    HW2 1787   2.402   3.598   2.120
 2105SOL     OW 1788   3.262   1.969   2.288
 2105SOL    HW1 1789   3.238   1.932   2.198
 2105SOL    HW2 1790   3.361   1.985   2.292
 2106SOL     OW 1791   2.111   3.647   3.103
 2106SOL    HW1 1792   2.168   3.582   3.153
 2106SOL    HW2 1793   2.095   3.614   3.010
 2107SOL     OW 1794   2.802   3.560   2.766
 2107SOL    HW1 1795   2.882   3.503   2.787
 2107SOL    HW2 1796   2.753   3.520   2.689
 2108SOL     OW 1797   3.409   2.084   3.591
 2108SOL    HW1 1798   3.404   2.121   3.683
 2108SOL    HW2 1799   3.337   2.015   3.579
 2109SOL     OW 1800   2.476   1.984   1.979
 2109SOL    HW1 1801   2.574   1.962   1.986
 2109SOL    HW2 1802   2.445   1.967   1.886
 2110SOL     OW 1803   2.643   2.126   3.611
 2110SOL    HW1 1804   2.710   2.065   3.654
 2110SOL    HW2 1805   2.570   2.145   3.676
 2111SOL     OW 1806   2.750   3.376   3.057
 2111SOL    HW1 1807   2.727   3.351   2.963
 2111SOL    HW2 1808   2.811   3.307   3.096
 2112SOL     OW 1809   3.213   2.452   3.295
 2112SOL    HW1 1810   3.241   2.409   3.380
 2112SOL    HW2 1811   3.238   2.548   3.296
 2113SOL     OW 1812   2.665   3.264   2.786
 2113SOL    HW1 1813   2.755   3.278   2.744
 2113SOL    HW2 1814   2.594   3.266   2.715
 2114SOL     OW 1815   2.784   2.365   2.761
 2114SOL    HW1 1816   2.759   2.356   2.665
 2114SOL    HW2 1817   2.832   2.283   2.792
 2115SOL     OW 1818   2.401   1.926   2.374
 2115SOL    HW1 1819   2.320   1.927   2.432
 2115SOL    HW2 1820   2.404   2.009   2.319
 2116SOL     OW 1821   3.296   3.050   1.903
 2116SOL    HW1 1822   3.328   2.974   1.960
 2116SOL    HW2 1823   3.204   3.077   1.933
 2117SOL     OW 1824   2.159   1.897   2.033
 2117SOL    HW1 1825   2.208   1.981   2.012
 2117SOL    HW2 1826   2.221   1.832   2.078
 2118SOL     OW 1827   2.797   2.098   2.342
 2118SOL    HW1 1828   2.749   2.139   2.264
 2118SOL    HW2 1829   2.896   2.096   2.323
 2119SOL     OW 1830   2.938   2.545   3.326
 2119SOL    HW1 1831   2.858   2.484   3.329
 2119SOL    HW2 1832   3.019   2.492   3.302
 2120SOL     OW 1833   3.089   3.432   2.655
 2120SOL    HW1 1834   3.110   3.506   2.590
 2120SOL    HW2 1835   3.157   3.432   2.728
 2121SOL     OW 1836   2.321   3.014   2.603
 2121SOL    HW1 1837   2.250   2.987   2.668
 2121SOL    HW2 1838   2.295   2.986   2.510
 2122SOL     OW 1839   3.133   3.659   2.453
 2122SOL    HW1 1840   3.177   3.723   2.389
 2122SOL    HW2 1841   3.083   3.711   2.523
 2123SOL     OW 1842   2.894   2.411   1.878
 2123SOL    HW1 1843   2.853   2.493   1.839
 2123SOL    HW2 1844   2.958   2.437   1.951
 2124SOL     OW 1845   1.940   2.418   3.248
 2124SOL    HW1 1846   2.032   2.417   3.207
 2124SOL    HW2 1847   1.934   2.492   3.315
 2125SOL     OW 1848   2.423   2.084   3.009
 2125SOL    HW1 1849   2.461   2.000   3.046
 2125SOL    HW2 1850   2.335   2.103   3.053
 2126SOL     OW 1851   2.728   2.316   2.504
 2126SOL    HW1 1852   2.696   2.388   2.442
 2126SOL    HW2 1853   2.752   2.235   2.451
 2127SOL     OW 1854   2.879   1.901   2.615
 2127SOL    HW1 1855   2.807   1.906   2.546
 2127SOL    HW2 1856   2.855   1.832   2.684
 2128SOL     OW 1857   3.291   3.035   2.729
 2128SOL    HW1 1858   3.236   2.951   2.722
 2128SOL    HW2 1859   3.317   3.064   2.637
 2129SOL     OW 1860   3.328   2.452   2.854
 2129SOL    HW1 1861   3.298   2.357   2.861
 2129SOL    HW2 1862   3.401   2.468   2.920
 2130SOL     OW 1863   3.719   2.695   2.239
 2130SOL    HW1 1864   3.761   2.631   2.303
 2130SOL    HW2 1865   3.681   2.644   2.161
 2131SOL     OW 1866   2.350   3.247   2.036
 2131SOL    HW1 1867   2.263   3.232   2.083
 2131SOL    HW2 1868   2.333   3.273   1.941
 2132SOL     OW 1869   3.526   3.142   2.519
 2132SOL    HW1 1870   3.625   3.150   2.533
 2132SOL    HW2 1871   3.481   3.226   2.550
 2133SOL     OW 1872   3.252   2.437   1.940
 2133SOL    HW1 1873   3.198   2.416   2.021
 2133SOL    HW2 1874   3.343   2.396   1.949
 2135SOL     OW 1875   2.926   3.209   3.202
 2135SOL    HW1 1876   2.846   3.186   3.257
 2135SOL    HW2 1877   3.009   3.183   3.251
 2137SOL     OW 1878   2.973   3.057   2.962
 2137SOL    HW1 1879   2.933   3.101   3.043
 2137SOL    HW2 1880   2.932   3.094   2.879
 2138SOL     OW 1881   3.500   2.961   2.941
 2138SOL    HW1 1882   3.505   3.042   3.000
 2138SOL    HW2 1883   3.414   2.963   2.890
 2139SOL     OW 1884   2.777   1.951   3.264
 2139SOL    HW1 1885   2.802   1.931   3.169
 2139SOL    HW2 1886   2.849   2.007   3.306
 2140SOL     OW 1887   2.842   2.978   3.581
 2140SOL    HW1 1888   2.743   2.984   3.591
 2140SOL    HW2 1889   2.865   2.898   3.525
 2141SOL     OW 1890   2.567   2.912   2.230
 2141SOL    HW1 1891   2.553   2.919   2.329
 2141SOL    HW2 1892   2.651   2.861   2.212
 2142SOL     OW 1893   2.272   2.675   3.113
 2142SOL    HW1 1894   2.358   2.687   3.163
 2142SOL    HW2 1895   2.230   2.588   3.140
 2143SOL     OW 1896   3.136   2.248   3.124
 2143SOL    HW1 1897   3.157   2.322   3.188
 2143SOL    HW2 1898   3.047   2.265   3.081
 2144SOL     OW 1899   1.926   3.426   3.193
 2144SOL    HW1 1900   1.880   3.508   3.159
 2144SOL    HW2 1901   2.024   3.445   3.202
 2145SOL     OW 1902   2.229   2.962   2.363
 2145SOL    HW1 1903   2.222   3.045   2.307
 2145SOL    HW2 1904   2.233   2.882   2.303
 2146SOL     OW 1905   3.114   3.210   2.250
 2146SOL    HW1 1906   3.164   3.287   2.290
 2146SOL    HW2 1907   3.019   3.212   2.282
 2147SOL     OW 1908   3.134   3.307   3.004
 2147SOL    HW1 1909   3.181   3.320   3.091
 2147SOL    HW2 1910   3.068   3.233   3.013
 2148SOL     OW 1911   3.444   2.501   2.334
 2148SOL    HW1 1912   3.413   2.562   2.407
 2148SOL    HW2 1913   3.494   2.553   2.265
 2149SOL     OW 1914   2.216   3.372   3.191
 2149SOL    HW1 1915   2.195   3.328   3.104
 2149SOL    HW2 1916   2.313   3.398   3.194
 2150SOL     OW 1917   2.264   2.613   3.460
 2150SOL    HW1 1918   2.332   2.668   3.413
 2150SOL    HW2 1919   2.304   2.525   3.487
 2151SOL     OW 1920   3.449   2.641   3.532
 2151SOL    HW1 1921   3.357   2.679   3.527
 2151SOL    HW2 1922   3.509   2.688   3.467
 2152SOL     OW 1923   2.875   1.967   3.632
 2152SOL    HW1 1924   2.881   2.052   3.580
 2152SOL    HW2 1925   2.907   1.891   3.575
 2153SOL     OW 1926   2.366   1.912   3.602
 2153SOL    HW1 1927   2.324   1.855   3.532
 2153SOL    HW2 1928   2.300   1.981   3.634
 2154SOL     OW 1929   2.435   2.732   2.891
 2154SOL    HW1 1930   2.479   2.821   2.882
 2154SOL    HW2 1931   2.372   2.732   2.968
 2155SOL     OW 1932   3.222   2.724   2.907
 2155SOL    HW1 1933   3.147   2.724   2.841
 2155SOL    HW2 1934   3.259   2.632   2.916
 2156SOL     OW 1935   3.071   2.387   2.137
 2156SOL    HW1 1936   3.084   2.303   2.191
 2156SOL    HW2 1937   3.042   2.461   2.197
 2157SOL     OW 1938   2.169   2.075   3.093
 2157SOL    HW1 1939   2.146   2.112   3.183
 2157SOL    HW2 1940   2.139   1.980   3.087
 2158SOL     OW 1941   1.899   3.172   3.144
 2158SOL    HW1 1942   1.952   3.123   3.212
 2158SOL    HW2 1943   1.921   3.270   3.149
 2159SOL     OW 1944   2.594   2.496   2.926
 2159SOL    HW1 1945   2.653   2.470   2.850
 2159SOL    HW2 1946   2.566   2.592   2.915
 2161SOL     OW 1947   2.169   1.925   2.480
 2161SOL    HW1 1948   2.158   2.019   2.513
 2161SOL    HW2 1949   2.164   1.862   2.557
 2162SOL     OW 1950   3.484   2.229   2.236
 2162SOL    HW1 1951   3.486   2.153   2.300
 2162SOL    HW2 1952   3.436   2.306   2.276
 2163SOL     OW 1953   2.885   2.628   2.828
 2163SOL    HW1 1954   2.900   2.649   2.924
 2163SOL    HW2 1955   2.855   2.533   2.819
 2164SOL     OW 1956   2.842   3.435   3.562
 2164SOL    HW1 1957   2.822   3.479   3.474
 2164SOL    HW2 1958   2.881   3.344   3.546
 2166SOL     OW 1959   2.212   2.760   3.666
 2166SOL    HW1 1960   2.288   2.804   3.714
 2166SOL    HW2 1961   2.247   2.713   3.584
 2167SOL     OW 1962   3.402   2.136   1.987
 2167SOL    HW1 1963   3.341   2.061   2.010
 2167SOL    HW2 1964   3.424   2.188   2.070
 2168SOL     OW 1965   3.165   2.700   1.904
 2168SOL    HW1 1966   3.199   2.607   1.919
 2168SOL    HW2 1967   3.183   2.727   1.809
 2169SOL     OW 1968   2.930   3.195   2.711
 2169SOL    HW1 1969   2.937   3.111   2.656
 2169SOL    HW2 1970   2.992   3.264   2.675
 2170SOL     OW 1971   2.181   2.672   2.811
 2170SOL    HW1 1972   2.274   2.708   2.816
 2170SOL    HW2 1973   2.175   2.587   2.863
 2171SOL     OW 1974   3.000   2.242   3.540
 2171SOL    HW1 1975   2.955   2.305   3.604
 2171SOL    HW2 1976   3.093   2.273   3.523
 2172SOL     OW 1977   3.022   2.069   3.339
 2172SOL    HW1 1978   3.022   2.133   3.416
 2172SOL    HW2 1979   3.050   2.117   3.256
 2173SOL     OW 1980   1.870   3.188   2.062
 2173SOL    HW1 1981   1.777   3.209   2.031
 2173SOL    HW2 1982   1.880   3.089   2.075
 2174SOL     OW 1983   1.950   3.663   2.789
 2174SOL    HW1 1984   1.908   3.577   2.762
 2174SOL    HW2 1985   2.044   3.666   2.755
 2175SOL     OW 1986   2.366   3.430   2.772
 2175SOL    HW1 1987   2.432   3.504   2.781
 2175SOL    HW2 1988   2.410   3.351   2.730
 2176SOL     OW 1989   2.864   2.658   3.100
 2176SOL    HW1 1990   2.905   2.626   3.186
 2176SOL    HW2 1991   2.768   2.631   3.097
 2177SOL     OW 1992   1.902   2.406   2.976
 2177SOL    HW1 1993   1.987   2.373   2.935
 2177SOL    HW2 1994   1.915   2.421   3.074
 2178SOL     OW 1995   2.051   2.382   3.584
 2178SOL    HW1 1996   2.110   2.342   3.514
 2178SOL    HW2 1997   1.993   2.453   3.543
 2179SOL     OW 1998   3.231   2.812   3.522
 2179SOL    HW1 1999   3.270   2.901   3.542
 2179SOL    HW2 2000   3.241   2.792   3.425
 2180SOL     OW 2001   2.677   2.434   2.187
 2180SOL    HW1 2002   2.684   2.345   2.141
 2180SOL    HW2 2003   2.583   2.468   2.179
 2181SOL     OW 2004   3.519   2.466   3.068
 2181SOL    HW1 2005   3.481   2.397   3.130
 2181SOL    HW2 2006   3.601   2.430   3.024
 2182SOL     OW 2007   2.114   3.426   3.606
 2182SOL    HW1 2008   2.084   3.483   3.682
 2182SOL    HW2 2009   2.107   3.329   3.632
 2183SOL     OW 2010   2.533   2.326   3.131
 2183SOL    HW1 2011   2.499   2.237   3.101
 2183SOL    HW2 2012   2.559   2.380   3.051
 2184SOL     OW 2013   2.792   3.540   3.327
 2184SOL    HW1 2014   2.768   3.522   3.232
 2184SOL    HW2 2015   2.822   3.634   3.337
 2185SOL     OW 2016   2.021   2.999   3.328
 2185SOL    HW1 2017   2.043   2.938   3.404
 2185SOL    HW2 2018   2.031   2.950   3.242
 2186SOL     OW 2019   3.209   2.921   3.096
 2186SOL    HW1 2020   3.233   2.858   3.022
 2186SOL    HW2 2021   3.119   2.961   3.078
 2187SOL     OW 2022   3.164   2.717   2.171
 2187SOL    HW1 2023   3.078   2.686   2.213
 2187SOL    HW2 2024   3.160   2.703   2.072
 2189SOL     OW 2025   3.114   3.593   2.990
 2189SOL    HW1 2026   3.198   3.598   2.936
 2189SOL    HW2 2027   3.091   3.497   3.008
 2190SOL     OW 2028   1.945   3.120   2.884
 2190SOL    HW1 2029   1.940   3.119   2.984
 2190SOL    HW2 2030   1.862   3.079   2.846
 2191SOL     OW 2031   2.550   3.524   3.578
 2191SOL    HW1 2032   2.494   3.605   3.587
 2191SOL    HW2 2033   2.602   3.528   3.492
 2192SOL     OW 2034   3.588   1.997   2.385
 2192SOL    HW1 2035   3.661   1.980   2.318
 2192SOL    HW2 2036   3.557   1.910   2.423
 2193SOL     OW 2037   3.250   3.435   2.339
 2193SOL    HW1 2038   3.317   3.447   2.265
 2193SOL    HW2 2039   3.210   3.524   2.362
 2195SOL     OW 2040   3.142   2.789   2.534
 2195SOL    HW1 2041   3.202   2.708   2.536
 2195SOL    HW2 2042   3.182   2.858   2.474
 2196SOL     OW 2043   2.692   3.135   3.284
 2196SOL    HW1 2044   2.687   3.168   3.379
 2196SOL    HW2 2045   2.606   3.154   3.238
 2197SOL     OW 2046   2.534   3.478   2.016
 2197SOL    HW1 2047   2.543   3.488   1.917
 2197SOL    HW2 2048   2.494   3.389   2.037
 2199SOL     OW 2049   3.703   2.037   2.825
 2199SOL    HW1 2050   3.742   1.952   2.789
 2199SOL    HW2 2051   3.605   2.039   2.806
 2200SOL     OW 2052   2.125   2.188   2.582
 2200SOL    HW1 2053   2.046   2.239   2.548
 2200SOL    HW2 2054   2.116   2.173   2.680
 2201SOL     OW 2055   3.056   3.474   1.893
 2201SOL    HW1 2056   3.062   3.381   1.930
 2201SOL    HW2 2057   2.997   3.474   1.813
 2202SOL     OW 2058   2.684   2.864   3.234
 2202SOL    HW1 2059   2.724   2.863   3.142
 2202SOL    HW2 2060   2.694   2.956   3.274
 2203SOL     OW 2061   2.778   2.772   2.153
 2203SOL    HW1 2062   2.841   2.810   2.085
 2203SOL    HW2 2063   2.818   2.689   2.192
 2204SOL     OW 2064   3.366   3.469   1.906
 2204SOL    HW1 2065   3.274   3.506   1.913
 2204SOL    HW2 2066   3.404   3.489   1.816
 2205SOL     OW 2067   2.234   3.150   3.352
 2205SOL    HW1 2068   2.221   3.243   3.318
 2205SOL    HW2 2069   2.150   3.098   3.339
 2206SOL     OW 2070   3.476   3.154   3.151
 2206SOL    HW1 2071   3.536   3.157   3.231
 2206SOL    HW2 2072   3.401   3.218   3.164
 2207SOL     OW 2073   2.901   2.960   2.558
 2207SOL    HW1 2074   2.831   2.913   2.612
 2207SOL    HW2 2075   2.960   2.892   2.515
 2208SOL     OW 2076   2.876   2.098   2.833
 2208SOL    HW1 2077   2.868   2.062   2.740
 2208SOL    HW2 2078   2.874   2.022   2.898
 2209SOL     OW 2079   2.452   3.349   2.353
 2209SOL    HW1 2080   2.494   3.291   2.283
 2209SOL    HW2 2081   2.408   3.428   2.309
 2210SOL     OW 2082   3.571   2.247   3.243
 2210SOL    HW1 2083   3.644   2.316   3.247
 2210SOL    HW2 2084   3.599   2.172   3.184
 2211SOL     OW 2085   2.117   3.210   2.152
 2211SOL    HW1 2086   2.021   3.211   2.125
 2211SOL    HW2 2087   2.129   3.263   2.236
 2212SOL     OW 2088   1.967   2.875   3.588
 2212SOL    HW1 2089   1.890   2.842   3.642
 2212SOL    HW2 2090   2.052   2.845   3.630
 2213SOL     OW 2091   2.534   2.065   3.351
 2213SOL    HW1 2092   2.624   2.049   3.311
 2213SOL    HW2 2093   2.542   2.070   3.450
 2214SOL     OW 2094   1.937   2.207   1.895
 2214SOL    HW1 2095   1.845   2.179   1.866
 2214SOL    HW2 2096   1.968   2.284   1.839
 2215SOL     OW 2097   3.302   2.718   3.260
 2215SOL    HW1 2098   3.245   2.770   3.197
 2215SOL    HW2 2099   3.398   2.730   3.236
 2216SOL     OW 2100   1.934   2.028   2.180
 2216SOL    HW1 2101   1.917   2.111   2.126
 2216SOL    HW2 2102   2.024   1.991   2.158
 2217SOL     OW 2103   3.045   3.197   1.981
 2217SOL    HW1 2104   2.946   3.186   1.983
 2217SOL    HW2 2105   3.079   3.212   2.074
 2218SOL     OW 2106   2.475   2.704   3.293
 2218SOL    HW1 2107   2.531   2.785   3.276
 2218SOL    HW2 2108   2.534   2.624   3.296
 2219SOL     OW 2109   3.355   3.629   2.821
 2219SOL    HW1 2110   3.388   3.693   2.752
 2219SOL    HW2 2111   3.421   3.623   2.896
 2220SOL     OW 2112   2.578   2.427   3.570
 2220SOL    HW1 2113   2.597   2.492   3.644
 2220SOL    HW2 2114   2.638   2.347   3.579
 2221SOL     OW 2115   3.312   3.082   3.495
 2221SOL    HW1 2116   3.303   3.072   3.594
 2221SOL    HW2 2117   3.408   3.075   3.469
 2222SOL     OW 2118   2.252   3.603   3.422
 2222SOL    HW1 2119   2.161   3.644   3.420
 2222SOL    HW2 2120   2.245   3.509   3.454
 2223SOL     OW 2121   3.536   2.745   3.116
 2223SOL    HW1 2122   3.509   2.656   3.079
 2223SOL    HW2 2123   3.537   2.813   3.043
 2224SOL     OW 2124   3.087   2.187   2.311
 2224SOL    HW1 2125   3.152   2.113   2.300
 2224SOL    HW2 2126   3.107   2.237   2.395
 2225SOL     OW 2127   2.456   2.607   2.514
 2225SOL    HW1 2128   2.506   2.692   2.495
 2225SOL    HW2 2129   2.368   2.609   2.466
 2226SOL     OW 2130   3.639   2.204   3.504
 2226SOL    HW1 2131   3.622   2.235   3.410
 2226SOL    HW2 2132   3.555   2.167   3.542
 2227SOL     OW 2133   3.592   2.796   3.379
 2227SOL    HW1 2134   3.630   2.887   3.394
 2227SOL    HW2 2135   3.584   2.779   3.280
 2228SOL     OW 2136   2.721   3.236   1.878
 2228SOL    HW1 2137   2.675   3.251   1.966
 2228SOL    HW2 2138   2.765   3.321   1.848
 2229SOL     OW 2139   2.523   3.652   2.815
 2229SOL    HW1 2140   2.477   3.740   2.802
 2229SOL    HW2 2141   2.622   3.664   2.808
 2230SOL     OW 2142   2.721   2.818   2.723
 2230SOL    HW1 2143   2.775   2.749   2.771
 2230SOL    HW2 2144   2.689   2.887   2.789
 2231SOL     OW 2145   2.945   2.846   1.949
 2231SOL    HW1 2146   2.922   2.899   1.867
 2231SOL    HW2 2147   3.026   2.790   1.930
 2233SOL     OW 2148   2.083   3.176   3.706
 2233SOL    HW1 2149   2.018   3.103   3.685
 2233SOL    HW2 2150   2.087   3.190   3.804
 2234SOL     OW 2151   1.941   3.102   2.515
 2234SOL    HW1 2152   1.940   3.055   2.603
 2234SOL    HW2 2153   2.023   3.074   2.464
 2235SOL     OW 2154   2.534   3.253   3.486
 2235SOL    HW1 2155   2.456   3.203   3.524
 2235SOL    HW2 2156   2.531   3.348   3.517
 2236SOL     OW 2157   3.686   2.054   3.089
 2236SOL    HW1 2158   3.682   1.964   3.133
 2236SOL    HW2 2159   3.689   2.043   2.990
 2237SOL     OW 2160   3.567   3.349   2.966
 2237SOL    HW1 2161   3.474   3.324   2.939
 2237SOL    HW2 2162   3.593   3.299   3.048
 2238SOL     OW 2163   2.179   2.409   3.142
 2238SOL    HW1 2164   2.217   2.350   3.214
 2238SOL    HW2 2165   2.219   2.383   3.054
 2239SOL     OW 2166   2.674   3.448   2.549
 2239SOL    HW1 2167   2.706   3.458   2.455
 2239SOL    HW2 2168   2.595   3.386   2.551
 2240SOL     OW 2169   3.286   2.076   2.974
 2240SOL    HW1 2170   3.338   2.011   3.029
 2240SOL    HW2 2171   3.237   2.139   3.035
 2241SOL     OW 2172   2.863   1.896   3.016
 2241SOL    HW1 2173   2.800   1.824   2.985
 2241SOL    HW2 2174   2.956   1.860   3.016
 2242SOL     OW 2175   2.632   3.192   2.163
 2242SOL    HW1 2176   2.586   3.105   2.180
 2242SOL    HW2 2177   2.723   3.189   2.204
 2243SOL     OW 2178   2.480   3.429   3.146
 2243SOL    HW1 2179   2.475   3.511   3.203
 2243SOL    HW2 2180   2.569   3.426   3.101
 2244SOL     OW 2181   3.214   1.914   2.030
 2244SOL    HW1 2182   3.249   1.873   1.946
 2244SOL    HW2 2183   3.124   1.876   2.050
 2245SOL     OW 2184   3.162   2.315   2.553
 2245SOL    HW1 2185   3.103   2.395   2.557
 2245SOL    HW2 2186   3.177   2.280   2.646
 2246SOL     OW 2187   3.455   2.083   2.744
 2246SOL    HW1 2188   3.371   2.082   2.798
 2246SOL    HW2 2189   3.457   2.166   2.688
 2247SOL     OW 2190   1.901   2.939   2.162
 2247SOL    HW1 2191   2.000   2.928   2.153
 2247SOL    HW2 2192   1.861   2.853   2.194
 2248SOL     OW 2193   2.737   3.508   2.199
 2248SOL    HW1 2194   2.660   3.473   2.145
 2248SOL    HW2 2195   2.705   3.579   2.261
 2249SOL     OW 2196   2.092   2.490   3.837
 2249SOL    HW1 2197   1.999   2.488   3.874
 2249SOL    HW2 2198   2.093   2.451   3.745
 2261SOL     OW 2199   2.468   2.826   3.847
 2261SOL    HW1 2200   2.475   2.910   3.793
 2261SOL    HW2 2201   2.514   2.839   3.935
 2271SOL     OW 2202   2.460   2.591   3.994
 2271SOL    HW1 2203   2.484   2.660   3.926
 2271SOL    HW2 2204   2.382   2.624   4.048
 2276SOL     OW 2205   2.727   2.210   3.919
 2276SOL    HW1 2206   2.786   2.273   3.870
 2276SOL    HW2 2207   2.746   2.116   3.890
 2282SOL     OW 2208   2.183   2.805   3.966
 2282SOL    HW1 2209   2.265   2.844   3.924
 2282SOL    HW2 2210   2.156   2.723   3.917
 2289SOL     OW 2211   2.476   1.984   3.841
 2289SOL    HW1 2212   2.574   1.962   3.848
 2289SOL    HW2 2213   2.445   1.967   3.748
 2292SOL     OW 2214   2.159   1.897   3.895
 2292SOL    HW1 2215   2.208   1.981   3.874
 2292SOL    HW2 2216   2.221   1.832   3.940
 2296SOL     OW 2217   2.894   2.411   3.740
 2296SOL    HW1 2218   2.853   2.493   3.701
 2296SOL    HW2 2219   2.958   2.437   3.813
 2302SOL     OW 2220   3.252   2.437   3.802
 2302SOL    HW1 2221   3.198   2.416   3.883
 2302SOL    HW2 2222   3.343   2.396   3.811
 2303SOL     OW 2223   2.389   2.118   4.052
 2303SOL    HW1 2224   2.416   2.059   3.977
 2303SOL    HW2 2225   2.389   2.213   4.021
 2313SOL     OW 2226   3.165   2.700   3.766
 2313SOL    HW1 2227   3.199   2.607   3.781
 2313SOL    HW2 2228   3.183   2.727   3.671
 2317SOL     OW 2229   2.677   2.434   4.049
 2317SOL    HW1 2230   2.684   2.345   4.003
 2317SOL    HW2 2231   2.583   2.468   4.041
 2318SOL     OW 2232   2.335   2.362   3.915
 2318SOL    HW1 2233   2.396   2.442   3.919
 2318SOL    HW2 2234   2.240   2.393   3.922
 2332SOL     OW 2235   1.937   2.207   3.757
 2332SOL    HW1 2236   1.845   2.179   3.728
 2332SOL    HW2 2237   1.968   2.284   3.701
 2333SOL     OW 2238   1.934   2.028   4.042
 2333SOL    HW1 2239   1.917   2.111   3.988
 2333SOL    HW2 2240   2.024   1.991   4.020
 2337SOL     OW 2241   2.721   3.236   3.740
 2337SOL    HW1 2242   2.675   3.251   3.828
 2337SOL    HW2 2243   2.765   3.321   3.710
 2340SOL     OW 2244   2.945   2.846   3.811
 2340SOL    HW1 2245   2.922   2.899   3.729
 2340SOL    HW2 2246   3.026   2.790   3.792
 2363SOL     OW 2247   2.179   3.975   1.801
 2363SOL    HW1 2248   2.250   4.046   1.807
 2363SOL    HW2 2249   2.091   4.014   1.829
 2379SOL     OW 2250   2.643   3.988   1.749
 2379SOL    HW1 2251   2.710   3.927   1.792
 2379SOL    HW2 2252   2.570   4.007   1.814
 2403SOL     OW 2253   2.875   3.829   1.770
 2403SOL    HW1 2254   2.881   3.914   1.718
 2403SOL    HW2 2255   2.907   3.753   1.713
 2404SOL     OW 2256   2.366   3.774   1.740
 2404SOL    HW1 2257   2.324   3.717   1.670
 2404SOL    HW2 2258   2.300   3.843   1.772
 2453SOL     OW 2259   2.087   3.999   2.858
 2453SOL    HW1 2260   2.122   3.982   2.950
 2453SOL    HW2 2261   1.999   3.954   2.846
 2464SOL     OW 2262   2.671   3.728   2.364
 2464SOL    HW1 2263   2.711   3.819   2.355
 2464SOL    HW2 2264   2.571   3.736   2.370
 2475SOL     OW 2265   2.412   3.920   2.747
 2475SOL    HW1 2266   2.407   3.915   2.847
 2475SOL    HW2 2267   2.414   4.016   2.718
 2478SOL     OW 2268   3.262   3.831   2.288
 2478SOL    HW1 2269   3.238   3.794   2.198
 2478SOL    HW2 2270   3.361   3.847   2.292
 2481SOL     OW 2271   2.476   3.846   1.979
 2481SOL    HW1 2272   2.574   3.824   1.986
 2481SOL    HW2 2273   2.445   3.829   1.886
 2485SOL     OW 2274   2.401   3.788   2.374
 2485SOL    HW1 2275   2.320   3.789   2.432
 2485SOL    HW2 2276   2.404   3.871   2.319
 2486SOL     OW 2277   2.159   3.759   2.033
 2486SOL    HW1 2278   2.208   3.843   2.012
 2486SOL    HW2 2279   2.221   3.694   2.078
 2487SOL     OW 2280   2.797   3.960   2.342
 2487SOL    HW1 2281   2.749   4.001   2.264
 2487SOL    HW2 2282   2.896   3.958   2.323
 2492SOL     OW 2283   2.423   3.946   3.009
 2492SOL    HW1 2284   2.461   3.862   3.046
 2492SOL    HW2 2285   2.335   3.965   3.053
 2494SOL     OW 2286   2.879   3.763   2.615
 2494SOL    HW1 2287   2.807   3.768   2.546
 2494SOL    HW2 2288   2.855   3.694   2.684
 2498SOL     OW 2289   2.389   3.980   2.190
 2498SOL    HW1 2290   2.416   3.921   2.115
 2498SOL    HW2 2291   2.389   4.075   2.159
 2511SOL     OW 2292   2.169   3.937   3.093
 2511SOL    HW1 2293   2.146   3.974   3.183
 2511SOL    HW2 2294   2.139   3.842   3.087
 2514SOL     OW 2295   2.169   3.787   2.480
 2514SOL    HW1 2296   2.158   3.881   2.513
 2514SOL    HW2 2297   2.164   3.724   2.557
 2532SOL     OW 2298   2.125   4.050   2.582
 2532SOL    HW1 2299   2.046   4.101   2.548
 2532SOL    HW2 2300   2.116   4.035   2.680
 2540SOL     OW 2301   1.934   3.890   2.180
 2540SOL    HW1 2302   1.917   3.973   2.126
 2540SOL    HW2 2303   2.024   3.853   2.158
 2552SOL     OW 2304   2.863   3.758   3.016
 2552SOL    HW1 2305   2.800   3.686   2.985
 2552SOL    HW2 2306   2.956   3.722   3.016
 2553SOL     OW 2307   3.214   3.776   2.030
 2553SOL    HW1 2308   3.249   3.735   1.946
 2553SOL    HW2 2309   3.124   3.738   2.050
 2631SOL     OW 2310   3.854   1.821   1.571
 2631SOL    HW1 2311   3.844   1.806   1.670
 2631SOL    HW2 2312   3.768   1.857   1.535
 2683SOL     OW 2313   3.854   1.794   1.851
 2683SOL    HW1 2314   3.813   1.720   1.904
 2683SOL    HW2 2315   3.918   1.845   1.909
 2718SOL     OW 2316   3.955   1.713   2.345
 2718SOL    HW1 2317   3.989   1.790   2.399
 2718SOL    HW2 2318   3.999   1.713   2.255
 2724SOL     OW 2319   3.751   1.596   1.979
 2724SOL    HW1 2320   3.732   1.500   2.000
 2724SOL    HW2 2321   3.718   1.654   2.054
 2772SOL     OW 2322   3.732   1.326   2.062
 2772SOL    HW1 2323   3.639   1.347   2.031
 2772SOL    HW2 2324   3.742   1.227   2.075
 2773SOL     OW 2325   3.812   1.801   2.789
 2773SOL    HW1 2326   3.770   1.715   2.762
 2773SOL    HW2 2327   3.906   1.804   2.755
 2873SOL     OW 2328   3.837   2.599   1.597
 2873SOL    HW1 2329   3.925   2.586   1.642
 2873SOL    HW2 2330   3.824   2.696   1.575
 2897SOL     OW 2331   3.802   2.418   1.386
 2897SOL    HW1 2332   3.894   2.417   1.345
 2897SOL    HW2 2333   3.796   2.492   1.453
 2923SOL     OW 2334   3.913   2.382   1.722
 2923SOL    HW1 2335   3.972   2.342   1.652
 2923SOL    HW2 2336   3.855   2.453   1.681
 2941SOL     OW 2337   3.829   2.875   1.726
 2941SOL    HW1 2338   3.752   2.842   1.780
 2941SOL    HW2 2339   3.914   2.845   1.768
 2957SOL     OW 2340   3.954   2.490   1.975
 2957SOL    HW1 2341   3.861   2.488   2.012
 2957SOL    HW2 2342   3.955   2.451   1.883
 2958SOL     OW 2343   3.949   2.137   2.858
 2958SOL    HW1 2344   3.984   2.120   2.950
 2958SOL    HW2 2345   3.861   2.092   2.846
 2959SOL     OW 2346   3.743   2.230   2.509
 2959SOL    HW1 2347   3.661   2.273   2.548
 2959SOL    HW2 2348   3.715   2.157   2.446
 2971SOL     OW 2349   3.846   2.505   2.425
 2971SOL    HW1 2350   3.801   2.417   2.442
 2971SOL    HW2 2351   3.845   2.559   2.509
 2980SOL     OW 2352   3.800   2.673   2.651
 2980SOL    HW1 2353   3.899   2.661   2.660
 2980SOL    HW2 2354   3.776   2.768   2.672
 2990SOL     OW 2355   4.106   2.562   2.342
 2990SOL    HW1 2356   4.151   2.472   2.339
 2990SOL    HW2 2357   4.012   2.551   2.375
 2996SOL     OW 2358   4.021   1.897   2.033
 2996SOL    HW1 2359   4.070   1.981   2.012
 2996SOL    HW2 2360   4.083   1.832   2.078
 2998SOL     OW 2361   3.802   2.418   3.248
 2998SOL    HW1 2362   3.894   2.417   3.207
 2998SOL    HW2 2363   3.796   2.492   3.315
 3014SOL     OW 2364   4.031   1.925   2.480
 3014SOL    HW1 2365   4.020   2.019   2.513
 3014SOL    HW2 2366   4.026   1.862   2.557
 3020SOL     OW 2367   3.732   3.188   2.062
 3020SOL    HW1 2368   3.639   3.209   2.031
 3020SOL    HW2 2369   3.742   3.089   2.075
 3023SOL     OW 2370   3.764   2.406   2.976
 3023SOL    HW1 2371   3.849   2.373   2.935
 3023SOL    HW2 2372   3.777   2.421   3.074
 3030SOL     OW 2373   3.807   3.120   2.884
 3030SOL    HW1 2374   3.802   3.119   2.984
 3030SOL    HW2 2375   3.724   3.079   2.846
 3036SOL     OW 2376   3.987   2.188   2.582
 3036SOL    HW1 2377   3.908   2.239   2.548
 3036SOL    HW2 2378   3.978   2.173   2.680
 3043SOL     OW 2379   3.799   2.207   1.895
 3043SOL    HW1 2380   3.707   2.179   1.866
 3043SOL    HW2 2381   3.830   2.284   1.839
 3044SOL     OW 2382   3.796   2.028   2.180
 3044SOL    HW1 2383   3.779   2.111   2.126
 3044SOL    HW2 2384   3.886   1.991   2.158
 3051SOL     OW 2385   3.803   3.102   2.515
 3051SOL    HW1 2386   3.802   3.055   2.603
 3051SOL    HW2 2387   3.885   3.074   2.464
 3057SOL     OW 2388   3.763   2.939   2.162
 3057SOL    HW1 2389   3.862   2.928   2.153
 3057SOL    HW2 2390   3.723   2.853   2.194
   4.64632   4.64632   4.64632
