; mobley_5917842_GMX.itp created by acpype (v: 2023.10.27) on Thu May 21 00:13:37 2026

[ atomtypes ]
;name   bond_type     mass     charge   ptype   sigma         epsilon       Amb
 ca       ca          0.00000  0.00000   A     3.31521e-01   4.13379e-01 ; 1.86  0.0988
 c3       c3          0.00000  0.00000   A     3.39771e-01   4.51035e-01 ; 1.91  0.1078
 oh       oh          0.00000  0.00000   A     3.24287e-01   3.89112e-01 ; 1.82  0.0930
 os       os          0.00000  0.00000   A     3.15610e-01   3.03758e-01 ; 1.77  0.0726
 ha       ha          0.00000  0.00000   A     2.62548e-01   6.73624e-02 ; 1.47  0.0161
 hc       hc          0.00000  0.00000   A     2.60018e-01   8.70272e-02 ; 1.46  0.0208
 h1       h1          0.00000  0.00000   A     2.42200e-01   8.70272e-02 ; 1.36  0.0208
 ho       ho          0.00000  0.00000   A     5.37925e-02   1.96648e-02 ; 0.30  0.0047

[ moleculetype ]
;name            nrexcl
 mobley_5917842   3

[ atoms ]
;   nr  type  resi  res  atom  cgnr     charge      mass       ; qtot   bond_type
     1   ca     1   MOL    C1    1    -0.125000     12.01000 ; qtot -0.125
     2   ca     1   MOL    C2    2    -0.185000     12.01000 ; qtot -0.310
     3   ca     1   MOL    C3    3    -0.178000     12.01000 ; qtot -0.488
     4   ca     1   MOL    C4    4    -0.076300     12.01000 ; qtot -0.564
     5   ca     1   MOL    C5    5     0.098100     12.01000 ; qtot -0.466
     6   ca     1   MOL    C6    6     0.105100     12.01000 ; qtot -0.361
     7   c3     1   MOL    C7    7    -0.049800     12.01000 ; qtot -0.411
     8   c3     1   MOL    C8    8     0.110700     12.01000 ; qtot -0.300
     9   oh     1   MOL    O1    9    -0.477102     16.00000 ; qtot -0.777
    10   os     1   MOL    O2   10    -0.303900     16.00000 ; qtot -1.081
    11   ha     1   MOL    H1   11     0.134000      1.00800 ; qtot -0.947
    12   ha     1   MOL    H2   12     0.135000      1.00800 ; qtot -0.812
    13   ha     1   MOL    H3   13     0.139000      1.00800 ; qtot -0.673
    14   hc     1   MOL    H4   14     0.043367      1.00800 ; qtot -0.630
    15   hc     1   MOL    H5   15     0.043367      1.00800 ; qtot -0.586
    16   hc     1   MOL    H6   16     0.043367      1.00800 ; qtot -0.543
    17   h1     1   MOL    H7   17     0.043367      1.00800 ; qtot -0.500
    18   h1     1   MOL    H8   18     0.043367      1.00800 ; qtot -0.456
    19   h1     1   MOL    H9   19     0.043367      1.00800 ; qtot -0.413
    20   ho     1   MOL   H10   20     0.413000      1.00800 ; qtot -0.000

[ bonds ]
;   ai     aj funct   r             k
     1      2   1    1.3986e-01    2.9644e+05 ;     C1 - C2    
     1      4   1    1.3986e-01    2.9644e+05 ;     C1 - C4    
     1     11   1    1.0860e-01    3.0183e+05 ;     C1 - H1    
     2      5   1    1.3986e-01    2.9644e+05 ;     C2 - C5    
     2     12   1    1.0860e-01    3.0183e+05 ;     C2 - H2    
     3      4   1    1.3986e-01    2.9644e+05 ;     C3 - C4    
     3      6   1    1.3986e-01    2.9644e+05 ;     C3 - C6    
     3     13   1    1.0860e-01    3.0183e+05 ;     C3 - H3    
     4      7   1    1.5147e-01    2.0410e+05 ;     C4 - C7    
     5      6   1    1.3986e-01    2.9644e+05 ;     C5 - C6    
     5      9   1    1.3644e-01    2.9167e+05 ;     C5 - O1    
     6     10   1    1.3688e-01    2.8731e+05 ;     C6 - O2    
     7     14   1    1.0962e-01    2.8891e+05 ;     C7 - H4    
     7     15   1    1.0962e-01    2.8891e+05 ;     C7 - H5    
     7     16   1    1.0962e-01    2.8891e+05 ;     C7 - H6    
     8     10   1    1.4273e-01    2.3620e+05 ;     C8 - O2    
     8     17   1    1.0969e-01    2.8804e+05 ;     C8 - H7    
     8     18   1    1.0969e-01    2.8804e+05 ;     C8 - H8    
     8     19   1    1.0969e-01    2.8804e+05 ;     C8 - H9    
     9     20   1    9.7250e-02    4.4811e+05 ;     O1 - H10   

[ pairs ]
;   ai     aj    funct
     1      6      1 ;     C1 - C6    
     1      9      1 ;     C1 - O1    
     1     13      1 ;     C1 - H3    
     1     14      1 ;     C1 - H4    
     1     15      1 ;     C1 - H5    
     1     16      1 ;     C1 - H6    
     2      3      1 ;     C2 - C3    
     2      7      1 ;     C2 - C7    
     2     10      1 ;     C2 - O2    
     2     20      1 ;     C2 - H10   
     3      8      1 ;     C3 - C8    
     3      9      1 ;     C3 - O1    
     3     14      1 ;     C3 - H4    
     3     15      1 ;     C3 - H5    
     3     16      1 ;     C3 - H6    
     4      5      1 ;     C4 - C5    
     4     10      1 ;     C4 - O2    
     4     12      1 ;     C4 - H2    
     5      8      1 ;     C5 - C8    
     5     13      1 ;     C5 - H3    
     6      7      1 ;     C6 - C7    
     6     12      1 ;     C6 - H2    
     6     17      1 ;     C6 - H7    
     6     18      1 ;     C6 - H8    
     6     19      1 ;     C6 - H9    
     6     20      1 ;     C6 - H10   
     7     13      1 ;     C7 - H3    
     9     10      1 ;     O1 - O2    
     9     12      1 ;     O1 - H2    
    10     13      1 ;     O2 - H3    
    11      3      1 ;     H1 - C3    
    11      5      1 ;     H1 - C5    
    11      7      1 ;     H1 - C7    
    11     12      1 ;     H1 - H2    

[ angles ]
;   ai     aj     ak    funct   theta         cth
     1      2      5      1    1.2002e+02    5.3279e+02 ;     C1 - C2     - C5    
     1      2     12      1    1.1988e+02    3.7572e+02 ;     C1 - C2     - H2    
     1      4      3      1    1.2002e+02    5.3279e+02 ;     C1 - C4     - C3    
     1      4      7      1    1.2083e+02    5.0827e+02 ;     C1 - C4     - C7    
     2      1      4      1    1.2002e+02    5.3279e+02 ;     C2 - C1     - C4    
     2      1     11      1    1.1988e+02    3.7572e+02 ;     C2 - C1     - H1    
     2      5      6      1    1.2002e+02    5.3279e+02 ;     C2 - C5     - C6    
     2      5      9      1    1.1990e+02    6.5990e+02 ;     C2 - C5     - O1    
     3      4      7      1    1.2083e+02    5.0827e+02 ;     C3 - C4     - C7    
     3      6      5      1    1.2002e+02    5.3279e+02 ;     C3 - C6     - C5    
     3      6     10      1    1.1911e+02    6.6107e+02 ;     C3 - C6     - O2    
     4      1     11      1    1.1988e+02    3.7572e+02 ;     C4 - C1     - H1    
     4      3      6      1    1.2002e+02    5.3279e+02 ;     C4 - C3     - C6    
     4      3     13      1    1.1988e+02    3.7572e+02 ;     C4 - C3     - H3    
     4      7     14      1    1.1063e+02    3.6493e+02 ;     C4 - C7     - H4    
     4      7     15      1    1.1063e+02    3.6493e+02 ;     C4 - C7     - H5    
     4      7     16      1    1.1063e+02    3.6493e+02 ;     C4 - C7     - H6    
     5      2     12      1    1.1988e+02    3.7572e+02 ;     C5 - C2     - H2    
     5      6     10      1    1.1911e+02    6.6107e+02 ;     C5 - C6     - O2    
     5      9     20      1    1.0858e+02    5.6409e+02 ;     C5 - O1     - H10   
     6      3     13      1    1.1988e+02    3.7572e+02 ;     C6 - C3     - H3    
     6      5      9      1    1.1990e+02    6.5990e+02 ;     C6 - C5     - O1    
     6     10      8      1    1.1839e+02    7.3856e+02 ;     C6 - O2     - C8    
    10      8     17      1    1.1034e+02    4.7028e+02 ;     O2 - C8     - H7    
    10      8     18      1    1.1034e+02    4.7028e+02 ;     O2 - C8     - H8    
    10      8     19      1    1.1034e+02    4.7028e+02 ;     O2 - C8     - H9    
    14      7     15      1    1.0773e+02    2.9957e+02 ;     H4 - C7     - H5    
    14      7     16      1    1.0773e+02    2.9957e+02 ;     H4 - C7     - H6    
    15      7     16      1    1.0773e+02    2.9957e+02 ;     H5 - C7     - H6    
    17      8     18      1    1.0855e+02    2.9824e+02 ;     H7 - C8     - H8    
    17      8     19      1    1.0855e+02    2.9824e+02 ;     H7 - C8     - H9    
    18      8     19      1    1.0855e+02    2.9824e+02 ;     H8 - C8     - H9    

[ dihedrals ] ; propers
; for gromacs 4.5 or higher, using funct 9
;    i      j      k      l   func   phase     kd      pn
     1      2      5      6      9   180.00  15.16700   2 ;     C1-    C2-    C5-    C6
     1      2      5      9      9   180.00  15.16700   2 ;     C1-    C2-    C5-    O1
     1      4      3      6      9   180.00  15.16700   2 ;     C1-    C4-    C3-    C6
     1      4      3     13      9   180.00  15.16700   2 ;     C1-    C4-    C3-    H3
     1      4      7     14      9     0.00   0.00000   0 ;     C1-    C4-    C7-    H4
     1      4      7     15      9     0.00   0.00000   0 ;     C1-    C4-    C7-    H5
     1      4      7     16      9     0.00   0.00000   0 ;     C1-    C4-    C7-    H6
     2      1      4      3      9   180.00  15.16700   2 ;     C2-    C1-    C4-    C3
     2      1      4      7      9   180.00  15.16700   2 ;     C2-    C1-    C4-    C7
     2      5      6      3      9   180.00  15.16700   2 ;     C2-    C5-    C6-    C3
     2      5      6     10      9   180.00  15.16700   2 ;     C2-    C5-    C6-    O2
     2      5      9     20      9   180.00   3.57732   2 ;     C2-    C5-    O1-   H10
     3      4      7     14      9     0.00   0.00000   0 ;     C3-    C4-    C7-    H4
     3      4      7     15      9     0.00   0.00000   0 ;     C3-    C4-    C7-    H5
     3      4      7     16      9     0.00   0.00000   0 ;     C3-    C4-    C7-    H6
     3      6      5      9      9   180.00  15.16700   2 ;     C3-    C6-    C5-    O1
     3      6     10      8      9   180.00   6.94544   2 ;     C3-    C6-    O2-    C8
     4      1      2      5      9   180.00  15.16700   2 ;     C4-    C1-    C2-    C5
     4      1      2     12      9   180.00  15.16700   2 ;     C4-    C1-    C2-    H2
     4      3      6      5      9   180.00  15.16700   2 ;     C4-    C3-    C6-    C5
     4      3      6     10      9   180.00  15.16700   2 ;     C4-    C3-    C6-    O2
     5      6      3     13      9   180.00  15.16700   2 ;     C5-    C6-    C3-    H3
     5      6     10      8      9   180.00   6.94544   2 ;     C5-    C6-    O2-    C8
     6      3      4      7      9   180.00  15.16700   2 ;     C6-    C3-    C4-    C7
     6      5      2     12      9   180.00  15.16700   2 ;     C6-    C5-    C2-    H2
     6      5      9     20      9   180.00   3.57732   2 ;     C6-    C5-    O1-   H10
     6     10      8     17      9     0.00   1.60387   3 ;     C6-    O2-    C8-    H7
     6     10      8     18      9     0.00   1.60387   3 ;     C6-    O2-    C8-    H8
     6     10      8     19      9     0.00   1.60387   3 ;     C6-    O2-    C8-    H9
     7      4      3     13      9   180.00  15.16700   2 ;     C7-    C4-    C3-    H3
     9      5      2     12      9   180.00  15.16700   2 ;     O1-    C5-    C2-    H2
     9      5      6     10      9   180.00  15.16700   2 ;     O1-    C5-    C6-    O2
    10      6      3     13      9   180.00  15.16700   2 ;     O2-    C6-    C3-    H3
    11      1      2      5      9   180.00  15.16700   2 ;     H1-    C1-    C2-    C5
    11      1      2     12      9   180.00  15.16700   2 ;     H1-    C1-    C2-    H2
    11      1      4      3      9   180.00  15.16700   2 ;     H1-    C1-    C4-    C3
    11      1      4      7      9   180.00  15.16700   2 ;     H1-    C1-    C4-    C7

[ dihedrals ] ; impropers
; treated as propers in GROMACS to use correct AMBER analytical function
;    i      j      k      l   func   phase     kd      pn
     1      3      4      7      4   180.00   4.60240   2 ;     C1-    C3-    C4-    C7
     1      5      2     12      4   180.00   4.60240   2 ;     C1-    C5-    C2-    H2
     2      6      5      9      4   180.00   4.60240   2 ;     C2-    C6-    C5-    O1
     3      5      6     10      4   180.00   4.60240   2 ;     C3-    C5-    C6-    O2
     4      6      3     13      4   180.00   4.60240   2 ;     C4-    C6-    C3-    H3
    11      1      4      2      4   180.00   4.60240   2 ;     H1-    C1-    C4-    C2
