mobley_9460824_GMX.gro created by acpype (v: 2023.10.27) on Tue May 19 14:13:28 2026
 2409
    1MOL     C1    1   2.249   2.648   2.392
    1MOL     C2    2   2.304   2.557   2.987
    1MOL     C3    3   3.166   2.482   2.417
    1MOL     C4    4   2.369   2.705   2.464
    1MOL     C5    5   2.376   2.653   2.895
    1MOL     C6    6   3.045   2.560   2.466
    1MOL     C7    7   2.783   2.568   2.549
    1MOL     O1    8   2.373   2.651   2.595
    1MOL     O2    9   2.465   2.579   2.813
    1MOL     P1   10   2.516   2.643   2.672
    1MOL     S1   11   2.601   2.817   2.695
    1MOL     S2   12   2.905   2.447   2.492
    1MOL     S3   13   2.625   2.488   2.580
    1MOL     H1   14   2.256   2.539   2.387
    1MOL     H2   15   2.157   2.671   2.447
    1MOL     H3   16   2.241   2.688   2.291
    1MOL     H4   17   2.247   2.484   2.928
    1MOL     H5   18   2.375   2.501   3.048
    1MOL     H6   19   2.235   2.610   3.053
    1MOL     H7   20   3.198   2.408   2.490
    1MOL     H8   21   3.146   2.432   2.322
    1MOL     H9   22   3.250   2.551   2.401
    1MOL    H10   23   2.361   2.814   2.471
    1MOL    H11   24   2.461   2.680   2.409
    1MOL    H12   25   2.434   2.725   2.954
    1MOL    H13   26   2.304   2.708   2.834
    1MOL    H14   27   3.017   2.635   2.391
    1MOL    H15   28   3.069   2.611   2.560
    1MOL    H16   29   2.819   2.614   2.642
    1MOL    H17   30   2.770   2.646   2.473
   97SOL     OW   31   1.592   1.629   1.625
   97SOL    HW1   32   1.619   1.663   1.535
   97SOL    HW2   33   1.671   1.591   1.671
  127SOL     OW   34   1.859   1.518   1.605
  127SOL    HW1   35   1.873   1.545   1.510
  127SOL    HW2   36   1.942   1.540   1.658
  163SOL     OW   37   1.650   1.720   1.394
  163SOL    HW1   38   1.703   1.730   1.310
  163SOL    HW2   39   1.623   1.810   1.428
  219SOL     OW   40   1.555   1.511   2.565
  219SOL    HW1   41   1.498   1.495   2.646
  219SOL    HW2   42   1.496   1.521   2.485
  227SOL     OW   43   1.460   1.505   3.201
  227SOL    HW1   44   1.484   1.599   3.227
  227SOL    HW2   45   1.444   1.451   3.283
  238SOL     OW   46   1.842   1.767   2.221
  238SOL    HW1   47   1.896   1.738   2.301
  238SOL    HW2   48   1.872   1.857   2.192
  250SOL     OW   49   1.466   1.417   2.815
  250SOL    HW1   50   1.407   1.423   2.895
  250SOL    HW2   51   1.451   1.329   2.769
  251SOL     OW   52   1.667   1.714   2.434
  251SOL    HW1   53   1.626   1.691   2.346
  251SOL    HW2   54   1.649   1.640   2.499
  254SOL     OW   55   1.576   1.662   2.169
  254SOL    HW1   56   1.665   1.708   2.172
  254SOL    HW2   57   1.555   1.638   2.074
  268SOL     OW   58   1.795   1.066   2.735
  268SOL    HW1   59   1.733   1.051   2.659
  268SOL    HW2   60   1.743   1.077   2.820
  273SOL     OW   61   1.111   1.776   2.099
  273SOL    HW1   62   1.051   1.714   2.149
  273SOL    HW2   63   1.142   1.732   2.014
  275SOL     OW   64   1.632   1.377   1.943
  275SOL    HW1   65   1.600   1.471   1.933
  275SOL    HW2   66   1.556   1.314   1.931
  293SOL     OW   67   1.227   1.570   2.655
  293SOL    HW1   68   1.248   1.644   2.590
  293SOL    HW2   69   1.295   1.570   2.728
  295SOL     OW   70   1.271   1.797   2.453
  295SOL    HW1   71   1.315   1.861   2.389
  295SOL    HW2   72   1.221   1.849   2.523
  305SOL     OW   73   1.664   1.280   2.519
  305SOL    HW1   74   1.763   1.288   2.533
  305SOL    HW2   75   1.619   1.364   2.550
  310SOL     OW   76   1.592   1.629   3.487
  310SOL    HW1   77   1.619   1.663   3.397
  310SOL    HW2   78   1.671   1.591   3.533
  340SOL     OW   79   1.859   1.518   3.467
  340SOL    HW1   80   1.873   1.545   3.372
  340SOL    HW2   81   1.942   1.540   3.520
  365SOL     OW   82   1.759   1.747   3.016
  365SOL    HW1   83   1.820   1.777   2.943
  365SOL    HW2   84   1.721   1.658   2.994
  366SOL     OW   85   1.252   1.731   2.990
  366SOL    HW1   86   1.336   1.736   2.936
  366SOL    HW2   87   1.229   1.635   3.008
  370SOL     OW   88   1.388   1.573   2.339
  370SOL    HW1   89   1.455   1.585   2.265
  370SOL    HW2   90   1.348   1.662   2.362
  375SOL     OW   91   1.650   1.720   3.256
  375SOL    HW1   92   1.703   1.730   3.172
  375SOL    HW2   93   1.623   1.810   3.290
  381SOL     OW   94   1.504   1.607   1.906
  381SOL    HW1   95   1.412   1.644   1.913
  381SOL    HW2   96   1.542   1.627   1.816
  383SOL     OW   97   1.614   1.292   3.151
  383SOL    HW1   98   1.674   1.295   3.231
  383SOL    HW2   99   1.539   1.356   3.164
  396SOL     OW  100   1.493   1.767   2.821
  396SOL    HW1  101   1.526   1.831   2.752
  396SOL    HW2  102   1.559   1.761   2.896
  409SOL     OW  103   1.861   1.569   2.713
  409SOL    HW1  104   1.790   1.557   2.643
  409SOL    HW2  105   1.862   1.490   2.773
  415SOL     OW  106   1.705   1.487   2.966
  415SOL    HW1  107   1.612   1.462   2.939
  415SOL    HW2  108   1.731   1.437   3.048
  614SOL     OW  109   1.594   1.976   1.480
  614SOL    HW1  110   1.576   2.043   1.408
  614SOL    HW2  111   1.591   2.022   1.569
  634SOL     OW  112   1.394   2.331   1.674
  634SOL    HW1  113   1.374   2.374   1.762
  634SOL    HW2  114   1.472   2.269   1.683
  641SOL     OW  115   1.719   2.447   1.831
  641SOL    HW1  116   1.693   2.536   1.795
  641SOL    HW2  117   1.717   2.379   1.758
  659SOL     OW  118   1.547   2.084   1.729
  659SOL    HW1  119   1.542   2.121   1.821
  659SOL    HW2  120   1.475   2.015   1.717
  662SOL     OW  121   1.351   2.452   1.433
  662SOL    HW1  122   1.379   2.409   1.518
  662SOL    HW2  123   1.376   2.548   1.434
  684SOL     OW  124   1.754   3.085   1.588
  684SOL    HW1  125   1.845   3.046   1.575
  684SOL    HW2  126   1.762   3.181   1.612
  686SOL     OW  127   1.592   3.491   1.625
  686SOL    HW1  128   1.619   3.525   1.535
  686SOL    HW2  129   1.671   3.453   1.671
  702SOL     OW  130   1.587   2.641   1.670
  702SOL    HW1  131   1.495   2.679   1.665
  702SOL    HW2  132   1.647   2.688   1.605
  711SOL     OW  133   1.728   2.797   1.854
  711SOL    HW1  134   1.682   2.790   1.765
  711SOL    HW2  135   1.666   2.841   1.920
  716SOL     OW  136   1.859   3.380   1.605
  716SOL    HW1  137   1.873   3.407   1.510
  716SOL    HW2  138   1.942   3.402   1.658
  723SOL     OW  139   1.138   2.242   1.678
  723SOL    HW1  140   1.093   2.305   1.742
  723SOL    HW2  141   1.231   2.273   1.661
  731SOL     OW  142   1.369   2.812   1.660
  731SOL    HW1  143   1.408   2.901   1.680
  731SOL    HW2  144   1.379   2.792   1.563
  733SOL     OW  145   1.657   2.466   1.206
  733SOL    HW1  146   1.619   2.397   1.268
  733SOL    HW2  147   1.739   2.430   1.162
  760SOL     OW  148   1.614   3.154   1.289
  760SOL    HW1  149   1.674   3.157   1.369
  760SOL    HW2  150   1.539   3.218   1.302
  764SOL     OW  151   1.709   2.247   1.381
  764SOL    HW1  152   1.782   2.316   1.385
  764SOL    HW2  153   1.737   2.172   1.322
  769SOL     OW  154   1.440   2.718   1.398
  769SOL    HW1  155   1.383   2.770   1.335
  769SOL    HW2  156   1.536   2.730   1.374
  775SOL     OW  157   1.450   3.082   1.633
  775SOL    HW1  158   1.441   3.072   1.732
  775SOL    HW2  159   1.546   3.075   1.607
  777SOL     OW  160   1.674   2.745   1.254
  777SOL    HW1  161   1.647   2.656   1.217
  777SOL    HW2  162   1.675   2.813   1.181
  780SOL     OW  163   1.777   2.204   1.642
  780SOL    HW1  164   1.760   2.235   1.548
  780SOL    HW2  165   1.693   2.167   1.680
  781SOL     OW  166   1.730   2.796   1.517
  781SOL    HW1  167   1.768   2.887   1.532
  781SOL    HW2  168   1.722   2.779   1.418
  790SOL     OW  169   1.824   2.054   1.227
  790SOL    HW1  170   1.820   1.964   1.271
  790SOL    HW2  171   1.827   2.043   1.128
  808SOL     OW  172   1.555   3.373   2.565
  808SOL    HW1  173   1.498   3.357   2.646
  808SOL    HW2  174   1.496   3.383   2.485
  809SOL     OW  175   1.135   2.565   2.579
  809SOL    HW1  176   1.192   2.643   2.554
  809SOL    HW2  177   1.075   2.591   2.655
  810SOL     OW  178   1.755   2.469   2.093
  810SOL    HW1  179   1.743   2.456   1.994
  810SOL    HW2  180   1.725   2.388   2.142
  816SOL     OW  181   1.460   3.367   3.201
  816SOL    HW1  182   1.484   3.461   3.227
  816SOL    HW2  183   1.444   3.313   3.283
  818SOL     OW  184   1.603   2.309   2.599
  818SOL    HW1  185   1.529   2.355   2.549
  818SOL    HW2  186   1.654   2.377   2.652
  825SOL     OW  187   1.594   1.976   3.342
  825SOL    HW1  188   1.576   2.043   3.270
  825SOL    HW2  189   1.591   2.022   3.431
  827SOL     OW  190   1.842   3.629   2.221
  827SOL    HW1  191   1.896   3.600   2.301
  827SOL    HW2  192   1.872   3.719   2.192
  829SOL     OW  193   1.689   2.784   2.474
  829SOL    HW1  194   1.784   2.755   2.482
  829SOL    HW2  195   1.681   2.849   2.399
  830SOL     OW  196   1.641   2.970   2.294
  830SOL    HW1  197   1.727   2.972   2.242
  830SOL    HW2  198   1.655   3.017   2.382
  833SOL     OW  199   1.293   3.090   3.285
  833SOL    HW1  200   1.330   3.017   3.227
  833SOL    HW2  201   1.345   3.095   3.370
  836SOL     OW  202   1.525   2.861   2.052
  836SOL    HW1  203   1.462   2.785   2.065
  836SOL    HW2  204   1.573   2.879   2.138
  839SOL     OW  205   1.466   3.279   2.815
  839SOL    HW1  206   1.407   3.285   2.895
  839SOL    HW2  207   1.451   3.191   2.769
  840SOL     OW  208   1.667   3.576   2.434
  840SOL    HW1  209   1.626   3.553   2.346
  840SOL    HW2  210   1.649   3.502   2.499
  842SOL     OW  211   1.281   2.207   2.806
  842SOL    HW1  212   1.195   2.157   2.793
  842SOL    HW2  213   1.343   2.153   2.862
  843SOL     OW  214   1.576   3.524   2.169
  843SOL    HW1  215   1.665   3.570   2.172
  843SOL    HW2  216   1.555   3.500   2.074
  845SOL     OW  217   1.394   2.331   3.536
  845SOL    HW1  218   1.374   2.374   3.624
  845SOL    HW2  219   1.472   2.269   3.545
  847SOL     OW  220   0.991   2.272   3.104
  847SOL    HW1  221   0.914   2.306   3.158
  847SOL    HW2  222   0.957   2.221   3.025
  848SOL     OW  223   1.041   2.563   2.291
  848SOL    HW1  224   1.067   2.559   2.387
  848SOL    HW2  225   0.956   2.512   2.277
  852SOL     OW  226   1.719   2.447   3.693
  852SOL    HW1  227   1.693   2.536   3.657
  852SOL    HW2  228   1.717   2.379   3.620
  853SOL     OW  229   1.362   3.006   2.407
  853SOL    HW1  230   1.445   2.977   2.359
  853SOL    HW2  231   1.313   3.073   2.351
  855SOL     OW  232   1.008   3.318   2.339
  855SOL    HW1  233   0.962   3.390   2.287
  855SOL    HW2  234   1.004   3.338   2.437
  857SOL     OW  235   1.795   2.928   2.735
  857SOL    HW1  236   1.733   2.913   2.659
  857SOL    HW2  237   1.743   2.939   2.820
  858SOL     OW  238   1.227   3.412   3.368
  858SOL    HW1  239   1.233   3.335   3.432
  858SOL    HW2  240   1.175   3.386   3.288
  860SOL     OW  241   1.458   2.597   2.590
  860SOL    HW1  242   1.453   2.532   2.665
  860SOL    HW2  243   1.538   2.656   2.603
  864SOL     OW  244   1.632   3.239   1.943
  864SOL    HW1  245   1.600   3.333   1.933
  864SOL    HW2  246   1.556   3.176   1.931
  866SOL     OW  247   1.400   1.969   2.288
  866SOL    HW1  248   1.376   1.932   2.198
  866SOL    HW2  249   1.499   1.985   2.292
  870SOL     OW  250   1.547   2.084   3.591
  870SOL    HW1  251   1.542   2.121   3.683
  870SOL    HW2  252   1.475   2.015   3.579
  874SOL     OW  253   1.351   2.452   3.295
  874SOL    HW1  254   1.379   2.409   3.380
  874SOL    HW2  255   1.376   2.548   3.296
  876SOL     OW  256   0.922   2.365   2.761
  876SOL    HW1  257   0.897   2.356   2.665
  876SOL    HW2  258   0.970   2.283   2.792
  878SOL     OW  259   1.434   3.050   1.903
  878SOL    HW1  260   1.466   2.974   1.960
  878SOL    HW2  261   1.342   3.077   1.933
  880SOL     OW  262   0.935   2.098   2.342
  880SOL    HW1  263   0.887   2.139   2.264
  880SOL    HW2  264   1.034   2.096   2.323
  881SOL     OW  265   1.076   2.545   3.326
  881SOL    HW1  266   0.996   2.484   3.329
  881SOL    HW2  267   1.157   2.492   3.302
  882SOL     OW  268   1.227   3.432   2.655
  882SOL    HW1  269   1.248   3.506   2.590
  882SOL    HW2  270   1.295   3.432   2.728
  884SOL     OW  271   1.271   3.659   2.453
  884SOL    HW1  272   1.315   3.723   2.389
  884SOL    HW2  273   1.221   3.711   2.523
  885SOL     OW  274   1.032   2.411   1.878
  885SOL    HW1  275   0.991   2.493   1.839
  885SOL    HW2  276   1.096   2.437   1.951
  888SOL     OW  277   0.866   2.316   2.504
  888SOL    HW1  278   0.834   2.388   2.442
  888SOL    HW2  279   0.890   2.235   2.451
  889SOL     OW  280   1.017   1.901   2.615
  889SOL    HW1  281   0.945   1.906   2.546
  889SOL    HW2  282   0.993   1.832   2.684
  890SOL     OW  283   1.429   3.035   2.729
  890SOL    HW1  284   1.374   2.951   2.722
  890SOL    HW2  285   1.455   3.064   2.637
  891SOL     OW  286   1.466   2.452   2.854
  891SOL    HW1  287   1.436   2.357   2.861
  891SOL    HW2  288   1.539   2.468   2.920
  892SOL     OW  289   1.857   2.695   2.239
  892SOL    HW1  290   1.899   2.631   2.303
  892SOL    HW2  291   1.819   2.644   2.161
  894SOL     OW  292   1.664   3.142   2.519
  894SOL    HW1  293   1.763   3.150   2.533
  894SOL    HW2  294   1.619   3.226   2.550
  895SOL     OW  295   1.390   2.437   1.940
  895SOL    HW1  296   1.336   2.416   2.021
  895SOL    HW2  297   1.481   2.396   1.949
  897SOL     OW  298   1.754   3.085   3.450
  897SOL    HW1  299   1.845   3.046   3.437
  897SOL    HW2  300   1.762   3.181   3.474
  898SOL     OW  301   1.064   3.209   3.202
  898SOL    HW1  302   0.984   3.186   3.257
  898SOL    HW2  303   1.147   3.183   3.251
  899SOL     OW  304   1.592   3.491   3.487
  899SOL    HW1  305   1.619   3.525   3.397
  899SOL    HW2  306   1.671   3.453   3.533
  900SOL     OW  307   1.111   3.057   2.962
  900SOL    HW1  308   1.071   3.101   3.043
  900SOL    HW2  309   1.070   3.094   2.879
  901SOL     OW  310   1.638   2.961   2.941
  901SOL    HW1  311   1.643   3.042   3.000
  901SOL    HW2  312   1.552   2.963   2.890
  906SOL     OW  313   1.274   2.248   3.124
  906SOL    HW1  314   1.295   2.322   3.188
  906SOL    HW2  315   1.185   2.265   3.081
  910SOL     OW  316   1.252   3.210   2.250
  910SOL    HW1  317   1.302   3.287   2.290
  910SOL    HW2  318   1.157   3.212   2.282
  911SOL     OW  319   1.272   3.307   3.004
  911SOL    HW1  320   1.319   3.320   3.091
  911SOL    HW2  321   1.206   3.233   3.013
  912SOL     OW  322   1.582   2.501   2.334
  912SOL    HW1  323   1.551   2.562   2.407
  912SOL    HW2  324   1.632   2.553   2.265
  915SOL     OW  325   1.587   2.641   3.532
  915SOL    HW1  326   1.495   2.679   3.527
  915SOL    HW2  327   1.647   2.688   3.467
  919SOL     OW  328   1.360   2.724   2.907
  919SOL    HW1  329   1.285   2.724   2.841
  919SOL    HW2  330   1.397   2.632   2.916
  920SOL     OW  331   1.209   2.387   2.137
  920SOL    HW1  332   1.222   2.303   2.191
  920SOL    HW2  333   1.180   2.461   2.197
  924SOL     OW  334   1.728   2.797   3.716
  924SOL    HW1  335   1.682   2.790   3.627
  924SOL    HW2  336   1.666   2.841   3.782
  926SOL     OW  337   1.622   2.229   2.236
  926SOL    HW1  338   1.624   2.153   2.300
  926SOL    HW2  339   1.574   2.306   2.276
  927SOL     OW  340   1.023   2.628   2.828
  927SOL    HW1  341   1.038   2.649   2.924
  927SOL    HW2  342   0.993   2.533   2.819
  929SOL     OW  343   1.859   3.380   3.467
  929SOL    HW1  344   1.873   3.407   3.372
  929SOL    HW2  345   1.942   3.402   3.520
  931SOL     OW  346   1.540   2.136   1.987
  931SOL    HW1  347   1.479   2.061   2.010
  931SOL    HW2  348   1.562   2.188   2.070
  932SOL     OW  349   1.303   2.700   1.904
  932SOL    HW1  350   1.337   2.607   1.919
  932SOL    HW2  351   1.321   2.727   1.809
  933SOL     OW  352   1.068   3.195   2.711
  933SOL    HW1  353   1.075   3.111   2.656
  933SOL    HW2  354   1.130   3.264   2.675
  936SOL     OW  355   1.138   2.242   3.540
  936SOL    HW1  356   1.093   2.305   3.604
  936SOL    HW2  357   1.231   2.273   3.523
  937SOL     OW  358   1.160   2.069   3.339
  937SOL    HW1  359   1.160   2.133   3.416
  937SOL    HW2  360   1.188   2.117   3.256
  941SOL     OW  361   1.002   2.658   3.100
  941SOL    HW1  362   1.043   2.626   3.186
  941SOL    HW2  363   0.906   2.631   3.097
  944SOL     OW  364   1.369   2.812   3.522
  944SOL    HW1  365   1.408   2.901   3.542
  944SOL    HW2  366   1.379   2.792   3.425
  946SOL     OW  367   1.657   2.466   3.068
  946SOL    HW1  368   1.619   2.397   3.130
  946SOL    HW2  369   1.739   2.430   3.024
  952SOL     OW  370   1.347   2.921   3.096
  952SOL    HW1  371   1.371   2.858   3.022
  952SOL    HW2  372   1.257   2.961   3.078
  953SOL     OW  373   1.302   2.717   2.171
  953SOL    HW1  374   1.216   2.686   2.213
  953SOL    HW2  375   1.298   2.703   2.072
  954SOL     OW  376   1.759   3.609   3.016
  954SOL    HW1  377   1.820   3.639   2.943
  954SOL    HW2  378   1.721   3.520   2.994
  955SOL     OW  379   1.252   3.593   2.990
  955SOL    HW1  380   1.336   3.598   2.936
  955SOL    HW2  381   1.229   3.497   3.008
  958SOL     OW  382   1.726   1.997   2.385
  958SOL    HW1  383   1.799   1.980   2.318
  958SOL    HW2  384   1.695   1.910   2.423
  959SOL     OW  385   1.388   3.435   2.339
  959SOL    HW1  386   1.455   3.447   2.265
  959SOL    HW2  387   1.348   3.524   2.362
  961SOL     OW  388   1.280   2.789   2.534
  961SOL    HW1  389   1.340   2.708   2.536
  961SOL    HW2  390   1.320   2.858   2.474
  964SOL     OW  391   1.650   3.582   3.256
  964SOL    HW1  392   1.703   3.592   3.172
  964SOL    HW2  393   1.623   3.672   3.290
  965SOL     OW  394   1.841   2.037   2.825
  965SOL    HW1  395   1.880   1.952   2.789
  965SOL    HW2  396   1.743   2.039   2.806
  969SOL     OW  397   0.916   2.772   2.153
  969SOL    HW1  398   0.979   2.810   2.085
  969SOL    HW2  399   0.956   2.689   2.192
  970SOL     OW  400   1.504   3.469   1.906
  970SOL    HW1  401   1.412   3.506   1.913
  970SOL    HW2  402   1.542   3.489   1.816
  972SOL     OW  403   1.614   3.154   3.151
  972SOL    HW1  404   1.674   3.157   3.231
  972SOL    HW2  405   1.539   3.218   3.164
  973SOL     OW  406   1.039   2.960   2.558
  973SOL    HW1  407   0.969   2.913   2.612
  973SOL    HW2  408   1.098   2.892   2.515
  974SOL     OW  409   1.014   2.098   2.833
  974SOL    HW1  410   1.006   2.062   2.740
  974SOL    HW2  411   1.012   2.022   2.898
  976SOL     OW  412   1.709   2.247   3.243
  976SOL    HW1  413   1.782   2.316   3.247
  976SOL    HW2  414   1.737   2.172   3.184
  981SOL     OW  415   1.440   2.718   3.260
  981SOL    HW1  416   1.383   2.770   3.197
  981SOL    HW2  417   1.536   2.730   3.236
  983SOL     OW  418   1.183   3.197   1.981
  983SOL    HW1  419   1.084   3.186   1.983
  983SOL    HW2  420   1.217   3.212   2.074
  985SOL     OW  421   1.493   3.629   2.821
  985SOL    HW1  422   1.526   3.693   2.752
  985SOL    HW2  423   1.559   3.623   2.896
  987SOL     OW  424   1.450   3.082   3.495
  987SOL    HW1  425   1.441   3.072   3.594
  987SOL    HW2  426   1.546   3.075   3.469
  989SOL     OW  427   1.674   2.745   3.116
  989SOL    HW1  428   1.647   2.656   3.079
  989SOL    HW2  429   1.675   2.813   3.043
  990SOL     OW  430   1.225   2.187   2.311
  990SOL    HW1  431   1.290   2.113   2.300
  990SOL    HW2  432   1.245   2.237   2.395
  992SOL     OW  433   1.777   2.204   3.504
  992SOL    HW1  434   1.760   2.235   3.410
  992SOL    HW2  435   1.693   2.167   3.542
  993SOL     OW  436   1.730   2.796   3.379
  993SOL    HW1  437   1.768   2.887   3.394
  993SOL    HW2  438   1.722   2.779   3.280
  996SOL     OW  439   0.859   2.818   2.723
  996SOL    HW1  440   0.913   2.749   2.771
  996SOL    HW2  441   0.827   2.887   2.789
  997SOL     OW  442   1.083   2.846   1.949
  997SOL    HW1  443   1.060   2.899   1.867
  997SOL    HW2  444   1.164   2.790   1.930
  998SOL     OW  445   1.861   3.431   2.713
  998SOL    HW1  446   1.790   3.419   2.643
  998SOL    HW2  447   1.862   3.352   2.773
 1002SOL     OW  448   1.824   2.054   3.089
 1002SOL    HW1  449   1.820   1.964   3.133
 1002SOL    HW2  450   1.827   2.043   2.990
 1004SOL     OW  451   1.705   3.349   2.966
 1004SOL    HW1  452   1.612   3.324   2.939
 1004SOL    HW2  453   1.731   3.299   3.048
 1007SOL     OW  454   1.424   2.076   2.974
 1007SOL    HW1  455   1.476   2.011   3.029
 1007SOL    HW2  456   1.375   2.139   3.035
 1011SOL     OW  457   1.352   1.914   2.030
 1011SOL    HW1  458   1.387   1.873   1.946
 1011SOL    HW2  459   1.262   1.876   2.050
 1012SOL     OW  460   1.300   2.315   2.553
 1012SOL    HW1  461   1.241   2.395   2.557
 1012SOL    HW2  462   1.315   2.280   2.646
 1013SOL     OW  463   1.593   2.083   2.744
 1013SOL    HW1  464   1.509   2.082   2.798
 1013SOL    HW2  465   1.595   2.166   2.688
 1022SOL     OW  466   1.755   2.469   3.955
 1022SOL    HW1  467   1.743   2.456   3.856
 1022SOL    HW2  468   1.725   2.388   4.004
 1041SOL     OW  469   1.525   2.861   3.914
 1041SOL    HW1  470   1.462   2.785   3.927
 1041SOL    HW2  471   1.573   2.879   4.000
 1061SOL     OW  472   1.632   3.239   3.805
 1061SOL    HW1  473   1.600   3.333   3.795
 1061SOL    HW2  474   1.556   3.176   3.793
 1072SOL     OW  475   1.434   3.050   3.765
 1072SOL    HW1  476   1.466   2.974   3.822
 1072SOL    HW2  477   1.342   3.077   3.795
 1085SOL     OW  478   1.857   2.695   4.101
 1085SOL    HW1  479   1.899   2.631   4.165
 1085SOL    HW2  480   1.819   2.644   4.023
 1088SOL     OW  481   1.390   2.437   3.802
 1088SOL    HW1  482   1.336   2.416   3.883
 1088SOL    HW2  483   1.481   2.396   3.811
 1114SOL     OW  484   1.540   2.136   3.849
 1114SOL    HW1  485   1.479   2.061   3.872
 1114SOL    HW2  486   1.562   2.188   3.932
 1115SOL     OW  487   1.303   2.700   3.766
 1115SOL    HW1  488   1.337   2.607   3.781
 1115SOL    HW2  489   1.321   2.727   3.671
 1370SOL     OW  490   1.594   3.838   3.342
 1370SOL    HW1  491   1.576   3.905   3.270
 1370SOL    HW2  492   1.591   3.884   3.431
 1402SOL     OW  493   1.400   3.831   2.288
 1402SOL    HW1  494   1.376   3.794   2.198
 1402SOL    HW2  495   1.499   3.847   2.292
 1478SOL     OW  496   1.726   3.859   2.385
 1478SOL    HW1  497   1.799   3.842   2.318
 1478SOL    HW2  498   1.695   3.772   2.423
 1481SOL     OW  499   1.841   3.899   2.825
 1481SOL    HW1  500   1.880   3.814   2.789
 1481SOL    HW2  501   1.743   3.901   2.806
 1511SOL     OW  502   1.824   3.916   3.089
 1511SOL    HW1  503   1.820   3.826   3.133
 1511SOL    HW2  504   1.827   3.905   2.990
 1520SOL     OW  505   1.593   3.945   2.744
 1520SOL    HW1  506   1.509   3.944   2.798
 1520SOL    HW2  507   1.595   4.028   2.688
 1668SOL     OW  508   2.548   1.161   1.803
 1668SOL    HW1  509   2.608   1.240   1.817
 1668SOL    HW2  510   2.462   1.192   1.762
 1674SOL     OW  511   2.989   1.341   1.690
 1674SOL    HW1  512   3.036   1.341   1.778
 1674SOL    HW2  513   2.941   1.254   1.679
 1677SOL     OW  514   2.482   1.786   1.439
 1677SOL    HW1  515   2.390   1.769   1.474
 1677SOL    HW2  516   2.510   1.878   1.465
 1691SOL     OW  517   3.049   1.792   1.616
 1691SOL    HW1  518   3.073   1.852   1.540
 1691SOL    HW2  519   3.056   1.697   1.586
 1704SOL     OW  520   1.992   1.821   1.571
 1704SOL    HW1  521   1.982   1.806   1.670
 1704SOL    HW2  522   1.906   1.857   1.535
 1712SOL     OW  523   3.089   1.550   1.506
 1712SOL    HW1  524   3.095   1.473   1.570
 1712SOL    HW2  525   3.037   1.524   1.426
 1715SOL     OW  526   2.323   1.266   1.727
 1715SOL    HW1  527   2.273   1.267   1.641
 1715SOL    HW2  528   2.260   1.248   1.803
 1721SOL     OW  529   2.111   1.785   1.241
 1721SOL    HW1  530   2.168   1.720   1.291
 1721SOL    HW2  531   2.095   1.752   1.148
 1727SOL     OW  532   2.750   1.514   1.195
 1727SOL    HW1  533   2.727   1.489   1.101
 1727SOL    HW2  534   2.811   1.445   1.234
 1753SOL     OW  535   3.454   1.629   1.625
 1753SOL    HW1  536   3.481   1.663   1.535
 1753SOL    HW2  537   3.533   1.591   1.671
 1757SOL     OW  538   2.842   1.116   1.719
 1757SOL    HW1  539   2.743   1.122   1.729
 1757SOL    HW2  540   2.865   1.036   1.663
 1761SOL     OW  541   1.926   1.564   1.331
 1761SOL    HW1  542   1.880   1.646   1.297
 1761SOL    HW2  543   2.024   1.583   1.340
 1767SOL     OW  544   2.216   1.510   1.329
 1767SOL    HW1  545   2.195   1.466   1.242
 1767SOL    HW2  546   2.313   1.536   1.332
 1782SOL     OW  547   2.842   1.573   1.700
 1782SOL    HW1  548   2.822   1.617   1.612
 1782SOL    HW2  549   2.881   1.482   1.684
 1801SOL     OW  550   2.114   1.564   1.744
 1801SOL    HW1  551   2.084   1.621   1.820
 1801SOL    HW2  552   2.107   1.467   1.770
 1803SOL     OW  553   2.792   1.678   1.465
 1803SOL    HW1  554   2.768   1.660   1.370
 1803SOL    HW2  555   2.822   1.772   1.475
 1809SOL     OW  556   3.114   1.731   1.128
 1809SOL    HW1  557   3.198   1.736   1.074
 1809SOL    HW2  558   3.091   1.635   1.146
 1811SOL     OW  559   2.550   1.662   1.716
 1811SOL    HW1  560   2.494   1.743   1.725
 1811SOL    HW2  561   2.602   1.666   1.630
 1815SOL     OW  562   1.992   1.794   1.851
 1815SOL    HW1  563   1.951   1.720   1.904
 1815SOL    HW2  564   2.056   1.845   1.909
 1817SOL     OW  565   2.692   1.273   1.422
 1817SOL    HW1  566   2.687   1.306   1.517
 1817SOL    HW2  567   2.606   1.292   1.376
 1819SOL     OW  568   3.512   1.720   1.394
 1819SOL    HW1  569   3.565   1.730   1.310
 1819SOL    HW2  570   3.485   1.810   1.428
 1826SOL     OW  571   2.234   1.288   1.490
 1826SOL    HW1  572   2.221   1.381   1.456
 1826SOL    HW2  573   2.150   1.236   1.477
 1842SOL     OW  574   2.252   1.741   1.560
 1842SOL    HW1  575   2.161   1.782   1.558
 1842SOL    HW2  576   2.245   1.647   1.592
 1853SOL     OW  577   2.083   1.314   1.844
 1853SOL    HW1  578   2.018   1.241   1.823
 1853SOL    HW2  579   2.087   1.328   1.942
 1855SOL     OW  580   2.534   1.391   1.624
 1855SOL    HW1  581   2.456   1.341   1.662
 1855SOL    HW2  582   2.531   1.486   1.655
 1864SOL     OW  583   2.480   1.567   1.284
 1864SOL    HW1  584   2.475   1.649   1.341
 1864SOL    HW2  585   2.569   1.564   1.239
 1873SOL     OW  586   2.431   1.275   3.027
 1873SOL    HW1  587   2.338   1.268   2.990
 1873SOL    HW2  588   2.442   1.364   3.071
 1874SOL     OW  589   3.417   1.511   2.565
 1874SOL    HW1  590   3.360   1.495   2.646
 1874SOL    HW2  591   3.358   1.521   2.485
 1877SOL     OW  592   2.630   1.144   2.885
 1877SOL    HW1  593   2.552   1.161   2.945
 1877SOL    HW2  594   2.664   1.231   2.849
 1879SOL     OW  595   2.547   1.012   2.527
 1879SOL    HW1  596   2.616   0.996   2.597
 1879SOL    HW2  597   2.474   1.069   2.565
 1880SOL     OW  598   2.548   1.161   3.665
 1880SOL    HW1  599   2.608   1.240   3.679
 1880SOL    HW2  600   2.462   1.192   3.624
 1881SOL     OW  601   2.197   1.435   2.923
 1881SOL    HW1  602   2.119   1.404   2.870
 1881SOL    HW2  603   2.255   1.493   2.866
 1882SOL     OW  604   3.322   1.505   3.201
 1882SOL    HW1  605   3.346   1.599   3.227
 1882SOL    HW2  606   3.306   1.451   3.283
 1885SOL     OW  607   2.093   1.713   2.345
 1885SOL    HW1  608   2.127   1.790   2.399
 1885SOL    HW2  609   2.137   1.713   2.255
 1886SOL     OW  610   2.989   1.341   3.552
 1886SOL    HW1  611   3.036   1.341   3.640
 1886SOL    HW2  612   2.941   1.254   3.541
 1887SOL     OW  613   2.092   1.434   2.400
 1887SOL    HW1  614   2.066   1.530   2.400
 1887SOL    HW2  615   2.021   1.380   2.445
 1888SOL     OW  616   2.102   1.091   2.748
 1888SOL    HW1  617   2.116   1.007   2.800
 1888SOL    HW2  618   2.047   1.155   2.803
 1889SOL     OW  619   2.482   1.786   3.301
 1889SOL    HW1  620   2.390   1.769   3.336
 1889SOL    HW2  621   2.510   1.878   3.327
 1890SOL     OW  622   2.468   0.964   1.985
 1890SOL    HW1  623   2.475   1.048   1.931
 1890SOL    HW2  624   2.514   0.977   2.073
 1893SOL     OW  625   3.704   1.767   2.221
 1893SOL    HW1  626   3.758   1.738   2.301
 1893SOL    HW2  627   3.734   1.857   2.192
 1894SOL     OW  628   1.889   1.596   1.979
 1894SOL    HW1  629   1.870   1.500   2.000
 1894SOL    HW2  630   1.856   1.654   2.054
 1896SOL     OW  631   3.503   1.108   2.294
 1896SOL    HW1  632   3.589   1.110   2.242
 1896SOL    HW2  633   3.517   1.155   2.382
 1898SOL     OW  634   2.475   1.365   2.588
 1898SOL    HW1  635   2.426   1.278   2.597
 1898SOL    HW2  636   2.452   1.408   2.501
 1899SOL     OW  637   3.155   1.228   3.285
 1899SOL    HW1  638   3.192   1.155   3.227
 1899SOL    HW2  639   3.207   1.233   3.370
 1901SOL     OW  640   2.059   0.976   3.126
 1901SOL    HW1  641   2.148   0.931   3.112
 1901SOL    HW2  642   1.986   0.911   3.107
 1903SOL     OW  643   3.049   1.792   3.478
 1903SOL    HW1  644   3.073   1.852   3.402
 1903SOL    HW2  645   3.056   1.697   3.448
 1905SOL     OW  646   3.328   1.417   2.815
 1905SOL    HW1  647   3.269   1.423   2.895
 1905SOL    HW2  648   3.313   1.329   2.769
 1906SOL     OW  649   3.529   1.714   2.434
 1906SOL    HW1  650   3.488   1.691   2.346
 1906SOL    HW2  651   3.511   1.640   2.499
 1909SOL     OW  652   3.438   1.662   2.169
 1909SOL    HW1  653   3.527   1.708   2.172
 1909SOL    HW2  654   3.417   1.638   2.074
 1916SOL     OW  655   1.992   1.821   3.433
 1916SOL    HW1  656   1.982   1.806   3.532
 1916SOL    HW2  657   1.906   1.857   3.397
 1919SOL     OW  658   3.224   1.144   2.407
 1919SOL    HW1  659   3.307   1.115   2.359
 1919SOL    HW2  660   3.175   1.211   2.351
 1921SOL     OW  661   2.870   1.456   2.339
 1921SOL    HW1  662   2.824   1.528   2.287
 1921SOL    HW2  663   2.866   1.476   2.437
 1922SOL     OW  664   2.213   1.801   2.715
 1922SOL    HW1  665   2.263   1.715   2.721
 1922SOL    HW2  666   2.278   1.878   2.712
 1924SOL     OW  667   3.089   1.550   3.368
 1924SOL    HW1  668   3.095   1.473   3.432
 1924SOL    HW2  669   3.037   1.524   3.288
 1925SOL     OW  670   2.183   0.943   2.104
 1925SOL    HW1  671   2.265   0.982   2.062
 1925SOL    HW2  672   2.156   0.861   2.055
 1927SOL     OW  673   2.323   1.266   3.589
 1927SOL    HW1  674   2.273   1.267   3.503
 1927SOL    HW2  675   2.260   1.248   3.665
 1928SOL     OW  676   2.973   1.776   2.099
 1928SOL    HW1  677   2.913   1.714   2.149
 1928SOL    HW2  678   3.004   1.732   2.014
 1930SOL     OW  679   3.494   1.377   1.943
 1930SOL    HW1  680   3.462   1.471   1.933
 1930SOL    HW2  681   3.418   1.314   1.931
 1931SOL     OW  682   2.326   1.743   2.185
 1931SOL    HW1  683   2.359   1.782   2.271
 1931SOL    HW2  684   2.402   1.736   2.120
 1933SOL     OW  685   2.111   1.785   3.103
 1933SOL    HW1  686   2.168   1.720   3.153
 1933SOL    HW2  687   2.095   1.752   3.010
 1934SOL     OW  688   2.802   1.698   2.766
 1934SOL    HW1  689   2.882   1.641   2.787
 1934SOL    HW2  690   2.753   1.658   2.689
 1939SOL     OW  691   2.750   1.514   3.057
 1939SOL    HW1  692   2.727   1.489   2.963
 1939SOL    HW2  693   2.811   1.445   3.096
 1941SOL     OW  694   2.665   1.402   2.786
 1941SOL    HW1  695   2.755   1.416   2.744
 1941SOL    HW2  696   2.594   1.404   2.715
 1944SOL     OW  697   3.296   1.188   1.903
 1944SOL    HW1  698   3.328   1.112   1.960
 1944SOL    HW2  699   3.204   1.215   1.933
 1948SOL     OW  700   3.089   1.570   2.655
 1948SOL    HW1  701   3.110   1.644   2.590
 1948SOL    HW2  702   3.157   1.570   2.728
 1949SOL     OW  703   2.321   1.152   2.603
 1949SOL    HW1  704   2.250   1.125   2.668
 1949SOL    HW2  705   2.295   1.124   2.510
 1950SOL     OW  706   3.133   1.797   2.453
 1950SOL    HW1  707   3.177   1.861   2.389
 1950SOL    HW2  708   3.083   1.849   2.523
 1956SOL     OW  709   3.291   1.173   2.729
 1956SOL    HW1  710   3.236   1.089   2.722
 1956SOL    HW2  711   3.317   1.202   2.637
 1959SOL     OW  712   2.350   1.385   2.036
 1959SOL    HW1  713   2.263   1.370   2.083
 1959SOL    HW2  714   2.333   1.411   1.941
 1960SOL     OW  715   3.526   1.280   2.519
 1960SOL    HW1  716   3.625   1.288   2.533
 1960SOL    HW2  717   3.481   1.364   2.550
 1964SOL     OW  718   2.926   1.347   3.202
 1964SOL    HW1  719   2.846   1.324   3.257
 1964SOL    HW2  720   3.009   1.321   3.251
 1965SOL     OW  721   3.454   1.629   3.487
 1965SOL    HW1  722   3.481   1.663   3.397
 1965SOL    HW2  723   3.533   1.591   3.533
 1966SOL     OW  724   2.973   1.195   2.962
 1966SOL    HW1  725   2.933   1.239   3.043
 1966SOL    HW2  726   2.932   1.232   2.879
 1967SOL     OW  727   3.500   1.099   2.941
 1967SOL    HW1  728   3.505   1.180   3.000
 1967SOL    HW2  729   3.414   1.101   2.890
 1969SOL     OW  730   2.842   1.116   3.581
 1969SOL    HW1  731   2.743   1.122   3.591
 1969SOL    HW2  732   2.865   1.036   3.525
 1970SOL     OW  733   2.567   1.050   2.230
 1970SOL    HW1  734   2.553   1.057   2.329
 1970SOL    HW2  735   2.651   0.999   2.212
 1973SOL     OW  736   1.926   1.564   3.193
 1973SOL    HW1  737   1.880   1.646   3.159
 1973SOL    HW2  738   2.024   1.583   3.202
 1974SOL     OW  739   2.229   1.100   2.363
 1974SOL    HW1  740   2.222   1.183   2.307
 1974SOL    HW2  741   2.233   1.020   2.303
 1976SOL     OW  742   3.114   1.348   2.250
 1976SOL    HW1  743   3.164   1.425   2.290
 1976SOL    HW2  744   3.019   1.350   2.282
 1977SOL     OW  745   3.134   1.445   3.004
 1977SOL    HW1  746   3.181   1.458   3.091
 1977SOL    HW2  747   3.068   1.371   3.013
 1979SOL     OW  748   2.216   1.510   3.191
 1979SOL    HW1  749   2.195   1.466   3.104
 1979SOL    HW2  750   2.313   1.536   3.194
 1984SOL     OW  751   2.435   0.870   2.891
 1984SOL    HW1  752   2.479   0.959   2.882
 1984SOL    HW2  753   2.372   0.870   2.968
 1988SOL     OW  754   1.899   1.310   3.144
 1988SOL    HW1  755   1.952   1.261   3.212
 1988SOL    HW2  756   1.921   1.408   3.149
 1994SOL     OW  757   2.842   1.573   3.562
 1994SOL    HW1  758   2.822   1.617   3.474
 1994SOL    HW2  759   2.881   1.482   3.546
 1995SOL     OW  760   3.721   1.518   3.467
 1995SOL    HW1  761   3.735   1.545   3.372
 1995SOL    HW2  762   3.804   1.540   3.520
 1999SOL     OW  763   2.930   1.333   2.711
 1999SOL    HW1  764   2.937   1.249   2.656
 1999SOL    HW2  765   2.992   1.402   2.675
 2004SOL     OW  766   1.870   1.326   2.062
 2004SOL    HW1  767   1.777   1.347   2.031
 2004SOL    HW2  768   1.880   1.227   2.075
 2005SOL     OW  769   1.950   1.801   2.789
 2005SOL    HW1  770   1.908   1.715   2.762
 2005SOL    HW2  771   2.044   1.804   2.755
 2006SOL     OW  772   2.366   1.568   2.772
 2006SOL    HW1  773   2.432   1.642   2.781
 2006SOL    HW2  774   2.410   1.489   2.730
 2013SOL     OW  775   2.114   1.564   3.606
 2013SOL    HW1  776   2.084   1.621   3.682
 2013SOL    HW2  777   2.107   1.467   3.632
 2015SOL     OW  778   2.792   1.678   3.327
 2015SOL    HW1  779   2.768   1.660   3.232
 2015SOL    HW2  780   2.822   1.772   3.337
 2017SOL     OW  781   2.021   1.137   3.328
 2017SOL    HW1  782   2.043   1.076   3.404
 2017SOL    HW2  783   2.031   1.088   3.242
 2018SOL     OW  784   3.209   1.059   3.096
 2018SOL    HW1  785   3.233   0.996   3.022
 2018SOL    HW2  786   3.119   1.099   3.078
 2020SOL     OW  787   3.621   1.747   3.016
 2020SOL    HW1  788   3.682   1.777   2.943
 2020SOL    HW2  789   3.583   1.658   2.994
 2021SOL     OW  790   3.114   1.731   2.990
 2021SOL    HW1  791   3.198   1.736   2.936
 2021SOL    HW2  792   3.091   1.635   3.008
 2022SOL     OW  793   1.945   1.258   2.884
 2022SOL    HW1  794   1.940   1.257   2.984
 2022SOL    HW2  795   1.862   1.217   2.846
 2023SOL     OW  796   2.550   1.662   3.578
 2023SOL    HW1  797   2.494   1.743   3.587
 2023SOL    HW2  798   2.602   1.666   3.492
 2025SOL     OW  799   3.250   1.573   2.339
 2025SOL    HW1  800   3.317   1.585   2.265
 2025SOL    HW2  801   3.210   1.662   2.362
 2026SOL     OW  802   1.992   1.794   3.713
 2026SOL    HW1  803   1.951   1.720   3.766
 2026SOL    HW2  804   2.056   1.845   3.771
 2027SOL     OW  805   3.142   0.927   2.534
 2027SOL    HW1  806   3.202   0.846   2.536
 2027SOL    HW2  807   3.182   0.996   2.474
 2028SOL     OW  808   2.692   1.273   3.284
 2028SOL    HW1  809   2.687   1.306   3.379
 2028SOL    HW2  810   2.606   1.292   3.238
 2029SOL     OW  811   2.534   1.616   2.016
 2029SOL    HW1  812   2.543   1.626   1.917
 2029SOL    HW2  813   2.494   1.527   2.037
 2030SOL     OW  814   3.512   1.720   3.256
 2030SOL    HW1  815   3.565   1.730   3.172
 2030SOL    HW2  816   3.485   1.810   3.290
 2033SOL     OW  817   3.056   1.612   1.893
 2033SOL    HW1  818   3.062   1.519   1.930
 2033SOL    HW2  819   2.997   1.612   1.813
 2034SOL     OW  820   2.684   1.002   3.234
 2034SOL    HW1  821   2.724   1.001   3.142
 2034SOL    HW2  822   2.694   1.094   3.274
 2035SOL     OW  823   2.778   0.910   2.153
 2035SOL    HW1  824   2.841   0.948   2.085
 2035SOL    HW2  825   2.818   0.827   2.192
 2036SOL     OW  826   3.366   1.607   1.906
 2036SOL    HW1  827   3.274   1.644   1.913
 2036SOL    HW2  828   3.404   1.627   1.816
 2037SOL     OW  829   2.234   1.288   3.352
 2037SOL    HW1  830   2.221   1.381   3.318
 2037SOL    HW2  831   2.150   1.236   3.339
 2038SOL     OW  832   3.476   1.292   3.151
 2038SOL    HW1  833   3.536   1.295   3.231
 2038SOL    HW2  834   3.401   1.356   3.164
 2039SOL     OW  835   2.901   1.098   2.558
 2039SOL    HW1  836   2.831   1.051   2.612
 2039SOL    HW2  837   2.960   1.030   2.515
 2041SOL     OW  838   2.452   1.487   2.353
 2041SOL    HW1  839   2.494   1.429   2.283
 2041SOL    HW2  840   2.408   1.566   2.309
 2043SOL     OW  841   2.117   1.348   2.152
 2043SOL    HW1  842   2.021   1.349   2.125
 2043SOL    HW2  843   2.129   1.401   2.236
 2048SOL     OW  844   3.045   1.335   1.981
 2048SOL    HW1  845   2.946   1.324   1.983
 2048SOL    HW2  846   3.079   1.350   2.074
 2050SOL     OW  847   3.355   1.767   2.821
 2050SOL    HW1  848   3.388   1.831   2.752
 2050SOL    HW2  849   3.421   1.761   2.896
 2052SOL     OW  850   3.312   1.220   3.495
 2052SOL    HW1  851   3.303   1.210   3.594
 2052SOL    HW2  852   3.408   1.213   3.469
 2053SOL     OW  853   2.252   1.741   3.422
 2053SOL    HW1  854   2.161   1.782   3.420
 2053SOL    HW2  855   2.245   1.647   3.454
 2059SOL     OW  856   2.721   1.374   1.878
 2059SOL    HW1  857   2.675   1.389   1.966
 2059SOL    HW2  858   2.765   1.459   1.848
 2060SOL     OW  859   2.523   1.790   2.815
 2060SOL    HW1  860   2.477   1.878   2.802
 2060SOL    HW2  861   2.622   1.802   2.808
 2061SOL     OW  862   2.721   0.956   2.723
 2061SOL    HW1  863   2.775   0.887   2.771
 2061SOL    HW2  864   2.689   1.025   2.789
 2062SOL     OW  865   2.945   0.984   1.949
 2062SOL    HW1  866   2.922   1.037   1.867
 2062SOL    HW2  867   3.026   0.928   1.930
 2063SOL     OW  868   3.723   1.569   2.713
 2063SOL    HW1  869   3.652   1.557   2.643
 2063SOL    HW2  870   3.724   1.490   2.773
 2064SOL     OW  871   2.083   1.314   3.706
 2064SOL    HW1  872   2.018   1.241   3.685
 2064SOL    HW2  873   2.087   1.328   3.804
 2065SOL     OW  874   1.941   1.240   2.515
 2065SOL    HW1  875   1.940   1.193   2.603
 2065SOL    HW2  876   2.023   1.212   2.464
 2066SOL     OW  877   2.534   1.391   3.486
 2066SOL    HW1  878   2.456   1.341   3.524
 2066SOL    HW2  879   2.531   1.486   3.517
 2069SOL     OW  880   3.567   1.487   2.966
 2069SOL    HW1  881   3.474   1.462   2.939
 2069SOL    HW2  882   3.593   1.437   3.048
 2071SOL     OW  883   2.674   1.586   2.549
 2071SOL    HW1  884   2.706   1.596   2.455
 2071SOL    HW2  885   2.595   1.524   2.551
 2074SOL     OW  886   2.632   1.330   2.163
 2074SOL    HW1  887   2.586   1.243   2.180
 2074SOL    HW2  888   2.723   1.327   2.204
 2075SOL     OW  889   2.480   1.567   3.146
 2075SOL    HW1  890   2.475   1.649   3.203
 2075SOL    HW2  891   2.569   1.564   3.101
 2079SOL     OW  892   1.901   1.077   2.162
 2079SOL    HW1  893   2.000   1.066   2.153
 2079SOL    HW2  894   1.861   0.991   2.194
 2080SOL     OW  895   2.737   1.646   2.199
 2080SOL    HW1  896   2.660   1.611   2.145
 2080SOL    HW2  897   2.705   1.717   2.261
 2100SOL     OW  898   1.889   1.596   3.841
 2100SOL    HW1  899   1.870   1.500   3.862
 2100SOL    HW2  900   1.856   1.654   3.916
 2125SOL     OW  901   2.973   1.776   3.961
 2125SOL    HW1  902   2.913   1.714   4.011
 2125SOL    HW2  903   3.004   1.732   3.876
 2127SOL     OW  904   2.326   1.743   4.047
 2127SOL    HW1  905   2.359   1.782   4.133
 2127SOL    HW2  906   2.402   1.736   3.982
 2151SOL     OW  907   2.350   1.385   3.898
 2151SOL    HW1  908   2.263   1.370   3.945
 2151SOL    HW2  909   2.333   1.411   3.803
 2203SOL     OW  910   2.534   1.616   3.878
 2203SOL    HW1  911   2.543   1.626   3.779
 2203SOL    HW2  912   2.494   1.527   3.899
 2206SOL     OW  913   3.056   1.612   3.755
 2206SOL    HW1  914   3.062   1.519   3.792
 2206SOL    HW2  915   2.997   1.612   3.675
 2209SOL     OW  916   3.366   1.607   3.768
 2209SOL    HW1  917   3.274   1.644   3.775
 2209SOL    HW2  918   3.404   1.627   3.678
 2226SOL     OW  919   2.721   1.374   3.740
 2226SOL    HW1  920   2.675   1.389   3.828
 2226SOL    HW2  921   2.765   1.459   3.710
 2245SOL     OW  922   2.737   1.646   4.061
 2245SOL    HW1  923   2.660   1.611   4.007
 2245SOL    HW2  924   2.705   1.717   4.123
 2247SOL     OW  925   2.087   2.137   0.996
 2247SOL    HW1  926   2.122   2.120   1.088
 2247SOL    HW2  927   1.999   2.092   0.984
 2249SOL     OW  928   2.431   3.137   1.165
 2249SOL    HW1  929   2.338   3.130   1.128
 2249SOL    HW2  930   2.442   3.226   1.209
 2253SOL     OW  931   2.630   3.006   1.023
 2253SOL    HW1  932   2.552   3.023   1.083
 2253SOL    HW2  933   2.664   3.093   0.987
 2254SOL     OW  934   2.712   2.660   1.823
 2254SOL    HW1  935   2.708   2.736   1.888
 2254SOL    HW2  936   2.734   2.696   1.732
 2256SOL     OW  937   2.548   3.023   1.803
 2256SOL    HW1  938   2.608   3.102   1.817
 2256SOL    HW2  939   2.462   3.054   1.762
 2257SOL     OW  940   2.197   3.297   1.061
 2257SOL    HW1  941   2.119   3.266   1.008
 2257SOL    HW2  942   2.255   3.355   1.004
 2258SOL     OW  943   3.322   3.367   1.339
 2258SOL    HW1  944   3.346   3.461   1.365
 2258SOL    HW2  945   3.306   3.313   1.421
 2259SOL     OW  946   2.300   2.254   1.499
 2259SOL    HW1  947   2.382   2.198   1.508
 2259SOL    HW2  948   2.219   2.196   1.503
 2262SOL     OW  949   2.989   3.203   1.690
 2262SOL    HW1  950   3.036   3.203   1.778
 2262SOL    HW2  951   2.941   3.116   1.679
 2265SOL     OW  952   2.482   3.648   1.439
 2265SOL    HW1  953   2.390   3.631   1.474
 2265SOL    HW2  954   2.510   3.740   1.465
 2267SOL     OW  955   3.456   1.976   1.480
 2267SOL    HW1  956   3.438   2.043   1.408
 2267SOL    HW2  957   3.453   2.022   1.569
 2273SOL     OW  958   1.975   2.599   1.597
 2273SOL    HW1  959   2.063   2.586   1.642
 2273SOL    HW2  960   1.962   2.696   1.575
 2275SOL     OW  961   3.155   3.090   1.423
 2275SOL    HW1  962   3.192   3.017   1.365
 2275SOL    HW2  963   3.207   3.095   1.508
 2277SOL     OW  964   2.059   2.838   1.264
 2277SOL    HW1  965   2.148   2.793   1.250
 2277SOL    HW2  966   1.986   2.773   1.245
 2279SOL     OW  967   3.049   3.654   1.616
 2279SOL    HW1  968   3.073   3.714   1.540
 2279SOL    HW2  969   3.056   3.559   1.586
 2280SOL     OW  970   2.179   2.113   1.801
 2280SOL    HW1  971   2.250   2.184   1.807
 2280SOL    HW2  972   2.091   2.152   1.829
 2284SOL     OW  973   3.143   2.207   0.944
 2284SOL    HW1  974   3.057   2.157   0.931
 2284SOL    HW2  975   3.205   2.153   1.000
 2286SOL     OW  976   2.669   2.467   1.465
 2286SOL    HW1  977   2.622   2.464   1.554
 2286SOL    HW2  978   2.618   2.412   1.399
 2287SOL     OW  979   3.256   2.331   1.674
 2287SOL    HW1  980   3.236   2.374   1.762
 2287SOL    HW2  981   3.334   2.269   1.683
 2288SOL     OW  982   2.835   2.752   1.572
 2288SOL    HW1  983   2.881   2.668   1.543
 2288SOL    HW2  984   2.779   2.786   1.497
 2289SOL     OW  985   2.853   2.272   1.242
 2289SOL    HW1  986   2.776   2.306   1.296
 2289SOL    HW2  987   2.819   2.221   1.163
 2292SOL     OW  988   1.992   3.683   1.571
 2292SOL    HW1  989   1.982   3.668   1.670
 2292SOL    HW2  990   1.906   3.719   1.535
 2294SOL     OW  991   3.581   2.447   1.831
 2294SOL    HW1  992   3.555   2.536   1.795
 2294SOL    HW2  993   3.579   2.379   1.758
 2300SOL     OW  994   3.089   3.412   1.506
 2300SOL    HW1  995   3.095   3.335   1.570
 2300SOL    HW2  996   3.037   3.386   1.426
 2303SOL     OW  997   2.323   3.128   1.727
 2303SOL    HW1  998   2.273   3.129   1.641
 2303SOL    HW2  999   2.260   3.110   1.803
 2305SOL     OW 1000   2.064   2.147   1.498
 2305SOL    HW1 1001   1.984   2.207   1.485
 2305SOL    HW2 1002   2.054   2.098   1.584
 2309SOL     OW 1003   2.111   3.647   1.241
 2309SOL    HW1 1004   2.168   3.582   1.291
 2309SOL    HW2 1005   2.095   3.614   1.148
 2312SOL     OW 1006   3.409   2.084   1.729
 2312SOL    HW1 1007   3.404   2.121   1.821
 2312SOL    HW2 1008   3.337   2.015   1.717
 2313SOL     OW 1009   2.643   2.126   1.749
 2313SOL    HW1 1010   2.710   2.065   1.792
 2313SOL    HW2 1011   2.570   2.145   1.814
 2314SOL     OW 1012   2.750   3.376   1.195
 2314SOL    HW1 1013   2.727   3.351   1.101
 2314SOL    HW2 1014   2.811   3.307   1.234
 2315SOL     OW 1015   3.213   2.452   1.433
 2315SOL    HW1 1016   3.241   2.409   1.518
 2315SOL    HW2 1017   3.238   2.548   1.434
 2317SOL     OW 1018   2.784   2.365   0.899
 2317SOL    HW1 1019   2.759   2.356   0.803
 2317SOL    HW2 1020   2.832   2.283   0.930
 2321SOL     OW 1021   2.938   2.545   1.464
 2321SOL    HW1 1022   2.858   2.484   1.467
 2321SOL    HW2 1023   3.019   2.492   1.440
 2326SOL     OW 1024   1.940   2.418   1.386
 2326SOL    HW1 1025   2.032   2.417   1.345
 2326SOL    HW2 1026   1.934   2.492   1.453
 2327SOL     OW 1027   2.423   2.084   1.147
 2327SOL    HW1 1028   2.461   2.000   1.184
 2327SOL    HW2 1029   2.335   2.103   1.191
 2331SOL     OW 1030   3.328   2.452   0.992
 2331SOL    HW1 1031   3.298   2.357   0.999
 2331SOL    HW2 1032   3.401   2.468   1.058
 2337SOL     OW 1033   3.616   3.085   1.588
 2337SOL    HW1 1034   3.707   3.046   1.575
 2337SOL    HW2 1035   3.624   3.181   1.612
 2338SOL     OW 1036   2.926   3.209   1.340
 2338SOL    HW1 1037   2.846   3.186   1.395
 2338SOL    HW2 1038   3.009   3.183   1.389
 2339SOL     OW 1039   3.454   3.491   1.625
 2339SOL    HW1 1040   3.481   3.525   1.535
 2339SOL    HW2 1041   3.533   3.453   1.671
 2340SOL     OW 1042   2.973   3.057   1.100
 2340SOL    HW1 1043   2.933   3.101   1.181
 2340SOL    HW2 1044   2.932   3.094   1.017
 2342SOL     OW 1045   2.777   1.951   1.402
 2342SOL    HW1 1046   2.802   1.931   1.307
 2342SOL    HW2 1047   2.849   2.007   1.444
 2343SOL     OW 1048   2.842   2.978   1.719
 2343SOL    HW1 1049   2.743   2.984   1.729
 2343SOL    HW2 1050   2.865   2.898   1.663
 2345SOL     OW 1051   2.272   2.675   1.251
 2345SOL    HW1 1052   2.358   2.687   1.301
 2345SOL    HW2 1053   2.230   2.588   1.278
 2346SOL     OW 1054   3.136   2.248   1.262
 2346SOL    HW1 1055   3.157   2.322   1.326
 2346SOL    HW2 1056   3.047   2.265   1.219
 2347SOL     OW 1057   1.926   3.426   1.331
 2347SOL    HW1 1058   1.880   3.508   1.297
 2347SOL    HW2 1059   2.024   3.445   1.340
 2349SOL     OW 1060   2.428   2.399   0.865
 2349SOL    HW1 1061   2.440   2.465   0.791
 2349SOL    HW2 1062   2.474   2.433   0.948
 2351SOL     OW 1063   3.134   3.307   1.142
 2351SOL    HW1 1064   3.181   3.320   1.229
 2351SOL    HW2 1065   3.068   3.233   1.151
 2353SOL     OW 1066   2.216   3.372   1.329
 2353SOL    HW1 1067   2.195   3.328   1.242
 2353SOL    HW2 1068   2.313   3.398   1.332
 2354SOL     OW 1069   2.264   2.613   1.598
 2354SOL    HW1 1070   2.332   2.668   1.551
 2354SOL    HW2 1071   2.304   2.525   1.625
 2355SOL     OW 1072   3.449   2.641   1.670
 2355SOL    HW1 1073   3.357   2.679   1.665
 2355SOL    HW2 1074   3.509   2.688   1.605
 2356SOL     OW 1075   2.875   1.967   1.770
 2356SOL    HW1 1076   2.881   2.052   1.718
 2356SOL    HW2 1077   2.907   1.891   1.713
 2357SOL     OW 1078   2.366   1.912   1.740
 2357SOL    HW1 1079   2.324   1.855   1.670
 2357SOL    HW2 1080   2.300   1.981   1.772
 2358SOL     OW 1081   2.435   2.732   1.029
 2358SOL    HW1 1082   2.479   2.821   1.020
 2358SOL    HW2 1083   2.372   2.732   1.106
 2359SOL     OW 1084   3.222   2.724   1.045
 2359SOL    HW1 1085   3.147   2.724   0.979
 2359SOL    HW2 1086   3.259   2.632   1.054
 2361SOL     OW 1087   2.169   2.075   1.231
 2361SOL    HW1 1088   2.146   2.112   1.321
 2361SOL    HW2 1089   2.139   1.980   1.225
 2362SOL     OW 1090   1.899   3.172   1.282
 2362SOL    HW1 1091   1.952   3.123   1.350
 2362SOL    HW2 1092   1.921   3.270   1.287
 2363SOL     OW 1093   2.594   2.496   1.064
 2363SOL    HW1 1094   2.653   2.470   0.988
 2363SOL    HW2 1095   2.566   2.592   1.053
 2364SOL     OW 1096   3.590   2.797   1.854
 2364SOL    HW1 1097   3.544   2.790   1.765
 2364SOL    HW2 1098   3.528   2.841   1.920
 2367SOL     OW 1099   2.885   2.628   0.966
 2367SOL    HW1 1100   2.900   2.649   1.062
 2367SOL    HW2 1101   2.855   2.533   0.957
 2368SOL     OW 1102   2.842   3.435   1.700
 2368SOL    HW1 1103   2.822   3.479   1.612
 2368SOL    HW2 1104   2.881   3.344   1.684
 2369SOL     OW 1105   3.721   3.380   1.605
 2369SOL    HW1 1106   3.735   3.407   1.510
 2369SOL    HW2 1107   3.804   3.402   1.658
 2370SOL     OW 1108   2.212   2.760   1.804
 2370SOL    HW1 1109   2.288   2.804   1.852
 2370SOL    HW2 1110   2.247   2.713   1.722
 2374SOL     OW 1111   2.181   2.672   0.949
 2374SOL    HW1 1112   2.274   2.708   0.954
 2374SOL    HW2 1113   2.175   2.587   1.001
 2375SOL     OW 1114   2.201   2.371   1.006
 2375SOL    HW1 1115   2.149   2.288   0.989
 2375SOL    HW2 1116   2.278   2.376   0.942
 2376SOL     OW 1117   3.000   2.242   1.678
 2376SOL    HW1 1118   2.955   2.305   1.742
 2376SOL    HW2 1119   3.093   2.273   1.661
 2377SOL     OW 1120   3.022   2.069   1.477
 2377SOL    HW1 1121   3.022   2.133   1.554
 2377SOL    HW2 1122   3.050   2.117   1.394
 2381SOL     OW 1123   2.864   2.658   1.238
 2381SOL    HW1 1124   2.905   2.626   1.324
 2381SOL    HW2 1125   2.768   2.631   1.235
 2382SOL     OW 1126   1.902   2.406   1.114
 2382SOL    HW1 1127   1.987   2.373   1.073
 2382SOL    HW2 1128   1.915   2.421   1.212
 2383SOL     OW 1129   2.051   2.382   1.722
 2383SOL    HW1 1130   2.110   2.342   1.652
 2383SOL    HW2 1131   1.993   2.453   1.681
 2384SOL     OW 1132   3.231   2.812   1.660
 2384SOL    HW1 1133   3.270   2.901   1.680
 2384SOL    HW2 1134   3.241   2.792   1.563
 2386SOL     OW 1135   3.519   2.466   1.206
 2386SOL    HW1 1136   3.481   2.397   1.268
 2386SOL    HW2 1137   3.601   2.430   1.162
 2387SOL     OW 1138   2.114   3.426   1.744
 2387SOL    HW1 1139   2.084   3.483   1.820
 2387SOL    HW2 1140   2.107   3.329   1.770
 2388SOL     OW 1141   2.533   2.326   1.269
 2388SOL    HW1 1142   2.499   2.237   1.239
 2388SOL    HW2 1143   2.559   2.380   1.189
 2389SOL     OW 1144   2.792   3.540   1.465
 2389SOL    HW1 1145   2.768   3.522   1.370
 2389SOL    HW2 1146   2.822   3.634   1.475
 2391SOL     OW 1147   2.021   2.999   1.466
 2391SOL    HW1 1148   2.043   2.938   1.542
 2391SOL    HW2 1149   2.031   2.950   1.380
 2392SOL     OW 1150   3.209   2.921   1.234
 2392SOL    HW1 1151   3.233   2.858   1.160
 2392SOL    HW2 1152   3.119   2.961   1.216
 2396SOL     OW 1153   1.945   3.120   1.022
 2396SOL    HW1 1154   1.940   3.119   1.122
 2396SOL    HW2 1155   1.862   3.079   0.984
 2397SOL     OW 1156   2.550   3.524   1.716
 2397SOL    HW1 1157   2.494   3.605   1.725
 2397SOL    HW2 1158   2.602   3.528   1.630
 2401SOL     OW 1159   1.992   3.656   1.851
 2401SOL    HW1 1160   1.951   3.582   1.904
 2401SOL    HW2 1161   2.056   3.707   1.909
 2403SOL     OW 1162   2.692   3.135   1.422
 2403SOL    HW1 1163   2.687   3.168   1.517
 2403SOL    HW2 1164   2.606   3.154   1.376
 2409SOL     OW 1165   2.684   2.864   1.372
 2409SOL    HW1 1166   2.724   2.863   1.280
 2409SOL    HW2 1167   2.694   2.956   1.412
 2412SOL     OW 1168   2.234   3.150   1.490
 2412SOL    HW1 1169   2.221   3.243   1.456
 2412SOL    HW2 1170   2.150   3.098   1.477
 2413SOL     OW 1171   3.476   3.154   1.289
 2413SOL    HW1 1172   3.536   3.157   1.369
 2413SOL    HW2 1173   3.401   3.218   1.302
 2415SOL     OW 1174   2.876   2.098   0.971
 2415SOL    HW1 1175   2.868   2.062   0.878
 2415SOL    HW2 1176   2.874   2.022   1.036
 2417SOL     OW 1177   3.571   2.247   1.381
 2417SOL    HW1 1178   3.644   2.316   1.385
 2417SOL    HW2 1179   3.599   2.172   1.322
 2419SOL     OW 1180   1.967   2.875   1.726
 2419SOL    HW1 1181   1.890   2.842   1.780
 2419SOL    HW2 1182   2.052   2.845   1.768
 2420SOL     OW 1183   2.534   2.065   1.489
 2420SOL    HW1 1184   2.624   2.049   1.449
 2420SOL    HW2 1185   2.542   2.070   1.588
 2422SOL     OW 1186   3.302   2.718   1.398
 2422SOL    HW1 1187   3.245   2.770   1.335
 2422SOL    HW2 1188   3.398   2.730   1.374
 2425SOL     OW 1189   2.475   2.704   1.431
 2425SOL    HW1 1190   2.531   2.785   1.414
 2425SOL    HW2 1191   2.534   2.624   1.434
 2427SOL     OW 1192   2.578   2.427   1.708
 2427SOL    HW1 1193   2.597   2.492   1.782
 2427SOL    HW2 1194   2.638   2.347   1.717
 2428SOL     OW 1195   3.312   3.082   1.633
 2428SOL    HW1 1196   3.303   3.072   1.732
 2428SOL    HW2 1197   3.408   3.075   1.607
 2429SOL     OW 1198   2.252   3.603   1.560
 2429SOL    HW1 1199   2.161   3.644   1.558
 2429SOL    HW2 1200   2.245   3.509   1.592
 2430SOL     OW 1201   3.536   2.745   1.254
 2430SOL    HW1 1202   3.509   2.656   1.217
 2430SOL    HW2 1203   3.537   2.813   1.181
 2433SOL     OW 1204   3.639   2.204   1.642
 2433SOL    HW1 1205   3.622   2.235   1.548
 2433SOL    HW2 1206   3.555   2.167   1.680
 2434SOL     OW 1207   3.592   2.796   1.517
 2434SOL    HW1 1208   3.630   2.887   1.532
 2434SOL    HW2 1209   3.584   2.779   1.418
 2437SOL     OW 1210   2.721   2.818   0.861
 2437SOL    HW1 1211   2.775   2.749   0.909
 2437SOL    HW2 1212   2.689   2.887   0.927
 2440SOL     OW 1213   2.083   3.176   1.844
 2440SOL    HW1 1214   2.018   3.103   1.823
 2440SOL    HW2 1215   2.087   3.190   1.942
 2442SOL     OW 1216   2.534   3.253   1.624
 2442SOL    HW1 1217   2.456   3.203   1.662
 2442SOL    HW2 1218   2.531   3.348   1.655
 2446SOL     OW 1219   2.179   2.409   1.280
 2446SOL    HW1 1220   2.217   2.350   1.352
 2446SOL    HW2 1221   2.219   2.383   1.192
 2448SOL     OW 1222   3.286   2.076   1.112
 2448SOL    HW1 1223   3.338   2.011   1.167
 2448SOL    HW2 1224   3.237   2.139   1.173
 2449SOL     OW 1225   2.863   1.896   1.154
 2449SOL    HW1 1226   2.800   1.824   1.123
 2449SOL    HW2 1227   2.956   1.860   1.154
 2451SOL     OW 1228   2.480   3.429   1.284
 2451SOL    HW1 1229   2.475   3.511   1.341
 2451SOL    HW2 1230   2.569   3.426   1.239
 2457SOL     OW 1231   2.092   2.490   1.975
 2457SOL    HW1 1232   1.999   2.488   2.012
 2457SOL    HW2 1233   2.093   2.451   1.883
 2458SOL     OW 1234   2.087   2.137   2.858
 2458SOL    HW1 1235   2.122   2.120   2.950
 2458SOL    HW2 1236   1.999   2.092   2.846
 2459SOL     OW 1237   1.881   2.230   2.509
 2459SOL    HW1 1238   1.799   2.273   2.548
 2459SOL    HW2 1239   1.853   2.157   2.446
 2460SOL     OW 1240   2.431   3.137   3.027
 2460SOL    HW1 1241   2.338   3.130   2.990
 2460SOL    HW2 1242   2.442   3.226   3.071
 2461SOL     OW 1243   3.417   3.373   2.565
 2461SOL    HW1 1244   3.360   3.357   2.646
 2461SOL    HW2 1245   3.358   3.383   2.485
 2462SOL     OW 1246   3.617   2.469   2.093
 2462SOL    HW1 1247   3.605   2.456   1.994
 2462SOL    HW2 1248   3.587   2.388   2.142
 2463SOL     OW 1249   2.630   3.006   2.885
 2463SOL    HW1 1250   2.552   3.023   2.945
 2463SOL    HW2 1251   2.664   3.093   2.849
 2464SOL     OW 1252   2.712   2.660   3.685
 2464SOL    HW1 1253   2.708   2.736   3.750
 2464SOL    HW2 1254   2.734   2.696   3.594
 2465SOL     OW 1255   2.548   3.023   3.665
 2465SOL    HW1 1256   2.608   3.102   3.679
 2465SOL    HW2 1257   2.462   3.054   3.624
 2466SOL     OW 1258   2.197   3.297   2.923
 2466SOL    HW1 1259   2.119   3.266   2.870
 2466SOL    HW2 1260   2.255   3.355   2.866
 2467SOL     OW 1261   3.322   3.367   3.201
 2467SOL    HW1 1262   3.346   3.461   3.227
 2467SOL    HW2 1263   3.306   3.313   3.283
 2468SOL     OW 1264   2.300   2.254   3.361
 2468SOL    HW1 1265   2.382   2.198   3.370
 2468SOL    HW2 1266   2.219   2.196   3.365
 2469SOL     OW 1267   3.465   2.309   2.599
 2469SOL    HW1 1268   3.391   2.355   2.549
 2469SOL    HW2 1269   3.516   2.377   2.652
 2470SOL     OW 1270   2.093   3.575   2.345
 2470SOL    HW1 1271   2.127   3.652   2.399
 2470SOL    HW2 1272   2.137   3.575   2.255
 2471SOL     OW 1273   2.989   3.203   3.552
 2471SOL    HW1 1274   3.036   3.203   3.640
 2471SOL    HW2 1275   2.941   3.116   3.541
 2472SOL     OW 1276   2.092   3.296   2.400
 2472SOL    HW1 1277   2.066   3.392   2.400
 2472SOL    HW2 1278   2.021   3.242   2.445
 2473SOL     OW 1279   2.102   2.953   2.748
 2473SOL    HW1 1280   2.116   2.869   2.800
 2473SOL    HW2 1281   2.047   3.017   2.803
 2474SOL     OW 1282   2.482   3.648   3.301
 2474SOL    HW1 1283   2.390   3.631   3.336
 2474SOL    HW2 1284   2.510   3.740   3.327
 2475SOL     OW 1285   2.468   2.826   1.985
 2475SOL    HW1 1286   2.475   2.910   1.931
 2475SOL    HW2 1287   2.514   2.839   2.073
 2476SOL     OW 1288   3.456   1.976   3.342
 2476SOL    HW1 1289   3.438   2.043   3.270
 2476SOL    HW2 1290   3.453   2.022   3.431
 2477SOL     OW 1291   1.984   2.505   2.425
 2477SOL    HW1 1292   1.939   2.417   2.442
 2477SOL    HW2 1293   1.983   2.559   2.509
 2478SOL     OW 1294   3.704   3.629   2.221
 2478SOL    HW1 1295   3.758   3.600   2.301
 2478SOL    HW2 1296   3.734   3.719   2.192
 2479SOL     OW 1297   1.889   3.458   1.979
 2479SOL    HW1 1298   1.870   3.362   2.000
 2479SOL    HW2 1299   1.856   3.516   2.054
 2480SOL     OW 1300   3.551   2.784   2.474
 2480SOL    HW1 1301   3.646   2.755   2.482
 2480SOL    HW2 1302   3.543   2.849   2.399
 2481SOL     OW 1303   3.503   2.970   2.294
 2481SOL    HW1 1304   3.589   2.972   2.242
 2481SOL    HW2 1305   3.517   3.017   2.382
 2482SOL     OW 1306   1.975   2.599   3.459
 2482SOL    HW1 1307   2.063   2.586   3.504
 2482SOL    HW2 1308   1.962   2.696   3.437
 2483SOL     OW 1309   2.475   3.227   2.588
 2483SOL    HW1 1310   2.426   3.140   2.597
 2483SOL    HW2 1311   2.452   3.270   2.501
 2484SOL     OW 1312   3.155   3.090   3.285
 2484SOL    HW1 1313   3.192   3.017   3.227
 2484SOL    HW2 1314   3.207   3.095   3.370
 2485SOL     OW 1315   2.671   1.866   2.364
 2485SOL    HW1 1316   2.711   1.957   2.355
 2485SOL    HW2 1317   2.571   1.874   2.370
 2486SOL     OW 1318   2.059   2.838   3.126
 2486SOL    HW1 1319   2.148   2.793   3.112
 2486SOL    HW2 1320   1.986   2.773   3.107
 2487SOL     OW 1321   3.387   2.861   2.052
 2487SOL    HW1 1322   3.324   2.785   2.065
 2487SOL    HW2 1323   3.435   2.879   2.138
 2488SOL     OW 1324   3.049   3.654   3.478
 2488SOL    HW1 1325   3.073   3.714   3.402
 2488SOL    HW2 1326   3.056   3.559   3.448
 2489SOL     OW 1327   2.179   2.113   3.663
 2489SOL    HW1 1328   2.250   2.184   3.669
 2489SOL    HW2 1329   2.091   2.152   3.691
 2490SOL     OW 1330   3.328   3.279   2.815
 2490SOL    HW1 1331   3.269   3.285   2.895
 2490SOL    HW2 1332   3.313   3.191   2.769
 2491SOL     OW 1333   3.529   3.576   2.434
 2491SOL    HW1 1334   3.488   3.553   2.346
 2491SOL    HW2 1335   3.511   3.502   2.499
 2492SOL     OW 1336   2.460   2.591   2.132
 2492SOL    HW1 1337   2.484   2.660   2.064
 2492SOL    HW2 1338   2.382   2.624   2.186
 2493SOL     OW 1339   3.143   2.207   2.806
 2493SOL    HW1 1340   3.057   2.157   2.793
 2493SOL    HW2 1341   3.205   2.153   2.862
 2494SOL     OW 1342   3.438   3.524   2.169
 2494SOL    HW1 1343   3.527   3.570   2.172
 2494SOL    HW2 1344   3.417   3.500   2.074
 2495SOL     OW 1345   2.669   2.467   3.327
 2495SOL    HW1 1346   2.622   2.464   3.416
 2495SOL    HW2 1347   2.618   2.412   3.261
 2496SOL     OW 1348   3.256   2.331   3.536
 2496SOL    HW1 1349   3.236   2.374   3.624
 2496SOL    HW2 1350   3.334   2.269   3.545
 2497SOL     OW 1351   2.835   2.752   3.434
 2497SOL    HW1 1352   2.881   2.668   3.405
 2497SOL    HW2 1353   2.779   2.786   3.359
 2498SOL     OW 1354   2.853   2.272   3.104
 2498SOL    HW1 1355   2.776   2.306   3.158
 2498SOL    HW2 1356   2.819   2.221   3.025
 2499SOL     OW 1357   1.938   2.673   2.651
 2499SOL    HW1 1358   2.037   2.661   2.660
 2499SOL    HW2 1359   1.914   2.768   2.672
 2500SOL     OW 1360   1.992   3.683   3.433
 2500SOL    HW1 1361   1.982   3.668   3.532
 2500SOL    HW2 1362   1.906   3.719   3.397
 2501SOL     OW 1363   2.727   2.210   2.057
 2501SOL    HW1 1364   2.786   2.273   2.008
 2501SOL    HW2 1365   2.746   2.116   2.028
 2502SOL     OW 1366   3.581   2.447   3.693
 2502SOL    HW1 1367   3.555   2.536   3.657
 2502SOL    HW2 1368   3.579   2.379   3.620
 2503SOL     OW 1369   3.224   3.006   2.407
 2503SOL    HW1 1370   3.307   2.977   2.359
 2503SOL    HW2 1371   3.175   3.073   2.351
 2504SOL     OW 1372   2.412   2.058   2.747
 2504SOL    HW1 1373   2.407   2.053   2.847
 2504SOL    HW2 1374   2.414   2.154   2.718
 2505SOL     OW 1375   2.870   3.318   2.339
 2505SOL    HW1 1376   2.824   3.390   2.287
 2505SOL    HW2 1377   2.866   3.338   2.437
 2506SOL     OW 1378   2.213   3.663   2.715
 2506SOL    HW1 1379   2.263   3.577   2.721
 2506SOL    HW2 1380   2.278   3.740   2.712
 2507SOL     OW 1381   3.657   2.928   2.735
 2507SOL    HW1 1382   3.595   2.913   2.659
 2507SOL    HW2 1383   3.605   2.939   2.820
 2508SOL     OW 1384   3.089   3.412   3.368
 2508SOL    HW1 1385   3.095   3.335   3.432
 2508SOL    HW2 1386   3.037   3.386   3.288
 2509SOL     OW 1387   2.183   2.805   2.104
 2509SOL    HW1 1388   2.265   2.844   2.062
 2509SOL    HW2 1389   2.156   2.723   2.055
 2510SOL     OW 1390   3.320   2.597   2.590
 2510SOL    HW1 1391   3.315   2.532   2.665
 2510SOL    HW2 1392   3.400   2.656   2.603
 2511SOL     OW 1393   2.323   3.128   3.589
 2511SOL    HW1 1394   2.273   3.129   3.503
 2511SOL    HW2 1395   2.260   3.110   3.665
 2512SOL     OW 1396   2.973   3.638   2.099
 2512SOL    HW1 1397   2.913   3.576   2.149
 2512SOL    HW2 1398   3.004   3.594   2.014
 2513SOL     OW 1399   2.064   2.147   3.360
 2513SOL    HW1 1400   1.984   2.207   3.347
 2513SOL    HW2 1401   2.054   2.098   3.446
 2514SOL     OW 1402   3.494   3.239   1.943
 2514SOL    HW1 1403   3.462   3.333   1.933
 2514SOL    HW2 1404   3.418   3.176   1.931
 2515SOL     OW 1405   2.326   3.605   2.185
 2515SOL    HW1 1406   2.359   3.644   2.271
 2515SOL    HW2 1407   2.402   3.598   2.120
 2516SOL     OW 1408   3.262   1.969   2.288
 2516SOL    HW1 1409   3.238   1.932   2.198
 2516SOL    HW2 1410   3.361   1.985   2.292
 2517SOL     OW 1411   2.111   3.647   3.103
 2517SOL    HW1 1412   2.168   3.582   3.153
 2517SOL    HW2 1413   2.095   3.614   3.010
 2518SOL     OW 1414   2.802   3.560   2.766
 2518SOL    HW1 1415   2.882   3.503   2.787
 2518SOL    HW2 1416   2.753   3.520   2.689
 2519SOL     OW 1417   3.409   2.084   3.591
 2519SOL    HW1 1418   3.404   2.121   3.683
 2519SOL    HW2 1419   3.337   2.015   3.579
 2520SOL     OW 1420   2.476   1.984   1.979
 2520SOL    HW1 1421   2.574   1.962   1.986
 2520SOL    HW2 1422   2.445   1.967   1.886
 2521SOL     OW 1423   2.643   2.126   3.611
 2521SOL    HW1 1424   2.710   2.065   3.654
 2521SOL    HW2 1425   2.570   2.145   3.676
 2522SOL     OW 1426   2.750   3.376   3.057
 2522SOL    HW1 1427   2.727   3.351   2.963
 2522SOL    HW2 1428   2.811   3.307   3.096
 2523SOL     OW 1429   3.213   2.452   3.295
 2523SOL    HW1 1430   3.241   2.409   3.380
 2523SOL    HW2 1431   3.238   2.548   3.296
 2524SOL     OW 1432   2.665   3.264   2.786
 2524SOL    HW1 1433   2.755   3.278   2.744
 2524SOL    HW2 1434   2.594   3.266   2.715
 2525SOL     OW 1435   2.784   2.365   2.761
 2525SOL    HW1 1436   2.759   2.356   2.665
 2525SOL    HW2 1437   2.832   2.283   2.792
 2526SOL     OW 1438   2.401   1.926   2.374
 2526SOL    HW1 1439   2.320   1.927   2.432
 2526SOL    HW2 1440   2.404   2.009   2.319
 2527SOL     OW 1441   3.296   3.050   1.903
 2527SOL    HW1 1442   3.328   2.974   1.960
 2527SOL    HW2 1443   3.204   3.077   1.933
 2528SOL     OW 1444   2.159   1.897   2.033
 2528SOL    HW1 1445   2.208   1.981   2.012
 2528SOL    HW2 1446   2.221   1.832   2.078
 2529SOL     OW 1447   2.797   2.098   2.342
 2529SOL    HW1 1448   2.749   2.139   2.264
 2529SOL    HW2 1449   2.896   2.096   2.323
 2530SOL     OW 1450   2.938   2.545   3.326
 2530SOL    HW1 1451   2.858   2.484   3.329
 2530SOL    HW2 1452   3.019   2.492   3.302
 2531SOL     OW 1453   3.089   3.432   2.655
 2531SOL    HW1 1454   3.110   3.506   2.590
 2531SOL    HW2 1455   3.157   3.432   2.728
 2532SOL     OW 1456   2.321   3.014   2.603
 2532SOL    HW1 1457   2.250   2.987   2.668
 2532SOL    HW2 1458   2.295   2.986   2.510
 2533SOL     OW 1459   3.133   3.659   2.453
 2533SOL    HW1 1460   3.177   3.723   2.389
 2533SOL    HW2 1461   3.083   3.711   2.523
 2534SOL     OW 1462   2.894   2.411   1.878
 2534SOL    HW1 1463   2.853   2.493   1.839
 2534SOL    HW2 1464   2.958   2.437   1.951
 2535SOL     OW 1465   1.940   2.418   3.248
 2535SOL    HW1 1466   2.032   2.417   3.207
 2535SOL    HW2 1467   1.934   2.492   3.315
 2536SOL     OW 1468   2.423   2.084   3.009
 2536SOL    HW1 1469   2.461   2.000   3.046
 2536SOL    HW2 1470   2.335   2.103   3.053
 2537SOL     OW 1471   2.728   2.316   2.504
 2537SOL    HW1 1472   2.696   2.388   2.442
 2537SOL    HW2 1473   2.752   2.235   2.451
 2538SOL     OW 1474   2.879   1.901   2.615
 2538SOL    HW1 1475   2.807   1.906   2.546
 2538SOL    HW2 1476   2.855   1.832   2.684
 2539SOL     OW 1477   3.291   3.035   2.729
 2539SOL    HW1 1478   3.236   2.951   2.722
 2539SOL    HW2 1479   3.317   3.064   2.637
 2540SOL     OW 1480   3.328   2.452   2.854
 2540SOL    HW1 1481   3.298   2.357   2.861
 2540SOL    HW2 1482   3.401   2.468   2.920
 2541SOL     OW 1483   3.719   2.695   2.239
 2541SOL    HW1 1484   3.761   2.631   2.303
 2541SOL    HW2 1485   3.681   2.644   2.161
 2542SOL     OW 1486   2.350   3.247   2.036
 2542SOL    HW1 1487   2.263   3.232   2.083
 2542SOL    HW2 1488   2.333   3.273   1.941
 2543SOL     OW 1489   3.526   3.142   2.519
 2543SOL    HW1 1490   3.625   3.150   2.533
 2543SOL    HW2 1491   3.481   3.226   2.550
 2544SOL     OW 1492   3.252   2.437   1.940
 2544SOL    HW1 1493   3.198   2.416   2.021
 2544SOL    HW2 1494   3.343   2.396   1.949
 2545SOL     OW 1495   2.389   2.118   2.190
 2545SOL    HW1 1496   2.416   2.059   2.115
 2545SOL    HW2 1497   2.389   2.213   2.159
 2546SOL     OW 1498   3.616   3.085   3.450
 2546SOL    HW1 1499   3.707   3.046   3.437
 2546SOL    HW2 1500   3.624   3.181   3.474
 2547SOL     OW 1501   2.926   3.209   3.202
 2547SOL    HW1 1502   2.846   3.186   3.257
 2547SOL    HW2 1503   3.009   3.183   3.251
 2548SOL     OW 1504   3.454   3.491   3.487
 2548SOL    HW1 1505   3.481   3.525   3.397
 2548SOL    HW2 1506   3.533   3.453   3.533
 2549SOL     OW 1507   2.973   3.057   2.962
 2549SOL    HW1 1508   2.933   3.101   3.043
 2549SOL    HW2 1509   2.932   3.094   2.879
 2550SOL     OW 1510   3.500   2.961   2.941
 2550SOL    HW1 1511   3.505   3.042   3.000
 2550SOL    HW2 1512   3.414   2.963   2.890
 2551SOL     OW 1513   2.777   1.951   3.264
 2551SOL    HW1 1514   2.802   1.931   3.169
 2551SOL    HW2 1515   2.849   2.007   3.306
 2552SOL     OW 1516   2.842   2.978   3.581
 2552SOL    HW1 1517   2.743   2.984   3.591
 2552SOL    HW2 1518   2.865   2.898   3.525
 2553SOL     OW 1519   2.567   2.912   2.230
 2553SOL    HW1 1520   2.553   2.919   2.329
 2553SOL    HW2 1521   2.651   2.861   2.212
 2554SOL     OW 1522   3.136   2.248   3.124
 2554SOL    HW1 1523   3.157   2.322   3.188
 2554SOL    HW2 1524   3.047   2.265   3.081
 2555SOL     OW 1525   1.926   3.426   3.193
 2555SOL    HW1 1526   1.880   3.508   3.159
 2555SOL    HW2 1527   2.024   3.445   3.202
 2556SOL     OW 1528   2.229   2.962   2.363
 2556SOL    HW1 1529   2.222   3.045   2.307
 2556SOL    HW2 1530   2.233   2.882   2.303
 2557SOL     OW 1531   3.114   3.210   2.250
 2557SOL    HW1 1532   3.164   3.287   2.290
 2557SOL    HW2 1533   3.019   3.212   2.282
 2558SOL     OW 1534   3.134   3.307   3.004
 2558SOL    HW1 1535   3.181   3.320   3.091
 2558SOL    HW2 1536   3.068   3.233   3.013
 2559SOL     OW 1537   3.444   2.501   2.334
 2559SOL    HW1 1538   3.413   2.562   2.407
 2559SOL    HW2 1539   3.494   2.553   2.265
 2560SOL     OW 1540   2.216   3.372   3.191
 2560SOL    HW1 1541   2.195   3.328   3.104
 2560SOL    HW2 1542   2.313   3.398   3.194
 2561SOL     OW 1543   2.264   2.613   3.460
 2561SOL    HW1 1544   2.332   2.668   3.413
 2561SOL    HW2 1545   2.304   2.525   3.487
 2562SOL     OW 1546   3.449   2.641   3.532
 2562SOL    HW1 1547   3.357   2.679   3.527
 2562SOL    HW2 1548   3.509   2.688   3.467
 2563SOL     OW 1549   2.875   1.967   3.632
 2563SOL    HW1 1550   2.881   2.052   3.580
 2563SOL    HW2 1551   2.907   1.891   3.575
 2564SOL     OW 1552   2.366   1.912   3.602
 2564SOL    HW1 1553   2.324   1.855   3.532
 2564SOL    HW2 1554   2.300   1.981   3.634
 2565SOL     OW 1555   3.222   2.724   2.907
 2565SOL    HW1 1556   3.147   2.724   2.841
 2565SOL    HW2 1557   3.259   2.632   2.916
 2566SOL     OW 1558   3.071   2.387   2.137
 2566SOL    HW1 1559   3.084   2.303   2.191
 2566SOL    HW2 1560   3.042   2.461   2.197
 2567SOL     OW 1561   2.169   2.075   3.093
 2567SOL    HW1 1562   2.146   2.112   3.183
 2567SOL    HW2 1563   2.139   1.980   3.087
 2568SOL     OW 1564   1.899   3.172   3.144
 2568SOL    HW1 1565   1.952   3.123   3.212
 2568SOL    HW2 1566   1.921   3.270   3.149
 2569SOL     OW 1567   3.590   2.797   3.716
 2569SOL    HW1 1568   3.544   2.790   3.627
 2569SOL    HW2 1569   3.528   2.841   3.782
 2570SOL     OW 1570   2.169   1.925   2.480
 2570SOL    HW1 1571   2.158   2.019   2.513
 2570SOL    HW2 1572   2.164   1.862   2.557
 2571SOL     OW 1573   3.484   2.229   2.236
 2571SOL    HW1 1574   3.486   2.153   2.300
 2571SOL    HW2 1575   3.436   2.306   2.276
 2572SOL     OW 1576   2.885   2.628   2.828
 2572SOL    HW1 1577   2.900   2.649   2.924
 2572SOL    HW2 1578   2.855   2.533   2.819
 2573SOL     OW 1579   2.842   3.435   3.562
 2573SOL    HW1 1580   2.822   3.479   3.474
 2573SOL    HW2 1581   2.881   3.344   3.546
 2574SOL     OW 1582   3.721   3.380   3.467
 2574SOL    HW1 1583   3.735   3.407   3.372
 2574SOL    HW2 1584   3.804   3.402   3.520
 2575SOL     OW 1585   2.212   2.760   3.666
 2575SOL    HW1 1586   2.288   2.804   3.714
 2575SOL    HW2 1587   2.247   2.713   3.584
 2576SOL     OW 1588   3.402   2.136   1.987
 2576SOL    HW1 1589   3.341   2.061   2.010
 2576SOL    HW2 1590   3.424   2.188   2.070
 2577SOL     OW 1591   3.165   2.700   1.904
 2577SOL    HW1 1592   3.199   2.607   1.919
 2577SOL    HW2 1593   3.183   2.727   1.809
 2578SOL     OW 1594   2.930   3.195   2.711
 2578SOL    HW1 1595   2.937   3.111   2.656
 2578SOL    HW2 1596   2.992   3.264   2.675
 2579SOL     OW 1597   3.000   2.242   3.540
 2579SOL    HW1 1598   2.955   2.305   3.604
 2579SOL    HW2 1599   3.093   2.273   3.523
 2580SOL     OW 1600   3.022   2.069   3.339
 2580SOL    HW1 1601   3.022   2.133   3.416
 2580SOL    HW2 1602   3.050   2.117   3.256
 2581SOL     OW 1603   1.870   3.188   2.062
 2581SOL    HW1 1604   1.777   3.209   2.031
 2581SOL    HW2 1605   1.880   3.089   2.075
 2582SOL     OW 1606   1.950   3.663   2.789
 2582SOL    HW1 1607   1.908   3.577   2.762
 2582SOL    HW2 1608   2.044   3.666   2.755
 2583SOL     OW 1609   2.366   3.430   2.772
 2583SOL    HW1 1610   2.432   3.504   2.781
 2583SOL    HW2 1611   2.410   3.351   2.730
 2584SOL     OW 1612   2.864   2.658   3.100
 2584SOL    HW1 1613   2.905   2.626   3.186
 2584SOL    HW2 1614   2.768   2.631   3.097
 2585SOL     OW 1615   1.902   2.406   2.976
 2585SOL    HW1 1616   1.987   2.373   2.935
 2585SOL    HW2 1617   1.915   2.421   3.074
 2586SOL     OW 1618   2.051   2.382   3.584
 2586SOL    HW1 1619   2.110   2.342   3.514
 2586SOL    HW2 1620   1.993   2.453   3.543
 2587SOL     OW 1621   3.231   2.812   3.522
 2587SOL    HW1 1622   3.270   2.901   3.542
 2587SOL    HW2 1623   3.241   2.792   3.425
 2588SOL     OW 1624   2.677   2.434   2.187
 2588SOL    HW1 1625   2.684   2.345   2.141
 2588SOL    HW2 1626   2.583   2.468   2.179
 2589SOL     OW 1627   3.519   2.466   3.068
 2589SOL    HW1 1628   3.481   2.397   3.130
 2589SOL    HW2 1629   3.601   2.430   3.024
 2590SOL     OW 1630   2.114   3.426   3.606
 2590SOL    HW1 1631   2.084   3.483   3.682
 2590SOL    HW2 1632   2.107   3.329   3.632
 2591SOL     OW 1633   2.533   2.326   3.131
 2591SOL    HW1 1634   2.499   2.237   3.101
 2591SOL    HW2 1635   2.559   2.380   3.051
 2592SOL     OW 1636   2.792   3.540   3.327
 2592SOL    HW1 1637   2.768   3.522   3.232
 2592SOL    HW2 1638   2.822   3.634   3.337
 2593SOL     OW 1639   2.335   2.362   2.053
 2593SOL    HW1 1640   2.396   2.442   2.057
 2593SOL    HW2 1641   2.240   2.393   2.060
 2594SOL     OW 1642   2.021   2.999   3.328
 2594SOL    HW1 1643   2.043   2.938   3.404
 2594SOL    HW2 1644   2.031   2.950   3.242
 2595SOL     OW 1645   3.209   2.921   3.096
 2595SOL    HW1 1646   3.233   2.858   3.022
 2595SOL    HW2 1647   3.119   2.961   3.078
 2596SOL     OW 1648   3.164   2.717   2.171
 2596SOL    HW1 1649   3.078   2.686   2.213
 2596SOL    HW2 1650   3.160   2.703   2.072
 2597SOL     OW 1651   3.621   3.609   3.016
 2597SOL    HW1 1652   3.682   3.639   2.943
 2597SOL    HW2 1653   3.583   3.520   2.994
 2598SOL     OW 1654   3.114   3.593   2.990
 2598SOL    HW1 1655   3.198   3.598   2.936
 2598SOL    HW2 1656   3.091   3.497   3.008
 2599SOL     OW 1657   1.945   3.120   2.884
 2599SOL    HW1 1658   1.940   3.119   2.984
 2599SOL    HW2 1659   1.862   3.079   2.846
 2600SOL     OW 1660   2.550   3.524   3.578
 2600SOL    HW1 1661   2.494   3.605   3.587
 2600SOL    HW2 1662   2.602   3.528   3.492
 2601SOL     OW 1663   3.588   1.997   2.385
 2601SOL    HW1 1664   3.661   1.980   2.318
 2601SOL    HW2 1665   3.557   1.910   2.423
 2602SOL     OW 1666   3.250   3.435   2.339
 2602SOL    HW1 1667   3.317   3.447   2.265
 2602SOL    HW2 1668   3.210   3.524   2.362
 2603SOL     OW 1669   1.992   3.656   3.713
 2603SOL    HW1 1670   1.951   3.582   3.766
 2603SOL    HW2 1671   2.056   3.707   3.771
 2604SOL     OW 1672   3.142   2.789   2.534
 2604SOL    HW1 1673   3.202   2.708   2.536
 2604SOL    HW2 1674   3.182   2.858   2.474
 2605SOL     OW 1675   2.692   3.135   3.284
 2605SOL    HW1 1676   2.687   3.168   3.379
 2605SOL    HW2 1677   2.606   3.154   3.238
 2606SOL     OW 1678   2.534   3.478   2.016
 2606SOL    HW1 1679   2.543   3.488   1.917
 2606SOL    HW2 1680   2.494   3.389   2.037
 2607SOL     OW 1681   3.512   3.582   3.256
 2607SOL    HW1 1682   3.565   3.592   3.172
 2607SOL    HW2 1683   3.485   3.672   3.290
 2608SOL     OW 1684   3.703   2.037   2.825
 2608SOL    HW1 1685   3.742   1.952   2.789
 2608SOL    HW2 1686   3.605   2.039   2.806
 2609SOL     OW 1687   2.125   2.188   2.582
 2609SOL    HW1 1688   2.046   2.239   2.548
 2609SOL    HW2 1689   2.116   2.173   2.680
 2610SOL     OW 1690   3.056   3.474   1.893
 2610SOL    HW1 1691   3.062   3.381   1.930
 2610SOL    HW2 1692   2.997   3.474   1.813
 2611SOL     OW 1693   2.684   2.864   3.234
 2611SOL    HW1 1694   2.724   2.863   3.142
 2611SOL    HW2 1695   2.694   2.956   3.274
 2612SOL     OW 1696   2.778   2.772   2.153
 2612SOL    HW1 1697   2.841   2.810   2.085
 2612SOL    HW2 1698   2.818   2.689   2.192
 2613SOL     OW 1699   3.366   3.469   1.906
 2613SOL    HW1 1700   3.274   3.506   1.913
 2613SOL    HW2 1701   3.404   3.489   1.816
 2614SOL     OW 1702   2.234   3.150   3.352
 2614SOL    HW1 1703   2.221   3.243   3.318
 2614SOL    HW2 1704   2.150   3.098   3.339
 2615SOL     OW 1705   3.476   3.154   3.151
 2615SOL    HW1 1706   3.536   3.157   3.231
 2615SOL    HW2 1707   3.401   3.218   3.164
 2616SOL     OW 1708   2.901   2.960   2.558
 2616SOL    HW1 1709   2.831   2.913   2.612
 2616SOL    HW2 1710   2.960   2.892   2.515
 2617SOL     OW 1711   2.876   2.098   2.833
 2617SOL    HW1 1712   2.868   2.062   2.740
 2617SOL    HW2 1713   2.874   2.022   2.898
 2618SOL     OW 1714   2.452   3.349   2.353
 2618SOL    HW1 1715   2.494   3.291   2.283
 2618SOL    HW2 1716   2.408   3.428   2.309
 2619SOL     OW 1717   3.571   2.247   3.243
 2619SOL    HW1 1718   3.644   2.316   3.247
 2619SOL    HW2 1719   3.599   2.172   3.184
 2620SOL     OW 1720   2.117   3.210   2.152
 2620SOL    HW1 1721   2.021   3.211   2.125
 2620SOL    HW2 1722   2.129   3.263   2.236
 2621SOL     OW 1723   1.967   2.875   3.588
 2621SOL    HW1 1724   1.890   2.842   3.642
 2621SOL    HW2 1725   2.052   2.845   3.630
 2622SOL     OW 1726   2.534   2.065   3.351
 2622SOL    HW1 1727   2.624   2.049   3.311
 2622SOL    HW2 1728   2.542   2.070   3.450
 2623SOL     OW 1729   1.937   2.207   1.895
 2623SOL    HW1 1730   1.845   2.179   1.866
 2623SOL    HW2 1731   1.968   2.284   1.839
 2624SOL     OW 1732   3.302   2.718   3.260
 2624SOL    HW1 1733   3.245   2.770   3.197
 2624SOL    HW2 1734   3.398   2.730   3.236
 2625SOL     OW 1735   1.934   2.028   2.180
 2625SOL    HW1 1736   1.917   2.111   2.126
 2625SOL    HW2 1737   2.024   1.991   2.158
 2626SOL     OW 1738   3.045   3.197   1.981
 2626SOL    HW1 1739   2.946   3.186   1.983
 2626SOL    HW2 1740   3.079   3.212   2.074
 2627SOL     OW 1741   2.475   2.704   3.293
 2627SOL    HW1 1742   2.531   2.785   3.276
 2627SOL    HW2 1743   2.534   2.624   3.296
 2628SOL     OW 1744   3.355   3.629   2.821
 2628SOL    HW1 1745   3.388   3.693   2.752
 2628SOL    HW2 1746   3.421   3.623   2.896
 2629SOL     OW 1747   2.578   2.427   3.570
 2629SOL    HW1 1748   2.597   2.492   3.644
 2629SOL    HW2 1749   2.638   2.347   3.579
 2630SOL     OW 1750   3.312   3.082   3.495
 2630SOL    HW1 1751   3.303   3.072   3.594
 2630SOL    HW2 1752   3.408   3.075   3.469
 2631SOL     OW 1753   2.252   3.603   3.422
 2631SOL    HW1 1754   2.161   3.644   3.420
 2631SOL    HW2 1755   2.245   3.509   3.454
 2632SOL     OW 1756   3.536   2.745   3.116
 2632SOL    HW1 1757   3.509   2.656   3.079
 2632SOL    HW2 1758   3.537   2.813   3.043
 2633SOL     OW 1759   3.087   2.187   2.311
 2633SOL    HW1 1760   3.152   2.113   2.300
 2633SOL    HW2 1761   3.107   2.237   2.395
 2634SOL     OW 1762   3.639   2.204   3.504
 2634SOL    HW1 1763   3.622   2.235   3.410
 2634SOL    HW2 1764   3.555   2.167   3.542
 2635SOL     OW 1765   3.592   2.796   3.379
 2635SOL    HW1 1766   3.630   2.887   3.394
 2635SOL    HW2 1767   3.584   2.779   3.280
 2636SOL     OW 1768   2.721   3.236   1.878
 2636SOL    HW1 1769   2.675   3.251   1.966
 2636SOL    HW2 1770   2.765   3.321   1.848
 2637SOL     OW 1771   2.523   3.652   2.815
 2637SOL    HW1 1772   2.477   3.740   2.802
 2637SOL    HW2 1773   2.622   3.664   2.808
 2638SOL     OW 1774   2.945   2.846   1.949
 2638SOL    HW1 1775   2.922   2.899   1.867
 2638SOL    HW2 1776   3.026   2.790   1.930
 2639SOL     OW 1777   3.723   3.431   2.713
 2639SOL    HW1 1778   3.652   3.419   2.643
 2639SOL    HW2 1779   3.724   3.352   2.773
 2640SOL     OW 1780   2.083   3.176   3.706
 2640SOL    HW1 1781   2.018   3.103   3.685
 2640SOL    HW2 1782   2.087   3.190   3.804
 2641SOL     OW 1783   1.941   3.102   2.515
 2641SOL    HW1 1784   1.940   3.055   2.603
 2641SOL    HW2 1785   2.023   3.074   2.464
 2642SOL     OW 1786   2.534   3.253   3.486
 2642SOL    HW1 1787   2.456   3.203   3.524
 2642SOL    HW2 1788   2.531   3.348   3.517
 2643SOL     OW 1789   3.686   2.054   3.089
 2643SOL    HW1 1790   3.682   1.964   3.133
 2643SOL    HW2 1791   3.689   2.043   2.990
 2644SOL     OW 1792   2.290   2.286   2.382
 2644SOL    HW1 1793   2.320   2.214   2.320
 2644SOL    HW2 1794   2.251   2.246   2.465
 2645SOL     OW 1795   3.567   3.349   2.966
 2645SOL    HW1 1796   3.474   3.324   2.939
 2645SOL    HW2 1797   3.593   3.299   3.048
 2646SOL     OW 1798   2.179   2.409   3.142
 2646SOL    HW1 1799   2.217   2.350   3.214
 2646SOL    HW2 1800   2.219   2.383   3.054
 2647SOL     OW 1801   2.674   3.448   2.549
 2647SOL    HW1 1802   2.706   3.458   2.455
 2647SOL    HW2 1803   2.595   3.386   2.551
 2648SOL     OW 1804   3.286   2.076   2.974
 2648SOL    HW1 1805   3.338   2.011   3.029
 2648SOL    HW2 1806   3.237   2.139   3.035
 2649SOL     OW 1807   2.863   1.896   3.016
 2649SOL    HW1 1808   2.800   1.824   2.985
 2649SOL    HW2 1809   2.956   1.860   3.016
 2650SOL     OW 1810   2.632   3.192   2.163
 2650SOL    HW1 1811   2.586   3.105   2.180
 2650SOL    HW2 1812   2.723   3.189   2.204
 2651SOL     OW 1813   2.480   3.429   3.146
 2651SOL    HW1 1814   2.475   3.511   3.203
 2651SOL    HW2 1815   2.569   3.426   3.101
 2652SOL     OW 1816   3.214   1.914   2.030
 2652SOL    HW1 1817   3.249   1.873   1.946
 2652SOL    HW2 1818   3.124   1.876   2.050
 2653SOL     OW 1819   3.455   2.083   2.744
 2653SOL    HW1 1820   3.371   2.082   2.798
 2653SOL    HW2 1821   3.457   2.166   2.688
 2654SOL     OW 1822   1.901   2.939   2.162
 2654SOL    HW1 1823   2.000   2.928   2.153
 2654SOL    HW2 1824   1.861   2.853   2.194
 2655SOL     OW 1825   2.737   3.508   2.199
 2655SOL    HW1 1826   2.660   3.473   2.145
 2655SOL    HW2 1827   2.705   3.579   2.261
 2656SOL     OW 1828   2.092   2.490   3.837
 2656SOL    HW1 1829   1.999   2.488   3.874
 2656SOL    HW2 1830   2.093   2.451   3.745
 2662SOL     OW 1831   3.617   2.469   3.955
 2662SOL    HW1 1832   3.605   2.456   3.856
 2662SOL    HW2 1833   3.587   2.388   4.004
 2672SOL     OW 1834   2.468   2.826   3.847
 2672SOL    HW1 1835   2.475   2.910   3.793
 2672SOL    HW2 1836   2.514   2.839   3.935
 2673SOL     OW 1837   1.984   2.505   4.287
 2673SOL    HW1 1838   1.939   2.417   4.304
 2673SOL    HW2 1839   1.983   2.559   4.371
 2675SOL     OW 1840   1.889   3.458   3.841
 2675SOL    HW1 1841   1.870   3.362   3.862
 2675SOL    HW2 1842   1.856   3.516   3.916
 2679SOL     OW 1843   2.671   1.866   4.226
 2679SOL    HW1 1844   2.711   1.957   4.217
 2679SOL    HW2 1845   2.571   1.874   4.232
 2681SOL     OW 1846   3.387   2.861   3.914
 2681SOL    HW1 1847   3.324   2.785   3.927
 2681SOL    HW2 1848   3.435   2.879   4.000
 2684SOL     OW 1849   2.460   2.591   3.994
 2684SOL    HW1 1850   2.484   2.660   3.926
 2684SOL    HW2 1851   2.382   2.624   4.048
 2689SOL     OW 1852   2.903   2.563   4.153
 2689SOL    HW1 1853   2.929   2.559   4.249
 2689SOL    HW2 1854   2.818   2.512   4.139
 2692SOL     OW 1855   2.727   2.210   3.919
 2692SOL    HW1 1856   2.786   2.273   3.870
 2692SOL    HW2 1857   2.746   2.116   3.890
 2695SOL     OW 1858   2.870   3.318   4.201
 2695SOL    HW1 1859   2.824   3.390   4.149
 2695SOL    HW2 1860   2.866   3.338   4.299
 2698SOL     OW 1861   2.183   2.805   3.966
 2698SOL    HW1 1862   2.265   2.844   3.924
 2698SOL    HW2 1863   2.156   2.723   3.917
 2700SOL     OW 1864   2.973   3.638   3.961
 2700SOL    HW1 1865   2.913   3.576   4.011
 2700SOL    HW2 1866   3.004   3.594   3.876
 2701SOL     OW 1867   3.494   3.239   3.805
 2701SOL    HW1 1868   3.462   3.333   3.795
 2701SOL    HW2 1869   3.418   3.176   3.793
 2702SOL     OW 1870   2.326   3.605   4.047
 2702SOL    HW1 1871   2.359   3.644   4.133
 2702SOL    HW2 1872   2.402   3.598   3.982
 2703SOL     OW 1873   3.262   1.969   4.150
 2703SOL    HW1 1874   3.238   1.932   4.060
 2703SOL    HW2 1875   3.361   1.985   4.154
 2706SOL     OW 1876   2.244   2.562   4.204
 2706SOL    HW1 1877   2.289   2.472   4.201
 2706SOL    HW2 1878   2.150   2.551   4.237
 2707SOL     OW 1879   2.476   1.984   3.841
 2707SOL    HW1 1880   2.574   1.962   3.848
 2707SOL    HW2 1881   2.445   1.967   3.748
 2711SOL     OW 1882   2.401   1.926   4.236
 2711SOL    HW1 1883   2.320   1.927   4.294
 2711SOL    HW2 1884   2.404   2.009   4.181
 2712SOL     OW 1885   3.296   3.050   3.765
 2712SOL    HW1 1886   3.328   2.974   3.822
 2712SOL    HW2 1887   3.204   3.077   3.795
 2713SOL     OW 1888   2.159   1.897   3.895
 2713SOL    HW1 1889   2.208   1.981   3.874
 2713SOL    HW2 1890   2.221   1.832   3.940
 2714SOL     OW 1891   2.797   2.098   4.204
 2714SOL    HW1 1892   2.749   2.139   4.126
 2714SOL    HW2 1893   2.896   2.096   4.185
 2718SOL     OW 1894   2.894   2.411   3.740
 2718SOL    HW1 1895   2.853   2.493   3.701
 2718SOL    HW2 1896   2.958   2.437   3.813
 2721SOL     OW 1897   2.728   2.316   4.366
 2721SOL    HW1 1898   2.696   2.388   4.304
 2721SOL    HW2 1899   2.752   2.235   4.313
 2726SOL     OW 1900   2.350   3.247   3.898
 2726SOL    HW1 1901   2.263   3.232   3.945
 2726SOL    HW2 1902   2.333   3.273   3.803
 2728SOL     OW 1903   3.252   2.437   3.802
 2728SOL    HW1 1904   3.198   2.416   3.883
 2728SOL    HW2 1905   3.343   2.396   3.811
 2729SOL     OW 1906   2.389   2.118   4.052
 2729SOL    HW1 1907   2.416   2.059   3.977
 2729SOL    HW2 1908   2.389   2.213   4.021
 2733SOL     OW 1909   2.567   2.912   4.092
 2733SOL    HW1 1910   2.553   2.919   4.191
 2733SOL    HW2 1911   2.651   2.861   4.074
 2737SOL     OW 1912   2.229   2.962   4.225
 2737SOL    HW1 1913   2.222   3.045   4.169
 2737SOL    HW2 1914   2.233   2.882   4.165
 2739SOL     OW 1915   3.114   3.210   4.112
 2739SOL    HW1 1916   3.164   3.287   4.152
 2739SOL    HW2 1917   3.019   3.212   4.144
 2746SOL     OW 1918   3.071   2.387   3.999
 2746SOL    HW1 1919   3.084   2.303   4.053
 2746SOL    HW2 1920   3.042   2.461   4.059
 2751SOL     OW 1921   3.484   2.229   4.098
 2751SOL    HW1 1922   3.486   2.153   4.162
 2751SOL    HW2 1923   3.436   2.306   4.138
 2754SOL     OW 1924   3.402   2.136   3.849
 2754SOL    HW1 1925   3.341   2.061   3.872
 2754SOL    HW2 1926   3.424   2.188   3.932
 2755SOL     OW 1927   3.165   2.700   3.766
 2755SOL    HW1 1928   3.199   2.607   3.781
 2755SOL    HW2 1929   3.183   2.727   3.671
 2760SOL     OW 1930   1.870   3.188   3.924
 2760SOL    HW1 1931   1.777   3.209   3.893
 2760SOL    HW2 1932   1.880   3.089   3.937
 2765SOL     OW 1933   2.677   2.434   4.049
 2765SOL    HW1 1934   2.684   2.345   4.003
 2765SOL    HW2 1935   2.583   2.468   4.041
 2769SOL     OW 1936   2.335   2.362   3.915
 2769SOL    HW1 1937   2.396   2.442   3.919
 2769SOL    HW2 1938   2.240   2.393   3.922
 2772SOL     OW 1939   3.164   2.717   4.033
 2772SOL    HW1 1940   3.078   2.686   4.075
 2772SOL    HW2 1941   3.160   2.703   3.934
 2779SOL     OW 1942   2.534   3.478   3.878
 2779SOL    HW1 1943   2.543   3.488   3.779
 2779SOL    HW2 1944   2.494   3.389   3.899
 2782SOL     OW 1945   3.056   3.474   3.755
 2782SOL    HW1 1946   3.062   3.381   3.792
 2782SOL    HW2 1947   2.997   3.474   3.675
 2784SOL     OW 1948   2.778   2.772   4.015
 2784SOL    HW1 1949   2.841   2.810   3.947
 2784SOL    HW2 1950   2.818   2.689   4.054
 2785SOL     OW 1951   3.366   3.469   3.768
 2785SOL    HW1 1952   3.274   3.506   3.775
 2785SOL    HW2 1953   3.404   3.489   3.678
 2790SOL     OW 1954   2.452   3.349   4.215
 2790SOL    HW1 1955   2.494   3.291   4.145
 2790SOL    HW2 1956   2.408   3.428   4.171
 2792SOL     OW 1957   2.117   3.210   4.014
 2792SOL    HW1 1958   2.021   3.211   3.987
 2792SOL    HW2 1959   2.129   3.263   4.098
 2794SOL     OW 1960   1.937   2.207   3.757
 2794SOL    HW1 1961   1.845   2.179   3.728
 2794SOL    HW2 1962   1.968   2.284   3.701
 2795SOL     OW 1963   1.934   2.028   4.042
 2795SOL    HW1 1964   1.917   2.111   3.988
 2795SOL    HW2 1965   2.024   1.991   4.020
 2796SOL     OW 1966   3.045   3.197   3.843
 2796SOL    HW1 1967   2.946   3.186   3.845
 2796SOL    HW2 1968   3.079   3.212   3.936
 2801SOL     OW 1969   3.087   2.187   4.173
 2801SOL    HW1 1970   3.152   2.113   4.162
 2801SOL    HW2 1971   3.107   2.237   4.257
 2802SOL     OW 1972   2.456   2.607   4.376
 2802SOL    HW1 1973   2.506   2.692   4.357
 2802SOL    HW2 1974   2.368   2.609   4.328
 2804SOL     OW 1975   2.721   3.236   3.740
 2804SOL    HW1 1976   2.675   3.251   3.828
 2804SOL    HW2 1977   2.765   3.321   3.710
 2807SOL     OW 1978   2.945   2.846   3.811
 2807SOL    HW1 1979   2.922   2.899   3.729
 2807SOL    HW2 1980   3.026   2.790   3.792
 2811SOL     OW 1981   2.290   2.286   4.244
 2811SOL    HW1 1982   2.320   2.214   4.182
 2811SOL    HW2 1983   2.251   2.246   4.327
 2817SOL     OW 1984   2.632   3.192   4.025
 2817SOL    HW1 1985   2.586   3.105   4.042
 2817SOL    HW2 1986   2.723   3.189   4.066
 2819SOL     OW 1987   3.214   1.914   3.892
 2819SOL    HW1 1988   3.249   1.873   3.808
 2819SOL    HW2 1989   3.124   1.876   3.912
 2822SOL     OW 1990   1.901   2.939   4.024
 2822SOL    HW1 1991   2.000   2.928   4.015
 2822SOL    HW2 1992   1.861   2.853   4.056
 2823SOL     OW 1993   2.737   3.508   4.061
 2823SOL    HW1 1994   2.660   3.473   4.007
 2823SOL    HW2 1995   2.705   3.579   4.123
 2853SOL     OW 1996   2.179   3.975   1.801
 2853SOL    HW1 1997   2.250   4.046   1.807
 2853SOL    HW2 1998   2.091   4.014   1.829
 2875SOL     OW 1999   3.409   3.946   1.729
 2875SOL    HW1 2000   3.404   3.983   1.821
 2875SOL    HW2 2001   3.337   3.877   1.717
 2876SOL     OW 2002   2.643   3.988   1.749
 2876SOL    HW1 2003   2.710   3.927   1.792
 2876SOL    HW2 2004   2.570   4.007   1.814
 2900SOL     OW 2005   2.777   3.813   1.402
 2900SOL    HW1 2006   2.802   3.793   1.307
 2900SOL    HW2 2007   2.849   3.869   1.444
 2913SOL     OW 2008   2.875   3.829   1.770
 2913SOL    HW1 2009   2.881   3.914   1.718
 2913SOL    HW2 2010   2.907   3.753   1.713
 2914SOL     OW 2011   2.366   3.774   1.740
 2914SOL    HW1 2012   2.324   3.717   1.670
 2914SOL    HW2 2013   2.300   3.843   1.772
 2932SOL     OW 2014   3.022   3.931   1.477
 2932SOL    HW1 2015   3.022   3.995   1.554
 2932SOL    HW2 2016   3.050   3.979   1.394
 2961SOL     OW 2017   2.534   3.927   1.489
 2961SOL    HW1 2018   2.624   3.911   1.449
 2961SOL    HW2 2019   2.542   3.932   1.588
 2992SOL     OW 2020   2.087   3.999   2.858
 2992SOL    HW1 2021   2.122   3.982   2.950
 2992SOL    HW2 2022   1.999   3.954   2.846
 2993SOL     OW 2023   1.881   4.092   2.509
 2993SOL    HW1 2024   1.799   4.135   2.548
 2993SOL    HW2 2025   1.853   4.019   2.446
 3003SOL     OW 2026   2.300   4.116   3.361
 3003SOL    HW1 2027   2.382   4.060   3.370
 3003SOL    HW2 2028   2.219   4.058   3.365
 3004SOL     OW 2029   3.465   4.171   2.599
 3004SOL    HW1 2030   3.391   4.217   2.549
 3004SOL    HW2 2031   3.516   4.239   2.652
 3009SOL     OW 2032   3.456   3.838   3.342
 3009SOL    HW1 2033   3.438   3.905   3.270
 3009SOL    HW2 2034   3.453   3.884   3.431
 3017SOL     OW 2035   2.671   3.728   2.364
 3017SOL    HW1 2036   2.711   3.819   2.355
 3017SOL    HW2 2037   2.571   3.736   2.370
 3020SOL     OW 2038   2.179   3.975   3.663
 3020SOL    HW1 2039   2.250   4.046   3.669
 3020SOL    HW2 2040   2.091   4.014   3.691
 3023SOL     OW 2041   3.143   4.069   2.806
 3023SOL    HW1 2042   3.057   4.019   2.793
 3023SOL    HW2 2043   3.205   4.015   2.862
 3027SOL     OW 2044   2.853   4.134   3.104
 3027SOL    HW1 2045   2.776   4.168   3.158
 3027SOL    HW2 2046   2.819   4.083   3.025
 3030SOL     OW 2047   2.727   4.072   2.057
 3030SOL    HW1 2048   2.786   4.135   2.008
 3030SOL    HW2 2049   2.746   3.978   2.028
 3033SOL     OW 2050   2.412   3.920   2.747
 3033SOL    HW1 2051   2.407   3.915   2.847
 3033SOL    HW2 2052   2.414   4.016   2.718
 3039SOL     OW 2053   2.064   4.009   3.360
 3039SOL    HW1 2054   1.984   4.069   3.347
 3039SOL    HW2 2055   2.054   3.960   3.446
 3041SOL     OW 2056   3.262   3.831   2.288
 3041SOL    HW1 2057   3.238   3.794   2.198
 3041SOL    HW2 2058   3.361   3.847   2.292
 3044SOL     OW 2059   2.476   3.846   1.979
 3044SOL    HW1 2060   2.574   3.824   1.986
 3044SOL    HW2 2061   2.445   3.829   1.886
 3045SOL     OW 2062   2.643   3.988   3.611
 3045SOL    HW1 2063   2.710   3.927   3.654
 3045SOL    HW2 2064   2.570   4.007   3.676
 3047SOL     OW 2065   2.784   4.227   2.761
 3047SOL    HW1 2066   2.759   4.218   2.665
 3047SOL    HW2 2067   2.832   4.145   2.792
 3048SOL     OW 2068   2.401   3.788   2.374
 3048SOL    HW1 2069   2.320   3.789   2.432
 3048SOL    HW2 2070   2.404   3.871   2.319
 3050SOL     OW 2071   2.159   3.759   2.033
 3050SOL    HW1 2072   2.208   3.843   2.012
 3050SOL    HW2 2073   2.221   3.694   2.078
 3051SOL     OW 2074   2.797   3.960   2.342
 3051SOL    HW1 2075   2.749   4.001   2.264
 3051SOL    HW2 2076   2.896   3.958   2.323
 3057SOL     OW 2077   2.423   3.946   3.009
 3057SOL    HW1 2078   2.461   3.862   3.046
 3057SOL    HW2 2079   2.335   3.965   3.053
 3058SOL     OW 2080   2.728   4.178   2.504
 3058SOL    HW1 2081   2.696   4.250   2.442
 3058SOL    HW2 2082   2.752   4.097   2.451
 3059SOL     OW 2083   2.879   3.763   2.615
 3059SOL    HW1 2084   2.807   3.768   2.546
 3059SOL    HW2 2085   2.855   3.694   2.684
 3065SOL     OW 2086   2.389   3.980   2.190
 3065SOL    HW1 2087   2.416   3.921   2.115
 3065SOL    HW2 2088   2.389   4.075   2.159
 3070SOL     OW 2089   2.777   3.813   3.264
 3070SOL    HW1 2090   2.802   3.793   3.169
 3070SOL    HW2 2091   2.849   3.869   3.306
 3074SOL     OW 2092   3.136   4.110   3.124
 3074SOL    HW1 2093   3.157   4.184   3.188
 3074SOL    HW2 2094   3.047   4.127   3.081
 3076SOL     OW 2095   2.428   4.261   2.727
 3076SOL    HW1 2096   2.440   4.327   2.653
 3076SOL    HW2 2097   2.474   4.295   2.810
 3083SOL     OW 2098   2.875   3.829   3.632
 3083SOL    HW1 2099   2.881   3.914   3.580
 3083SOL    HW2 2100   2.907   3.753   3.575
 3084SOL     OW 2101   2.366   3.774   3.602
 3084SOL    HW1 2102   2.324   3.717   3.532
 3084SOL    HW2 2103   2.300   3.843   3.634
 3087SOL     OW 2104   3.071   4.249   2.137
 3087SOL    HW1 2105   3.084   4.165   2.191
 3087SOL    HW2 2106   3.042   4.323   2.197
 3088SOL     OW 2107   2.169   3.937   3.093
 3088SOL    HW1 2108   2.146   3.974   3.183
 3088SOL    HW2 2109   2.139   3.842   3.087
 3090SOL     OW 2110   2.594   4.358   2.926
 3090SOL    HW1 2111   2.653   4.332   2.850
 3090SOL    HW2 2112   2.566   4.454   2.915
 3092SOL     OW 2113   2.169   3.787   2.480
 3092SOL    HW1 2114   2.158   3.881   2.513
 3092SOL    HW2 2115   2.164   3.724   2.557
 3093SOL     OW 2116   3.484   4.091   2.236
 3093SOL    HW1 2117   3.486   4.015   2.300
 3093SOL    HW2 2118   3.436   4.168   2.276
 3097SOL     OW 2119   3.402   3.998   1.987
 3097SOL    HW1 2120   3.341   3.923   2.010
 3097SOL    HW2 2121   3.424   4.050   2.070
 3100SOL     OW 2122   2.201   4.233   2.868
 3100SOL    HW1 2123   2.149   4.150   2.851
 3100SOL    HW2 2124   2.278   4.238   2.804
 3102SOL     OW 2125   3.022   3.931   3.339
 3102SOL    HW1 2126   3.022   3.995   3.416
 3102SOL    HW2 2127   3.050   3.979   3.256
 3108SOL     OW 2128   2.677   4.296   2.187
 3108SOL    HW1 2129   2.684   4.207   2.141
 3108SOL    HW2 2130   2.583   4.330   2.179
 3110SOL     OW 2131   2.533   4.188   3.131
 3110SOL    HW1 2132   2.499   4.099   3.101
 3110SOL    HW2 2133   2.559   4.242   3.051
 3111SOL     OW 2134   2.335   4.224   2.053
 3111SOL    HW1 2135   2.396   4.304   2.057
 3111SOL    HW2 2136   2.240   4.255   2.060
 3116SOL     OW 2137   3.588   3.859   2.385
 3116SOL    HW1 2138   3.661   3.842   2.318
 3116SOL    HW2 2139   3.557   3.772   2.423
 3119SOL     OW 2140   3.703   3.899   2.825
 3119SOL    HW1 2141   3.742   3.814   2.789
 3119SOL    HW2 2142   3.605   3.901   2.806
 3120SOL     OW 2143   2.125   4.050   2.582
 3120SOL    HW1 2144   2.046   4.101   2.548
 3120SOL    HW2 2145   2.116   4.035   2.680
 3126SOL     OW 2146   2.876   3.960   2.833
 3126SOL    HW1 2147   2.868   3.924   2.740
 3126SOL    HW2 2148   2.874   3.884   2.898
 3130SOL     OW 2149   2.534   3.927   3.351
 3130SOL    HW1 2150   2.624   3.911   3.311
 3130SOL    HW2 2151   2.542   3.932   3.450
 3131SOL     OW 2152   1.937   4.069   1.895
 3131SOL    HW1 2153   1.845   4.041   1.866
 3131SOL    HW2 2154   1.968   4.146   1.839
 3133SOL     OW 2155   1.934   3.890   2.180
 3133SOL    HW1 2156   1.917   3.973   2.126
 3133SOL    HW2 2157   2.024   3.853   2.158
 3139SOL     OW 2158   3.087   4.049   2.311
 3139SOL    HW1 2159   3.152   3.975   2.300
 3139SOL    HW2 2160   3.107   4.099   2.395
 3149SOL     OW 2161   3.686   3.916   3.089
 3149SOL    HW1 2162   3.682   3.826   3.133
 3149SOL    HW2 2163   3.689   3.905   2.990
 3150SOL     OW 2164   2.290   4.148   2.382
 3150SOL    HW1 2165   2.320   4.076   2.320
 3150SOL    HW2 2166   2.251   4.108   2.465
 3153SOL     OW 2167   3.286   3.938   2.974
 3153SOL    HW1 2168   3.338   3.873   3.029
 3153SOL    HW2 2169   3.237   4.001   3.035
 3154SOL     OW 2170   2.863   3.758   3.016
 3154SOL    HW1 2171   2.800   3.686   2.985
 3154SOL    HW2 2172   2.956   3.722   3.016
 3156SOL     OW 2173   3.214   3.776   2.030
 3156SOL    HW1 2174   3.249   3.735   1.946
 3156SOL    HW2 2175   3.124   3.738   2.050
 3157SOL     OW 2176   3.162   4.177   2.553
 3157SOL    HW1 2177   3.103   4.257   2.557
 3157SOL    HW2 2178   3.177   4.142   2.646
 3158SOL     OW 2179   3.455   3.945   2.744
 3158SOL    HW1 2180   3.371   3.944   2.798
 3158SOL    HW2 2181   3.457   4.028   2.688
 3202SOL     OW 2182   2.476   3.846   3.841
 3202SOL    HW1 2183   2.574   3.824   3.848
 3202SOL    HW2 2184   2.445   3.829   3.748
 3206SOL     OW 2185   2.159   3.759   3.895
 3206SOL    HW1 2186   2.208   3.843   3.874
 3206SOL    HW2 2187   2.221   3.694   3.940
 3421SOL     OW 2188   3.854   1.794   1.851
 3421SOL    HW1 2189   3.813   1.720   1.904
 3421SOL    HW2 2190   3.918   1.845   1.909
 3474SOL     OW 2191   3.955   1.713   2.345
 3474SOL    HW1 2192   3.989   1.790   2.399
 3474SOL    HW2 2193   3.999   1.713   2.255
 3476SOL     OW 2194   3.954   1.434   2.400
 3476SOL    HW1 2195   3.928   1.530   2.400
 3476SOL    HW2 2196   3.883   1.380   2.445
 3481SOL     OW 2197   3.751   1.596   1.979
 3481SOL    HW1 2198   3.732   1.500   2.000
 3481SOL    HW2 2199   3.718   1.654   2.054
 3499SOL     OW 2200   3.854   1.821   3.433
 3499SOL    HW1 2201   3.844   1.806   3.532
 3499SOL    HW2 2202   3.768   1.857   3.397
 3504SOL     OW 2203   4.075   1.801   2.715
 3504SOL    HW1 2204   4.125   1.715   2.721
 3504SOL    HW2 2205   4.140   1.878   2.712
 3511SOL     OW 2206   3.973   1.785   3.103
 3511SOL    HW1 2207   4.030   1.720   3.153
 3511SOL    HW2 2208   3.957   1.752   3.010
 3543SOL     OW 2209   3.788   1.564   3.193
 3543SOL    HW1 2210   3.742   1.646   3.159
 3543SOL    HW2 2211   3.886   1.583   3.202
 3568SOL     OW 2212   3.732   1.326   2.062
 3568SOL    HW1 2213   3.639   1.347   2.031
 3568SOL    HW2 2214   3.742   1.227   2.075
 3569SOL     OW 2215   3.812   1.801   2.789
 3569SOL    HW1 2216   3.770   1.715   2.762
 3569SOL    HW2 2217   3.906   1.804   2.755
 3781SOL     OW 2218   3.837   2.599   1.597
 3781SOL    HW1 2219   3.925   2.586   1.642
 3781SOL    HW2 2220   3.824   2.696   1.575
 3787SOL     OW 2221   4.041   2.113   1.801
 3787SOL    HW1 2222   4.112   2.184   1.807
 3787SOL    HW2 2223   3.953   2.152   1.829
 3807SOL     OW 2224   3.926   2.147   1.498
 3807SOL    HW1 2225   3.846   2.207   1.485
 3807SOL    HW2 2226   3.916   2.098   1.584
 3825SOL     OW 2227   3.802   2.418   1.386
 3825SOL    HW1 2228   3.894   2.417   1.345
 3825SOL    HW2 2229   3.796   2.492   1.453
 3858SOL     OW 2230   4.074   2.760   1.804
 3858SOL    HW1 2231   4.150   2.804   1.852
 3858SOL    HW2 2232   4.109   2.713   1.722
 3870SOL     OW 2233   3.913   2.382   1.722
 3870SOL    HW1 2234   3.972   2.342   1.652
 3870SOL    HW2 2235   3.855   2.453   1.681
 3877SOL     OW 2236   3.883   2.999   1.466
 3877SOL    HW1 2237   3.905   2.938   1.542
 3877SOL    HW2 2238   3.893   2.950   1.380
 3885SOL     OW 2239   3.854   3.656   1.851
 3885SOL    HW1 2240   3.813   3.582   1.904
 3885SOL    HW2 2241   3.918   3.707   1.909
 3898SOL     OW 2242   3.829   2.875   1.726
 3898SOL    HW1 2243   3.752   2.842   1.780
 3898SOL    HW2 2244   3.914   2.845   1.768
 3914SOL     OW 2245   3.945   3.176   1.844
 3914SOL    HW1 2246   3.880   3.103   1.823
 3914SOL    HW2 2247   3.949   3.190   1.942
 3927SOL     OW 2248   3.954   2.490   1.975
 3927SOL    HW1 2249   3.861   2.488   2.012
 3927SOL    HW2 2250   3.955   2.451   1.883
 3928SOL     OW 2251   3.949   2.137   2.858
 3928SOL    HW1 2252   3.984   2.120   2.950
 3928SOL    HW2 2253   3.861   2.092   2.846
 3929SOL     OW 2254   3.743   2.230   2.509
 3929SOL    HW1 2255   3.661   2.273   2.548
 3929SOL    HW2 2256   3.715   2.157   2.446
 3937SOL     OW 2257   4.059   3.297   2.923
 3937SOL    HW1 2258   3.981   3.266   2.870
 3937SOL    HW2 2259   4.117   3.355   2.866
 3938SOL     OW 2260   4.162   2.254   3.361
 3938SOL    HW1 2261   4.244   2.198   3.370
 3938SOL    HW2 2262   4.081   2.196   3.365
 3939SOL     OW 2263   3.955   3.575   2.345
 3939SOL    HW1 2264   3.989   3.652   2.399
 3939SOL    HW2 2265   3.999   3.575   2.255
 3941SOL     OW 2266   3.954   3.296   2.400
 3941SOL    HW1 2267   3.928   3.392   2.400
 3941SOL    HW2 2268   3.883   3.242   2.445
 3942SOL     OW 2269   3.964   2.953   2.748
 3942SOL    HW1 2270   3.978   2.869   2.800
 3942SOL    HW2 2271   3.909   3.017   2.803
 3945SOL     OW 2272   3.846   2.505   2.425
 3945SOL    HW1 2273   3.801   2.417   2.442
 3945SOL    HW2 2274   3.845   2.559   2.509
 3946SOL     OW 2275   3.751   3.458   1.979
 3946SOL    HW1 2276   3.732   3.362   2.000
 3946SOL    HW2 2277   3.718   3.516   2.054
 3948SOL     OW 2278   3.837   2.599   3.459
 3948SOL    HW1 2279   3.925   2.586   3.504
 3948SOL    HW2 2280   3.824   2.696   3.437
 3952SOL     OW 2281   3.921   2.838   3.126
 3952SOL    HW1 2282   4.010   2.793   3.112
 3952SOL    HW2 2283   3.848   2.773   3.107
 3956SOL     OW 2284   4.322   2.591   2.132
 3956SOL    HW1 2285   4.346   2.660   2.064
 3956SOL    HW2 2286   4.244   2.624   2.186
 3963SOL     OW 2287   3.800   2.673   2.651
 3963SOL    HW1 2288   3.899   2.661   2.660
 3963SOL    HW2 2289   3.776   2.768   2.672
 3967SOL     OW 2290   4.274   2.058   2.747
 3967SOL    HW1 2291   4.269   2.053   2.847
 3967SOL    HW2 2292   4.276   2.154   2.718
 3971SOL     OW 2293   4.045   2.805   2.104
 3971SOL    HW1 2294   4.127   2.844   2.062
 3971SOL    HW2 2295   4.018   2.723   2.055
 3974SOL     OW 2296   3.926   2.147   3.360
 3974SOL    HW1 2297   3.846   2.207   3.347
 3974SOL    HW2 2298   3.916   2.098   3.446
 3976SOL     OW 2299   3.973   3.647   3.103
 3976SOL    HW1 2300   4.030   3.582   3.153
 3976SOL    HW2 2301   3.957   3.614   3.010
 3978SOL     OW 2302   4.106   2.562   2.342
 3978SOL    HW1 2303   4.151   2.472   2.339
 3978SOL    HW2 2304   4.012   2.551   2.375
 3987SOL     OW 2305   4.021   1.897   2.033
 3987SOL    HW1 2306   4.070   1.981   2.012
 3987SOL    HW2 2307   4.083   1.832   2.078
 3991SOL     OW 2308   4.183   3.014   2.603
 3991SOL    HW1 2309   4.112   2.987   2.668
 3991SOL    HW2 2310   4.157   2.986   2.510
 3994SOL     OW 2311   3.802   2.418   3.248
 3994SOL    HW1 2312   3.894   2.417   3.207
 3994SOL    HW2 2313   3.796   2.492   3.315
 4000SOL     OW 2314   4.251   2.118   2.190
 4000SOL    HW1 2315   4.278   2.059   2.115
 4000SOL    HW2 2316   4.251   2.213   2.159
 4006SOL     OW 2317   4.134   2.675   3.113
 4006SOL    HW1 2318   4.220   2.687   3.163
 4006SOL    HW2 2319   4.092   2.588   3.140
 4008SOL     OW 2320   3.788   3.426   3.193
 4008SOL    HW1 2321   3.742   3.508   3.159
 4008SOL    HW2 2322   3.886   3.445   3.202
 4009SOL     OW 2323   4.091   2.962   2.363
 4009SOL    HW1 2324   4.084   3.045   2.307
 4009SOL    HW2 2325   4.095   2.882   2.303
 4010SOL     OW 2326   4.290   2.399   2.727
 4010SOL    HW1 2327   4.302   2.465   2.653
 4010SOL    HW2 2328   4.336   2.433   2.810
 4013SOL     OW 2329   4.078   3.372   3.191
 4013SOL    HW1 2330   4.057   3.328   3.104
 4013SOL    HW2 2331   4.175   3.398   3.194
 4014SOL     OW 2332   4.126   2.613   3.460
 4014SOL    HW1 2333   4.194   2.668   3.413
 4014SOL    HW2 2334   4.166   2.525   3.487
 4017SOL     OW 2335   4.297   2.732   2.891
 4017SOL    HW1 2336   4.341   2.821   2.882
 4017SOL    HW2 2337   4.234   2.732   2.968
 4020SOL     OW 2338   4.031   2.075   3.093
 4020SOL    HW1 2339   4.008   2.112   3.183
 4020SOL    HW2 2340   4.001   1.980   3.087
 4021SOL     OW 2341   3.761   3.172   3.144
 4021SOL    HW1 2342   3.814   3.123   3.212
 4021SOL    HW2 2343   3.783   3.270   3.149
 4023SOL     OW 2344   4.031   1.925   2.480
 4023SOL    HW1 2345   4.020   2.019   2.513
 4023SOL    HW2 2346   4.026   1.862   2.557
 4030SOL     OW 2347   4.043   2.672   2.811
 4030SOL    HW1 2348   4.136   2.708   2.816
 4030SOL    HW2 2349   4.037   2.587   2.863
 4031SOL     OW 2350   4.063   2.371   2.868
 4031SOL    HW1 2351   4.011   2.288   2.851
 4031SOL    HW2 2352   4.140   2.376   2.804
 4034SOL     OW 2353   3.732   3.188   2.062
 4034SOL    HW1 2354   3.639   3.209   2.031
 4034SOL    HW2 2355   3.742   3.089   2.075
 4035SOL     OW 2356   3.812   3.663   2.789
 4035SOL    HW1 2357   3.770   3.577   2.762
 4035SOL    HW2 2358   3.906   3.666   2.755
 4038SOL     OW 2359   3.764   2.406   2.976
 4038SOL    HW1 2360   3.849   2.373   2.935
 4038SOL    HW2 2361   3.777   2.421   3.074
 4039SOL     OW 2362   3.913   2.382   3.584
 4039SOL    HW1 2363   3.972   2.342   3.514
 4039SOL    HW2 2364   3.855   2.453   3.543
 4045SOL     OW 2365   4.197   2.362   2.053
 4045SOL    HW1 2366   4.258   2.442   2.057
 4045SOL    HW2 2367   4.102   2.393   2.060
 4046SOL     OW 2368   3.883   2.999   3.328
 4046SOL    HW1 2369   3.905   2.938   3.404
 4046SOL    HW2 2370   3.893   2.950   3.242
 4050SOL     OW 2371   3.807   3.120   2.884
 4050SOL    HW1 2372   3.802   3.119   2.984
 4050SOL    HW2 2373   3.724   3.079   2.846
 4057SOL     OW 2374   3.987   2.188   2.582
 4057SOL    HW1 2375   3.908   2.239   2.548
 4057SOL    HW2 2376   3.978   2.173   2.680
 4061SOL     OW 2377   4.096   3.150   3.352
 4061SOL    HW1 2378   4.083   3.243   3.318
 4061SOL    HW2 2379   4.012   3.098   3.339
 4065SOL     OW 2380   3.979   3.210   2.152
 4065SOL    HW1 2381   3.883   3.211   2.125
 4065SOL    HW2 2382   3.991   3.263   2.236
 4066SOL     OW 2383   3.829   2.875   3.588
 4066SOL    HW1 2384   3.752   2.842   3.642
 4066SOL    HW2 2385   3.914   2.845   3.630
 4068SOL     OW 2386   3.799   2.207   1.895
 4068SOL    HW1 2387   3.707   2.179   1.866
 4068SOL    HW2 2388   3.830   2.284   1.839
 4070SOL     OW 2389   3.796   2.028   2.180
 4070SOL    HW1 2390   3.779   2.111   2.126
 4070SOL    HW2 2391   3.886   1.991   2.158
 4077SOL     OW 2392   4.318   2.607   2.514
 4077SOL    HW1 2393   4.368   2.692   2.495
 4077SOL    HW2 2394   4.230   2.609   2.466
 4083SOL     OW 2395   3.803   3.102   2.515
 4083SOL    HW1 2396   3.802   3.055   2.603
 4083SOL    HW2 2397   3.885   3.074   2.464
 4085SOL     OW 2398   4.152   2.286   2.382
 4085SOL    HW1 2399   4.182   2.214   2.320
 4085SOL    HW2 2400   4.113   2.246   2.465
 4086SOL     OW 2401   4.041   2.409   3.142
 4086SOL    HW1 2402   4.079   2.350   3.214
 4086SOL    HW2 2403   4.081   2.383   3.054
 4093SOL     OW 2404   3.763   2.939   2.162
 4093SOL    HW1 2405   3.862   2.928   2.153
 4093SOL    HW2 2406   3.723   2.853   2.194
 4209SOL     OW 2407   3.799   2.207   3.757
 4209SOL    HW1 2408   3.707   2.179   3.728
 4209SOL    HW2 2409   3.830   2.284   3.701
   5.20781   5.20781   5.20781
