; mobley_590519_GMX.itp created by acpype (v: 2023.10.27) on Thu May 21 00:08:54 2026

[ atomtypes ]
;name   bond_type     mass     charge   ptype   sigma         epsilon       Amb
 c3       c3          0.00000  0.00000   A     3.39771e-01   4.51035e-01 ; 1.91  0.1078
 ss       ss          0.00000  0.00000   A     3.53241e-01   1.18156e+00 ; 1.98  0.2824
 hc       hc          0.00000  0.00000   A     2.60018e-01   8.70272e-02 ; 1.46  0.0208
 h1       h1          0.00000  0.00000   A     2.42200e-01   8.70272e-02 ; 1.36  0.0208

[ moleculetype ]
;name            nrexcl
 mobley_590519    3

[ atoms ]
;   nr  type  resi  res  atom  cgnr     charge      mass       ; qtot   bond_type
     1   c3     1   MOL    C1    1    -0.088100     12.01000 ; qtot -0.088
     2   c3     1   MOL    C2    2    -0.088100     12.01000 ; qtot -0.176
     3   c3     1   MOL    C3    3    -0.009300     12.01000 ; qtot -0.185
     4   c3     1   MOL    C4    4    -0.009300     12.01000 ; qtot -0.195
     5   ss     1   MOL    S1    5    -0.185099     32.06000 ; qtot -0.380
     6   ss     1   MOL    S2    6    -0.185099     32.06000 ; qtot -0.565
     7   hc     1   MOL    H1    7     0.050033      1.00800 ; qtot -0.515
     8   hc     1   MOL    H2    8     0.050033      1.00800 ; qtot -0.465
     9   hc     1   MOL    H3    9     0.050033      1.00800 ; qtot -0.415
    10   hc     1   MOL    H4   10     0.050033      1.00800 ; qtot -0.365
    11   hc     1   MOL    H5   11     0.050033      1.00800 ; qtot -0.315
    12   hc     1   MOL    H6   12     0.050033      1.00800 ; qtot -0.265
    13   h1     1   MOL    H7   13     0.066200      1.00800 ; qtot -0.199
    14   h1     1   MOL    H8   14     0.066200      1.00800 ; qtot -0.132
    15   h1     1   MOL    H9   15     0.066200      1.00800 ; qtot -0.066
    16   h1     1   MOL   H10   16     0.066200      1.00800 ; qtot 0.000

[ bonds ]
;   ai     aj funct   r             k
     1      3   1    1.5354e-01    1.9154e+05 ;     C1 - C3    
     1      7   1    1.0962e-01    2.8891e+05 ;     C1 - H1    
     1      8   1    1.0962e-01    2.8891e+05 ;     C1 - H2    
     1      9   1    1.0962e-01    2.8891e+05 ;     C1 - H3    
     2      4   1    1.5354e-01    1.9154e+05 ;     C2 - C4    
     2     10   1    1.0962e-01    2.8891e+05 ;     C2 - H4    
     2     11   1    1.0962e-01    2.8891e+05 ;     C2 - H5    
     2     12   1    1.0962e-01    2.8891e+05 ;     C2 - H6    
     3      5   1    1.8407e-01    1.5459e+05 ;     C3 - S1    
     3     13   1    1.0969e-01    2.8804e+05 ;     C3 - H7    
     3     14   1    1.0969e-01    2.8804e+05 ;     C3 - H8    
     4      6   1    1.8407e-01    1.5459e+05 ;     C4 - S2    
     4     15   1    1.0969e-01    2.8804e+05 ;     C4 - H9    
     4     16   1    1.0969e-01    2.8804e+05 ;     C4 - H10   
     5      6   1    2.0950e-01    1.9849e+05 ;     S1 - S2    

[ pairs ]
;   ai     aj    funct
     1      6      1 ;     C1 - S2    
     2      5      1 ;     C2 - S1    
     3      4      1 ;     C3 - C4    
     5     15      1 ;     S1 - H9    
     5     16      1 ;     S1 - H10   
     6     10      1 ;     S2 - H4    
     6     11      1 ;     S2 - H5    
     6     12      1 ;     S2 - H6    
     6     13      1 ;     S2 - H7    
     6     14      1 ;     S2 - H8    
     7      5      1 ;     H1 - S1    
     7     13      1 ;     H1 - H7    
     7     14      1 ;     H1 - H8    
     8      5      1 ;     H2 - S1    
     8     13      1 ;     H2 - H7    
     8     14      1 ;     H2 - H8    
     9      5      1 ;     H3 - S1    
     9     13      1 ;     H3 - H7    
     9     14      1 ;     H3 - H8    
    10     15      1 ;     H4 - H9    
    10     16      1 ;     H4 - H10   
    11     15      1 ;     H5 - H9    
    11     16      1 ;     H5 - H10   
    12     15      1 ;     H6 - H9    
    12     16      1 ;     H6 - H10   

[ angles ]
;   ai     aj     ak    funct   theta         cth
     1      3      5      1    1.1018e+02    5.2651e+02 ;     C1 - C3     - S1    
     1      3     13      1    1.0959e+02    3.6217e+02 ;     C1 - C3     - H7    
     1      3     14      1    1.0959e+02    3.6217e+02 ;     C1 - C3     - H8    
     2      4      6      1    1.1018e+02    5.2651e+02 ;     C2 - C4     - S2    
     2      4     15      1    1.0959e+02    3.6217e+02 ;     C2 - C4     - H9    
     2      4     16      1    1.0959e+02    3.6217e+02 ;     C2 - C4     - H10   
     3      1      7      1    1.0968e+02    3.6208e+02 ;     C3 - C1     - H1    
     3      1      8      1    1.0968e+02    3.6208e+02 ;     C3 - C1     - H2    
     3      1      9      1    1.0968e+02    3.6208e+02 ;     C3 - C1     - H3    
     3      5      6      1    1.0357e+02    8.1956e+02 ;     C3 - S1     - S2    
     4      2     10      1    1.0968e+02    3.6208e+02 ;     C4 - C2     - H4    
     4      2     11      1    1.0968e+02    3.6208e+02 ;     C4 - C2     - H5    
     4      2     12      1    1.0968e+02    3.6208e+02 ;     C4 - C2     - H6    
     4      6      5      1    1.0357e+02    8.1956e+02 ;     C4 - S2     - S1    
     5      3     13      1    1.0873e+02    3.5196e+02 ;     S1 - C3     - H7    
     5      3     14      1    1.0873e+02    3.5196e+02 ;     S1 - C3     - H8    
     6      4     15      1    1.0873e+02    3.5196e+02 ;     S2 - C4     - H9    
     6      4     16      1    1.0873e+02    3.5196e+02 ;     S2 - C4     - H10   
     7      1      8      1    1.0773e+02    2.9957e+02 ;     H1 - C1     - H2    
     7      1      9      1    1.0773e+02    2.9957e+02 ;     H1 - C1     - H3    
     8      1      9      1    1.0773e+02    2.9957e+02 ;     H2 - C1     - H3    
    10      2     11      1    1.0773e+02    2.9957e+02 ;     H4 - C2     - H5    
    10      2     12      1    1.0773e+02    2.9957e+02 ;     H4 - C2     - H6    
    11      2     12      1    1.0773e+02    2.9957e+02 ;     H5 - C2     - H6    
    13      3     14      1    1.0855e+02    2.9824e+02 ;     H7 - C3     - H8    
    15      4     16      1    1.0855e+02    2.9824e+02 ;     H9 - C4     - H10   

[ dihedrals ] ; propers
; for gromacs 4.5 or higher, using funct 9
;    i      j      k      l   func   phase     kd      pn
     1      3      5      6      9     0.00   1.39467   3 ;     C1-    C3-    S1-    S2
     2      4      6      5      9     0.00   1.39467   3 ;     C2-    C4-    S2-    S1
     3      5      6      4      9     0.00  12.63568   2 ;     C3-    S1-    S2-    C4
     5      6      4     15      9     0.00   1.39467   3 ;     S1-    S2-    C4-    H9
     5      6      4     16      9     0.00   1.39467   3 ;     S1-    S2-    C4-   H10
     6      4      2     10      9     0.00   0.65084   3 ;     S2-    C4-    C2-    H4
     6      4      2     11      9     0.00   0.65084   3 ;     S2-    C4-    C2-    H5
     6      4      2     12      9     0.00   0.65084   3 ;     S2-    C4-    C2-    H6
     6      5      3     13      9     0.00   1.39467   3 ;     S2-    S1-    C3-    H7
     6      5      3     14      9     0.00   1.39467   3 ;     S2-    S1-    C3-    H8
     7      1      3      5      9     0.00   0.65084   3 ;     H1-    C1-    C3-    S1
     7      1      3     13      9     0.00   0.65084   3 ;     H1-    C1-    C3-    H7
     7      1      3     14      9     0.00   0.65084   3 ;     H1-    C1-    C3-    H8
     8      1      3      5      9     0.00   0.65084   3 ;     H2-    C1-    C3-    S1
     8      1      3     13      9     0.00   0.65084   3 ;     H2-    C1-    C3-    H7
     8      1      3     14      9     0.00   0.65084   3 ;     H2-    C1-    C3-    H8
     9      1      3      5      9     0.00   0.65084   3 ;     H3-    C1-    C3-    S1
     9      1      3     13      9     0.00   0.65084   3 ;     H3-    C1-    C3-    H7
     9      1      3     14      9     0.00   0.65084   3 ;     H3-    C1-    C3-    H8
    10      2      4     15      9     0.00   0.65084   3 ;     H4-    C2-    C4-    H9
    10      2      4     16      9     0.00   0.65084   3 ;     H4-    C2-    C4-   H10
    11      2      4     15      9     0.00   0.65084   3 ;     H5-    C2-    C4-    H9
    11      2      4     16      9     0.00   0.65084   3 ;     H5-    C2-    C4-   H10
    12      2      4     15      9     0.00   0.65084   3 ;     H6-    C2-    C4-    H9
    12      2      4     16      9     0.00   0.65084   3 ;     H6-    C2-    C4-   H10
