mobley_7977115_GMX.gro created by acpype (v: 2023.10.27) on Tue May 19 14:07:36 2026
 2397
    1MOL     C1    1   2.343   2.196   2.106
    1MOL     C2    2   2.329   2.445   2.646
    1MOL     C3    3   2.376   2.238   2.248
    1MOL     C4    4   2.304   2.395   2.505
    1MOL     C5    5   2.382   2.391   2.261
    1MOL     C6    6   2.413   2.436   2.404
    1MOL     O1    7   2.423   2.578   2.406
    1MOL     H1    8   2.246   2.235   2.075
    1MOL     H2    9   2.419   2.232   2.036
    1MOL     H3   10   2.339   2.087   2.099
    1MOL     H4   11   2.344   2.553   2.648
    1MOL     H5   12   2.243   2.421   2.710
    1MOL     H6   13   2.417   2.397   2.691
    1MOL     H7   14   2.300   2.198   2.316
    1MOL     H8   15   2.472   2.194   2.277
    1MOL     H9   16   2.208   2.434   2.470
    1MOL    H10   17   2.293   2.286   2.505
    1MOL    H11   18   2.460   2.429   2.193
    1MOL    H12   19   2.287   2.433   2.228
    1MOL    H13   20   2.510   2.395   2.436
    1MOL    H14   21   2.471   2.603   2.325
   14SOL     OW   22   1.460   1.505   1.339
   14SOL    HW1   23   1.484   1.599   1.365
   14SOL    HW2   24   1.444   1.451   1.421
   18SOL     OW   25   1.127   1.341   1.690
   18SOL    HW1   26   1.174   1.341   1.778
   18SOL    HW2   27   1.079   1.254   1.679
   35SOL     OW   28   1.187   1.792   1.616
   35SOL    HW1   29   1.211   1.852   1.540
   35SOL    HW2   30   1.194   1.697   1.586
   56SOL     OW   31   1.227   1.550   1.506
   56SOL    HW1   32   1.233   1.473   1.570
   56SOL    HW2   33   1.175   1.524   1.426
   95SOL     OW   34   1.754   1.223   1.588
   95SOL    HW1   35   1.845   1.184   1.575
   95SOL    HW2   36   1.762   1.319   1.612
   97SOL     OW   37   1.592   1.629   1.625
   97SOL    HW1   38   1.619   1.663   1.535
   97SOL    HW2   39   1.671   1.591   1.671
  122SOL     OW   40   1.728   0.935   1.854
  122SOL    HW1   41   1.682   0.928   1.765
  122SOL    HW2   42   1.666   0.979   1.920
  126SOL     OW   43   0.980   1.573   1.700
  126SOL    HW1   44   0.960   1.617   1.612
  126SOL    HW2   45   1.019   1.482   1.684
  127SOL     OW   46   1.859   1.518   1.605
  127SOL    HW1   47   1.873   1.545   1.510
  127SOL    HW2   48   1.942   1.540   1.658
  152SOL     OW   49   1.759   1.747   1.154
  152SOL    HW1   50   1.820   1.777   1.081
  152SOL    HW2   51   1.721   1.658   1.132
  153SOL     OW   52   1.252   1.731   1.128
  153SOL    HW1   53   1.336   1.736   1.074
  153SOL    HW2   54   1.229   1.635   1.146
  163SOL     OW   55   1.650   1.720   1.394
  163SOL    HW1   56   1.703   1.730   1.310
  163SOL    HW2   57   1.623   1.810   1.428
  171SOL     OW   58   1.614   1.292   1.289
  171SOL    HW1   59   1.674   1.295   1.369
  171SOL    HW2   60   1.539   1.356   1.302
  184SOL     OW   61   1.493   1.767   0.959
  184SOL    HW1   62   1.526   1.831   0.890
  184SOL    HW2   63   1.559   1.761   1.034
  186SOL     OW   64   1.450   1.220   1.633
  186SOL    HW1   65   1.441   1.210   1.732
  186SOL    HW2   66   1.546   1.213   1.607
  192SOL     OW   67   1.730   0.934   1.517
  192SOL    HW1   68   1.768   1.025   1.532
  192SOL    HW2   69   1.722   0.917   1.418
  197SOL     OW   70   1.861   1.569   0.851
  197SOL    HW1   71   1.790   1.557   0.781
  197SOL    HW2   72   1.862   1.490   0.911
  203SOL     OW   73   1.705   1.487   1.104
  203SOL    HW1   74   1.612   1.462   1.077
  203SOL    HW2   75   1.731   1.437   1.186
  219SOL     OW   76   1.555   1.511   2.565
  219SOL    HW1   77   1.498   1.495   2.646
  219SOL    HW2   78   1.496   1.521   2.485
  227SOL     OW   79   1.460   1.505   3.201
  227SOL    HW1   80   1.484   1.599   3.227
  227SOL    HW2   81   1.444   1.451   3.283
  238SOL     OW   82   1.842   1.767   2.221
  238SOL    HW1   83   1.896   1.738   2.301
  238SOL    HW2   84   1.872   1.857   2.192
  240SOL     OW   85   1.689   0.922   2.474
  240SOL    HW1   86   1.784   0.893   2.482
  240SOL    HW2   87   1.681   0.987   2.399
  241SOL     OW   88   1.641   1.108   2.294
  241SOL    HW1   89   1.727   1.110   2.242
  241SOL    HW2   90   1.655   1.155   2.382
  247SOL     OW   91   1.525   0.999   2.052
  247SOL    HW1   92   1.462   0.923   2.065
  247SOL    HW2   93   1.573   1.017   2.138
  248SOL     OW   94   1.187   1.792   3.478
  248SOL    HW1   95   1.211   1.852   3.402
  248SOL    HW2   96   1.194   1.697   3.448
  250SOL     OW   97   1.466   1.417   2.815
  250SOL    HW1   98   1.407   1.423   2.895
  250SOL    HW2   99   1.451   1.329   2.769
  251SOL     OW  100   1.667   1.714   2.434
  251SOL    HW1  101   1.626   1.691   2.346
  251SOL    HW2  102   1.649   1.640   2.499
  254SOL     OW  103   1.576   1.662   2.169
  254SOL    HW1  104   1.665   1.708   2.172
  254SOL    HW2  105   1.555   1.638   2.074
  264SOL     OW  106   1.362   1.144   2.407
  264SOL    HW1  107   1.445   1.115   2.359
  264SOL    HW2  108   1.313   1.211   2.351
  266SOL     OW  109   1.008   1.456   2.339
  266SOL    HW1  110   0.962   1.528   2.287
  266SOL    HW2  111   1.004   1.476   2.437
  268SOL     OW  112   1.795   1.066   2.735
  268SOL    HW1  113   1.733   1.051   2.659
  268SOL    HW2  114   1.743   1.077   2.820
  269SOL     OW  115   1.227   1.550   3.368
  269SOL    HW1  116   1.233   1.473   3.432
  269SOL    HW2  117   1.175   1.524   3.288
  273SOL     OW  118   1.111   1.776   2.099
  273SOL    HW1  119   1.051   1.714   2.149
  273SOL    HW2  120   1.142   1.732   2.014
  275SOL     OW  121   1.632   1.377   1.943
  275SOL    HW1  122   1.600   1.471   1.933
  275SOL    HW2  123   1.556   1.314   1.931
  279SOL     OW  124   0.940   1.698   2.766
  279SOL    HW1  125   1.020   1.641   2.787
  279SOL    HW2  126   0.891   1.658   2.689
  289SOL     OW  127   1.434   1.188   1.903
  289SOL    HW1  128   1.466   1.112   1.960
  289SOL    HW2  129   1.342   1.215   1.933
  293SOL     OW  130   1.227   1.570   2.655
  293SOL    HW1  131   1.248   1.644   2.590
  293SOL    HW2  132   1.295   1.570   2.728
  295SOL     OW  133   1.271   1.797   2.453
  295SOL    HW1  134   1.315   1.861   2.389
  295SOL    HW2  135   1.221   1.849   2.523
  301SOL     OW  136   1.429   1.173   2.729
  301SOL    HW1  137   1.374   1.089   2.722
  301SOL    HW2  138   1.455   1.202   2.637
  303SOL     OW  139   1.857   0.833   2.239
  303SOL    HW1  140   1.899   0.769   2.303
  303SOL    HW2  141   1.819   0.782   2.161
  305SOL     OW  142   1.664   1.280   2.519
  305SOL    HW1  143   1.763   1.288   2.533
  305SOL    HW2  144   1.619   1.364   2.550
  308SOL     OW  145   1.754   1.223   3.450
  308SOL    HW1  146   1.845   1.184   3.437
  308SOL    HW2  147   1.762   1.319   3.474
  310SOL     OW  148   1.592   1.629   3.487
  310SOL    HW1  149   1.619   1.663   3.397
  310SOL    HW2  150   1.671   1.591   3.533
  312SOL     OW  151   1.638   1.099   2.941
  312SOL    HW1  152   1.643   1.180   3.000
  312SOL    HW2  153   1.552   1.101   2.890
  321SOL     OW  154   1.252   1.348   2.250
  321SOL    HW1  155   1.302   1.425   2.290
  321SOL    HW2  156   1.157   1.350   2.282
  322SOL     OW  157   1.272   1.445   3.004
  322SOL    HW1  158   1.319   1.458   3.091
  322SOL    HW2  159   1.206   1.371   3.013
  340SOL     OW  160   1.859   1.518   3.467
  340SOL    HW1  161   1.873   1.545   3.372
  340SOL    HW2  162   1.942   1.540   3.520
  344SOL     OW  163   1.068   1.333   2.711
  344SOL    HW1  164   1.075   1.249   2.656
  344SOL    HW2  165   1.130   1.402   2.675
  365SOL     OW  166   1.759   1.747   3.016
  365SOL    HW1  167   1.820   1.777   2.943
  365SOL    HW2  168   1.721   1.658   2.994
  366SOL     OW  169   1.252   1.731   2.990
  366SOL    HW1  170   1.336   1.736   2.936
  366SOL    HW2  171   1.229   1.635   3.008
  370SOL     OW  172   1.388   1.573   2.339
  370SOL    HW1  173   1.455   1.585   2.265
  370SOL    HW2  174   1.348   1.662   2.362
  375SOL     OW  175   1.650   1.720   3.256
  375SOL    HW1  176   1.703   1.730   3.172
  375SOL    HW2  177   1.623   1.810   3.290
  378SOL     OW  178   1.194   1.612   1.893
  378SOL    HW1  179   1.200   1.519   1.930
  378SOL    HW2  180   1.135   1.612   1.813
  381SOL     OW  181   1.504   1.607   1.906
  381SOL    HW1  182   1.412   1.644   1.913
  381SOL    HW2  183   1.542   1.627   1.816
  383SOL     OW  184   1.614   1.292   3.151
  383SOL    HW1  185   1.674   1.295   3.231
  383SOL    HW2  186   1.539   1.356   3.164
  394SOL     OW  187   1.183   1.335   1.981
  394SOL    HW1  188   1.084   1.324   1.983
  394SOL    HW2  189   1.217   1.350   2.074
  396SOL     OW  190   1.493   1.767   2.821
  396SOL    HW1  191   1.526   1.831   2.752
  396SOL    HW2  192   1.559   1.761   2.896
  400SOL     OW  193   1.674   0.883   3.116
  400SOL    HW1  194   1.647   0.794   3.079
  400SOL    HW2  195   1.675   0.951   3.043
  409SOL     OW  196   1.861   1.569   2.713
  409SOL    HW1  197   1.790   1.557   2.643
  409SOL    HW2  198   1.862   1.490   2.773
  415SOL     OW  199   1.705   1.487   2.966
  415SOL    HW1  200   1.612   1.462   2.939
  415SOL    HW2  201   1.731   1.437   3.048
  417SOL     OW  202   0.812   1.586   2.549
  417SOL    HW1  203   0.844   1.596   2.455
  417SOL    HW2  204   0.733   1.524   2.551
  426SOL     OW  205   0.875   1.646   2.199
  426SOL    HW1  206   0.798   1.611   2.145
  426SOL    HW2  207   0.843   1.717   2.261
  543SOL     OW  208   0.850   2.660   1.823
  543SOL    HW1  209   0.846   2.736   1.888
  543SOL    HW2  210   0.872   2.696   1.732
  547SOL     OW  211   1.460   3.367   1.339
  547SOL    HW1  212   1.484   3.461   1.365
  547SOL    HW2  213   1.444   3.313   1.421
  549SOL     OW  214   1.603   2.309   0.737
  549SOL    HW1  215   1.529   2.355   0.687
  549SOL    HW2  216   1.654   2.377   0.790
  551SOL     OW  217   1.127   3.203   1.690
  551SOL    HW1  218   1.174   3.203   1.778
  551SOL    HW2  219   1.079   3.116   1.679
  556SOL     OW  220   1.594   1.976   1.480
  556SOL    HW1  221   1.576   2.043   1.408
  556SOL    HW2  222   1.591   2.022   1.569
  564SOL     OW  223   1.293   3.090   1.423
  564SOL    HW1  224   1.330   3.017   1.365
  564SOL    HW2  225   1.345   3.095   1.508
  573SOL     OW  226   1.281   2.207   0.944
  573SOL    HW1  227   1.195   2.157   0.931
  573SOL    HW2  228   1.343   2.153   1.000
  575SOL     OW  229   0.807   2.467   1.465
  575SOL    HW1  230   0.760   2.464   1.554
  575SOL    HW2  231   0.756   2.412   1.399
  576SOL     OW  232   1.394   2.331   1.674
  576SOL    HW1  233   1.374   2.374   1.762
  576SOL    HW2  234   1.472   2.269   1.683
  577SOL     OW  235   0.973   2.752   1.572
  577SOL    HW1  236   1.019   2.668   1.543
  577SOL    HW2  237   0.917   2.786   1.497
  578SOL     OW  238   0.991   2.272   1.242
  578SOL    HW1  239   0.914   2.306   1.296
  578SOL    HW2  240   0.957   2.221   1.163
  583SOL     OW  241   1.719   2.447   1.831
  583SOL    HW1  242   1.693   2.536   1.795
  583SOL    HW2  243   1.717   2.379   1.758
  588SOL     OW  244   1.795   2.928   0.873
  588SOL    HW1  245   1.733   2.913   0.797
  588SOL    HW2  246   1.743   2.939   0.958
  589SOL     OW  247   1.227   3.412   1.506
  589SOL    HW1  248   1.233   3.335   1.570
  589SOL    HW2  249   1.175   3.386   1.426
  601SOL     OW  250   1.547   2.084   1.729
  601SOL    HW1  251   1.542   2.121   1.821
  601SOL    HW2  252   1.475   2.015   1.717
  602SOL     OW  253   0.781   2.126   1.749
  602SOL    HW1  254   0.848   2.065   1.792
  602SOL    HW2  255   0.708   2.145   1.814
  604SOL     OW  256   1.351   2.452   1.433
  604SOL    HW1  257   1.379   2.409   1.518
  604SOL    HW2  258   1.376   2.548   1.434
  611SOL     OW  259   1.076   2.545   1.464
  611SOL    HW1  260   0.996   2.484   1.467
  611SOL    HW2  261   1.157   2.492   1.440
  621SOL     OW  262   1.466   2.452   0.992
  621SOL    HW1  263   1.436   2.357   0.999
  621SOL    HW2  264   1.539   2.468   1.058
  627SOL     OW  265   1.754   3.085   1.588
  627SOL    HW1  266   1.845   3.046   1.575
  627SOL    HW2  267   1.762   3.181   1.612
  629SOL     OW  268   1.592   3.491   1.625
  629SOL    HW1  269   1.619   3.525   1.535
  629SOL    HW2  270   1.671   3.453   1.671
  631SOL     OW  271   1.638   2.961   1.079
  631SOL    HW1  272   1.643   3.042   1.138
  631SOL    HW2  273   1.552   2.963   1.028
  632SOL     OW  274   0.915   1.951   1.402
  632SOL    HW1  275   0.940   1.931   1.307
  632SOL    HW2  276   0.987   2.007   1.444
  633SOL     OW  277   0.980   2.978   1.719
  633SOL    HW1  278   0.881   2.984   1.729
  633SOL    HW2  279   1.003   2.898   1.663
  636SOL     OW  280   1.274   2.248   1.262
  636SOL    HW1  281   1.295   2.322   1.326
  636SOL    HW2  282   1.185   2.265   1.219
  645SOL     OW  283   1.587   2.641   1.670
  645SOL    HW1  284   1.495   2.679   1.665
  645SOL    HW2  285   1.647   2.688   1.605
  646SOL     OW  286   1.013   1.967   1.770
  646SOL    HW1  287   1.019   2.052   1.718
  646SOL    HW2  288   1.045   1.891   1.713
  649SOL     OW  289   1.360   2.724   1.045
  649SOL    HW1  290   1.285   2.724   0.979
  649SOL    HW2  291   1.397   2.632   1.054
  654SOL     OW  292   1.728   2.797   1.854
  654SOL    HW1  293   1.682   2.790   1.765
  654SOL    HW2  294   1.666   2.841   1.920
  659SOL     OW  295   1.859   3.380   1.605
  659SOL    HW1  296   1.873   3.407   1.510
  659SOL    HW2  297   1.942   3.402   1.658
  666SOL     OW  298   1.138   2.242   1.678
  666SOL    HW1  299   1.093   2.305   1.742
  666SOL    HW2  300   1.231   2.273   1.661
  667SOL     OW  301   1.160   2.069   1.477
  667SOL    HW1  302   1.160   2.133   1.554
  667SOL    HW2  303   1.188   2.117   1.394
  671SOL     OW  304   1.002   2.658   1.238
  671SOL    HW1  305   1.043   2.626   1.324
  671SOL    HW2  306   0.906   2.631   1.235
  674SOL     OW  307   1.369   2.812   1.660
  674SOL    HW1  308   1.408   2.901   1.680
  674SOL    HW2  309   1.379   2.792   1.563
  676SOL     OW  310   1.657   2.466   1.206
  676SOL    HW1  311   1.619   2.397   1.268
  676SOL    HW2  312   1.739   2.430   1.162
  682SOL     OW  313   1.347   2.921   1.234
  682SOL    HW1  314   1.371   2.858   1.160
  682SOL    HW2  315   1.257   2.961   1.216
  695SOL     OW  316   1.650   3.582   1.394
  695SOL    HW1  317   1.703   3.592   1.310
  695SOL    HW2  318   1.623   3.672   1.428
  696SOL     OW  319   1.841   2.037   0.963
  696SOL    HW1  320   1.880   1.952   0.927
  696SOL    HW2  321   1.743   2.039   0.944
  703SOL     OW  322   1.614   3.154   1.289
  703SOL    HW1  323   1.674   3.157   1.369
  703SOL    HW2  324   1.539   3.218   1.302
  707SOL     OW  325   1.709   2.247   1.381
  707SOL    HW1  326   1.782   2.316   1.385
  707SOL    HW2  327   1.737   2.172   1.322
  712SOL     OW  328   1.440   2.718   1.398
  712SOL    HW1  329   1.383   2.770   1.335
  712SOL    HW2  330   1.536   2.730   1.374
  717SOL     OW  331   0.716   2.427   1.708
  717SOL    HW1  332   0.735   2.492   1.782
  717SOL    HW2  333   0.776   2.347   1.717
  718SOL     OW  334   1.450   3.082   1.633
  718SOL    HW1  335   1.441   3.072   1.732
  718SOL    HW2  336   1.546   3.075   1.607
  720SOL     OW  337   1.674   2.745   1.254
  720SOL    HW1  338   1.647   2.656   1.217
  720SOL    HW2  339   1.675   2.813   1.181
  723SOL     OW  340   1.777   2.204   1.642
  723SOL    HW1  341   1.760   2.235   1.548
  723SOL    HW2  342   1.693   2.167   1.680
  724SOL     OW  343   1.730   2.796   1.517
  724SOL    HW1  344   1.768   2.887   1.532
  724SOL    HW2  345   1.722   2.779   1.418
  733SOL     OW  346   1.824   2.054   1.227
  733SOL    HW1  347   1.820   1.964   1.271
  733SOL    HW2  348   1.827   2.043   1.128
  735SOL     OW  349   1.705   3.349   1.104
  735SOL    HW1  350   1.612   3.324   1.077
  735SOL    HW2  351   1.731   3.299   1.186
  738SOL     OW  352   1.424   2.076   1.112
  738SOL    HW1  353   1.476   2.011   1.167
  738SOL    HW2  354   1.375   2.139   1.173
  744SOL     OW  355   1.593   2.083   0.882
  744SOL    HW1  356   1.509   2.082   0.936
  744SOL    HW2  357   1.595   2.166   0.826
  751SOL     OW  358   1.555   3.373   2.565
  751SOL    HW1  359   1.498   3.357   2.646
  751SOL    HW2  360   1.496   3.383   2.485
  752SOL     OW  361   1.135   2.565   2.579
  752SOL    HW1  362   1.192   2.643   2.554
  752SOL    HW2  363   1.075   2.591   2.655
  753SOL     OW  364   1.755   2.469   2.093
  753SOL    HW1  365   1.743   2.456   1.994
  753SOL    HW2  366   1.725   2.388   2.142
  754SOL     OW  367   0.768   3.006   2.885
  754SOL    HW1  368   0.690   3.023   2.945
  754SOL    HW2  369   0.802   3.093   2.849
  756SOL     OW  370   0.685   2.874   2.527
  756SOL    HW1  371   0.754   2.858   2.597
  756SOL    HW2  372   0.612   2.931   2.565
  759SOL     OW  373   1.460   3.367   3.201
  759SOL    HW1  374   1.484   3.461   3.227
  759SOL    HW2  375   1.444   3.313   3.283
  761SOL     OW  376   1.603   2.309   2.599
  761SOL    HW1  377   1.529   2.355   2.549
  761SOL    HW2  378   1.654   2.377   2.652
  768SOL     OW  379   1.594   1.976   3.342
  768SOL    HW1  380   1.576   2.043   3.270
  768SOL    HW2  381   1.591   2.022   3.431
  770SOL     OW  382   1.842   3.629   2.221
  770SOL    HW1  383   1.896   3.600   2.301
  770SOL    HW2  384   1.872   3.719   2.192
  772SOL     OW  385   1.689   2.784   2.474
  772SOL    HW1  386   1.784   2.755   2.482
  772SOL    HW2  387   1.681   2.849   2.399
  773SOL     OW  388   1.641   2.970   2.294
  773SOL    HW1  389   1.727   2.972   2.242
  773SOL    HW2  390   1.655   3.017   2.382
  776SOL     OW  391   1.293   3.090   3.285
  776SOL    HW1  392   1.330   3.017   3.227
  776SOL    HW2  393   1.345   3.095   3.370
  777SOL     OW  394   0.809   1.866   2.364
  777SOL    HW1  395   0.849   1.957   2.355
  777SOL    HW2  396   0.709   1.874   2.370
  779SOL     OW  397   1.525   2.861   2.052
  779SOL    HW1  398   1.462   2.785   2.065
  779SOL    HW2  399   1.573   2.879   2.138
  782SOL     OW  400   1.466   3.279   2.815
  782SOL    HW1  401   1.407   3.285   2.895
  782SOL    HW2  402   1.451   3.191   2.769
  783SOL     OW  403   1.667   3.576   2.434
  783SOL    HW1  404   1.626   3.553   2.346
  783SOL    HW2  405   1.649   3.502   2.499
  784SOL     OW  406   0.598   2.591   2.132
  784SOL    HW1  407   0.622   2.660   2.064
  784SOL    HW2  408   0.520   2.624   2.186
  785SOL     OW  409   1.281   2.207   2.806
  785SOL    HW1  410   1.195   2.157   2.793
  785SOL    HW2  411   1.343   2.153   2.862
  786SOL     OW  412   1.576   3.524   2.169
  786SOL    HW1  413   1.665   3.570   2.172
  786SOL    HW2  414   1.555   3.500   2.074
  788SOL     OW  415   1.394   2.331   3.536
  788SOL    HW1  416   1.374   2.374   3.624
  788SOL    HW2  417   1.472   2.269   3.545
  789SOL     OW  418   0.973   2.752   3.434
  789SOL    HW1  419   1.019   2.668   3.405
  789SOL    HW2  420   0.917   2.786   3.359
  790SOL     OW  421   0.991   2.272   3.104
  790SOL    HW1  422   0.914   2.306   3.158
  790SOL    HW2  423   0.957   2.221   3.025
  791SOL     OW  424   1.041   2.563   2.291
  791SOL    HW1  425   1.067   2.559   2.387
  791SOL    HW2  426   0.956   2.512   2.277
  794SOL     OW  427   0.865   2.210   2.057
  794SOL    HW1  428   0.924   2.273   2.008
  794SOL    HW2  429   0.884   2.116   2.028
  795SOL     OW  430   1.719   2.447   3.693
  795SOL    HW1  431   1.693   2.536   3.657
  795SOL    HW2  432   1.717   2.379   3.620
  796SOL     OW  433   1.362   3.006   2.407
  796SOL    HW1  434   1.445   2.977   2.359
  796SOL    HW2  435   1.313   3.073   2.351
  798SOL     OW  436   1.008   3.318   2.339
  798SOL    HW1  437   0.962   3.390   2.287
  798SOL    HW2  438   1.004   3.338   2.437
  800SOL     OW  439   1.795   2.928   2.735
  800SOL    HW1  440   1.733   2.913   2.659
  800SOL    HW2  441   1.743   2.939   2.820
  803SOL     OW  442   1.458   2.597   2.590
  803SOL    HW1  443   1.453   2.532   2.665
  803SOL    HW2  444   1.538   2.656   2.603
  807SOL     OW  445   1.632   3.239   1.943
  807SOL    HW1  446   1.600   3.333   1.933
  807SOL    HW2  447   1.556   3.176   1.931
  809SOL     OW  448   1.400   1.969   2.288
  809SOL    HW1  449   1.376   1.932   2.198
  809SOL    HW2  450   1.499   1.985   2.292
  813SOL     OW  451   1.547   2.084   3.591
  813SOL    HW1  452   1.542   2.121   3.683
  813SOL    HW2  453   1.475   2.015   3.579
  817SOL     OW  454   1.351   2.452   3.295
  817SOL    HW1  455   1.379   2.409   3.380
  817SOL    HW2  456   1.376   2.548   3.296
  819SOL     OW  457   0.922   2.365   2.761
  819SOL    HW1  458   0.897   2.356   2.665
  819SOL    HW2  459   0.970   2.283   2.792
  821SOL     OW  460   1.434   3.050   1.903
  821SOL    HW1  461   1.466   2.974   1.960
  821SOL    HW2  462   1.342   3.077   1.933
  823SOL     OW  463   0.935   2.098   2.342
  823SOL    HW1  464   0.887   2.139   2.264
  823SOL    HW2  465   1.034   2.096   2.323
  824SOL     OW  466   1.076   2.545   3.326
  824SOL    HW1  467   0.996   2.484   3.329
  824SOL    HW2  468   1.157   2.492   3.302
  825SOL     OW  469   1.227   3.432   2.655
  825SOL    HW1  470   1.248   3.506   2.590
  825SOL    HW2  471   1.295   3.432   2.728
  827SOL     OW  472   1.271   3.659   2.453
  827SOL    HW1  473   1.315   3.723   2.389
  827SOL    HW2  474   1.221   3.711   2.523
  828SOL     OW  475   1.032   2.411   1.878
  828SOL    HW1  476   0.991   2.493   1.839
  828SOL    HW2  477   1.096   2.437   1.951
  831SOL     OW  478   0.866   2.316   2.504
  831SOL    HW1  479   0.834   2.388   2.442
  831SOL    HW2  480   0.890   2.235   2.451
  832SOL     OW  481   1.017   1.901   2.615
  832SOL    HW1  482   0.945   1.906   2.546
  832SOL    HW2  483   0.993   1.832   2.684
  833SOL     OW  484   1.429   3.035   2.729
  833SOL    HW1  485   1.374   2.951   2.722
  833SOL    HW2  486   1.455   3.064   2.637
  834SOL     OW  487   1.466   2.452   2.854
  834SOL    HW1  488   1.436   2.357   2.861
  834SOL    HW2  489   1.539   2.468   2.920
  835SOL     OW  490   1.857   2.695   2.239
  835SOL    HW1  491   1.899   2.631   2.303
  835SOL    HW2  492   1.819   2.644   2.161
  837SOL     OW  493   1.664   3.142   2.519
  837SOL    HW1  494   1.763   3.150   2.533
  837SOL    HW2  495   1.619   3.226   2.550
  838SOL     OW  496   1.390   2.437   1.940
  838SOL    HW1  497   1.336   2.416   2.021
  838SOL    HW2  498   1.481   2.396   1.949
  840SOL     OW  499   1.754   3.085   3.450
  840SOL    HW1  500   1.845   3.046   3.437
  840SOL    HW2  501   1.762   3.181   3.474
  841SOL     OW  502   1.064   3.209   3.202
  841SOL    HW1  503   0.984   3.186   3.257
  841SOL    HW2  504   1.147   3.183   3.251
  842SOL     OW  505   1.592   3.491   3.487
  842SOL    HW1  506   1.619   3.525   3.397
  842SOL    HW2  507   1.671   3.453   3.533
  843SOL     OW  508   1.111   3.057   2.962
  843SOL    HW1  509   1.071   3.101   3.043
  843SOL    HW2  510   1.070   3.094   2.879
  844SOL     OW  511   1.638   2.961   2.941
  844SOL    HW1  512   1.643   3.042   3.000
  844SOL    HW2  513   1.552   2.963   2.890
  845SOL     OW  514   0.915   1.951   3.264
  845SOL    HW1  515   0.940   1.931   3.169
  845SOL    HW2  516   0.987   2.007   3.306
  847SOL     OW  517   0.705   2.912   2.230
  847SOL    HW1  518   0.691   2.919   2.329
  847SOL    HW2  519   0.789   2.861   2.212
  849SOL     OW  520   1.274   2.248   3.124
  849SOL    HW1  521   1.295   2.322   3.188
  849SOL    HW2  522   1.185   2.265   3.081
  853SOL     OW  523   1.252   3.210   2.250
  853SOL    HW1  524   1.302   3.287   2.290
  853SOL    HW2  525   1.157   3.212   2.282
  854SOL     OW  526   1.272   3.307   3.004
  854SOL    HW1  527   1.319   3.320   3.091
  854SOL    HW2  528   1.206   3.233   3.013
  855SOL     OW  529   1.582   2.501   2.334
  855SOL    HW1  530   1.551   2.562   2.407
  855SOL    HW2  531   1.632   2.553   2.265
  858SOL     OW  532   1.587   2.641   3.532
  858SOL    HW1  533   1.495   2.679   3.527
  858SOL    HW2  534   1.647   2.688   3.467
  862SOL     OW  535   1.360   2.724   2.907
  862SOL    HW1  536   1.285   2.724   2.841
  862SOL    HW2  537   1.397   2.632   2.916
  863SOL     OW  538   1.209   2.387   2.137
  863SOL    HW1  539   1.222   2.303   2.191
  863SOL    HW2  540   1.180   2.461   2.197
  866SOL     OW  541   0.732   2.496   2.926
  866SOL    HW1  542   0.791   2.470   2.850
  866SOL    HW2  543   0.704   2.592   2.915
  867SOL     OW  544   1.728   2.797   3.716
  867SOL    HW1  545   1.682   2.790   3.627
  867SOL    HW2  546   1.666   2.841   3.782
  869SOL     OW  547   1.622   2.229   2.236
  869SOL    HW1  548   1.624   2.153   2.300
  869SOL    HW2  549   1.574   2.306   2.276
  870SOL     OW  550   1.023   2.628   2.828
  870SOL    HW1  551   1.038   2.649   2.924
  870SOL    HW2  552   0.993   2.533   2.819
  872SOL     OW  553   1.859   3.380   3.467
  872SOL    HW1  554   1.873   3.407   3.372
  872SOL    HW2  555   1.942   3.402   3.520
  874SOL     OW  556   1.540   2.136   1.987
  874SOL    HW1  557   1.479   2.061   2.010
  874SOL    HW2  558   1.562   2.188   2.070
  875SOL     OW  559   1.303   2.700   1.904
  875SOL    HW1  560   1.337   2.607   1.919
  875SOL    HW2  561   1.321   2.727   1.809
  876SOL     OW  562   1.068   3.195   2.711
  876SOL    HW1  563   1.075   3.111   2.656
  876SOL    HW2  564   1.130   3.264   2.675
  879SOL     OW  565   1.138   2.242   3.540
  879SOL    HW1  566   1.093   2.305   3.604
  879SOL    HW2  567   1.231   2.273   3.523
  880SOL     OW  568   1.160   2.069   3.339
  880SOL    HW1  569   1.160   2.133   3.416
  880SOL    HW2  570   1.188   2.117   3.256
  884SOL     OW  571   1.002   2.658   3.100
  884SOL    HW1  572   1.043   2.626   3.186
  884SOL    HW2  573   0.906   2.631   3.097
  887SOL     OW  574   1.369   2.812   3.522
  887SOL    HW1  575   1.408   2.901   3.542
  887SOL    HW2  576   1.379   2.792   3.425
  888SOL     OW  577   0.815   2.434   2.187
  888SOL    HW1  578   0.822   2.345   2.141
  888SOL    HW2  579   0.721   2.468   2.179
  889SOL     OW  580   1.657   2.466   3.068
  889SOL    HW1  581   1.619   2.397   3.130
  889SOL    HW2  582   1.739   2.430   3.024
  895SOL     OW  583   1.347   2.921   3.096
  895SOL    HW1  584   1.371   2.858   3.022
  895SOL    HW2  585   1.257   2.961   3.078
  896SOL     OW  586   1.302   2.717   2.171
  896SOL    HW1  587   1.216   2.686   2.213
  896SOL    HW2  588   1.298   2.703   2.072
  897SOL     OW  589   1.759   3.609   3.016
  897SOL    HW1  590   1.820   3.639   2.943
  897SOL    HW2  591   1.721   3.520   2.994
  898SOL     OW  592   1.252   3.593   2.990
  898SOL    HW1  593   1.336   3.598   2.936
  898SOL    HW2  594   1.229   3.497   3.008
  901SOL     OW  595   1.726   1.997   2.385
  901SOL    HW1  596   1.799   1.980   2.318
  901SOL    HW2  597   1.695   1.910   2.423
  902SOL     OW  598   1.388   3.435   2.339
  902SOL    HW1  599   1.455   3.447   2.265
  902SOL    HW2  600   1.348   3.524   2.362
  904SOL     OW  601   1.280   2.789   2.534
  904SOL    HW1  602   1.340   2.708   2.536
  904SOL    HW2  603   1.320   2.858   2.474
  907SOL     OW  604   1.650   3.582   3.256
  907SOL    HW1  605   1.703   3.592   3.172
  907SOL    HW2  606   1.623   3.672   3.290
  908SOL     OW  607   1.841   2.037   2.825
  908SOL    HW1  608   1.880   1.952   2.789
  908SOL    HW2  609   1.743   2.039   2.806
  910SOL     OW  610   1.194   3.474   1.893
  910SOL    HW1  611   1.200   3.381   1.930
  910SOL    HW2  612   1.135   3.474   1.813
  912SOL     OW  613   0.916   2.772   2.153
  912SOL    HW1  614   0.979   2.810   2.085
  912SOL    HW2  615   0.956   2.689   2.192
  913SOL     OW  616   1.504   3.469   1.906
  913SOL    HW1  617   1.412   3.506   1.913
  913SOL    HW2  618   1.542   3.489   1.816
  915SOL     OW  619   1.614   3.154   3.151
  915SOL    HW1  620   1.674   3.157   3.231
  915SOL    HW2  621   1.539   3.218   3.164
  916SOL     OW  622   1.039   2.960   2.558
  916SOL    HW1  623   0.969   2.913   2.612
  916SOL    HW2  624   1.098   2.892   2.515
  917SOL     OW  625   1.014   2.098   2.833
  917SOL    HW1  626   1.006   2.062   2.740
  917SOL    HW2  627   1.012   2.022   2.898
  919SOL     OW  628   1.709   2.247   3.243
  919SOL    HW1  629   1.782   2.316   3.247
  919SOL    HW2  630   1.737   2.172   3.184
  924SOL     OW  631   1.440   2.718   3.260
  924SOL    HW1  632   1.383   2.770   3.197
  924SOL    HW2  633   1.536   2.730   3.236
  926SOL     OW  634   1.183   3.197   1.981
  926SOL    HW1  635   1.084   3.186   1.983
  926SOL    HW2  636   1.217   3.212   2.074
  928SOL     OW  637   1.493   3.629   2.821
  928SOL    HW1  638   1.526   3.693   2.752
  928SOL    HW2  639   1.559   3.623   2.896
  930SOL     OW  640   1.450   3.082   3.495
  930SOL    HW1  641   1.441   3.072   3.594
  930SOL    HW2  642   1.546   3.075   3.469
  932SOL     OW  643   1.674   2.745   3.116
  932SOL    HW1  644   1.647   2.656   3.079
  932SOL    HW2  645   1.675   2.813   3.043
  933SOL     OW  646   1.225   2.187   2.311
  933SOL    HW1  647   1.290   2.113   2.300
  933SOL    HW2  648   1.245   2.237   2.395
  934SOL     OW  649   0.594   2.607   2.514
  934SOL    HW1  650   0.644   2.692   2.495
  934SOL    HW2  651   0.506   2.609   2.466
  935SOL     OW  652   1.777   2.204   3.504
  935SOL    HW1  653   1.760   2.235   3.410
  935SOL    HW2  654   1.693   2.167   3.542
  936SOL     OW  655   1.730   2.796   3.379
  936SOL    HW1  656   1.768   2.887   3.394
  936SOL    HW2  657   1.722   2.779   3.280
  939SOL     OW  658   0.859   2.818   2.723
  939SOL    HW1  659   0.913   2.749   2.771
  939SOL    HW2  660   0.827   2.887   2.789
  940SOL     OW  661   1.083   2.846   1.949
  940SOL    HW1  662   1.060   2.899   1.867
  940SOL    HW2  663   1.164   2.790   1.930
  941SOL     OW  664   1.861   3.431   2.713
  941SOL    HW1  665   1.790   3.419   2.643
  941SOL    HW2  666   1.862   3.352   2.773
  945SOL     OW  667   1.824   2.054   3.089
  945SOL    HW1  668   1.820   1.964   3.133
  945SOL    HW2  669   1.827   2.043   2.990
  947SOL     OW  670   1.705   3.349   2.966
  947SOL    HW1  671   1.612   3.324   2.939
  947SOL    HW2  672   1.731   3.299   3.048
  950SOL     OW  673   1.424   2.076   2.974
  950SOL    HW1  674   1.476   2.011   3.029
  950SOL    HW2  675   1.375   2.139   3.035
  951SOL     OW  676   1.001   1.896   3.016
  951SOL    HW1  677   0.938   1.824   2.985
  951SOL    HW2  678   1.094   1.860   3.016
  954SOL     OW  679   1.352   1.914   2.030
  954SOL    HW1  680   1.387   1.873   1.946
  954SOL    HW2  681   1.262   1.876   2.050
  955SOL     OW  682   1.300   2.315   2.553
  955SOL    HW1  683   1.241   2.395   2.557
  955SOL    HW2  684   1.315   2.280   2.646
  956SOL     OW  685   1.593   2.083   2.744
  956SOL    HW1  686   1.509   2.082   2.798
  956SOL    HW2  687   1.595   2.166   2.688
  963SOL     OW  688   1.755   2.469   3.955
  963SOL    HW1  689   1.743   2.456   3.856
  963SOL    HW2  690   1.725   2.388   4.004
 1013SOL     OW  691   1.390   2.437   3.802
 1013SOL    HW1  692   1.336   2.416   3.883
 1013SOL    HW2  693   1.481   2.396   3.811
 1024SOL     OW  694   1.540   2.136   3.849
 1024SOL    HW1  695   1.479   2.061   3.872
 1024SOL    HW2  696   1.562   2.188   3.932
 1025SOL     OW  697   1.303   2.700   3.766
 1025SOL    HW1  698   1.337   2.607   3.781
 1025SOL    HW2  699   1.321   2.727   3.671
 1208SOL     OW  700   1.400   3.831   2.288
 1208SOL    HW1  701   1.376   3.794   2.198
 1208SOL    HW2  702   1.499   3.847   2.292
 1263SOL     OW  703   1.726   3.859   2.385
 1263SOL    HW1  704   1.799   3.842   2.318
 1263SOL    HW2  705   1.695   3.772   2.423
 1265SOL     OW  706   1.841   3.899   2.825
 1265SOL    HW1  707   1.880   3.814   2.789
 1265SOL    HW2  708   1.743   3.901   2.806
 1282SOL     OW  709   1.824   3.916   3.089
 1282SOL    HW1  710   1.820   3.826   3.133
 1282SOL    HW2  711   1.827   3.905   2.990
 1287SOL     OW  712   1.352   3.776   2.030
 1287SOL    HW1  713   1.387   3.735   1.946
 1287SOL    HW2  714   1.262   3.738   2.050
 1351SOL     OW  715   2.431   1.275   1.165
 1351SOL    HW1  716   2.338   1.268   1.128
 1351SOL    HW2  717   2.442   1.364   1.209
 1356SOL     OW  718   2.712   0.798   1.823
 1356SOL    HW1  719   2.708   0.874   1.888
 1356SOL    HW2  720   2.734   0.834   1.732
 1358SOL     OW  721   2.548   1.161   1.803
 1358SOL    HW1  722   2.608   1.240   1.817
 1358SOL    HW2  723   2.462   1.192   1.762
 1359SOL     OW  724   2.197   1.435   1.061
 1359SOL    HW1  725   2.119   1.404   1.008
 1359SOL    HW2  726   2.255   1.493   1.004
 1360SOL     OW  727   3.322   1.505   1.339
 1360SOL    HW1  728   3.346   1.599   1.365
 1360SOL    HW2  729   3.306   1.451   1.421
 1364SOL     OW  730   2.989   1.341   1.690
 1364SOL    HW1  731   3.036   1.341   1.778
 1364SOL    HW2  732   2.941   1.254   1.679
 1367SOL     OW  733   2.482   1.786   1.439
 1367SOL    HW1  734   2.390   1.769   1.474
 1367SOL    HW2  735   2.510   1.878   1.465
 1376SOL     OW  736   3.155   1.228   1.423
 1376SOL    HW1  737   3.192   1.155   1.365
 1376SOL    HW2  738   3.207   1.233   1.508
 1378SOL     OW  739   2.059   0.976   1.264
 1378SOL    HW1  740   2.148   0.931   1.250
 1378SOL    HW2  741   1.986   0.911   1.245
 1380SOL     OW  742   3.049   1.792   1.616
 1380SOL    HW1  743   3.073   1.852   1.540
 1380SOL    HW2  744   3.056   1.697   1.586
 1389SOL     OW  745   2.835   0.890   1.572
 1389SOL    HW1  746   2.881   0.806   1.543
 1389SOL    HW2  747   2.779   0.924   1.497
 1393SOL     OW  748   1.992   1.821   1.571
 1393SOL    HW1  749   1.982   1.806   1.670
 1393SOL    HW2  750   1.906   1.857   1.535
 1399SOL     OW  751   2.213   1.801   0.853
 1399SOL    HW1  752   2.263   1.715   0.859
 1399SOL    HW2  753   2.278   1.878   0.850
 1401SOL     OW  754   3.089   1.550   1.506
 1401SOL    HW1  755   3.095   1.473   1.570
 1401SOL    HW2  756   3.037   1.524   1.426
 1404SOL     OW  757   2.323   1.266   1.727
 1404SOL    HW1  758   2.273   1.267   1.641
 1404SOL    HW2  759   2.260   1.248   1.803
 1410SOL     OW  760   2.111   1.785   1.241
 1410SOL    HW1  761   2.168   1.720   1.291
 1410SOL    HW2  762   2.095   1.752   1.148
 1411SOL     OW  763   2.802   1.698   0.904
 1411SOL    HW1  764   2.882   1.641   0.925
 1411SOL    HW2  765   2.753   1.658   0.827
 1416SOL     OW  766   2.750   1.514   1.195
 1416SOL    HW1  767   2.727   1.489   1.101
 1416SOL    HW2  768   2.811   1.445   1.234
 1418SOL     OW  769   2.665   1.402   0.924
 1418SOL    HW1  770   2.755   1.416   0.882
 1418SOL    HW2  771   2.594   1.404   0.853
 1441SOL     OW  772   2.926   1.347   1.340
 1441SOL    HW1  773   2.846   1.324   1.395
 1441SOL    HW2  774   3.009   1.321   1.389
 1442SOL     OW  775   3.454   1.629   1.625
 1442SOL    HW1  776   3.481   1.663   1.535
 1442SOL    HW2  777   3.533   1.591   1.671
 1446SOL     OW  778   2.842   1.116   1.719
 1446SOL    HW1  779   2.743   1.122   1.729
 1446SOL    HW2  780   2.865   1.036   1.663
 1450SOL     OW  781   1.926   1.564   1.331
 1450SOL    HW1  782   1.880   1.646   1.297
 1450SOL    HW2  783   2.024   1.583   1.340
 1454SOL     OW  784   3.134   1.445   1.142
 1454SOL    HW1  785   3.181   1.458   1.229
 1454SOL    HW2  786   3.068   1.371   1.151
 1456SOL     OW  787   2.216   1.510   1.329
 1456SOL    HW1  788   2.195   1.466   1.242
 1456SOL    HW2  789   2.313   1.536   1.332
 1457SOL     OW  790   2.264   0.751   1.598
 1457SOL    HW1  791   2.332   0.806   1.551
 1457SOL    HW2  792   2.304   0.663   1.625
 1465SOL     OW  793   1.899   1.310   1.282
 1465SOL    HW1  794   1.952   1.261   1.350
 1465SOL    HW2  795   1.921   1.408   1.287
 1471SOL     OW  796   2.842   1.573   1.700
 1471SOL    HW1  797   2.822   1.617   1.612
 1471SOL    HW2  798   2.881   1.482   1.684
 1472SOL     OW  799   3.721   1.518   1.605
 1472SOL    HW1  800   3.735   1.545   1.510
 1472SOL    HW2  801   3.804   1.540   1.658
 1473SOL     OW  802   2.212   0.898   1.804
 1473SOL    HW1  803   2.288   0.942   1.852
 1473SOL    HW2  804   2.247   0.851   1.722
 1482SOL     OW  805   1.950   1.801   0.927
 1482SOL    HW1  806   1.908   1.715   0.900
 1482SOL    HW2  807   2.044   1.804   0.893
 1483SOL     OW  808   2.366   1.568   0.910
 1483SOL    HW1  809   2.432   1.642   0.919
 1483SOL    HW2  810   2.410   1.489   0.868
 1487SOL     OW  811   3.231   0.950   1.660
 1487SOL    HW1  812   3.270   1.039   1.680
 1487SOL    HW2  813   3.241   0.930   1.563
 1490SOL     OW  814   2.114   1.564   1.744
 1490SOL    HW1  815   2.084   1.621   1.820
 1490SOL    HW2  816   2.107   1.467   1.770
 1492SOL     OW  817   2.792   1.678   1.465
 1492SOL    HW1  818   2.768   1.660   1.370
 1492SOL    HW2  819   2.822   1.772   1.475
 1494SOL     OW  820   2.021   1.137   1.466
 1494SOL    HW1  821   2.043   1.076   1.542
 1494SOL    HW2  822   2.031   1.088   1.380
 1498SOL     OW  823   3.114   1.731   1.128
 1498SOL    HW1  824   3.198   1.736   1.074
 1498SOL    HW2  825   3.091   1.635   1.146
 1499SOL     OW  826   1.945   1.258   1.022
 1499SOL    HW1  827   1.940   1.257   1.122
 1499SOL    HW2  828   1.862   1.217   0.984
 1500SOL     OW  829   2.550   1.662   1.716
 1500SOL    HW1  830   2.494   1.743   1.725
 1500SOL    HW2  831   2.602   1.666   1.630
 1504SOL     OW  832   1.992   1.794   1.851
 1504SOL    HW1  833   1.951   1.720   1.904
 1504SOL    HW2  834   2.056   1.845   1.909
 1506SOL     OW  835   2.692   1.273   1.422
 1506SOL    HW1  836   2.687   1.306   1.517
 1506SOL    HW2  837   2.606   1.292   1.376
 1508SOL     OW  838   3.512   1.720   1.394
 1508SOL    HW1  839   3.565   1.730   1.310
 1508SOL    HW2  840   3.485   1.810   1.428
 1512SOL     OW  841   2.684   1.002   1.372
 1512SOL    HW1  842   2.724   1.001   1.280
 1512SOL    HW2  843   2.694   1.094   1.412
 1515SOL     OW  844   2.234   1.288   1.490
 1515SOL    HW1  845   2.221   1.381   1.456
 1515SOL    HW2  846   2.150   1.236   1.477
 1522SOL     OW  847   1.967   1.013   1.726
 1522SOL    HW1  848   1.890   0.980   1.780
 1522SOL    HW2  849   2.052   0.983   1.768
 1526SOL     OW  850   2.475   0.842   1.431
 1526SOL    HW1  851   2.531   0.923   1.414
 1526SOL    HW2  852   2.534   0.762   1.434
 1529SOL     OW  853   3.312   1.220   1.633
 1529SOL    HW1  854   3.303   1.210   1.732
 1529SOL    HW2  855   3.408   1.213   1.607
 1530SOL     OW  856   2.252   1.741   1.560
 1530SOL    HW1  857   2.161   1.782   1.558
 1530SOL    HW2  858   2.245   1.647   1.592
 1537SOL     OW  859   2.523   1.790   0.953
 1537SOL    HW1  860   2.477   1.878   0.940
 1537SOL    HW2  861   2.622   1.802   0.946
 1541SOL     OW  862   2.083   1.314   1.844
 1541SOL    HW1  863   2.018   1.241   1.823
 1541SOL    HW2  864   2.087   1.328   1.942
 1543SOL     OW  865   2.534   1.391   1.624
 1543SOL    HW1  866   2.456   1.341   1.662
 1543SOL    HW2  867   2.531   1.486   1.655
 1552SOL     OW  868   2.480   1.567   1.284
 1552SOL    HW1  869   2.475   1.649   1.341
 1552SOL    HW2  870   2.569   1.564   1.239
 1558SOL     OW  871   2.092   0.628   1.975
 1558SOL    HW1  872   1.999   0.626   2.012
 1558SOL    HW2  873   2.093   0.589   1.883
 1561SOL     OW  874   2.431   1.275   3.027
 1561SOL    HW1  875   2.338   1.268   2.990
 1561SOL    HW2  876   2.442   1.364   3.071
 1562SOL     OW  877   3.417   1.511   2.565
 1562SOL    HW1  878   3.360   1.495   2.646
 1562SOL    HW2  879   3.358   1.521   2.485
 1563SOL     OW  880   2.997   0.703   2.579
 1563SOL    HW1  881   3.054   0.781   2.554
 1563SOL    HW2  882   2.937   0.729   2.655
 1565SOL     OW  883   2.630   1.144   2.885
 1565SOL    HW1  884   2.552   1.161   2.945
 1565SOL    HW2  885   2.664   1.231   2.849
 1567SOL     OW  886   2.547   1.012   2.527
 1567SOL    HW1  887   2.616   0.996   2.597
 1567SOL    HW2  888   2.474   1.069   2.565
 1568SOL     OW  889   2.548   1.161   3.665
 1568SOL    HW1  890   2.608   1.240   3.679
 1568SOL    HW2  891   2.462   1.192   3.624
 1569SOL     OW  892   2.197   1.435   2.923
 1569SOL    HW1  893   2.119   1.404   2.870
 1569SOL    HW2  894   2.255   1.493   2.866
 1570SOL     OW  895   3.322   1.505   3.201
 1570SOL    HW1  896   3.346   1.599   3.227
 1570SOL    HW2  897   3.306   1.451   3.283
 1573SOL     OW  898   2.093   1.713   2.345
 1573SOL    HW1  899   2.127   1.790   2.399
 1573SOL    HW2  900   2.137   1.713   2.255
 1574SOL     OW  901   2.989   1.341   3.552
 1574SOL    HW1  902   3.036   1.341   3.640
 1574SOL    HW2  903   2.941   1.254   3.541
 1575SOL     OW  904   2.092   1.434   2.400
 1575SOL    HW1  905   2.066   1.530   2.400
 1575SOL    HW2  906   2.021   1.380   2.445
 1576SOL     OW  907   2.102   1.091   2.748
 1576SOL    HW1  908   2.116   1.007   2.800
 1576SOL    HW2  909   2.047   1.155   2.803
 1577SOL     OW  910   2.482   1.786   3.301
 1577SOL    HW1  911   2.390   1.769   3.336
 1577SOL    HW2  912   2.510   1.878   3.327
 1578SOL     OW  913   2.468   0.964   1.985
 1578SOL    HW1  914   2.475   1.048   1.931
 1578SOL    HW2  915   2.514   0.977   2.073
 1580SOL     OW  916   1.984   0.643   2.425
 1580SOL    HW1  917   1.939   0.555   2.442
 1580SOL    HW2  918   1.983   0.697   2.509
 1581SOL     OW  919   3.704   1.767   2.221
 1581SOL    HW1  920   3.758   1.738   2.301
 1581SOL    HW2  921   3.734   1.857   2.192
 1582SOL     OW  922   1.889   1.596   1.979
 1582SOL    HW1  923   1.870   1.500   2.000
 1582SOL    HW2  924   1.856   1.654   2.054
 1584SOL     OW  925   3.503   1.108   2.294
 1584SOL    HW1  926   3.589   1.110   2.242
 1584SOL    HW2  927   3.517   1.155   2.382
 1586SOL     OW  928   2.475   1.365   2.588
 1586SOL    HW1  929   2.426   1.278   2.597
 1586SOL    HW2  930   2.452   1.408   2.501
 1587SOL     OW  931   3.155   1.228   3.285
 1587SOL    HW1  932   3.192   1.155   3.227
 1587SOL    HW2  933   3.207   1.233   3.370
 1589SOL     OW  934   2.059   0.976   3.126
 1589SOL    HW1  935   2.148   0.931   3.112
 1589SOL    HW2  936   1.986   0.911   3.107
 1590SOL     OW  937   3.387   0.999   2.052
 1590SOL    HW1  938   3.324   0.923   2.065
 1590SOL    HW2  939   3.435   1.017   2.138
 1591SOL     OW  940   3.049   1.792   3.478
 1591SOL    HW1  941   3.073   1.852   3.402
 1591SOL    HW2  942   3.056   1.697   3.448
 1593SOL     OW  943   3.328   1.417   2.815
 1593SOL    HW1  944   3.269   1.423   2.895
 1593SOL    HW2  945   3.313   1.329   2.769
 1594SOL     OW  946   3.529   1.714   2.434
 1594SOL    HW1  947   3.488   1.691   2.346
 1594SOL    HW2  948   3.511   1.640   2.499
 1595SOL     OW  949   2.460   0.729   2.132
 1595SOL    HW1  950   2.484   0.798   2.064
 1595SOL    HW2  951   2.382   0.762   2.186
 1597SOL     OW  952   3.438   1.662   2.169
 1597SOL    HW1  953   3.527   1.708   2.172
 1597SOL    HW2  954   3.417   1.638   2.074
 1602SOL     OW  955   2.903   0.701   2.291
 1602SOL    HW1  956   2.929   0.697   2.387
 1602SOL    HW2  957   2.818   0.650   2.277
 1603SOL     OW  958   1.938   0.811   2.651
 1603SOL    HW1  959   2.037   0.799   2.660
 1603SOL    HW2  960   1.914   0.906   2.672
 1604SOL     OW  961   1.992   1.821   3.433
 1604SOL    HW1  962   1.982   1.806   3.532
 1604SOL    HW2  963   1.906   1.857   3.397
 1607SOL     OW  964   3.224   1.144   2.407
 1607SOL    HW1  965   3.307   1.115   2.359
 1607SOL    HW2  966   3.175   1.211   2.351
 1609SOL     OW  967   2.870   1.456   2.339
 1609SOL    HW1  968   2.824   1.528   2.287
 1609SOL    HW2  969   2.866   1.476   2.437
 1610SOL     OW  970   2.213   1.801   2.715
 1610SOL    HW1  971   2.263   1.715   2.721
 1610SOL    HW2  972   2.278   1.878   2.712
 1612SOL     OW  973   3.089   1.550   3.368
 1612SOL    HW1  974   3.095   1.473   3.432
 1612SOL    HW2  975   3.037   1.524   3.288
 1613SOL     OW  976   2.183   0.943   2.104
 1613SOL    HW1  977   2.265   0.982   2.062
 1613SOL    HW2  978   2.156   0.861   2.055
 1615SOL     OW  979   2.323   1.266   3.589
 1615SOL    HW1  980   2.273   1.267   3.503
 1615SOL    HW2  981   2.260   1.248   3.665
 1616SOL     OW  982   2.973   1.776   2.099
 1616SOL    HW1  983   2.913   1.714   2.149
 1616SOL    HW2  984   3.004   1.732   2.014
 1618SOL     OW  985   3.494   1.377   1.943
 1618SOL    HW1  986   3.462   1.471   1.933
 1618SOL    HW2  987   3.418   1.314   1.931
 1619SOL     OW  988   2.326   1.743   2.185
 1619SOL    HW1  989   2.359   1.782   2.271
 1619SOL    HW2  990   2.402   1.736   2.120
 1621SOL     OW  991   2.111   1.785   3.103
 1621SOL    HW1  992   2.168   1.720   3.153
 1621SOL    HW2  993   2.095   1.752   3.010
 1622SOL     OW  994   2.802   1.698   2.766
 1622SOL    HW1  995   2.882   1.641   2.787
 1622SOL    HW2  996   2.753   1.658   2.689
 1623SOL     OW  997   2.244   0.700   2.342
 1623SOL    HW1  998   2.289   0.610   2.339
 1623SOL    HW2  999   2.150   0.689   2.375
 1627SOL     OW 1000   2.750   1.514   3.057
 1627SOL    HW1 1001   2.727   1.489   2.963
 1627SOL    HW2 1002   2.811   1.445   3.096
 1629SOL     OW 1003   2.665   1.402   2.786
 1629SOL    HW1 1004   2.755   1.416   2.744
 1629SOL    HW2 1005   2.594   1.404   2.715
 1632SOL     OW 1006   3.296   1.188   1.903
 1632SOL    HW1 1007   3.328   1.112   1.960
 1632SOL    HW2 1008   3.204   1.215   1.933
 1636SOL     OW 1009   3.089   1.570   2.655
 1636SOL    HW1 1010   3.110   1.644   2.590
 1636SOL    HW2 1011   3.157   1.570   2.728
 1637SOL     OW 1012   2.321   1.152   2.603
 1637SOL    HW1 1013   2.250   1.125   2.668
 1637SOL    HW2 1014   2.295   1.124   2.510
 1638SOL     OW 1015   3.133   1.797   2.453
 1638SOL    HW1 1016   3.177   1.861   2.389
 1638SOL    HW2 1017   3.083   1.849   2.523
 1644SOL     OW 1018   3.291   1.173   2.729
 1644SOL    HW1 1019   3.236   1.089   2.722
 1644SOL    HW2 1020   3.317   1.202   2.637
 1647SOL     OW 1021   2.350   1.385   2.036
 1647SOL    HW1 1022   2.263   1.370   2.083
 1647SOL    HW2 1023   2.333   1.411   1.941
 1648SOL     OW 1024   3.526   1.280   2.519
 1648SOL    HW1 1025   3.625   1.288   2.533
 1648SOL    HW2 1026   3.481   1.364   2.550
 1652SOL     OW 1027   2.926   1.347   3.202
 1652SOL    HW1 1028   2.846   1.324   3.257
 1652SOL    HW2 1029   3.009   1.321   3.251
 1653SOL     OW 1030   3.454   1.629   3.487
 1653SOL    HW1 1031   3.481   1.663   3.397
 1653SOL    HW2 1032   3.533   1.591   3.533
 1654SOL     OW 1033   2.973   1.195   2.962
 1654SOL    HW1 1034   2.933   1.239   3.043
 1654SOL    HW2 1035   2.932   1.232   2.879
 1655SOL     OW 1036   3.500   1.099   2.941
 1655SOL    HW1 1037   3.505   1.180   3.000
 1655SOL    HW2 1038   3.414   1.101   2.890
 1658SOL     OW 1039   2.567   1.050   2.230
 1658SOL    HW1 1040   2.553   1.057   2.329
 1658SOL    HW2 1041   2.651   0.999   2.212
 1659SOL     OW 1042   2.272   0.813   3.113
 1659SOL    HW1 1043   2.358   0.825   3.163
 1659SOL    HW2 1044   2.230   0.726   3.140
 1661SOL     OW 1045   1.926   1.564   3.193
 1661SOL    HW1 1046   1.880   1.646   3.159
 1661SOL    HW2 1047   2.024   1.583   3.202
 1662SOL     OW 1048   2.229   1.100   2.363
 1662SOL    HW1 1049   2.222   1.183   2.307
 1662SOL    HW2 1050   2.233   1.020   2.303
 1664SOL     OW 1051   3.114   1.348   2.250
 1664SOL    HW1 1052   3.164   1.425   2.290
 1664SOL    HW2 1053   3.019   1.350   2.282
 1665SOL     OW 1054   3.134   1.445   3.004
 1665SOL    HW1 1055   3.181   1.458   3.091
 1665SOL    HW2 1056   3.068   1.371   3.013
 1667SOL     OW 1057   2.216   1.510   3.191
 1667SOL    HW1 1058   2.195   1.466   3.104
 1667SOL    HW2 1059   2.313   1.536   3.194
 1672SOL     OW 1060   2.435   0.870   2.891
 1672SOL    HW1 1061   2.479   0.959   2.882
 1672SOL    HW2 1062   2.372   0.870   2.968
 1676SOL     OW 1063   1.899   1.310   3.144
 1676SOL    HW1 1064   1.952   1.261   3.212
 1676SOL    HW2 1065   1.921   1.408   3.149
 1681SOL     OW 1066   2.885   0.766   2.828
 1681SOL    HW1 1067   2.900   0.787   2.924
 1681SOL    HW2 1068   2.855   0.671   2.819
 1682SOL     OW 1069   2.842   1.573   3.562
 1682SOL    HW1 1070   2.822   1.617   3.474
 1682SOL    HW2 1071   2.881   1.482   3.546
 1686SOL     OW 1072   3.165   0.838   1.904
 1686SOL    HW1 1073   3.199   0.745   1.919
 1686SOL    HW2 1074   3.183   0.865   1.809
 1687SOL     OW 1075   2.930   1.333   2.711
 1687SOL    HW1 1076   2.937   1.249   2.656
 1687SOL    HW2 1077   2.992   1.402   2.675
 1688SOL     OW 1078   2.181   0.810   2.811
 1688SOL    HW1 1079   2.274   0.846   2.816
 1688SOL    HW2 1080   2.175   0.725   2.863
 1692SOL     OW 1081   1.870   1.326   2.062
 1692SOL    HW1 1082   1.777   1.347   2.031
 1692SOL    HW2 1083   1.880   1.227   2.075
 1693SOL     OW 1084   1.950   1.801   2.789
 1693SOL    HW1 1085   1.908   1.715   2.762
 1693SOL    HW2 1086   2.044   1.804   2.755
 1694SOL     OW 1087   2.366   1.568   2.772
 1694SOL    HW1 1088   2.432   1.642   2.781
 1694SOL    HW2 1089   2.410   1.489   2.730
 1701SOL     OW 1090   2.114   1.564   3.606
 1701SOL    HW1 1091   2.084   1.621   3.682
 1701SOL    HW2 1092   2.107   1.467   3.632
 1703SOL     OW 1093   2.792   1.678   3.327
 1703SOL    HW1 1094   2.768   1.660   3.232
 1703SOL    HW2 1095   2.822   1.772   3.337
 1705SOL     OW 1096   2.021   1.137   3.328
 1705SOL    HW1 1097   2.043   1.076   3.404
 1705SOL    HW2 1098   2.031   1.088   3.242
 1706SOL     OW 1099   3.209   1.059   3.096
 1706SOL    HW1 1100   3.233   0.996   3.022
 1706SOL    HW2 1101   3.119   1.099   3.078
 1707SOL     OW 1102   3.164   0.855   2.171
 1707SOL    HW1 1103   3.078   0.824   2.213
 1707SOL    HW2 1104   3.160   0.841   2.072
 1708SOL     OW 1105   3.621   1.747   3.016
 1708SOL    HW1 1106   3.682   1.777   2.943
 1708SOL    HW2 1107   3.583   1.658   2.994
 1709SOL     OW 1108   3.114   1.731   2.990
 1709SOL    HW1 1109   3.198   1.736   2.936
 1709SOL    HW2 1110   3.091   1.635   3.008
 1710SOL     OW 1111   1.945   1.258   2.884
 1710SOL    HW1 1112   1.940   1.257   2.984
 1710SOL    HW2 1113   1.862   1.217   2.846
 1711SOL     OW 1114   2.550   1.662   3.578
 1711SOL    HW1 1115   2.494   1.743   3.587
 1711SOL    HW2 1116   2.602   1.666   3.492
 1713SOL     OW 1117   3.250   1.573   2.339
 1713SOL    HW1 1118   3.317   1.585   2.265
 1713SOL    HW2 1119   3.210   1.662   2.362
 1714SOL     OW 1120   1.992   1.794   3.713
 1714SOL    HW1 1121   1.951   1.720   3.766
 1714SOL    HW2 1122   2.056   1.845   3.771
 1715SOL     OW 1123   3.142   0.927   2.534
 1715SOL    HW1 1124   3.202   0.846   2.536
 1715SOL    HW2 1125   3.182   0.996   2.474
 1716SOL     OW 1126   2.692   1.273   3.284
 1716SOL    HW1 1127   2.687   1.306   3.379
 1716SOL    HW2 1128   2.606   1.292   3.238
 1717SOL     OW 1129   2.534   1.616   2.016
 1717SOL    HW1 1130   2.543   1.626   1.917
 1717SOL    HW2 1131   2.494   1.527   2.037
 1718SOL     OW 1132   3.512   1.720   3.256
 1718SOL    HW1 1133   3.565   1.730   3.172
 1718SOL    HW2 1134   3.485   1.810   3.290
 1721SOL     OW 1135   3.056   1.612   1.893
 1721SOL    HW1 1136   3.062   1.519   1.930
 1721SOL    HW2 1137   2.997   1.612   1.813
 1722SOL     OW 1138   2.684   1.002   3.234
 1722SOL    HW1 1139   2.724   1.001   3.142
 1722SOL    HW2 1140   2.694   1.094   3.274
 1723SOL     OW 1141   2.778   0.910   2.153
 1723SOL    HW1 1142   2.841   0.948   2.085
 1723SOL    HW2 1143   2.818   0.827   2.192
 1724SOL     OW 1144   3.366   1.607   1.906
 1724SOL    HW1 1145   3.274   1.644   1.913
 1724SOL    HW2 1146   3.404   1.627   1.816
 1725SOL     OW 1147   2.234   1.288   3.352
 1725SOL    HW1 1148   2.221   1.381   3.318
 1725SOL    HW2 1149   2.150   1.236   3.339
 1726SOL     OW 1150   3.476   1.292   3.151
 1726SOL    HW1 1151   3.536   1.295   3.231
 1726SOL    HW2 1152   3.401   1.356   3.164
 1727SOL     OW 1153   2.901   1.098   2.558
 1727SOL    HW1 1154   2.831   1.051   2.612
 1727SOL    HW2 1155   2.960   1.030   2.515
 1729SOL     OW 1156   2.452   1.487   2.353
 1729SOL    HW1 1157   2.494   1.429   2.283
 1729SOL    HW2 1158   2.408   1.566   2.309
 1731SOL     OW 1159   2.117   1.348   2.152
 1731SOL    HW1 1160   2.021   1.349   2.125
 1731SOL    HW2 1161   2.129   1.401   2.236
 1737SOL     OW 1162   3.045   1.335   1.981
 1737SOL    HW1 1163   2.946   1.324   1.983
 1737SOL    HW2 1164   3.079   1.350   2.074
 1738SOL     OW 1165   2.475   0.842   3.293
 1738SOL    HW1 1166   2.531   0.923   3.276
 1738SOL    HW2 1167   2.534   0.762   3.296
 1739SOL     OW 1168   3.355   1.767   2.821
 1739SOL    HW1 1169   3.388   1.831   2.752
 1739SOL    HW2 1170   3.421   1.761   2.896
 1742SOL     OW 1171   2.252   1.741   3.422
 1742SOL    HW1 1172   2.161   1.782   3.420
 1742SOL    HW2 1173   2.245   1.647   3.454
 1745SOL     OW 1174   2.456   0.745   2.514
 1745SOL    HW1 1175   2.506   0.830   2.495
 1745SOL    HW2 1176   2.368   0.747   2.466
 1748SOL     OW 1177   2.721   1.374   1.878
 1748SOL    HW1 1178   2.675   1.389   1.966
 1748SOL    HW2 1179   2.765   1.459   1.848
 1749SOL     OW 1180   2.523   1.790   2.815
 1749SOL    HW1 1181   2.477   1.878   2.802
 1749SOL    HW2 1182   2.622   1.802   2.808
 1750SOL     OW 1183   2.721   0.956   2.723
 1750SOL    HW1 1184   2.775   0.887   2.771
 1750SOL    HW2 1185   2.689   1.025   2.789
 1751SOL     OW 1186   2.945   0.984   1.949
 1751SOL    HW1 1187   2.922   1.037   1.867
 1751SOL    HW2 1188   3.026   0.928   1.930
 1752SOL     OW 1189   3.723   1.569   2.713
 1752SOL    HW1 1190   3.652   1.557   2.643
 1752SOL    HW2 1191   3.724   1.490   2.773
 1753SOL     OW 1192   2.083   1.314   3.706
 1753SOL    HW1 1193   2.018   1.241   3.685
 1753SOL    HW2 1194   2.087   1.328   3.804
 1754SOL     OW 1195   1.941   1.240   2.515
 1754SOL    HW1 1196   1.940   1.193   2.603
 1754SOL    HW2 1197   2.023   1.212   2.464
 1755SOL     OW 1198   2.534   1.391   3.486
 1755SOL    HW1 1199   2.456   1.341   3.524
 1755SOL    HW2 1200   2.531   1.486   3.517
 1758SOL     OW 1201   3.567   1.487   2.966
 1758SOL    HW1 1202   3.474   1.462   2.939
 1758SOL    HW2 1203   3.593   1.437   3.048
 1760SOL     OW 1204   2.674   1.586   2.549
 1760SOL    HW1 1205   2.706   1.596   2.455
 1760SOL    HW2 1206   2.595   1.524   2.551
 1763SOL     OW 1207   2.632   1.330   2.163
 1763SOL    HW1 1208   2.586   1.243   2.180
 1763SOL    HW2 1209   2.723   1.327   2.204
 1764SOL     OW 1210   2.480   1.567   3.146
 1764SOL    HW1 1211   2.475   1.649   3.203
 1764SOL    HW2 1212   2.569   1.564   3.101
 1768SOL     OW 1213   1.901   1.077   2.162
 1768SOL    HW1 1214   2.000   1.066   2.153
 1768SOL    HW2 1215   1.861   0.991   2.194
 1769SOL     OW 1216   2.737   1.646   2.199
 1769SOL    HW1 1217   2.660   1.611   2.145
 1769SOL    HW2 1218   2.705   1.717   2.261
 1785SOL     OW 1219   1.889   1.596   3.841
 1785SOL    HW1 1220   1.870   1.500   3.862
 1785SOL    HW2 1221   1.856   1.654   3.916
 1807SOL     OW 1222   2.326   1.743   4.047
 1807SOL    HW1 1223   2.359   1.782   4.133
 1807SOL    HW2 1224   2.402   1.736   3.982
 1849SOL     OW 1225   2.534   1.616   3.878
 1849SOL    HW1 1226   2.543   1.626   3.779
 1849SOL    HW2 1227   2.494   1.527   3.899
 1852SOL     OW 1228   3.056   1.612   3.755
 1852SOL    HW1 1229   3.062   1.519   3.792
 1852SOL    HW2 1230   2.997   1.612   3.675
 1864SOL     OW 1231   2.721   1.374   3.740
 1864SOL    HW1 1232   2.675   1.389   3.828
 1864SOL    HW2 1233   2.765   1.459   3.710
 1880SOL     OW 1234   2.087   2.137   0.996
 1880SOL    HW1 1235   2.122   2.120   1.088
 1880SOL    HW2 1236   1.999   2.092   0.984
 1881SOL     OW 1237   1.881   2.230   0.647
 1881SOL    HW1 1238   1.799   2.273   0.686
 1881SOL    HW2 1239   1.853   2.157   0.584
 1882SOL     OW 1240   2.431   3.137   1.165
 1882SOL    HW1 1241   2.338   3.130   1.128
 1882SOL    HW2 1242   2.442   3.226   1.209
 1884SOL     OW 1243   2.997   2.565   0.717
 1884SOL    HW1 1244   3.054   2.643   0.692
 1884SOL    HW2 1245   2.937   2.591   0.793
 1886SOL     OW 1246   2.630   3.006   1.023
 1886SOL    HW1 1247   2.552   3.023   1.083
 1886SOL    HW2 1248   2.664   3.093   0.987
 1887SOL     OW 1249   2.712   2.660   1.823
 1887SOL    HW1 1250   2.708   2.736   1.888
 1887SOL    HW2 1251   2.734   2.696   1.732
 1888SOL     OW 1252   2.547   2.874   0.665
 1888SOL    HW1 1253   2.616   2.858   0.735
 1888SOL    HW2 1254   2.474   2.931   0.703
 1889SOL     OW 1255   2.548   3.023   1.803
 1889SOL    HW1 1256   2.608   3.102   1.817
 1889SOL    HW2 1257   2.462   3.054   1.762
 1890SOL     OW 1258   2.197   3.297   1.061
 1890SOL    HW1 1259   2.119   3.266   1.008
 1890SOL    HW2 1260   2.255   3.355   1.004
 1891SOL     OW 1261   3.322   3.367   1.339
 1891SOL    HW1 1262   3.346   3.461   1.365
 1891SOL    HW2 1263   3.306   3.313   1.421
 1892SOL     OW 1264   2.300   2.254   1.499
 1892SOL    HW1 1265   2.382   2.198   1.508
 1892SOL    HW2 1266   2.219   2.196   1.503
 1895SOL     OW 1267   2.989   3.203   1.690
 1895SOL    HW1 1268   3.036   3.203   1.778
 1895SOL    HW2 1269   2.941   3.116   1.679
 1897SOL     OW 1270   2.102   2.953   0.886
 1897SOL    HW1 1271   2.116   2.869   0.938
 1897SOL    HW2 1272   2.047   3.017   0.941
 1898SOL     OW 1273   2.482   3.648   1.439
 1898SOL    HW1 1274   2.390   3.631   1.474
 1898SOL    HW2 1275   2.510   3.740   1.465
 1900SOL     OW 1276   3.456   1.976   1.480
 1900SOL    HW1 1277   3.438   2.043   1.408
 1900SOL    HW2 1278   3.453   2.022   1.569
 1905SOL     OW 1279   1.975   2.599   1.597
 1905SOL    HW1 1280   2.063   2.586   1.642
 1905SOL    HW2 1281   1.962   2.696   1.575
 1907SOL     OW 1282   3.155   3.090   1.423
 1907SOL    HW1 1283   3.192   3.017   1.365
 1907SOL    HW2 1284   3.207   3.095   1.508
 1909SOL     OW 1285   2.059   2.838   1.264
 1909SOL    HW1 1286   2.148   2.793   1.250
 1909SOL    HW2 1287   1.986   2.773   1.245
 1911SOL     OW 1288   3.049   3.654   1.616
 1911SOL    HW1 1289   3.073   3.714   1.540
 1911SOL    HW2 1290   3.056   3.559   1.586
 1912SOL     OW 1291   2.179   2.113   1.801
 1912SOL    HW1 1292   2.250   2.184   1.807
 1912SOL    HW2 1293   2.091   2.152   1.829
 1916SOL     OW 1294   3.143   2.207   0.944
 1916SOL    HW1 1295   3.057   2.157   0.931
 1916SOL    HW2 1296   3.205   2.153   1.000
 1918SOL     OW 1297   2.669   2.467   1.465
 1918SOL    HW1 1298   2.622   2.464   1.554
 1918SOL    HW2 1299   2.618   2.412   1.399
 1919SOL     OW 1300   3.256   2.331   1.674
 1919SOL    HW1 1301   3.236   2.374   1.762
 1919SOL    HW2 1302   3.334   2.269   1.683
 1920SOL     OW 1303   2.835   2.752   1.572
 1920SOL    HW1 1304   2.881   2.668   1.543
 1920SOL    HW2 1305   2.779   2.786   1.497
 1921SOL     OW 1306   2.853   2.272   1.242
 1921SOL    HW1 1307   2.776   2.306   1.296
 1921SOL    HW2 1308   2.819   2.221   1.163
 1923SOL     OW 1309   1.938   2.673   0.789
 1923SOL    HW1 1310   2.037   2.661   0.798
 1923SOL    HW2 1311   1.914   2.768   0.810
 1924SOL     OW 1312   1.992   3.683   1.571
 1924SOL    HW1 1313   1.982   3.668   1.670
 1924SOL    HW2 1314   1.906   3.719   1.535
 1926SOL     OW 1315   3.581   2.447   1.831
 1926SOL    HW1 1316   3.555   2.536   1.795
 1926SOL    HW2 1317   3.579   2.379   1.758
 1928SOL     OW 1318   2.412   2.058   0.885
 1928SOL    HW1 1319   2.407   2.053   0.985
 1928SOL    HW2 1320   2.414   2.154   0.856
 1932SOL     OW 1321   3.089   3.412   1.506
 1932SOL    HW1 1322   3.095   3.335   1.570
 1932SOL    HW2 1323   3.037   3.386   1.426
 1935SOL     OW 1324   2.323   3.128   1.727
 1935SOL    HW1 1325   2.273   3.129   1.641
 1935SOL    HW2 1326   2.260   3.110   1.803
 1937SOL     OW 1327   2.064   2.147   1.498
 1937SOL    HW1 1328   1.984   2.207   1.485
 1937SOL    HW2 1329   2.054   2.098   1.584
 1941SOL     OW 1330   2.111   3.647   1.241
 1941SOL    HW1 1331   2.168   3.582   1.291
 1941SOL    HW2 1332   2.095   3.614   1.148
 1944SOL     OW 1333   3.409   2.084   1.729
 1944SOL    HW1 1334   3.404   2.121   1.821
 1944SOL    HW2 1335   3.337   2.015   1.717
 1945SOL     OW 1336   2.643   2.126   1.749
 1945SOL    HW1 1337   2.710   2.065   1.792
 1945SOL    HW2 1338   2.570   2.145   1.814
 1946SOL     OW 1339   2.750   3.376   1.195
 1946SOL    HW1 1340   2.727   3.351   1.101
 1946SOL    HW2 1341   2.811   3.307   1.234
 1947SOL     OW 1342   3.213   2.452   1.433
 1947SOL    HW1 1343   3.241   2.409   1.518
 1947SOL    HW2 1344   3.238   2.548   1.434
 1948SOL     OW 1345   2.665   3.264   0.924
 1948SOL    HW1 1346   2.755   3.278   0.882
 1948SOL    HW2 1347   2.594   3.266   0.853
 1949SOL     OW 1348   2.784   2.365   0.899
 1949SOL    HW1 1349   2.759   2.356   0.803
 1949SOL    HW2 1350   2.832   2.283   0.930
 1954SOL     OW 1351   2.938   2.545   1.464
 1954SOL    HW1 1352   2.858   2.484   1.467
 1954SOL    HW2 1353   3.019   2.492   1.440
 1956SOL     OW 1354   2.321   3.014   0.741
 1956SOL    HW1 1355   2.250   2.987   0.806
 1956SOL    HW2 1356   2.295   2.986   0.648
 1959SOL     OW 1357   1.940   2.418   1.386
 1959SOL    HW1 1358   2.032   2.417   1.345
 1959SOL    HW2 1359   1.934   2.492   1.453
 1960SOL     OW 1360   2.423   2.084   1.147
 1960SOL    HW1 1361   2.461   2.000   1.184
 1960SOL    HW2 1362   2.335   2.103   1.191
 1961SOL     OW 1363   2.728   2.316   0.642
 1961SOL    HW1 1364   2.696   2.388   0.580
 1961SOL    HW2 1365   2.752   2.235   0.589
 1962SOL     OW 1366   2.879   1.901   0.753
 1962SOL    HW1 1367   2.807   1.906   0.684
 1962SOL    HW2 1368   2.855   1.832   0.822
 1964SOL     OW 1369   3.328   2.452   0.992
 1964SOL    HW1 1370   3.298   2.357   0.999
 1964SOL    HW2 1371   3.401   2.468   1.058
 1970SOL     OW 1372   3.616   3.085   1.588
 1970SOL    HW1 1373   3.707   3.046   1.575
 1970SOL    HW2 1374   3.624   3.181   1.612
 1971SOL     OW 1375   2.926   3.209   1.340
 1971SOL    HW1 1376   2.846   3.186   1.395
 1971SOL    HW2 1377   3.009   3.183   1.389
 1972SOL     OW 1378   3.454   3.491   1.625
 1972SOL    HW1 1379   3.481   3.525   1.535
 1972SOL    HW2 1380   3.533   3.453   1.671
 1973SOL     OW 1381   2.973   3.057   1.100
 1973SOL    HW1 1382   2.933   3.101   1.181
 1973SOL    HW2 1383   2.932   3.094   1.017
 1975SOL     OW 1384   2.777   1.951   1.402
 1975SOL    HW1 1385   2.802   1.931   1.307
 1975SOL    HW2 1386   2.849   2.007   1.444
 1976SOL     OW 1387   2.842   2.978   1.719
 1976SOL    HW1 1388   2.743   2.984   1.729
 1976SOL    HW2 1389   2.865   2.898   1.663
 1978SOL     OW 1390   2.272   2.675   1.251
 1978SOL    HW1 1391   2.358   2.687   1.301
 1978SOL    HW2 1392   2.230   2.588   1.278
 1979SOL     OW 1393   3.136   2.248   1.262
 1979SOL    HW1 1394   3.157   2.322   1.326
 1979SOL    HW2 1395   3.047   2.265   1.219
 1980SOL     OW 1396   1.926   3.426   1.331
 1980SOL    HW1 1397   1.880   3.508   1.297
 1980SOL    HW2 1398   2.024   3.445   1.340
 1982SOL     OW 1399   2.428   2.399   0.865
 1982SOL    HW1 1400   2.440   2.465   0.791
 1982SOL    HW2 1401   2.474   2.433   0.948
 1984SOL     OW 1402   3.134   3.307   1.142
 1984SOL    HW1 1403   3.181   3.320   1.229
 1984SOL    HW2 1404   3.068   3.233   1.151
 1986SOL     OW 1405   2.216   3.372   1.329
 1986SOL    HW1 1406   2.195   3.328   1.242
 1986SOL    HW2 1407   2.313   3.398   1.332
 1987SOL     OW 1408   2.264   2.613   1.598
 1987SOL    HW1 1409   2.332   2.668   1.551
 1987SOL    HW2 1410   2.304   2.525   1.625
 1988SOL     OW 1411   3.449   2.641   1.670
 1988SOL    HW1 1412   3.357   2.679   1.665
 1988SOL    HW2 1413   3.509   2.688   1.605
 1989SOL     OW 1414   2.875   1.967   1.770
 1989SOL    HW1 1415   2.881   2.052   1.718
 1989SOL    HW2 1416   2.907   1.891   1.713
 1990SOL     OW 1417   2.366   1.912   1.740
 1990SOL    HW1 1418   2.324   1.855   1.670
 1990SOL    HW2 1419   2.300   1.981   1.772
 1991SOL     OW 1420   2.435   2.732   1.029
 1991SOL    HW1 1421   2.479   2.821   1.020
 1991SOL    HW2 1422   2.372   2.732   1.106
 1992SOL     OW 1423   3.222   2.724   1.045
 1992SOL    HW1 1424   3.147   2.724   0.979
 1992SOL    HW2 1425   3.259   2.632   1.054
 1994SOL     OW 1426   2.169   2.075   1.231
 1994SOL    HW1 1427   2.146   2.112   1.321
 1994SOL    HW2 1428   2.139   1.980   1.225
 1995SOL     OW 1429   1.899   3.172   1.282
 1995SOL    HW1 1430   1.952   3.123   1.350
 1995SOL    HW2 1431   1.921   3.270   1.287
 1996SOL     OW 1432   2.594   2.496   1.064
 1996SOL    HW1 1433   2.653   2.470   0.988
 1996SOL    HW2 1434   2.566   2.592   1.053
 1997SOL     OW 1435   3.590   2.797   1.854
 1997SOL    HW1 1436   3.544   2.790   1.765
 1997SOL    HW2 1437   3.528   2.841   1.920
 2000SOL     OW 1438   2.885   2.628   0.966
 2000SOL    HW1 1439   2.900   2.649   1.062
 2000SOL    HW2 1440   2.855   2.533   0.957
 2001SOL     OW 1441   2.842   3.435   1.700
 2001SOL    HW1 1442   2.822   3.479   1.612
 2001SOL    HW2 1443   2.881   3.344   1.684
 2003SOL     OW 1444   2.212   2.760   1.804
 2003SOL    HW1 1445   2.288   2.804   1.852
 2003SOL    HW2 1446   2.247   2.713   1.722
 2007SOL     OW 1447   2.181   2.672   0.949
 2007SOL    HW1 1448   2.274   2.708   0.954
 2007SOL    HW2 1449   2.175   2.587   1.001
 2008SOL     OW 1450   2.201   2.371   1.006
 2008SOL    HW1 1451   2.149   2.288   0.989
 2008SOL    HW2 1452   2.278   2.376   0.942
 2009SOL     OW 1453   3.000   2.242   1.678
 2009SOL    HW1 1454   2.955   2.305   1.742
 2009SOL    HW2 1455   3.093   2.273   1.661
 2010SOL     OW 1456   3.022   2.069   1.477
 2010SOL    HW1 1457   3.022   2.133   1.554
 2010SOL    HW2 1458   3.050   2.117   1.394
 2014SOL     OW 1459   2.864   2.658   1.238
 2014SOL    HW1 1460   2.905   2.626   1.324
 2014SOL    HW2 1461   2.768   2.631   1.235
 2015SOL     OW 1462   1.902   2.406   1.114
 2015SOL    HW1 1463   1.987   2.373   1.073
 2015SOL    HW2 1464   1.915   2.421   1.212
 2016SOL     OW 1465   2.051   2.382   1.722
 2016SOL    HW1 1466   2.110   2.342   1.652
 2016SOL    HW2 1467   1.993   2.453   1.681
 2017SOL     OW 1468   3.231   2.812   1.660
 2017SOL    HW1 1469   3.270   2.901   1.680
 2017SOL    HW2 1470   3.241   2.792   1.563
 2019SOL     OW 1471   3.519   2.466   1.206
 2019SOL    HW1 1472   3.481   2.397   1.268
 2019SOL    HW2 1473   3.601   2.430   1.162
 2020SOL     OW 1474   2.114   3.426   1.744
 2020SOL    HW1 1475   2.084   3.483   1.820
 2020SOL    HW2 1476   2.107   3.329   1.770
 2021SOL     OW 1477   2.533   2.326   1.269
 2021SOL    HW1 1478   2.499   2.237   1.239
 2021SOL    HW2 1479   2.559   2.380   1.189
 2022SOL     OW 1480   2.792   3.540   1.465
 2022SOL    HW1 1481   2.768   3.522   1.370
 2022SOL    HW2 1482   2.822   3.634   1.475
 2024SOL     OW 1483   2.021   2.999   1.466
 2024SOL    HW1 1484   2.043   2.938   1.542
 2024SOL    HW2 1485   2.031   2.950   1.380
 2025SOL     OW 1486   3.209   2.921   1.234
 2025SOL    HW1 1487   3.233   2.858   1.160
 2025SOL    HW2 1488   3.119   2.961   1.216
 2029SOL     OW 1489   1.945   3.120   1.022
 2029SOL    HW1 1490   1.940   3.119   1.122
 2029SOL    HW2 1491   1.862   3.079   0.984
 2030SOL     OW 1492   2.550   3.524   1.716
 2030SOL    HW1 1493   2.494   3.605   1.725
 2030SOL    HW2 1494   2.602   3.528   1.630
 2034SOL     OW 1495   1.992   3.656   1.851
 2034SOL    HW1 1496   1.951   3.582   1.904
 2034SOL    HW2 1497   2.056   3.707   1.909
 2036SOL     OW 1498   2.692   3.135   1.422
 2036SOL    HW1 1499   2.687   3.168   1.517
 2036SOL    HW2 1500   2.606   3.154   1.376
 2040SOL     OW 1501   2.125   2.188   0.720
 2040SOL    HW1 1502   2.046   2.239   0.686
 2040SOL    HW2 1503   2.116   2.173   0.818
 2042SOL     OW 1504   2.684   2.864   1.372
 2042SOL    HW1 1505   2.724   2.863   1.280
 2042SOL    HW2 1506   2.694   2.956   1.412
 2045SOL     OW 1507   2.234   3.150   1.490
 2045SOL    HW1 1508   2.221   3.243   1.456
 2045SOL    HW2 1509   2.150   3.098   1.477
 2046SOL     OW 1510   3.476   3.154   1.289
 2046SOL    HW1 1511   3.536   3.157   1.369
 2046SOL    HW2 1512   3.401   3.218   1.302
 2048SOL     OW 1513   2.876   2.098   0.971
 2048SOL    HW1 1514   2.868   2.062   0.878
 2048SOL    HW2 1515   2.874   2.022   1.036
 2050SOL     OW 1516   3.571   2.247   1.381
 2050SOL    HW1 1517   3.644   2.316   1.385
 2050SOL    HW2 1518   3.599   2.172   1.322
 2052SOL     OW 1519   1.967   2.875   1.726
 2052SOL    HW1 1520   1.890   2.842   1.780
 2052SOL    HW2 1521   2.052   2.845   1.768
 2053SOL     OW 1522   2.534   2.065   1.489
 2053SOL    HW1 1523   2.624   2.049   1.449
 2053SOL    HW2 1524   2.542   2.070   1.588
 2054SOL     OW 1525   3.302   2.718   1.398
 2054SOL    HW1 1526   3.245   2.770   1.335
 2054SOL    HW2 1527   3.398   2.730   1.374
 2057SOL     OW 1528   2.475   2.704   1.431
 2057SOL    HW1 1529   2.531   2.785   1.414
 2057SOL    HW2 1530   2.534   2.624   1.434
 2059SOL     OW 1531   2.578   2.427   1.708
 2059SOL    HW1 1532   2.597   2.492   1.782
 2059SOL    HW2 1533   2.638   2.347   1.717
 2060SOL     OW 1534   3.312   3.082   1.633
 2060SOL    HW1 1535   3.303   3.072   1.732
 2060SOL    HW2 1536   3.408   3.075   1.607
 2061SOL     OW 1537   2.252   3.603   1.560
 2061SOL    HW1 1538   2.161   3.644   1.558
 2061SOL    HW2 1539   2.245   3.509   1.592
 2062SOL     OW 1540   3.536   2.745   1.254
 2062SOL    HW1 1541   3.509   2.656   1.217
 2062SOL    HW2 1542   3.537   2.813   1.181
 2064SOL     OW 1543   2.456   2.607   0.652
 2064SOL    HW1 1544   2.506   2.692   0.633
 2064SOL    HW2 1545   2.368   2.609   0.604
 2065SOL     OW 1546   3.639   2.204   1.642
 2065SOL    HW1 1547   3.622   2.235   1.548
 2065SOL    HW2 1548   3.555   2.167   1.680
 2066SOL     OW 1549   3.592   2.796   1.517
 2066SOL    HW1 1550   3.630   2.887   1.532
 2066SOL    HW2 1551   3.584   2.779   1.418
 2069SOL     OW 1552   2.721   2.818   0.861
 2069SOL    HW1 1553   2.775   2.749   0.909
 2069SOL    HW2 1554   2.689   2.887   0.927
 2072SOL     OW 1555   2.083   3.176   1.844
 2072SOL    HW1 1556   2.018   3.103   1.823
 2072SOL    HW2 1557   2.087   3.190   1.942
 2074SOL     OW 1558   2.534   3.253   1.624
 2074SOL    HW1 1559   2.456   3.203   1.662
 2074SOL    HW2 1560   2.531   3.348   1.655
 2075SOL     OW 1561   3.686   2.054   1.227
 2075SOL    HW1 1562   3.682   1.964   1.271
 2075SOL    HW2 1563   3.689   2.043   1.128
 2078SOL     OW 1564   2.179   2.409   1.280
 2078SOL    HW1 1565   2.217   2.350   1.352
 2078SOL    HW2 1566   2.219   2.383   1.192
 2080SOL     OW 1567   3.286   2.076   1.112
 2080SOL    HW1 1568   3.338   2.011   1.167
 2080SOL    HW2 1569   3.237   2.139   1.173
 2081SOL     OW 1570   2.863   1.896   1.154
 2081SOL    HW1 1571   2.800   1.824   1.123
 2081SOL    HW2 1572   2.956   1.860   1.154
 2083SOL     OW 1573   2.480   3.429   1.284
 2083SOL    HW1 1574   2.475   3.511   1.341
 2083SOL    HW2 1575   2.569   3.426   1.239
 2089SOL     OW 1576   2.092   2.490   1.975
 2089SOL    HW1 1577   1.999   2.488   2.012
 2089SOL    HW2 1578   2.093   2.451   1.883
 2090SOL     OW 1579   2.087   2.137   2.858
 2090SOL    HW1 1580   2.122   2.120   2.950
 2090SOL    HW2 1581   1.999   2.092   2.846
 2091SOL     OW 1582   1.881   2.230   2.509
 2091SOL    HW1 1583   1.799   2.273   2.548
 2091SOL    HW2 1584   1.853   2.157   2.446
 2092SOL     OW 1585   2.431   3.137   3.027
 2092SOL    HW1 1586   2.338   3.130   2.990
 2092SOL    HW2 1587   2.442   3.226   3.071
 2093SOL     OW 1588   3.417   3.373   2.565
 2093SOL    HW1 1589   3.360   3.357   2.646
 2093SOL    HW2 1590   3.358   3.383   2.485
 2094SOL     OW 1591   2.997   2.565   2.579
 2094SOL    HW1 1592   3.054   2.643   2.554
 2094SOL    HW2 1593   2.937   2.591   2.655
 2095SOL     OW 1594   3.617   2.469   2.093
 2095SOL    HW1 1595   3.605   2.456   1.994
 2095SOL    HW2 1596   3.587   2.388   2.142
 2096SOL     OW 1597   2.630   3.006   2.885
 2096SOL    HW1 1598   2.552   3.023   2.945
 2096SOL    HW2 1599   2.664   3.093   2.849
 2097SOL     OW 1600   2.712   2.660   3.685
 2097SOL    HW1 1601   2.708   2.736   3.750
 2097SOL    HW2 1602   2.734   2.696   3.594
 2098SOL     OW 1603   2.547   2.874   2.527
 2098SOL    HW1 1604   2.616   2.858   2.597
 2098SOL    HW2 1605   2.474   2.931   2.565
 2099SOL     OW 1606   2.548   3.023   3.665
 2099SOL    HW1 1607   2.608   3.102   3.679
 2099SOL    HW2 1608   2.462   3.054   3.624
 2100SOL     OW 1609   2.197   3.297   2.923
 2100SOL    HW1 1610   2.119   3.266   2.870
 2100SOL    HW2 1611   2.255   3.355   2.866
 2101SOL     OW 1612   3.322   3.367   3.201
 2101SOL    HW1 1613   3.346   3.461   3.227
 2101SOL    HW2 1614   3.306   3.313   3.283
 2102SOL     OW 1615   2.300   2.254   3.361
 2102SOL    HW1 1616   2.382   2.198   3.370
 2102SOL    HW2 1617   2.219   2.196   3.365
 2103SOL     OW 1618   3.465   2.309   2.599
 2103SOL    HW1 1619   3.391   2.355   2.549
 2103SOL    HW2 1620   3.516   2.377   2.652
 2104SOL     OW 1621   2.093   3.575   2.345
 2104SOL    HW1 1622   2.127   3.652   2.399
 2104SOL    HW2 1623   2.137   3.575   2.255
 2105SOL     OW 1624   2.989   3.203   3.552
 2105SOL    HW1 1625   3.036   3.203   3.640
 2105SOL    HW2 1626   2.941   3.116   3.541
 2106SOL     OW 1627   2.092   3.296   2.400
 2106SOL    HW1 1628   2.066   3.392   2.400
 2106SOL    HW2 1629   2.021   3.242   2.445
 2107SOL     OW 1630   2.102   2.953   2.748
 2107SOL    HW1 1631   2.116   2.869   2.800
 2107SOL    HW2 1632   2.047   3.017   2.803
 2108SOL     OW 1633   2.482   3.648   3.301
 2108SOL    HW1 1634   2.390   3.631   3.336
 2108SOL    HW2 1635   2.510   3.740   3.327
 2109SOL     OW 1636   2.468   2.826   1.985
 2109SOL    HW1 1637   2.475   2.910   1.931
 2109SOL    HW2 1638   2.514   2.839   2.073
 2110SOL     OW 1639   3.456   1.976   3.342
 2110SOL    HW1 1640   3.438   2.043   3.270
 2110SOL    HW2 1641   3.453   2.022   3.431
 2111SOL     OW 1642   1.984   2.505   2.425
 2111SOL    HW1 1643   1.939   2.417   2.442
 2111SOL    HW2 1644   1.983   2.559   2.509
 2113SOL     OW 1645   1.889   3.458   1.979
 2113SOL    HW1 1646   1.870   3.362   2.000
 2113SOL    HW2 1647   1.856   3.516   2.054
 2114SOL     OW 1648   3.551   2.784   2.474
 2114SOL    HW1 1649   3.646   2.755   2.482
 2114SOL    HW2 1650   3.543   2.849   2.399
 2115SOL     OW 1651   3.503   2.970   2.294
 2115SOL    HW1 1652   3.589   2.972   2.242
 2115SOL    HW2 1653   3.517   3.017   2.382
 2116SOL     OW 1654   1.975   2.599   3.459
 2116SOL    HW1 1655   2.063   2.586   3.504
 2116SOL    HW2 1656   1.962   2.696   3.437
 2117SOL     OW 1657   2.475   3.227   2.588
 2117SOL    HW1 1658   2.426   3.140   2.597
 2117SOL    HW2 1659   2.452   3.270   2.501
 2118SOL     OW 1660   3.155   3.090   3.285
 2118SOL    HW1 1661   3.192   3.017   3.227
 2118SOL    HW2 1662   3.207   3.095   3.370
 2119SOL     OW 1663   2.671   1.866   2.364
 2119SOL    HW1 1664   2.711   1.957   2.355
 2119SOL    HW2 1665   2.571   1.874   2.370
 2120SOL     OW 1666   2.059   2.838   3.126
 2120SOL    HW1 1667   2.148   2.793   3.112
 2120SOL    HW2 1668   1.986   2.773   3.107
 2121SOL     OW 1669   3.387   2.861   2.052
 2121SOL    HW1 1670   3.324   2.785   2.065
 2121SOL    HW2 1671   3.435   2.879   2.138
 2123SOL     OW 1672   2.179   2.113   3.663
 2123SOL    HW1 1673   2.250   2.184   3.669
 2123SOL    HW2 1674   2.091   2.152   3.691
 2124SOL     OW 1675   3.328   3.279   2.815
 2124SOL    HW1 1676   3.269   3.285   2.895
 2124SOL    HW2 1677   3.313   3.191   2.769
 2125SOL     OW 1678   3.529   3.576   2.434
 2125SOL    HW1 1679   3.488   3.553   2.346
 2125SOL    HW2 1680   3.511   3.502   2.499
 2126SOL     OW 1681   2.460   2.591   2.132
 2126SOL    HW1 1682   2.484   2.660   2.064
 2126SOL    HW2 1683   2.382   2.624   2.186
 2127SOL     OW 1684   3.143   2.207   2.806
 2127SOL    HW1 1685   3.057   2.157   2.793
 2127SOL    HW2 1686   3.205   2.153   2.862
 2128SOL     OW 1687   3.438   3.524   2.169
 2128SOL    HW1 1688   3.527   3.570   2.172
 2128SOL    HW2 1689   3.417   3.500   2.074
 2129SOL     OW 1690   2.669   2.467   3.327
 2129SOL    HW1 1691   2.622   2.464   3.416
 2129SOL    HW2 1692   2.618   2.412   3.261
 2130SOL     OW 1693   3.256   2.331   3.536
 2130SOL    HW1 1694   3.236   2.374   3.624
 2130SOL    HW2 1695   3.334   2.269   3.545
 2131SOL     OW 1696   2.835   2.752   3.434
 2131SOL    HW1 1697   2.881   2.668   3.405
 2131SOL    HW2 1698   2.779   2.786   3.359
 2132SOL     OW 1699   2.853   2.272   3.104
 2132SOL    HW1 1700   2.776   2.306   3.158
 2132SOL    HW2 1701   2.819   2.221   3.025
 2133SOL     OW 1702   2.903   2.563   2.291
 2133SOL    HW1 1703   2.929   2.559   2.387
 2133SOL    HW2 1704   2.818   2.512   2.277
 2134SOL     OW 1705   1.938   2.673   2.651
 2134SOL    HW1 1706   2.037   2.661   2.660
 2134SOL    HW2 1707   1.914   2.768   2.672
 2135SOL     OW 1708   1.992   3.683   3.433
 2135SOL    HW1 1709   1.982   3.668   3.532
 2135SOL    HW2 1710   1.906   3.719   3.397
 2136SOL     OW 1711   2.727   2.210   2.057
 2136SOL    HW1 1712   2.786   2.273   2.008
 2136SOL    HW2 1713   2.746   2.116   2.028
 2138SOL     OW 1714   3.224   3.006   2.407
 2138SOL    HW1 1715   3.307   2.977   2.359
 2138SOL    HW2 1716   3.175   3.073   2.351
 2139SOL     OW 1717   2.412   2.058   2.747
 2139SOL    HW1 1718   2.407   2.053   2.847
 2139SOL    HW2 1719   2.414   2.154   2.718
 2140SOL     OW 1720   2.870   3.318   2.339
 2140SOL    HW1 1721   2.824   3.390   2.287
 2140SOL    HW2 1722   2.866   3.338   2.437
 2141SOL     OW 1723   2.213   3.663   2.715
 2141SOL    HW1 1724   2.263   3.577   2.721
 2141SOL    HW2 1725   2.278   3.740   2.712
 2142SOL     OW 1726   3.657   2.928   2.735
 2142SOL    HW1 1727   3.595   2.913   2.659
 2142SOL    HW2 1728   3.605   2.939   2.820
 2143SOL     OW 1729   3.089   3.412   3.368
 2143SOL    HW1 1730   3.095   3.335   3.432
 2143SOL    HW2 1731   3.037   3.386   3.288
 2144SOL     OW 1732   2.183   2.805   2.104
 2144SOL    HW1 1733   2.265   2.844   2.062
 2144SOL    HW2 1734   2.156   2.723   2.055
 2145SOL     OW 1735   3.320   2.597   2.590
 2145SOL    HW1 1736   3.315   2.532   2.665
 2145SOL    HW2 1737   3.400   2.656   2.603
 2146SOL     OW 1738   2.323   3.128   3.589
 2146SOL    HW1 1739   2.273   3.129   3.503
 2146SOL    HW2 1740   2.260   3.110   3.665
 2147SOL     OW 1741   2.973   3.638   2.099
 2147SOL    HW1 1742   2.913   3.576   2.149
 2147SOL    HW2 1743   3.004   3.594   2.014
 2148SOL     OW 1744   2.064   2.147   3.360
 2148SOL    HW1 1745   1.984   2.207   3.347
 2148SOL    HW2 1746   2.054   2.098   3.446
 2149SOL     OW 1747   3.494   3.239   1.943
 2149SOL    HW1 1748   3.462   3.333   1.933
 2149SOL    HW2 1749   3.418   3.176   1.931
 2150SOL     OW 1750   2.326   3.605   2.185
 2150SOL    HW1 1751   2.359   3.644   2.271
 2150SOL    HW2 1752   2.402   3.598   2.120
 2151SOL     OW 1753   3.262   1.969   2.288
 2151SOL    HW1 1754   3.238   1.932   2.198
 2151SOL    HW2 1755   3.361   1.985   2.292
 2152SOL     OW 1756   2.111   3.647   3.103
 2152SOL    HW1 1757   2.168   3.582   3.153
 2152SOL    HW2 1758   2.095   3.614   3.010
 2153SOL     OW 1759   2.802   3.560   2.766
 2153SOL    HW1 1760   2.882   3.503   2.787
 2153SOL    HW2 1761   2.753   3.520   2.689
 2154SOL     OW 1762   3.409   2.084   3.591
 2154SOL    HW1 1763   3.404   2.121   3.683
 2154SOL    HW2 1764   3.337   2.015   3.579
 2155SOL     OW 1765   2.476   1.984   1.979
 2155SOL    HW1 1766   2.574   1.962   1.986
 2155SOL    HW2 1767   2.445   1.967   1.886
 2156SOL     OW 1768   2.643   2.126   3.611
 2156SOL    HW1 1769   2.710   2.065   3.654
 2156SOL    HW2 1770   2.570   2.145   3.676
 2157SOL     OW 1771   2.750   3.376   3.057
 2157SOL    HW1 1772   2.727   3.351   2.963
 2157SOL    HW2 1773   2.811   3.307   3.096
 2158SOL     OW 1774   3.213   2.452   3.295
 2158SOL    HW1 1775   3.241   2.409   3.380
 2158SOL    HW2 1776   3.238   2.548   3.296
 2159SOL     OW 1777   2.665   3.264   2.786
 2159SOL    HW1 1778   2.755   3.278   2.744
 2159SOL    HW2 1779   2.594   3.266   2.715
 2160SOL     OW 1780   2.784   2.365   2.761
 2160SOL    HW1 1781   2.759   2.356   2.665
 2160SOL    HW2 1782   2.832   2.283   2.792
 2161SOL     OW 1783   2.401   1.926   2.374
 2161SOL    HW1 1784   2.320   1.927   2.432
 2161SOL    HW2 1785   2.404   2.009   2.319
 2162SOL     OW 1786   3.296   3.050   1.903
 2162SOL    HW1 1787   3.328   2.974   1.960
 2162SOL    HW2 1788   3.204   3.077   1.933
 2163SOL     OW 1789   2.159   1.897   2.033
 2163SOL    HW1 1790   2.208   1.981   2.012
 2163SOL    HW2 1791   2.221   1.832   2.078
 2164SOL     OW 1792   2.797   2.098   2.342
 2164SOL    HW1 1793   2.749   2.139   2.264
 2164SOL    HW2 1794   2.896   2.096   2.323
 2165SOL     OW 1795   2.938   2.545   3.326
 2165SOL    HW1 1796   2.858   2.484   3.329
 2165SOL    HW2 1797   3.019   2.492   3.302
 2166SOL     OW 1798   3.089   3.432   2.655
 2166SOL    HW1 1799   3.110   3.506   2.590
 2166SOL    HW2 1800   3.157   3.432   2.728
 2167SOL     OW 1801   2.321   3.014   2.603
 2167SOL    HW1 1802   2.250   2.987   2.668
 2167SOL    HW2 1803   2.295   2.986   2.510
 2168SOL     OW 1804   3.133   3.659   2.453
 2168SOL    HW1 1805   3.177   3.723   2.389
 2168SOL    HW2 1806   3.083   3.711   2.523
 2169SOL     OW 1807   2.894   2.411   1.878
 2169SOL    HW1 1808   2.853   2.493   1.839
 2169SOL    HW2 1809   2.958   2.437   1.951
 2170SOL     OW 1810   1.940   2.418   3.248
 2170SOL    HW1 1811   2.032   2.417   3.207
 2170SOL    HW2 1812   1.934   2.492   3.315
 2171SOL     OW 1813   2.423   2.084   3.009
 2171SOL    HW1 1814   2.461   2.000   3.046
 2171SOL    HW2 1815   2.335   2.103   3.053
 2172SOL     OW 1816   2.728   2.316   2.504
 2172SOL    HW1 1817   2.696   2.388   2.442
 2172SOL    HW2 1818   2.752   2.235   2.451
 2173SOL     OW 1819   2.879   1.901   2.615
 2173SOL    HW1 1820   2.807   1.906   2.546
 2173SOL    HW2 1821   2.855   1.832   2.684
 2174SOL     OW 1822   3.291   3.035   2.729
 2174SOL    HW1 1823   3.236   2.951   2.722
 2174SOL    HW2 1824   3.317   3.064   2.637
 2175SOL     OW 1825   3.328   2.452   2.854
 2175SOL    HW1 1826   3.298   2.357   2.861
 2175SOL    HW2 1827   3.401   2.468   2.920
 2176SOL     OW 1828   3.719   2.695   2.239
 2176SOL    HW1 1829   3.761   2.631   2.303
 2176SOL    HW2 1830   3.681   2.644   2.161
 2177SOL     OW 1831   2.350   3.247   2.036
 2177SOL    HW1 1832   2.263   3.232   2.083
 2177SOL    HW2 1833   2.333   3.273   1.941
 2178SOL     OW 1834   3.526   3.142   2.519
 2178SOL    HW1 1835   3.625   3.150   2.533
 2178SOL    HW2 1836   3.481   3.226   2.550
 2179SOL     OW 1837   3.252   2.437   1.940
 2179SOL    HW1 1838   3.198   2.416   2.021
 2179SOL    HW2 1839   3.343   2.396   1.949
 2181SOL     OW 1840   2.926   3.209   3.202
 2181SOL    HW1 1841   2.846   3.186   3.257
 2181SOL    HW2 1842   3.009   3.183   3.251
 2183SOL     OW 1843   2.973   3.057   2.962
 2183SOL    HW1 1844   2.933   3.101   3.043
 2183SOL    HW2 1845   2.932   3.094   2.879
 2184SOL     OW 1846   3.500   2.961   2.941
 2184SOL    HW1 1847   3.505   3.042   3.000
 2184SOL    HW2 1848   3.414   2.963   2.890
 2185SOL     OW 1849   2.777   1.951   3.264
 2185SOL    HW1 1850   2.802   1.931   3.169
 2185SOL    HW2 1851   2.849   2.007   3.306
 2186SOL     OW 1852   2.842   2.978   3.581
 2186SOL    HW1 1853   2.743   2.984   3.591
 2186SOL    HW2 1854   2.865   2.898   3.525
 2187SOL     OW 1855   2.567   2.912   2.230
 2187SOL    HW1 1856   2.553   2.919   2.329
 2187SOL    HW2 1857   2.651   2.861   2.212
 2188SOL     OW 1858   2.272   2.675   3.113
 2188SOL    HW1 1859   2.358   2.687   3.163
 2188SOL    HW2 1860   2.230   2.588   3.140
 2189SOL     OW 1861   3.136   2.248   3.124
 2189SOL    HW1 1862   3.157   2.322   3.188
 2189SOL    HW2 1863   3.047   2.265   3.081
 2190SOL     OW 1864   1.926   3.426   3.193
 2190SOL    HW1 1865   1.880   3.508   3.159
 2190SOL    HW2 1866   2.024   3.445   3.202
 2191SOL     OW 1867   2.229   2.962   2.363
 2191SOL    HW1 1868   2.222   3.045   2.307
 2191SOL    HW2 1869   2.233   2.882   2.303
 2192SOL     OW 1870   3.114   3.210   2.250
 2192SOL    HW1 1871   3.164   3.287   2.290
 2192SOL    HW2 1872   3.019   3.212   2.282
 2193SOL     OW 1873   3.134   3.307   3.004
 2193SOL    HW1 1874   3.181   3.320   3.091
 2193SOL    HW2 1875   3.068   3.233   3.013
 2194SOL     OW 1876   3.444   2.501   2.334
 2194SOL    HW1 1877   3.413   2.562   2.407
 2194SOL    HW2 1878   3.494   2.553   2.265
 2195SOL     OW 1879   2.216   3.372   3.191
 2195SOL    HW1 1880   2.195   3.328   3.104
 2195SOL    HW2 1881   2.313   3.398   3.194
 2196SOL     OW 1882   2.264   2.613   3.460
 2196SOL    HW1 1883   2.332   2.668   3.413
 2196SOL    HW2 1884   2.304   2.525   3.487
 2197SOL     OW 1885   3.449   2.641   3.532
 2197SOL    HW1 1886   3.357   2.679   3.527
 2197SOL    HW2 1887   3.509   2.688   3.467
 2198SOL     OW 1888   2.875   1.967   3.632
 2198SOL    HW1 1889   2.881   2.052   3.580
 2198SOL    HW2 1890   2.907   1.891   3.575
 2199SOL     OW 1891   2.366   1.912   3.602
 2199SOL    HW1 1892   2.324   1.855   3.532
 2199SOL    HW2 1893   2.300   1.981   3.634
 2200SOL     OW 1894   2.435   2.732   2.891
 2200SOL    HW1 1895   2.479   2.821   2.882
 2200SOL    HW2 1896   2.372   2.732   2.968
 2201SOL     OW 1897   3.222   2.724   2.907
 2201SOL    HW1 1898   3.147   2.724   2.841
 2201SOL    HW2 1899   3.259   2.632   2.916
 2202SOL     OW 1900   3.071   2.387   2.137
 2202SOL    HW1 1901   3.084   2.303   2.191
 2202SOL    HW2 1902   3.042   2.461   2.197
 2203SOL     OW 1903   2.169   2.075   3.093
 2203SOL    HW1 1904   2.146   2.112   3.183
 2203SOL    HW2 1905   2.139   1.980   3.087
 2204SOL     OW 1906   1.899   3.172   3.144
 2204SOL    HW1 1907   1.952   3.123   3.212
 2204SOL    HW2 1908   1.921   3.270   3.149
 2205SOL     OW 1909   2.594   2.496   2.926
 2205SOL    HW1 1910   2.653   2.470   2.850
 2205SOL    HW2 1911   2.566   2.592   2.915
 2207SOL     OW 1912   2.169   1.925   2.480
 2207SOL    HW1 1913   2.158   2.019   2.513
 2207SOL    HW2 1914   2.164   1.862   2.557
 2208SOL     OW 1915   3.484   2.229   2.236
 2208SOL    HW1 1916   3.486   2.153   2.300
 2208SOL    HW2 1917   3.436   2.306   2.276
 2209SOL     OW 1918   2.885   2.628   2.828
 2209SOL    HW1 1919   2.900   2.649   2.924
 2209SOL    HW2 1920   2.855   2.533   2.819
 2210SOL     OW 1921   2.842   3.435   3.562
 2210SOL    HW1 1922   2.822   3.479   3.474
 2210SOL    HW2 1923   2.881   3.344   3.546
 2212SOL     OW 1924   2.212   2.760   3.666
 2212SOL    HW1 1925   2.288   2.804   3.714
 2212SOL    HW2 1926   2.247   2.713   3.584
 2213SOL     OW 1927   3.402   2.136   1.987
 2213SOL    HW1 1928   3.341   2.061   2.010
 2213SOL    HW2 1929   3.424   2.188   2.070
 2214SOL     OW 1930   3.165   2.700   1.904
 2214SOL    HW1 1931   3.199   2.607   1.919
 2214SOL    HW2 1932   3.183   2.727   1.809
 2215SOL     OW 1933   2.930   3.195   2.711
 2215SOL    HW1 1934   2.937   3.111   2.656
 2215SOL    HW2 1935   2.992   3.264   2.675
 2216SOL     OW 1936   2.181   2.672   2.811
 2216SOL    HW1 1937   2.274   2.708   2.816
 2216SOL    HW2 1938   2.175   2.587   2.863
 2217SOL     OW 1939   3.000   2.242   3.540
 2217SOL    HW1 1940   2.955   2.305   3.604
 2217SOL    HW2 1941   3.093   2.273   3.523
 2218SOL     OW 1942   3.022   2.069   3.339
 2218SOL    HW1 1943   3.022   2.133   3.416
 2218SOL    HW2 1944   3.050   2.117   3.256
 2219SOL     OW 1945   1.870   3.188   2.062
 2219SOL    HW1 1946   1.777   3.209   2.031
 2219SOL    HW2 1947   1.880   3.089   2.075
 2220SOL     OW 1948   1.950   3.663   2.789
 2220SOL    HW1 1949   1.908   3.577   2.762
 2220SOL    HW2 1950   2.044   3.666   2.755
 2221SOL     OW 1951   2.366   3.430   2.772
 2221SOL    HW1 1952   2.432   3.504   2.781
 2221SOL    HW2 1953   2.410   3.351   2.730
 2222SOL     OW 1954   2.864   2.658   3.100
 2222SOL    HW1 1955   2.905   2.626   3.186
 2222SOL    HW2 1956   2.768   2.631   3.097
 2223SOL     OW 1957   1.902   2.406   2.976
 2223SOL    HW1 1958   1.987   2.373   2.935
 2223SOL    HW2 1959   1.915   2.421   3.074
 2224SOL     OW 1960   2.051   2.382   3.584
 2224SOL    HW1 1961   2.110   2.342   3.514
 2224SOL    HW2 1962   1.993   2.453   3.543
 2225SOL     OW 1963   3.231   2.812   3.522
 2225SOL    HW1 1964   3.270   2.901   3.542
 2225SOL    HW2 1965   3.241   2.792   3.425
 2226SOL     OW 1966   3.519   2.466   3.068
 2226SOL    HW1 1967   3.481   2.397   3.130
 2226SOL    HW2 1968   3.601   2.430   3.024
 2227SOL     OW 1969   2.114   3.426   3.606
 2227SOL    HW1 1970   2.084   3.483   3.682
 2227SOL    HW2 1971   2.107   3.329   3.632
 2228SOL     OW 1972   2.533   2.326   3.131
 2228SOL    HW1 1973   2.499   2.237   3.101
 2228SOL    HW2 1974   2.559   2.380   3.051
 2229SOL     OW 1975   2.792   3.540   3.327
 2229SOL    HW1 1976   2.768   3.522   3.232
 2229SOL    HW2 1977   2.822   3.634   3.337
 2230SOL     OW 1978   2.021   2.999   3.328
 2230SOL    HW1 1979   2.043   2.938   3.404
 2230SOL    HW2 1980   2.031   2.950   3.242
 2231SOL     OW 1981   3.209   2.921   3.096
 2231SOL    HW1 1982   3.233   2.858   3.022
 2231SOL    HW2 1983   3.119   2.961   3.078
 2232SOL     OW 1984   3.164   2.717   2.171
 2232SOL    HW1 1985   3.078   2.686   2.213
 2232SOL    HW2 1986   3.160   2.703   2.072
 2234SOL     OW 1987   3.114   3.593   2.990
 2234SOL    HW1 1988   3.198   3.598   2.936
 2234SOL    HW2 1989   3.091   3.497   3.008
 2235SOL     OW 1990   1.945   3.120   2.884
 2235SOL    HW1 1991   1.940   3.119   2.984
 2235SOL    HW2 1992   1.862   3.079   2.846
 2236SOL     OW 1993   2.550   3.524   3.578
 2236SOL    HW1 1994   2.494   3.605   3.587
 2236SOL    HW2 1995   2.602   3.528   3.492
 2237SOL     OW 1996   3.588   1.997   2.385
 2237SOL    HW1 1997   3.661   1.980   2.318
 2237SOL    HW2 1998   3.557   1.910   2.423
 2238SOL     OW 1999   3.250   3.435   2.339
 2238SOL    HW1 2000   3.317   3.447   2.265
 2238SOL    HW2 2001   3.210   3.524   2.362
 2240SOL     OW 2002   3.142   2.789   2.534
 2240SOL    HW1 2003   3.202   2.708   2.536
 2240SOL    HW2 2004   3.182   2.858   2.474
 2241SOL     OW 2005   2.692   3.135   3.284
 2241SOL    HW1 2006   2.687   3.168   3.379
 2241SOL    HW2 2007   2.606   3.154   3.238
 2242SOL     OW 2008   2.534   3.478   2.016
 2242SOL    HW1 2009   2.543   3.488   1.917
 2242SOL    HW2 2010   2.494   3.389   2.037
 2244SOL     OW 2011   3.703   2.037   2.825
 2244SOL    HW1 2012   3.742   1.952   2.789
 2244SOL    HW2 2013   3.605   2.039   2.806
 2245SOL     OW 2014   2.125   2.188   2.582
 2245SOL    HW1 2015   2.046   2.239   2.548
 2245SOL    HW2 2016   2.116   2.173   2.680
 2246SOL     OW 2017   3.056   3.474   1.893
 2246SOL    HW1 2018   3.062   3.381   1.930
 2246SOL    HW2 2019   2.997   3.474   1.813
 2247SOL     OW 2020   2.684   2.864   3.234
 2247SOL    HW1 2021   2.724   2.863   3.142
 2247SOL    HW2 2022   2.694   2.956   3.274
 2248SOL     OW 2023   2.778   2.772   2.153
 2248SOL    HW1 2024   2.841   2.810   2.085
 2248SOL    HW2 2025   2.818   2.689   2.192
 2249SOL     OW 2026   3.366   3.469   1.906
 2249SOL    HW1 2027   3.274   3.506   1.913
 2249SOL    HW2 2028   3.404   3.489   1.816
 2250SOL     OW 2029   2.234   3.150   3.352
 2250SOL    HW1 2030   2.221   3.243   3.318
 2250SOL    HW2 2031   2.150   3.098   3.339
 2251SOL     OW 2032   3.476   3.154   3.151
 2251SOL    HW1 2033   3.536   3.157   3.231
 2251SOL    HW2 2034   3.401   3.218   3.164
 2252SOL     OW 2035   2.901   2.960   2.558
 2252SOL    HW1 2036   2.831   2.913   2.612
 2252SOL    HW2 2037   2.960   2.892   2.515
 2253SOL     OW 2038   2.876   2.098   2.833
 2253SOL    HW1 2039   2.868   2.062   2.740
 2253SOL    HW2 2040   2.874   2.022   2.898
 2254SOL     OW 2041   2.452   3.349   2.353
 2254SOL    HW1 2042   2.494   3.291   2.283
 2254SOL    HW2 2043   2.408   3.428   2.309
 2255SOL     OW 2044   3.571   2.247   3.243
 2255SOL    HW1 2045   3.644   2.316   3.247
 2255SOL    HW2 2046   3.599   2.172   3.184
 2256SOL     OW 2047   2.117   3.210   2.152
 2256SOL    HW1 2048   2.021   3.211   2.125
 2256SOL    HW2 2049   2.129   3.263   2.236
 2257SOL     OW 2050   1.967   2.875   3.588
 2257SOL    HW1 2051   1.890   2.842   3.642
 2257SOL    HW2 2052   2.052   2.845   3.630
 2258SOL     OW 2053   2.534   2.065   3.351
 2258SOL    HW1 2054   2.624   2.049   3.311
 2258SOL    HW2 2055   2.542   2.070   3.450
 2259SOL     OW 2056   1.937   2.207   1.895
 2259SOL    HW1 2057   1.845   2.179   1.866
 2259SOL    HW2 2058   1.968   2.284   1.839
 2260SOL     OW 2059   3.302   2.718   3.260
 2260SOL    HW1 2060   3.245   2.770   3.197
 2260SOL    HW2 2061   3.398   2.730   3.236
 2261SOL     OW 2062   1.934   2.028   2.180
 2261SOL    HW1 2063   1.917   2.111   2.126
 2261SOL    HW2 2064   2.024   1.991   2.158
 2262SOL     OW 2065   3.045   3.197   1.981
 2262SOL    HW1 2066   2.946   3.186   1.983
 2262SOL    HW2 2067   3.079   3.212   2.074
 2263SOL     OW 2068   2.475   2.704   3.293
 2263SOL    HW1 2069   2.531   2.785   3.276
 2263SOL    HW2 2070   2.534   2.624   3.296
 2264SOL     OW 2071   3.355   3.629   2.821
 2264SOL    HW1 2072   3.388   3.693   2.752
 2264SOL    HW2 2073   3.421   3.623   2.896
 2265SOL     OW 2074   2.578   2.427   3.570
 2265SOL    HW1 2075   2.597   2.492   3.644
 2265SOL    HW2 2076   2.638   2.347   3.579
 2266SOL     OW 2077   3.312   3.082   3.495
 2266SOL    HW1 2078   3.303   3.072   3.594
 2266SOL    HW2 2079   3.408   3.075   3.469
 2267SOL     OW 2080   2.252   3.603   3.422
 2267SOL    HW1 2081   2.161   3.644   3.420
 2267SOL    HW2 2082   2.245   3.509   3.454
 2268SOL     OW 2083   3.536   2.745   3.116
 2268SOL    HW1 2084   3.509   2.656   3.079
 2268SOL    HW2 2085   3.537   2.813   3.043
 2269SOL     OW 2086   3.087   2.187   2.311
 2269SOL    HW1 2087   3.152   2.113   2.300
 2269SOL    HW2 2088   3.107   2.237   2.395
 2270SOL     OW 2089   3.639   2.204   3.504
 2270SOL    HW1 2090   3.622   2.235   3.410
 2270SOL    HW2 2091   3.555   2.167   3.542
 2271SOL     OW 2092   3.592   2.796   3.379
 2271SOL    HW1 2093   3.630   2.887   3.394
 2271SOL    HW2 2094   3.584   2.779   3.280
 2272SOL     OW 2095   2.721   3.236   1.878
 2272SOL    HW1 2096   2.675   3.251   1.966
 2272SOL    HW2 2097   2.765   3.321   1.848
 2273SOL     OW 2098   2.523   3.652   2.815
 2273SOL    HW1 2099   2.477   3.740   2.802
 2273SOL    HW2 2100   2.622   3.664   2.808
 2274SOL     OW 2101   2.721   2.818   2.723
 2274SOL    HW1 2102   2.775   2.749   2.771
 2274SOL    HW2 2103   2.689   2.887   2.789
 2275SOL     OW 2104   2.945   2.846   1.949
 2275SOL    HW1 2105   2.922   2.899   1.867
 2275SOL    HW2 2106   3.026   2.790   1.930
 2276SOL     OW 2107   3.723   3.431   2.713
 2276SOL    HW1 2108   3.652   3.419   2.643
 2276SOL    HW2 2109   3.724   3.352   2.773
 2277SOL     OW 2110   2.083   3.176   3.706
 2277SOL    HW1 2111   2.018   3.103   3.685
 2277SOL    HW2 2112   2.087   3.190   3.804
 2278SOL     OW 2113   1.941   3.102   2.515
 2278SOL    HW1 2114   1.940   3.055   2.603
 2278SOL    HW2 2115   2.023   3.074   2.464
 2279SOL     OW 2116   2.534   3.253   3.486
 2279SOL    HW1 2117   2.456   3.203   3.524
 2279SOL    HW2 2118   2.531   3.348   3.517
 2280SOL     OW 2119   3.686   2.054   3.089
 2280SOL    HW1 2120   3.682   1.964   3.133
 2280SOL    HW2 2121   3.689   2.043   2.990
 2281SOL     OW 2122   3.567   3.349   2.966
 2281SOL    HW1 2123   3.474   3.324   2.939
 2281SOL    HW2 2124   3.593   3.299   3.048
 2282SOL     OW 2125   2.179   2.409   3.142
 2282SOL    HW1 2126   2.217   2.350   3.214
 2282SOL    HW2 2127   2.219   2.383   3.054
 2283SOL     OW 2128   2.674   3.448   2.549
 2283SOL    HW1 2129   2.706   3.458   2.455
 2283SOL    HW2 2130   2.595   3.386   2.551
 2284SOL     OW 2131   3.286   2.076   2.974
 2284SOL    HW1 2132   3.338   2.011   3.029
 2284SOL    HW2 2133   3.237   2.139   3.035
 2285SOL     OW 2134   2.863   1.896   3.016
 2285SOL    HW1 2135   2.800   1.824   2.985
 2285SOL    HW2 2136   2.956   1.860   3.016
 2286SOL     OW 2137   2.632   3.192   2.163
 2286SOL    HW1 2138   2.586   3.105   2.180
 2286SOL    HW2 2139   2.723   3.189   2.204
 2287SOL     OW 2140   2.480   3.429   3.146
 2287SOL    HW1 2141   2.475   3.511   3.203
 2287SOL    HW2 2142   2.569   3.426   3.101
 2288SOL     OW 2143   3.214   1.914   2.030
 2288SOL    HW1 2144   3.249   1.873   1.946
 2288SOL    HW2 2145   3.124   1.876   2.050
 2289SOL     OW 2146   3.162   2.315   2.553
 2289SOL    HW1 2147   3.103   2.395   2.557
 2289SOL    HW2 2148   3.177   2.280   2.646
 2290SOL     OW 2149   3.455   2.083   2.744
 2290SOL    HW1 2150   3.371   2.082   2.798
 2290SOL    HW2 2151   3.457   2.166   2.688
 2291SOL     OW 2152   1.901   2.939   2.162
 2291SOL    HW1 2153   2.000   2.928   2.153
 2291SOL    HW2 2154   1.861   2.853   2.194
 2292SOL     OW 2155   2.737   3.508   2.199
 2292SOL    HW1 2156   2.660   3.473   2.145
 2292SOL    HW2 2157   2.705   3.579   2.261
 2293SOL     OW 2158   2.092   2.490   3.837
 2293SOL    HW1 2159   1.999   2.488   3.874
 2293SOL    HW2 2160   2.093   2.451   3.745
 2305SOL     OW 2161   2.468   2.826   3.847
 2305SOL    HW1 2162   2.475   2.910   3.793
 2305SOL    HW2 2163   2.514   2.839   3.935
 2316SOL     OW 2164   2.460   2.591   3.994
 2316SOL    HW1 2165   2.484   2.660   3.926
 2316SOL    HW2 2166   2.382   2.624   4.048
 2321SOL     OW 2167   2.727   2.210   3.919
 2321SOL    HW1 2168   2.786   2.273   3.870
 2321SOL    HW2 2169   2.746   2.116   3.890
 2327SOL     OW 2170   2.183   2.805   3.966
 2327SOL    HW1 2171   2.265   2.844   3.924
 2327SOL    HW2 2172   2.156   2.723   3.917
 2334SOL     OW 2173   2.476   1.984   3.841
 2334SOL    HW1 2174   2.574   1.962   3.848
 2334SOL    HW2 2175   2.445   1.967   3.748
 2337SOL     OW 2176   2.159   1.897   3.895
 2337SOL    HW1 2177   2.208   1.981   3.874
 2337SOL    HW2 2178   2.221   1.832   3.940
 2342SOL     OW 2179   2.894   2.411   3.740
 2342SOL    HW1 2180   2.853   2.493   3.701
 2342SOL    HW2 2181   2.958   2.437   3.813
 2346SOL     OW 2182   2.350   3.247   3.898
 2346SOL    HW1 2183   2.263   3.232   3.945
 2346SOL    HW2 2184   2.333   3.273   3.803
 2348SOL     OW 2185   3.252   2.437   3.802
 2348SOL    HW1 2186   3.198   2.416   3.883
 2348SOL    HW2 2187   3.343   2.396   3.811
 2349SOL     OW 2188   2.389   2.118   4.052
 2349SOL    HW1 2189   2.416   2.059   3.977
 2349SOL    HW2 2190   2.389   2.213   4.021
 2355SOL     OW 2191   3.071   2.387   3.999
 2355SOL    HW1 2192   3.084   2.303   4.053
 2355SOL    HW2 2193   3.042   2.461   4.059
 2360SOL     OW 2194   3.165   2.700   3.766
 2360SOL    HW1 2195   3.199   2.607   3.781
 2360SOL    HW2 2196   3.183   2.727   3.671
 2366SOL     OW 2197   2.677   2.434   4.049
 2366SOL    HW1 2198   2.684   2.345   4.003
 2366SOL    HW2 2199   2.583   2.468   4.041
 2367SOL     OW 2200   2.335   2.362   3.915
 2367SOL    HW1 2201   2.396   2.442   3.919
 2367SOL    HW2 2202   2.240   2.393   3.922
 2377SOL     OW 2203   2.778   2.772   4.015
 2377SOL    HW1 2204   2.841   2.810   3.947
 2377SOL    HW2 2205   2.818   2.689   4.054
 2382SOL     OW 2206   1.937   2.207   3.757
 2382SOL    HW1 2207   1.845   2.179   3.728
 2382SOL    HW2 2208   1.968   2.284   3.701
 2383SOL     OW 2209   1.934   2.028   4.042
 2383SOL    HW1 2210   1.917   2.111   3.988
 2383SOL    HW2 2211   2.024   1.991   4.020
 2388SOL     OW 2212   2.721   3.236   3.740
 2388SOL    HW1 2213   2.675   3.251   3.828
 2388SOL    HW2 2214   2.765   3.321   3.710
 2391SOL     OW 2215   2.945   2.846   3.811
 2391SOL    HW1 2216   2.922   2.899   3.729
 2391SOL    HW2 2217   3.026   2.790   3.792
 2418SOL     OW 2218   2.179   3.975   1.801
 2418SOL    HW1 2219   2.250   4.046   1.807
 2418SOL    HW2 2220   2.091   4.014   1.829
 2435SOL     OW 2221   2.643   3.988   1.749
 2435SOL    HW1 2222   2.710   3.927   1.792
 2435SOL    HW2 2223   2.570   4.007   1.814
 2452SOL     OW 2224   2.777   3.813   1.402
 2452SOL    HW1 2225   2.802   3.793   1.307
 2452SOL    HW2 2226   2.849   3.869   1.444
 2459SOL     OW 2227   2.875   3.829   1.770
 2459SOL    HW1 2228   2.881   3.914   1.718
 2459SOL    HW2 2229   2.907   3.753   1.713
 2460SOL     OW 2230   2.366   3.774   1.740
 2460SOL    HW1 2231   2.324   3.717   1.670
 2460SOL    HW2 2232   2.300   3.843   1.772
 2513SOL     OW 2233   2.087   3.999   2.858
 2513SOL    HW1 2234   2.122   3.982   2.950
 2513SOL    HW2 2235   1.999   3.954   2.846
 2525SOL     OW 2236   2.671   3.728   2.364
 2525SOL    HW1 2237   2.711   3.819   2.355
 2525SOL    HW2 2238   2.571   3.736   2.370
 2537SOL     OW 2239   2.727   4.072   2.057
 2537SOL    HW1 2240   2.786   4.135   2.008
 2537SOL    HW2 2241   2.746   3.978   2.028
 2539SOL     OW 2242   2.412   3.920   2.747
 2539SOL    HW1 2243   2.407   3.915   2.847
 2539SOL    HW2 2244   2.414   4.016   2.718
 2542SOL     OW 2245   3.262   3.831   2.288
 2542SOL    HW1 2246   3.238   3.794   2.198
 2542SOL    HW2 2247   3.361   3.847   2.292
 2545SOL     OW 2248   2.476   3.846   1.979
 2545SOL    HW1 2249   2.574   3.824   1.986
 2545SOL    HW2 2250   2.445   3.829   1.886
 2549SOL     OW 2251   2.401   3.788   2.374
 2549SOL    HW1 2252   2.320   3.789   2.432
 2549SOL    HW2 2253   2.404   3.871   2.319
 2550SOL     OW 2254   2.159   3.759   2.033
 2550SOL    HW1 2255   2.208   3.843   2.012
 2550SOL    HW2 2256   2.221   3.694   2.078
 2551SOL     OW 2257   2.797   3.960   2.342
 2551SOL    HW1 2258   2.749   4.001   2.264
 2551SOL    HW2 2259   2.896   3.958   2.323
 2555SOL     OW 2260   2.423   3.946   3.009
 2555SOL    HW1 2261   2.461   3.862   3.046
 2555SOL    HW2 2262   2.335   3.965   3.053
 2557SOL     OW 2263   2.879   3.763   2.615
 2557SOL    HW1 2264   2.807   3.768   2.546
 2557SOL    HW2 2265   2.855   3.694   2.684
 2561SOL     OW 2266   2.389   3.980   2.190
 2561SOL    HW1 2267   2.416   3.921   2.115
 2561SOL    HW2 2268   2.389   4.075   2.159
 2563SOL     OW 2269   2.777   3.813   3.264
 2563SOL    HW1 2270   2.802   3.793   3.169
 2563SOL    HW2 2271   2.849   3.869   3.306
 2575SOL     OW 2272   2.169   3.937   3.093
 2575SOL    HW1 2273   2.146   3.974   3.183
 2575SOL    HW2 2274   2.139   3.842   3.087
 2578SOL     OW 2275   2.169   3.787   2.480
 2578SOL    HW1 2276   2.158   3.881   2.513
 2578SOL    HW2 2277   2.164   3.724   2.557
 2600SOL     OW 2278   2.125   4.050   2.582
 2600SOL    HW1 2279   2.046   4.101   2.548
 2600SOL    HW2 2280   2.116   4.035   2.680
 2602SOL     OW 2281   2.876   3.960   2.833
 2602SOL    HW1 2282   2.868   3.924   2.740
 2602SOL    HW2 2283   2.874   3.884   2.898
 2608SOL     OW 2284   1.934   3.890   2.180
 2608SOL    HW1 2285   1.917   3.973   2.126
 2608SOL    HW2 2286   2.024   3.853   2.158
 2617SOL     OW 2287   2.290   4.148   2.382
 2617SOL    HW1 2288   2.320   4.076   2.320
 2617SOL    HW2 2289   2.251   4.108   2.465
 2620SOL     OW 2290   2.863   3.758   3.016
 2620SOL    HW1 2291   2.800   3.686   2.985
 2620SOL    HW2 2292   2.956   3.722   3.016
 2621SOL     OW 2293   3.214   3.776   2.030
 2621SOL    HW1 2294   3.249   3.735   1.946
 2621SOL    HW2 2295   3.124   3.738   2.050
 2707SOL     OW 2296   3.854   1.821   1.571
 2707SOL    HW1 2297   3.844   1.806   1.670
 2707SOL    HW2 2298   3.768   1.857   1.535
 2764SOL     OW 2299   3.854   1.794   1.851
 2764SOL    HW1 2300   3.813   1.720   1.904
 2764SOL    HW2 2301   3.918   1.845   1.909
 2803SOL     OW 2302   3.955   1.713   2.345
 2803SOL    HW1 2303   3.989   1.790   2.399
 2803SOL    HW2 2304   3.999   1.713   2.255
 2809SOL     OW 2305   3.751   1.596   1.979
 2809SOL    HW1 2306   3.732   1.500   2.000
 2809SOL    HW2 2307   3.718   1.654   2.054
 2862SOL     OW 2308   3.732   1.326   2.062
 2862SOL    HW1 2309   3.639   1.347   2.031
 2862SOL    HW2 2310   3.742   1.227   2.075
 2863SOL     OW 2311   3.812   1.801   2.789
 2863SOL    HW1 2312   3.770   1.715   2.762
 2863SOL    HW2 2313   3.906   1.804   2.755
 2981SOL     OW 2314   3.837   2.599   1.597
 2981SOL    HW1 2315   3.925   2.586   1.642
 2981SOL    HW2 2316   3.824   2.696   1.575
 2985SOL     OW 2317   4.041   2.113   1.801
 2985SOL    HW1 2318   4.112   2.184   1.807
 2985SOL    HW2 2319   3.953   2.152   1.829
 3008SOL     OW 2320   3.802   2.418   1.386
 3008SOL    HW1 2321   3.894   2.417   1.345
 3008SOL    HW2 2322   3.796   2.492   1.453
 3037SOL     OW 2323   3.913   2.382   1.722
 3037SOL    HW1 2324   3.972   2.342   1.652
 3037SOL    HW2 2325   3.855   2.453   1.681
 3055SOL     OW 2326   3.829   2.875   1.726
 3055SOL    HW1 2327   3.752   2.842   1.780
 3055SOL    HW2 2328   3.914   2.845   1.768
 3077SOL     OW 2329   3.954   2.490   1.975
 3077SOL    HW1 2330   3.861   2.488   2.012
 3077SOL    HW2 2331   3.955   2.451   1.883
 3078SOL     OW 2332   3.949   2.137   2.858
 3078SOL    HW1 2333   3.984   2.120   2.950
 3078SOL    HW2 2334   3.861   2.092   2.846
 3079SOL     OW 2335   3.743   2.230   2.509
 3079SOL    HW1 2336   3.661   2.273   2.548
 3079SOL    HW2 2337   3.715   2.157   2.446
 3089SOL     OW 2338   3.964   2.953   2.748
 3089SOL    HW1 2339   3.978   2.869   2.800
 3089SOL    HW2 2340   3.909   3.017   2.803
 3092SOL     OW 2341   3.846   2.505   2.425
 3092SOL    HW1 2342   3.801   2.417   2.442
 3092SOL    HW2 2343   3.845   2.559   2.509
 3102SOL     OW 2344   3.800   2.673   2.651
 3102SOL    HW1 2345   3.899   2.661   2.660
 3102SOL    HW2 2346   3.776   2.768   2.672
 3108SOL     OW 2347   4.045   2.805   2.104
 3108SOL    HW1 2348   4.127   2.844   2.062
 3108SOL    HW2 2349   4.018   2.723   2.055
 3113SOL     OW 2350   4.106   2.562   2.342
 3113SOL    HW1 2351   4.151   2.472   2.339
 3113SOL    HW2 2352   4.012   2.551   2.375
 3119SOL     OW 2353   4.021   1.897   2.033
 3119SOL    HW1 2354   4.070   1.981   2.012
 3119SOL    HW2 2355   4.083   1.832   2.078
 3122SOL     OW 2356   3.802   2.418   3.248
 3122SOL    HW1 2357   3.894   2.417   3.207
 3122SOL    HW2 2358   3.796   2.492   3.315
 3138SOL     OW 2359   3.761   3.172   3.144
 3138SOL    HW1 2360   3.814   3.123   3.212
 3138SOL    HW2 2361   3.783   3.270   3.149
 3140SOL     OW 2362   4.031   1.925   2.480
 3140SOL    HW1 2363   4.020   2.019   2.513
 3140SOL    HW2 2364   4.026   1.862   2.557
 3144SOL     OW 2365   4.043   2.672   2.811
 3144SOL    HW1 2366   4.136   2.708   2.816
 3144SOL    HW2 2367   4.037   2.587   2.863
 3145SOL     OW 2368   4.063   2.371   2.868
 3145SOL    HW1 2369   4.011   2.288   2.851
 3145SOL    HW2 2370   4.140   2.376   2.804
 3146SOL     OW 2371   3.732   3.188   2.062
 3146SOL    HW1 2372   3.639   3.209   2.031
 3146SOL    HW2 2373   3.742   3.089   2.075
 3150SOL     OW 2374   3.764   2.406   2.976
 3150SOL    HW1 2375   3.849   2.373   2.935
 3150SOL    HW2 2376   3.777   2.421   3.074
 3157SOL     OW 2377   3.807   3.120   2.884
 3157SOL    HW1 2378   3.802   3.119   2.984
 3157SOL    HW2 2379   3.724   3.079   2.846
 3163SOL     OW 2380   3.987   2.188   2.582
 3163SOL    HW1 2381   3.908   2.239   2.548
 3163SOL    HW2 2382   3.978   2.173   2.680
 3170SOL     OW 2383   3.799   2.207   1.895
 3170SOL    HW1 2384   3.707   2.179   1.866
 3170SOL    HW2 2385   3.830   2.284   1.839
 3171SOL     OW 2386   3.796   2.028   2.180
 3171SOL    HW1 2387   3.779   2.111   2.126
 3171SOL    HW2 2388   3.886   1.991   2.158
 3180SOL     OW 2389   3.803   3.102   2.515
 3180SOL    HW1 2390   3.802   3.055   2.603
 3180SOL    HW2 2391   3.885   3.074   2.464
 3182SOL     OW 2392   4.152   2.286   2.382
 3182SOL    HW1 2393   4.182   2.214   2.320
 3182SOL    HW2 2394   4.113   2.246   2.465
 3188SOL     OW 2395   3.763   2.939   2.162
 3188SOL    HW1 2396   3.862   2.928   2.153
 3188SOL    HW2 2397   3.723   2.853   2.194
   4.72178   4.72178   4.72178
