mobley_5631798_GMX.gro created by acpype (v: 2023.10.27) on Tue May 19 12:52:49 2026
 2416
    1MOL     N1    1   2.062   2.079   2.059
    1MOL     H1    2   2.018   2.108   2.146
    1MOL     H2    3   2.135   2.148   2.040
    1MOL     H3    4   2.111   1.992   2.080
    6SOL     OW    5   1.555   1.511   0.703
    6SOL    HW1    6   1.498   1.495   0.784
    6SOL    HW2    7   1.496   1.521   0.623
   10SOL     OW    8   0.850   0.798   1.823
   10SOL    HW1    9   0.846   0.874   1.888
   10SOL    HW2   10   0.872   0.834   1.732
   12SOL     OW   11   0.686   1.161   1.803
   12SOL    HW1   12   0.746   1.240   1.817
   12SOL    HW2   13   0.600   1.192   1.762
   14SOL     OW   14   1.460   1.505   1.339
   14SOL    HW1   15   1.484   1.599   1.365
   14SOL    HW2   16   1.444   1.451   1.421
   18SOL     OW   17   1.127   1.341   1.690
   18SOL    HW1   18   1.174   1.341   1.778
   18SOL    HW2   19   1.079   1.254   1.679
   21SOL     OW   20   0.620   1.786   1.439
   21SOL    HW1   21   0.528   1.769   1.474
   21SOL    HW2   22   0.648   1.878   1.465
   25SOL     OW   23   1.842   1.767   0.359
   25SOL    HW1   24   1.896   1.738   0.439
   25SOL    HW2   25   1.872   1.857   0.330
   31SOL     OW   26   1.293   1.228   1.423
   31SOL    HW1   27   1.330   1.155   1.365
   31SOL    HW2   28   1.345   1.233   1.508
   35SOL     OW   29   1.187   1.792   1.616
   35SOL    HW1   30   1.211   1.852   1.540
   35SOL    HW2   31   1.194   1.697   1.586
   37SOL     OW   32   1.466   1.417   0.953
   37SOL    HW1   33   1.407   1.423   1.033
   37SOL    HW2   34   1.451   1.329   0.907
   38SOL     OW   35   1.667   1.714   0.572
   38SOL    HW1   36   1.626   1.691   0.484
   38SOL    HW2   37   1.649   1.640   0.637
   43SOL     OW   38   1.394   0.469   1.674
   43SOL    HW1   39   1.374   0.512   1.762
   43SOL    HW2   40   1.472   0.407   1.683
   44SOL     OW   41   0.973   0.890   1.572
   44SOL    HW1   42   1.019   0.806   1.543
   44SOL    HW2   43   0.917   0.924   1.497
   50SOL     OW   44   1.719   0.585   1.831
   50SOL    HW1   45   1.693   0.674   1.795
   50SOL    HW2   46   1.717   0.517   1.758
   55SOL     OW   47   1.795   1.066   0.873
   55SOL    HW1   48   1.733   1.051   0.797
   55SOL    HW2   49   1.743   1.077   0.958
   56SOL     OW   50   1.227   1.550   1.506
   56SOL    HW1   51   1.233   1.473   1.570
   56SOL    HW2   52   1.175   1.524   1.426
   66SOL     OW   53   0.940   1.698   0.904
   66SOL    HW1   54   1.020   1.641   0.925
   66SOL    HW2   55   0.891   1.658   0.827
   71SOL     OW   56   0.888   1.514   1.195
   71SOL    HW1   57   0.865   1.489   1.101
   71SOL    HW2   58   0.949   1.445   1.234
   72SOL     OW   59   1.351   0.590   1.433
   72SOL    HW1   60   1.379   0.547   1.518
   72SOL    HW2   61   1.376   0.686   1.434
   80SOL     OW   62   1.227   1.570   0.793
   80SOL    HW1   63   1.248   1.644   0.728
   80SOL    HW2   64   1.295   1.570   0.866
   82SOL     OW   65   1.271   1.797   0.591
   82SOL    HW1   66   1.315   1.861   0.527
   82SOL    HW2   67   1.221   1.849   0.661
   88SOL     OW   68   1.429   1.173   0.867
   88SOL    HW1   69   1.374   1.089   0.860
   88SOL    HW2   70   1.455   1.202   0.775
   92SOL     OW   71   1.664   1.280   0.657
   92SOL    HW1   72   1.763   1.288   0.671
   92SOL    HW2   73   1.619   1.364   0.688
   95SOL     OW   74   1.754   1.223   1.588
   95SOL    HW1   75   1.845   1.184   1.575
   95SOL    HW2   76   1.762   1.319   1.612
   96SOL     OW   77   1.064   1.347   1.340
   96SOL    HW1   78   0.984   1.324   1.395
   96SOL    HW2   79   1.147   1.321   1.389
   97SOL     OW   80   1.592   1.629   1.625
   97SOL    HW1   81   1.619   1.663   1.535
   97SOL    HW2   82   1.671   1.591   1.671
   98SOL     OW   83   1.111   1.195   1.100
   98SOL    HW1   84   1.071   1.239   1.181
   98SOL    HW2   85   1.070   1.232   1.017
   99SOL     OW   86   1.638   1.099   1.079
   99SOL    HW1   87   1.643   1.180   1.138
   99SOL    HW2   88   1.552   1.101   1.028
  101SOL     OW   89   0.980   1.116   1.719
  101SOL    HW1   90   0.881   1.122   1.729
  101SOL    HW2   91   1.003   1.036   1.663
  109SOL     OW   92   1.272   1.445   1.142
  109SOL    HW1   93   1.319   1.458   1.229
  109SOL    HW2   94   1.206   1.371   1.151
  113SOL     OW   95   1.587   0.779   1.670
  113SOL    HW1   96   1.495   0.817   1.665
  113SOL    HW2   97   1.647   0.826   1.605
  117SOL     OW   98   1.360   0.862   1.045
  117SOL    HW1   99   1.285   0.862   0.979
  117SOL    HW2  100   1.397   0.770   1.054
  122SOL     OW  101   1.728   0.935   1.854
  122SOL    HW1  102   1.682   0.928   1.765
  122SOL    HW2  103   1.666   0.979   1.920
  126SOL     OW  104   0.980   1.573   1.700
  126SOL    HW1  105   0.960   1.617   1.612
  126SOL    HW2  106   1.019   1.482   1.684
  127SOL     OW  107   1.859   1.518   1.605
  127SOL    HW1  108   1.873   1.545   1.510
  127SOL    HW2  109   1.942   1.540   1.658
  131SOL     OW  110   1.068   1.333   0.849
  131SOL    HW1  111   1.075   1.249   0.794
  131SOL    HW2  112   1.130   1.402   0.813
  142SOL     OW  113   1.369   0.950   1.660
  142SOL    HW1  114   1.408   1.039   1.680
  142SOL    HW2  115   1.379   0.930   1.563
  144SOL     OW  116   1.657   0.604   1.206
  144SOL    HW1  117   1.619   0.535   1.268
  144SOL    HW2  118   1.739   0.568   1.162
  147SOL     OW  119   0.930   1.678   1.465
  147SOL    HW1  120   0.906   1.660   1.370
  147SOL    HW2  121   0.960   1.772   1.475
  150SOL     OW  122   1.347   1.059   1.234
  150SOL    HW1  123   1.371   0.996   1.160
  150SOL    HW2  124   1.257   1.099   1.216
  152SOL     OW  125   1.759   1.747   1.154
  152SOL    HW1  126   1.820   1.777   1.081
  152SOL    HW2  127   1.721   1.658   1.132
  153SOL     OW  128   1.252   1.731   1.128
  153SOL    HW1  129   1.336   1.736   1.074
  153SOL    HW2  130   1.229   1.635   1.146
  155SOL     OW  131   0.688   1.662   1.716
  155SOL    HW1  132   0.632   1.743   1.725
  155SOL    HW2  133   0.740   1.666   1.630
  161SOL     OW  134   0.830   1.273   1.422
  161SOL    HW1  135   0.825   1.306   1.517
  161SOL    HW2  136   0.744   1.292   1.376
  163SOL     OW  137   1.650   1.720   1.394
  163SOL    HW1  138   1.703   1.730   1.310
  163SOL    HW2  139   1.623   1.810   1.428
  171SOL     OW  140   1.614   1.292   1.289
  171SOL    HW1  141   1.674   1.295   1.369
  171SOL    HW2  142   1.539   1.356   1.302
  180SOL     OW  143   1.440   0.856   1.398
  180SOL    HW1  144   1.383   0.908   1.335
  180SOL    HW2  145   1.536   0.868   1.374
  184SOL     OW  146   1.493   1.767   0.959
  184SOL    HW1  147   1.526   1.831   0.890
  184SOL    HW2  148   1.559   1.761   1.034
  186SOL     OW  149   1.450   1.220   1.633
  186SOL    HW1  150   1.441   1.210   1.732
  186SOL    HW2  151   1.546   1.213   1.607
  188SOL     OW  152   1.674   0.883   1.254
  188SOL    HW1  153   1.647   0.794   1.217
  188SOL    HW2  154   1.675   0.951   1.181
  192SOL     OW  155   1.730   0.934   1.517
  192SOL    HW1  156   1.768   1.025   1.532
  192SOL    HW2  157   1.722   0.917   1.418
  197SOL     OW  158   1.861   1.569   0.851
  197SOL    HW1  159   1.790   1.557   0.781
  197SOL    HW2  160   1.862   1.490   0.911
  200SOL     OW  161   0.672   1.391   1.624
  200SOL    HW1  162   0.594   1.341   1.662
  200SOL    HW2  163   0.669   1.486   1.655
  203SOL     OW  164   1.705   1.487   1.104
  203SOL    HW1  165   1.612   1.462   1.077
  203SOL    HW2  166   1.731   1.437   1.186
  209SOL     OW  167   0.618   1.567   1.284
  209SOL    HW1  168   0.613   1.649   1.341
  209SOL    HW2  169   0.707   1.564   1.239
  219SOL     OW  170   1.555   1.511   2.565
  219SOL    HW1  171   1.498   1.495   2.646
  219SOL    HW2  172   1.496   1.521   2.485
  220SOL     OW  173   1.135   0.703   2.579
  220SOL    HW1  174   1.192   0.781   2.554
  220SOL    HW2  175   1.075   0.729   2.655
  221SOL     OW  176   1.755   0.607   2.093
  221SOL    HW1  177   1.743   0.594   1.994
  221SOL    HW2  178   1.725   0.526   2.142
  227SOL     OW  179   1.460   1.505   3.201
  227SOL    HW1  180   1.484   1.599   3.227
  227SOL    HW2  181   1.444   1.451   3.283
  229SOL     OW  182   1.603   0.447   2.599
  229SOL    HW1  183   1.529   0.493   2.549
  229SOL    HW2  184   1.654   0.515   2.652
  238SOL     OW  185   1.842   1.767   2.221
  238SOL    HW1  186   1.896   1.738   2.301
  238SOL    HW2  187   1.872   1.857   2.192
  240SOL     OW  188   1.689   0.922   2.474
  240SOL    HW1  189   1.784   0.893   2.482
  240SOL    HW2  190   1.681   0.987   2.399
  241SOL     OW  191   1.641   1.108   2.294
  241SOL    HW1  192   1.727   1.110   2.242
  241SOL    HW2  193   1.655   1.155   2.382
  243SOL     OW  194   0.613   1.365   2.588
  243SOL    HW1  195   0.564   1.278   2.597
  243SOL    HW2  196   0.590   1.408   2.501
  244SOL     OW  197   1.293   1.228   3.285
  244SOL    HW1  198   1.330   1.155   3.227
  244SOL    HW2  199   1.345   1.233   3.370
  247SOL     OW  200   1.525   0.999   2.052
  247SOL    HW1  201   1.462   0.923   2.065
  247SOL    HW2  202   1.573   1.017   2.138
  248SOL     OW  203   1.187   1.792   3.478
  248SOL    HW1  204   1.211   1.852   3.402
  248SOL    HW2  205   1.194   1.697   3.448
  250SOL     OW  206   1.466   1.417   2.815
  250SOL    HW1  207   1.407   1.423   2.895
  250SOL    HW2  208   1.451   1.329   2.769
  251SOL     OW  209   1.667   1.714   2.434
  251SOL    HW1  210   1.626   1.691   2.346
  251SOL    HW2  211   1.649   1.640   2.499
  254SOL     OW  212   1.576   1.662   2.169
  254SOL    HW1  213   1.665   1.708   2.172
  254SOL    HW2  214   1.555   1.638   2.074
  259SOL     OW  215   1.041   0.701   2.291
  259SOL    HW1  216   1.067   0.697   2.387
  259SOL    HW2  217   0.956   0.650   2.277
  264SOL     OW  218   1.362   1.144   2.407
  264SOL    HW1  219   1.445   1.115   2.359
  264SOL    HW2  220   1.313   1.211   2.351
  266SOL     OW  221   1.008   1.456   2.339
  266SOL    HW1  222   0.962   1.528   2.287
  266SOL    HW2  223   1.004   1.476   2.437
  268SOL     OW  224   1.795   1.066   2.735
  268SOL    HW1  225   1.733   1.051   2.659
  268SOL    HW2  226   1.743   1.077   2.820
  269SOL     OW  227   1.227   1.550   3.368
  269SOL    HW1  228   1.233   1.473   3.432
  269SOL    HW2  229   1.175   1.524   3.288
  271SOL     OW  230   1.458   0.735   2.590
  271SOL    HW1  231   1.453   0.670   2.665
  271SOL    HW2  232   1.538   0.794   2.603
  273SOL     OW  233   1.111   1.776   2.099
  273SOL    HW1  234   1.051   1.714   2.149
  273SOL    HW2  235   1.142   1.732   2.014
  275SOL     OW  236   1.632   1.377   1.943
  275SOL    HW1  237   1.600   1.471   1.933
  275SOL    HW2  238   1.556   1.314   1.931
  276SOL     OW  239   0.464   1.743   2.185
  276SOL    HW1  240   0.497   1.782   2.271
  276SOL    HW2  241   0.540   1.736   2.120
  279SOL     OW  242   0.940   1.698   2.766
  279SOL    HW1  243   1.020   1.641   2.787
  279SOL    HW2  244   0.891   1.658   2.689
  284SOL     OW  245   0.888   1.514   3.057
  284SOL    HW1  246   0.865   1.489   2.963
  284SOL    HW2  247   0.949   1.445   3.096
  286SOL     OW  248   0.803   1.402   2.786
  286SOL    HW1  249   0.893   1.416   2.744
  286SOL    HW2  250   0.732   1.404   2.715
  289SOL     OW  251   1.434   1.188   1.903
  289SOL    HW1  252   1.466   1.112   1.960
  289SOL    HW2  253   1.342   1.215   1.933
  293SOL     OW  254   1.227   1.570   2.655
  293SOL    HW1  255   1.248   1.644   2.590
  293SOL    HW2  256   1.295   1.570   2.728
  295SOL     OW  257   1.271   1.797   2.453
  295SOL    HW1  258   1.315   1.861   2.389
  295SOL    HW2  259   1.221   1.849   2.523
  301SOL     OW  260   1.429   1.173   2.729
  301SOL    HW1  261   1.374   1.089   2.722
  301SOL    HW2  262   1.455   1.202   2.637
  302SOL     OW  263   1.466   0.590   2.854
  302SOL    HW1  264   1.436   0.495   2.861
  302SOL    HW2  265   1.539   0.606   2.920
  303SOL     OW  266   1.857   0.833   2.239
  303SOL    HW1  267   1.899   0.769   2.303
  303SOL    HW2  268   1.819   0.782   2.161
  304SOL     OW  269   0.488   1.385   2.036
  304SOL    HW1  270   0.401   1.370   2.083
  304SOL    HW2  271   0.471   1.411   1.941
  305SOL     OW  272   1.664   1.280   2.519
  305SOL    HW1  273   1.763   1.288   2.533
  305SOL    HW2  274   1.619   1.364   2.550
  306SOL     OW  275   1.390   0.575   1.940
  306SOL    HW1  276   1.336   0.554   2.021
  306SOL    HW2  277   1.481   0.534   1.949
  308SOL     OW  278   1.754   1.223   3.450
  308SOL    HW1  279   1.845   1.184   3.437
  308SOL    HW2  280   1.762   1.319   3.474
  309SOL     OW  281   1.064   1.347   3.202
  309SOL    HW1  282   0.984   1.324   3.257
  309SOL    HW2  283   1.147   1.321   3.251
  310SOL     OW  284   1.592   1.629   3.487
  310SOL    HW1  285   1.619   1.663   3.397
  310SOL    HW2  286   1.671   1.591   3.533
  311SOL     OW  287   1.111   1.195   2.962
  311SOL    HW1  288   1.071   1.239   3.043
  311SOL    HW2  289   1.070   1.232   2.879
  312SOL     OW  290   1.638   1.099   2.941
  312SOL    HW1  291   1.643   1.180   3.000
  312SOL    HW2  292   1.552   1.101   2.890
  315SOL     OW  293   0.705   1.050   2.230
  315SOL    HW1  294   0.691   1.057   2.329
  315SOL    HW2  295   0.789   0.999   2.212
  321SOL     OW  296   1.252   1.348   2.250
  321SOL    HW1  297   1.302   1.425   2.290
  321SOL    HW2  298   1.157   1.350   2.282
  322SOL     OW  299   1.272   1.445   3.004
  322SOL    HW1  300   1.319   1.458   3.091
  322SOL    HW2  301   1.206   1.371   3.013
  323SOL     OW  302   1.582   0.639   2.334
  323SOL    HW1  303   1.551   0.700   2.407
  323SOL    HW2  304   1.632   0.691   2.265
  330SOL     OW  305   1.360   0.862   2.907
  330SOL    HW1  306   1.285   0.862   2.841
  330SOL    HW2  307   1.397   0.770   2.916
  331SOL     OW  308   1.209   0.525   2.137
  331SOL    HW1  309   1.222   0.441   2.191
  331SOL    HW2  310   1.180   0.599   2.197
  337SOL     OW  311   1.622   0.367   2.236
  337SOL    HW1  312   1.624   0.291   2.300
  337SOL    HW2  313   1.574   0.444   2.276
  340SOL     OW  314   1.859   1.518   3.467
  340SOL    HW1  315   1.873   1.545   3.372
  340SOL    HW2  316   1.942   1.540   3.520
  343SOL     OW  317   1.303   0.838   1.904
  343SOL    HW1  318   1.337   0.745   1.919
  343SOL    HW2  319   1.321   0.865   1.809
  344SOL     OW  320   1.068   1.333   2.711
  344SOL    HW1  321   1.075   1.249   2.656
  344SOL    HW2  322   1.130   1.402   2.675
  351SOL     OW  323   0.504   1.568   2.772
  351SOL    HW1  324   0.570   1.642   2.781
  351SOL    HW2  325   0.548   1.489   2.730
  360SOL     OW  326   0.930   1.678   3.327
  360SOL    HW1  327   0.906   1.660   3.232
  360SOL    HW2  328   0.960   1.772   3.337
  363SOL     OW  329   1.347   1.059   3.096
  363SOL    HW1  330   1.371   0.996   3.022
  363SOL    HW2  331   1.257   1.099   3.078
  364SOL     OW  332   1.302   0.855   2.171
  364SOL    HW1  333   1.216   0.824   2.213
  364SOL    HW2  334   1.298   0.841   2.072
  365SOL     OW  335   1.759   1.747   3.016
  365SOL    HW1  336   1.820   1.777   2.943
  365SOL    HW2  337   1.721   1.658   2.994
  366SOL     OW  338   1.252   1.731   2.990
  366SOL    HW1  339   1.336   1.736   2.936
  366SOL    HW2  340   1.229   1.635   3.008
  370SOL     OW  341   1.388   1.573   2.339
  370SOL    HW1  342   1.455   1.585   2.265
  370SOL    HW2  343   1.348   1.662   2.362
  372SOL     OW  344   1.280   0.927   2.534
  372SOL    HW1  345   1.340   0.846   2.536
  372SOL    HW2  346   1.320   0.996   2.474
  374SOL     OW  347   0.672   1.616   2.016
  374SOL    HW1  348   0.681   1.626   1.917
  374SOL    HW2  349   0.632   1.527   2.037
  375SOL     OW  350   1.650   1.720   3.256
  375SOL    HW1  351   1.703   1.730   3.172
  375SOL    HW2  352   1.623   1.810   3.290
  378SOL     OW  353   1.194   1.612   1.893
  378SOL    HW1  354   1.200   1.519   1.930
  378SOL    HW2  355   1.135   1.612   1.813
  380SOL     OW  356   0.916   0.910   2.153
  380SOL    HW1  357   0.979   0.948   2.085
  380SOL    HW2  358   0.956   0.827   2.192
  381SOL     OW  359   1.504   1.607   1.906
  381SOL    HW1  360   1.412   1.644   1.913
  381SOL    HW2  361   1.542   1.627   1.816
  383SOL     OW  362   1.614   1.292   3.151
  383SOL    HW1  363   1.674   1.295   3.231
  383SOL    HW2  364   1.539   1.356   3.164
  384SOL     OW  365   1.039   1.098   2.558
  384SOL    HW1  366   0.969   1.051   2.612
  384SOL    HW2  367   1.098   1.030   2.515
  386SOL     OW  368   0.590   1.487   2.353
  386SOL    HW1  369   0.632   1.429   2.283
  386SOL    HW2  370   0.546   1.566   2.309
  394SOL     OW  371   1.183   1.335   1.981
  394SOL    HW1  372   1.084   1.324   1.983
  394SOL    HW2  373   1.217   1.350   2.074
  396SOL     OW  374   1.493   1.767   2.821
  396SOL    HW1  375   1.526   1.831   2.752
  396SOL    HW2  376   1.559   1.761   2.896
  398SOL     OW  377   1.450   1.220   3.495
  398SOL    HW1  378   1.441   1.210   3.594
  398SOL    HW2  379   1.546   1.213   3.469
  400SOL     OW  380   1.674   0.883   3.116
  400SOL    HW1  381   1.647   0.794   3.079
  400SOL    HW2  382   1.675   0.951   3.043
  404SOL     OW  383   1.730   0.934   3.379
  404SOL    HW1  384   1.768   1.025   3.394
  404SOL    HW2  385   1.722   0.917   3.280
  405SOL     OW  386   0.859   1.374   1.878
  405SOL    HW1  387   0.813   1.389   1.966
  405SOL    HW2  388   0.903   1.459   1.848
  406SOL     OW  389   0.661   1.790   2.815
  406SOL    HW1  390   0.615   1.878   2.802
  406SOL    HW2  391   0.760   1.802   2.808
  407SOL     OW  392   0.859   0.956   2.723
  407SOL    HW1  393   0.913   0.887   2.771
  407SOL    HW2  394   0.827   1.025   2.789
  408SOL     OW  395   1.083   0.984   1.949
  408SOL    HW1  396   1.060   1.037   1.867
  408SOL    HW2  397   1.164   0.928   1.930
  409SOL     OW  398   1.861   1.569   2.713
  409SOL    HW1  399   1.790   1.557   2.643
  409SOL    HW2  400   1.862   1.490   2.773
  415SOL     OW  401   1.705   1.487   2.966
  415SOL    HW1  402   1.612   1.462   2.939
  415SOL    HW2  403   1.731   1.437   3.048
  417SOL     OW  404   0.812   1.586   2.549
  417SOL    HW1  405   0.844   1.596   2.455
  417SOL    HW2  406   0.733   1.524   2.551
  420SOL     OW  407   0.770   1.330   2.163
  420SOL    HW1  408   0.724   1.243   2.180
  420SOL    HW2  409   0.861   1.327   2.204
  426SOL     OW  410   0.875   1.646   2.199
  426SOL    HW1  411   0.798   1.611   2.145
  426SOL    HW2  412   0.843   1.717   2.261
  479SOL     OW  413   1.135   2.565   0.717
  479SOL    HW1  414   1.192   2.643   0.692
  479SOL    HW2  415   1.075   2.591   0.793
  482SOL     OW  416   0.850   2.660   1.823
  482SOL    HW1  417   0.846   2.736   1.888
  482SOL    HW2  418   0.872   2.696   1.732
  484SOL     OW  419   0.686   3.023   1.803
  484SOL    HW1  420   0.746   3.102   1.817
  484SOL    HW2  421   0.600   3.054   1.762
  486SOL     OW  422   1.460   3.367   1.339
  486SOL    HW1  423   1.484   3.461   1.365
  486SOL    HW2  424   1.444   3.313   1.421
  487SOL     OW  425   0.438   2.254   1.499
  487SOL    HW1  426   0.520   2.198   1.508
  487SOL    HW2  427   0.357   2.196   1.503
  488SOL     OW  428   1.603   2.309   0.737
  488SOL    HW1  429   1.529   2.355   0.687
  488SOL    HW2  430   1.654   2.377   0.790
  490SOL     OW  431   1.127   3.203   1.690
  490SOL    HW1  432   1.174   3.203   1.778
  490SOL    HW2  433   1.079   3.116   1.679
  495SOL     OW  434   1.594   1.976   1.480
  495SOL    HW1  435   1.576   2.043   1.408
  495SOL    HW2  436   1.591   2.022   1.569
  499SOL     OW  437   1.689   2.784   0.612
  499SOL    HW1  438   1.784   2.755   0.620
  499SOL    HW2  439   1.681   2.849   0.537
  503SOL     OW  440   1.293   3.090   1.423
  503SOL    HW1  441   1.330   3.017   1.365
  503SOL    HW2  442   1.345   3.095   1.508
  508SOL     OW  443   0.317   2.113   1.801
  508SOL    HW1  444   0.388   2.184   1.807
  508SOL    HW2  445   0.229   2.152   1.829
  509SOL     OW  446   1.466   3.279   0.953
  509SOL    HW1  447   1.407   3.285   1.033
  509SOL    HW2  448   1.451   3.191   0.907
  512SOL     OW  449   1.281   2.207   0.944
  512SOL    HW1  450   1.195   2.157   0.931
  512SOL    HW2  451   1.343   2.153   1.000
  514SOL     OW  452   0.807   2.467   1.465
  514SOL    HW1  453   0.760   2.464   1.554
  514SOL    HW2  454   0.756   2.412   1.399
  515SOL     OW  455   1.394   2.331   1.674
  515SOL    HW1  456   1.374   2.374   1.762
  515SOL    HW2  457   1.472   2.269   1.683
  516SOL     OW  458   0.973   2.752   1.572
  516SOL    HW1  459   1.019   2.668   1.543
  516SOL    HW2  460   0.917   2.786   1.497
  517SOL     OW  461   0.991   2.272   1.242
  517SOL    HW1  462   0.914   2.306   1.296
  517SOL    HW2  463   0.957   2.221   1.163
  522SOL     OW  464   1.719   2.447   1.831
  522SOL    HW1  465   1.693   2.536   1.795
  522SOL    HW2  466   1.717   2.379   1.758
  527SOL     OW  467   1.795   2.928   0.873
  527SOL    HW1  468   1.733   2.913   0.797
  527SOL    HW2  469   1.743   2.939   0.958
  528SOL     OW  470   1.227   3.412   1.506
  528SOL    HW1  471   1.233   3.335   1.570
  528SOL    HW2  472   1.175   3.386   1.426
  530SOL     OW  473   1.458   2.597   0.728
  530SOL    HW1  474   1.453   2.532   0.803
  530SOL    HW2  475   1.538   2.656   0.741
  536SOL     OW  476   1.400   1.969   0.426
  536SOL    HW1  477   1.376   1.932   0.336
  536SOL    HW2  478   1.499   1.985   0.430
  540SOL     OW  479   1.547   2.084   1.729
  540SOL    HW1  480   1.542   2.121   1.821
  540SOL    HW2  481   1.475   2.015   1.717
  542SOL     OW  482   0.781   2.126   1.749
  542SOL    HW1  483   0.848   2.065   1.792
  542SOL    HW2  484   0.708   2.145   1.814
  544SOL     OW  485   1.351   2.452   1.433
  544SOL    HW1  486   1.379   2.409   1.518
  544SOL    HW2  487   1.376   2.548   1.434
  546SOL     OW  488   0.922   2.365   0.899
  546SOL    HW1  489   0.897   2.356   0.803
  546SOL    HW2  490   0.970   2.283   0.930
  550SOL     OW  491   1.076   2.545   1.464
  550SOL    HW1  492   0.996   2.484   1.467
  550SOL    HW2  493   1.157   2.492   1.440
  556SOL     OW  494   0.561   2.084   1.147
  556SOL    HW1  495   0.599   2.000   1.184
  556SOL    HW2  496   0.473   2.103   1.191
  558SOL     OW  497   1.017   1.901   0.753
  558SOL    HW1  498   0.945   1.906   0.684
  558SOL    HW2  499   0.993   1.832   0.822
  559SOL     OW  500   1.429   3.035   0.867
  559SOL    HW1  501   1.374   2.951   0.860
  559SOL    HW2  502   1.455   3.064   0.775
  560SOL     OW  503   1.466   2.452   0.992
  560SOL    HW1  504   1.436   2.357   0.999
  560SOL    HW2  505   1.539   2.468   1.058
  566SOL     OW  506   1.754   3.085   1.588
  566SOL    HW1  507   1.845   3.046   1.575
  566SOL    HW2  508   1.762   3.181   1.612
  567SOL     OW  509   1.064   3.209   1.340
  567SOL    HW1  510   0.984   3.186   1.395
  567SOL    HW2  511   1.147   3.183   1.389
  568SOL     OW  512   1.592   3.491   1.625
  568SOL    HW1  513   1.619   3.525   1.535
  568SOL    HW2  514   1.671   3.453   1.671
  569SOL     OW  515   1.111   3.057   1.100
  569SOL    HW1  516   1.071   3.101   1.181
  569SOL    HW2  517   1.070   3.094   1.017
  570SOL     OW  518   1.638   2.961   1.079
  570SOL    HW1  519   1.643   3.042   1.138
  570SOL    HW2  520   1.552   2.963   1.028
  571SOL     OW  521   0.915   1.951   1.402
  571SOL    HW1  522   0.940   1.931   1.307
  571SOL    HW2  523   0.987   2.007   1.444
  572SOL     OW  524   0.980   2.978   1.719
  572SOL    HW1  525   0.881   2.984   1.729
  572SOL    HW2  526   1.003   2.898   1.663
  575SOL     OW  527   1.274   2.248   1.262
  575SOL    HW1  528   1.295   2.322   1.326
  575SOL    HW2  529   1.185   2.265   1.219
  580SOL     OW  530   1.272   3.307   1.142
  580SOL    HW1  531   1.319   3.320   1.229
  580SOL    HW2  532   1.206   3.233   1.151
  581SOL     OW  533   1.582   2.501   0.472
  581SOL    HW1  534   1.551   2.562   0.545
  581SOL    HW2  535   1.632   2.553   0.403
  584SOL     OW  536   1.587   2.641   1.670
  584SOL    HW1  537   1.495   2.679   1.665
  584SOL    HW2  538   1.647   2.688   1.605
  585SOL     OW  539   1.013   1.967   1.770
  585SOL    HW1  540   1.019   2.052   1.718
  585SOL    HW2  541   1.045   1.891   1.713
  586SOL     OW  542   0.504   1.912   1.740
  586SOL    HW1  543   0.462   1.855   1.670
  586SOL    HW2  544   0.438   1.981   1.772
  588SOL     OW  545   1.360   2.724   1.045
  588SOL    HW1  546   1.285   2.724   0.979
  588SOL    HW2  547   1.397   2.632   1.054
  592SOL     OW  548   0.732   2.496   1.064
  592SOL    HW1  549   0.791   2.470   0.988
  592SOL    HW2  550   0.704   2.592   1.053
  593SOL     OW  551   1.728   2.797   1.854
  593SOL    HW1  552   1.682   2.790   1.765
  593SOL    HW2  553   1.666   2.841   1.920
  595SOL     OW  554   1.622   2.229   0.374
  595SOL    HW1  555   1.624   2.153   0.438
  595SOL    HW2  556   1.574   2.306   0.414
  596SOL     OW  557   1.023   2.628   0.966
  596SOL    HW1  558   1.038   2.649   1.062
  596SOL    HW2  559   0.993   2.533   0.957
  597SOL     OW  560   0.980   3.435   1.700
  597SOL    HW1  561   0.960   3.479   1.612
  597SOL    HW2  562   1.019   3.344   1.684
  598SOL     OW  563   1.859   3.380   1.605
  598SOL    HW1  564   1.873   3.407   1.510
  598SOL    HW2  565   1.942   3.402   1.658
  605SOL     OW  566   1.138   2.242   1.678
  605SOL    HW1  567   1.093   2.305   1.742
  605SOL    HW2  568   1.231   2.273   1.661
  606SOL     OW  569   1.160   2.069   1.477
  606SOL    HW1  570   1.160   2.133   1.554
  606SOL    HW2  571   1.188   2.117   1.394
  610SOL     OW  572   1.002   2.658   1.238
  610SOL    HW1  573   1.043   2.626   1.324
  610SOL    HW2  574   0.906   2.631   1.235
  613SOL     OW  575   1.369   2.812   1.660
  613SOL    HW1  576   1.408   2.901   1.680
  613SOL    HW2  577   1.379   2.792   1.563
  615SOL     OW  578   1.657   2.466   1.206
  615SOL    HW1  579   1.619   2.397   1.268
  615SOL    HW2  580   1.739   2.430   1.162
  617SOL     OW  581   0.671   2.326   1.269
  617SOL    HW1  582   0.637   2.237   1.239
  617SOL    HW2  583   0.697   2.380   1.189
  621SOL     OW  584   1.347   2.921   1.234
  621SOL    HW1  585   1.371   2.858   1.160
  621SOL    HW2  586   1.257   2.961   1.216
  628SOL     OW  587   1.726   1.997   0.523
  628SOL    HW1  588   1.799   1.980   0.456
  628SOL    HW2  589   1.695   1.910   0.561
  631SOL     OW  590   1.280   2.789   0.672
  631SOL    HW1  591   1.340   2.708   0.674
  631SOL    HW2  592   1.320   2.858   0.612
  632SOL     OW  593   0.830   3.135   1.422
  632SOL    HW1  594   0.825   3.168   1.517
  632SOL    HW2  595   0.744   3.154   1.376
  634SOL     OW  596   1.650   3.582   1.394
  634SOL    HW1  597   1.703   3.592   1.310
  634SOL    HW2  598   1.623   3.672   1.428
  635SOL     OW  599   1.841   2.037   0.963
  635SOL    HW1  600   1.880   1.952   0.927
  635SOL    HW2  601   1.743   2.039   0.944
  638SOL     OW  602   0.822   2.864   1.372
  638SOL    HW1  603   0.862   2.863   1.280
  638SOL    HW2  604   0.832   2.956   1.412
  642SOL     OW  605   1.614   3.154   1.289
  642SOL    HW1  606   1.674   3.157   1.369
  642SOL    HW2  607   1.539   3.218   1.302
  644SOL     OW  608   1.014   2.098   0.971
  644SOL    HW1  609   1.006   2.062   0.878
  644SOL    HW2  610   1.012   2.022   1.036
  646SOL     OW  611   1.709   2.247   1.381
  646SOL    HW1  612   1.782   2.316   1.385
  646SOL    HW2  613   1.737   2.172   1.322
  649SOL     OW  614   0.672   2.065   1.489
  649SOL    HW1  615   0.762   2.049   1.449
  649SOL    HW2  616   0.680   2.070   1.588
  651SOL     OW  617   1.440   2.718   1.398
  651SOL    HW1  618   1.383   2.770   1.335
  651SOL    HW2  619   1.536   2.730   1.374
  654SOL     OW  620   0.613   2.704   1.431
  654SOL    HW1  621   0.669   2.785   1.414
  654SOL    HW2  622   0.672   2.624   1.434
  656SOL     OW  623   0.716   2.427   1.708
  656SOL    HW1  624   0.735   2.492   1.782
  656SOL    HW2  625   0.776   2.347   1.717
  657SOL     OW  626   1.450   3.082   1.633
  657SOL    HW1  627   1.441   3.072   1.732
  657SOL    HW2  628   1.546   3.075   1.607
  659SOL     OW  629   1.674   2.745   1.254
  659SOL    HW1  630   1.647   2.656   1.217
  659SOL    HW2  631   1.675   2.813   1.181
  662SOL     OW  632   1.777   2.204   1.642
  662SOL    HW1  633   1.760   2.235   1.548
  662SOL    HW2  634   1.693   2.167   1.680
  663SOL     OW  635   1.730   2.796   1.517
  663SOL    HW1  636   1.768   2.887   1.532
  663SOL    HW2  637   1.722   2.779   1.418
  672SOL     OW  638   1.824   2.054   1.227
  672SOL    HW1  639   1.820   1.964   1.271
  672SOL    HW2  640   1.827   2.043   1.128
  674SOL     OW  641   1.705   3.349   1.104
  674SOL    HW1  642   1.612   3.324   1.077
  674SOL    HW2  643   1.731   3.299   1.186
  677SOL     OW  644   1.424   2.076   1.112
  677SOL    HW1  645   1.476   2.011   1.167
  677SOL    HW2  646   1.375   2.139   1.173
  678SOL     OW  647   1.001   1.896   1.154
  678SOL    HW1  648   0.938   1.824   1.123
  678SOL    HW2  649   1.094   1.860   1.154
  682SOL     OW  650   1.300   2.315   0.691
  682SOL    HW1  651   1.241   2.395   0.695
  682SOL    HW2  652   1.315   2.280   0.784
  683SOL     OW  653   1.593   2.083   0.882
  683SOL    HW1  654   1.509   2.082   0.936
  683SOL    HW2  655   1.595   2.166   0.826
  690SOL     OW  656   1.555   3.373   2.565
  690SOL    HW1  657   1.498   3.357   2.646
  690SOL    HW2  658   1.496   3.383   2.485
  691SOL     OW  659   1.135   2.565   2.579
  691SOL    HW1  660   1.192   2.643   2.554
  691SOL    HW2  661   1.075   2.591   2.655
  692SOL     OW  662   1.755   2.469   2.093
  692SOL    HW1  663   1.743   2.456   1.994
  692SOL    HW2  664   1.725   2.388   2.142
  693SOL     OW  665   0.768   3.006   2.885
  693SOL    HW1  666   0.690   3.023   2.945
  693SOL    HW2  667   0.802   3.093   2.849
  695SOL     OW  668   0.685   2.874   2.527
  695SOL    HW1  669   0.754   2.858   2.597
  695SOL    HW2  670   0.612   2.931   2.565
  700SOL     OW  671   1.603   2.309   2.599
  700SOL    HW1  672   1.529   2.355   2.549
  700SOL    HW2  673   1.654   2.377   2.652
  706SOL     OW  674   0.606   2.826   1.985
  706SOL    HW1  675   0.613   2.910   1.931
  706SOL    HW2  676   0.652   2.839   2.073
  707SOL     OW  677   1.594   1.976   3.342
  707SOL    HW1  678   1.576   2.043   3.270
  707SOL    HW2  679   1.591   2.022   3.431
  709SOL     OW  680   1.842   3.629   2.221
  709SOL    HW1  681   1.896   3.600   2.301
  709SOL    HW2  682   1.872   3.719   2.192
  711SOL     OW  683   1.689   2.784   2.474
  711SOL    HW1  684   1.784   2.755   2.482
  711SOL    HW2  685   1.681   2.849   2.399
  712SOL     OW  686   1.641   2.970   2.294
  712SOL    HW1  687   1.727   2.972   2.242
  712SOL    HW2  688   1.655   3.017   2.382
  715SOL     OW  689   1.293   3.090   3.285
  715SOL    HW1  690   1.330   3.017   3.227
  715SOL    HW2  691   1.345   3.095   3.370
  716SOL     OW  692   0.809   1.866   2.364
  716SOL    HW1  693   0.849   1.957   2.355
  716SOL    HW2  694   0.709   1.874   2.370
  718SOL     OW  695   1.525   2.861   2.052
  718SOL    HW1  696   1.462   2.785   2.065
  718SOL    HW2  697   1.573   2.879   2.138
  721SOL     OW  698   1.466   3.279   2.815
  721SOL    HW1  699   1.407   3.285   2.895
  721SOL    HW2  700   1.451   3.191   2.769
  722SOL     OW  701   1.667   3.576   2.434
  722SOL    HW1  702   1.626   3.553   2.346
  722SOL    HW2  703   1.649   3.502   2.499
  723SOL     OW  704   0.598   2.591   2.132
  723SOL    HW1  705   0.622   2.660   2.064
  723SOL    HW2  706   0.520   2.624   2.186
  724SOL     OW  707   1.281   2.207   2.806
  724SOL    HW1  708   1.195   2.157   2.793
  724SOL    HW2  709   1.343   2.153   2.862
  725SOL     OW  710   1.576   3.524   2.169
  725SOL    HW1  711   1.665   3.570   2.172
  725SOL    HW2  712   1.555   3.500   2.074
  727SOL     OW  713   1.394   2.331   3.536
  727SOL    HW1  714   1.374   2.374   3.624
  727SOL    HW2  715   1.472   2.269   3.545
  729SOL     OW  716   0.991   2.272   3.104
  729SOL    HW1  717   0.914   2.306   3.158
  729SOL    HW2  718   0.957   2.221   3.025
  730SOL     OW  719   1.041   2.563   2.291
  730SOL    HW1  720   1.067   2.559   2.387
  730SOL    HW2  721   0.956   2.512   2.277
  733SOL     OW  722   0.865   2.210   2.057
  733SOL    HW1  723   0.924   2.273   2.008
  733SOL    HW2  724   0.884   2.116   2.028
  734SOL     OW  725   1.719   2.447   3.693
  734SOL    HW1  726   1.693   2.536   3.657
  734SOL    HW2  727   1.717   2.379   3.620
  735SOL     OW  728   1.362   3.006   2.407
  735SOL    HW1  729   1.445   2.977   2.359
  735SOL    HW2  730   1.313   3.073   2.351
  736SOL     OW  731   0.550   2.058   2.747
  736SOL    HW1  732   0.545   2.053   2.847
  736SOL    HW2  733   0.552   2.154   2.718
  737SOL     OW  734   1.008   3.318   2.339
  737SOL    HW1  735   0.962   3.390   2.287
  737SOL    HW2  736   1.004   3.338   2.437
  739SOL     OW  737   1.795   2.928   2.735
  739SOL    HW1  738   1.733   2.913   2.659
  739SOL    HW2  739   1.743   2.939   2.820
  742SOL     OW  740   1.458   2.597   2.590
  742SOL    HW1  741   1.453   2.532   2.665
  742SOL    HW2  742   1.538   2.656   2.603
  746SOL     OW  743   1.632   3.239   1.943
  746SOL    HW1  744   1.600   3.333   1.933
  746SOL    HW2  745   1.556   3.176   1.931
  748SOL     OW  746   1.400   1.969   2.288
  748SOL    HW1  747   1.376   1.932   2.198
  748SOL    HW2  748   1.499   1.985   2.292
  751SOL     OW  749   0.382   2.562   2.342
  751SOL    HW1  750   0.427   2.472   2.339
  751SOL    HW2  751   0.288   2.551   2.375
  752SOL     OW  752   1.547   2.084   3.591
  752SOL    HW1  753   1.542   2.121   3.683
  752SOL    HW2  754   1.475   2.015   3.579
  753SOL     OW  755   0.614   1.984   1.979
  753SOL    HW1  756   0.712   1.962   1.986
  753SOL    HW2  757   0.583   1.967   1.886
  756SOL     OW  758   1.351   2.452   3.295
  756SOL    HW1  759   1.379   2.409   3.380
  756SOL    HW2  760   1.376   2.548   3.296
  758SOL     OW  761   0.922   2.365   2.761
  758SOL    HW1  762   0.897   2.356   2.665
  758SOL    HW2  763   0.970   2.283   2.792
  759SOL     OW  764   0.539   1.926   2.374
  759SOL    HW1  765   0.458   1.927   2.432
  759SOL    HW2  766   0.542   2.009   2.319
  760SOL     OW  767   1.434   3.050   1.903
  760SOL    HW1  768   1.466   2.974   1.960
  760SOL    HW2  769   1.342   3.077   1.933
  761SOL     OW  770   0.297   1.897   2.033
  761SOL    HW1  771   0.346   1.981   2.012
  761SOL    HW2  772   0.359   1.832   2.078
  762SOL     OW  773   0.935   2.098   2.342
  762SOL    HW1  774   0.887   2.139   2.264
  762SOL    HW2  775   1.034   2.096   2.323
  763SOL     OW  776   1.076   2.545   3.326
  763SOL    HW1  777   0.996   2.484   3.329
  763SOL    HW2  778   1.157   2.492   3.302
  764SOL     OW  779   1.227   3.432   2.655
  764SOL    HW1  780   1.248   3.506   2.590
  764SOL    HW2  781   1.295   3.432   2.728
  767SOL     OW  782   1.032   2.411   1.878
  767SOL    HW1  783   0.991   2.493   1.839
  767SOL    HW2  784   1.096   2.437   1.951
  769SOL     OW  785   0.561   2.084   3.009
  769SOL    HW1  786   0.599   2.000   3.046
  769SOL    HW2  787   0.473   2.103   3.053
  770SOL     OW  788   0.866   2.316   2.504
  770SOL    HW1  789   0.834   2.388   2.442
  770SOL    HW2  790   0.890   2.235   2.451
  771SOL     OW  791   1.017   1.901   2.615
  771SOL    HW1  792   0.945   1.906   2.546
  771SOL    HW2  793   0.993   1.832   2.684
  772SOL     OW  794   1.429   3.035   2.729
  772SOL    HW1  795   1.374   2.951   2.722
  772SOL    HW2  796   1.455   3.064   2.637
  773SOL     OW  797   1.466   2.452   2.854
  773SOL    HW1  798   1.436   2.357   2.861
  773SOL    HW2  799   1.539   2.468   2.920
  774SOL     OW  800   1.857   2.695   2.239
  774SOL    HW1  801   1.899   2.631   2.303
  774SOL    HW2  802   1.819   2.644   2.161
  776SOL     OW  803   1.664   3.142   2.519
  776SOL    HW1  804   1.763   3.150   2.533
  776SOL    HW2  805   1.619   3.226   2.550
  777SOL     OW  806   1.390   2.437   1.940
  777SOL    HW1  807   1.336   2.416   2.021
  777SOL    HW2  808   1.481   2.396   1.949
  778SOL     OW  809   0.527   2.118   2.190
  778SOL    HW1  810   0.554   2.059   2.115
  778SOL    HW2  811   0.527   2.213   2.159
  779SOL     OW  812   1.754   3.085   3.450
  779SOL    HW1  813   1.845   3.046   3.437
  779SOL    HW2  814   1.762   3.181   3.474
  782SOL     OW  815   1.111   3.057   2.962
  782SOL    HW1  816   1.071   3.101   3.043
  782SOL    HW2  817   1.070   3.094   2.879
  783SOL     OW  818   1.638   2.961   2.941
  783SOL    HW1  819   1.643   3.042   3.000
  783SOL    HW2  820   1.552   2.963   2.890
  784SOL     OW  821   0.915   1.951   3.264
  784SOL    HW1  822   0.940   1.931   3.169
  784SOL    HW2  823   0.987   2.007   3.306
  786SOL     OW  824   0.705   2.912   2.230
  786SOL    HW1  825   0.691   2.919   2.329
  786SOL    HW2  826   0.789   2.861   2.212
  788SOL     OW  827   1.274   2.248   3.124
  788SOL    HW1  828   1.295   2.322   3.188
  788SOL    HW2  829   1.185   2.265   3.081
  791SOL     OW  830   0.566   2.399   2.727
  791SOL    HW1  831   0.578   2.465   2.653
  791SOL    HW2  832   0.612   2.433   2.810
  792SOL     OW  833   1.252   3.210   2.250
  792SOL    HW1  834   1.302   3.287   2.290
  792SOL    HW2  835   1.157   3.212   2.282
  793SOL     OW  836   1.272   3.307   3.004
  793SOL    HW1  837   1.319   3.320   3.091
  793SOL    HW2  838   1.206   3.233   3.013
  794SOL     OW  839   1.582   2.501   2.334
  794SOL    HW1  840   1.551   2.562   2.407
  794SOL    HW2  841   1.632   2.553   2.265
  797SOL     OW  842   1.587   2.641   3.532
  797SOL    HW1  843   1.495   2.679   3.527
  797SOL    HW2  844   1.647   2.688   3.467
  801SOL     OW  845   1.360   2.724   2.907
  801SOL    HW1  846   1.285   2.724   2.841
  801SOL    HW2  847   1.397   2.632   2.916
  802SOL     OW  848   1.209   2.387   2.137
  802SOL    HW1  849   1.222   2.303   2.191
  802SOL    HW2  850   1.180   2.461   2.197
  805SOL     OW  851   0.732   2.496   2.926
  805SOL    HW1  852   0.791   2.470   2.850
  805SOL    HW2  853   0.704   2.592   2.915
  808SOL     OW  854   1.622   2.229   2.236
  808SOL    HW1  855   1.624   2.153   2.300
  808SOL    HW2  856   1.574   2.306   2.276
  809SOL     OW  857   1.023   2.628   2.828
  809SOL    HW1  858   1.038   2.649   2.924
  809SOL    HW2  859   0.993   2.533   2.819
  813SOL     OW  860   1.540   2.136   1.987
  813SOL    HW1  861   1.479   2.061   2.010
  813SOL    HW2  862   1.562   2.188   2.070
  814SOL     OW  863   1.303   2.700   1.904
  814SOL    HW1  864   1.337   2.607   1.919
  814SOL    HW2  865   1.321   2.727   1.809
  815SOL     OW  866   1.068   3.195   2.711
  815SOL    HW1  867   1.075   3.111   2.656
  815SOL    HW2  868   1.130   3.264   2.675
  818SOL     OW  869   1.138   2.242   3.540
  818SOL    HW1  870   1.093   2.305   3.604
  818SOL    HW2  871   1.231   2.273   3.523
  819SOL     OW  872   1.160   2.069   3.339
  819SOL    HW1  873   1.160   2.133   3.416
  819SOL    HW2  874   1.188   2.117   3.256
  823SOL     OW  875   1.002   2.658   3.100
  823SOL    HW1  876   1.043   2.626   3.186
  823SOL    HW2  877   0.906   2.631   3.097
  826SOL     OW  878   1.369   2.812   3.522
  826SOL    HW1  879   1.408   2.901   3.542
  826SOL    HW2  880   1.379   2.792   3.425
  827SOL     OW  881   0.815   2.434   2.187
  827SOL    HW1  882   0.822   2.345   2.141
  827SOL    HW2  883   0.721   2.468   2.179
  828SOL     OW  884   1.657   2.466   3.068
  828SOL    HW1  885   1.619   2.397   3.130
  828SOL    HW2  886   1.739   2.430   3.024
  830SOL     OW  887   0.671   2.326   3.131
  830SOL    HW1  888   0.637   2.237   3.101
  830SOL    HW2  889   0.697   2.380   3.051
  832SOL     OW  890   0.473   2.362   2.053
  832SOL    HW1  891   0.534   2.442   2.057
  832SOL    HW2  892   0.378   2.393   2.060
  834SOL     OW  893   1.347   2.921   3.096
  834SOL    HW1  894   1.371   2.858   3.022
  834SOL    HW2  895   1.257   2.961   3.078
  835SOL     OW  896   1.302   2.717   2.171
  835SOL    HW1  897   1.216   2.686   2.213
  835SOL    HW2  898   1.298   2.703   2.072
  840SOL     OW  899   1.726   1.997   2.385
  840SOL    HW1  900   1.799   1.980   2.318
  840SOL    HW2  901   1.695   1.910   2.423
  841SOL     OW  902   1.388   3.435   2.339
  841SOL    HW1  903   1.455   3.447   2.265
  841SOL    HW2  904   1.348   3.524   2.362
  843SOL     OW  905   1.280   2.789   2.534
  843SOL    HW1  906   1.340   2.708   2.536
  843SOL    HW2  907   1.320   2.858   2.474
  847SOL     OW  908   1.841   2.037   2.825
  847SOL    HW1  909   1.880   1.952   2.789
  847SOL    HW2  910   1.743   2.039   2.806
  849SOL     OW  911   1.194   3.474   1.893
  849SOL    HW1  912   1.200   3.381   1.930
  849SOL    HW2  913   1.135   3.474   1.813
  851SOL     OW  914   0.916   2.772   2.153
  851SOL    HW1  915   0.979   2.810   2.085
  851SOL    HW2  916   0.956   2.689   2.192
  852SOL     OW  917   1.504   3.469   1.906
  852SOL    HW1  918   1.412   3.506   1.913
  852SOL    HW2  919   1.542   3.489   1.816
  854SOL     OW  920   1.614   3.154   3.151
  854SOL    HW1  921   1.674   3.157   3.231
  854SOL    HW2  922   1.539   3.218   3.164
  855SOL     OW  923   1.039   2.960   2.558
  855SOL    HW1  924   0.969   2.913   2.612
  855SOL    HW2  925   1.098   2.892   2.515
  856SOL     OW  926   1.014   2.098   2.833
  856SOL    HW1  927   1.006   2.062   2.740
  856SOL    HW2  928   1.012   2.022   2.898
  858SOL     OW  929   1.709   2.247   3.243
  858SOL    HW1  930   1.782   2.316   3.247
  858SOL    HW2  931   1.737   2.172   3.184
  863SOL     OW  932   1.440   2.718   3.260
  863SOL    HW1  933   1.383   2.770   3.197
  863SOL    HW2  934   1.536   2.730   3.236
  865SOL     OW  935   1.183   3.197   1.981
  865SOL    HW1  936   1.084   3.186   1.983
  865SOL    HW2  937   1.217   3.212   2.074
  871SOL     OW  938   1.674   2.745   3.116
  871SOL    HW1  939   1.647   2.656   3.079
  871SOL    HW2  940   1.675   2.813   3.043
  872SOL     OW  941   1.225   2.187   2.311
  872SOL    HW1  942   1.290   2.113   2.300
  872SOL    HW2  943   1.245   2.237   2.395
  873SOL     OW  944   0.594   2.607   2.514
  873SOL    HW1  945   0.644   2.692   2.495
  873SOL    HW2  946   0.506   2.609   2.466
  874SOL     OW  947   1.777   2.204   3.504
  874SOL    HW1  948   1.760   2.235   3.410
  874SOL    HW2  949   1.693   2.167   3.542
  875SOL     OW  950   1.730   2.796   3.379
  875SOL    HW1  951   1.768   2.887   3.394
  875SOL    HW2  952   1.722   2.779   3.280
  876SOL     OW  953   0.859   3.236   1.878
  876SOL    HW1  954   0.813   3.251   1.966
  876SOL    HW2  955   0.903   3.321   1.848
  878SOL     OW  956   0.859   2.818   2.723
  878SOL    HW1  957   0.913   2.749   2.771
  878SOL    HW2  958   0.827   2.887   2.789
  879SOL     OW  959   1.083   2.846   1.949
  879SOL    HW1  960   1.060   2.899   1.867
  879SOL    HW2  961   1.164   2.790   1.930
  880SOL     OW  962   1.861   3.431   2.713
  880SOL    HW1  963   1.790   3.419   2.643
  880SOL    HW2  964   1.862   3.352   2.773
  884SOL     OW  965   1.824   2.054   3.089
  884SOL    HW1  966   1.820   1.964   3.133
  884SOL    HW2  967   1.827   2.043   2.990
  885SOL     OW  968   0.428   2.286   2.382
  885SOL    HW1  969   0.458   2.214   2.320
  885SOL    HW2  970   0.389   2.246   2.465
  886SOL     OW  971   1.705   3.349   2.966
  886SOL    HW1  972   1.612   3.324   2.939
  886SOL    HW2  973   1.731   3.299   3.048
  889SOL     OW  974   1.424   2.076   2.974
  889SOL    HW1  975   1.476   2.011   3.029
  889SOL    HW2  976   1.375   2.139   3.035
  890SOL     OW  977   1.001   1.896   3.016
  890SOL    HW1  978   0.938   1.824   2.985
  890SOL    HW2  979   1.094   1.860   3.016
  891SOL     OW  980   0.770   3.192   2.163
  891SOL    HW1  981   0.724   3.105   2.180
  891SOL    HW2  982   0.861   3.189   2.204
  893SOL     OW  983   1.352   1.914   2.030
  893SOL    HW1  984   1.387   1.873   1.946
  893SOL    HW2  985   1.262   1.876   2.050
  894SOL     OW  986   1.300   2.315   2.553
  894SOL    HW1  987   1.241   2.395   2.557
  894SOL    HW2  988   1.315   2.280   2.646
  895SOL     OW  989   1.593   2.083   2.744
  895SOL    HW1  990   1.509   2.082   2.798
  895SOL    HW2  991   1.595   2.166   2.688
 1065SOL     OW  992   2.431   1.275   1.165
 1065SOL    HW1  993   2.338   1.268   1.128
 1065SOL    HW2  994   2.442   1.364   1.209
 1069SOL     OW  995   2.630   1.144   1.023
 1069SOL    HW1  996   2.552   1.161   1.083
 1069SOL    HW2  997   2.664   1.231   0.987
 1070SOL     OW  998   2.712   0.798   1.823
 1070SOL    HW1  999   2.708   0.874   1.888
 1070SOL    HW2 1000   2.734   0.834   1.732
 1072SOL     OW 1001   2.548   1.161   1.803
 1072SOL    HW1 1002   2.608   1.240   1.817
 1072SOL    HW2 1003   2.462   1.192   1.762
 1073SOL     OW 1004   2.197   1.435   1.061
 1073SOL    HW1 1005   2.119   1.404   1.008
 1073SOL    HW2 1006   2.255   1.493   1.004
 1074SOL     OW 1007   3.322   1.505   1.339
 1074SOL    HW1 1008   3.346   1.599   1.365
 1074SOL    HW2 1009   3.306   1.451   1.421
 1077SOL     OW 1010   2.093   1.713   0.483
 1077SOL    HW1 1011   2.127   1.790   0.537
 1077SOL    HW2 1012   2.137   1.713   0.393
 1078SOL     OW 1013   2.989   1.341   1.690
 1078SOL    HW1 1014   3.036   1.341   1.778
 1078SOL    HW2 1015   2.941   1.254   1.679
 1079SOL     OW 1016   2.092   1.434   0.538
 1079SOL    HW1 1017   2.066   1.530   0.538
 1079SOL    HW2 1018   2.021   1.380   0.583
 1080SOL     OW 1019   2.102   1.091   0.886
 1080SOL    HW1 1020   2.116   1.007   0.938
 1080SOL    HW2 1021   2.047   1.155   0.941
 1081SOL     OW 1022   2.482   1.786   1.439
 1081SOL    HW1 1023   2.390   1.769   1.474
 1081SOL    HW2 1024   2.510   1.878   1.465
 1089SOL     OW 1025   1.975   0.737   1.597
 1089SOL    HW1 1026   2.063   0.724   1.642
 1089SOL    HW2 1027   1.962   0.834   1.575
 1090SOL     OW 1028   2.475   1.365   0.726
 1090SOL    HW1 1029   2.426   1.278   0.735
 1090SOL    HW2 1030   2.452   1.408   0.639
 1091SOL     OW 1031   3.155   1.228   1.423
 1091SOL    HW1 1032   3.192   1.155   1.365
 1091SOL    HW2 1033   3.207   1.233   1.508
 1093SOL     OW 1034   2.059   0.976   1.264
 1093SOL    HW1 1035   2.148   0.931   1.250
 1093SOL    HW2 1036   1.986   0.911   1.245
 1095SOL     OW 1037   3.049   1.792   1.616
 1095SOL    HW1 1038   3.073   1.852   1.540
 1095SOL    HW2 1039   3.056   1.697   1.586
 1102SOL     OW 1040   2.669   0.605   1.465
 1102SOL    HW1 1041   2.622   0.602   1.554
 1102SOL    HW2 1042   2.618   0.550   1.399
 1104SOL     OW 1043   2.835   0.890   1.572
 1104SOL    HW1 1044   2.881   0.806   1.543
 1104SOL    HW2 1045   2.779   0.924   1.497
 1108SOL     OW 1046   1.992   1.821   1.571
 1108SOL    HW1 1047   1.982   1.806   1.670
 1108SOL    HW2 1048   1.906   1.857   1.535
 1114SOL     OW 1049   2.213   1.801   0.853
 1114SOL    HW1 1050   2.263   1.715   0.859
 1114SOL    HW2 1051   2.278   1.878   0.850
 1116SOL     OW 1052   3.089   1.550   1.506
 1116SOL    HW1 1053   3.095   1.473   1.570
 1116SOL    HW2 1054   3.037   1.524   1.426
 1119SOL     OW 1055   2.323   1.266   1.727
 1119SOL    HW1 1056   2.273   1.267   1.641
 1119SOL    HW2 1057   2.260   1.248   1.803
 1125SOL     OW 1058   2.111   1.785   1.241
 1125SOL    HW1 1059   2.168   1.720   1.291
 1125SOL    HW2 1060   2.095   1.752   1.148
 1126SOL     OW 1061   2.802   1.698   0.904
 1126SOL    HW1 1062   2.882   1.641   0.925
 1126SOL    HW2 1063   2.753   1.658   0.827
 1131SOL     OW 1064   2.750   1.514   1.195
 1131SOL    HW1 1065   2.727   1.489   1.101
 1131SOL    HW2 1066   2.811   1.445   1.234
 1133SOL     OW 1067   2.665   1.402   0.924
 1133SOL    HW1 1068   2.755   1.416   0.882
 1133SOL    HW2 1069   2.594   1.404   0.853
 1139SOL     OW 1070   2.938   0.683   1.464
 1139SOL    HW1 1071   2.858   0.622   1.467
 1139SOL    HW2 1072   3.019   0.630   1.440
 1140SOL     OW 1073   3.089   1.570   0.793
 1140SOL    HW1 1074   3.110   1.644   0.728
 1140SOL    HW2 1075   3.157   1.570   0.866
 1141SOL     OW 1076   2.321   1.152   0.741
 1141SOL    HW1 1077   2.250   1.125   0.806
 1141SOL    HW2 1078   2.295   1.124   0.648
 1144SOL     OW 1079   1.940   0.556   1.386
 1144SOL    HW1 1080   2.032   0.555   1.345
 1144SOL    HW2 1081   1.934   0.630   1.453
 1156SOL     OW 1082   2.926   1.347   1.340
 1156SOL    HW1 1083   2.846   1.324   1.395
 1156SOL    HW2 1084   3.009   1.321   1.389
 1157SOL     OW 1085   3.454   1.629   1.625
 1157SOL    HW1 1086   3.481   1.663   1.535
 1157SOL    HW2 1087   3.533   1.591   1.671
 1158SOL     OW 1088   2.973   1.195   1.100
 1158SOL    HW1 1089   2.933   1.239   1.181
 1158SOL    HW2 1090   2.932   1.232   1.017
 1161SOL     OW 1091   2.842   1.116   1.719
 1161SOL    HW1 1092   2.743   1.122   1.729
 1161SOL    HW2 1093   2.865   1.036   1.663
 1163SOL     OW 1094   2.272   0.813   1.251
 1163SOL    HW1 1095   2.358   0.825   1.301
 1163SOL    HW2 1096   2.230   0.726   1.278
 1165SOL     OW 1097   1.926   1.564   1.331
 1165SOL    HW1 1098   1.880   1.646   1.297
 1165SOL    HW2 1099   2.024   1.583   1.340
 1169SOL     OW 1100   3.134   1.445   1.142
 1169SOL    HW1 1101   3.181   1.458   1.229
 1169SOL    HW2 1102   3.068   1.371   1.151
 1171SOL     OW 1103   2.216   1.510   1.329
 1171SOL    HW1 1104   2.195   1.466   1.242
 1171SOL    HW2 1105   2.313   1.536   1.332
 1172SOL     OW 1106   2.264   0.751   1.598
 1172SOL    HW1 1107   2.332   0.806   1.551
 1172SOL    HW2 1108   2.304   0.663   1.625
 1176SOL     OW 1109   2.435   0.870   1.029
 1176SOL    HW1 1110   2.479   0.959   1.020
 1176SOL    HW2 1111   2.372   0.870   1.106
 1180SOL     OW 1112   1.899   1.310   1.282
 1180SOL    HW1 1113   1.952   1.261   1.350
 1180SOL    HW2 1114   1.921   1.408   1.287
 1186SOL     OW 1115   2.842   1.573   1.700
 1186SOL    HW1 1116   2.822   1.617   1.612
 1186SOL    HW2 1117   2.881   1.482   1.684
 1187SOL     OW 1118   3.721   1.518   1.605
 1187SOL    HW1 1119   3.735   1.545   1.510
 1187SOL    HW2 1120   3.804   1.540   1.658
 1188SOL     OW 1121   2.212   0.898   1.804
 1188SOL    HW1 1122   2.288   0.942   1.852
 1188SOL    HW2 1123   2.247   0.851   1.722
 1191SOL     OW 1124   2.930   1.333   0.849
 1191SOL    HW1 1125   2.937   1.249   0.794
 1191SOL    HW2 1126   2.992   1.402   0.813
 1192SOL     OW 1127   2.181   0.810   0.949
 1192SOL    HW1 1128   2.274   0.846   0.954
 1192SOL    HW2 1129   2.175   0.725   1.001
 1197SOL     OW 1130   1.950   1.801   0.927
 1197SOL    HW1 1131   1.908   1.715   0.900
 1197SOL    HW2 1132   2.044   1.804   0.893
 1198SOL     OW 1133   2.366   1.568   0.910
 1198SOL    HW1 1134   2.432   1.642   0.919
 1198SOL    HW2 1135   2.410   1.489   0.868
 1199SOL     OW 1136   2.864   0.796   1.238
 1199SOL    HW1 1137   2.905   0.764   1.324
 1199SOL    HW2 1138   2.768   0.769   1.235
 1201SOL     OW 1139   2.051   0.520   1.722
 1201SOL    HW1 1140   2.110   0.480   1.652
 1201SOL    HW2 1141   1.993   0.591   1.681
 1202SOL     OW 1142   3.231   0.950   1.660
 1202SOL    HW1 1143   3.270   1.039   1.680
 1202SOL    HW2 1144   3.241   0.930   1.563
 1205SOL     OW 1145   2.114   1.564   1.744
 1205SOL    HW1 1146   2.084   1.621   1.820
 1205SOL    HW2 1147   2.107   1.467   1.770
 1207SOL     OW 1148   2.792   1.678   1.465
 1207SOL    HW1 1149   2.768   1.660   1.370
 1207SOL    HW2 1150   2.822   1.772   1.475
 1209SOL     OW 1151   2.021   1.137   1.466
 1209SOL    HW1 1152   2.043   1.076   1.542
 1209SOL    HW2 1153   2.031   1.088   1.380
 1210SOL     OW 1154   3.209   1.059   1.234
 1210SOL    HW1 1155   3.233   0.996   1.160
 1210SOL    HW2 1156   3.119   1.099   1.216
 1213SOL     OW 1157   3.114   1.731   1.128
 1213SOL    HW1 1158   3.198   1.736   1.074
 1213SOL    HW2 1159   3.091   1.635   1.146
 1214SOL     OW 1160   1.945   1.258   1.022
 1214SOL    HW1 1161   1.940   1.257   1.122
 1214SOL    HW2 1162   1.862   1.217   0.984
 1215SOL     OW 1163   2.550   1.662   1.716
 1215SOL    HW1 1164   2.494   1.743   1.725
 1215SOL    HW2 1165   2.602   1.666   1.630
 1219SOL     OW 1166   1.992   1.794   1.851
 1219SOL    HW1 1167   1.951   1.720   1.904
 1219SOL    HW2 1168   2.056   1.845   1.909
 1221SOL     OW 1169   2.692   1.273   1.422
 1221SOL    HW1 1170   2.687   1.306   1.517
 1221SOL    HW2 1171   2.606   1.292   1.376
 1223SOL     OW 1172   3.512   1.720   1.394
 1223SOL    HW1 1173   3.565   1.730   1.310
 1223SOL    HW2 1174   3.485   1.810   1.428
 1227SOL     OW 1175   2.684   1.002   1.372
 1227SOL    HW1 1176   2.724   1.001   1.280
 1227SOL    HW2 1177   2.694   1.094   1.412
 1230SOL     OW 1178   2.234   1.288   1.490
 1230SOL    HW1 1179   2.221   1.381   1.456
 1230SOL    HW2 1180   2.150   1.236   1.477
 1231SOL     OW 1181   3.476   1.292   1.289
 1231SOL    HW1 1182   3.536   1.295   1.369
 1231SOL    HW2 1183   3.401   1.356   1.302
 1234SOL     OW 1184   2.452   1.487   0.491
 1234SOL    HW1 1185   2.494   1.429   0.421
 1234SOL    HW2 1186   2.408   1.566   0.447
 1237SOL     OW 1187   1.967   1.013   1.726
 1237SOL    HW1 1188   1.890   0.980   1.780
 1237SOL    HW2 1189   2.052   0.983   1.768
 1243SOL     OW 1190   2.475   0.842   1.431
 1243SOL    HW1 1191   2.531   0.923   1.414
 1243SOL    HW2 1192   2.534   0.762   1.434
 1244SOL     OW 1193   3.355   1.767   0.959
 1244SOL    HW1 1194   3.388   1.831   0.890
 1244SOL    HW2 1195   3.421   1.761   1.034
 1245SOL     OW 1196   2.578   0.565   1.708
 1245SOL    HW1 1197   2.597   0.630   1.782
 1245SOL    HW2 1198   2.638   0.485   1.717
 1246SOL     OW 1199   3.312   1.220   1.633
 1246SOL    HW1 1200   3.303   1.210   1.732
 1246SOL    HW2 1201   3.408   1.213   1.607
 1247SOL     OW 1202   2.252   1.741   1.560
 1247SOL    HW1 1203   2.161   1.782   1.558
 1247SOL    HW2 1204   2.245   1.647   1.592
 1254SOL     OW 1205   2.523   1.790   0.953
 1254SOL    HW1 1206   2.477   1.878   0.940
 1254SOL    HW2 1207   2.622   1.802   0.946
 1255SOL     OW 1208   2.721   0.956   0.861
 1255SOL    HW1 1209   2.775   0.887   0.909
 1255SOL    HW2 1210   2.689   1.025   0.927
 1258SOL     OW 1211   2.083   1.314   1.844
 1258SOL    HW1 1212   2.018   1.241   1.823
 1258SOL    HW2 1213   2.087   1.328   1.942
 1259SOL     OW 1214   1.941   1.240   0.653
 1259SOL    HW1 1215   1.940   1.193   0.741
 1259SOL    HW2 1216   2.023   1.212   0.602
 1260SOL     OW 1217   2.534   1.391   1.624
 1260SOL    HW1 1218   2.456   1.341   1.662
 1260SOL    HW2 1219   2.531   1.486   1.655
 1264SOL     OW 1220   2.179   0.547   1.280
 1264SOL    HW1 1221   2.217   0.488   1.352
 1264SOL    HW2 1222   2.219   0.521   1.192
 1265SOL     OW 1223   2.674   1.586   0.687
 1265SOL    HW1 1224   2.706   1.596   0.593
 1265SOL    HW2 1225   2.595   1.524   0.689
 1269SOL     OW 1226   2.480   1.567   1.284
 1269SOL    HW1 1227   2.475   1.649   1.341
 1269SOL    HW2 1228   2.569   1.564   1.239
 1275SOL     OW 1229   2.092   0.628   1.975
 1275SOL    HW1 1230   1.999   0.626   2.012
 1275SOL    HW2 1231   2.093   0.589   1.883
 1277SOL     OW 1232   1.881   0.368   2.509
 1277SOL    HW1 1233   1.799   0.411   2.548
 1277SOL    HW2 1234   1.853   0.295   2.446
 1278SOL     OW 1235   2.431   1.275   3.027
 1278SOL    HW1 1236   2.338   1.268   2.990
 1278SOL    HW2 1237   2.442   1.364   3.071
 1279SOL     OW 1238   3.417   1.511   2.565
 1279SOL    HW1 1239   3.360   1.495   2.646
 1279SOL    HW2 1240   3.358   1.521   2.485
 1280SOL     OW 1241   2.997   0.703   2.579
 1280SOL    HW1 1242   3.054   0.781   2.554
 1280SOL    HW2 1243   2.937   0.729   2.655
 1282SOL     OW 1244   2.630   1.144   2.885
 1282SOL    HW1 1245   2.552   1.161   2.945
 1282SOL    HW2 1246   2.664   1.231   2.849
 1284SOL     OW 1247   2.547   1.012   2.527
 1284SOL    HW1 1248   2.616   0.996   2.597
 1284SOL    HW2 1249   2.474   1.069   2.565
 1286SOL     OW 1250   2.197   1.435   2.923
 1286SOL    HW1 1251   2.119   1.404   2.870
 1286SOL    HW2 1252   2.255   1.493   2.866
 1287SOL     OW 1253   3.322   1.505   3.201
 1287SOL    HW1 1254   3.346   1.599   3.227
 1287SOL    HW2 1255   3.306   1.451   3.283
 1290SOL     OW 1256   2.093   1.713   2.345
 1290SOL    HW1 1257   2.127   1.790   2.399
 1290SOL    HW2 1258   2.137   1.713   2.255
 1292SOL     OW 1259   2.092   1.434   2.400
 1292SOL    HW1 1260   2.066   1.530   2.400
 1292SOL    HW2 1261   2.021   1.380   2.445
 1293SOL     OW 1262   2.102   1.091   2.748
 1293SOL    HW1 1263   2.116   1.007   2.800
 1293SOL    HW2 1264   2.047   1.155   2.803
 1294SOL     OW 1265   2.482   1.786   3.301
 1294SOL    HW1 1266   2.390   1.769   3.336
 1294SOL    HW2 1267   2.510   1.878   3.327
 1295SOL     OW 1268   2.468   0.964   1.985
 1295SOL    HW1 1269   2.475   1.048   1.931
 1295SOL    HW2 1270   2.514   0.977   2.073
 1297SOL     OW 1271   1.984   0.643   2.425
 1297SOL    HW1 1272   1.939   0.555   2.442
 1297SOL    HW2 1273   1.983   0.697   2.509
 1298SOL     OW 1274   3.704   1.767   2.221
 1298SOL    HW1 1275   3.758   1.738   2.301
 1298SOL    HW2 1276   3.734   1.857   2.192
 1299SOL     OW 1277   1.889   1.596   1.979
 1299SOL    HW1 1278   1.870   1.500   2.000
 1299SOL    HW2 1279   1.856   1.654   2.054
 1301SOL     OW 1280   3.503   1.108   2.294
 1301SOL    HW1 1281   3.589   1.110   2.242
 1301SOL    HW2 1282   3.517   1.155   2.382
 1303SOL     OW 1283   2.475   1.365   2.588
 1303SOL    HW1 1284   2.426   1.278   2.597
 1303SOL    HW2 1285   2.452   1.408   2.501
 1306SOL     OW 1286   2.059   0.976   3.126
 1306SOL    HW1 1287   2.148   0.931   3.112
 1306SOL    HW2 1288   1.986   0.911   3.107
 1307SOL     OW 1289   3.387   0.999   2.052
 1307SOL    HW1 1290   3.324   0.923   2.065
 1307SOL    HW2 1291   3.435   1.017   2.138
 1308SOL     OW 1292   3.049   1.792   3.478
 1308SOL    HW1 1293   3.073   1.852   3.402
 1308SOL    HW2 1294   3.056   1.697   3.448
 1310SOL     OW 1295   3.328   1.417   2.815
 1310SOL    HW1 1296   3.269   1.423   2.895
 1310SOL    HW2 1297   3.313   1.329   2.769
 1311SOL     OW 1298   3.529   1.714   2.434
 1311SOL    HW1 1299   3.488   1.691   2.346
 1311SOL    HW2 1300   3.511   1.640   2.499
 1312SOL     OW 1301   2.460   0.729   2.132
 1312SOL    HW1 1302   2.484   0.798   2.064
 1312SOL    HW2 1303   2.382   0.762   2.186
 1314SOL     OW 1304   3.438   1.662   2.169
 1314SOL    HW1 1305   3.527   1.708   2.172
 1314SOL    HW2 1306   3.417   1.638   2.074
 1319SOL     OW 1307   2.903   0.701   2.291
 1319SOL    HW1 1308   2.929   0.697   2.387
 1319SOL    HW2 1309   2.818   0.650   2.277
 1320SOL     OW 1310   1.938   0.811   2.651
 1320SOL    HW1 1311   2.037   0.799   2.660
 1320SOL    HW2 1312   1.914   0.906   2.672
 1321SOL     OW 1313   1.992   1.821   3.433
 1321SOL    HW1 1314   1.982   1.806   3.532
 1321SOL    HW2 1315   1.906   1.857   3.397
 1324SOL     OW 1316   3.224   1.144   2.407
 1324SOL    HW1 1317   3.307   1.115   2.359
 1324SOL    HW2 1318   3.175   1.211   2.351
 1326SOL     OW 1319   2.870   1.456   2.339
 1326SOL    HW1 1320   2.824   1.528   2.287
 1326SOL    HW2 1321   2.866   1.476   2.437
 1327SOL     OW 1322   2.213   1.801   2.715
 1327SOL    HW1 1323   2.263   1.715   2.721
 1327SOL    HW2 1324   2.278   1.878   2.712
 1329SOL     OW 1325   3.089   1.550   3.368
 1329SOL    HW1 1326   3.095   1.473   3.432
 1329SOL    HW2 1327   3.037   1.524   3.288
 1330SOL     OW 1328   2.183   0.943   2.104
 1330SOL    HW1 1329   2.265   0.982   2.062
 1330SOL    HW2 1330   2.156   0.861   2.055
 1332SOL     OW 1331   2.323   1.266   3.589
 1332SOL    HW1 1332   2.273   1.267   3.503
 1332SOL    HW2 1333   2.260   1.248   3.665
 1333SOL     OW 1334   2.973   1.776   2.099
 1333SOL    HW1 1335   2.913   1.714   2.149
 1333SOL    HW2 1336   3.004   1.732   2.014
 1335SOL     OW 1337   3.494   1.377   1.943
 1335SOL    HW1 1338   3.462   1.471   1.933
 1335SOL    HW2 1339   3.418   1.314   1.931
 1336SOL     OW 1340   2.326   1.743   2.185
 1336SOL    HW1 1341   2.359   1.782   2.271
 1336SOL    HW2 1342   2.402   1.736   2.120
 1338SOL     OW 1343   2.111   1.785   3.103
 1338SOL    HW1 1344   2.168   1.720   3.153
 1338SOL    HW2 1345   2.095   1.752   3.010
 1339SOL     OW 1346   2.802   1.698   2.766
 1339SOL    HW1 1347   2.882   1.641   2.787
 1339SOL    HW2 1348   2.753   1.658   2.689
 1340SOL     OW 1349   2.244   0.700   2.342
 1340SOL    HW1 1350   2.289   0.610   2.339
 1340SOL    HW2 1351   2.150   0.689   2.375
 1344SOL     OW 1352   2.750   1.514   3.057
 1344SOL    HW1 1353   2.727   1.489   2.963
 1344SOL    HW2 1354   2.811   1.445   3.096
 1346SOL     OW 1355   2.665   1.402   2.786
 1346SOL    HW1 1356   2.755   1.416   2.744
 1346SOL    HW2 1357   2.594   1.404   2.715
 1349SOL     OW 1358   3.296   1.188   1.903
 1349SOL    HW1 1359   3.328   1.112   1.960
 1349SOL    HW2 1360   3.204   1.215   1.933
 1353SOL     OW 1361   3.089   1.570   2.655
 1353SOL    HW1 1362   3.110   1.644   2.590
 1353SOL    HW2 1363   3.157   1.570   2.728
 1354SOL     OW 1364   2.321   1.152   2.603
 1354SOL    HW1 1365   2.250   1.125   2.668
 1354SOL    HW2 1366   2.295   1.124   2.510
 1355SOL     OW 1367   3.133   1.797   2.453
 1355SOL    HW1 1368   3.177   1.861   2.389
 1355SOL    HW2 1369   3.083   1.849   2.523
 1356SOL     OW 1370   2.894   0.549   1.878
 1356SOL    HW1 1371   2.853   0.631   1.839
 1356SOL    HW2 1372   2.958   0.575   1.951
 1361SOL     OW 1373   3.291   1.173   2.729
 1361SOL    HW1 1374   3.236   1.089   2.722
 1361SOL    HW2 1375   3.317   1.202   2.637
 1364SOL     OW 1376   2.350   1.385   2.036
 1364SOL    HW1 1377   2.263   1.370   2.083
 1364SOL    HW2 1378   2.333   1.411   1.941
 1365SOL     OW 1379   3.526   1.280   2.519
 1365SOL    HW1 1380   3.625   1.288   2.533
 1365SOL    HW2 1381   3.481   1.364   2.550
 1369SOL     OW 1382   2.926   1.347   3.202
 1369SOL    HW1 1383   2.846   1.324   3.257
 1369SOL    HW2 1384   3.009   1.321   3.251
 1371SOL     OW 1385   2.973   1.195   2.962
 1371SOL    HW1 1386   2.933   1.239   3.043
 1371SOL    HW2 1387   2.932   1.232   2.879
 1375SOL     OW 1388   2.567   1.050   2.230
 1375SOL    HW1 1389   2.553   1.057   2.329
 1375SOL    HW2 1390   2.651   0.999   2.212
 1376SOL     OW 1391   2.272   0.813   3.113
 1376SOL    HW1 1392   2.358   0.825   3.163
 1376SOL    HW2 1393   2.230   0.726   3.140
 1378SOL     OW 1394   1.926   1.564   3.193
 1378SOL    HW1 1395   1.880   1.646   3.159
 1378SOL    HW2 1396   2.024   1.583   3.202
 1379SOL     OW 1397   2.229   1.100   2.363
 1379SOL    HW1 1398   2.222   1.183   2.307
 1379SOL    HW2 1399   2.233   1.020   2.303
 1380SOL     OW 1400   2.428   0.537   2.727
 1380SOL    HW1 1401   2.440   0.603   2.653
 1380SOL    HW2 1402   2.474   0.571   2.810
 1381SOL     OW 1403   3.114   1.348   2.250
 1381SOL    HW1 1404   3.164   1.425   2.290
 1381SOL    HW2 1405   3.019   1.350   2.282
 1382SOL     OW 1406   3.134   1.445   3.004
 1382SOL    HW1 1407   3.181   1.458   3.091
 1382SOL    HW2 1408   3.068   1.371   3.013
 1384SOL     OW 1409   2.216   1.510   3.191
 1384SOL    HW1 1410   2.195   1.466   3.104
 1384SOL    HW2 1411   2.313   1.536   3.194
 1389SOL     OW 1412   2.435   0.870   2.891
 1389SOL    HW1 1413   2.479   0.959   2.882
 1389SOL    HW2 1414   2.372   0.870   2.968
 1393SOL     OW 1415   1.899   1.310   3.144
 1393SOL    HW1 1416   1.952   1.261   3.212
 1393SOL    HW2 1417   1.921   1.408   3.149
 1394SOL     OW 1418   2.594   0.634   2.926
 1394SOL    HW1 1419   2.653   0.608   2.850
 1394SOL    HW2 1420   2.566   0.730   2.915
 1398SOL     OW 1421   2.885   0.766   2.828
 1398SOL    HW1 1422   2.900   0.787   2.924
 1398SOL    HW2 1423   2.855   0.671   2.819
 1399SOL     OW 1424   2.842   1.573   3.562
 1399SOL    HW1 1425   2.822   1.617   3.474
 1399SOL    HW2 1426   2.881   1.482   3.546
 1403SOL     OW 1427   3.165   0.838   1.904
 1403SOL    HW1 1428   3.199   0.745   1.919
 1403SOL    HW2 1429   3.183   0.865   1.809
 1404SOL     OW 1430   2.930   1.333   2.711
 1404SOL    HW1 1431   2.937   1.249   2.656
 1404SOL    HW2 1432   2.992   1.402   2.675
 1405SOL     OW 1433   2.181   0.810   2.811
 1405SOL    HW1 1434   2.274   0.846   2.816
 1405SOL    HW2 1435   2.175   0.725   2.863
 1406SOL     OW 1436   2.201   0.509   2.868
 1406SOL    HW1 1437   2.149   0.426   2.851
 1406SOL    HW2 1438   2.278   0.514   2.804
 1409SOL     OW 1439   1.870   1.326   2.062
 1409SOL    HW1 1440   1.777   1.347   2.031
 1409SOL    HW2 1441   1.880   1.227   2.075
 1410SOL     OW 1442   1.950   1.801   2.789
 1410SOL    HW1 1443   1.908   1.715   2.762
 1410SOL    HW2 1444   2.044   1.804   2.755
 1411SOL     OW 1445   2.366   1.568   2.772
 1411SOL    HW1 1446   2.432   1.642   2.781
 1411SOL    HW2 1447   2.410   1.489   2.730
 1413SOL     OW 1448   1.902   0.544   2.976
 1413SOL    HW1 1449   1.987   0.511   2.935
 1413SOL    HW2 1450   1.915   0.559   3.074
 1416SOL     OW 1451   2.677   0.572   2.187
 1416SOL    HW1 1452   2.684   0.483   2.141
 1416SOL    HW2 1453   2.583   0.606   2.179
 1418SOL     OW 1454   2.114   1.564   3.606
 1418SOL    HW1 1455   2.084   1.621   3.682
 1418SOL    HW2 1456   2.107   1.467   3.632
 1420SOL     OW 1457   2.792   1.678   3.327
 1420SOL    HW1 1458   2.768   1.660   3.232
 1420SOL    HW2 1459   2.822   1.772   3.337
 1421SOL     OW 1460   2.335   0.500   2.053
 1421SOL    HW1 1461   2.396   0.580   2.057
 1421SOL    HW2 1462   2.240   0.531   2.060
 1422SOL     OW 1463   2.021   1.137   3.328
 1422SOL    HW1 1464   2.043   1.076   3.404
 1422SOL    HW2 1465   2.031   1.088   3.242
 1424SOL     OW 1466   3.164   0.855   2.171
 1424SOL    HW1 1467   3.078   0.824   2.213
 1424SOL    HW2 1468   3.160   0.841   2.072
 1426SOL     OW 1469   3.114   1.731   2.990
 1426SOL    HW1 1470   3.198   1.736   2.936
 1426SOL    HW2 1471   3.091   1.635   3.008
 1427SOL     OW 1472   1.945   1.258   2.884
 1427SOL    HW1 1473   1.940   1.257   2.984
 1427SOL    HW2 1474   1.862   1.217   2.846
 1428SOL     OW 1475   2.550   1.662   3.578
 1428SOL    HW1 1476   2.494   1.743   3.587
 1428SOL    HW2 1477   2.602   1.666   3.492
 1430SOL     OW 1478   3.250   1.573   2.339
 1430SOL    HW1 1479   3.317   1.585   2.265
 1430SOL    HW2 1480   3.210   1.662   2.362
 1431SOL     OW 1481   1.992   1.794   3.713
 1431SOL    HW1 1482   1.951   1.720   3.766
 1431SOL    HW2 1483   2.056   1.845   3.771
 1432SOL     OW 1484   3.142   0.927   2.534
 1432SOL    HW1 1485   3.202   0.846   2.536
 1432SOL    HW2 1486   3.182   0.996   2.474
 1433SOL     OW 1487   2.692   1.273   3.284
 1433SOL    HW1 1488   2.687   1.306   3.379
 1433SOL    HW2 1489   2.606   1.292   3.238
 1434SOL     OW 1490   2.534   1.616   2.016
 1434SOL    HW1 1491   2.543   1.626   1.917
 1434SOL    HW2 1492   2.494   1.527   2.037
 1438SOL     OW 1493   3.056   1.612   1.893
 1438SOL    HW1 1494   3.062   1.519   1.930
 1438SOL    HW2 1495   2.997   1.612   1.813
 1439SOL     OW 1496   2.684   1.002   3.234
 1439SOL    HW1 1497   2.724   1.001   3.142
 1439SOL    HW2 1498   2.694   1.094   3.274
 1440SOL     OW 1499   2.778   0.910   2.153
 1440SOL    HW1 1500   2.841   0.948   2.085
 1440SOL    HW2 1501   2.818   0.827   2.192
 1441SOL     OW 1502   3.366   1.607   1.906
 1441SOL    HW1 1503   3.274   1.644   1.913
 1441SOL    HW2 1504   3.404   1.627   1.816
 1442SOL     OW 1505   2.234   1.288   3.352
 1442SOL    HW1 1506   2.221   1.381   3.318
 1442SOL    HW2 1507   2.150   1.236   3.339
 1444SOL     OW 1508   2.901   1.098   2.558
 1444SOL    HW1 1509   2.831   1.051   2.612
 1444SOL    HW2 1510   2.960   1.030   2.515
 1446SOL     OW 1511   2.452   1.487   2.353
 1446SOL    HW1 1512   2.494   1.429   2.283
 1446SOL    HW2 1513   2.408   1.566   2.309
 1448SOL     OW 1514   2.117   1.348   2.152
 1448SOL    HW1 1515   2.021   1.349   2.125
 1448SOL    HW2 1516   2.129   1.401   2.236
 1451SOL     OW 1517   1.937   0.345   1.895
 1451SOL    HW1 1518   1.845   0.317   1.866
 1451SOL    HW2 1519   1.968   0.422   1.839
 1454SOL     OW 1520   3.045   1.335   1.981
 1454SOL    HW1 1521   2.946   1.324   1.983
 1454SOL    HW2 1522   3.079   1.350   2.074
 1455SOL     OW 1523   2.475   0.842   3.293
 1455SOL    HW1 1524   2.531   0.923   3.276
 1455SOL    HW2 1525   2.534   0.762   3.296
 1456SOL     OW 1526   3.355   1.767   2.821
 1456SOL    HW1 1527   3.388   1.831   2.752
 1456SOL    HW2 1528   3.421   1.761   2.896
 1459SOL     OW 1529   2.252   1.741   3.422
 1459SOL    HW1 1530   2.161   1.782   3.420
 1459SOL    HW2 1531   2.245   1.647   3.454
 1462SOL     OW 1532   2.456   0.745   2.514
 1462SOL    HW1 1533   2.506   0.830   2.495
 1462SOL    HW2 1534   2.368   0.747   2.466
 1465SOL     OW 1535   2.721   1.374   1.878
 1465SOL    HW1 1536   2.675   1.389   1.966
 1465SOL    HW2 1537   2.765   1.459   1.848
 1466SOL     OW 1538   2.523   1.790   2.815
 1466SOL    HW1 1539   2.477   1.878   2.802
 1466SOL    HW2 1540   2.622   1.802   2.808
 1467SOL     OW 1541   2.721   0.956   2.723
 1467SOL    HW1 1542   2.775   0.887   2.771
 1467SOL    HW2 1543   2.689   1.025   2.789
 1468SOL     OW 1544   2.945   0.984   1.949
 1468SOL    HW1 1545   2.922   1.037   1.867
 1468SOL    HW2 1546   3.026   0.928   1.930
 1470SOL     OW 1547   2.083   1.314   3.706
 1470SOL    HW1 1548   2.018   1.241   3.685
 1470SOL    HW2 1549   2.087   1.328   3.804
 1471SOL     OW 1550   1.941   1.240   2.515
 1471SOL    HW1 1551   1.940   1.193   2.603
 1471SOL    HW2 1552   2.023   1.212   2.464
 1472SOL     OW 1553   2.534   1.391   3.486
 1472SOL    HW1 1554   2.456   1.341   3.524
 1472SOL    HW2 1555   2.531   1.486   3.517
 1474SOL     OW 1556   2.290   0.424   2.382
 1474SOL    HW1 1557   2.320   0.352   2.320
 1474SOL    HW2 1558   2.251   0.384   2.465
 1477SOL     OW 1559   2.674   1.586   2.549
 1477SOL    HW1 1560   2.706   1.596   2.455
 1477SOL    HW2 1561   2.595   1.524   2.551
 1480SOL     OW 1562   2.632   1.330   2.163
 1480SOL    HW1 1563   2.586   1.243   2.180
 1480SOL    HW2 1564   2.723   1.327   2.204
 1481SOL     OW 1565   2.480   1.567   3.146
 1481SOL    HW1 1566   2.475   1.649   3.203
 1481SOL    HW2 1567   2.569   1.564   3.101
 1485SOL     OW 1568   1.901   1.077   2.162
 1485SOL    HW1 1569   2.000   1.066   2.153
 1485SOL    HW2 1570   1.861   0.991   2.194
 1486SOL     OW 1571   2.737   1.646   2.199
 1486SOL    HW1 1572   2.660   1.611   2.145
 1486SOL    HW2 1573   2.705   1.717   2.261
 1535SOL     OW 1574   2.087   2.137   0.996
 1535SOL    HW1 1575   2.122   2.120   1.088
 1535SOL    HW2 1576   1.999   2.092   0.984
 1536SOL     OW 1577   1.881   2.230   0.647
 1536SOL    HW1 1578   1.799   2.273   0.686
 1536SOL    HW2 1579   1.853   2.157   0.584
 1537SOL     OW 1580   2.431   3.137   1.165
 1537SOL    HW1 1581   2.338   3.130   1.128
 1537SOL    HW2 1582   2.442   3.226   1.209
 1539SOL     OW 1583   2.997   2.565   0.717
 1539SOL    HW1 1584   3.054   2.643   0.692
 1539SOL    HW2 1585   2.937   2.591   0.793
 1541SOL     OW 1586   2.630   3.006   1.023
 1541SOL    HW1 1587   2.552   3.023   1.083
 1541SOL    HW2 1588   2.664   3.093   0.987
 1542SOL     OW 1589   2.712   2.660   1.823
 1542SOL    HW1 1590   2.708   2.736   1.888
 1542SOL    HW2 1591   2.734   2.696   1.732
 1543SOL     OW 1592   2.547   2.874   0.665
 1543SOL    HW1 1593   2.616   2.858   0.735
 1543SOL    HW2 1594   2.474   2.931   0.703
 1544SOL     OW 1595   2.548   3.023   1.803
 1544SOL    HW1 1596   2.608   3.102   1.817
 1544SOL    HW2 1597   2.462   3.054   1.762
 1545SOL     OW 1598   2.197   3.297   1.061
 1545SOL    HW1 1599   2.119   3.266   1.008
 1545SOL    HW2 1600   2.255   3.355   1.004
 1547SOL     OW 1601   2.300   2.254   1.499
 1547SOL    HW1 1602   2.382   2.198   1.508
 1547SOL    HW2 1603   2.219   2.196   1.503
 1550SOL     OW 1604   2.989   3.203   1.690
 1550SOL    HW1 1605   3.036   3.203   1.778
 1550SOL    HW2 1606   2.941   3.116   1.679
 1552SOL     OW 1607   2.102   2.953   0.886
 1552SOL    HW1 1608   2.116   2.869   0.938
 1552SOL    HW2 1609   2.047   3.017   0.941
 1553SOL     OW 1610   2.482   3.648   1.439
 1553SOL    HW1 1611   2.390   3.631   1.474
 1553SOL    HW2 1612   2.510   3.740   1.465
 1555SOL     OW 1613   3.456   1.976   1.480
 1555SOL    HW1 1614   3.438   2.043   1.408
 1555SOL    HW2 1615   3.453   2.022   1.569
 1556SOL     OW 1616   1.984   2.505   0.563
 1556SOL    HW1 1617   1.939   2.417   0.580
 1556SOL    HW2 1618   1.983   2.559   0.647
 1561SOL     OW 1619   1.975   2.599   1.597
 1561SOL    HW1 1620   2.063   2.586   1.642
 1561SOL    HW2 1621   1.962   2.696   1.575
 1563SOL     OW 1622   3.155   3.090   1.423
 1563SOL    HW1 1623   3.192   3.017   1.365
 1563SOL    HW2 1624   3.207   3.095   1.508
 1564SOL     OW 1625   2.671   1.866   0.502
 1564SOL    HW1 1626   2.711   1.957   0.493
 1564SOL    HW2 1627   2.571   1.874   0.508
 1565SOL     OW 1628   2.059   2.838   1.264
 1565SOL    HW1 1629   2.148   2.793   1.250
 1565SOL    HW2 1630   1.986   2.773   1.245
 1568SOL     OW 1631   2.179   2.113   1.801
 1568SOL    HW1 1632   2.250   2.184   1.807
 1568SOL    HW2 1633   2.091   2.152   1.829
 1572SOL     OW 1634   3.143   2.207   0.944
 1572SOL    HW1 1635   3.057   2.157   0.931
 1572SOL    HW2 1636   3.205   2.153   1.000
 1574SOL     OW 1637   2.669   2.467   1.465
 1574SOL    HW1 1638   2.622   2.464   1.554
 1574SOL    HW2 1639   2.618   2.412   1.399
 1575SOL     OW 1640   3.256   2.331   1.674
 1575SOL    HW1 1641   3.236   2.374   1.762
 1575SOL    HW2 1642   3.334   2.269   1.683
 1576SOL     OW 1643   2.835   2.752   1.572
 1576SOL    HW1 1644   2.881   2.668   1.543
 1576SOL    HW2 1645   2.779   2.786   1.497
 1577SOL     OW 1646   2.853   2.272   1.242
 1577SOL    HW1 1647   2.776   2.306   1.296
 1577SOL    HW2 1648   2.819   2.221   1.163
 1579SOL     OW 1649   1.938   2.673   0.789
 1579SOL    HW1 1650   2.037   2.661   0.798
 1579SOL    HW2 1651   1.914   2.768   0.810
 1580SOL     OW 1652   1.992   3.683   1.571
 1580SOL    HW1 1653   1.982   3.668   1.670
 1580SOL    HW2 1654   1.906   3.719   1.535
 1582SOL     OW 1655   3.581   2.447   1.831
 1582SOL    HW1 1656   3.555   2.536   1.795
 1582SOL    HW2 1657   3.579   2.379   1.758
 1584SOL     OW 1658   2.412   2.058   0.885
 1584SOL    HW1 1659   2.407   2.053   0.985
 1584SOL    HW2 1660   2.414   2.154   0.856
 1588SOL     OW 1661   3.089   3.412   1.506
 1588SOL    HW1 1662   3.095   3.335   1.570
 1588SOL    HW2 1663   3.037   3.386   1.426
 1591SOL     OW 1664   2.323   3.128   1.727
 1591SOL    HW1 1665   2.273   3.129   1.641
 1591SOL    HW2 1666   2.260   3.110   1.803
 1593SOL     OW 1667   2.064   2.147   1.498
 1593SOL    HW1 1668   1.984   2.207   1.485
 1593SOL    HW2 1669   2.054   2.098   1.584
 1597SOL     OW 1670   2.111   3.647   1.241
 1597SOL    HW1 1671   2.168   3.582   1.291
 1597SOL    HW2 1672   2.095   3.614   1.148
 1599SOL     OW 1673   2.244   2.562   0.480
 1599SOL    HW1 1674   2.289   2.472   0.477
 1599SOL    HW2 1675   2.150   2.551   0.513
 1600SOL     OW 1676   3.409   2.084   1.729
 1600SOL    HW1 1677   3.404   2.121   1.821
 1600SOL    HW2 1678   3.337   2.015   1.717
 1602SOL     OW 1679   2.643   2.126   1.749
 1602SOL    HW1 1680   2.710   2.065   1.792
 1602SOL    HW2 1681   2.570   2.145   1.814
 1603SOL     OW 1682   2.750   3.376   1.195
 1603SOL    HW1 1683   2.727   3.351   1.101
 1603SOL    HW2 1684   2.811   3.307   1.234
 1604SOL     OW 1685   3.213   2.452   1.433
 1604SOL    HW1 1686   3.241   2.409   1.518
 1604SOL    HW2 1687   3.238   2.548   1.434
 1605SOL     OW 1688   2.665   3.264   0.924
 1605SOL    HW1 1689   2.755   3.278   0.882
 1605SOL    HW2 1690   2.594   3.266   0.853
 1606SOL     OW 1691   2.784   2.365   0.899
 1606SOL    HW1 1692   2.759   2.356   0.803
 1606SOL    HW2 1693   2.832   2.283   0.930
 1607SOL     OW 1694   2.401   1.926   0.512
 1607SOL    HW1 1695   2.320   1.927   0.570
 1607SOL    HW2 1696   2.404   2.009   0.457
 1609SOL     OW 1697   2.797   2.098   0.480
 1609SOL    HW1 1698   2.749   2.139   0.402
 1609SOL    HW2 1699   2.896   2.096   0.461
 1610SOL     OW 1700   2.938   2.545   1.464
 1610SOL    HW1 1701   2.858   2.484   1.467
 1610SOL    HW2 1702   3.019   2.492   1.440
 1612SOL     OW 1703   2.321   3.014   0.741
 1612SOL    HW1 1704   2.250   2.987   0.806
 1612SOL    HW2 1705   2.295   2.986   0.648
 1615SOL     OW 1706   1.940   2.418   1.386
 1615SOL    HW1 1707   2.032   2.417   1.345
 1615SOL    HW2 1708   1.934   2.492   1.453
 1616SOL     OW 1709   2.423   2.084   1.147
 1616SOL    HW1 1710   2.461   2.000   1.184
 1616SOL    HW2 1711   2.335   2.103   1.191
 1617SOL     OW 1712   2.728   2.316   0.642
 1617SOL    HW1 1713   2.696   2.388   0.580
 1617SOL    HW2 1714   2.752   2.235   0.589
 1618SOL     OW 1715   2.879   1.901   0.753
 1618SOL    HW1 1716   2.807   1.906   0.684
 1618SOL    HW2 1717   2.855   1.832   0.822
 1620SOL     OW 1718   3.328   2.452   0.992
 1620SOL    HW1 1719   3.298   2.357   0.999
 1620SOL    HW2 1720   3.401   2.468   1.058
 1625SOL     OW 1721   2.389   2.118   0.328
 1625SOL    HW1 1722   2.416   2.059   0.253
 1625SOL    HW2 1723   2.389   2.213   0.297
 1627SOL     OW 1724   2.926   3.209   1.340
 1627SOL    HW1 1725   2.846   3.186   1.395
 1627SOL    HW2 1726   3.009   3.183   1.389
 1629SOL     OW 1727   2.973   3.057   1.100
 1629SOL    HW1 1728   2.933   3.101   1.181
 1629SOL    HW2 1729   2.932   3.094   1.017
 1631SOL     OW 1730   2.777   1.951   1.402
 1631SOL    HW1 1731   2.802   1.931   1.307
 1631SOL    HW2 1732   2.849   2.007   1.444
 1632SOL     OW 1733   2.842   2.978   1.719
 1632SOL    HW1 1734   2.743   2.984   1.729
 1632SOL    HW2 1735   2.865   2.898   1.663
 1634SOL     OW 1736   2.272   2.675   1.251
 1634SOL    HW1 1737   2.358   2.687   1.301
 1634SOL    HW2 1738   2.230   2.588   1.278
 1635SOL     OW 1739   3.136   2.248   1.262
 1635SOL    HW1 1740   3.157   2.322   1.326
 1635SOL    HW2 1741   3.047   2.265   1.219
 1636SOL     OW 1742   1.926   3.426   1.331
 1636SOL    HW1 1743   1.880   3.508   1.297
 1636SOL    HW2 1744   2.024   3.445   1.340
 1638SOL     OW 1745   2.428   2.399   0.865
 1638SOL    HW1 1746   2.440   2.465   0.791
 1638SOL    HW2 1747   2.474   2.433   0.948
 1642SOL     OW 1748   2.216   3.372   1.329
 1642SOL    HW1 1749   2.195   3.328   1.242
 1642SOL    HW2 1750   2.313   3.398   1.332
 1643SOL     OW 1751   2.264   2.613   1.598
 1643SOL    HW1 1752   2.332   2.668   1.551
 1643SOL    HW2 1753   2.304   2.525   1.625
 1644SOL     OW 1754   3.449   2.641   1.670
 1644SOL    HW1 1755   3.357   2.679   1.665
 1644SOL    HW2 1756   3.509   2.688   1.605
 1645SOL     OW 1757   2.875   1.967   1.770
 1645SOL    HW1 1758   2.881   2.052   1.718
 1645SOL    HW2 1759   2.907   1.891   1.713
 1646SOL     OW 1760   2.366   1.912   1.740
 1646SOL    HW1 1761   2.324   1.855   1.670
 1646SOL    HW2 1762   2.300   1.981   1.772
 1647SOL     OW 1763   2.435   2.732   1.029
 1647SOL    HW1 1764   2.479   2.821   1.020
 1647SOL    HW2 1765   2.372   2.732   1.106
 1648SOL     OW 1766   3.222   2.724   1.045
 1648SOL    HW1 1767   3.147   2.724   0.979
 1648SOL    HW2 1768   3.259   2.632   1.054
 1650SOL     OW 1769   2.169   2.075   1.231
 1650SOL    HW1 1770   2.146   2.112   1.321
 1650SOL    HW2 1771   2.139   1.980   1.225
 1651SOL     OW 1772   1.899   3.172   1.282
 1651SOL    HW1 1773   1.952   3.123   1.350
 1651SOL    HW2 1774   1.921   3.270   1.287
 1652SOL     OW 1775   2.594   2.496   1.064
 1652SOL    HW1 1776   2.653   2.470   0.988
 1652SOL    HW2 1777   2.566   2.592   1.053
 1653SOL     OW 1778   3.590   2.797   1.854
 1653SOL    HW1 1779   3.544   2.790   1.765
 1653SOL    HW2 1780   3.528   2.841   1.920
 1654SOL     OW 1781   2.169   1.925   0.618
 1654SOL    HW1 1782   2.158   2.019   0.651
 1654SOL    HW2 1783   2.164   1.862   0.695
 1656SOL     OW 1784   2.885   2.628   0.966
 1656SOL    HW1 1785   2.900   2.649   1.062
 1656SOL    HW2 1786   2.855   2.533   0.957
 1657SOL     OW 1787   2.842   3.435   1.700
 1657SOL    HW1 1788   2.822   3.479   1.612
 1657SOL    HW2 1789   2.881   3.344   1.684
 1659SOL     OW 1790   2.212   2.760   1.804
 1659SOL    HW1 1791   2.288   2.804   1.852
 1659SOL    HW2 1792   2.247   2.713   1.722
 1663SOL     OW 1793   2.181   2.672   0.949
 1663SOL    HW1 1794   2.274   2.708   0.954
 1663SOL    HW2 1795   2.175   2.587   1.001
 1664SOL     OW 1796   2.201   2.371   1.006
 1664SOL    HW1 1797   2.149   2.288   0.989
 1664SOL    HW2 1798   2.278   2.376   0.942
 1665SOL     OW 1799   3.000   2.242   1.678
 1665SOL    HW1 1800   2.955   2.305   1.742
 1665SOL    HW2 1801   3.093   2.273   1.661
 1666SOL     OW 1802   3.022   2.069   1.477
 1666SOL    HW1 1803   3.022   2.133   1.554
 1666SOL    HW2 1804   3.050   2.117   1.394
 1670SOL     OW 1805   2.864   2.658   1.238
 1670SOL    HW1 1806   2.905   2.626   1.324
 1670SOL    HW2 1807   2.768   2.631   1.235
 1671SOL     OW 1808   1.902   2.406   1.114
 1671SOL    HW1 1809   1.987   2.373   1.073
 1671SOL    HW2 1810   1.915   2.421   1.212
 1672SOL     OW 1811   2.051   2.382   1.722
 1672SOL    HW1 1812   2.110   2.342   1.652
 1672SOL    HW2 1813   1.993   2.453   1.681
 1673SOL     OW 1814   3.231   2.812   1.660
 1673SOL    HW1 1815   3.270   2.901   1.680
 1673SOL    HW2 1816   3.241   2.792   1.563
 1675SOL     OW 1817   3.519   2.466   1.206
 1675SOL    HW1 1818   3.481   2.397   1.268
 1675SOL    HW2 1819   3.601   2.430   1.162
 1676SOL     OW 1820   2.114   3.426   1.744
 1676SOL    HW1 1821   2.084   3.483   1.820
 1676SOL    HW2 1822   2.107   3.329   1.770
 1677SOL     OW 1823   2.533   2.326   1.269
 1677SOL    HW1 1824   2.499   2.237   1.239
 1677SOL    HW2 1825   2.559   2.380   1.189
 1678SOL     OW 1826   2.792   3.540   1.465
 1678SOL    HW1 1827   2.768   3.522   1.370
 1678SOL    HW2 1828   2.822   3.634   1.475
 1680SOL     OW 1829   2.021   2.999   1.466
 1680SOL    HW1 1830   2.043   2.938   1.542
 1680SOL    HW2 1831   2.031   2.950   1.380
 1681SOL     OW 1832   3.209   2.921   1.234
 1681SOL    HW1 1833   3.233   2.858   1.160
 1681SOL    HW2 1834   3.119   2.961   1.216
 1685SOL     OW 1835   1.945   3.120   1.022
 1685SOL    HW1 1836   1.940   3.119   1.122
 1685SOL    HW2 1837   1.862   3.079   0.984
 1686SOL     OW 1838   2.550   3.524   1.716
 1686SOL    HW1 1839   2.494   3.605   1.725
 1686SOL    HW2 1840   2.602   3.528   1.630
 1690SOL     OW 1841   1.992   3.656   1.851
 1690SOL    HW1 1842   1.951   3.582   1.904
 1690SOL    HW2 1843   2.056   3.707   1.909
 1692SOL     OW 1844   2.692   3.135   1.422
 1692SOL    HW1 1845   2.687   3.168   1.517
 1692SOL    HW2 1846   2.606   3.154   1.376
 1696SOL     OW 1847   2.125   2.188   0.720
 1696SOL    HW1 1848   2.046   2.239   0.686
 1696SOL    HW2 1849   2.116   2.173   0.818
 1698SOL     OW 1850   2.684   2.864   1.372
 1698SOL    HW1 1851   2.724   2.863   1.280
 1698SOL    HW2 1852   2.694   2.956   1.412
 1701SOL     OW 1853   2.234   3.150   1.490
 1701SOL    HW1 1854   2.221   3.243   1.456
 1701SOL    HW2 1855   2.150   3.098   1.477
 1704SOL     OW 1856   2.876   2.098   0.971
 1704SOL    HW1 1857   2.868   2.062   0.878
 1704SOL    HW2 1858   2.874   2.022   1.036
 1706SOL     OW 1859   3.571   2.247   1.381
 1706SOL    HW1 1860   3.644   2.316   1.385
 1706SOL    HW2 1861   3.599   2.172   1.322
 1708SOL     OW 1862   1.967   2.875   1.726
 1708SOL    HW1 1863   1.890   2.842   1.780
 1708SOL    HW2 1864   2.052   2.845   1.768
 1709SOL     OW 1865   2.534   2.065   1.489
 1709SOL    HW1 1866   2.624   2.049   1.449
 1709SOL    HW2 1867   2.542   2.070   1.588
 1711SOL     OW 1868   3.302   2.718   1.398
 1711SOL    HW1 1869   3.245   2.770   1.335
 1711SOL    HW2 1870   3.398   2.730   1.374
 1712SOL     OW 1871   1.934   2.028   0.318
 1712SOL    HW1 1872   1.917   2.111   0.264
 1712SOL    HW2 1873   2.024   1.991   0.296
 1714SOL     OW 1874   2.475   2.704   1.431
 1714SOL    HW1 1875   2.531   2.785   1.414
 1714SOL    HW2 1876   2.534   2.624   1.434
 1716SOL     OW 1877   2.578   2.427   1.708
 1716SOL    HW1 1878   2.597   2.492   1.782
 1716SOL    HW2 1879   2.638   2.347   1.717
 1717SOL     OW 1880   3.312   3.082   1.633
 1717SOL    HW1 1881   3.303   3.072   1.732
 1717SOL    HW2 1882   3.408   3.075   1.607
 1718SOL     OW 1883   2.252   3.603   1.560
 1718SOL    HW1 1884   2.161   3.644   1.558
 1718SOL    HW2 1885   2.245   3.509   1.592
 1719SOL     OW 1886   3.536   2.745   1.254
 1719SOL    HW1 1887   3.509   2.656   1.217
 1719SOL    HW2 1888   3.537   2.813   1.181
 1721SOL     OW 1889   2.456   2.607   0.652
 1721SOL    HW1 1890   2.506   2.692   0.633
 1721SOL    HW2 1891   2.368   2.609   0.604
 1722SOL     OW 1892   3.639   2.204   1.642
 1722SOL    HW1 1893   3.622   2.235   1.548
 1722SOL    HW2 1894   3.555   2.167   1.680
 1723SOL     OW 1895   3.592   2.796   1.517
 1723SOL    HW1 1896   3.630   2.887   1.532
 1723SOL    HW2 1897   3.584   2.779   1.418
 1726SOL     OW 1898   2.721   2.818   0.861
 1726SOL    HW1 1899   2.775   2.749   0.909
 1726SOL    HW2 1900   2.689   2.887   0.927
 1729SOL     OW 1901   2.083   3.176   1.844
 1729SOL    HW1 1902   2.018   3.103   1.823
 1729SOL    HW2 1903   2.087   3.190   1.942
 1730SOL     OW 1904   1.941   3.102   0.653
 1730SOL    HW1 1905   1.940   3.055   0.741
 1730SOL    HW2 1906   2.023   3.074   0.602
 1731SOL     OW 1907   2.534   3.253   1.624
 1731SOL    HW1 1908   2.456   3.203   1.662
 1731SOL    HW2 1909   2.531   3.348   1.655
 1733SOL     OW 1910   2.290   2.286   0.520
 1733SOL    HW1 1911   2.320   2.214   0.458
 1733SOL    HW2 1912   2.251   2.246   0.603
 1735SOL     OW 1913   2.179   2.409   1.280
 1735SOL    HW1 1914   2.217   2.350   1.352
 1735SOL    HW2 1915   2.219   2.383   1.192
 1737SOL     OW 1916   3.286   2.076   1.112
 1737SOL    HW1 1917   3.338   2.011   1.167
 1737SOL    HW2 1918   3.237   2.139   1.173
 1738SOL     OW 1919   2.863   1.896   1.154
 1738SOL    HW1 1920   2.800   1.824   1.123
 1738SOL    HW2 1921   2.956   1.860   1.154
 1740SOL     OW 1922   2.480   3.429   1.284
 1740SOL    HW1 1923   2.475   3.511   1.341
 1740SOL    HW2 1924   2.569   3.426   1.239
 1742SOL     OW 1925   3.162   2.315   0.691
 1742SOL    HW1 1926   3.103   2.395   0.695
 1742SOL    HW2 1927   3.177   2.280   0.784
 1746SOL     OW 1928   2.092   2.490   1.975
 1746SOL    HW1 1929   1.999   2.488   2.012
 1746SOL    HW2 1930   2.093   2.451   1.883
 1747SOL     OW 1931   2.087   2.137   2.858
 1747SOL    HW1 1932   2.122   2.120   2.950
 1747SOL    HW2 1933   1.999   2.092   2.846
 1748SOL     OW 1934   1.881   2.230   2.509
 1748SOL    HW1 1935   1.799   2.273   2.548
 1748SOL    HW2 1936   1.853   2.157   2.446
 1749SOL     OW 1937   2.431   3.137   3.027
 1749SOL    HW1 1938   2.338   3.130   2.990
 1749SOL    HW2 1939   2.442   3.226   3.071
 1751SOL     OW 1940   2.997   2.565   2.579
 1751SOL    HW1 1941   3.054   2.643   2.554
 1751SOL    HW2 1942   2.937   2.591   2.655
 1752SOL     OW 1943   3.617   2.469   2.093
 1752SOL    HW1 1944   3.605   2.456   1.994
 1752SOL    HW2 1945   3.587   2.388   2.142
 1753SOL     OW 1946   2.630   3.006   2.885
 1753SOL    HW1 1947   2.552   3.023   2.945
 1753SOL    HW2 1948   2.664   3.093   2.849
 1755SOL     OW 1949   2.547   2.874   2.527
 1755SOL    HW1 1950   2.616   2.858   2.597
 1755SOL    HW2 1951   2.474   2.931   2.565
 1757SOL     OW 1952   2.197   3.297   2.923
 1757SOL    HW1 1953   2.119   3.266   2.870
 1757SOL    HW2 1954   2.255   3.355   2.866
 1759SOL     OW 1955   2.300   2.254   3.361
 1759SOL    HW1 1956   2.382   2.198   3.370
 1759SOL    HW2 1957   2.219   2.196   3.365
 1760SOL     OW 1958   3.465   2.309   2.599
 1760SOL    HW1 1959   3.391   2.355   2.549
 1760SOL    HW2 1960   3.516   2.377   2.652
 1761SOL     OW 1961   2.093   3.575   2.345
 1761SOL    HW1 1962   2.127   3.652   2.399
 1761SOL    HW2 1963   2.137   3.575   2.255
 1763SOL     OW 1964   2.092   3.296   2.400
 1763SOL    HW1 1965   2.066   3.392   2.400
 1763SOL    HW2 1966   2.021   3.242   2.445
 1764SOL     OW 1967   2.102   2.953   2.748
 1764SOL    HW1 1968   2.116   2.869   2.800
 1764SOL    HW2 1969   2.047   3.017   2.803
 1766SOL     OW 1970   2.468   2.826   1.985
 1766SOL    HW1 1971   2.475   2.910   1.931
 1766SOL    HW2 1972   2.514   2.839   2.073
 1768SOL     OW 1973   1.984   2.505   2.425
 1768SOL    HW1 1974   1.939   2.417   2.442
 1768SOL    HW2 1975   1.983   2.559   2.509
 1770SOL     OW 1976   1.889   3.458   1.979
 1770SOL    HW1 1977   1.870   3.362   2.000
 1770SOL    HW2 1978   1.856   3.516   2.054
 1771SOL     OW 1979   3.551   2.784   2.474
 1771SOL    HW1 1980   3.646   2.755   2.482
 1771SOL    HW2 1981   3.543   2.849   2.399
 1772SOL     OW 1982   3.503   2.970   2.294
 1772SOL    HW1 1983   3.589   2.972   2.242
 1772SOL    HW2 1984   3.517   3.017   2.382
 1773SOL     OW 1985   1.975   2.599   3.459
 1773SOL    HW1 1986   2.063   2.586   3.504
 1773SOL    HW2 1987   1.962   2.696   3.437
 1774SOL     OW 1988   2.475   3.227   2.588
 1774SOL    HW1 1989   2.426   3.140   2.597
 1774SOL    HW2 1990   2.452   3.270   2.501
 1776SOL     OW 1991   2.671   1.866   2.364
 1776SOL    HW1 1992   2.711   1.957   2.355
 1776SOL    HW2 1993   2.571   1.874   2.370
 1777SOL     OW 1994   2.059   2.838   3.126
 1777SOL    HW1 1995   2.148   2.793   3.112
 1777SOL    HW2 1996   1.986   2.773   3.107
 1778SOL     OW 1997   3.387   2.861   2.052
 1778SOL    HW1 1998   3.324   2.785   2.065
 1778SOL    HW2 1999   3.435   2.879   2.138
 1780SOL     OW 2000   2.179   2.113   3.663
 1780SOL    HW1 2001   2.250   2.184   3.669
 1780SOL    HW2 2002   2.091   2.152   3.691
 1783SOL     OW 2003   2.460   2.591   2.132
 1783SOL    HW1 2004   2.484   2.660   2.064
 1783SOL    HW2 2005   2.382   2.624   2.186
 1784SOL     OW 2006   3.143   2.207   2.806
 1784SOL    HW1 2007   3.057   2.157   2.793
 1784SOL    HW2 2008   3.205   2.153   2.862
 1786SOL     OW 2009   2.669   2.467   3.327
 1786SOL    HW1 2010   2.622   2.464   3.416
 1786SOL    HW2 2011   2.618   2.412   3.261
 1788SOL     OW 2012   2.835   2.752   3.434
 1788SOL    HW1 2013   2.881   2.668   3.405
 1788SOL    HW2 2014   2.779   2.786   3.359
 1789SOL     OW 2015   2.853   2.272   3.104
 1789SOL    HW1 2016   2.776   2.306   3.158
 1789SOL    HW2 2017   2.819   2.221   3.025
 1790SOL     OW 2018   2.903   2.563   2.291
 1790SOL    HW1 2019   2.929   2.559   2.387
 1790SOL    HW2 2020   2.818   2.512   2.277
 1791SOL     OW 2021   1.938   2.673   2.651
 1791SOL    HW1 2022   2.037   2.661   2.660
 1791SOL    HW2 2023   1.914   2.768   2.672
 1793SOL     OW 2024   2.727   2.210   2.057
 1793SOL    HW1 2025   2.786   2.273   2.008
 1793SOL    HW2 2026   2.746   2.116   2.028
 1795SOL     OW 2027   3.224   3.006   2.407
 1795SOL    HW1 2028   3.307   2.977   2.359
 1795SOL    HW2 2029   3.175   3.073   2.351
 1796SOL     OW 2030   2.412   2.058   2.747
 1796SOL    HW1 2031   2.407   2.053   2.847
 1796SOL    HW2 2032   2.414   2.154   2.718
 1797SOL     OW 2033   2.870   3.318   2.339
 1797SOL    HW1 2034   2.824   3.390   2.287
 1797SOL    HW2 2035   2.866   3.338   2.437
 1798SOL     OW 2036   2.213   3.663   2.715
 1798SOL    HW1 2037   2.263   3.577   2.721
 1798SOL    HW2 2038   2.278   3.740   2.712
 1801SOL     OW 2039   2.183   2.805   2.104
 1801SOL    HW1 2040   2.265   2.844   2.062
 1801SOL    HW2 2041   2.156   2.723   2.055
 1802SOL     OW 2042   3.320   2.597   2.590
 1802SOL    HW1 2043   3.315   2.532   2.665
 1802SOL    HW2 2044   3.400   2.656   2.603
 1804SOL     OW 2045   2.973   3.638   2.099
 1804SOL    HW1 2046   2.913   3.576   2.149
 1804SOL    HW2 2047   3.004   3.594   2.014
 1805SOL     OW 2048   2.064   2.147   3.360
 1805SOL    HW1 2049   1.984   2.207   3.347
 1805SOL    HW2 2050   2.054   2.098   3.446
 1807SOL     OW 2051   2.326   3.605   2.185
 1807SOL    HW1 2052   2.359   3.644   2.271
 1807SOL    HW2 2053   2.402   3.598   2.120
 1808SOL     OW 2054   3.262   1.969   2.288
 1808SOL    HW1 2055   3.238   1.932   2.198
 1808SOL    HW2 2056   3.361   1.985   2.292
 1810SOL     OW 2057   2.802   3.560   2.766
 1810SOL    HW1 2058   2.882   3.503   2.787
 1810SOL    HW2 2059   2.753   3.520   2.689
 1811SOL     OW 2060   2.244   2.562   2.342
 1811SOL    HW1 2061   2.289   2.472   2.339
 1811SOL    HW2 2062   2.150   2.551   2.375
 1813SOL     OW 2063   2.476   1.984   1.979
 1813SOL    HW1 2064   2.574   1.962   1.986
 1813SOL    HW2 2065   2.445   1.967   1.886
 1814SOL     OW 2066   2.643   2.126   3.611
 1814SOL    HW1 2067   2.710   2.065   3.654
 1814SOL    HW2 2068   2.570   2.145   3.676
 1815SOL     OW 2069   2.750   3.376   3.057
 1815SOL    HW1 2070   2.727   3.351   2.963
 1815SOL    HW2 2071   2.811   3.307   3.096
 1816SOL     OW 2072   3.213   2.452   3.295
 1816SOL    HW1 2073   3.241   2.409   3.380
 1816SOL    HW2 2074   3.238   2.548   3.296
 1817SOL     OW 2075   2.665   3.264   2.786
 1817SOL    HW1 2076   2.755   3.278   2.744
 1817SOL    HW2 2077   2.594   3.266   2.715
 1818SOL     OW 2078   2.784   2.365   2.761
 1818SOL    HW1 2079   2.759   2.356   2.665
 1818SOL    HW2 2080   2.832   2.283   2.792
 1819SOL     OW 2081   2.401   1.926   2.374
 1819SOL    HW1 2082   2.320   1.927   2.432
 1819SOL    HW2 2083   2.404   2.009   2.319
 1820SOL     OW 2084   3.296   3.050   1.903
 1820SOL    HW1 2085   3.328   2.974   1.960
 1820SOL    HW2 2086   3.204   3.077   1.933
 1821SOL     OW 2087   2.797   2.098   2.342
 1821SOL    HW1 2088   2.749   2.139   2.264
 1821SOL    HW2 2089   2.896   2.096   2.323
 1822SOL     OW 2090   2.938   2.545   3.326
 1822SOL    HW1 2091   2.858   2.484   3.329
 1822SOL    HW2 2092   3.019   2.492   3.302
 1823SOL     OW 2093   3.089   3.432   2.655
 1823SOL    HW1 2094   3.110   3.506   2.590
 1823SOL    HW2 2095   3.157   3.432   2.728
 1824SOL     OW 2096   2.321   3.014   2.603
 1824SOL    HW1 2097   2.250   2.987   2.668
 1824SOL    HW2 2098   2.295   2.986   2.510
 1826SOL     OW 2099   2.894   2.411   1.878
 1826SOL    HW1 2100   2.853   2.493   1.839
 1826SOL    HW2 2101   2.958   2.437   1.951
 1827SOL     OW 2102   1.940   2.418   3.248
 1827SOL    HW1 2103   2.032   2.417   3.207
 1827SOL    HW2 2104   1.934   2.492   3.315
 1828SOL     OW 2105   2.423   2.084   3.009
 1828SOL    HW1 2106   2.461   2.000   3.046
 1828SOL    HW2 2107   2.335   2.103   3.053
 1829SOL     OW 2108   2.728   2.316   2.504
 1829SOL    HW1 2109   2.696   2.388   2.442
 1829SOL    HW2 2110   2.752   2.235   2.451
 1830SOL     OW 2111   2.879   1.901   2.615
 1830SOL    HW1 2112   2.807   1.906   2.546
 1830SOL    HW2 2113   2.855   1.832   2.684
 1831SOL     OW 2114   3.291   3.035   2.729
 1831SOL    HW1 2115   3.236   2.951   2.722
 1831SOL    HW2 2116   3.317   3.064   2.637
 1832SOL     OW 2117   3.328   2.452   2.854
 1832SOL    HW1 2118   3.298   2.357   2.861
 1832SOL    HW2 2119   3.401   2.468   2.920
 1833SOL     OW 2120   3.719   2.695   2.239
 1833SOL    HW1 2121   3.761   2.631   2.303
 1833SOL    HW2 2122   3.681   2.644   2.161
 1834SOL     OW 2123   2.350   3.247   2.036
 1834SOL    HW1 2124   2.263   3.232   2.083
 1834SOL    HW2 2125   2.333   3.273   1.941
 1836SOL     OW 2126   3.252   2.437   1.940
 1836SOL    HW1 2127   3.198   2.416   2.021
 1836SOL    HW2 2128   3.343   2.396   1.949
 1837SOL     OW 2129   2.389   2.118   2.190
 1837SOL    HW1 2130   2.416   2.059   2.115
 1837SOL    HW2 2131   2.389   2.213   2.159
 1839SOL     OW 2132   2.926   3.209   3.202
 1839SOL    HW1 2133   2.846   3.186   3.257
 1839SOL    HW2 2134   3.009   3.183   3.251
 1841SOL     OW 2135   2.973   3.057   2.962
 1841SOL    HW1 2136   2.933   3.101   3.043
 1841SOL    HW2 2137   2.932   3.094   2.879
 1843SOL     OW 2138   2.777   1.951   3.264
 1843SOL    HW1 2139   2.802   1.931   3.169
 1843SOL    HW2 2140   2.849   2.007   3.306
 1845SOL     OW 2141   2.567   2.912   2.230
 1845SOL    HW1 2142   2.553   2.919   2.329
 1845SOL    HW2 2143   2.651   2.861   2.212
 1846SOL     OW 2144   2.272   2.675   3.113
 1846SOL    HW1 2145   2.358   2.687   3.163
 1846SOL    HW2 2146   2.230   2.588   3.140
 1847SOL     OW 2147   3.136   2.248   3.124
 1847SOL    HW1 2148   3.157   2.322   3.188
 1847SOL    HW2 2149   3.047   2.265   3.081
 1848SOL     OW 2150   1.926   3.426   3.193
 1848SOL    HW1 2151   1.880   3.508   3.159
 1848SOL    HW2 2152   2.024   3.445   3.202
 1849SOL     OW 2153   2.229   2.962   2.363
 1849SOL    HW1 2154   2.222   3.045   2.307
 1849SOL    HW2 2155   2.233   2.882   2.303
 1850SOL     OW 2156   2.428   2.399   2.727
 1850SOL    HW1 2157   2.440   2.465   2.653
 1850SOL    HW2 2158   2.474   2.433   2.810
 1851SOL     OW 2159   3.114   3.210   2.250
 1851SOL    HW1 2160   3.164   3.287   2.290
 1851SOL    HW2 2161   3.019   3.212   2.282
 1853SOL     OW 2162   3.444   2.501   2.334
 1853SOL    HW1 2163   3.413   2.562   2.407
 1853SOL    HW2 2164   3.494   2.553   2.265
 1854SOL     OW 2165   2.216   3.372   3.191
 1854SOL    HW1 2166   2.195   3.328   3.104
 1854SOL    HW2 2167   2.313   3.398   3.194
 1855SOL     OW 2168   2.264   2.613   3.460
 1855SOL    HW1 2169   2.332   2.668   3.413
 1855SOL    HW2 2170   2.304   2.525   3.487
 1857SOL     OW 2171   2.875   1.967   3.632
 1857SOL    HW1 2172   2.881   2.052   3.580
 1857SOL    HW2 2173   2.907   1.891   3.575
 1858SOL     OW 2174   2.366   1.912   3.602
 1858SOL    HW1 2175   2.324   1.855   3.532
 1858SOL    HW2 2176   2.300   1.981   3.634
 1859SOL     OW 2177   2.435   2.732   2.891
 1859SOL    HW1 2178   2.479   2.821   2.882
 1859SOL    HW2 2179   2.372   2.732   2.968
 1860SOL     OW 2180   3.222   2.724   2.907
 1860SOL    HW1 2181   3.147   2.724   2.841
 1860SOL    HW2 2182   3.259   2.632   2.916
 1861SOL     OW 2183   3.071   2.387   2.137
 1861SOL    HW1 2184   3.084   2.303   2.191
 1861SOL    HW2 2185   3.042   2.461   2.197
 1862SOL     OW 2186   2.169   2.075   3.093
 1862SOL    HW1 2187   2.146   2.112   3.183
 1862SOL    HW2 2188   2.139   1.980   3.087
 1863SOL     OW 2189   1.899   3.172   3.144
 1863SOL    HW1 2190   1.952   3.123   3.212
 1863SOL    HW2 2191   1.921   3.270   3.149
 1864SOL     OW 2192   2.594   2.496   2.926
 1864SOL    HW1 2193   2.653   2.470   2.850
 1864SOL    HW2 2194   2.566   2.592   2.915
 1866SOL     OW 2195   2.169   1.925   2.480
 1866SOL    HW1 2196   2.158   2.019   2.513
 1866SOL    HW2 2197   2.164   1.862   2.557
 1867SOL     OW 2198   3.484   2.229   2.236
 1867SOL    HW1 2199   3.486   2.153   2.300
 1867SOL    HW2 2200   3.436   2.306   2.276
 1868SOL     OW 2201   2.885   2.628   2.828
 1868SOL    HW1 2202   2.900   2.649   2.924
 1868SOL    HW2 2203   2.855   2.533   2.819
 1871SOL     OW 2204   2.212   2.760   3.666
 1871SOL    HW1 2205   2.288   2.804   3.714
 1871SOL    HW2 2206   2.247   2.713   3.584
 1872SOL     OW 2207   3.402   2.136   1.987
 1872SOL    HW1 2208   3.341   2.061   2.010
 1872SOL    HW2 2209   3.424   2.188   2.070
 1873SOL     OW 2210   3.165   2.700   1.904
 1873SOL    HW1 2211   3.199   2.607   1.919
 1873SOL    HW2 2212   3.183   2.727   1.809
 1874SOL     OW 2213   2.930   3.195   2.711
 1874SOL    HW1 2214   2.937   3.111   2.656
 1874SOL    HW2 2215   2.992   3.264   2.675
 1875SOL     OW 2216   2.181   2.672   2.811
 1875SOL    HW1 2217   2.274   2.708   2.816
 1875SOL    HW2 2218   2.175   2.587   2.863
 1876SOL     OW 2219   2.201   2.371   2.868
 1876SOL    HW1 2220   2.149   2.288   2.851
 1876SOL    HW2 2221   2.278   2.376   2.804
 1877SOL     OW 2222   3.000   2.242   3.540
 1877SOL    HW1 2223   2.955   2.305   3.604
 1877SOL    HW2 2224   3.093   2.273   3.523
 1878SOL     OW 2225   3.022   2.069   3.339
 1878SOL    HW1 2226   3.022   2.133   3.416
 1878SOL    HW2 2227   3.050   2.117   3.256
 1879SOL     OW 2228   1.870   3.188   2.062
 1879SOL    HW1 2229   1.777   3.209   2.031
 1879SOL    HW2 2230   1.880   3.089   2.075
 1880SOL     OW 2231   1.950   3.663   2.789
 1880SOL    HW1 2232   1.908   3.577   2.762
 1880SOL    HW2 2233   2.044   3.666   2.755
 1881SOL     OW 2234   2.366   3.430   2.772
 1881SOL    HW1 2235   2.432   3.504   2.781
 1881SOL    HW2 2236   2.410   3.351   2.730
 1882SOL     OW 2237   2.864   2.658   3.100
 1882SOL    HW1 2238   2.905   2.626   3.186
 1882SOL    HW2 2239   2.768   2.631   3.097
 1883SOL     OW 2240   1.902   2.406   2.976
 1883SOL    HW1 2241   1.987   2.373   2.935
 1883SOL    HW2 2242   1.915   2.421   3.074
 1884SOL     OW 2243   2.051   2.382   3.584
 1884SOL    HW1 2244   2.110   2.342   3.514
 1884SOL    HW2 2245   1.993   2.453   3.543
 1886SOL     OW 2246   2.677   2.434   2.187
 1886SOL    HW1 2247   2.684   2.345   2.141
 1886SOL    HW2 2248   2.583   2.468   2.179
 1887SOL     OW 2249   3.519   2.466   3.068
 1887SOL    HW1 2250   3.481   2.397   3.130
 1887SOL    HW2 2251   3.601   2.430   3.024
 1889SOL     OW 2252   2.533   2.326   3.131
 1889SOL    HW1 2253   2.499   2.237   3.101
 1889SOL    HW2 2254   2.559   2.380   3.051
 1891SOL     OW 2255   2.335   2.362   2.053
 1891SOL    HW1 2256   2.396   2.442   2.057
 1891SOL    HW2 2257   2.240   2.393   2.060
 1892SOL     OW 2258   2.021   2.999   3.328
 1892SOL    HW1 2259   2.043   2.938   3.404
 1892SOL    HW2 2260   2.031   2.950   3.242
 1893SOL     OW 2261   3.209   2.921   3.096
 1893SOL    HW1 2262   3.233   2.858   3.022
 1893SOL    HW2 2263   3.119   2.961   3.078
 1894SOL     OW 2264   3.164   2.717   2.171
 1894SOL    HW1 2265   3.078   2.686   2.213
 1894SOL    HW2 2266   3.160   2.703   2.072
 1897SOL     OW 2267   1.945   3.120   2.884
 1897SOL    HW1 2268   1.940   3.119   2.984
 1897SOL    HW2 2269   1.862   3.079   2.846
 1899SOL     OW 2270   3.588   1.997   2.385
 1899SOL    HW1 2271   3.661   1.980   2.318
 1899SOL    HW2 2272   3.557   1.910   2.423
 1902SOL     OW 2273   3.142   2.789   2.534
 1902SOL    HW1 2274   3.202   2.708   2.536
 1902SOL    HW2 2275   3.182   2.858   2.474
 1903SOL     OW 2276   2.692   3.135   3.284
 1903SOL    HW1 2277   2.687   3.168   3.379
 1903SOL    HW2 2278   2.606   3.154   3.238
 1904SOL     OW 2279   2.534   3.478   2.016
 1904SOL    HW1 2280   2.543   3.488   1.917
 1904SOL    HW2 2281   2.494   3.389   2.037
 1906SOL     OW 2282   3.703   2.037   2.825
 1906SOL    HW1 2283   3.742   1.952   2.789
 1906SOL    HW2 2284   3.605   2.039   2.806
 1907SOL     OW 2285   2.125   2.188   2.582
 1907SOL    HW1 2286   2.046   2.239   2.548
 1907SOL    HW2 2287   2.116   2.173   2.680
 1908SOL     OW 2288   3.056   3.474   1.893
 1908SOL    HW1 2289   3.062   3.381   1.930
 1908SOL    HW2 2290   2.997   3.474   1.813
 1909SOL     OW 2291   2.684   2.864   3.234
 1909SOL    HW1 2292   2.724   2.863   3.142
 1909SOL    HW2 2293   2.694   2.956   3.274
 1910SOL     OW 2294   2.778   2.772   2.153
 1910SOL    HW1 2295   2.841   2.810   2.085
 1910SOL    HW2 2296   2.818   2.689   2.192
 1912SOL     OW 2297   2.234   3.150   3.352
 1912SOL    HW1 2298   2.221   3.243   3.318
 1912SOL    HW2 2299   2.150   3.098   3.339
 1914SOL     OW 2300   2.901   2.960   2.558
 1914SOL    HW1 2301   2.831   2.913   2.612
 1914SOL    HW2 2302   2.960   2.892   2.515
 1915SOL     OW 2303   2.876   2.098   2.833
 1915SOL    HW1 2304   2.868   2.062   2.740
 1915SOL    HW2 2305   2.874   2.022   2.898
 1916SOL     OW 2306   2.452   3.349   2.353
 1916SOL    HW1 2307   2.494   3.291   2.283
 1916SOL    HW2 2308   2.408   3.428   2.309
 1918SOL     OW 2309   2.117   3.210   2.152
 1918SOL    HW1 2310   2.021   3.211   2.125
 1918SOL    HW2 2311   2.129   3.263   2.236
 1919SOL     OW 2312   1.967   2.875   3.588
 1919SOL    HW1 2313   1.890   2.842   3.642
 1919SOL    HW2 2314   2.052   2.845   3.630
 1920SOL     OW 2315   2.534   2.065   3.351
 1920SOL    HW1 2316   2.624   2.049   3.311
 1920SOL    HW2 2317   2.542   2.070   3.450
 1921SOL     OW 2318   1.937   2.207   1.895
 1921SOL    HW1 2319   1.845   2.179   1.866
 1921SOL    HW2 2320   1.968   2.284   1.839
 1923SOL     OW 2321   3.045   3.197   1.981
 1923SOL    HW1 2322   2.946   3.186   1.983
 1923SOL    HW2 2323   3.079   3.212   2.074
 1924SOL     OW 2324   2.475   2.704   3.293
 1924SOL    HW1 2325   2.531   2.785   3.276
 1924SOL    HW2 2326   2.534   2.624   3.296
 1926SOL     OW 2327   2.578   2.427   3.570
 1926SOL    HW1 2328   2.597   2.492   3.644
 1926SOL    HW2 2329   2.638   2.347   3.579
 1930SOL     OW 2330   3.087   2.187   2.311
 1930SOL    HW1 2331   3.152   2.113   2.300
 1930SOL    HW2 2332   3.107   2.237   2.395
 1931SOL     OW 2333   2.456   2.607   2.514
 1931SOL    HW1 2334   2.506   2.692   2.495
 1931SOL    HW2 2335   2.368   2.609   2.466
 1934SOL     OW 2336   2.721   3.236   1.878
 1934SOL    HW1 2337   2.675   3.251   1.966
 1934SOL    HW2 2338   2.765   3.321   1.848
 1935SOL     OW 2339   2.523   3.652   2.815
 1935SOL    HW1 2340   2.477   3.740   2.802
 1935SOL    HW2 2341   2.622   3.664   2.808
 1936SOL     OW 2342   2.721   2.818   2.723
 1936SOL    HW1 2343   2.775   2.749   2.771
 1936SOL    HW2 2344   2.689   2.887   2.789
 1937SOL     OW 2345   2.945   2.846   1.949
 1937SOL    HW1 2346   2.922   2.899   1.867
 1937SOL    HW2 2347   3.026   2.790   1.930
 1940SOL     OW 2348   1.941   3.102   2.515
 1940SOL    HW1 2349   1.940   3.055   2.603
 1940SOL    HW2 2350   2.023   3.074   2.464
 1943SOL     OW 2351   2.290   2.286   2.382
 1943SOL    HW1 2352   2.320   2.214   2.320
 1943SOL    HW2 2353   2.251   2.246   2.465
 1945SOL     OW 2354   2.179   2.409   3.142
 1945SOL    HW1 2355   2.217   2.350   3.214
 1945SOL    HW2 2356   2.219   2.383   3.054
 1946SOL     OW 2357   2.674   3.448   2.549
 1946SOL    HW1 2358   2.706   3.458   2.455
 1946SOL    HW2 2359   2.595   3.386   2.551
 1947SOL     OW 2360   3.286   2.076   2.974
 1947SOL    HW1 2361   3.338   2.011   3.029
 1947SOL    HW2 2362   3.237   2.139   3.035
 1948SOL     OW 2363   2.863   1.896   3.016
 1948SOL    HW1 2364   2.800   1.824   2.985
 1948SOL    HW2 2365   2.956   1.860   3.016
 1949SOL     OW 2366   2.632   3.192   2.163
 1949SOL    HW1 2367   2.586   3.105   2.180
 1949SOL    HW2 2368   2.723   3.189   2.204
 1950SOL     OW 2369   2.480   3.429   3.146
 1950SOL    HW1 2370   2.475   3.511   3.203
 1950SOL    HW2 2371   2.569   3.426   3.101
 1951SOL     OW 2372   3.214   1.914   2.030
 1951SOL    HW1 2373   3.249   1.873   1.946
 1951SOL    HW2 2374   3.124   1.876   2.050
 1952SOL     OW 2375   3.162   2.315   2.553
 1952SOL    HW1 2376   3.103   2.395   2.557
 1952SOL    HW2 2377   3.177   2.280   2.646
 1953SOL     OW 2378   3.455   2.083   2.744
 1953SOL    HW1 2379   3.371   2.082   2.798
 1953SOL    HW2 2380   3.457   2.166   2.688
 1954SOL     OW 2381   1.901   2.939   2.162
 1954SOL    HW1 2382   2.000   2.928   2.153
 1954SOL    HW2 2383   1.861   2.853   2.194
 1955SOL     OW 2384   2.737   3.508   2.199
 1955SOL    HW1 2385   2.660   3.473   2.145
 1955SOL    HW2 2386   2.705   3.579   2.261
 1995SOL     OW 2387   1.937   2.207   3.757
 1995SOL    HW1 2388   1.845   2.179   3.728
 1995SOL    HW2 2389   1.968   2.284   3.701
 2027SOL     OW 2390   2.366   3.774   1.740
 2027SOL    HW1 2391   2.324   3.717   1.670
 2027SOL    HW2 2392   2.300   3.843   1.772
 2059SOL     OW 2393   2.671   3.728   2.364
 2059SOL    HW1 2394   2.711   3.819   2.355
 2059SOL    HW2 2395   2.571   3.736   2.370
 2070SOL     OW 2396   2.401   3.788   2.374
 2070SOL    HW1 2397   2.320   3.789   2.432
 2070SOL    HW2 2398   2.404   3.871   2.319
 2071SOL     OW 2399   2.159   3.759   2.033
 2071SOL    HW1 2400   2.208   3.843   2.012
 2071SOL    HW2 2401   2.221   3.694   2.078
 2082SOL     OW 2402   2.169   3.787   2.480
 2082SOL    HW1 2403   2.158   3.881   2.513
 2082SOL    HW2 2404   2.164   3.724   2.557
 2171SOL     OW 2405   3.751   1.596   1.979
 2171SOL    HW1 2406   3.732   1.500   2.000
 2171SOL    HW2 2407   3.718   1.654   2.054
 2263SOL     OW 2408   3.743   2.230   2.509
 2263SOL    HW1 2409   3.661   2.273   2.548
 2263SOL    HW2 2410   3.715   2.157   2.446
 2300SOL     OW 2411   3.799   2.207   1.895
 2300SOL    HW1 2412   3.707   2.179   1.866
 2300SOL    HW2 2413   3.830   2.284   1.839
 2301SOL     OW 2414   3.796   2.028   2.180
 2301SOL    HW1 2415   3.779   2.111   2.126
 2301SOL    HW2 2416   3.886   1.991   2.158
   4.16287   4.16287   4.16287
