; mobley_5973402_GMX.top created by acpype (v: 2023.10.27) on Tue May 19 12:53:42 2026

[ defaults ]
; nbfunc        comb-rule       gen-pairs       fudgeLJ fudgeQQ
1               2               yes             0.5     0.8333333333

; Include mobley_5973402_GMX.itp topology
#include "mobley_5973402_GMX.itp"

; Ligand position restraints
#ifdef POSRES_LIG
#include "posre_mobley_5973402.itp"
#endif


#include "/home/carla/github/Solvation-openMM/DADES/common/SOL.TIP3P.itp"

[ system ]
mobley_5973402 in water

[ molecules ]
; Compound        nmols
 mobley_5973402   1     
SOL 797
