; mobley_5263791_GMX.itp created by acpype (v: 2023.10.27) on Thu May 21 00:04:44 2026

[ atomtypes ]
;name   bond_type     mass     charge   ptype   sigma         epsilon       Amb
 ca       ca          0.00000  0.00000   A     3.31521e-01   4.13379e-01 ; 1.86  0.0988
 c3       c3          0.00000  0.00000   A     3.39771e-01   4.51035e-01 ; 1.91  0.1078
 ha       ha          0.00000  0.00000   A     2.62548e-01   6.73624e-02 ; 1.47  0.0161
 hc       hc          0.00000  0.00000   A     2.60018e-01   8.70272e-02 ; 1.46  0.0208

[ moleculetype ]
;name            nrexcl
 mobley_5263791   3

[ atoms ]
;   nr  type  resi  res  atom  cgnr     charge      mass       ; qtot   bond_type
     1   ca     1   MOL    C1    1    -0.128000     12.01000 ; qtot -0.128
     2   ca     1   MOL    C2    2    -0.129000     12.01000 ; qtot -0.257
     3   ca     1   MOL    C3    3    -0.125000     12.01000 ; qtot -0.382
     4   ca     1   MOL    C4    4    -0.118000     12.01000 ; qtot -0.500
     5   ca     1   MOL    C5    5    -0.119000     12.01000 ; qtot -0.619
     6   ca     1   MOL    C6    6    -0.122000     12.01000 ; qtot -0.741
     7   ca     1   MOL    C7    7    -0.129000     12.01000 ; qtot -0.870
     8   ca     1   MOL    C8    8    -0.036000     12.01000 ; qtot -0.906
     9   ca     1   MOL    C9    9    -0.028000     12.01000 ; qtot -0.934
    10   ca     1   MOL   C10   10    -0.062300     12.01000 ; qtot -0.996
    11   c3     1   MOL   C11   11    -0.092100     12.01000 ; qtot -1.088
    12   c3     1   MOL   C12   12    -0.040100     12.01000 ; qtot -1.129
    13   ha     1   MOL    H1   13     0.132000      1.00800 ; qtot -0.997
    14   ha     1   MOL    H2   14     0.131000      1.00800 ; qtot -0.866
    15   ha     1   MOL    H3   15     0.131000      1.00800 ; qtot -0.735
    16   ha     1   MOL    H4   16     0.132000      1.00800 ; qtot -0.603
    17   ha     1   MOL    H5   17     0.134001      1.00800 ; qtot -0.468
    18   ha     1   MOL    H6   18     0.132000      1.00800 ; qtot -0.336
    19   ha     1   MOL    H7   19     0.131000      1.00800 ; qtot -0.205
    20   hc     1   MOL    H8   20     0.037033      1.00800 ; qtot -0.168
    21   hc     1   MOL    H9   21     0.037033      1.00800 ; qtot -0.131
    22   hc     1   MOL   H10   22     0.037033      1.00800 ; qtot -0.094
    23   hc     1   MOL   H11   23     0.047200      1.00800 ; qtot -0.047
    24   hc     1   MOL   H12   24     0.047200      1.00800 ; qtot -0.000

[ bonds ]
;   ai     aj funct   r             k
     1      2   1    1.3986e-01    2.9644e+05 ;     C1 - C2    
     1      4   1    1.3986e-01    2.9644e+05 ;     C1 - C4    
     1     13   1    1.0860e-01    3.0183e+05 ;     C1 - H1    
     2      5   1    1.3986e-01    2.9644e+05 ;     C2 - C5    
     2     14   1    1.0860e-01    3.0183e+05 ;     C2 - H2    
     3      6   1    1.3986e-01    2.9644e+05 ;     C3 - C6    
     3      7   1    1.3986e-01    2.9644e+05 ;     C3 - C7    
     3     15   1    1.0860e-01    3.0183e+05 ;     C3 - H3    
     4      8   1    1.3986e-01    2.9644e+05 ;     C4 - C8    
     4     16   1    1.0860e-01    3.0183e+05 ;     C4 - H4    
     5      9   1    1.3986e-01    2.9644e+05 ;     C5 - C9    
     5     17   1    1.0860e-01    3.0183e+05 ;     C5 - H5    
     6      8   1    1.3986e-01    2.9644e+05 ;     C6 - C8    
     6     18   1    1.0860e-01    3.0183e+05 ;     C6 - H6    
     7     10   1    1.3986e-01    2.9644e+05 ;     C7 - C10   
     7     19   1    1.0860e-01    3.0183e+05 ;     C7 - H7    
     8      9   1    1.3986e-01    2.9644e+05 ;     C8 - C9    
     9     10   1    1.3986e-01    2.9644e+05 ;     C9 - C10   
    10     12   1    1.5147e-01    2.0410e+05 ;    C10 - C12   
    11     12   1    1.5354e-01    1.9154e+05 ;    C11 - C12   
    11     20   1    1.0962e-01    2.8891e+05 ;    C11 - H8    
    11     21   1    1.0962e-01    2.8891e+05 ;    C11 - H9    
    11     22   1    1.0962e-01    2.8891e+05 ;    C11 - H10   
    12     23   1    1.0962e-01    2.8891e+05 ;    C12 - H11   
    12     24   1    1.0962e-01    2.8891e+05 ;    C12 - H12   

[ pairs ]
;   ai     aj    funct
     1      6      1 ;     C1 - C6    
     1      9      1 ;     C1 - C9    
     1     17      1 ;     C1 - H5    
     2      8      1 ;     C2 - C8    
     2     10      1 ;     C2 - C10   
     2     16      1 ;     C2 - H4    
     3      4      1 ;     C3 - C4    
     3      9      1 ;     C3 - C9    
     3     12      1 ;     C3 - C12   
     4      5      1 ;     C4 - C5    
     4     10      1 ;     C4 - C10   
     4     14      1 ;     C4 - H2    
     4     18      1 ;     C4 - H6    
     5      6      1 ;     C5 - C6    
     5      7      1 ;     C5 - C7    
     5     12      1 ;     C5 - C12   
     6     10      1 ;     C6 - C10   
     6     16      1 ;     C6 - H4    
     6     19      1 ;     C6 - H7    
     7      8      1 ;     C7 - C8    
     7     11      1 ;     C7 - C11   
     7     18      1 ;     C7 - H6    
     7     23      1 ;     C7 - H11   
     7     24      1 ;     C7 - H12   
     8     12      1 ;     C8 - C12   
     8     15      1 ;     C8 - H3    
     8     17      1 ;     C8 - H5    
     9     11      1 ;     C9 - C11   
     9     14      1 ;     C9 - H2    
     9     16      1 ;     C9 - H4    
     9     18      1 ;     C9 - H6    
     9     19      1 ;     C9 - H7    
     9     23      1 ;     C9 - H11   
     9     24      1 ;     C9 - H12   
    10     15      1 ;    C10 - H3    
    10     17      1 ;    C10 - H5    
    10     20      1 ;    C10 - H8    
    10     21      1 ;    C10 - H9    
    10     22      1 ;    C10 - H10   
    12     19      1 ;    C12 - H7    
    13      5      1 ;     H1 - C5    
    13      8      1 ;     H1 - C8    
    13     14      1 ;     H1 - H2    
    13     16      1 ;     H1 - H4    
    14     17      1 ;     H2 - H5    
    15     18      1 ;     H3 - H6    
    15     19      1 ;     H3 - H7    
    20     23      1 ;     H8 - H11   
    20     24      1 ;     H8 - H12   
    21     23      1 ;     H9 - H11   
    21     24      1 ;     H9 - H12   
    22     23      1 ;    H10 - H11   
    22     24      1 ;    H10 - H12   

[ angles ]
;   ai     aj     ak    funct   theta         cth
     1      2      5      1    1.2002e+02    5.3279e+02 ;     C1 - C2     - C5    
     1      2     14      1    1.1988e+02    3.7572e+02 ;     C1 - C2     - H2    
     1      4      8      1    1.2002e+02    5.3279e+02 ;     C1 - C4     - C8    
     1      4     16      1    1.1988e+02    3.7572e+02 ;     C1 - C4     - H4    
     2      1      4      1    1.2002e+02    5.3279e+02 ;     C2 - C1     - C4    
     2      1     13      1    1.1988e+02    3.7572e+02 ;     C2 - C1     - H1    
     2      5      9      1    1.2002e+02    5.3279e+02 ;     C2 - C5     - C9    
     2      5     17      1    1.1988e+02    3.7572e+02 ;     C2 - C5     - H5    
     3      6      8      1    1.2002e+02    5.3279e+02 ;     C3 - C6     - C8    
     3      6     18      1    1.1988e+02    3.7572e+02 ;     C3 - C6     - H6    
     3      7     10      1    1.2002e+02    5.3279e+02 ;     C3 - C7     - C10   
     3      7     19      1    1.1988e+02    3.7572e+02 ;     C3 - C7     - H7    
     4      1     13      1    1.1988e+02    3.7572e+02 ;     C4 - C1     - H1    
     4      8      6      1    1.2002e+02    5.3279e+02 ;     C4 - C8     - C6    
     4      8      9      1    1.2002e+02    5.3279e+02 ;     C4 - C8     - C9    
     5      2     14      1    1.1988e+02    3.7572e+02 ;     C5 - C2     - H2    
     5      9      8      1    1.2002e+02    5.3279e+02 ;     C5 - C9     - C8    
     5      9     10      1    1.2002e+02    5.3279e+02 ;     C5 - C9     - C10   
     6      3      7      1    1.2002e+02    5.3279e+02 ;     C6 - C3     - C7    
     6      3     15      1    1.1988e+02    3.7572e+02 ;     C6 - C3     - H3    
     6      8      9      1    1.2002e+02    5.3279e+02 ;     C6 - C8     - C9    
     7      3     15      1    1.1988e+02    3.7572e+02 ;     C7 - C3     - H3    
     7     10      9      1    1.2002e+02    5.3279e+02 ;     C7 - C10    - C9    
     7     10     12      1    1.2083e+02    5.0827e+02 ;     C7 - C10    - C12   
     8      4     16      1    1.1988e+02    3.7572e+02 ;     C8 - C4     - H4    
     8      6     18      1    1.1988e+02    3.7572e+02 ;     C8 - C6     - H6    
     8      9     10      1    1.2002e+02    5.3279e+02 ;     C8 - C9     - C10   
     9      5     17      1    1.1988e+02    3.7572e+02 ;     C9 - C5     - H5    
     9     10     12      1    1.2083e+02    5.0827e+02 ;     C9 - C10    - C12   
    10      7     19      1    1.1988e+02    3.7572e+02 ;    C10 - C7     - H7    
    10     12     11      1    1.1242e+02    5.0484e+02 ;    C10 - C12    - C11   
    10     12     23      1    1.1063e+02    3.6493e+02 ;    C10 - C12    - H11   
    10     12     24      1    1.1063e+02    3.6493e+02 ;    C10 - C12    - H12   
    11     12     23      1    1.0968e+02    3.6208e+02 ;    C11 - C12    - H11   
    11     12     24      1    1.0968e+02    3.6208e+02 ;    C11 - C12    - H12   
    12     11     20      1    1.0968e+02    3.6208e+02 ;    C12 - C11    - H8    
    12     11     21      1    1.0968e+02    3.6208e+02 ;    C12 - C11    - H9    
    12     11     22      1    1.0968e+02    3.6208e+02 ;    C12 - C11    - H10   
    20     11     21      1    1.0773e+02    2.9957e+02 ;     H8 - C11    - H9    
    20     11     22      1    1.0773e+02    2.9957e+02 ;     H8 - C11    - H10   
    21     11     22      1    1.0773e+02    2.9957e+02 ;     H9 - C11    - H10   
    23     12     24      1    1.0773e+02    2.9957e+02 ;    H11 - C12    - H12   

[ dihedrals ] ; propers
; for gromacs 4.5 or higher, using funct 9
;    i      j      k      l   func   phase     kd      pn
     1      2      5      9      9   180.00  15.16700   2 ;     C1-    C2-    C5-    C9
     1      2      5     17      9   180.00  15.16700   2 ;     C1-    C2-    C5-    H5
     1      4      8      6      9   180.00  15.16700   2 ;     C1-    C4-    C8-    C6
     1      4      8      9      9   180.00  15.16700   2 ;     C1-    C4-    C8-    C9
     2      1      4      8      9   180.00  15.16700   2 ;     C2-    C1-    C4-    C8
     2      1      4     16      9   180.00  15.16700   2 ;     C2-    C1-    C4-    H4
     2      5      9      8      9   180.00  15.16700   2 ;     C2-    C5-    C9-    C8
     2      5      9     10      9   180.00  15.16700   2 ;     C2-    C5-    C9-   C10
     3      6      8      4      9   180.00  15.16700   2 ;     C3-    C6-    C8-    C4
     3      6      8      9      9   180.00  15.16700   2 ;     C3-    C6-    C8-    C9
     3      7     10      9      9   180.00  15.16700   2 ;     C3-    C7-   C10-    C9
     3      7     10     12      9   180.00  15.16700   2 ;     C3-    C7-   C10-   C12
     4      1      2      5      9   180.00  15.16700   2 ;     C4-    C1-    C2-    C5
     4      1      2     14      9   180.00  15.16700   2 ;     C4-    C1-    C2-    H2
     4      8      6     18      9   180.00  15.16700   2 ;     C4-    C8-    C6-    H6
     4      8      9      5      9   180.00  15.16700   2 ;     C4-    C8-    C9-    C5
     4      8      9     10      9   180.00  15.16700   2 ;     C4-    C8-    C9-   C10
     5      9      8      6      9   180.00  15.16700   2 ;     C5-    C9-    C8-    C6
     5      9     10      7      9   180.00  15.16700   2 ;     C5-    C9-   C10-    C7
     5      9     10     12      9   180.00  15.16700   2 ;     C5-    C9-   C10-   C12
     6      3      7     10      9   180.00  15.16700   2 ;     C6-    C3-    C7-   C10
     6      3      7     19      9   180.00  15.16700   2 ;     C6-    C3-    C7-    H7
     6      8      4     16      9   180.00  15.16700   2 ;     C6-    C8-    C4-    H4
     6      8      9     10      9   180.00  15.16700   2 ;     C6-    C8-    C9-   C10
     7      3      6      8      9   180.00  15.16700   2 ;     C7-    C3-    C6-    C8
     7      3      6     18      9   180.00  15.16700   2 ;     C7-    C3-    C6-    H6
     7     10      9      8      9   180.00  15.16700   2 ;     C7-   C10-    C9-    C8
     7     10     12     11      9   180.00   1.00416   2 ;     C7-   C10-   C12-   C11
     7     10     12     23      9     0.00   0.00000   0 ;     C7-   C10-   C12-   H11
     7     10     12     24      9     0.00   0.00000   0 ;     C7-   C10-   C12-   H12
     8      6      3     15      9   180.00  15.16700   2 ;     C8-    C6-    C3-    H3
     8      9      5     17      9   180.00  15.16700   2 ;     C8-    C9-    C5-    H5
     8      9     10     12      9   180.00  15.16700   2 ;     C8-    C9-   C10-   C12
     9      5      2     14      9   180.00  15.16700   2 ;     C9-    C5-    C2-    H2
     9      8      4     16      9   180.00  15.16700   2 ;     C9-    C8-    C4-    H4
     9      8      6     18      9   180.00  15.16700   2 ;     C9-    C8-    C6-    H6
     9     10      7     19      9   180.00  15.16700   2 ;     C9-   C10-    C7-    H7
     9     10     12     11      9   180.00   1.00416   2 ;     C9-   C10-   C12-   C11
     9     10     12     23      9     0.00   0.00000   0 ;     C9-   C10-   C12-   H11
     9     10     12     24      9     0.00   0.00000   0 ;     C9-   C10-   C12-   H12
    10      7      3     15      9   180.00  15.16700   2 ;    C10-    C7-    C3-    H3
    10      9      5     17      9   180.00  15.16700   2 ;    C10-    C9-    C5-    H5
    10     12     11     20      9     0.00   0.65084   3 ;    C10-   C12-   C11-    H8
    10     12     11     21      9     0.00   0.65084   3 ;    C10-   C12-   C11-    H9
    10     12     11     22      9     0.00   0.65084   3 ;    C10-   C12-   C11-   H10
    12     10      7     19      9   180.00  15.16700   2 ;    C12-   C10-    C7-    H7
    13      1      2      5      9   180.00  15.16700   2 ;     H1-    C1-    C2-    C5
    13      1      2     14      9   180.00  15.16700   2 ;     H1-    C1-    C2-    H2
    13      1      4      8      9   180.00  15.16700   2 ;     H1-    C1-    C4-    C8
    13      1      4     16      9   180.00  15.16700   2 ;     H1-    C1-    C4-    H4
    14      2      5     17      9   180.00  15.16700   2 ;     H2-    C2-    C5-    H5
    15      3      6     18      9   180.00  15.16700   2 ;     H3-    C3-    C6-    H6
    15      3      7     19      9   180.00  15.16700   2 ;     H3-    C3-    C7-    H7
    20     11     12     23      9     0.00   0.50208   3 ;     H8-   C11-   C12-   H11
    20     11     12     24      9     0.00   0.50208   3 ;     H8-   C11-   C12-   H12
    21     11     12     23      9     0.00   0.50208   3 ;     H9-   C11-   C12-   H11
    21     11     12     24      9     0.00   0.50208   3 ;     H9-   C11-   C12-   H12
    22     11     12     23      9     0.00   0.50208   3 ;    H10-   C11-   C12-   H11
    22     11     12     24      9     0.00   0.50208   3 ;    H10-   C11-   C12-   H12

[ dihedrals ] ; impropers
; treated as propers in GROMACS to use correct AMBER analytical function
;    i      j      k      l   func   phase     kd      pn
     1      5      2     14      4   180.00   4.60240   2 ;     C1-    C5-    C2-    H2
     1      8      4     16      4   180.00   4.60240   2 ;     C1-    C8-    C4-    H4
     2      9      5     17      4   180.00   4.60240   2 ;     C2-    C9-    C5-    H5
     3      8      6     18      4   180.00   4.60240   2 ;     C3-    C8-    C6-    H6
     3     10      7     19      4   180.00   4.60240   2 ;     C3-   C10-    C7-    H7
     4      6      8      9      4   180.00   4.60240   2 ;     C4-    C6-    C8-    C9
     5      8      9     10      4   180.00   4.60240   2 ;     C5-    C8-    C9-   C10
     6      7      3     15      4   180.00   4.60240   2 ;     C6-    C7-    C3-    H3
     7      9     10     12      4   180.00   4.60240   2 ;     C7-    C9-   C10-   C12
    13      1      4      2      4   180.00   4.60240   2 ;     H1-    C1-    C4-    C2
