mobley_1728386_GMX.gro created by acpype (v: 2023.10.27) on Tue May 19 12:31:51 2026
 2389
    1MOL    H11    1   2.355   2.084   2.274
    1MOL     N1    2   2.355   2.137   2.191
    1MOL    H12    3   2.353   2.081   2.105
    1MOL     C1    4   2.352   2.271   2.181
    1MOL     O1    5   2.348   2.332   2.071
    1MOL     C2    6   2.357   2.348   2.308
    1MOL     C3    7   2.407   2.292   2.428
    1MOL    H31    8   2.446   2.193   2.435
    1MOL     C5    9   2.407   2.371   2.545
    1MOL    H51   10   2.446   2.329   2.635
    1MOL     C7   11   2.361   2.503   2.543
    1MOL     C6   12   2.314   2.558   2.425
    1MOL    H61   13   2.277   2.660   2.425
    1MOL     C4   14   2.312   2.483   2.307
    1MOL    H41   15   2.273   2.528   2.217
    1MOL    H71   16   2.362   2.562   2.635
   14SOL     OW   17   1.460   1.505   1.339
   14SOL    HW1   18   1.484   1.599   1.365
   14SOL    HW2   19   1.444   1.451   1.421
   18SOL     OW   20   1.127   1.341   1.690
   18SOL    HW1   21   1.174   1.341   1.778
   18SOL    HW2   22   1.079   1.254   1.679
   35SOL     OW   23   1.187   1.792   1.616
   35SOL    HW1   24   1.211   1.852   1.540
   35SOL    HW2   25   1.194   1.697   1.586
   56SOL     OW   26   1.227   1.550   1.506
   56SOL    HW1   27   1.233   1.473   1.570
   56SOL    HW2   28   1.175   1.524   1.426
   95SOL     OW   29   1.754   1.223   1.588
   95SOL    HW1   30   1.845   1.184   1.575
   95SOL    HW2   31   1.762   1.319   1.612
   97SOL     OW   32   1.592   1.629   1.625
   97SOL    HW1   33   1.619   1.663   1.535
   97SOL    HW2   34   1.671   1.591   1.671
  122SOL     OW   35   1.728   0.935   1.854
  122SOL    HW1   36   1.682   0.928   1.765
  122SOL    HW2   37   1.666   0.979   1.920
  126SOL     OW   38   0.980   1.573   1.700
  126SOL    HW1   39   0.960   1.617   1.612
  126SOL    HW2   40   1.019   1.482   1.684
  127SOL     OW   41   1.859   1.518   1.605
  127SOL    HW1   42   1.873   1.545   1.510
  127SOL    HW2   43   1.942   1.540   1.658
  152SOL     OW   44   1.759   1.747   1.154
  152SOL    HW1   45   1.820   1.777   1.081
  152SOL    HW2   46   1.721   1.658   1.132
  153SOL     OW   47   1.252   1.731   1.128
  153SOL    HW1   48   1.336   1.736   1.074
  153SOL    HW2   49   1.229   1.635   1.146
  163SOL     OW   50   1.650   1.720   1.394
  163SOL    HW1   51   1.703   1.730   1.310
  163SOL    HW2   52   1.623   1.810   1.428
  171SOL     OW   53   1.614   1.292   1.289
  171SOL    HW1   54   1.674   1.295   1.369
  171SOL    HW2   55   1.539   1.356   1.302
  184SOL     OW   56   1.493   1.767   0.959
  184SOL    HW1   57   1.526   1.831   0.890
  184SOL    HW2   58   1.559   1.761   1.034
  186SOL     OW   59   1.450   1.220   1.633
  186SOL    HW1   60   1.441   1.210   1.732
  186SOL    HW2   61   1.546   1.213   1.607
  192SOL     OW   62   1.730   0.934   1.517
  192SOL    HW1   63   1.768   1.025   1.532
  192SOL    HW2   64   1.722   0.917   1.418
  197SOL     OW   65   1.861   1.569   0.851
  197SOL    HW1   66   1.790   1.557   0.781
  197SOL    HW2   67   1.862   1.490   0.911
  203SOL     OW   68   1.705   1.487   1.104
  203SOL    HW1   69   1.612   1.462   1.077
  203SOL    HW2   70   1.731   1.437   1.186
  219SOL     OW   71   1.555   1.511   2.565
  219SOL    HW1   72   1.498   1.495   2.646
  219SOL    HW2   73   1.496   1.521   2.485
  227SOL     OW   74   1.460   1.505   3.201
  227SOL    HW1   75   1.484   1.599   3.227
  227SOL    HW2   76   1.444   1.451   3.283
  238SOL     OW   77   1.842   1.767   2.221
  238SOL    HW1   78   1.896   1.738   2.301
  238SOL    HW2   79   1.872   1.857   2.192
  240SOL     OW   80   1.689   0.922   2.474
  240SOL    HW1   81   1.784   0.893   2.482
  240SOL    HW2   82   1.681   0.987   2.399
  241SOL     OW   83   1.641   1.108   2.294
  241SOL    HW1   84   1.727   1.110   2.242
  241SOL    HW2   85   1.655   1.155   2.382
  247SOL     OW   86   1.525   0.999   2.052
  247SOL    HW1   87   1.462   0.923   2.065
  247SOL    HW2   88   1.573   1.017   2.138
  248SOL     OW   89   1.187   1.792   3.478
  248SOL    HW1   90   1.211   1.852   3.402
  248SOL    HW2   91   1.194   1.697   3.448
  250SOL     OW   92   1.466   1.417   2.815
  250SOL    HW1   93   1.407   1.423   2.895
  250SOL    HW2   94   1.451   1.329   2.769
  251SOL     OW   95   1.667   1.714   2.434
  251SOL    HW1   96   1.626   1.691   2.346
  251SOL    HW2   97   1.649   1.640   2.499
  254SOL     OW   98   1.576   1.662   2.169
  254SOL    HW1   99   1.665   1.708   2.172
  254SOL    HW2  100   1.555   1.638   2.074
  264SOL     OW  101   1.362   1.144   2.407
  264SOL    HW1  102   1.445   1.115   2.359
  264SOL    HW2  103   1.313   1.211   2.351
  266SOL     OW  104   1.008   1.456   2.339
  266SOL    HW1  105   0.962   1.528   2.287
  266SOL    HW2  106   1.004   1.476   2.437
  268SOL     OW  107   1.795   1.066   2.735
  268SOL    HW1  108   1.733   1.051   2.659
  268SOL    HW2  109   1.743   1.077   2.820
  269SOL     OW  110   1.227   1.550   3.368
  269SOL    HW1  111   1.233   1.473   3.432
  269SOL    HW2  112   1.175   1.524   3.288
  273SOL     OW  113   1.111   1.776   2.099
  273SOL    HW1  114   1.051   1.714   2.149
  273SOL    HW2  115   1.142   1.732   2.014
  275SOL     OW  116   1.632   1.377   1.943
  275SOL    HW1  117   1.600   1.471   1.933
  275SOL    HW2  118   1.556   1.314   1.931
  279SOL     OW  119   0.940   1.698   2.766
  279SOL    HW1  120   1.020   1.641   2.787
  279SOL    HW2  121   0.891   1.658   2.689
  289SOL     OW  122   1.434   1.188   1.903
  289SOL    HW1  123   1.466   1.112   1.960
  289SOL    HW2  124   1.342   1.215   1.933
  293SOL     OW  125   1.227   1.570   2.655
  293SOL    HW1  126   1.248   1.644   2.590
  293SOL    HW2  127   1.295   1.570   2.728
  295SOL     OW  128   1.271   1.797   2.453
  295SOL    HW1  129   1.315   1.861   2.389
  295SOL    HW2  130   1.221   1.849   2.523
  301SOL     OW  131   1.429   1.173   2.729
  301SOL    HW1  132   1.374   1.089   2.722
  301SOL    HW2  133   1.455   1.202   2.637
  303SOL     OW  134   1.857   0.833   2.239
  303SOL    HW1  135   1.899   0.769   2.303
  303SOL    HW2  136   1.819   0.782   2.161
  305SOL     OW  137   1.664   1.280   2.519
  305SOL    HW1  138   1.763   1.288   2.533
  305SOL    HW2  139   1.619   1.364   2.550
  308SOL     OW  140   1.754   1.223   3.450
  308SOL    HW1  141   1.845   1.184   3.437
  308SOL    HW2  142   1.762   1.319   3.474
  310SOL     OW  143   1.592   1.629   3.487
  310SOL    HW1  144   1.619   1.663   3.397
  310SOL    HW2  145   1.671   1.591   3.533
  312SOL     OW  146   1.638   1.099   2.941
  312SOL    HW1  147   1.643   1.180   3.000
  312SOL    HW2  148   1.552   1.101   2.890
  321SOL     OW  149   1.252   1.348   2.250
  321SOL    HW1  150   1.302   1.425   2.290
  321SOL    HW2  151   1.157   1.350   2.282
  322SOL     OW  152   1.272   1.445   3.004
  322SOL    HW1  153   1.319   1.458   3.091
  322SOL    HW2  154   1.206   1.371   3.013
  340SOL     OW  155   1.859   1.518   3.467
  340SOL    HW1  156   1.873   1.545   3.372
  340SOL    HW2  157   1.942   1.540   3.520
  344SOL     OW  158   1.068   1.333   2.711
  344SOL    HW1  159   1.075   1.249   2.656
  344SOL    HW2  160   1.130   1.402   2.675
  365SOL     OW  161   1.759   1.747   3.016
  365SOL    HW1  162   1.820   1.777   2.943
  365SOL    HW2  163   1.721   1.658   2.994
  366SOL     OW  164   1.252   1.731   2.990
  366SOL    HW1  165   1.336   1.736   2.936
  366SOL    HW2  166   1.229   1.635   3.008
  370SOL     OW  167   1.388   1.573   2.339
  370SOL    HW1  168   1.455   1.585   2.265
  370SOL    HW2  169   1.348   1.662   2.362
  375SOL     OW  170   1.650   1.720   3.256
  375SOL    HW1  171   1.703   1.730   3.172
  375SOL    HW2  172   1.623   1.810   3.290
  378SOL     OW  173   1.194   1.612   1.893
  378SOL    HW1  174   1.200   1.519   1.930
  378SOL    HW2  175   1.135   1.612   1.813
  381SOL     OW  176   1.504   1.607   1.906
  381SOL    HW1  177   1.412   1.644   1.913
  381SOL    HW2  178   1.542   1.627   1.816
  383SOL     OW  179   1.614   1.292   3.151
  383SOL    HW1  180   1.674   1.295   3.231
  383SOL    HW2  181   1.539   1.356   3.164
  394SOL     OW  182   1.183   1.335   1.981
  394SOL    HW1  183   1.084   1.324   1.983
  394SOL    HW2  184   1.217   1.350   2.074
  396SOL     OW  185   1.493   1.767   2.821
  396SOL    HW1  186   1.526   1.831   2.752
  396SOL    HW2  187   1.559   1.761   2.896
  400SOL     OW  188   1.674   0.883   3.116
  400SOL    HW1  189   1.647   0.794   3.079
  400SOL    HW2  190   1.675   0.951   3.043
  409SOL     OW  191   1.861   1.569   2.713
  409SOL    HW1  192   1.790   1.557   2.643
  409SOL    HW2  193   1.862   1.490   2.773
  415SOL     OW  194   1.705   1.487   2.966
  415SOL    HW1  195   1.612   1.462   2.939
  415SOL    HW2  196   1.731   1.437   3.048
  417SOL     OW  197   0.812   1.586   2.549
  417SOL    HW1  198   0.844   1.596   2.455
  417SOL    HW2  199   0.733   1.524   2.551
  426SOL     OW  200   0.875   1.646   2.199
  426SOL    HW1  201   0.798   1.611   2.145
  426SOL    HW2  202   0.843   1.717   2.261
  543SOL     OW  203   0.850   2.660   1.823
  543SOL    HW1  204   0.846   2.736   1.888
  543SOL    HW2  205   0.872   2.696   1.732
  547SOL     OW  206   1.460   3.367   1.339
  547SOL    HW1  207   1.484   3.461   1.365
  547SOL    HW2  208   1.444   3.313   1.421
  549SOL     OW  209   1.603   2.309   0.737
  549SOL    HW1  210   1.529   2.355   0.687
  549SOL    HW2  211   1.654   2.377   0.790
  551SOL     OW  212   1.127   3.203   1.690
  551SOL    HW1  213   1.174   3.203   1.778
  551SOL    HW2  214   1.079   3.116   1.679
  556SOL     OW  215   1.594   1.976   1.480
  556SOL    HW1  216   1.576   2.043   1.408
  556SOL    HW2  217   1.591   2.022   1.569
  564SOL     OW  218   1.293   3.090   1.423
  564SOL    HW1  219   1.330   3.017   1.365
  564SOL    HW2  220   1.345   3.095   1.508
  573SOL     OW  221   1.281   2.207   0.944
  573SOL    HW1  222   1.195   2.157   0.931
  573SOL    HW2  223   1.343   2.153   1.000
  575SOL     OW  224   0.807   2.467   1.465
  575SOL    HW1  225   0.760   2.464   1.554
  575SOL    HW2  226   0.756   2.412   1.399
  576SOL     OW  227   1.394   2.331   1.674
  576SOL    HW1  228   1.374   2.374   1.762
  576SOL    HW2  229   1.472   2.269   1.683
  577SOL     OW  230   0.973   2.752   1.572
  577SOL    HW1  231   1.019   2.668   1.543
  577SOL    HW2  232   0.917   2.786   1.497
  578SOL     OW  233   0.991   2.272   1.242
  578SOL    HW1  234   0.914   2.306   1.296
  578SOL    HW2  235   0.957   2.221   1.163
  583SOL     OW  236   1.719   2.447   1.831
  583SOL    HW1  237   1.693   2.536   1.795
  583SOL    HW2  238   1.717   2.379   1.758
  588SOL     OW  239   1.795   2.928   0.873
  588SOL    HW1  240   1.733   2.913   0.797
  588SOL    HW2  241   1.743   2.939   0.958
  589SOL     OW  242   1.227   3.412   1.506
  589SOL    HW1  243   1.233   3.335   1.570
  589SOL    HW2  244   1.175   3.386   1.426
  601SOL     OW  245   1.547   2.084   1.729
  601SOL    HW1  246   1.542   2.121   1.821
  601SOL    HW2  247   1.475   2.015   1.717
  602SOL     OW  248   0.781   2.126   1.749
  602SOL    HW1  249   0.848   2.065   1.792
  602SOL    HW2  250   0.708   2.145   1.814
  604SOL     OW  251   1.351   2.452   1.433
  604SOL    HW1  252   1.379   2.409   1.518
  604SOL    HW2  253   1.376   2.548   1.434
  611SOL     OW  254   1.076   2.545   1.464
  611SOL    HW1  255   0.996   2.484   1.467
  611SOL    HW2  256   1.157   2.492   1.440
  621SOL     OW  257   1.466   2.452   0.992
  621SOL    HW1  258   1.436   2.357   0.999
  621SOL    HW2  259   1.539   2.468   1.058
  627SOL     OW  260   1.754   3.085   1.588
  627SOL    HW1  261   1.845   3.046   1.575
  627SOL    HW2  262   1.762   3.181   1.612
  629SOL     OW  263   1.592   3.491   1.625
  629SOL    HW1  264   1.619   3.525   1.535
  629SOL    HW2  265   1.671   3.453   1.671
  631SOL     OW  266   1.638   2.961   1.079
  631SOL    HW1  267   1.643   3.042   1.138
  631SOL    HW2  268   1.552   2.963   1.028
  632SOL     OW  269   0.915   1.951   1.402
  632SOL    HW1  270   0.940   1.931   1.307
  632SOL    HW2  271   0.987   2.007   1.444
  633SOL     OW  272   0.980   2.978   1.719
  633SOL    HW1  273   0.881   2.984   1.729
  633SOL    HW2  274   1.003   2.898   1.663
  636SOL     OW  275   1.274   2.248   1.262
  636SOL    HW1  276   1.295   2.322   1.326
  636SOL    HW2  277   1.185   2.265   1.219
  645SOL     OW  278   1.587   2.641   1.670
  645SOL    HW1  279   1.495   2.679   1.665
  645SOL    HW2  280   1.647   2.688   1.605
  646SOL     OW  281   1.013   1.967   1.770
  646SOL    HW1  282   1.019   2.052   1.718
  646SOL    HW2  283   1.045   1.891   1.713
  649SOL     OW  284   1.360   2.724   1.045
  649SOL    HW1  285   1.285   2.724   0.979
  649SOL    HW2  286   1.397   2.632   1.054
  654SOL     OW  287   1.728   2.797   1.854
  654SOL    HW1  288   1.682   2.790   1.765
  654SOL    HW2  289   1.666   2.841   1.920
  659SOL     OW  290   1.859   3.380   1.605
  659SOL    HW1  291   1.873   3.407   1.510
  659SOL    HW2  292   1.942   3.402   1.658
  666SOL     OW  293   1.138   2.242   1.678
  666SOL    HW1  294   1.093   2.305   1.742
  666SOL    HW2  295   1.231   2.273   1.661
  667SOL     OW  296   1.160   2.069   1.477
  667SOL    HW1  297   1.160   2.133   1.554
  667SOL    HW2  298   1.188   2.117   1.394
  671SOL     OW  299   1.002   2.658   1.238
  671SOL    HW1  300   1.043   2.626   1.324
  671SOL    HW2  301   0.906   2.631   1.235
  674SOL     OW  302   1.369   2.812   1.660
  674SOL    HW1  303   1.408   2.901   1.680
  674SOL    HW2  304   1.379   2.792   1.563
  676SOL     OW  305   1.657   2.466   1.206
  676SOL    HW1  306   1.619   2.397   1.268
  676SOL    HW2  307   1.739   2.430   1.162
  682SOL     OW  308   1.347   2.921   1.234
  682SOL    HW1  309   1.371   2.858   1.160
  682SOL    HW2  310   1.257   2.961   1.216
  695SOL     OW  311   1.650   3.582   1.394
  695SOL    HW1  312   1.703   3.592   1.310
  695SOL    HW2  313   1.623   3.672   1.428
  696SOL     OW  314   1.841   2.037   0.963
  696SOL    HW1  315   1.880   1.952   0.927
  696SOL    HW2  316   1.743   2.039   0.944
  703SOL     OW  317   1.614   3.154   1.289
  703SOL    HW1  318   1.674   3.157   1.369
  703SOL    HW2  319   1.539   3.218   1.302
  707SOL     OW  320   1.709   2.247   1.381
  707SOL    HW1  321   1.782   2.316   1.385
  707SOL    HW2  322   1.737   2.172   1.322
  712SOL     OW  323   1.440   2.718   1.398
  712SOL    HW1  324   1.383   2.770   1.335
  712SOL    HW2  325   1.536   2.730   1.374
  717SOL     OW  326   0.716   2.427   1.708
  717SOL    HW1  327   0.735   2.492   1.782
  717SOL    HW2  328   0.776   2.347   1.717
  718SOL     OW  329   1.450   3.082   1.633
  718SOL    HW1  330   1.441   3.072   1.732
  718SOL    HW2  331   1.546   3.075   1.607
  720SOL     OW  332   1.674   2.745   1.254
  720SOL    HW1  333   1.647   2.656   1.217
  720SOL    HW2  334   1.675   2.813   1.181
  723SOL     OW  335   1.777   2.204   1.642
  723SOL    HW1  336   1.760   2.235   1.548
  723SOL    HW2  337   1.693   2.167   1.680
  724SOL     OW  338   1.730   2.796   1.517
  724SOL    HW1  339   1.768   2.887   1.532
  724SOL    HW2  340   1.722   2.779   1.418
  733SOL     OW  341   1.824   2.054   1.227
  733SOL    HW1  342   1.820   1.964   1.271
  733SOL    HW2  343   1.827   2.043   1.128
  735SOL     OW  344   1.705   3.349   1.104
  735SOL    HW1  345   1.612   3.324   1.077
  735SOL    HW2  346   1.731   3.299   1.186
  738SOL     OW  347   1.424   2.076   1.112
  738SOL    HW1  348   1.476   2.011   1.167
  738SOL    HW2  349   1.375   2.139   1.173
  744SOL     OW  350   1.593   2.083   0.882
  744SOL    HW1  351   1.509   2.082   0.936
  744SOL    HW2  352   1.595   2.166   0.826
  751SOL     OW  353   1.555   3.373   2.565
  751SOL    HW1  354   1.498   3.357   2.646
  751SOL    HW2  355   1.496   3.383   2.485
  752SOL     OW  356   1.135   2.565   2.579
  752SOL    HW1  357   1.192   2.643   2.554
  752SOL    HW2  358   1.075   2.591   2.655
  753SOL     OW  359   1.755   2.469   2.093
  753SOL    HW1  360   1.743   2.456   1.994
  753SOL    HW2  361   1.725   2.388   2.142
  754SOL     OW  362   0.768   3.006   2.885
  754SOL    HW1  363   0.690   3.023   2.945
  754SOL    HW2  364   0.802   3.093   2.849
  756SOL     OW  365   0.685   2.874   2.527
  756SOL    HW1  366   0.754   2.858   2.597
  756SOL    HW2  367   0.612   2.931   2.565
  759SOL     OW  368   1.460   3.367   3.201
  759SOL    HW1  369   1.484   3.461   3.227
  759SOL    HW2  370   1.444   3.313   3.283
  761SOL     OW  371   1.603   2.309   2.599
  761SOL    HW1  372   1.529   2.355   2.549
  761SOL    HW2  373   1.654   2.377   2.652
  768SOL     OW  374   1.594   1.976   3.342
  768SOL    HW1  375   1.576   2.043   3.270
  768SOL    HW2  376   1.591   2.022   3.431
  770SOL     OW  377   1.842   3.629   2.221
  770SOL    HW1  378   1.896   3.600   2.301
  770SOL    HW2  379   1.872   3.719   2.192
  772SOL     OW  380   1.689   2.784   2.474
  772SOL    HW1  381   1.784   2.755   2.482
  772SOL    HW2  382   1.681   2.849   2.399
  773SOL     OW  383   1.641   2.970   2.294
  773SOL    HW1  384   1.727   2.972   2.242
  773SOL    HW2  385   1.655   3.017   2.382
  776SOL     OW  386   1.293   3.090   3.285
  776SOL    HW1  387   1.330   3.017   3.227
  776SOL    HW2  388   1.345   3.095   3.370
  777SOL     OW  389   0.809   1.866   2.364
  777SOL    HW1  390   0.849   1.957   2.355
  777SOL    HW2  391   0.709   1.874   2.370
  779SOL     OW  392   1.525   2.861   2.052
  779SOL    HW1  393   1.462   2.785   2.065
  779SOL    HW2  394   1.573   2.879   2.138
  782SOL     OW  395   1.466   3.279   2.815
  782SOL    HW1  396   1.407   3.285   2.895
  782SOL    HW2  397   1.451   3.191   2.769
  783SOL     OW  398   1.667   3.576   2.434
  783SOL    HW1  399   1.626   3.553   2.346
  783SOL    HW2  400   1.649   3.502   2.499
  784SOL     OW  401   0.598   2.591   2.132
  784SOL    HW1  402   0.622   2.660   2.064
  784SOL    HW2  403   0.520   2.624   2.186
  785SOL     OW  404   1.281   2.207   2.806
  785SOL    HW1  405   1.195   2.157   2.793
  785SOL    HW2  406   1.343   2.153   2.862
  786SOL     OW  407   1.576   3.524   2.169
  786SOL    HW1  408   1.665   3.570   2.172
  786SOL    HW2  409   1.555   3.500   2.074
  788SOL     OW  410   1.394   2.331   3.536
  788SOL    HW1  411   1.374   2.374   3.624
  788SOL    HW2  412   1.472   2.269   3.545
  789SOL     OW  413   0.973   2.752   3.434
  789SOL    HW1  414   1.019   2.668   3.405
  789SOL    HW2  415   0.917   2.786   3.359
  790SOL     OW  416   0.991   2.272   3.104
  790SOL    HW1  417   0.914   2.306   3.158
  790SOL    HW2  418   0.957   2.221   3.025
  791SOL     OW  419   1.041   2.563   2.291
  791SOL    HW1  420   1.067   2.559   2.387
  791SOL    HW2  421   0.956   2.512   2.277
  794SOL     OW  422   0.865   2.210   2.057
  794SOL    HW1  423   0.924   2.273   2.008
  794SOL    HW2  424   0.884   2.116   2.028
  795SOL     OW  425   1.719   2.447   3.693
  795SOL    HW1  426   1.693   2.536   3.657
  795SOL    HW2  427   1.717   2.379   3.620
  796SOL     OW  428   1.362   3.006   2.407
  796SOL    HW1  429   1.445   2.977   2.359
  796SOL    HW2  430   1.313   3.073   2.351
  798SOL     OW  431   1.008   3.318   2.339
  798SOL    HW1  432   0.962   3.390   2.287
  798SOL    HW2  433   1.004   3.338   2.437
  800SOL     OW  434   1.795   2.928   2.735
  800SOL    HW1  435   1.733   2.913   2.659
  800SOL    HW2  436   1.743   2.939   2.820
  803SOL     OW  437   1.458   2.597   2.590
  803SOL    HW1  438   1.453   2.532   2.665
  803SOL    HW2  439   1.538   2.656   2.603
  807SOL     OW  440   1.632   3.239   1.943
  807SOL    HW1  441   1.600   3.333   1.933
  807SOL    HW2  442   1.556   3.176   1.931
  809SOL     OW  443   1.400   1.969   2.288
  809SOL    HW1  444   1.376   1.932   2.198
  809SOL    HW2  445   1.499   1.985   2.292
  813SOL     OW  446   1.547   2.084   3.591
  813SOL    HW1  447   1.542   2.121   3.683
  813SOL    HW2  448   1.475   2.015   3.579
  817SOL     OW  449   1.351   2.452   3.295
  817SOL    HW1  450   1.379   2.409   3.380
  817SOL    HW2  451   1.376   2.548   3.296
  819SOL     OW  452   0.922   2.365   2.761
  819SOL    HW1  453   0.897   2.356   2.665
  819SOL    HW2  454   0.970   2.283   2.792
  821SOL     OW  455   1.434   3.050   1.903
  821SOL    HW1  456   1.466   2.974   1.960
  821SOL    HW2  457   1.342   3.077   1.933
  823SOL     OW  458   0.935   2.098   2.342
  823SOL    HW1  459   0.887   2.139   2.264
  823SOL    HW2  460   1.034   2.096   2.323
  824SOL     OW  461   1.076   2.545   3.326
  824SOL    HW1  462   0.996   2.484   3.329
  824SOL    HW2  463   1.157   2.492   3.302
  825SOL     OW  464   1.227   3.432   2.655
  825SOL    HW1  465   1.248   3.506   2.590
  825SOL    HW2  466   1.295   3.432   2.728
  827SOL     OW  467   1.271   3.659   2.453
  827SOL    HW1  468   1.315   3.723   2.389
  827SOL    HW2  469   1.221   3.711   2.523
  828SOL     OW  470   1.032   2.411   1.878
  828SOL    HW1  471   0.991   2.493   1.839
  828SOL    HW2  472   1.096   2.437   1.951
  831SOL     OW  473   0.866   2.316   2.504
  831SOL    HW1  474   0.834   2.388   2.442
  831SOL    HW2  475   0.890   2.235   2.451
  832SOL     OW  476   1.017   1.901   2.615
  832SOL    HW1  477   0.945   1.906   2.546
  832SOL    HW2  478   0.993   1.832   2.684
  833SOL     OW  479   1.429   3.035   2.729
  833SOL    HW1  480   1.374   2.951   2.722
  833SOL    HW2  481   1.455   3.064   2.637
  834SOL     OW  482   1.466   2.452   2.854
  834SOL    HW1  483   1.436   2.357   2.861
  834SOL    HW2  484   1.539   2.468   2.920
  835SOL     OW  485   1.857   2.695   2.239
  835SOL    HW1  486   1.899   2.631   2.303
  835SOL    HW2  487   1.819   2.644   2.161
  837SOL     OW  488   1.664   3.142   2.519
  837SOL    HW1  489   1.763   3.150   2.533
  837SOL    HW2  490   1.619   3.226   2.550
  838SOL     OW  491   1.390   2.437   1.940
  838SOL    HW1  492   1.336   2.416   2.021
  838SOL    HW2  493   1.481   2.396   1.949
  840SOL     OW  494   1.754   3.085   3.450
  840SOL    HW1  495   1.845   3.046   3.437
  840SOL    HW2  496   1.762   3.181   3.474
  841SOL     OW  497   1.064   3.209   3.202
  841SOL    HW1  498   0.984   3.186   3.257
  841SOL    HW2  499   1.147   3.183   3.251
  842SOL     OW  500   1.592   3.491   3.487
  842SOL    HW1  501   1.619   3.525   3.397
  842SOL    HW2  502   1.671   3.453   3.533
  843SOL     OW  503   1.111   3.057   2.962
  843SOL    HW1  504   1.071   3.101   3.043
  843SOL    HW2  505   1.070   3.094   2.879
  844SOL     OW  506   1.638   2.961   2.941
  844SOL    HW1  507   1.643   3.042   3.000
  844SOL    HW2  508   1.552   2.963   2.890
  845SOL     OW  509   0.915   1.951   3.264
  845SOL    HW1  510   0.940   1.931   3.169
  845SOL    HW2  511   0.987   2.007   3.306
  847SOL     OW  512   0.705   2.912   2.230
  847SOL    HW1  513   0.691   2.919   2.329
  847SOL    HW2  514   0.789   2.861   2.212
  849SOL     OW  515   1.274   2.248   3.124
  849SOL    HW1  516   1.295   2.322   3.188
  849SOL    HW2  517   1.185   2.265   3.081
  853SOL     OW  518   1.252   3.210   2.250
  853SOL    HW1  519   1.302   3.287   2.290
  853SOL    HW2  520   1.157   3.212   2.282
  854SOL     OW  521   1.272   3.307   3.004
  854SOL    HW1  522   1.319   3.320   3.091
  854SOL    HW2  523   1.206   3.233   3.013
  855SOL     OW  524   1.582   2.501   2.334
  855SOL    HW1  525   1.551   2.562   2.407
  855SOL    HW2  526   1.632   2.553   2.265
  858SOL     OW  527   1.587   2.641   3.532
  858SOL    HW1  528   1.495   2.679   3.527
  858SOL    HW2  529   1.647   2.688   3.467
  862SOL     OW  530   1.360   2.724   2.907
  862SOL    HW1  531   1.285   2.724   2.841
  862SOL    HW2  532   1.397   2.632   2.916
  863SOL     OW  533   1.209   2.387   2.137
  863SOL    HW1  534   1.222   2.303   2.191
  863SOL    HW2  535   1.180   2.461   2.197
  866SOL     OW  536   0.732   2.496   2.926
  866SOL    HW1  537   0.791   2.470   2.850
  866SOL    HW2  538   0.704   2.592   2.915
  867SOL     OW  539   1.728   2.797   3.716
  867SOL    HW1  540   1.682   2.790   3.627
  867SOL    HW2  541   1.666   2.841   3.782
  869SOL     OW  542   1.622   2.229   2.236
  869SOL    HW1  543   1.624   2.153   2.300
  869SOL    HW2  544   1.574   2.306   2.276
  870SOL     OW  545   1.023   2.628   2.828
  870SOL    HW1  546   1.038   2.649   2.924
  870SOL    HW2  547   0.993   2.533   2.819
  872SOL     OW  548   1.859   3.380   3.467
  872SOL    HW1  549   1.873   3.407   3.372
  872SOL    HW2  550   1.942   3.402   3.520
  874SOL     OW  551   1.540   2.136   1.987
  874SOL    HW1  552   1.479   2.061   2.010
  874SOL    HW2  553   1.562   2.188   2.070
  875SOL     OW  554   1.303   2.700   1.904
  875SOL    HW1  555   1.337   2.607   1.919
  875SOL    HW2  556   1.321   2.727   1.809
  876SOL     OW  557   1.068   3.195   2.711
  876SOL    HW1  558   1.075   3.111   2.656
  876SOL    HW2  559   1.130   3.264   2.675
  879SOL     OW  560   1.138   2.242   3.540
  879SOL    HW1  561   1.093   2.305   3.604
  879SOL    HW2  562   1.231   2.273   3.523
  880SOL     OW  563   1.160   2.069   3.339
  880SOL    HW1  564   1.160   2.133   3.416
  880SOL    HW2  565   1.188   2.117   3.256
  884SOL     OW  566   1.002   2.658   3.100
  884SOL    HW1  567   1.043   2.626   3.186
  884SOL    HW2  568   0.906   2.631   3.097
  887SOL     OW  569   1.369   2.812   3.522
  887SOL    HW1  570   1.408   2.901   3.542
  887SOL    HW2  571   1.379   2.792   3.425
  888SOL     OW  572   0.815   2.434   2.187
  888SOL    HW1  573   0.822   2.345   2.141
  888SOL    HW2  574   0.721   2.468   2.179
  889SOL     OW  575   1.657   2.466   3.068
  889SOL    HW1  576   1.619   2.397   3.130
  889SOL    HW2  577   1.739   2.430   3.024
  895SOL     OW  578   1.347   2.921   3.096
  895SOL    HW1  579   1.371   2.858   3.022
  895SOL    HW2  580   1.257   2.961   3.078
  896SOL     OW  581   1.302   2.717   2.171
  896SOL    HW1  582   1.216   2.686   2.213
  896SOL    HW2  583   1.298   2.703   2.072
  897SOL     OW  584   1.759   3.609   3.016
  897SOL    HW1  585   1.820   3.639   2.943
  897SOL    HW2  586   1.721   3.520   2.994
  898SOL     OW  587   1.252   3.593   2.990
  898SOL    HW1  588   1.336   3.598   2.936
  898SOL    HW2  589   1.229   3.497   3.008
  901SOL     OW  590   1.726   1.997   2.385
  901SOL    HW1  591   1.799   1.980   2.318
  901SOL    HW2  592   1.695   1.910   2.423
  902SOL     OW  593   1.388   3.435   2.339
  902SOL    HW1  594   1.455   3.447   2.265
  902SOL    HW2  595   1.348   3.524   2.362
  904SOL     OW  596   1.280   2.789   2.534
  904SOL    HW1  597   1.340   2.708   2.536
  904SOL    HW2  598   1.320   2.858   2.474
  907SOL     OW  599   1.650   3.582   3.256
  907SOL    HW1  600   1.703   3.592   3.172
  907SOL    HW2  601   1.623   3.672   3.290
  908SOL     OW  602   1.841   2.037   2.825
  908SOL    HW1  603   1.880   1.952   2.789
  908SOL    HW2  604   1.743   2.039   2.806
  910SOL     OW  605   1.194   3.474   1.893
  910SOL    HW1  606   1.200   3.381   1.930
  910SOL    HW2  607   1.135   3.474   1.813
  912SOL     OW  608   0.916   2.772   2.153
  912SOL    HW1  609   0.979   2.810   2.085
  912SOL    HW2  610   0.956   2.689   2.192
  913SOL     OW  611   1.504   3.469   1.906
  913SOL    HW1  612   1.412   3.506   1.913
  913SOL    HW2  613   1.542   3.489   1.816
  915SOL     OW  614   1.614   3.154   3.151
  915SOL    HW1  615   1.674   3.157   3.231
  915SOL    HW2  616   1.539   3.218   3.164
  916SOL     OW  617   1.039   2.960   2.558
  916SOL    HW1  618   0.969   2.913   2.612
  916SOL    HW2  619   1.098   2.892   2.515
  917SOL     OW  620   1.014   2.098   2.833
  917SOL    HW1  621   1.006   2.062   2.740
  917SOL    HW2  622   1.012   2.022   2.898
  919SOL     OW  623   1.709   2.247   3.243
  919SOL    HW1  624   1.782   2.316   3.247
  919SOL    HW2  625   1.737   2.172   3.184
  924SOL     OW  626   1.440   2.718   3.260
  924SOL    HW1  627   1.383   2.770   3.197
  924SOL    HW2  628   1.536   2.730   3.236
  926SOL     OW  629   1.183   3.197   1.981
  926SOL    HW1  630   1.084   3.186   1.983
  926SOL    HW2  631   1.217   3.212   2.074
  928SOL     OW  632   1.493   3.629   2.821
  928SOL    HW1  633   1.526   3.693   2.752
  928SOL    HW2  634   1.559   3.623   2.896
  930SOL     OW  635   1.450   3.082   3.495
  930SOL    HW1  636   1.441   3.072   3.594
  930SOL    HW2  637   1.546   3.075   3.469
  932SOL     OW  638   1.674   2.745   3.116
  932SOL    HW1  639   1.647   2.656   3.079
  932SOL    HW2  640   1.675   2.813   3.043
  933SOL     OW  641   1.225   2.187   2.311
  933SOL    HW1  642   1.290   2.113   2.300
  933SOL    HW2  643   1.245   2.237   2.395
  934SOL     OW  644   0.594   2.607   2.514
  934SOL    HW1  645   0.644   2.692   2.495
  934SOL    HW2  646   0.506   2.609   2.466
  935SOL     OW  647   1.777   2.204   3.504
  935SOL    HW1  648   1.760   2.235   3.410
  935SOL    HW2  649   1.693   2.167   3.542
  936SOL     OW  650   1.730   2.796   3.379
  936SOL    HW1  651   1.768   2.887   3.394
  936SOL    HW2  652   1.722   2.779   3.280
  939SOL     OW  653   0.859   2.818   2.723
  939SOL    HW1  654   0.913   2.749   2.771
  939SOL    HW2  655   0.827   2.887   2.789
  940SOL     OW  656   1.083   2.846   1.949
  940SOL    HW1  657   1.060   2.899   1.867
  940SOL    HW2  658   1.164   2.790   1.930
  941SOL     OW  659   1.861   3.431   2.713
  941SOL    HW1  660   1.790   3.419   2.643
  941SOL    HW2  661   1.862   3.352   2.773
  945SOL     OW  662   1.824   2.054   3.089
  945SOL    HW1  663   1.820   1.964   3.133
  945SOL    HW2  664   1.827   2.043   2.990
  947SOL     OW  665   1.705   3.349   2.966
  947SOL    HW1  666   1.612   3.324   2.939
  947SOL    HW2  667   1.731   3.299   3.048
  950SOL     OW  668   1.424   2.076   2.974
  950SOL    HW1  669   1.476   2.011   3.029
  950SOL    HW2  670   1.375   2.139   3.035
  951SOL     OW  671   1.001   1.896   3.016
  951SOL    HW1  672   0.938   1.824   2.985
  951SOL    HW2  673   1.094   1.860   3.016
  954SOL     OW  674   1.352   1.914   2.030
  954SOL    HW1  675   1.387   1.873   1.946
  954SOL    HW2  676   1.262   1.876   2.050
  955SOL     OW  677   1.300   2.315   2.553
  955SOL    HW1  678   1.241   2.395   2.557
  955SOL    HW2  679   1.315   2.280   2.646
  956SOL     OW  680   1.593   2.083   2.744
  956SOL    HW1  681   1.509   2.082   2.798
  956SOL    HW2  682   1.595   2.166   2.688
  963SOL     OW  683   1.755   2.469   3.955
  963SOL    HW1  684   1.743   2.456   3.856
  963SOL    HW2  685   1.725   2.388   4.004
 1013SOL     OW  686   1.390   2.437   3.802
 1013SOL    HW1  687   1.336   2.416   3.883
 1013SOL    HW2  688   1.481   2.396   3.811
 1024SOL     OW  689   1.540   2.136   3.849
 1024SOL    HW1  690   1.479   2.061   3.872
 1024SOL    HW2  691   1.562   2.188   3.932
 1025SOL     OW  692   1.303   2.700   3.766
 1025SOL    HW1  693   1.337   2.607   3.781
 1025SOL    HW2  694   1.321   2.727   3.671
 1206SOL     OW  695   1.400   3.831   2.288
 1206SOL    HW1  696   1.376   3.794   2.198
 1206SOL    HW2  697   1.499   3.847   2.292
 1261SOL     OW  698   1.726   3.859   2.385
 1261SOL    HW1  699   1.799   3.842   2.318
 1261SOL    HW2  700   1.695   3.772   2.423
 1263SOL     OW  701   1.841   3.899   2.825
 1263SOL    HW1  702   1.880   3.814   2.789
 1263SOL    HW2  703   1.743   3.901   2.806
 1285SOL     OW  704   1.352   3.776   2.030
 1285SOL    HW1  705   1.387   3.735   1.946
 1285SOL    HW2  706   1.262   3.738   2.050
 1349SOL     OW  707   2.431   1.275   1.165
 1349SOL    HW1  708   2.338   1.268   1.128
 1349SOL    HW2  709   2.442   1.364   1.209
 1354SOL     OW  710   2.712   0.798   1.823
 1354SOL    HW1  711   2.708   0.874   1.888
 1354SOL    HW2  712   2.734   0.834   1.732
 1356SOL     OW  713   2.548   1.161   1.803
 1356SOL    HW1  714   2.608   1.240   1.817
 1356SOL    HW2  715   2.462   1.192   1.762
 1357SOL     OW  716   2.197   1.435   1.061
 1357SOL    HW1  717   2.119   1.404   1.008
 1357SOL    HW2  718   2.255   1.493   1.004
 1358SOL     OW  719   3.322   1.505   1.339
 1358SOL    HW1  720   3.346   1.599   1.365
 1358SOL    HW2  721   3.306   1.451   1.421
 1362SOL     OW  722   2.989   1.341   1.690
 1362SOL    HW1  723   3.036   1.341   1.778
 1362SOL    HW2  724   2.941   1.254   1.679
 1365SOL     OW  725   2.482   1.786   1.439
 1365SOL    HW1  726   2.390   1.769   1.474
 1365SOL    HW2  727   2.510   1.878   1.465
 1374SOL     OW  728   3.155   1.228   1.423
 1374SOL    HW1  729   3.192   1.155   1.365
 1374SOL    HW2  730   3.207   1.233   1.508
 1376SOL     OW  731   2.059   0.976   1.264
 1376SOL    HW1  732   2.148   0.931   1.250
 1376SOL    HW2  733   1.986   0.911   1.245
 1378SOL     OW  734   3.049   1.792   1.616
 1378SOL    HW1  735   3.073   1.852   1.540
 1378SOL    HW2  736   3.056   1.697   1.586
 1387SOL     OW  737   2.835   0.890   1.572
 1387SOL    HW1  738   2.881   0.806   1.543
 1387SOL    HW2  739   2.779   0.924   1.497
 1391SOL     OW  740   1.992   1.821   1.571
 1391SOL    HW1  741   1.982   1.806   1.670
 1391SOL    HW2  742   1.906   1.857   1.535
 1397SOL     OW  743   2.213   1.801   0.853
 1397SOL    HW1  744   2.263   1.715   0.859
 1397SOL    HW2  745   2.278   1.878   0.850
 1399SOL     OW  746   3.089   1.550   1.506
 1399SOL    HW1  747   3.095   1.473   1.570
 1399SOL    HW2  748   3.037   1.524   1.426
 1402SOL     OW  749   2.323   1.266   1.727
 1402SOL    HW1  750   2.273   1.267   1.641
 1402SOL    HW2  751   2.260   1.248   1.803
 1408SOL     OW  752   2.111   1.785   1.241
 1408SOL    HW1  753   2.168   1.720   1.291
 1408SOL    HW2  754   2.095   1.752   1.148
 1409SOL     OW  755   2.802   1.698   0.904
 1409SOL    HW1  756   2.882   1.641   0.925
 1409SOL    HW2  757   2.753   1.658   0.827
 1414SOL     OW  758   2.750   1.514   1.195
 1414SOL    HW1  759   2.727   1.489   1.101
 1414SOL    HW2  760   2.811   1.445   1.234
 1416SOL     OW  761   2.665   1.402   0.924
 1416SOL    HW1  762   2.755   1.416   0.882
 1416SOL    HW2  763   2.594   1.404   0.853
 1439SOL     OW  764   2.926   1.347   1.340
 1439SOL    HW1  765   2.846   1.324   1.395
 1439SOL    HW2  766   3.009   1.321   1.389
 1440SOL     OW  767   3.454   1.629   1.625
 1440SOL    HW1  768   3.481   1.663   1.535
 1440SOL    HW2  769   3.533   1.591   1.671
 1444SOL     OW  770   2.842   1.116   1.719
 1444SOL    HW1  771   2.743   1.122   1.729
 1444SOL    HW2  772   2.865   1.036   1.663
 1448SOL     OW  773   1.926   1.564   1.331
 1448SOL    HW1  774   1.880   1.646   1.297
 1448SOL    HW2  775   2.024   1.583   1.340
 1452SOL     OW  776   3.134   1.445   1.142
 1452SOL    HW1  777   3.181   1.458   1.229
 1452SOL    HW2  778   3.068   1.371   1.151
 1454SOL     OW  779   2.216   1.510   1.329
 1454SOL    HW1  780   2.195   1.466   1.242
 1454SOL    HW2  781   2.313   1.536   1.332
 1455SOL     OW  782   2.264   0.751   1.598
 1455SOL    HW1  783   2.332   0.806   1.551
 1455SOL    HW2  784   2.304   0.663   1.625
 1463SOL     OW  785   1.899   1.310   1.282
 1463SOL    HW1  786   1.952   1.261   1.350
 1463SOL    HW2  787   1.921   1.408   1.287
 1469SOL     OW  788   2.842   1.573   1.700
 1469SOL    HW1  789   2.822   1.617   1.612
 1469SOL    HW2  790   2.881   1.482   1.684
 1470SOL     OW  791   3.721   1.518   1.605
 1470SOL    HW1  792   3.735   1.545   1.510
 1470SOL    HW2  793   3.804   1.540   1.658
 1471SOL     OW  794   2.212   0.898   1.804
 1471SOL    HW1  795   2.288   0.942   1.852
 1471SOL    HW2  796   2.247   0.851   1.722
 1480SOL     OW  797   1.950   1.801   0.927
 1480SOL    HW1  798   1.908   1.715   0.900
 1480SOL    HW2  799   2.044   1.804   0.893
 1481SOL     OW  800   2.366   1.568   0.910
 1481SOL    HW1  801   2.432   1.642   0.919
 1481SOL    HW2  802   2.410   1.489   0.868
 1485SOL     OW  803   3.231   0.950   1.660
 1485SOL    HW1  804   3.270   1.039   1.680
 1485SOL    HW2  805   3.241   0.930   1.563
 1488SOL     OW  806   2.114   1.564   1.744
 1488SOL    HW1  807   2.084   1.621   1.820
 1488SOL    HW2  808   2.107   1.467   1.770
 1490SOL     OW  809   2.792   1.678   1.465
 1490SOL    HW1  810   2.768   1.660   1.370
 1490SOL    HW2  811   2.822   1.772   1.475
 1492SOL     OW  812   2.021   1.137   1.466
 1492SOL    HW1  813   2.043   1.076   1.542
 1492SOL    HW2  814   2.031   1.088   1.380
 1496SOL     OW  815   3.114   1.731   1.128
 1496SOL    HW1  816   3.198   1.736   1.074
 1496SOL    HW2  817   3.091   1.635   1.146
 1497SOL     OW  818   1.945   1.258   1.022
 1497SOL    HW1  819   1.940   1.257   1.122
 1497SOL    HW2  820   1.862   1.217   0.984
 1498SOL     OW  821   2.550   1.662   1.716
 1498SOL    HW1  822   2.494   1.743   1.725
 1498SOL    HW2  823   2.602   1.666   1.630
 1502SOL     OW  824   1.992   1.794   1.851
 1502SOL    HW1  825   1.951   1.720   1.904
 1502SOL    HW2  826   2.056   1.845   1.909
 1504SOL     OW  827   2.692   1.273   1.422
 1504SOL    HW1  828   2.687   1.306   1.517
 1504SOL    HW2  829   2.606   1.292   1.376
 1506SOL     OW  830   3.512   1.720   1.394
 1506SOL    HW1  831   3.565   1.730   1.310
 1506SOL    HW2  832   3.485   1.810   1.428
 1510SOL     OW  833   2.684   1.002   1.372
 1510SOL    HW1  834   2.724   1.001   1.280
 1510SOL    HW2  835   2.694   1.094   1.412
 1513SOL     OW  836   2.234   1.288   1.490
 1513SOL    HW1  837   2.221   1.381   1.456
 1513SOL    HW2  838   2.150   1.236   1.477
 1520SOL     OW  839   1.967   1.013   1.726
 1520SOL    HW1  840   1.890   0.980   1.780
 1520SOL    HW2  841   2.052   0.983   1.768
 1524SOL     OW  842   2.475   0.842   1.431
 1524SOL    HW1  843   2.531   0.923   1.414
 1524SOL    HW2  844   2.534   0.762   1.434
 1527SOL     OW  845   3.312   1.220   1.633
 1527SOL    HW1  846   3.303   1.210   1.732
 1527SOL    HW2  847   3.408   1.213   1.607
 1528SOL     OW  848   2.252   1.741   1.560
 1528SOL    HW1  849   2.161   1.782   1.558
 1528SOL    HW2  850   2.245   1.647   1.592
 1535SOL     OW  851   2.523   1.790   0.953
 1535SOL    HW1  852   2.477   1.878   0.940
 1535SOL    HW2  853   2.622   1.802   0.946
 1539SOL     OW  854   2.083   1.314   1.844
 1539SOL    HW1  855   2.018   1.241   1.823
 1539SOL    HW2  856   2.087   1.328   1.942
 1541SOL     OW  857   2.534   1.391   1.624
 1541SOL    HW1  858   2.456   1.341   1.662
 1541SOL    HW2  859   2.531   1.486   1.655
 1550SOL     OW  860   2.480   1.567   1.284
 1550SOL    HW1  861   2.475   1.649   1.341
 1550SOL    HW2  862   2.569   1.564   1.239
 1556SOL     OW  863   2.092   0.628   1.975
 1556SOL    HW1  864   1.999   0.626   2.012
 1556SOL    HW2  865   2.093   0.589   1.883
 1559SOL     OW  866   2.431   1.275   3.027
 1559SOL    HW1  867   2.338   1.268   2.990
 1559SOL    HW2  868   2.442   1.364   3.071
 1560SOL     OW  869   3.417   1.511   2.565
 1560SOL    HW1  870   3.360   1.495   2.646
 1560SOL    HW2  871   3.358   1.521   2.485
 1561SOL     OW  872   2.997   0.703   2.579
 1561SOL    HW1  873   3.054   0.781   2.554
 1561SOL    HW2  874   2.937   0.729   2.655
 1563SOL     OW  875   2.630   1.144   2.885
 1563SOL    HW1  876   2.552   1.161   2.945
 1563SOL    HW2  877   2.664   1.231   2.849
 1565SOL     OW  878   2.547   1.012   2.527
 1565SOL    HW1  879   2.616   0.996   2.597
 1565SOL    HW2  880   2.474   1.069   2.565
 1566SOL     OW  881   2.548   1.161   3.665
 1566SOL    HW1  882   2.608   1.240   3.679
 1566SOL    HW2  883   2.462   1.192   3.624
 1567SOL     OW  884   2.197   1.435   2.923
 1567SOL    HW1  885   2.119   1.404   2.870
 1567SOL    HW2  886   2.255   1.493   2.866
 1568SOL     OW  887   3.322   1.505   3.201
 1568SOL    HW1  888   3.346   1.599   3.227
 1568SOL    HW2  889   3.306   1.451   3.283
 1571SOL     OW  890   2.093   1.713   2.345
 1571SOL    HW1  891   2.127   1.790   2.399
 1571SOL    HW2  892   2.137   1.713   2.255
 1572SOL     OW  893   2.989   1.341   3.552
 1572SOL    HW1  894   3.036   1.341   3.640
 1572SOL    HW2  895   2.941   1.254   3.541
 1573SOL     OW  896   2.092   1.434   2.400
 1573SOL    HW1  897   2.066   1.530   2.400
 1573SOL    HW2  898   2.021   1.380   2.445
 1574SOL     OW  899   2.102   1.091   2.748
 1574SOL    HW1  900   2.116   1.007   2.800
 1574SOL    HW2  901   2.047   1.155   2.803
 1575SOL     OW  902   2.482   1.786   3.301
 1575SOL    HW1  903   2.390   1.769   3.336
 1575SOL    HW2  904   2.510   1.878   3.327
 1576SOL     OW  905   2.468   0.964   1.985
 1576SOL    HW1  906   2.475   1.048   1.931
 1576SOL    HW2  907   2.514   0.977   2.073
 1578SOL     OW  908   1.984   0.643   2.425
 1578SOL    HW1  909   1.939   0.555   2.442
 1578SOL    HW2  910   1.983   0.697   2.509
 1579SOL     OW  911   3.704   1.767   2.221
 1579SOL    HW1  912   3.758   1.738   2.301
 1579SOL    HW2  913   3.734   1.857   2.192
 1580SOL     OW  914   1.889   1.596   1.979
 1580SOL    HW1  915   1.870   1.500   2.000
 1580SOL    HW2  916   1.856   1.654   2.054
 1582SOL     OW  917   3.503   1.108   2.294
 1582SOL    HW1  918   3.589   1.110   2.242
 1582SOL    HW2  919   3.517   1.155   2.382
 1584SOL     OW  920   2.475   1.365   2.588
 1584SOL    HW1  921   2.426   1.278   2.597
 1584SOL    HW2  922   2.452   1.408   2.501
 1585SOL     OW  923   3.155   1.228   3.285
 1585SOL    HW1  924   3.192   1.155   3.227
 1585SOL    HW2  925   3.207   1.233   3.370
 1587SOL     OW  926   2.059   0.976   3.126
 1587SOL    HW1  927   2.148   0.931   3.112
 1587SOL    HW2  928   1.986   0.911   3.107
 1588SOL     OW  929   3.387   0.999   2.052
 1588SOL    HW1  930   3.324   0.923   2.065
 1588SOL    HW2  931   3.435   1.017   2.138
 1589SOL     OW  932   3.049   1.792   3.478
 1589SOL    HW1  933   3.073   1.852   3.402
 1589SOL    HW2  934   3.056   1.697   3.448
 1591SOL     OW  935   3.328   1.417   2.815
 1591SOL    HW1  936   3.269   1.423   2.895
 1591SOL    HW2  937   3.313   1.329   2.769
 1592SOL     OW  938   3.529   1.714   2.434
 1592SOL    HW1  939   3.488   1.691   2.346
 1592SOL    HW2  940   3.511   1.640   2.499
 1593SOL     OW  941   2.460   0.729   2.132
 1593SOL    HW1  942   2.484   0.798   2.064
 1593SOL    HW2  943   2.382   0.762   2.186
 1595SOL     OW  944   3.438   1.662   2.169
 1595SOL    HW1  945   3.527   1.708   2.172
 1595SOL    HW2  946   3.417   1.638   2.074
 1600SOL     OW  947   2.903   0.701   2.291
 1600SOL    HW1  948   2.929   0.697   2.387
 1600SOL    HW2  949   2.818   0.650   2.277
 1601SOL     OW  950   1.938   0.811   2.651
 1601SOL    HW1  951   2.037   0.799   2.660
 1601SOL    HW2  952   1.914   0.906   2.672
 1602SOL     OW  953   1.992   1.821   3.433
 1602SOL    HW1  954   1.982   1.806   3.532
 1602SOL    HW2  955   1.906   1.857   3.397
 1605SOL     OW  956   3.224   1.144   2.407
 1605SOL    HW1  957   3.307   1.115   2.359
 1605SOL    HW2  958   3.175   1.211   2.351
 1607SOL     OW  959   2.870   1.456   2.339
 1607SOL    HW1  960   2.824   1.528   2.287
 1607SOL    HW2  961   2.866   1.476   2.437
 1608SOL     OW  962   2.213   1.801   2.715
 1608SOL    HW1  963   2.263   1.715   2.721
 1608SOL    HW2  964   2.278   1.878   2.712
 1610SOL     OW  965   3.089   1.550   3.368
 1610SOL    HW1  966   3.095   1.473   3.432
 1610SOL    HW2  967   3.037   1.524   3.288
 1611SOL     OW  968   2.183   0.943   2.104
 1611SOL    HW1  969   2.265   0.982   2.062
 1611SOL    HW2  970   2.156   0.861   2.055
 1613SOL     OW  971   2.323   1.266   3.589
 1613SOL    HW1  972   2.273   1.267   3.503
 1613SOL    HW2  973   2.260   1.248   3.665
 1614SOL     OW  974   2.973   1.776   2.099
 1614SOL    HW1  975   2.913   1.714   2.149
 1614SOL    HW2  976   3.004   1.732   2.014
 1616SOL     OW  977   3.494   1.377   1.943
 1616SOL    HW1  978   3.462   1.471   1.933
 1616SOL    HW2  979   3.418   1.314   1.931
 1617SOL     OW  980   2.326   1.743   2.185
 1617SOL    HW1  981   2.359   1.782   2.271
 1617SOL    HW2  982   2.402   1.736   2.120
 1619SOL     OW  983   2.111   1.785   3.103
 1619SOL    HW1  984   2.168   1.720   3.153
 1619SOL    HW2  985   2.095   1.752   3.010
 1620SOL     OW  986   2.802   1.698   2.766
 1620SOL    HW1  987   2.882   1.641   2.787
 1620SOL    HW2  988   2.753   1.658   2.689
 1621SOL     OW  989   2.244   0.700   2.342
 1621SOL    HW1  990   2.289   0.610   2.339
 1621SOL    HW2  991   2.150   0.689   2.375
 1625SOL     OW  992   2.750   1.514   3.057
 1625SOL    HW1  993   2.727   1.489   2.963
 1625SOL    HW2  994   2.811   1.445   3.096
 1627SOL     OW  995   2.665   1.402   2.786
 1627SOL    HW1  996   2.755   1.416   2.744
 1627SOL    HW2  997   2.594   1.404   2.715
 1630SOL     OW  998   3.296   1.188   1.903
 1630SOL    HW1  999   3.328   1.112   1.960
 1630SOL    HW2 1000   3.204   1.215   1.933
 1634SOL     OW 1001   3.089   1.570   2.655
 1634SOL    HW1 1002   3.110   1.644   2.590
 1634SOL    HW2 1003   3.157   1.570   2.728
 1635SOL     OW 1004   2.321   1.152   2.603
 1635SOL    HW1 1005   2.250   1.125   2.668
 1635SOL    HW2 1006   2.295   1.124   2.510
 1636SOL     OW 1007   3.133   1.797   2.453
 1636SOL    HW1 1008   3.177   1.861   2.389
 1636SOL    HW2 1009   3.083   1.849   2.523
 1642SOL     OW 1010   3.291   1.173   2.729
 1642SOL    HW1 1011   3.236   1.089   2.722
 1642SOL    HW2 1012   3.317   1.202   2.637
 1645SOL     OW 1013   2.350   1.385   2.036
 1645SOL    HW1 1014   2.263   1.370   2.083
 1645SOL    HW2 1015   2.333   1.411   1.941
 1646SOL     OW 1016   3.526   1.280   2.519
 1646SOL    HW1 1017   3.625   1.288   2.533
 1646SOL    HW2 1018   3.481   1.364   2.550
 1650SOL     OW 1019   2.926   1.347   3.202
 1650SOL    HW1 1020   2.846   1.324   3.257
 1650SOL    HW2 1021   3.009   1.321   3.251
 1651SOL     OW 1022   3.454   1.629   3.487
 1651SOL    HW1 1023   3.481   1.663   3.397
 1651SOL    HW2 1024   3.533   1.591   3.533
 1652SOL     OW 1025   2.973   1.195   2.962
 1652SOL    HW1 1026   2.933   1.239   3.043
 1652SOL    HW2 1027   2.932   1.232   2.879
 1653SOL     OW 1028   3.500   1.099   2.941
 1653SOL    HW1 1029   3.505   1.180   3.000
 1653SOL    HW2 1030   3.414   1.101   2.890
 1656SOL     OW 1031   2.567   1.050   2.230
 1656SOL    HW1 1032   2.553   1.057   2.329
 1656SOL    HW2 1033   2.651   0.999   2.212
 1657SOL     OW 1034   2.272   0.813   3.113
 1657SOL    HW1 1035   2.358   0.825   3.163
 1657SOL    HW2 1036   2.230   0.726   3.140
 1659SOL     OW 1037   1.926   1.564   3.193
 1659SOL    HW1 1038   1.880   1.646   3.159
 1659SOL    HW2 1039   2.024   1.583   3.202
 1660SOL     OW 1040   2.229   1.100   2.363
 1660SOL    HW1 1041   2.222   1.183   2.307
 1660SOL    HW2 1042   2.233   1.020   2.303
 1662SOL     OW 1043   3.114   1.348   2.250
 1662SOL    HW1 1044   3.164   1.425   2.290
 1662SOL    HW2 1045   3.019   1.350   2.282
 1663SOL     OW 1046   3.134   1.445   3.004
 1663SOL    HW1 1047   3.181   1.458   3.091
 1663SOL    HW2 1048   3.068   1.371   3.013
 1665SOL     OW 1049   2.216   1.510   3.191
 1665SOL    HW1 1050   2.195   1.466   3.104
 1665SOL    HW2 1051   2.313   1.536   3.194
 1670SOL     OW 1052   2.435   0.870   2.891
 1670SOL    HW1 1053   2.479   0.959   2.882
 1670SOL    HW2 1054   2.372   0.870   2.968
 1674SOL     OW 1055   1.899   1.310   3.144
 1674SOL    HW1 1056   1.952   1.261   3.212
 1674SOL    HW2 1057   1.921   1.408   3.149
 1679SOL     OW 1058   2.885   0.766   2.828
 1679SOL    HW1 1059   2.900   0.787   2.924
 1679SOL    HW2 1060   2.855   0.671   2.819
 1680SOL     OW 1061   2.842   1.573   3.562
 1680SOL    HW1 1062   2.822   1.617   3.474
 1680SOL    HW2 1063   2.881   1.482   3.546
 1684SOL     OW 1064   3.165   0.838   1.904
 1684SOL    HW1 1065   3.199   0.745   1.919
 1684SOL    HW2 1066   3.183   0.865   1.809
 1685SOL     OW 1067   2.930   1.333   2.711
 1685SOL    HW1 1068   2.937   1.249   2.656
 1685SOL    HW2 1069   2.992   1.402   2.675
 1686SOL     OW 1070   2.181   0.810   2.811
 1686SOL    HW1 1071   2.274   0.846   2.816
 1686SOL    HW2 1072   2.175   0.725   2.863
 1690SOL     OW 1073   1.870   1.326   2.062
 1690SOL    HW1 1074   1.777   1.347   2.031
 1690SOL    HW2 1075   1.880   1.227   2.075
 1691SOL     OW 1076   1.950   1.801   2.789
 1691SOL    HW1 1077   1.908   1.715   2.762
 1691SOL    HW2 1078   2.044   1.804   2.755
 1692SOL     OW 1079   2.366   1.568   2.772
 1692SOL    HW1 1080   2.432   1.642   2.781
 1692SOL    HW2 1081   2.410   1.489   2.730
 1699SOL     OW 1082   2.114   1.564   3.606
 1699SOL    HW1 1083   2.084   1.621   3.682
 1699SOL    HW2 1084   2.107   1.467   3.632
 1701SOL     OW 1085   2.792   1.678   3.327
 1701SOL    HW1 1086   2.768   1.660   3.232
 1701SOL    HW2 1087   2.822   1.772   3.337
 1703SOL     OW 1088   2.021   1.137   3.328
 1703SOL    HW1 1089   2.043   1.076   3.404
 1703SOL    HW2 1090   2.031   1.088   3.242
 1704SOL     OW 1091   3.209   1.059   3.096
 1704SOL    HW1 1092   3.233   0.996   3.022
 1704SOL    HW2 1093   3.119   1.099   3.078
 1705SOL     OW 1094   3.164   0.855   2.171
 1705SOL    HW1 1095   3.078   0.824   2.213
 1705SOL    HW2 1096   3.160   0.841   2.072
 1706SOL     OW 1097   3.621   1.747   3.016
 1706SOL    HW1 1098   3.682   1.777   2.943
 1706SOL    HW2 1099   3.583   1.658   2.994
 1707SOL     OW 1100   3.114   1.731   2.990
 1707SOL    HW1 1101   3.198   1.736   2.936
 1707SOL    HW2 1102   3.091   1.635   3.008
 1708SOL     OW 1103   1.945   1.258   2.884
 1708SOL    HW1 1104   1.940   1.257   2.984
 1708SOL    HW2 1105   1.862   1.217   2.846
 1709SOL     OW 1106   2.550   1.662   3.578
 1709SOL    HW1 1107   2.494   1.743   3.587
 1709SOL    HW2 1108   2.602   1.666   3.492
 1711SOL     OW 1109   3.250   1.573   2.339
 1711SOL    HW1 1110   3.317   1.585   2.265
 1711SOL    HW2 1111   3.210   1.662   2.362
 1712SOL     OW 1112   1.992   1.794   3.713
 1712SOL    HW1 1113   1.951   1.720   3.766
 1712SOL    HW2 1114   2.056   1.845   3.771
 1713SOL     OW 1115   3.142   0.927   2.534
 1713SOL    HW1 1116   3.202   0.846   2.536
 1713SOL    HW2 1117   3.182   0.996   2.474
 1714SOL     OW 1118   2.692   1.273   3.284
 1714SOL    HW1 1119   2.687   1.306   3.379
 1714SOL    HW2 1120   2.606   1.292   3.238
 1715SOL     OW 1121   2.534   1.616   2.016
 1715SOL    HW1 1122   2.543   1.626   1.917
 1715SOL    HW2 1123   2.494   1.527   2.037
 1716SOL     OW 1124   3.512   1.720   3.256
 1716SOL    HW1 1125   3.565   1.730   3.172
 1716SOL    HW2 1126   3.485   1.810   3.290
 1719SOL     OW 1127   3.056   1.612   1.893
 1719SOL    HW1 1128   3.062   1.519   1.930
 1719SOL    HW2 1129   2.997   1.612   1.813
 1720SOL     OW 1130   2.684   1.002   3.234
 1720SOL    HW1 1131   2.724   1.001   3.142
 1720SOL    HW2 1132   2.694   1.094   3.274
 1721SOL     OW 1133   2.778   0.910   2.153
 1721SOL    HW1 1134   2.841   0.948   2.085
 1721SOL    HW2 1135   2.818   0.827   2.192
 1722SOL     OW 1136   3.366   1.607   1.906
 1722SOL    HW1 1137   3.274   1.644   1.913
 1722SOL    HW2 1138   3.404   1.627   1.816
 1723SOL     OW 1139   2.234   1.288   3.352
 1723SOL    HW1 1140   2.221   1.381   3.318
 1723SOL    HW2 1141   2.150   1.236   3.339
 1724SOL     OW 1142   3.476   1.292   3.151
 1724SOL    HW1 1143   3.536   1.295   3.231
 1724SOL    HW2 1144   3.401   1.356   3.164
 1725SOL     OW 1145   2.901   1.098   2.558
 1725SOL    HW1 1146   2.831   1.051   2.612
 1725SOL    HW2 1147   2.960   1.030   2.515
 1727SOL     OW 1148   2.452   1.487   2.353
 1727SOL    HW1 1149   2.494   1.429   2.283
 1727SOL    HW2 1150   2.408   1.566   2.309
 1729SOL     OW 1151   2.117   1.348   2.152
 1729SOL    HW1 1152   2.021   1.349   2.125
 1729SOL    HW2 1153   2.129   1.401   2.236
 1735SOL     OW 1154   3.045   1.335   1.981
 1735SOL    HW1 1155   2.946   1.324   1.983
 1735SOL    HW2 1156   3.079   1.350   2.074
 1736SOL     OW 1157   2.475   0.842   3.293
 1736SOL    HW1 1158   2.531   0.923   3.276
 1736SOL    HW2 1159   2.534   0.762   3.296
 1737SOL     OW 1160   3.355   1.767   2.821
 1737SOL    HW1 1161   3.388   1.831   2.752
 1737SOL    HW2 1162   3.421   1.761   2.896
 1740SOL     OW 1163   2.252   1.741   3.422
 1740SOL    HW1 1164   2.161   1.782   3.420
 1740SOL    HW2 1165   2.245   1.647   3.454
 1743SOL     OW 1166   2.456   0.745   2.514
 1743SOL    HW1 1167   2.506   0.830   2.495
 1743SOL    HW2 1168   2.368   0.747   2.466
 1746SOL     OW 1169   2.721   1.374   1.878
 1746SOL    HW1 1170   2.675   1.389   1.966
 1746SOL    HW2 1171   2.765   1.459   1.848
 1747SOL     OW 1172   2.523   1.790   2.815
 1747SOL    HW1 1173   2.477   1.878   2.802
 1747SOL    HW2 1174   2.622   1.802   2.808
 1748SOL     OW 1175   2.721   0.956   2.723
 1748SOL    HW1 1176   2.775   0.887   2.771
 1748SOL    HW2 1177   2.689   1.025   2.789
 1749SOL     OW 1178   2.945   0.984   1.949
 1749SOL    HW1 1179   2.922   1.037   1.867
 1749SOL    HW2 1180   3.026   0.928   1.930
 1750SOL     OW 1181   3.723   1.569   2.713
 1750SOL    HW1 1182   3.652   1.557   2.643
 1750SOL    HW2 1183   3.724   1.490   2.773
 1751SOL     OW 1184   2.083   1.314   3.706
 1751SOL    HW1 1185   2.018   1.241   3.685
 1751SOL    HW2 1186   2.087   1.328   3.804
 1752SOL     OW 1187   1.941   1.240   2.515
 1752SOL    HW1 1188   1.940   1.193   2.603
 1752SOL    HW2 1189   2.023   1.212   2.464
 1753SOL     OW 1190   2.534   1.391   3.486
 1753SOL    HW1 1191   2.456   1.341   3.524
 1753SOL    HW2 1192   2.531   1.486   3.517
 1756SOL     OW 1193   3.567   1.487   2.966
 1756SOL    HW1 1194   3.474   1.462   2.939
 1756SOL    HW2 1195   3.593   1.437   3.048
 1758SOL     OW 1196   2.674   1.586   2.549
 1758SOL    HW1 1197   2.706   1.596   2.455
 1758SOL    HW2 1198   2.595   1.524   2.551
 1761SOL     OW 1199   2.632   1.330   2.163
 1761SOL    HW1 1200   2.586   1.243   2.180
 1761SOL    HW2 1201   2.723   1.327   2.204
 1762SOL     OW 1202   2.480   1.567   3.146
 1762SOL    HW1 1203   2.475   1.649   3.203
 1762SOL    HW2 1204   2.569   1.564   3.101
 1766SOL     OW 1205   1.901   1.077   2.162
 1766SOL    HW1 1206   2.000   1.066   2.153
 1766SOL    HW2 1207   1.861   0.991   2.194
 1767SOL     OW 1208   2.737   1.646   2.199
 1767SOL    HW1 1209   2.660   1.611   2.145
 1767SOL    HW2 1210   2.705   1.717   2.261
 1783SOL     OW 1211   1.889   1.596   3.841
 1783SOL    HW1 1212   1.870   1.500   3.862
 1783SOL    HW2 1213   1.856   1.654   3.916
 1805SOL     OW 1214   2.326   1.743   4.047
 1805SOL    HW1 1215   2.359   1.782   4.133
 1805SOL    HW2 1216   2.402   1.736   3.982
 1847SOL     OW 1217   2.534   1.616   3.878
 1847SOL    HW1 1218   2.543   1.626   3.779
 1847SOL    HW2 1219   2.494   1.527   3.899
 1850SOL     OW 1220   3.056   1.612   3.755
 1850SOL    HW1 1221   3.062   1.519   3.792
 1850SOL    HW2 1222   2.997   1.612   3.675
 1862SOL     OW 1223   2.721   1.374   3.740
 1862SOL    HW1 1224   2.675   1.389   3.828
 1862SOL    HW2 1225   2.765   1.459   3.710
 1878SOL     OW 1226   2.087   2.137   0.996
 1878SOL    HW1 1227   2.122   2.120   1.088
 1878SOL    HW2 1228   1.999   2.092   0.984
 1879SOL     OW 1229   1.881   2.230   0.647
 1879SOL    HW1 1230   1.799   2.273   0.686
 1879SOL    HW2 1231   1.853   2.157   0.584
 1880SOL     OW 1232   2.431   3.137   1.165
 1880SOL    HW1 1233   2.338   3.130   1.128
 1880SOL    HW2 1234   2.442   3.226   1.209
 1882SOL     OW 1235   2.997   2.565   0.717
 1882SOL    HW1 1236   3.054   2.643   0.692
 1882SOL    HW2 1237   2.937   2.591   0.793
 1884SOL     OW 1238   2.630   3.006   1.023
 1884SOL    HW1 1239   2.552   3.023   1.083
 1884SOL    HW2 1240   2.664   3.093   0.987
 1885SOL     OW 1241   2.712   2.660   1.823
 1885SOL    HW1 1242   2.708   2.736   1.888
 1885SOL    HW2 1243   2.734   2.696   1.732
 1886SOL     OW 1244   2.547   2.874   0.665
 1886SOL    HW1 1245   2.616   2.858   0.735
 1886SOL    HW2 1246   2.474   2.931   0.703
 1887SOL     OW 1247   2.548   3.023   1.803
 1887SOL    HW1 1248   2.608   3.102   1.817
 1887SOL    HW2 1249   2.462   3.054   1.762
 1888SOL     OW 1250   2.197   3.297   1.061
 1888SOL    HW1 1251   2.119   3.266   1.008
 1888SOL    HW2 1252   2.255   3.355   1.004
 1889SOL     OW 1253   3.322   3.367   1.339
 1889SOL    HW1 1254   3.346   3.461   1.365
 1889SOL    HW2 1255   3.306   3.313   1.421
 1890SOL     OW 1256   2.300   2.254   1.499
 1890SOL    HW1 1257   2.382   2.198   1.508
 1890SOL    HW2 1258   2.219   2.196   1.503
 1893SOL     OW 1259   2.989   3.203   1.690
 1893SOL    HW1 1260   3.036   3.203   1.778
 1893SOL    HW2 1261   2.941   3.116   1.679
 1895SOL     OW 1262   2.102   2.953   0.886
 1895SOL    HW1 1263   2.116   2.869   0.938
 1895SOL    HW2 1264   2.047   3.017   0.941
 1896SOL     OW 1265   2.482   3.648   1.439
 1896SOL    HW1 1266   2.390   3.631   1.474
 1896SOL    HW2 1267   2.510   3.740   1.465
 1898SOL     OW 1268   3.456   1.976   1.480
 1898SOL    HW1 1269   3.438   2.043   1.408
 1898SOL    HW2 1270   3.453   2.022   1.569
 1903SOL     OW 1271   1.975   2.599   1.597
 1903SOL    HW1 1272   2.063   2.586   1.642
 1903SOL    HW2 1273   1.962   2.696   1.575
 1905SOL     OW 1274   3.155   3.090   1.423
 1905SOL    HW1 1275   3.192   3.017   1.365
 1905SOL    HW2 1276   3.207   3.095   1.508
 1907SOL     OW 1277   2.059   2.838   1.264
 1907SOL    HW1 1278   2.148   2.793   1.250
 1907SOL    HW2 1279   1.986   2.773   1.245
 1909SOL     OW 1280   3.049   3.654   1.616
 1909SOL    HW1 1281   3.073   3.714   1.540
 1909SOL    HW2 1282   3.056   3.559   1.586
 1910SOL     OW 1283   2.179   2.113   1.801
 1910SOL    HW1 1284   2.250   2.184   1.807
 1910SOL    HW2 1285   2.091   2.152   1.829
 1914SOL     OW 1286   3.143   2.207   0.944
 1914SOL    HW1 1287   3.057   2.157   0.931
 1914SOL    HW2 1288   3.205   2.153   1.000
 1916SOL     OW 1289   2.669   2.467   1.465
 1916SOL    HW1 1290   2.622   2.464   1.554
 1916SOL    HW2 1291   2.618   2.412   1.399
 1917SOL     OW 1292   3.256   2.331   1.674
 1917SOL    HW1 1293   3.236   2.374   1.762
 1917SOL    HW2 1294   3.334   2.269   1.683
 1918SOL     OW 1295   2.835   2.752   1.572
 1918SOL    HW1 1296   2.881   2.668   1.543
 1918SOL    HW2 1297   2.779   2.786   1.497
 1919SOL     OW 1298   2.853   2.272   1.242
 1919SOL    HW1 1299   2.776   2.306   1.296
 1919SOL    HW2 1300   2.819   2.221   1.163
 1921SOL     OW 1301   1.938   2.673   0.789
 1921SOL    HW1 1302   2.037   2.661   0.798
 1921SOL    HW2 1303   1.914   2.768   0.810
 1922SOL     OW 1304   1.992   3.683   1.571
 1922SOL    HW1 1305   1.982   3.668   1.670
 1922SOL    HW2 1306   1.906   3.719   1.535
 1924SOL     OW 1307   3.581   2.447   1.831
 1924SOL    HW1 1308   3.555   2.536   1.795
 1924SOL    HW2 1309   3.579   2.379   1.758
 1926SOL     OW 1310   2.412   2.058   0.885
 1926SOL    HW1 1311   2.407   2.053   0.985
 1926SOL    HW2 1312   2.414   2.154   0.856
 1930SOL     OW 1313   3.089   3.412   1.506
 1930SOL    HW1 1314   3.095   3.335   1.570
 1930SOL    HW2 1315   3.037   3.386   1.426
 1933SOL     OW 1316   2.323   3.128   1.727
 1933SOL    HW1 1317   2.273   3.129   1.641
 1933SOL    HW2 1318   2.260   3.110   1.803
 1935SOL     OW 1319   2.064   2.147   1.498
 1935SOL    HW1 1320   1.984   2.207   1.485
 1935SOL    HW2 1321   2.054   2.098   1.584
 1939SOL     OW 1322   2.111   3.647   1.241
 1939SOL    HW1 1323   2.168   3.582   1.291
 1939SOL    HW2 1324   2.095   3.614   1.148
 1942SOL     OW 1325   3.409   2.084   1.729
 1942SOL    HW1 1326   3.404   2.121   1.821
 1942SOL    HW2 1327   3.337   2.015   1.717
 1943SOL     OW 1328   2.643   2.126   1.749
 1943SOL    HW1 1329   2.710   2.065   1.792
 1943SOL    HW2 1330   2.570   2.145   1.814
 1944SOL     OW 1331   2.750   3.376   1.195
 1944SOL    HW1 1332   2.727   3.351   1.101
 1944SOL    HW2 1333   2.811   3.307   1.234
 1945SOL     OW 1334   3.213   2.452   1.433
 1945SOL    HW1 1335   3.241   2.409   1.518
 1945SOL    HW2 1336   3.238   2.548   1.434
 1946SOL     OW 1337   2.665   3.264   0.924
 1946SOL    HW1 1338   2.755   3.278   0.882
 1946SOL    HW2 1339   2.594   3.266   0.853
 1947SOL     OW 1340   2.784   2.365   0.899
 1947SOL    HW1 1341   2.759   2.356   0.803
 1947SOL    HW2 1342   2.832   2.283   0.930
 1952SOL     OW 1343   2.938   2.545   1.464
 1952SOL    HW1 1344   2.858   2.484   1.467
 1952SOL    HW2 1345   3.019   2.492   1.440
 1954SOL     OW 1346   2.321   3.014   0.741
 1954SOL    HW1 1347   2.250   2.987   0.806
 1954SOL    HW2 1348   2.295   2.986   0.648
 1957SOL     OW 1349   1.940   2.418   1.386
 1957SOL    HW1 1350   2.032   2.417   1.345
 1957SOL    HW2 1351   1.934   2.492   1.453
 1958SOL     OW 1352   2.423   2.084   1.147
 1958SOL    HW1 1353   2.461   2.000   1.184
 1958SOL    HW2 1354   2.335   2.103   1.191
 1959SOL     OW 1355   2.728   2.316   0.642
 1959SOL    HW1 1356   2.696   2.388   0.580
 1959SOL    HW2 1357   2.752   2.235   0.589
 1960SOL     OW 1358   2.879   1.901   0.753
 1960SOL    HW1 1359   2.807   1.906   0.684
 1960SOL    HW2 1360   2.855   1.832   0.822
 1962SOL     OW 1361   3.328   2.452   0.992
 1962SOL    HW1 1362   3.298   2.357   0.999
 1962SOL    HW2 1363   3.401   2.468   1.058
 1968SOL     OW 1364   3.616   3.085   1.588
 1968SOL    HW1 1365   3.707   3.046   1.575
 1968SOL    HW2 1366   3.624   3.181   1.612
 1969SOL     OW 1367   2.926   3.209   1.340
 1969SOL    HW1 1368   2.846   3.186   1.395
 1969SOL    HW2 1369   3.009   3.183   1.389
 1970SOL     OW 1370   3.454   3.491   1.625
 1970SOL    HW1 1371   3.481   3.525   1.535
 1970SOL    HW2 1372   3.533   3.453   1.671
 1971SOL     OW 1373   2.973   3.057   1.100
 1971SOL    HW1 1374   2.933   3.101   1.181
 1971SOL    HW2 1375   2.932   3.094   1.017
 1973SOL     OW 1376   2.777   1.951   1.402
 1973SOL    HW1 1377   2.802   1.931   1.307
 1973SOL    HW2 1378   2.849   2.007   1.444
 1974SOL     OW 1379   2.842   2.978   1.719
 1974SOL    HW1 1380   2.743   2.984   1.729
 1974SOL    HW2 1381   2.865   2.898   1.663
 1976SOL     OW 1382   2.272   2.675   1.251
 1976SOL    HW1 1383   2.358   2.687   1.301
 1976SOL    HW2 1384   2.230   2.588   1.278
 1977SOL     OW 1385   3.136   2.248   1.262
 1977SOL    HW1 1386   3.157   2.322   1.326
 1977SOL    HW2 1387   3.047   2.265   1.219
 1978SOL     OW 1388   1.926   3.426   1.331
 1978SOL    HW1 1389   1.880   3.508   1.297
 1978SOL    HW2 1390   2.024   3.445   1.340
 1980SOL     OW 1391   2.428   2.399   0.865
 1980SOL    HW1 1392   2.440   2.465   0.791
 1980SOL    HW2 1393   2.474   2.433   0.948
 1982SOL     OW 1394   3.134   3.307   1.142
 1982SOL    HW1 1395   3.181   3.320   1.229
 1982SOL    HW2 1396   3.068   3.233   1.151
 1984SOL     OW 1397   2.216   3.372   1.329
 1984SOL    HW1 1398   2.195   3.328   1.242
 1984SOL    HW2 1399   2.313   3.398   1.332
 1985SOL     OW 1400   2.264   2.613   1.598
 1985SOL    HW1 1401   2.332   2.668   1.551
 1985SOL    HW2 1402   2.304   2.525   1.625
 1986SOL     OW 1403   3.449   2.641   1.670
 1986SOL    HW1 1404   3.357   2.679   1.665
 1986SOL    HW2 1405   3.509   2.688   1.605
 1987SOL     OW 1406   2.875   1.967   1.770
 1987SOL    HW1 1407   2.881   2.052   1.718
 1987SOL    HW2 1408   2.907   1.891   1.713
 1988SOL     OW 1409   2.366   1.912   1.740
 1988SOL    HW1 1410   2.324   1.855   1.670
 1988SOL    HW2 1411   2.300   1.981   1.772
 1989SOL     OW 1412   2.435   2.732   1.029
 1989SOL    HW1 1413   2.479   2.821   1.020
 1989SOL    HW2 1414   2.372   2.732   1.106
 1990SOL     OW 1415   3.222   2.724   1.045
 1990SOL    HW1 1416   3.147   2.724   0.979
 1990SOL    HW2 1417   3.259   2.632   1.054
 1992SOL     OW 1418   2.169   2.075   1.231
 1992SOL    HW1 1419   2.146   2.112   1.321
 1992SOL    HW2 1420   2.139   1.980   1.225
 1993SOL     OW 1421   1.899   3.172   1.282
 1993SOL    HW1 1422   1.952   3.123   1.350
 1993SOL    HW2 1423   1.921   3.270   1.287
 1994SOL     OW 1424   2.594   2.496   1.064
 1994SOL    HW1 1425   2.653   2.470   0.988
 1994SOL    HW2 1426   2.566   2.592   1.053
 1995SOL     OW 1427   3.590   2.797   1.854
 1995SOL    HW1 1428   3.544   2.790   1.765
 1995SOL    HW2 1429   3.528   2.841   1.920
 1998SOL     OW 1430   2.885   2.628   0.966
 1998SOL    HW1 1431   2.900   2.649   1.062
 1998SOL    HW2 1432   2.855   2.533   0.957
 1999SOL     OW 1433   2.842   3.435   1.700
 1999SOL    HW1 1434   2.822   3.479   1.612
 1999SOL    HW2 1435   2.881   3.344   1.684
 2001SOL     OW 1436   2.212   2.760   1.804
 2001SOL    HW1 1437   2.288   2.804   1.852
 2001SOL    HW2 1438   2.247   2.713   1.722
 2005SOL     OW 1439   2.181   2.672   0.949
 2005SOL    HW1 1440   2.274   2.708   0.954
 2005SOL    HW2 1441   2.175   2.587   1.001
 2006SOL     OW 1442   2.201   2.371   1.006
 2006SOL    HW1 1443   2.149   2.288   0.989
 2006SOL    HW2 1444   2.278   2.376   0.942
 2007SOL     OW 1445   3.000   2.242   1.678
 2007SOL    HW1 1446   2.955   2.305   1.742
 2007SOL    HW2 1447   3.093   2.273   1.661
 2008SOL     OW 1448   3.022   2.069   1.477
 2008SOL    HW1 1449   3.022   2.133   1.554
 2008SOL    HW2 1450   3.050   2.117   1.394
 2012SOL     OW 1451   2.864   2.658   1.238
 2012SOL    HW1 1452   2.905   2.626   1.324
 2012SOL    HW2 1453   2.768   2.631   1.235
 2013SOL     OW 1454   1.902   2.406   1.114
 2013SOL    HW1 1455   1.987   2.373   1.073
 2013SOL    HW2 1456   1.915   2.421   1.212
 2014SOL     OW 1457   2.051   2.382   1.722
 2014SOL    HW1 1458   2.110   2.342   1.652
 2014SOL    HW2 1459   1.993   2.453   1.681
 2015SOL     OW 1460   3.231   2.812   1.660
 2015SOL    HW1 1461   3.270   2.901   1.680
 2015SOL    HW2 1462   3.241   2.792   1.563
 2017SOL     OW 1463   3.519   2.466   1.206
 2017SOL    HW1 1464   3.481   2.397   1.268
 2017SOL    HW2 1465   3.601   2.430   1.162
 2018SOL     OW 1466   2.114   3.426   1.744
 2018SOL    HW1 1467   2.084   3.483   1.820
 2018SOL    HW2 1468   2.107   3.329   1.770
 2019SOL     OW 1469   2.533   2.326   1.269
 2019SOL    HW1 1470   2.499   2.237   1.239
 2019SOL    HW2 1471   2.559   2.380   1.189
 2020SOL     OW 1472   2.792   3.540   1.465
 2020SOL    HW1 1473   2.768   3.522   1.370
 2020SOL    HW2 1474   2.822   3.634   1.475
 2022SOL     OW 1475   2.021   2.999   1.466
 2022SOL    HW1 1476   2.043   2.938   1.542
 2022SOL    HW2 1477   2.031   2.950   1.380
 2023SOL     OW 1478   3.209   2.921   1.234
 2023SOL    HW1 1479   3.233   2.858   1.160
 2023SOL    HW2 1480   3.119   2.961   1.216
 2027SOL     OW 1481   1.945   3.120   1.022
 2027SOL    HW1 1482   1.940   3.119   1.122
 2027SOL    HW2 1483   1.862   3.079   0.984
 2028SOL     OW 1484   2.550   3.524   1.716
 2028SOL    HW1 1485   2.494   3.605   1.725
 2028SOL    HW2 1486   2.602   3.528   1.630
 2032SOL     OW 1487   1.992   3.656   1.851
 2032SOL    HW1 1488   1.951   3.582   1.904
 2032SOL    HW2 1489   2.056   3.707   1.909
 2034SOL     OW 1490   2.692   3.135   1.422
 2034SOL    HW1 1491   2.687   3.168   1.517
 2034SOL    HW2 1492   2.606   3.154   1.376
 2038SOL     OW 1493   2.125   2.188   0.720
 2038SOL    HW1 1494   2.046   2.239   0.686
 2038SOL    HW2 1495   2.116   2.173   0.818
 2040SOL     OW 1496   2.684   2.864   1.372
 2040SOL    HW1 1497   2.724   2.863   1.280
 2040SOL    HW2 1498   2.694   2.956   1.412
 2043SOL     OW 1499   2.234   3.150   1.490
 2043SOL    HW1 1500   2.221   3.243   1.456
 2043SOL    HW2 1501   2.150   3.098   1.477
 2044SOL     OW 1502   3.476   3.154   1.289
 2044SOL    HW1 1503   3.536   3.157   1.369
 2044SOL    HW2 1504   3.401   3.218   1.302
 2046SOL     OW 1505   2.876   2.098   0.971
 2046SOL    HW1 1506   2.868   2.062   0.878
 2046SOL    HW2 1507   2.874   2.022   1.036
 2048SOL     OW 1508   3.571   2.247   1.381
 2048SOL    HW1 1509   3.644   2.316   1.385
 2048SOL    HW2 1510   3.599   2.172   1.322
 2050SOL     OW 1511   1.967   2.875   1.726
 2050SOL    HW1 1512   1.890   2.842   1.780
 2050SOL    HW2 1513   2.052   2.845   1.768
 2051SOL     OW 1514   2.534   2.065   1.489
 2051SOL    HW1 1515   2.624   2.049   1.449
 2051SOL    HW2 1516   2.542   2.070   1.588
 2052SOL     OW 1517   3.302   2.718   1.398
 2052SOL    HW1 1518   3.245   2.770   1.335
 2052SOL    HW2 1519   3.398   2.730   1.374
 2055SOL     OW 1520   2.475   2.704   1.431
 2055SOL    HW1 1521   2.531   2.785   1.414
 2055SOL    HW2 1522   2.534   2.624   1.434
 2057SOL     OW 1523   2.578   2.427   1.708
 2057SOL    HW1 1524   2.597   2.492   1.782
 2057SOL    HW2 1525   2.638   2.347   1.717
 2058SOL     OW 1526   3.312   3.082   1.633
 2058SOL    HW1 1527   3.303   3.072   1.732
 2058SOL    HW2 1528   3.408   3.075   1.607
 2059SOL     OW 1529   2.252   3.603   1.560
 2059SOL    HW1 1530   2.161   3.644   1.558
 2059SOL    HW2 1531   2.245   3.509   1.592
 2060SOL     OW 1532   3.536   2.745   1.254
 2060SOL    HW1 1533   3.509   2.656   1.217
 2060SOL    HW2 1534   3.537   2.813   1.181
 2062SOL     OW 1535   2.456   2.607   0.652
 2062SOL    HW1 1536   2.506   2.692   0.633
 2062SOL    HW2 1537   2.368   2.609   0.604
 2063SOL     OW 1538   3.639   2.204   1.642
 2063SOL    HW1 1539   3.622   2.235   1.548
 2063SOL    HW2 1540   3.555   2.167   1.680
 2064SOL     OW 1541   3.592   2.796   1.517
 2064SOL    HW1 1542   3.630   2.887   1.532
 2064SOL    HW2 1543   3.584   2.779   1.418
 2067SOL     OW 1544   2.721   2.818   0.861
 2067SOL    HW1 1545   2.775   2.749   0.909
 2067SOL    HW2 1546   2.689   2.887   0.927
 2070SOL     OW 1547   2.083   3.176   1.844
 2070SOL    HW1 1548   2.018   3.103   1.823
 2070SOL    HW2 1549   2.087   3.190   1.942
 2072SOL     OW 1550   2.534   3.253   1.624
 2072SOL    HW1 1551   2.456   3.203   1.662
 2072SOL    HW2 1552   2.531   3.348   1.655
 2073SOL     OW 1553   3.686   2.054   1.227
 2073SOL    HW1 1554   3.682   1.964   1.271
 2073SOL    HW2 1555   3.689   2.043   1.128
 2076SOL     OW 1556   2.179   2.409   1.280
 2076SOL    HW1 1557   2.217   2.350   1.352
 2076SOL    HW2 1558   2.219   2.383   1.192
 2078SOL     OW 1559   3.286   2.076   1.112
 2078SOL    HW1 1560   3.338   2.011   1.167
 2078SOL    HW2 1561   3.237   2.139   1.173
 2079SOL     OW 1562   2.863   1.896   1.154
 2079SOL    HW1 1563   2.800   1.824   1.123
 2079SOL    HW2 1564   2.956   1.860   1.154
 2081SOL     OW 1565   2.480   3.429   1.284
 2081SOL    HW1 1566   2.475   3.511   1.341
 2081SOL    HW2 1567   2.569   3.426   1.239
 2087SOL     OW 1568   2.092   2.490   1.975
 2087SOL    HW1 1569   1.999   2.488   2.012
 2087SOL    HW2 1570   2.093   2.451   1.883
 2088SOL     OW 1571   2.087   2.137   2.858
 2088SOL    HW1 1572   2.122   2.120   2.950
 2088SOL    HW2 1573   1.999   2.092   2.846
 2089SOL     OW 1574   1.881   2.230   2.509
 2089SOL    HW1 1575   1.799   2.273   2.548
 2089SOL    HW2 1576   1.853   2.157   2.446
 2090SOL     OW 1577   2.431   3.137   3.027
 2090SOL    HW1 1578   2.338   3.130   2.990
 2090SOL    HW2 1579   2.442   3.226   3.071
 2091SOL     OW 1580   3.417   3.373   2.565
 2091SOL    HW1 1581   3.360   3.357   2.646
 2091SOL    HW2 1582   3.358   3.383   2.485
 2092SOL     OW 1583   2.997   2.565   2.579
 2092SOL    HW1 1584   3.054   2.643   2.554
 2092SOL    HW2 1585   2.937   2.591   2.655
 2093SOL     OW 1586   3.617   2.469   2.093
 2093SOL    HW1 1587   3.605   2.456   1.994
 2093SOL    HW2 1588   3.587   2.388   2.142
 2094SOL     OW 1589   2.630   3.006   2.885
 2094SOL    HW1 1590   2.552   3.023   2.945
 2094SOL    HW2 1591   2.664   3.093   2.849
 2095SOL     OW 1592   2.712   2.660   3.685
 2095SOL    HW1 1593   2.708   2.736   3.750
 2095SOL    HW2 1594   2.734   2.696   3.594
 2096SOL     OW 1595   2.547   2.874   2.527
 2096SOL    HW1 1596   2.616   2.858   2.597
 2096SOL    HW2 1597   2.474   2.931   2.565
 2097SOL     OW 1598   2.548   3.023   3.665
 2097SOL    HW1 1599   2.608   3.102   3.679
 2097SOL    HW2 1600   2.462   3.054   3.624
 2098SOL     OW 1601   2.197   3.297   2.923
 2098SOL    HW1 1602   2.119   3.266   2.870
 2098SOL    HW2 1603   2.255   3.355   2.866
 2099SOL     OW 1604   3.322   3.367   3.201
 2099SOL    HW1 1605   3.346   3.461   3.227
 2099SOL    HW2 1606   3.306   3.313   3.283
 2100SOL     OW 1607   2.300   2.254   3.361
 2100SOL    HW1 1608   2.382   2.198   3.370
 2100SOL    HW2 1609   2.219   2.196   3.365
 2101SOL     OW 1610   3.465   2.309   2.599
 2101SOL    HW1 1611   3.391   2.355   2.549
 2101SOL    HW2 1612   3.516   2.377   2.652
 2102SOL     OW 1613   2.093   3.575   2.345
 2102SOL    HW1 1614   2.127   3.652   2.399
 2102SOL    HW2 1615   2.137   3.575   2.255
 2103SOL     OW 1616   2.989   3.203   3.552
 2103SOL    HW1 1617   3.036   3.203   3.640
 2103SOL    HW2 1618   2.941   3.116   3.541
 2104SOL     OW 1619   2.092   3.296   2.400
 2104SOL    HW1 1620   2.066   3.392   2.400
 2104SOL    HW2 1621   2.021   3.242   2.445
 2105SOL     OW 1622   2.102   2.953   2.748
 2105SOL    HW1 1623   2.116   2.869   2.800
 2105SOL    HW2 1624   2.047   3.017   2.803
 2106SOL     OW 1625   2.482   3.648   3.301
 2106SOL    HW1 1626   2.390   3.631   3.336
 2106SOL    HW2 1627   2.510   3.740   3.327
 2107SOL     OW 1628   2.468   2.826   1.985
 2107SOL    HW1 1629   2.475   2.910   1.931
 2107SOL    HW2 1630   2.514   2.839   2.073
 2108SOL     OW 1631   3.456   1.976   3.342
 2108SOL    HW1 1632   3.438   2.043   3.270
 2108SOL    HW2 1633   3.453   2.022   3.431
 2109SOL     OW 1634   1.984   2.505   2.425
 2109SOL    HW1 1635   1.939   2.417   2.442
 2109SOL    HW2 1636   1.983   2.559   2.509
 2111SOL     OW 1637   1.889   3.458   1.979
 2111SOL    HW1 1638   1.870   3.362   2.000
 2111SOL    HW2 1639   1.856   3.516   2.054
 2112SOL     OW 1640   3.551   2.784   2.474
 2112SOL    HW1 1641   3.646   2.755   2.482
 2112SOL    HW2 1642   3.543   2.849   2.399
 2113SOL     OW 1643   3.503   2.970   2.294
 2113SOL    HW1 1644   3.589   2.972   2.242
 2113SOL    HW2 1645   3.517   3.017   2.382
 2114SOL     OW 1646   1.975   2.599   3.459
 2114SOL    HW1 1647   2.063   2.586   3.504
 2114SOL    HW2 1648   1.962   2.696   3.437
 2115SOL     OW 1649   2.475   3.227   2.588
 2115SOL    HW1 1650   2.426   3.140   2.597
 2115SOL    HW2 1651   2.452   3.270   2.501
 2116SOL     OW 1652   3.155   3.090   3.285
 2116SOL    HW1 1653   3.192   3.017   3.227
 2116SOL    HW2 1654   3.207   3.095   3.370
 2117SOL     OW 1655   2.671   1.866   2.364
 2117SOL    HW1 1656   2.711   1.957   2.355
 2117SOL    HW2 1657   2.571   1.874   2.370
 2118SOL     OW 1658   2.059   2.838   3.126
 2118SOL    HW1 1659   2.148   2.793   3.112
 2118SOL    HW2 1660   1.986   2.773   3.107
 2119SOL     OW 1661   3.387   2.861   2.052
 2119SOL    HW1 1662   3.324   2.785   2.065
 2119SOL    HW2 1663   3.435   2.879   2.138
 2121SOL     OW 1664   2.179   2.113   3.663
 2121SOL    HW1 1665   2.250   2.184   3.669
 2121SOL    HW2 1666   2.091   2.152   3.691
 2122SOL     OW 1667   3.328   3.279   2.815
 2122SOL    HW1 1668   3.269   3.285   2.895
 2122SOL    HW2 1669   3.313   3.191   2.769
 2123SOL     OW 1670   3.529   3.576   2.434
 2123SOL    HW1 1671   3.488   3.553   2.346
 2123SOL    HW2 1672   3.511   3.502   2.499
 2124SOL     OW 1673   2.460   2.591   2.132
 2124SOL    HW1 1674   2.484   2.660   2.064
 2124SOL    HW2 1675   2.382   2.624   2.186
 2125SOL     OW 1676   3.143   2.207   2.806
 2125SOL    HW1 1677   3.057   2.157   2.793
 2125SOL    HW2 1678   3.205   2.153   2.862
 2126SOL     OW 1679   3.438   3.524   2.169
 2126SOL    HW1 1680   3.527   3.570   2.172
 2126SOL    HW2 1681   3.417   3.500   2.074
 2127SOL     OW 1682   2.669   2.467   3.327
 2127SOL    HW1 1683   2.622   2.464   3.416
 2127SOL    HW2 1684   2.618   2.412   3.261
 2128SOL     OW 1685   3.256   2.331   3.536
 2128SOL    HW1 1686   3.236   2.374   3.624
 2128SOL    HW2 1687   3.334   2.269   3.545
 2129SOL     OW 1688   2.835   2.752   3.434
 2129SOL    HW1 1689   2.881   2.668   3.405
 2129SOL    HW2 1690   2.779   2.786   3.359
 2130SOL     OW 1691   2.853   2.272   3.104
 2130SOL    HW1 1692   2.776   2.306   3.158
 2130SOL    HW2 1693   2.819   2.221   3.025
 2131SOL     OW 1694   2.903   2.563   2.291
 2131SOL    HW1 1695   2.929   2.559   2.387
 2131SOL    HW2 1696   2.818   2.512   2.277
 2132SOL     OW 1697   1.938   2.673   2.651
 2132SOL    HW1 1698   2.037   2.661   2.660
 2132SOL    HW2 1699   1.914   2.768   2.672
 2133SOL     OW 1700   1.992   3.683   3.433
 2133SOL    HW1 1701   1.982   3.668   3.532
 2133SOL    HW2 1702   1.906   3.719   3.397
 2134SOL     OW 1703   2.727   2.210   2.057
 2134SOL    HW1 1704   2.786   2.273   2.008
 2134SOL    HW2 1705   2.746   2.116   2.028
 2136SOL     OW 1706   3.224   3.006   2.407
 2136SOL    HW1 1707   3.307   2.977   2.359
 2136SOL    HW2 1708   3.175   3.073   2.351
 2137SOL     OW 1709   2.412   2.058   2.747
 2137SOL    HW1 1710   2.407   2.053   2.847
 2137SOL    HW2 1711   2.414   2.154   2.718
 2138SOL     OW 1712   2.870   3.318   2.339
 2138SOL    HW1 1713   2.824   3.390   2.287
 2138SOL    HW2 1714   2.866   3.338   2.437
 2139SOL     OW 1715   2.213   3.663   2.715
 2139SOL    HW1 1716   2.263   3.577   2.721
 2139SOL    HW2 1717   2.278   3.740   2.712
 2140SOL     OW 1718   3.657   2.928   2.735
 2140SOL    HW1 1719   3.595   2.913   2.659
 2140SOL    HW2 1720   3.605   2.939   2.820
 2141SOL     OW 1721   3.089   3.412   3.368
 2141SOL    HW1 1722   3.095   3.335   3.432
 2141SOL    HW2 1723   3.037   3.386   3.288
 2142SOL     OW 1724   2.183   2.805   2.104
 2142SOL    HW1 1725   2.265   2.844   2.062
 2142SOL    HW2 1726   2.156   2.723   2.055
 2143SOL     OW 1727   3.320   2.597   2.590
 2143SOL    HW1 1728   3.315   2.532   2.665
 2143SOL    HW2 1729   3.400   2.656   2.603
 2144SOL     OW 1730   2.323   3.128   3.589
 2144SOL    HW1 1731   2.273   3.129   3.503
 2144SOL    HW2 1732   2.260   3.110   3.665
 2145SOL     OW 1733   2.973   3.638   2.099
 2145SOL    HW1 1734   2.913   3.576   2.149
 2145SOL    HW2 1735   3.004   3.594   2.014
 2146SOL     OW 1736   2.064   2.147   3.360
 2146SOL    HW1 1737   1.984   2.207   3.347
 2146SOL    HW2 1738   2.054   2.098   3.446
 2147SOL     OW 1739   3.494   3.239   1.943
 2147SOL    HW1 1740   3.462   3.333   1.933
 2147SOL    HW2 1741   3.418   3.176   1.931
 2148SOL     OW 1742   2.326   3.605   2.185
 2148SOL    HW1 1743   2.359   3.644   2.271
 2148SOL    HW2 1744   2.402   3.598   2.120
 2149SOL     OW 1745   3.262   1.969   2.288
 2149SOL    HW1 1746   3.238   1.932   2.198
 2149SOL    HW2 1747   3.361   1.985   2.292
 2150SOL     OW 1748   2.111   3.647   3.103
 2150SOL    HW1 1749   2.168   3.582   3.153
 2150SOL    HW2 1750   2.095   3.614   3.010
 2151SOL     OW 1751   2.802   3.560   2.766
 2151SOL    HW1 1752   2.882   3.503   2.787
 2151SOL    HW2 1753   2.753   3.520   2.689
 2152SOL     OW 1754   3.409   2.084   3.591
 2152SOL    HW1 1755   3.404   2.121   3.683
 2152SOL    HW2 1756   3.337   2.015   3.579
 2153SOL     OW 1757   2.476   1.984   1.979
 2153SOL    HW1 1758   2.574   1.962   1.986
 2153SOL    HW2 1759   2.445   1.967   1.886
 2154SOL     OW 1760   2.643   2.126   3.611
 2154SOL    HW1 1761   2.710   2.065   3.654
 2154SOL    HW2 1762   2.570   2.145   3.676
 2155SOL     OW 1763   2.750   3.376   3.057
 2155SOL    HW1 1764   2.727   3.351   2.963
 2155SOL    HW2 1765   2.811   3.307   3.096
 2156SOL     OW 1766   3.213   2.452   3.295
 2156SOL    HW1 1767   3.241   2.409   3.380
 2156SOL    HW2 1768   3.238   2.548   3.296
 2157SOL     OW 1769   2.665   3.264   2.786
 2157SOL    HW1 1770   2.755   3.278   2.744
 2157SOL    HW2 1771   2.594   3.266   2.715
 2158SOL     OW 1772   2.784   2.365   2.761
 2158SOL    HW1 1773   2.759   2.356   2.665
 2158SOL    HW2 1774   2.832   2.283   2.792
 2159SOL     OW 1775   3.296   3.050   1.903
 2159SOL    HW1 1776   3.328   2.974   1.960
 2159SOL    HW2 1777   3.204   3.077   1.933
 2160SOL     OW 1778   2.159   1.897   2.033
 2160SOL    HW1 1779   2.208   1.981   2.012
 2160SOL    HW2 1780   2.221   1.832   2.078
 2161SOL     OW 1781   2.797   2.098   2.342
 2161SOL    HW1 1782   2.749   2.139   2.264
 2161SOL    HW2 1783   2.896   2.096   2.323
 2162SOL     OW 1784   2.938   2.545   3.326
 2162SOL    HW1 1785   2.858   2.484   3.329
 2162SOL    HW2 1786   3.019   2.492   3.302
 2163SOL     OW 1787   3.089   3.432   2.655
 2163SOL    HW1 1788   3.110   3.506   2.590
 2163SOL    HW2 1789   3.157   3.432   2.728
 2164SOL     OW 1790   2.321   3.014   2.603
 2164SOL    HW1 1791   2.250   2.987   2.668
 2164SOL    HW2 1792   2.295   2.986   2.510
 2165SOL     OW 1793   3.133   3.659   2.453
 2165SOL    HW1 1794   3.177   3.723   2.389
 2165SOL    HW2 1795   3.083   3.711   2.523
 2166SOL     OW 1796   2.894   2.411   1.878
 2166SOL    HW1 1797   2.853   2.493   1.839
 2166SOL    HW2 1798   2.958   2.437   1.951
 2167SOL     OW 1799   1.940   2.418   3.248
 2167SOL    HW1 1800   2.032   2.417   3.207
 2167SOL    HW2 1801   1.934   2.492   3.315
 2168SOL     OW 1802   2.423   2.084   3.009
 2168SOL    HW1 1803   2.461   2.000   3.046
 2168SOL    HW2 1804   2.335   2.103   3.053
 2169SOL     OW 1805   2.728   2.316   2.504
 2169SOL    HW1 1806   2.696   2.388   2.442
 2169SOL    HW2 1807   2.752   2.235   2.451
 2170SOL     OW 1808   2.879   1.901   2.615
 2170SOL    HW1 1809   2.807   1.906   2.546
 2170SOL    HW2 1810   2.855   1.832   2.684
 2171SOL     OW 1811   3.291   3.035   2.729
 2171SOL    HW1 1812   3.236   2.951   2.722
 2171SOL    HW2 1813   3.317   3.064   2.637
 2172SOL     OW 1814   3.328   2.452   2.854
 2172SOL    HW1 1815   3.298   2.357   2.861
 2172SOL    HW2 1816   3.401   2.468   2.920
 2173SOL     OW 1817   3.719   2.695   2.239
 2173SOL    HW1 1818   3.761   2.631   2.303
 2173SOL    HW2 1819   3.681   2.644   2.161
 2174SOL     OW 1820   2.350   3.247   2.036
 2174SOL    HW1 1821   2.263   3.232   2.083
 2174SOL    HW2 1822   2.333   3.273   1.941
 2175SOL     OW 1823   3.526   3.142   2.519
 2175SOL    HW1 1824   3.625   3.150   2.533
 2175SOL    HW2 1825   3.481   3.226   2.550
 2176SOL     OW 1826   3.252   2.437   1.940
 2176SOL    HW1 1827   3.198   2.416   2.021
 2176SOL    HW2 1828   3.343   2.396   1.949
 2178SOL     OW 1829   2.926   3.209   3.202
 2178SOL    HW1 1830   2.846   3.186   3.257
 2178SOL    HW2 1831   3.009   3.183   3.251
 2180SOL     OW 1832   2.973   3.057   2.962
 2180SOL    HW1 1833   2.933   3.101   3.043
 2180SOL    HW2 1834   2.932   3.094   2.879
 2181SOL     OW 1835   3.500   2.961   2.941
 2181SOL    HW1 1836   3.505   3.042   3.000
 2181SOL    HW2 1837   3.414   2.963   2.890
 2182SOL     OW 1838   2.777   1.951   3.264
 2182SOL    HW1 1839   2.802   1.931   3.169
 2182SOL    HW2 1840   2.849   2.007   3.306
 2183SOL     OW 1841   2.842   2.978   3.581
 2183SOL    HW1 1842   2.743   2.984   3.591
 2183SOL    HW2 1843   2.865   2.898   3.525
 2184SOL     OW 1844   2.567   2.912   2.230
 2184SOL    HW1 1845   2.553   2.919   2.329
 2184SOL    HW2 1846   2.651   2.861   2.212
 2185SOL     OW 1847   2.272   2.675   3.113
 2185SOL    HW1 1848   2.358   2.687   3.163
 2185SOL    HW2 1849   2.230   2.588   3.140
 2186SOL     OW 1850   3.136   2.248   3.124
 2186SOL    HW1 1851   3.157   2.322   3.188
 2186SOL    HW2 1852   3.047   2.265   3.081
 2187SOL     OW 1853   1.926   3.426   3.193
 2187SOL    HW1 1854   1.880   3.508   3.159
 2187SOL    HW2 1855   2.024   3.445   3.202
 2188SOL     OW 1856   2.229   2.962   2.363
 2188SOL    HW1 1857   2.222   3.045   2.307
 2188SOL    HW2 1858   2.233   2.882   2.303
 2189SOL     OW 1859   3.114   3.210   2.250
 2189SOL    HW1 1860   3.164   3.287   2.290
 2189SOL    HW2 1861   3.019   3.212   2.282
 2190SOL     OW 1862   3.134   3.307   3.004
 2190SOL    HW1 1863   3.181   3.320   3.091
 2190SOL    HW2 1864   3.068   3.233   3.013
 2191SOL     OW 1865   3.444   2.501   2.334
 2191SOL    HW1 1866   3.413   2.562   2.407
 2191SOL    HW2 1867   3.494   2.553   2.265
 2192SOL     OW 1868   2.216   3.372   3.191
 2192SOL    HW1 1869   2.195   3.328   3.104
 2192SOL    HW2 1870   2.313   3.398   3.194
 2193SOL     OW 1871   2.264   2.613   3.460
 2193SOL    HW1 1872   2.332   2.668   3.413
 2193SOL    HW2 1873   2.304   2.525   3.487
 2194SOL     OW 1874   3.449   2.641   3.532
 2194SOL    HW1 1875   3.357   2.679   3.527
 2194SOL    HW2 1876   3.509   2.688   3.467
 2195SOL     OW 1877   2.875   1.967   3.632
 2195SOL    HW1 1878   2.881   2.052   3.580
 2195SOL    HW2 1879   2.907   1.891   3.575
 2196SOL     OW 1880   2.366   1.912   3.602
 2196SOL    HW1 1881   2.324   1.855   3.532
 2196SOL    HW2 1882   2.300   1.981   3.634
 2197SOL     OW 1883   2.435   2.732   2.891
 2197SOL    HW1 1884   2.479   2.821   2.882
 2197SOL    HW2 1885   2.372   2.732   2.968
 2198SOL     OW 1886   3.222   2.724   2.907
 2198SOL    HW1 1887   3.147   2.724   2.841
 2198SOL    HW2 1888   3.259   2.632   2.916
 2199SOL     OW 1889   3.071   2.387   2.137
 2199SOL    HW1 1890   3.084   2.303   2.191
 2199SOL    HW2 1891   3.042   2.461   2.197
 2200SOL     OW 1892   2.169   2.075   3.093
 2200SOL    HW1 1893   2.146   2.112   3.183
 2200SOL    HW2 1894   2.139   1.980   3.087
 2201SOL     OW 1895   1.899   3.172   3.144
 2201SOL    HW1 1896   1.952   3.123   3.212
 2201SOL    HW2 1897   1.921   3.270   3.149
 2202SOL     OW 1898   2.594   2.496   2.926
 2202SOL    HW1 1899   2.653   2.470   2.850
 2202SOL    HW2 1900   2.566   2.592   2.915
 2204SOL     OW 1901   2.169   1.925   2.480
 2204SOL    HW1 1902   2.158   2.019   2.513
 2204SOL    HW2 1903   2.164   1.862   2.557
 2205SOL     OW 1904   3.484   2.229   2.236
 2205SOL    HW1 1905   3.486   2.153   2.300
 2205SOL    HW2 1906   3.436   2.306   2.276
 2206SOL     OW 1907   2.885   2.628   2.828
 2206SOL    HW1 1908   2.900   2.649   2.924
 2206SOL    HW2 1909   2.855   2.533   2.819
 2207SOL     OW 1910   2.842   3.435   3.562
 2207SOL    HW1 1911   2.822   3.479   3.474
 2207SOL    HW2 1912   2.881   3.344   3.546
 2209SOL     OW 1913   2.212   2.760   3.666
 2209SOL    HW1 1914   2.288   2.804   3.714
 2209SOL    HW2 1915   2.247   2.713   3.584
 2210SOL     OW 1916   3.402   2.136   1.987
 2210SOL    HW1 1917   3.341   2.061   2.010
 2210SOL    HW2 1918   3.424   2.188   2.070
 2211SOL     OW 1919   3.165   2.700   1.904
 2211SOL    HW1 1920   3.199   2.607   1.919
 2211SOL    HW2 1921   3.183   2.727   1.809
 2212SOL     OW 1922   2.930   3.195   2.711
 2212SOL    HW1 1923   2.937   3.111   2.656
 2212SOL    HW2 1924   2.992   3.264   2.675
 2213SOL     OW 1925   2.181   2.672   2.811
 2213SOL    HW1 1926   2.274   2.708   2.816
 2213SOL    HW2 1927   2.175   2.587   2.863
 2214SOL     OW 1928   2.201   2.371   2.868
 2214SOL    HW1 1929   2.149   2.288   2.851
 2214SOL    HW2 1930   2.278   2.376   2.804
 2215SOL     OW 1931   3.000   2.242   3.540
 2215SOL    HW1 1932   2.955   2.305   3.604
 2215SOL    HW2 1933   3.093   2.273   3.523
 2216SOL     OW 1934   3.022   2.069   3.339
 2216SOL    HW1 1935   3.022   2.133   3.416
 2216SOL    HW2 1936   3.050   2.117   3.256
 2217SOL     OW 1937   1.870   3.188   2.062
 2217SOL    HW1 1938   1.777   3.209   2.031
 2217SOL    HW2 1939   1.880   3.089   2.075
 2218SOL     OW 1940   1.950   3.663   2.789
 2218SOL    HW1 1941   1.908   3.577   2.762
 2218SOL    HW2 1942   2.044   3.666   2.755
 2219SOL     OW 1943   2.366   3.430   2.772
 2219SOL    HW1 1944   2.432   3.504   2.781
 2219SOL    HW2 1945   2.410   3.351   2.730
 2220SOL     OW 1946   2.864   2.658   3.100
 2220SOL    HW1 1947   2.905   2.626   3.186
 2220SOL    HW2 1948   2.768   2.631   3.097
 2221SOL     OW 1949   1.902   2.406   2.976
 2221SOL    HW1 1950   1.987   2.373   2.935
 2221SOL    HW2 1951   1.915   2.421   3.074
 2222SOL     OW 1952   2.051   2.382   3.584
 2222SOL    HW1 1953   2.110   2.342   3.514
 2222SOL    HW2 1954   1.993   2.453   3.543
 2223SOL     OW 1955   3.231   2.812   3.522
 2223SOL    HW1 1956   3.270   2.901   3.542
 2223SOL    HW2 1957   3.241   2.792   3.425
 2224SOL     OW 1958   2.677   2.434   2.187
 2224SOL    HW1 1959   2.684   2.345   2.141
 2224SOL    HW2 1960   2.583   2.468   2.179
 2225SOL     OW 1961   3.519   2.466   3.068
 2225SOL    HW1 1962   3.481   2.397   3.130
 2225SOL    HW2 1963   3.601   2.430   3.024
 2226SOL     OW 1964   2.114   3.426   3.606
 2226SOL    HW1 1965   2.084   3.483   3.682
 2226SOL    HW2 1966   2.107   3.329   3.632
 2227SOL     OW 1967   2.533   2.326   3.131
 2227SOL    HW1 1968   2.499   2.237   3.101
 2227SOL    HW2 1969   2.559   2.380   3.051
 2228SOL     OW 1970   2.792   3.540   3.327
 2228SOL    HW1 1971   2.768   3.522   3.232
 2228SOL    HW2 1972   2.822   3.634   3.337
 2229SOL     OW 1973   2.021   2.999   3.328
 2229SOL    HW1 1974   2.043   2.938   3.404
 2229SOL    HW2 1975   2.031   2.950   3.242
 2230SOL     OW 1976   3.209   2.921   3.096
 2230SOL    HW1 1977   3.233   2.858   3.022
 2230SOL    HW2 1978   3.119   2.961   3.078
 2231SOL     OW 1979   3.164   2.717   2.171
 2231SOL    HW1 1980   3.078   2.686   2.213
 2231SOL    HW2 1981   3.160   2.703   2.072
 2233SOL     OW 1982   3.114   3.593   2.990
 2233SOL    HW1 1983   3.198   3.598   2.936
 2233SOL    HW2 1984   3.091   3.497   3.008
 2234SOL     OW 1985   1.945   3.120   2.884
 2234SOL    HW1 1986   1.940   3.119   2.984
 2234SOL    HW2 1987   1.862   3.079   2.846
 2235SOL     OW 1988   2.550   3.524   3.578
 2235SOL    HW1 1989   2.494   3.605   3.587
 2235SOL    HW2 1990   2.602   3.528   3.492
 2236SOL     OW 1991   3.588   1.997   2.385
 2236SOL    HW1 1992   3.661   1.980   2.318
 2236SOL    HW2 1993   3.557   1.910   2.423
 2237SOL     OW 1994   3.250   3.435   2.339
 2237SOL    HW1 1995   3.317   3.447   2.265
 2237SOL    HW2 1996   3.210   3.524   2.362
 2239SOL     OW 1997   3.142   2.789   2.534
 2239SOL    HW1 1998   3.202   2.708   2.536
 2239SOL    HW2 1999   3.182   2.858   2.474
 2240SOL     OW 2000   2.692   3.135   3.284
 2240SOL    HW1 2001   2.687   3.168   3.379
 2240SOL    HW2 2002   2.606   3.154   3.238
 2241SOL     OW 2003   2.534   3.478   2.016
 2241SOL    HW1 2004   2.543   3.488   1.917
 2241SOL    HW2 2005   2.494   3.389   2.037
 2243SOL     OW 2006   3.703   2.037   2.825
 2243SOL    HW1 2007   3.742   1.952   2.789
 2243SOL    HW2 2008   3.605   2.039   2.806
 2244SOL     OW 2009   2.125   2.188   2.582
 2244SOL    HW1 2010   2.046   2.239   2.548
 2244SOL    HW2 2011   2.116   2.173   2.680
 2245SOL     OW 2012   3.056   3.474   1.893
 2245SOL    HW1 2013   3.062   3.381   1.930
 2245SOL    HW2 2014   2.997   3.474   1.813
 2246SOL     OW 2015   2.684   2.864   3.234
 2246SOL    HW1 2016   2.724   2.863   3.142
 2246SOL    HW2 2017   2.694   2.956   3.274
 2247SOL     OW 2018   2.778   2.772   2.153
 2247SOL    HW1 2019   2.841   2.810   2.085
 2247SOL    HW2 2020   2.818   2.689   2.192
 2248SOL     OW 2021   3.366   3.469   1.906
 2248SOL    HW1 2022   3.274   3.506   1.913
 2248SOL    HW2 2023   3.404   3.489   1.816
 2249SOL     OW 2024   2.234   3.150   3.352
 2249SOL    HW1 2025   2.221   3.243   3.318
 2249SOL    HW2 2026   2.150   3.098   3.339
 2250SOL     OW 2027   3.476   3.154   3.151
 2250SOL    HW1 2028   3.536   3.157   3.231
 2250SOL    HW2 2029   3.401   3.218   3.164
 2251SOL     OW 2030   2.901   2.960   2.558
 2251SOL    HW1 2031   2.831   2.913   2.612
 2251SOL    HW2 2032   2.960   2.892   2.515
 2252SOL     OW 2033   2.876   2.098   2.833
 2252SOL    HW1 2034   2.868   2.062   2.740
 2252SOL    HW2 2035   2.874   2.022   2.898
 2253SOL     OW 2036   2.452   3.349   2.353
 2253SOL    HW1 2037   2.494   3.291   2.283
 2253SOL    HW2 2038   2.408   3.428   2.309
 2254SOL     OW 2039   3.571   2.247   3.243
 2254SOL    HW1 2040   3.644   2.316   3.247
 2254SOL    HW2 2041   3.599   2.172   3.184
 2255SOL     OW 2042   2.117   3.210   2.152
 2255SOL    HW1 2043   2.021   3.211   2.125
 2255SOL    HW2 2044   2.129   3.263   2.236
 2256SOL     OW 2045   1.967   2.875   3.588
 2256SOL    HW1 2046   1.890   2.842   3.642
 2256SOL    HW2 2047   2.052   2.845   3.630
 2257SOL     OW 2048   2.534   2.065   3.351
 2257SOL    HW1 2049   2.624   2.049   3.311
 2257SOL    HW2 2050   2.542   2.070   3.450
 2258SOL     OW 2051   1.937   2.207   1.895
 2258SOL    HW1 2052   1.845   2.179   1.866
 2258SOL    HW2 2053   1.968   2.284   1.839
 2259SOL     OW 2054   3.302   2.718   3.260
 2259SOL    HW1 2055   3.245   2.770   3.197
 2259SOL    HW2 2056   3.398   2.730   3.236
 2260SOL     OW 2057   1.934   2.028   2.180
 2260SOL    HW1 2058   1.917   2.111   2.126
 2260SOL    HW2 2059   2.024   1.991   2.158
 2261SOL     OW 2060   3.045   3.197   1.981
 2261SOL    HW1 2061   2.946   3.186   1.983
 2261SOL    HW2 2062   3.079   3.212   2.074
 2262SOL     OW 2063   2.475   2.704   3.293
 2262SOL    HW1 2064   2.531   2.785   3.276
 2262SOL    HW2 2065   2.534   2.624   3.296
 2263SOL     OW 2066   3.355   3.629   2.821
 2263SOL    HW1 2067   3.388   3.693   2.752
 2263SOL    HW2 2068   3.421   3.623   2.896
 2264SOL     OW 2069   2.578   2.427   3.570
 2264SOL    HW1 2070   2.597   2.492   3.644
 2264SOL    HW2 2071   2.638   2.347   3.579
 2265SOL     OW 2072   3.312   3.082   3.495
 2265SOL    HW1 2073   3.303   3.072   3.594
 2265SOL    HW2 2074   3.408   3.075   3.469
 2266SOL     OW 2075   2.252   3.603   3.422
 2266SOL    HW1 2076   2.161   3.644   3.420
 2266SOL    HW2 2077   2.245   3.509   3.454
 2267SOL     OW 2078   3.536   2.745   3.116
 2267SOL    HW1 2079   3.509   2.656   3.079
 2267SOL    HW2 2080   3.537   2.813   3.043
 2268SOL     OW 2081   3.087   2.187   2.311
 2268SOL    HW1 2082   3.152   2.113   2.300
 2268SOL    HW2 2083   3.107   2.237   2.395
 2269SOL     OW 2084   3.639   2.204   3.504
 2269SOL    HW1 2085   3.622   2.235   3.410
 2269SOL    HW2 2086   3.555   2.167   3.542
 2270SOL     OW 2087   3.592   2.796   3.379
 2270SOL    HW1 2088   3.630   2.887   3.394
 2270SOL    HW2 2089   3.584   2.779   3.280
 2271SOL     OW 2090   2.721   3.236   1.878
 2271SOL    HW1 2091   2.675   3.251   1.966
 2271SOL    HW2 2092   2.765   3.321   1.848
 2272SOL     OW 2093   2.523   3.652   2.815
 2272SOL    HW1 2094   2.477   3.740   2.802
 2272SOL    HW2 2095   2.622   3.664   2.808
 2273SOL     OW 2096   2.721   2.818   2.723
 2273SOL    HW1 2097   2.775   2.749   2.771
 2273SOL    HW2 2098   2.689   2.887   2.789
 2274SOL     OW 2099   2.945   2.846   1.949
 2274SOL    HW1 2100   2.922   2.899   1.867
 2274SOL    HW2 2101   3.026   2.790   1.930
 2275SOL     OW 2102   3.723   3.431   2.713
 2275SOL    HW1 2103   3.652   3.419   2.643
 2275SOL    HW2 2104   3.724   3.352   2.773
 2276SOL     OW 2105   2.083   3.176   3.706
 2276SOL    HW1 2106   2.018   3.103   3.685
 2276SOL    HW2 2107   2.087   3.190   3.804
 2277SOL     OW 2108   1.941   3.102   2.515
 2277SOL    HW1 2109   1.940   3.055   2.603
 2277SOL    HW2 2110   2.023   3.074   2.464
 2278SOL     OW 2111   2.534   3.253   3.486
 2278SOL    HW1 2112   2.456   3.203   3.524
 2278SOL    HW2 2113   2.531   3.348   3.517
 2279SOL     OW 2114   3.686   2.054   3.089
 2279SOL    HW1 2115   3.682   1.964   3.133
 2279SOL    HW2 2116   3.689   2.043   2.990
 2280SOL     OW 2117   3.567   3.349   2.966
 2280SOL    HW1 2118   3.474   3.324   2.939
 2280SOL    HW2 2119   3.593   3.299   3.048
 2281SOL     OW 2120   2.179   2.409   3.142
 2281SOL    HW1 2121   2.217   2.350   3.214
 2281SOL    HW2 2122   2.219   2.383   3.054
 2282SOL     OW 2123   2.674   3.448   2.549
 2282SOL    HW1 2124   2.706   3.458   2.455
 2282SOL    HW2 2125   2.595   3.386   2.551
 2283SOL     OW 2126   3.286   2.076   2.974
 2283SOL    HW1 2127   3.338   2.011   3.029
 2283SOL    HW2 2128   3.237   2.139   3.035
 2284SOL     OW 2129   2.863   1.896   3.016
 2284SOL    HW1 2130   2.800   1.824   2.985
 2284SOL    HW2 2131   2.956   1.860   3.016
 2285SOL     OW 2132   2.632   3.192   2.163
 2285SOL    HW1 2133   2.586   3.105   2.180
 2285SOL    HW2 2134   2.723   3.189   2.204
 2286SOL     OW 2135   2.480   3.429   3.146
 2286SOL    HW1 2136   2.475   3.511   3.203
 2286SOL    HW2 2137   2.569   3.426   3.101
 2287SOL     OW 2138   3.214   1.914   2.030
 2287SOL    HW1 2139   3.249   1.873   1.946
 2287SOL    HW2 2140   3.124   1.876   2.050
 2288SOL     OW 2141   3.162   2.315   2.553
 2288SOL    HW1 2142   3.103   2.395   2.557
 2288SOL    HW2 2143   3.177   2.280   2.646
 2289SOL     OW 2144   3.455   2.083   2.744
 2289SOL    HW1 2145   3.371   2.082   2.798
 2289SOL    HW2 2146   3.457   2.166   2.688
 2290SOL     OW 2147   1.901   2.939   2.162
 2290SOL    HW1 2148   2.000   2.928   2.153
 2290SOL    HW2 2149   1.861   2.853   2.194
 2291SOL     OW 2150   2.737   3.508   2.199
 2291SOL    HW1 2151   2.660   3.473   2.145
 2291SOL    HW2 2152   2.705   3.579   2.261
 2292SOL     OW 2153   2.092   2.490   3.837
 2292SOL    HW1 2154   1.999   2.488   3.874
 2292SOL    HW2 2155   2.093   2.451   3.745
 2304SOL     OW 2156   2.468   2.826   3.847
 2304SOL    HW1 2157   2.475   2.910   3.793
 2304SOL    HW2 2158   2.514   2.839   3.935
 2315SOL     OW 2159   2.460   2.591   3.994
 2315SOL    HW1 2160   2.484   2.660   3.926
 2315SOL    HW2 2161   2.382   2.624   4.048
 2320SOL     OW 2162   2.727   2.210   3.919
 2320SOL    HW1 2163   2.786   2.273   3.870
 2320SOL    HW2 2164   2.746   2.116   3.890
 2326SOL     OW 2165   2.183   2.805   3.966
 2326SOL    HW1 2166   2.265   2.844   3.924
 2326SOL    HW2 2167   2.156   2.723   3.917
 2333SOL     OW 2168   2.476   1.984   3.841
 2333SOL    HW1 2169   2.574   1.962   3.848
 2333SOL    HW2 2170   2.445   1.967   3.748
 2336SOL     OW 2171   2.159   1.897   3.895
 2336SOL    HW1 2172   2.208   1.981   3.874
 2336SOL    HW2 2173   2.221   1.832   3.940
 2341SOL     OW 2174   2.894   2.411   3.740
 2341SOL    HW1 2175   2.853   2.493   3.701
 2341SOL    HW2 2176   2.958   2.437   3.813
 2345SOL     OW 2177   2.350   3.247   3.898
 2345SOL    HW1 2178   2.263   3.232   3.945
 2345SOL    HW2 2179   2.333   3.273   3.803
 2347SOL     OW 2180   3.252   2.437   3.802
 2347SOL    HW1 2181   3.198   2.416   3.883
 2347SOL    HW2 2182   3.343   2.396   3.811
 2348SOL     OW 2183   2.389   2.118   4.052
 2348SOL    HW1 2184   2.416   2.059   3.977
 2348SOL    HW2 2185   2.389   2.213   4.021
 2354SOL     OW 2186   3.071   2.387   3.999
 2354SOL    HW1 2187   3.084   2.303   4.053
 2354SOL    HW2 2188   3.042   2.461   4.059
 2359SOL     OW 2189   3.165   2.700   3.766
 2359SOL    HW1 2190   3.199   2.607   3.781
 2359SOL    HW2 2191   3.183   2.727   3.671
 2365SOL     OW 2192   2.677   2.434   4.049
 2365SOL    HW1 2193   2.684   2.345   4.003
 2365SOL    HW2 2194   2.583   2.468   4.041
 2366SOL     OW 2195   2.335   2.362   3.915
 2366SOL    HW1 2196   2.396   2.442   3.919
 2366SOL    HW2 2197   2.240   2.393   3.922
 2376SOL     OW 2198   2.778   2.772   4.015
 2376SOL    HW1 2199   2.841   2.810   3.947
 2376SOL    HW2 2200   2.818   2.689   4.054
 2381SOL     OW 2201   1.937   2.207   3.757
 2381SOL    HW1 2202   1.845   2.179   3.728
 2381SOL    HW2 2203   1.968   2.284   3.701
 2382SOL     OW 2204   1.934   2.028   4.042
 2382SOL    HW1 2205   1.917   2.111   3.988
 2382SOL    HW2 2206   2.024   1.991   4.020
 2387SOL     OW 2207   2.721   3.236   3.740
 2387SOL    HW1 2208   2.675   3.251   3.828
 2387SOL    HW2 2209   2.765   3.321   3.710
 2390SOL     OW 2210   2.945   2.846   3.811
 2390SOL    HW1 2211   2.922   2.899   3.729
 2390SOL    HW2 2212   3.026   2.790   3.792
 2416SOL     OW 2213   2.179   3.975   1.801
 2416SOL    HW1 2214   2.250   4.046   1.807
 2416SOL    HW2 2215   2.091   4.014   1.829
 2433SOL     OW 2216   2.643   3.988   1.749
 2433SOL    HW1 2217   2.710   3.927   1.792
 2433SOL    HW2 2218   2.570   4.007   1.814
 2450SOL     OW 2219   2.777   3.813   1.402
 2450SOL    HW1 2220   2.802   3.793   1.307
 2450SOL    HW2 2221   2.849   3.869   1.444
 2457SOL     OW 2222   2.875   3.829   1.770
 2457SOL    HW1 2223   2.881   3.914   1.718
 2457SOL    HW2 2224   2.907   3.753   1.713
 2458SOL     OW 2225   2.366   3.774   1.740
 2458SOL    HW1 2226   2.324   3.717   1.670
 2458SOL    HW2 2227   2.300   3.843   1.772
 2511SOL     OW 2228   2.087   3.999   2.858
 2511SOL    HW1 2229   2.122   3.982   2.950
 2511SOL    HW2 2230   1.999   3.954   2.846
 2522SOL     OW 2231   2.671   3.728   2.364
 2522SOL    HW1 2232   2.711   3.819   2.355
 2522SOL    HW2 2233   2.571   3.736   2.370
 2534SOL     OW 2234   2.727   4.072   2.057
 2534SOL    HW1 2235   2.786   4.135   2.008
 2534SOL    HW2 2236   2.746   3.978   2.028
 2536SOL     OW 2237   2.412   3.920   2.747
 2536SOL    HW1 2238   2.407   3.915   2.847
 2536SOL    HW2 2239   2.414   4.016   2.718
 2539SOL     OW 2240   3.262   3.831   2.288
 2539SOL    HW1 2241   3.238   3.794   2.198
 2539SOL    HW2 2242   3.361   3.847   2.292
 2542SOL     OW 2243   2.476   3.846   1.979
 2542SOL    HW1 2244   2.574   3.824   1.986
 2542SOL    HW2 2245   2.445   3.829   1.886
 2546SOL     OW 2246   2.401   3.788   2.374
 2546SOL    HW1 2247   2.320   3.789   2.432
 2546SOL    HW2 2248   2.404   3.871   2.319
 2547SOL     OW 2249   2.159   3.759   2.033
 2547SOL    HW1 2250   2.208   3.843   2.012
 2547SOL    HW2 2251   2.221   3.694   2.078
 2548SOL     OW 2252   2.797   3.960   2.342
 2548SOL    HW1 2253   2.749   4.001   2.264
 2548SOL    HW2 2254   2.896   3.958   2.323
 2552SOL     OW 2255   2.423   3.946   3.009
 2552SOL    HW1 2256   2.461   3.862   3.046
 2552SOL    HW2 2257   2.335   3.965   3.053
 2554SOL     OW 2258   2.879   3.763   2.615
 2554SOL    HW1 2259   2.807   3.768   2.546
 2554SOL    HW2 2260   2.855   3.694   2.684
 2558SOL     OW 2261   2.389   3.980   2.190
 2558SOL    HW1 2262   2.416   3.921   2.115
 2558SOL    HW2 2263   2.389   4.075   2.159
 2560SOL     OW 2264   2.777   3.813   3.264
 2560SOL    HW1 2265   2.802   3.793   3.169
 2560SOL    HW2 2266   2.849   3.869   3.306
 2572SOL     OW 2267   2.169   3.937   3.093
 2572SOL    HW1 2268   2.146   3.974   3.183
 2572SOL    HW2 2269   2.139   3.842   3.087
 2575SOL     OW 2270   2.169   3.787   2.480
 2575SOL    HW1 2271   2.158   3.881   2.513
 2575SOL    HW2 2272   2.164   3.724   2.557
 2597SOL     OW 2273   2.125   4.050   2.582
 2597SOL    HW1 2274   2.046   4.101   2.548
 2597SOL    HW2 2275   2.116   4.035   2.680
 2599SOL     OW 2276   2.876   3.960   2.833
 2599SOL    HW1 2277   2.868   3.924   2.740
 2599SOL    HW2 2278   2.874   3.884   2.898
 2605SOL     OW 2279   1.934   3.890   2.180
 2605SOL    HW1 2280   1.917   3.973   2.126
 2605SOL    HW2 2281   2.024   3.853   2.158
 2614SOL     OW 2282   2.290   4.148   2.382
 2614SOL    HW1 2283   2.320   4.076   2.320
 2614SOL    HW2 2284   2.251   4.108   2.465
 2617SOL     OW 2285   2.863   3.758   3.016
 2617SOL    HW1 2286   2.800   3.686   2.985
 2617SOL    HW2 2287   2.956   3.722   3.016
 2618SOL     OW 2288   3.214   3.776   2.030
 2618SOL    HW1 2289   3.249   3.735   1.946
 2618SOL    HW2 2290   3.124   3.738   2.050
 2704SOL     OW 2291   3.854   1.821   1.571
 2704SOL    HW1 2292   3.844   1.806   1.670
 2704SOL    HW2 2293   3.768   1.857   1.535
 2761SOL     OW 2294   3.854   1.794   1.851
 2761SOL    HW1 2295   3.813   1.720   1.904
 2761SOL    HW2 2296   3.918   1.845   1.909
 2800SOL     OW 2297   3.955   1.713   2.345
 2800SOL    HW1 2298   3.989   1.790   2.399
 2800SOL    HW2 2299   3.999   1.713   2.255
 2806SOL     OW 2300   3.751   1.596   1.979
 2806SOL    HW1 2301   3.732   1.500   2.000
 2806SOL    HW2 2302   3.718   1.654   2.054
 2859SOL     OW 2303   3.732   1.326   2.062
 2859SOL    HW1 2304   3.639   1.347   2.031
 2859SOL    HW2 2305   3.742   1.227   2.075
 2860SOL     OW 2306   3.812   1.801   2.789
 2860SOL    HW1 2307   3.770   1.715   2.762
 2860SOL    HW2 2308   3.906   1.804   2.755
 2978SOL     OW 2309   3.837   2.599   1.597
 2978SOL    HW1 2310   3.925   2.586   1.642
 2978SOL    HW2 2311   3.824   2.696   1.575
 2982SOL     OW 2312   4.041   2.113   1.801
 2982SOL    HW1 2313   4.112   2.184   1.807
 2982SOL    HW2 2314   3.953   2.152   1.829
 3005SOL     OW 2315   3.802   2.418   1.386
 3005SOL    HW1 2316   3.894   2.417   1.345
 3005SOL    HW2 2317   3.796   2.492   1.453
 3034SOL     OW 2318   3.913   2.382   1.722
 3034SOL    HW1 2319   3.972   2.342   1.652
 3034SOL    HW2 2320   3.855   2.453   1.681
 3052SOL     OW 2321   3.829   2.875   1.726
 3052SOL    HW1 2322   3.752   2.842   1.780
 3052SOL    HW2 2323   3.914   2.845   1.768
 3074SOL     OW 2324   3.954   2.490   1.975
 3074SOL    HW1 2325   3.861   2.488   2.012
 3074SOL    HW2 2326   3.955   2.451   1.883
 3075SOL     OW 2327   3.949   2.137   2.858
 3075SOL    HW1 2328   3.984   2.120   2.950
 3075SOL    HW2 2329   3.861   2.092   2.846
 3076SOL     OW 2330   3.743   2.230   2.509
 3076SOL    HW1 2331   3.661   2.273   2.548
 3076SOL    HW2 2332   3.715   2.157   2.446
 3086SOL     OW 2333   3.964   2.953   2.748
 3086SOL    HW1 2334   3.978   2.869   2.800
 3086SOL    HW2 2335   3.909   3.017   2.803
 3089SOL     OW 2336   3.846   2.505   2.425
 3089SOL    HW1 2337   3.801   2.417   2.442
 3089SOL    HW2 2338   3.845   2.559   2.509
 3099SOL     OW 2339   3.800   2.673   2.651
 3099SOL    HW1 2340   3.899   2.661   2.660
 3099SOL    HW2 2341   3.776   2.768   2.672
 3105SOL     OW 2342   4.045   2.805   2.104
 3105SOL    HW1 2343   4.127   2.844   2.062
 3105SOL    HW2 2344   4.018   2.723   2.055
 3110SOL     OW 2345   4.106   2.562   2.342
 3110SOL    HW1 2346   4.151   2.472   2.339
 3110SOL    HW2 2347   4.012   2.551   2.375
 3116SOL     OW 2348   4.021   1.897   2.033
 3116SOL    HW1 2349   4.070   1.981   2.012
 3116SOL    HW2 2350   4.083   1.832   2.078
 3119SOL     OW 2351   3.802   2.418   3.248
 3119SOL    HW1 2352   3.894   2.417   3.207
 3119SOL    HW2 2353   3.796   2.492   3.315
 3137SOL     OW 2354   4.031   1.925   2.480
 3137SOL    HW1 2355   4.020   2.019   2.513
 3137SOL    HW2 2356   4.026   1.862   2.557
 3141SOL     OW 2357   4.043   2.672   2.811
 3141SOL    HW1 2358   4.136   2.708   2.816
 3141SOL    HW2 2359   4.037   2.587   2.863
 3142SOL     OW 2360   4.063   2.371   2.868
 3142SOL    HW1 2361   4.011   2.288   2.851
 3142SOL    HW2 2362   4.140   2.376   2.804
 3143SOL     OW 2363   3.732   3.188   2.062
 3143SOL    HW1 2364   3.639   3.209   2.031
 3143SOL    HW2 2365   3.742   3.089   2.075
 3147SOL     OW 2366   3.764   2.406   2.976
 3147SOL    HW1 2367   3.849   2.373   2.935
 3147SOL    HW2 2368   3.777   2.421   3.074
 3154SOL     OW 2369   3.807   3.120   2.884
 3154SOL    HW1 2370   3.802   3.119   2.984
 3154SOL    HW2 2371   3.724   3.079   2.846
 3160SOL     OW 2372   3.987   2.188   2.582
 3160SOL    HW1 2373   3.908   2.239   2.548
 3160SOL    HW2 2374   3.978   2.173   2.680
 3167SOL     OW 2375   3.799   2.207   1.895
 3167SOL    HW1 2376   3.707   2.179   1.866
 3167SOL    HW2 2377   3.830   2.284   1.839
 3168SOL     OW 2378   3.796   2.028   2.180
 3168SOL    HW1 2379   3.779   2.111   2.126
 3168SOL    HW2 2380   3.886   1.991   2.158
 3177SOL     OW 2381   3.803   3.102   2.515
 3177SOL    HW1 2382   3.802   3.055   2.603
 3177SOL    HW2 2383   3.885   3.074   2.464
 3179SOL     OW 2384   4.152   2.286   2.382
 3179SOL    HW1 2385   4.182   2.214   2.320
 3179SOL    HW2 2386   4.113   2.246   2.465
 3185SOL     OW 2387   3.763   2.939   2.162
 3185SOL    HW1 2388   3.862   2.928   2.153
 3185SOL    HW2 2389   3.723   2.853   2.194
   4.71578   4.71578   4.71578
