mobley_7295828_GMX.gro created by acpype (v: 2023.10.27) on Tue May 19 14:02:36 2026
 2401
    1MOL     C1    1   2.386   2.327   2.121
    1MOL     C2    2   2.279   2.387   2.188
    1MOL     C3    3   2.491   2.271   2.193
    1MOL     C4    4   2.277   2.390   2.328
    1MOL     C5    5   2.489   2.274   2.333
    1MOL     C6    6   2.382   2.333   2.400
    1MOL     C7    7   2.268   2.399   2.598
    1MOL     O1    8   2.380   2.336   2.536
    1MOL     H1    9   2.387   2.325   2.012
    1MOL     H2   10   2.197   2.431   2.132
    1MOL     H3   11   2.574   2.224   2.141
    1MOL     H4   12   2.194   2.437   2.380
    1MOL     H5   13   2.571   2.229   2.389
    1MOL     H6   14   2.186   2.327   2.607
    1MOL     H7   15   2.237   2.485   2.539
    1MOL     H8   16   2.297   2.432   2.698
   14SOL     OW   17   1.460   1.505   1.339
   14SOL    HW1   18   1.484   1.599   1.365
   14SOL    HW2   19   1.444   1.451   1.421
   18SOL     OW   20   1.127   1.341   1.690
   18SOL    HW1   21   1.174   1.341   1.778
   18SOL    HW2   22   1.079   1.254   1.679
   31SOL     OW   23   1.293   1.228   1.423
   31SOL    HW1   24   1.330   1.155   1.365
   31SOL    HW2   25   1.345   1.233   1.508
   35SOL     OW   26   1.187   1.792   1.616
   35SOL    HW1   27   1.211   1.852   1.540
   35SOL    HW2   28   1.194   1.697   1.586
   56SOL     OW   29   1.227   1.550   1.506
   56SOL    HW1   30   1.233   1.473   1.570
   56SOL    HW2   31   1.175   1.524   1.426
   95SOL     OW   32   1.754   1.223   1.588
   95SOL    HW1   33   1.845   1.184   1.575
   95SOL    HW2   34   1.762   1.319   1.612
   97SOL     OW   35   1.592   1.629   1.625
   97SOL    HW1   36   1.619   1.663   1.535
   97SOL    HW2   37   1.671   1.591   1.671
  122SOL     OW   38   1.728   0.935   1.854
  122SOL    HW1   39   1.682   0.928   1.765
  122SOL    HW2   40   1.666   0.979   1.920
  126SOL     OW   41   0.980   1.573   1.700
  126SOL    HW1   42   0.960   1.617   1.612
  126SOL    HW2   43   1.019   1.482   1.684
  127SOL     OW   44   1.859   1.518   1.605
  127SOL    HW1   45   1.873   1.545   1.510
  127SOL    HW2   46   1.942   1.540   1.658
  152SOL     OW   47   1.759   1.747   1.154
  152SOL    HW1   48   1.820   1.777   1.081
  152SOL    HW2   49   1.721   1.658   1.132
  153SOL     OW   50   1.252   1.731   1.128
  153SOL    HW1   51   1.336   1.736   1.074
  153SOL    HW2   52   1.229   1.635   1.146
  163SOL     OW   53   1.650   1.720   1.394
  163SOL    HW1   54   1.703   1.730   1.310
  163SOL    HW2   55   1.623   1.810   1.428
  171SOL     OW   56   1.614   1.292   1.289
  171SOL    HW1   57   1.674   1.295   1.369
  171SOL    HW2   58   1.539   1.356   1.302
  184SOL     OW   59   1.493   1.767   0.959
  184SOL    HW1   60   1.526   1.831   0.890
  184SOL    HW2   61   1.559   1.761   1.034
  186SOL     OW   62   1.450   1.220   1.633
  186SOL    HW1   63   1.441   1.210   1.732
  186SOL    HW2   64   1.546   1.213   1.607
  192SOL     OW   65   1.730   0.934   1.517
  192SOL    HW1   66   1.768   1.025   1.532
  192SOL    HW2   67   1.722   0.917   1.418
  197SOL     OW   68   1.861   1.569   0.851
  197SOL    HW1   69   1.790   1.557   0.781
  197SOL    HW2   70   1.862   1.490   0.911
  203SOL     OW   71   1.705   1.487   1.104
  203SOL    HW1   72   1.612   1.462   1.077
  203SOL    HW2   73   1.731   1.437   1.186
  219SOL     OW   74   1.555   1.511   2.565
  219SOL    HW1   75   1.498   1.495   2.646
  219SOL    HW2   76   1.496   1.521   2.485
  227SOL     OW   77   1.460   1.505   3.201
  227SOL    HW1   78   1.484   1.599   3.227
  227SOL    HW2   79   1.444   1.451   3.283
  238SOL     OW   80   1.842   1.767   2.221
  238SOL    HW1   81   1.896   1.738   2.301
  238SOL    HW2   82   1.872   1.857   2.192
  240SOL     OW   83   1.689   0.922   2.474
  240SOL    HW1   84   1.784   0.893   2.482
  240SOL    HW2   85   1.681   0.987   2.399
  241SOL     OW   86   1.641   1.108   2.294
  241SOL    HW1   87   1.727   1.110   2.242
  241SOL    HW2   88   1.655   1.155   2.382
  247SOL     OW   89   1.525   0.999   2.052
  247SOL    HW1   90   1.462   0.923   2.065
  247SOL    HW2   91   1.573   1.017   2.138
  248SOL     OW   92   1.187   1.792   3.478
  248SOL    HW1   93   1.211   1.852   3.402
  248SOL    HW2   94   1.194   1.697   3.448
  250SOL     OW   95   1.466   1.417   2.815
  250SOL    HW1   96   1.407   1.423   2.895
  250SOL    HW2   97   1.451   1.329   2.769
  251SOL     OW   98   1.667   1.714   2.434
  251SOL    HW1   99   1.626   1.691   2.346
  251SOL    HW2  100   1.649   1.640   2.499
  254SOL     OW  101   1.576   1.662   2.169
  254SOL    HW1  102   1.665   1.708   2.172
  254SOL    HW2  103   1.555   1.638   2.074
  264SOL     OW  104   1.362   1.144   2.407
  264SOL    HW1  105   1.445   1.115   2.359
  264SOL    HW2  106   1.313   1.211   2.351
  266SOL     OW  107   1.008   1.456   2.339
  266SOL    HW1  108   0.962   1.528   2.287
  266SOL    HW2  109   1.004   1.476   2.437
  268SOL     OW  110   1.795   1.066   2.735
  268SOL    HW1  111   1.733   1.051   2.659
  268SOL    HW2  112   1.743   1.077   2.820
  269SOL     OW  113   1.227   1.550   3.368
  269SOL    HW1  114   1.233   1.473   3.432
  269SOL    HW2  115   1.175   1.524   3.288
  273SOL     OW  116   1.111   1.776   2.099
  273SOL    HW1  117   1.051   1.714   2.149
  273SOL    HW2  118   1.142   1.732   2.014
  275SOL     OW  119   1.632   1.377   1.943
  275SOL    HW1  120   1.600   1.471   1.933
  275SOL    HW2  121   1.556   1.314   1.931
  279SOL     OW  122   0.940   1.698   2.766
  279SOL    HW1  123   1.020   1.641   2.787
  279SOL    HW2  124   0.891   1.658   2.689
  289SOL     OW  125   1.434   1.188   1.903
  289SOL    HW1  126   1.466   1.112   1.960
  289SOL    HW2  127   1.342   1.215   1.933
  293SOL     OW  128   1.227   1.570   2.655
  293SOL    HW1  129   1.248   1.644   2.590
  293SOL    HW2  130   1.295   1.570   2.728
  295SOL     OW  131   1.271   1.797   2.453
  295SOL    HW1  132   1.315   1.861   2.389
  295SOL    HW2  133   1.221   1.849   2.523
  301SOL     OW  134   1.429   1.173   2.729
  301SOL    HW1  135   1.374   1.089   2.722
  301SOL    HW2  136   1.455   1.202   2.637
  303SOL     OW  137   1.857   0.833   2.239
  303SOL    HW1  138   1.899   0.769   2.303
  303SOL    HW2  139   1.819   0.782   2.161
  305SOL     OW  140   1.664   1.280   2.519
  305SOL    HW1  141   1.763   1.288   2.533
  305SOL    HW2  142   1.619   1.364   2.550
  308SOL     OW  143   1.754   1.223   3.450
  308SOL    HW1  144   1.845   1.184   3.437
  308SOL    HW2  145   1.762   1.319   3.474
  310SOL     OW  146   1.592   1.629   3.487
  310SOL    HW1  147   1.619   1.663   3.397
  310SOL    HW2  148   1.671   1.591   3.533
  312SOL     OW  149   1.638   1.099   2.941
  312SOL    HW1  150   1.643   1.180   3.000
  312SOL    HW2  151   1.552   1.101   2.890
  321SOL     OW  152   1.252   1.348   2.250
  321SOL    HW1  153   1.302   1.425   2.290
  321SOL    HW2  154   1.157   1.350   2.282
  322SOL     OW  155   1.272   1.445   3.004
  322SOL    HW1  156   1.319   1.458   3.091
  322SOL    HW2  157   1.206   1.371   3.013
  340SOL     OW  158   1.859   1.518   3.467
  340SOL    HW1  159   1.873   1.545   3.372
  340SOL    HW2  160   1.942   1.540   3.520
  344SOL     OW  161   1.068   1.333   2.711
  344SOL    HW1  162   1.075   1.249   2.656
  344SOL    HW2  163   1.130   1.402   2.675
  363SOL     OW  164   1.347   1.059   3.096
  363SOL    HW1  165   1.371   0.996   3.022
  363SOL    HW2  166   1.257   1.099   3.078
  365SOL     OW  167   1.759   1.747   3.016
  365SOL    HW1  168   1.820   1.777   2.943
  365SOL    HW2  169   1.721   1.658   2.994
  366SOL     OW  170   1.252   1.731   2.990
  366SOL    HW1  171   1.336   1.736   2.936
  366SOL    HW2  172   1.229   1.635   3.008
  370SOL     OW  173   1.388   1.573   2.339
  370SOL    HW1  174   1.455   1.585   2.265
  370SOL    HW2  175   1.348   1.662   2.362
  372SOL     OW  176   1.280   0.927   2.534
  372SOL    HW1  177   1.340   0.846   2.536
  372SOL    HW2  178   1.320   0.996   2.474
  375SOL     OW  179   1.650   1.720   3.256
  375SOL    HW1  180   1.703   1.730   3.172
  375SOL    HW2  181   1.623   1.810   3.290
  378SOL     OW  182   1.194   1.612   1.893
  378SOL    HW1  183   1.200   1.519   1.930
  378SOL    HW2  184   1.135   1.612   1.813
  381SOL     OW  185   1.504   1.607   1.906
  381SOL    HW1  186   1.412   1.644   1.913
  381SOL    HW2  187   1.542   1.627   1.816
  383SOL     OW  188   1.614   1.292   3.151
  383SOL    HW1  189   1.674   1.295   3.231
  383SOL    HW2  190   1.539   1.356   3.164
  394SOL     OW  191   1.183   1.335   1.981
  394SOL    HW1  192   1.084   1.324   1.983
  394SOL    HW2  193   1.217   1.350   2.074
  396SOL     OW  194   1.493   1.767   2.821
  396SOL    HW1  195   1.526   1.831   2.752
  396SOL    HW2  196   1.559   1.761   2.896
  400SOL     OW  197   1.674   0.883   3.116
  400SOL    HW1  198   1.647   0.794   3.079
  400SOL    HW2  199   1.675   0.951   3.043
  409SOL     OW  200   1.861   1.569   2.713
  409SOL    HW1  201   1.790   1.557   2.643
  409SOL    HW2  202   1.862   1.490   2.773
  415SOL     OW  203   1.705   1.487   2.966
  415SOL    HW1  204   1.612   1.462   2.939
  415SOL    HW2  205   1.731   1.437   3.048
  417SOL     OW  206   0.812   1.586   2.549
  417SOL    HW1  207   0.844   1.596   2.455
  417SOL    HW2  208   0.733   1.524   2.551
  426SOL     OW  209   0.875   1.646   2.199
  426SOL    HW1  210   0.798   1.611   2.145
  426SOL    HW2  211   0.843   1.717   2.261
  541SOL     OW  212   0.850   2.660   1.823
  541SOL    HW1  213   0.846   2.736   1.888
  541SOL    HW2  214   0.872   2.696   1.732
  545SOL     OW  215   1.460   3.367   1.339
  545SOL    HW1  216   1.484   3.461   1.365
  545SOL    HW2  217   1.444   3.313   1.421
  547SOL     OW  218   1.603   2.309   0.737
  547SOL    HW1  219   1.529   2.355   0.687
  547SOL    HW2  220   1.654   2.377   0.790
  549SOL     OW  221   1.127   3.203   1.690
  549SOL    HW1  222   1.174   3.203   1.778
  549SOL    HW2  223   1.079   3.116   1.679
  554SOL     OW  224   1.594   1.976   1.480
  554SOL    HW1  225   1.576   2.043   1.408
  554SOL    HW2  226   1.591   2.022   1.569
  562SOL     OW  227   1.293   3.090   1.423
  562SOL    HW1  228   1.330   3.017   1.365
  562SOL    HW2  229   1.345   3.095   1.508
  571SOL     OW  230   1.281   2.207   0.944
  571SOL    HW1  231   1.195   2.157   0.931
  571SOL    HW2  232   1.343   2.153   1.000
  573SOL     OW  233   0.807   2.467   1.465
  573SOL    HW1  234   0.760   2.464   1.554
  573SOL    HW2  235   0.756   2.412   1.399
  574SOL     OW  236   1.394   2.331   1.674
  574SOL    HW1  237   1.374   2.374   1.762
  574SOL    HW2  238   1.472   2.269   1.683
  575SOL     OW  239   0.973   2.752   1.572
  575SOL    HW1  240   1.019   2.668   1.543
  575SOL    HW2  241   0.917   2.786   1.497
  576SOL     OW  242   0.991   2.272   1.242
  576SOL    HW1  243   0.914   2.306   1.296
  576SOL    HW2  244   0.957   2.221   1.163
  581SOL     OW  245   1.719   2.447   1.831
  581SOL    HW1  246   1.693   2.536   1.795
  581SOL    HW2  247   1.717   2.379   1.758
  586SOL     OW  248   1.795   2.928   0.873
  586SOL    HW1  249   1.733   2.913   0.797
  586SOL    HW2  250   1.743   2.939   0.958
  587SOL     OW  251   1.227   3.412   1.506
  587SOL    HW1  252   1.233   3.335   1.570
  587SOL    HW2  253   1.175   3.386   1.426
  599SOL     OW  254   1.547   2.084   1.729
  599SOL    HW1  255   1.542   2.121   1.821
  599SOL    HW2  256   1.475   2.015   1.717
  600SOL     OW  257   0.781   2.126   1.749
  600SOL    HW1  258   0.848   2.065   1.792
  600SOL    HW2  259   0.708   2.145   1.814
  602SOL     OW  260   1.351   2.452   1.433
  602SOL    HW1  261   1.379   2.409   1.518
  602SOL    HW2  262   1.376   2.548   1.434
  609SOL     OW  263   1.076   2.545   1.464
  609SOL    HW1  264   0.996   2.484   1.467
  609SOL    HW2  265   1.157   2.492   1.440
  619SOL     OW  266   1.466   2.452   0.992
  619SOL    HW1  267   1.436   2.357   0.999
  619SOL    HW2  268   1.539   2.468   1.058
  625SOL     OW  269   1.754   3.085   1.588
  625SOL    HW1  270   1.845   3.046   1.575
  625SOL    HW2  271   1.762   3.181   1.612
  627SOL     OW  272   1.592   3.491   1.625
  627SOL    HW1  273   1.619   3.525   1.535
  627SOL    HW2  274   1.671   3.453   1.671
  629SOL     OW  275   1.638   2.961   1.079
  629SOL    HW1  276   1.643   3.042   1.138
  629SOL    HW2  277   1.552   2.963   1.028
  630SOL     OW  278   0.915   1.951   1.402
  630SOL    HW1  279   0.940   1.931   1.307
  630SOL    HW2  280   0.987   2.007   1.444
  631SOL     OW  281   0.980   2.978   1.719
  631SOL    HW1  282   0.881   2.984   1.729
  631SOL    HW2  283   1.003   2.898   1.663
  634SOL     OW  284   1.274   2.248   1.262
  634SOL    HW1  285   1.295   2.322   1.326
  634SOL    HW2  286   1.185   2.265   1.219
  643SOL     OW  287   1.587   2.641   1.670
  643SOL    HW1  288   1.495   2.679   1.665
  643SOL    HW2  289   1.647   2.688   1.605
  644SOL     OW  290   1.013   1.967   1.770
  644SOL    HW1  291   1.019   2.052   1.718
  644SOL    HW2  292   1.045   1.891   1.713
  647SOL     OW  293   1.360   2.724   1.045
  647SOL    HW1  294   1.285   2.724   0.979
  647SOL    HW2  295   1.397   2.632   1.054
  652SOL     OW  296   1.728   2.797   1.854
  652SOL    HW1  297   1.682   2.790   1.765
  652SOL    HW2  298   1.666   2.841   1.920
  657SOL     OW  299   1.859   3.380   1.605
  657SOL    HW1  300   1.873   3.407   1.510
  657SOL    HW2  301   1.942   3.402   1.658
  664SOL     OW  302   1.138   2.242   1.678
  664SOL    HW1  303   1.093   2.305   1.742
  664SOL    HW2  304   1.231   2.273   1.661
  665SOL     OW  305   1.160   2.069   1.477
  665SOL    HW1  306   1.160   2.133   1.554
  665SOL    HW2  307   1.188   2.117   1.394
  669SOL     OW  308   1.002   2.658   1.238
  669SOL    HW1  309   1.043   2.626   1.324
  669SOL    HW2  310   0.906   2.631   1.235
  672SOL     OW  311   1.369   2.812   1.660
  672SOL    HW1  312   1.408   2.901   1.680
  672SOL    HW2  313   1.379   2.792   1.563
  674SOL     OW  314   1.657   2.466   1.206
  674SOL    HW1  315   1.619   2.397   1.268
  674SOL    HW2  316   1.739   2.430   1.162
  680SOL     OW  317   1.347   2.921   1.234
  680SOL    HW1  318   1.371   2.858   1.160
  680SOL    HW2  319   1.257   2.961   1.216
  693SOL     OW  320   1.650   3.582   1.394
  693SOL    HW1  321   1.703   3.592   1.310
  693SOL    HW2  322   1.623   3.672   1.428
  694SOL     OW  323   1.841   2.037   0.963
  694SOL    HW1  324   1.880   1.952   0.927
  694SOL    HW2  325   1.743   2.039   0.944
  701SOL     OW  326   1.614   3.154   1.289
  701SOL    HW1  327   1.674   3.157   1.369
  701SOL    HW2  328   1.539   3.218   1.302
  705SOL     OW  329   1.709   2.247   1.381
  705SOL    HW1  330   1.782   2.316   1.385
  705SOL    HW2  331   1.737   2.172   1.322
  710SOL     OW  332   1.440   2.718   1.398
  710SOL    HW1  333   1.383   2.770   1.335
  710SOL    HW2  334   1.536   2.730   1.374
  715SOL     OW  335   0.716   2.427   1.708
  715SOL    HW1  336   0.735   2.492   1.782
  715SOL    HW2  337   0.776   2.347   1.717
  716SOL     OW  338   1.450   3.082   1.633
  716SOL    HW1  339   1.441   3.072   1.732
  716SOL    HW2  340   1.546   3.075   1.607
  718SOL     OW  341   1.674   2.745   1.254
  718SOL    HW1  342   1.647   2.656   1.217
  718SOL    HW2  343   1.675   2.813   1.181
  721SOL     OW  344   1.777   2.204   1.642
  721SOL    HW1  345   1.760   2.235   1.548
  721SOL    HW2  346   1.693   2.167   1.680
  722SOL     OW  347   1.730   2.796   1.517
  722SOL    HW1  348   1.768   2.887   1.532
  722SOL    HW2  349   1.722   2.779   1.418
  731SOL     OW  350   1.824   2.054   1.227
  731SOL    HW1  351   1.820   1.964   1.271
  731SOL    HW2  352   1.827   2.043   1.128
  733SOL     OW  353   1.705   3.349   1.104
  733SOL    HW1  354   1.612   3.324   1.077
  733SOL    HW2  355   1.731   3.299   1.186
  736SOL     OW  356   1.424   2.076   1.112
  736SOL    HW1  357   1.476   2.011   1.167
  736SOL    HW2  358   1.375   2.139   1.173
  742SOL     OW  359   1.593   2.083   0.882
  742SOL    HW1  360   1.509   2.082   0.936
  742SOL    HW2  361   1.595   2.166   0.826
  749SOL     OW  362   1.555   3.373   2.565
  749SOL    HW1  363   1.498   3.357   2.646
  749SOL    HW2  364   1.496   3.383   2.485
  750SOL     OW  365   1.135   2.565   2.579
  750SOL    HW1  366   1.192   2.643   2.554
  750SOL    HW2  367   1.075   2.591   2.655
  751SOL     OW  368   1.755   2.469   2.093
  751SOL    HW1  369   1.743   2.456   1.994
  751SOL    HW2  370   1.725   2.388   2.142
  752SOL     OW  371   0.768   3.006   2.885
  752SOL    HW1  372   0.690   3.023   2.945
  752SOL    HW2  373   0.802   3.093   2.849
  754SOL     OW  374   0.685   2.874   2.527
  754SOL    HW1  375   0.754   2.858   2.597
  754SOL    HW2  376   0.612   2.931   2.565
  757SOL     OW  377   1.460   3.367   3.201
  757SOL    HW1  378   1.484   3.461   3.227
  757SOL    HW2  379   1.444   3.313   3.283
  759SOL     OW  380   1.603   2.309   2.599
  759SOL    HW1  381   1.529   2.355   2.549
  759SOL    HW2  382   1.654   2.377   2.652
  766SOL     OW  383   1.594   1.976   3.342
  766SOL    HW1  384   1.576   2.043   3.270
  766SOL    HW2  385   1.591   2.022   3.431
  768SOL     OW  386   1.842   3.629   2.221
  768SOL    HW1  387   1.896   3.600   2.301
  768SOL    HW2  388   1.872   3.719   2.192
  770SOL     OW  389   1.689   2.784   2.474
  770SOL    HW1  390   1.784   2.755   2.482
  770SOL    HW2  391   1.681   2.849   2.399
  771SOL     OW  392   1.641   2.970   2.294
  771SOL    HW1  393   1.727   2.972   2.242
  771SOL    HW2  394   1.655   3.017   2.382
  774SOL     OW  395   1.293   3.090   3.285
  774SOL    HW1  396   1.330   3.017   3.227
  774SOL    HW2  397   1.345   3.095   3.370
  775SOL     OW  398   0.809   1.866   2.364
  775SOL    HW1  399   0.849   1.957   2.355
  775SOL    HW2  400   0.709   1.874   2.370
  777SOL     OW  401   1.525   2.861   2.052
  777SOL    HW1  402   1.462   2.785   2.065
  777SOL    HW2  403   1.573   2.879   2.138
  780SOL     OW  404   1.466   3.279   2.815
  780SOL    HW1  405   1.407   3.285   2.895
  780SOL    HW2  406   1.451   3.191   2.769
  781SOL     OW  407   1.667   3.576   2.434
  781SOL    HW1  408   1.626   3.553   2.346
  781SOL    HW2  409   1.649   3.502   2.499
  782SOL     OW  410   0.598   2.591   2.132
  782SOL    HW1  411   0.622   2.660   2.064
  782SOL    HW2  412   0.520   2.624   2.186
  783SOL     OW  413   1.281   2.207   2.806
  783SOL    HW1  414   1.195   2.157   2.793
  783SOL    HW2  415   1.343   2.153   2.862
  784SOL     OW  416   1.576   3.524   2.169
  784SOL    HW1  417   1.665   3.570   2.172
  784SOL    HW2  418   1.555   3.500   2.074
  786SOL     OW  419   1.394   2.331   3.536
  786SOL    HW1  420   1.374   2.374   3.624
  786SOL    HW2  421   1.472   2.269   3.545
  787SOL     OW  422   0.973   2.752   3.434
  787SOL    HW1  423   1.019   2.668   3.405
  787SOL    HW2  424   0.917   2.786   3.359
  788SOL     OW  425   0.991   2.272   3.104
  788SOL    HW1  426   0.914   2.306   3.158
  788SOL    HW2  427   0.957   2.221   3.025
  789SOL     OW  428   1.041   2.563   2.291
  789SOL    HW1  429   1.067   2.559   2.387
  789SOL    HW2  430   0.956   2.512   2.277
  792SOL     OW  431   0.865   2.210   2.057
  792SOL    HW1  432   0.924   2.273   2.008
  792SOL    HW2  433   0.884   2.116   2.028
  793SOL     OW  434   1.719   2.447   3.693
  793SOL    HW1  435   1.693   2.536   3.657
  793SOL    HW2  436   1.717   2.379   3.620
  794SOL     OW  437   1.362   3.006   2.407
  794SOL    HW1  438   1.445   2.977   2.359
  794SOL    HW2  439   1.313   3.073   2.351
  796SOL     OW  440   1.008   3.318   2.339
  796SOL    HW1  441   0.962   3.390   2.287
  796SOL    HW2  442   1.004   3.338   2.437
  798SOL     OW  443   1.795   2.928   2.735
  798SOL    HW1  444   1.733   2.913   2.659
  798SOL    HW2  445   1.743   2.939   2.820
  801SOL     OW  446   1.458   2.597   2.590
  801SOL    HW1  447   1.453   2.532   2.665
  801SOL    HW2  448   1.538   2.656   2.603
  805SOL     OW  449   1.632   3.239   1.943
  805SOL    HW1  450   1.600   3.333   1.933
  805SOL    HW2  451   1.556   3.176   1.931
  807SOL     OW  452   1.400   1.969   2.288
  807SOL    HW1  453   1.376   1.932   2.198
  807SOL    HW2  454   1.499   1.985   2.292
  811SOL     OW  455   1.547   2.084   3.591
  811SOL    HW1  456   1.542   2.121   3.683
  811SOL    HW2  457   1.475   2.015   3.579
  815SOL     OW  458   1.351   2.452   3.295
  815SOL    HW1  459   1.379   2.409   3.380
  815SOL    HW2  460   1.376   2.548   3.296
  817SOL     OW  461   0.922   2.365   2.761
  817SOL    HW1  462   0.897   2.356   2.665
  817SOL    HW2  463   0.970   2.283   2.792
  819SOL     OW  464   1.434   3.050   1.903
  819SOL    HW1  465   1.466   2.974   1.960
  819SOL    HW2  466   1.342   3.077   1.933
  821SOL     OW  467   0.935   2.098   2.342
  821SOL    HW1  468   0.887   2.139   2.264
  821SOL    HW2  469   1.034   2.096   2.323
  822SOL     OW  470   1.076   2.545   3.326
  822SOL    HW1  471   0.996   2.484   3.329
  822SOL    HW2  472   1.157   2.492   3.302
  823SOL     OW  473   1.227   3.432   2.655
  823SOL    HW1  474   1.248   3.506   2.590
  823SOL    HW2  475   1.295   3.432   2.728
  825SOL     OW  476   1.271   3.659   2.453
  825SOL    HW1  477   1.315   3.723   2.389
  825SOL    HW2  478   1.221   3.711   2.523
  826SOL     OW  479   1.032   2.411   1.878
  826SOL    HW1  480   0.991   2.493   1.839
  826SOL    HW2  481   1.096   2.437   1.951
  829SOL     OW  482   0.866   2.316   2.504
  829SOL    HW1  483   0.834   2.388   2.442
  829SOL    HW2  484   0.890   2.235   2.451
  830SOL     OW  485   1.017   1.901   2.615
  830SOL    HW1  486   0.945   1.906   2.546
  830SOL    HW2  487   0.993   1.832   2.684
  831SOL     OW  488   1.429   3.035   2.729
  831SOL    HW1  489   1.374   2.951   2.722
  831SOL    HW2  490   1.455   3.064   2.637
  832SOL     OW  491   1.466   2.452   2.854
  832SOL    HW1  492   1.436   2.357   2.861
  832SOL    HW2  493   1.539   2.468   2.920
  833SOL     OW  494   1.857   2.695   2.239
  833SOL    HW1  495   1.899   2.631   2.303
  833SOL    HW2  496   1.819   2.644   2.161
  835SOL     OW  497   1.664   3.142   2.519
  835SOL    HW1  498   1.763   3.150   2.533
  835SOL    HW2  499   1.619   3.226   2.550
  836SOL     OW  500   1.390   2.437   1.940
  836SOL    HW1  501   1.336   2.416   2.021
  836SOL    HW2  502   1.481   2.396   1.949
  838SOL     OW  503   1.754   3.085   3.450
  838SOL    HW1  504   1.845   3.046   3.437
  838SOL    HW2  505   1.762   3.181   3.474
  839SOL     OW  506   1.064   3.209   3.202
  839SOL    HW1  507   0.984   3.186   3.257
  839SOL    HW2  508   1.147   3.183   3.251
  840SOL     OW  509   1.592   3.491   3.487
  840SOL    HW1  510   1.619   3.525   3.397
  840SOL    HW2  511   1.671   3.453   3.533
  841SOL     OW  512   1.111   3.057   2.962
  841SOL    HW1  513   1.071   3.101   3.043
  841SOL    HW2  514   1.070   3.094   2.879
  842SOL     OW  515   1.638   2.961   2.941
  842SOL    HW1  516   1.643   3.042   3.000
  842SOL    HW2  517   1.552   2.963   2.890
  843SOL     OW  518   0.915   1.951   3.264
  843SOL    HW1  519   0.940   1.931   3.169
  843SOL    HW2  520   0.987   2.007   3.306
  845SOL     OW  521   0.705   2.912   2.230
  845SOL    HW1  522   0.691   2.919   2.329
  845SOL    HW2  523   0.789   2.861   2.212
  847SOL     OW  524   1.274   2.248   3.124
  847SOL    HW1  525   1.295   2.322   3.188
  847SOL    HW2  526   1.185   2.265   3.081
  851SOL     OW  527   1.252   3.210   2.250
  851SOL    HW1  528   1.302   3.287   2.290
  851SOL    HW2  529   1.157   3.212   2.282
  852SOL     OW  530   1.272   3.307   3.004
  852SOL    HW1  531   1.319   3.320   3.091
  852SOL    HW2  532   1.206   3.233   3.013
  853SOL     OW  533   1.582   2.501   2.334
  853SOL    HW1  534   1.551   2.562   2.407
  853SOL    HW2  535   1.632   2.553   2.265
  856SOL     OW  536   1.587   2.641   3.532
  856SOL    HW1  537   1.495   2.679   3.527
  856SOL    HW2  538   1.647   2.688   3.467
  860SOL     OW  539   1.360   2.724   2.907
  860SOL    HW1  540   1.285   2.724   2.841
  860SOL    HW2  541   1.397   2.632   2.916
  861SOL     OW  542   1.209   2.387   2.137
  861SOL    HW1  543   1.222   2.303   2.191
  861SOL    HW2  544   1.180   2.461   2.197
  864SOL     OW  545   0.732   2.496   2.926
  864SOL    HW1  546   0.791   2.470   2.850
  864SOL    HW2  547   0.704   2.592   2.915
  865SOL     OW  548   1.728   2.797   3.716
  865SOL    HW1  549   1.682   2.790   3.627
  865SOL    HW2  550   1.666   2.841   3.782
  867SOL     OW  551   1.622   2.229   2.236
  867SOL    HW1  552   1.624   2.153   2.300
  867SOL    HW2  553   1.574   2.306   2.276
  868SOL     OW  554   1.023   2.628   2.828
  868SOL    HW1  555   1.038   2.649   2.924
  868SOL    HW2  556   0.993   2.533   2.819
  870SOL     OW  557   1.859   3.380   3.467
  870SOL    HW1  558   1.873   3.407   3.372
  870SOL    HW2  559   1.942   3.402   3.520
  872SOL     OW  560   1.540   2.136   1.987
  872SOL    HW1  561   1.479   2.061   2.010
  872SOL    HW2  562   1.562   2.188   2.070
  873SOL     OW  563   1.303   2.700   1.904
  873SOL    HW1  564   1.337   2.607   1.919
  873SOL    HW2  565   1.321   2.727   1.809
  874SOL     OW  566   1.068   3.195   2.711
  874SOL    HW1  567   1.075   3.111   2.656
  874SOL    HW2  568   1.130   3.264   2.675
  877SOL     OW  569   1.138   2.242   3.540
  877SOL    HW1  570   1.093   2.305   3.604
  877SOL    HW2  571   1.231   2.273   3.523
  878SOL     OW  572   1.160   2.069   3.339
  878SOL    HW1  573   1.160   2.133   3.416
  878SOL    HW2  574   1.188   2.117   3.256
  882SOL     OW  575   1.002   2.658   3.100
  882SOL    HW1  576   1.043   2.626   3.186
  882SOL    HW2  577   0.906   2.631   3.097
  885SOL     OW  578   1.369   2.812   3.522
  885SOL    HW1  579   1.408   2.901   3.542
  885SOL    HW2  580   1.379   2.792   3.425
  886SOL     OW  581   0.815   2.434   2.187
  886SOL    HW1  582   0.822   2.345   2.141
  886SOL    HW2  583   0.721   2.468   2.179
  887SOL     OW  584   1.657   2.466   3.068
  887SOL    HW1  585   1.619   2.397   3.130
  887SOL    HW2  586   1.739   2.430   3.024
  893SOL     OW  587   1.347   2.921   3.096
  893SOL    HW1  588   1.371   2.858   3.022
  893SOL    HW2  589   1.257   2.961   3.078
  894SOL     OW  590   1.302   2.717   2.171
  894SOL    HW1  591   1.216   2.686   2.213
  894SOL    HW2  592   1.298   2.703   2.072
  895SOL     OW  593   1.759   3.609   3.016
  895SOL    HW1  594   1.820   3.639   2.943
  895SOL    HW2  595   1.721   3.520   2.994
  896SOL     OW  596   1.252   3.593   2.990
  896SOL    HW1  597   1.336   3.598   2.936
  896SOL    HW2  598   1.229   3.497   3.008
  899SOL     OW  599   1.726   1.997   2.385
  899SOL    HW1  600   1.799   1.980   2.318
  899SOL    HW2  601   1.695   1.910   2.423
  900SOL     OW  602   1.388   3.435   2.339
  900SOL    HW1  603   1.455   3.447   2.265
  900SOL    HW2  604   1.348   3.524   2.362
  902SOL     OW  605   1.280   2.789   2.534
  902SOL    HW1  606   1.340   2.708   2.536
  902SOL    HW2  607   1.320   2.858   2.474
  905SOL     OW  608   1.650   3.582   3.256
  905SOL    HW1  609   1.703   3.592   3.172
  905SOL    HW2  610   1.623   3.672   3.290
  906SOL     OW  611   1.841   2.037   2.825
  906SOL    HW1  612   1.880   1.952   2.789
  906SOL    HW2  613   1.743   2.039   2.806
  908SOL     OW  614   1.194   3.474   1.893
  908SOL    HW1  615   1.200   3.381   1.930
  908SOL    HW2  616   1.135   3.474   1.813
  910SOL     OW  617   0.916   2.772   2.153
  910SOL    HW1  618   0.979   2.810   2.085
  910SOL    HW2  619   0.956   2.689   2.192
  911SOL     OW  620   1.504   3.469   1.906
  911SOL    HW1  621   1.412   3.506   1.913
  911SOL    HW2  622   1.542   3.489   1.816
  913SOL     OW  623   1.614   3.154   3.151
  913SOL    HW1  624   1.674   3.157   3.231
  913SOL    HW2  625   1.539   3.218   3.164
  914SOL     OW  626   1.039   2.960   2.558
  914SOL    HW1  627   0.969   2.913   2.612
  914SOL    HW2  628   1.098   2.892   2.515
  915SOL     OW  629   1.014   2.098   2.833
  915SOL    HW1  630   1.006   2.062   2.740
  915SOL    HW2  631   1.012   2.022   2.898
  917SOL     OW  632   1.709   2.247   3.243
  917SOL    HW1  633   1.782   2.316   3.247
  917SOL    HW2  634   1.737   2.172   3.184
  922SOL     OW  635   1.440   2.718   3.260
  922SOL    HW1  636   1.383   2.770   3.197
  922SOL    HW2  637   1.536   2.730   3.236
  924SOL     OW  638   1.183   3.197   1.981
  924SOL    HW1  639   1.084   3.186   1.983
  924SOL    HW2  640   1.217   3.212   2.074
  926SOL     OW  641   1.493   3.629   2.821
  926SOL    HW1  642   1.526   3.693   2.752
  926SOL    HW2  643   1.559   3.623   2.896
  928SOL     OW  644   1.450   3.082   3.495
  928SOL    HW1  645   1.441   3.072   3.594
  928SOL    HW2  646   1.546   3.075   3.469
  930SOL     OW  647   1.674   2.745   3.116
  930SOL    HW1  648   1.647   2.656   3.079
  930SOL    HW2  649   1.675   2.813   3.043
  931SOL     OW  650   1.225   2.187   2.311
  931SOL    HW1  651   1.290   2.113   2.300
  931SOL    HW2  652   1.245   2.237   2.395
  932SOL     OW  653   0.594   2.607   2.514
  932SOL    HW1  654   0.644   2.692   2.495
  932SOL    HW2  655   0.506   2.609   2.466
  933SOL     OW  656   1.777   2.204   3.504
  933SOL    HW1  657   1.760   2.235   3.410
  933SOL    HW2  658   1.693   2.167   3.542
  934SOL     OW  659   1.730   2.796   3.379
  934SOL    HW1  660   1.768   2.887   3.394
  934SOL    HW2  661   1.722   2.779   3.280
  935SOL     OW  662   0.859   3.236   1.878
  935SOL    HW1  663   0.813   3.251   1.966
  935SOL    HW2  664   0.903   3.321   1.848
  937SOL     OW  665   0.859   2.818   2.723
  937SOL    HW1  666   0.913   2.749   2.771
  937SOL    HW2  667   0.827   2.887   2.789
  938SOL     OW  668   1.083   2.846   1.949
  938SOL    HW1  669   1.060   2.899   1.867
  938SOL    HW2  670   1.164   2.790   1.930
  939SOL     OW  671   1.861   3.431   2.713
  939SOL    HW1  672   1.790   3.419   2.643
  939SOL    HW2  673   1.862   3.352   2.773
  943SOL     OW  674   1.824   2.054   3.089
  943SOL    HW1  675   1.820   1.964   3.133
  943SOL    HW2  676   1.827   2.043   2.990
  945SOL     OW  677   1.705   3.349   2.966
  945SOL    HW1  678   1.612   3.324   2.939
  945SOL    HW2  679   1.731   3.299   3.048
  948SOL     OW  680   1.424   2.076   2.974
  948SOL    HW1  681   1.476   2.011   3.029
  948SOL    HW2  682   1.375   2.139   3.035
  949SOL     OW  683   1.001   1.896   3.016
  949SOL    HW1  684   0.938   1.824   2.985
  949SOL    HW2  685   1.094   1.860   3.016
  950SOL     OW  686   0.770   3.192   2.163
  950SOL    HW1  687   0.724   3.105   2.180
  950SOL    HW2  688   0.861   3.189   2.204
  952SOL     OW  689   1.352   1.914   2.030
  952SOL    HW1  690   1.387   1.873   1.946
  952SOL    HW2  691   1.262   1.876   2.050
  953SOL     OW  692   1.300   2.315   2.553
  953SOL    HW1  693   1.241   2.395   2.557
  953SOL    HW2  694   1.315   2.280   2.646
  954SOL     OW  695   1.593   2.083   2.744
  954SOL    HW1  696   1.509   2.082   2.798
  954SOL    HW2  697   1.595   2.166   2.688
  961SOL     OW  698   1.755   2.469   3.955
  961SOL    HW1  699   1.743   2.456   3.856
  961SOL    HW2  700   1.725   2.388   4.004
 1010SOL     OW  701   1.390   2.437   3.802
 1010SOL    HW1  702   1.336   2.416   3.883
 1010SOL    HW2  703   1.481   2.396   3.811
 1021SOL     OW  704   1.540   2.136   3.849
 1021SOL    HW1  705   1.479   2.061   3.872
 1021SOL    HW2  706   1.562   2.188   3.932
 1022SOL     OW  707   1.303   2.700   3.766
 1022SOL    HW1  708   1.337   2.607   3.781
 1022SOL    HW2  709   1.321   2.727   3.671
 1200SOL     OW  710   1.400   3.831   2.288
 1200SOL    HW1  711   1.376   3.794   2.198
 1200SOL    HW2  712   1.499   3.847   2.292
 1255SOL     OW  713   1.726   3.859   2.385
 1255SOL    HW1  714   1.799   3.842   2.318
 1255SOL    HW2  715   1.695   3.772   2.423
 1257SOL     OW  716   1.841   3.899   2.825
 1257SOL    HW1  717   1.880   3.814   2.789
 1257SOL    HW2  718   1.743   3.901   2.806
 1279SOL     OW  719   1.352   3.776   2.030
 1279SOL    HW1  720   1.387   3.735   1.946
 1279SOL    HW2  721   1.262   3.738   2.050
 1340SOL     OW  722   2.431   1.275   1.165
 1340SOL    HW1  723   2.338   1.268   1.128
 1340SOL    HW2  724   2.442   1.364   1.209
 1345SOL     OW  725   2.712   0.798   1.823
 1345SOL    HW1  726   2.708   0.874   1.888
 1345SOL    HW2  727   2.734   0.834   1.732
 1347SOL     OW  728   2.548   1.161   1.803
 1347SOL    HW1  729   2.608   1.240   1.817
 1347SOL    HW2  730   2.462   1.192   1.762
 1348SOL     OW  731   2.197   1.435   1.061
 1348SOL    HW1  732   2.119   1.404   1.008
 1348SOL    HW2  733   2.255   1.493   1.004
 1349SOL     OW  734   3.322   1.505   1.339
 1349SOL    HW1  735   3.346   1.599   1.365
 1349SOL    HW2  736   3.306   1.451   1.421
 1353SOL     OW  737   2.989   1.341   1.690
 1353SOL    HW1  738   3.036   1.341   1.778
 1353SOL    HW2  739   2.941   1.254   1.679
 1356SOL     OW  740   2.482   1.786   1.439
 1356SOL    HW1  741   2.390   1.769   1.474
 1356SOL    HW2  742   2.510   1.878   1.465
 1365SOL     OW  743   3.155   1.228   1.423
 1365SOL    HW1  744   3.192   1.155   1.365
 1365SOL    HW2  745   3.207   1.233   1.508
 1367SOL     OW  746   2.059   0.976   1.264
 1367SOL    HW1  747   2.148   0.931   1.250
 1367SOL    HW2  748   1.986   0.911   1.245
 1369SOL     OW  749   3.049   1.792   1.616
 1369SOL    HW1  750   3.073   1.852   1.540
 1369SOL    HW2  751   3.056   1.697   1.586
 1378SOL     OW  752   2.835   0.890   1.572
 1378SOL    HW1  753   2.881   0.806   1.543
 1378SOL    HW2  754   2.779   0.924   1.497
 1382SOL     OW  755   1.992   1.821   1.571
 1382SOL    HW1  756   1.982   1.806   1.670
 1382SOL    HW2  757   1.906   1.857   1.535
 1388SOL     OW  758   2.213   1.801   0.853
 1388SOL    HW1  759   2.263   1.715   0.859
 1388SOL    HW2  760   2.278   1.878   0.850
 1390SOL     OW  761   3.089   1.550   1.506
 1390SOL    HW1  762   3.095   1.473   1.570
 1390SOL    HW2  763   3.037   1.524   1.426
 1393SOL     OW  764   2.323   1.266   1.727
 1393SOL    HW1  765   2.273   1.267   1.641
 1393SOL    HW2  766   2.260   1.248   1.803
 1399SOL     OW  767   2.111   1.785   1.241
 1399SOL    HW1  768   2.168   1.720   1.291
 1399SOL    HW2  769   2.095   1.752   1.148
 1400SOL     OW  770   2.802   1.698   0.904
 1400SOL    HW1  771   2.882   1.641   0.925
 1400SOL    HW2  772   2.753   1.658   0.827
 1405SOL     OW  773   2.750   1.514   1.195
 1405SOL    HW1  774   2.727   1.489   1.101
 1405SOL    HW2  775   2.811   1.445   1.234
 1407SOL     OW  776   2.665   1.402   0.924
 1407SOL    HW1  777   2.755   1.416   0.882
 1407SOL    HW2  778   2.594   1.404   0.853
 1430SOL     OW  779   2.926   1.347   1.340
 1430SOL    HW1  780   2.846   1.324   1.395
 1430SOL    HW2  781   3.009   1.321   1.389
 1431SOL     OW  782   3.454   1.629   1.625
 1431SOL    HW1  783   3.481   1.663   1.535
 1431SOL    HW2  784   3.533   1.591   1.671
 1435SOL     OW  785   2.842   1.116   1.719
 1435SOL    HW1  786   2.743   1.122   1.729
 1435SOL    HW2  787   2.865   1.036   1.663
 1439SOL     OW  788   1.926   1.564   1.331
 1439SOL    HW1  789   1.880   1.646   1.297
 1439SOL    HW2  790   2.024   1.583   1.340
 1443SOL     OW  791   3.134   1.445   1.142
 1443SOL    HW1  792   3.181   1.458   1.229
 1443SOL    HW2  793   3.068   1.371   1.151
 1445SOL     OW  794   2.216   1.510   1.329
 1445SOL    HW1  795   2.195   1.466   1.242
 1445SOL    HW2  796   2.313   1.536   1.332
 1446SOL     OW  797   2.264   0.751   1.598
 1446SOL    HW1  798   2.332   0.806   1.551
 1446SOL    HW2  799   2.304   0.663   1.625
 1454SOL     OW  800   1.899   1.310   1.282
 1454SOL    HW1  801   1.952   1.261   1.350
 1454SOL    HW2  802   1.921   1.408   1.287
 1460SOL     OW  803   2.842   1.573   1.700
 1460SOL    HW1  804   2.822   1.617   1.612
 1460SOL    HW2  805   2.881   1.482   1.684
 1461SOL     OW  806   3.721   1.518   1.605
 1461SOL    HW1  807   3.735   1.545   1.510
 1461SOL    HW2  808   3.804   1.540   1.658
 1462SOL     OW  809   2.212   0.898   1.804
 1462SOL    HW1  810   2.288   0.942   1.852
 1462SOL    HW2  811   2.247   0.851   1.722
 1471SOL     OW  812   1.950   1.801   0.927
 1471SOL    HW1  813   1.908   1.715   0.900
 1471SOL    HW2  814   2.044   1.804   0.893
 1472SOL     OW  815   2.366   1.568   0.910
 1472SOL    HW1  816   2.432   1.642   0.919
 1472SOL    HW2  817   2.410   1.489   0.868
 1476SOL     OW  818   3.231   0.950   1.660
 1476SOL    HW1  819   3.270   1.039   1.680
 1476SOL    HW2  820   3.241   0.930   1.563
 1479SOL     OW  821   2.114   1.564   1.744
 1479SOL    HW1  822   2.084   1.621   1.820
 1479SOL    HW2  823   2.107   1.467   1.770
 1481SOL     OW  824   2.792   1.678   1.465
 1481SOL    HW1  825   2.768   1.660   1.370
 1481SOL    HW2  826   2.822   1.772   1.475
 1483SOL     OW  827   2.021   1.137   1.466
 1483SOL    HW1  828   2.043   1.076   1.542
 1483SOL    HW2  829   2.031   1.088   1.380
 1487SOL     OW  830   3.114   1.731   1.128
 1487SOL    HW1  831   3.198   1.736   1.074
 1487SOL    HW2  832   3.091   1.635   1.146
 1488SOL     OW  833   1.945   1.258   1.022
 1488SOL    HW1  834   1.940   1.257   1.122
 1488SOL    HW2  835   1.862   1.217   0.984
 1489SOL     OW  836   2.550   1.662   1.716
 1489SOL    HW1  837   2.494   1.743   1.725
 1489SOL    HW2  838   2.602   1.666   1.630
 1493SOL     OW  839   1.992   1.794   1.851
 1493SOL    HW1  840   1.951   1.720   1.904
 1493SOL    HW2  841   2.056   1.845   1.909
 1495SOL     OW  842   2.692   1.273   1.422
 1495SOL    HW1  843   2.687   1.306   1.517
 1495SOL    HW2  844   2.606   1.292   1.376
 1497SOL     OW  845   3.512   1.720   1.394
 1497SOL    HW1  846   3.565   1.730   1.310
 1497SOL    HW2  847   3.485   1.810   1.428
 1501SOL     OW  848   2.684   1.002   1.372
 1501SOL    HW1  849   2.724   1.001   1.280
 1501SOL    HW2  850   2.694   1.094   1.412
 1504SOL     OW  851   2.234   1.288   1.490
 1504SOL    HW1  852   2.221   1.381   1.456
 1504SOL    HW2  853   2.150   1.236   1.477
 1511SOL     OW  854   1.967   1.013   1.726
 1511SOL    HW1  855   1.890   0.980   1.780
 1511SOL    HW2  856   2.052   0.983   1.768
 1515SOL     OW  857   2.475   0.842   1.431
 1515SOL    HW1  858   2.531   0.923   1.414
 1515SOL    HW2  859   2.534   0.762   1.434
 1518SOL     OW  860   3.312   1.220   1.633
 1518SOL    HW1  861   3.303   1.210   1.732
 1518SOL    HW2  862   3.408   1.213   1.607
 1519SOL     OW  863   2.252   1.741   1.560
 1519SOL    HW1  864   2.161   1.782   1.558
 1519SOL    HW2  865   2.245   1.647   1.592
 1526SOL     OW  866   2.523   1.790   0.953
 1526SOL    HW1  867   2.477   1.878   0.940
 1526SOL    HW2  868   2.622   1.802   0.946
 1530SOL     OW  869   2.083   1.314   1.844
 1530SOL    HW1  870   2.018   1.241   1.823
 1530SOL    HW2  871   2.087   1.328   1.942
 1532SOL     OW  872   2.534   1.391   1.624
 1532SOL    HW1  873   2.456   1.341   1.662
 1532SOL    HW2  874   2.531   1.486   1.655
 1541SOL     OW  875   2.480   1.567   1.284
 1541SOL    HW1  876   2.475   1.649   1.341
 1541SOL    HW2  877   2.569   1.564   1.239
 1547SOL     OW  878   2.092   0.628   1.975
 1547SOL    HW1  879   1.999   0.626   2.012
 1547SOL    HW2  880   2.093   0.589   1.883
 1550SOL     OW  881   2.431   1.275   3.027
 1550SOL    HW1  882   2.338   1.268   2.990
 1550SOL    HW2  883   2.442   1.364   3.071
 1551SOL     OW  884   3.417   1.511   2.565
 1551SOL    HW1  885   3.360   1.495   2.646
 1551SOL    HW2  886   3.358   1.521   2.485
 1552SOL     OW  887   2.997   0.703   2.579
 1552SOL    HW1  888   3.054   0.781   2.554
 1552SOL    HW2  889   2.937   0.729   2.655
 1554SOL     OW  890   2.630   1.144   2.885
 1554SOL    HW1  891   2.552   1.161   2.945
 1554SOL    HW2  892   2.664   1.231   2.849
 1556SOL     OW  893   2.547   1.012   2.527
 1556SOL    HW1  894   2.616   0.996   2.597
 1556SOL    HW2  895   2.474   1.069   2.565
 1557SOL     OW  896   2.548   1.161   3.665
 1557SOL    HW1  897   2.608   1.240   3.679
 1557SOL    HW2  898   2.462   1.192   3.624
 1558SOL     OW  899   2.197   1.435   2.923
 1558SOL    HW1  900   2.119   1.404   2.870
 1558SOL    HW2  901   2.255   1.493   2.866
 1559SOL     OW  902   3.322   1.505   3.201
 1559SOL    HW1  903   3.346   1.599   3.227
 1559SOL    HW2  904   3.306   1.451   3.283
 1562SOL     OW  905   2.093   1.713   2.345
 1562SOL    HW1  906   2.127   1.790   2.399
 1562SOL    HW2  907   2.137   1.713   2.255
 1563SOL     OW  908   2.989   1.341   3.552
 1563SOL    HW1  909   3.036   1.341   3.640
 1563SOL    HW2  910   2.941   1.254   3.541
 1564SOL     OW  911   2.092   1.434   2.400
 1564SOL    HW1  912   2.066   1.530   2.400
 1564SOL    HW2  913   2.021   1.380   2.445
 1565SOL     OW  914   2.102   1.091   2.748
 1565SOL    HW1  915   2.116   1.007   2.800
 1565SOL    HW2  916   2.047   1.155   2.803
 1566SOL     OW  917   2.482   1.786   3.301
 1566SOL    HW1  918   2.390   1.769   3.336
 1566SOL    HW2  919   2.510   1.878   3.327
 1567SOL     OW  920   2.468   0.964   1.985
 1567SOL    HW1  921   2.475   1.048   1.931
 1567SOL    HW2  922   2.514   0.977   2.073
 1569SOL     OW  923   1.984   0.643   2.425
 1569SOL    HW1  924   1.939   0.555   2.442
 1569SOL    HW2  925   1.983   0.697   2.509
 1570SOL     OW  926   3.704   1.767   2.221
 1570SOL    HW1  927   3.758   1.738   2.301
 1570SOL    HW2  928   3.734   1.857   2.192
 1571SOL     OW  929   1.889   1.596   1.979
 1571SOL    HW1  930   1.870   1.500   2.000
 1571SOL    HW2  931   1.856   1.654   2.054
 1573SOL     OW  932   3.503   1.108   2.294
 1573SOL    HW1  933   3.589   1.110   2.242
 1573SOL    HW2  934   3.517   1.155   2.382
 1575SOL     OW  935   2.475   1.365   2.588
 1575SOL    HW1  936   2.426   1.278   2.597
 1575SOL    HW2  937   2.452   1.408   2.501
 1576SOL     OW  938   3.155   1.228   3.285
 1576SOL    HW1  939   3.192   1.155   3.227
 1576SOL    HW2  940   3.207   1.233   3.370
 1578SOL     OW  941   2.059   0.976   3.126
 1578SOL    HW1  942   2.148   0.931   3.112
 1578SOL    HW2  943   1.986   0.911   3.107
 1579SOL     OW  944   3.387   0.999   2.052
 1579SOL    HW1  945   3.324   0.923   2.065
 1579SOL    HW2  946   3.435   1.017   2.138
 1580SOL     OW  947   3.049   1.792   3.478
 1580SOL    HW1  948   3.073   1.852   3.402
 1580SOL    HW2  949   3.056   1.697   3.448
 1582SOL     OW  950   3.328   1.417   2.815
 1582SOL    HW1  951   3.269   1.423   2.895
 1582SOL    HW2  952   3.313   1.329   2.769
 1583SOL     OW  953   3.529   1.714   2.434
 1583SOL    HW1  954   3.488   1.691   2.346
 1583SOL    HW2  955   3.511   1.640   2.499
 1584SOL     OW  956   2.460   0.729   2.132
 1584SOL    HW1  957   2.484   0.798   2.064
 1584SOL    HW2  958   2.382   0.762   2.186
 1586SOL     OW  959   3.438   1.662   2.169
 1586SOL    HW1  960   3.527   1.708   2.172
 1586SOL    HW2  961   3.417   1.638   2.074
 1591SOL     OW  962   2.903   0.701   2.291
 1591SOL    HW1  963   2.929   0.697   2.387
 1591SOL    HW2  964   2.818   0.650   2.277
 1592SOL     OW  965   1.938   0.811   2.651
 1592SOL    HW1  966   2.037   0.799   2.660
 1592SOL    HW2  967   1.914   0.906   2.672
 1593SOL     OW  968   1.992   1.821   3.433
 1593SOL    HW1  969   1.982   1.806   3.532
 1593SOL    HW2  970   1.906   1.857   3.397
 1596SOL     OW  971   3.224   1.144   2.407
 1596SOL    HW1  972   3.307   1.115   2.359
 1596SOL    HW2  973   3.175   1.211   2.351
 1598SOL     OW  974   2.870   1.456   2.339
 1598SOL    HW1  975   2.824   1.528   2.287
 1598SOL    HW2  976   2.866   1.476   2.437
 1599SOL     OW  977   2.213   1.801   2.715
 1599SOL    HW1  978   2.263   1.715   2.721
 1599SOL    HW2  979   2.278   1.878   2.712
 1601SOL     OW  980   3.089   1.550   3.368
 1601SOL    HW1  981   3.095   1.473   3.432
 1601SOL    HW2  982   3.037   1.524   3.288
 1602SOL     OW  983   2.183   0.943   2.104
 1602SOL    HW1  984   2.265   0.982   2.062
 1602SOL    HW2  985   2.156   0.861   2.055
 1604SOL     OW  986   2.323   1.266   3.589
 1604SOL    HW1  987   2.273   1.267   3.503
 1604SOL    HW2  988   2.260   1.248   3.665
 1605SOL     OW  989   2.973   1.776   2.099
 1605SOL    HW1  990   2.913   1.714   2.149
 1605SOL    HW2  991   3.004   1.732   2.014
 1607SOL     OW  992   3.494   1.377   1.943
 1607SOL    HW1  993   3.462   1.471   1.933
 1607SOL    HW2  994   3.418   1.314   1.931
 1608SOL     OW  995   2.326   1.743   2.185
 1608SOL    HW1  996   2.359   1.782   2.271
 1608SOL    HW2  997   2.402   1.736   2.120
 1610SOL     OW  998   2.111   1.785   3.103
 1610SOL    HW1  999   2.168   1.720   3.153
 1610SOL    HW2 1000   2.095   1.752   3.010
 1611SOL     OW 1001   2.802   1.698   2.766
 1611SOL    HW1 1002   2.882   1.641   2.787
 1611SOL    HW2 1003   2.753   1.658   2.689
 1612SOL     OW 1004   2.244   0.700   2.342
 1612SOL    HW1 1005   2.289   0.610   2.339
 1612SOL    HW2 1006   2.150   0.689   2.375
 1616SOL     OW 1007   2.750   1.514   3.057
 1616SOL    HW1 1008   2.727   1.489   2.963
 1616SOL    HW2 1009   2.811   1.445   3.096
 1618SOL     OW 1010   2.665   1.402   2.786
 1618SOL    HW1 1011   2.755   1.416   2.744
 1618SOL    HW2 1012   2.594   1.404   2.715
 1621SOL     OW 1013   3.296   1.188   1.903
 1621SOL    HW1 1014   3.328   1.112   1.960
 1621SOL    HW2 1015   3.204   1.215   1.933
 1625SOL     OW 1016   3.089   1.570   2.655
 1625SOL    HW1 1017   3.110   1.644   2.590
 1625SOL    HW2 1018   3.157   1.570   2.728
 1626SOL     OW 1019   2.321   1.152   2.603
 1626SOL    HW1 1020   2.250   1.125   2.668
 1626SOL    HW2 1021   2.295   1.124   2.510
 1627SOL     OW 1022   3.133   1.797   2.453
 1627SOL    HW1 1023   3.177   1.861   2.389
 1627SOL    HW2 1024   3.083   1.849   2.523
 1633SOL     OW 1025   3.291   1.173   2.729
 1633SOL    HW1 1026   3.236   1.089   2.722
 1633SOL    HW2 1027   3.317   1.202   2.637
 1636SOL     OW 1028   2.350   1.385   2.036
 1636SOL    HW1 1029   2.263   1.370   2.083
 1636SOL    HW2 1030   2.333   1.411   1.941
 1637SOL     OW 1031   3.526   1.280   2.519
 1637SOL    HW1 1032   3.625   1.288   2.533
 1637SOL    HW2 1033   3.481   1.364   2.550
 1641SOL     OW 1034   2.926   1.347   3.202
 1641SOL    HW1 1035   2.846   1.324   3.257
 1641SOL    HW2 1036   3.009   1.321   3.251
 1642SOL     OW 1037   3.454   1.629   3.487
 1642SOL    HW1 1038   3.481   1.663   3.397
 1642SOL    HW2 1039   3.533   1.591   3.533
 1643SOL     OW 1040   2.973   1.195   2.962
 1643SOL    HW1 1041   2.933   1.239   3.043
 1643SOL    HW2 1042   2.932   1.232   2.879
 1644SOL     OW 1043   3.500   1.099   2.941
 1644SOL    HW1 1044   3.505   1.180   3.000
 1644SOL    HW2 1045   3.414   1.101   2.890
 1647SOL     OW 1046   2.567   1.050   2.230
 1647SOL    HW1 1047   2.553   1.057   2.329
 1647SOL    HW2 1048   2.651   0.999   2.212
 1648SOL     OW 1049   2.272   0.813   3.113
 1648SOL    HW1 1050   2.358   0.825   3.163
 1648SOL    HW2 1051   2.230   0.726   3.140
 1650SOL     OW 1052   1.926   1.564   3.193
 1650SOL    HW1 1053   1.880   1.646   3.159
 1650SOL    HW2 1054   2.024   1.583   3.202
 1651SOL     OW 1055   2.229   1.100   2.363
 1651SOL    HW1 1056   2.222   1.183   2.307
 1651SOL    HW2 1057   2.233   1.020   2.303
 1653SOL     OW 1058   3.114   1.348   2.250
 1653SOL    HW1 1059   3.164   1.425   2.290
 1653SOL    HW2 1060   3.019   1.350   2.282
 1654SOL     OW 1061   3.134   1.445   3.004
 1654SOL    HW1 1062   3.181   1.458   3.091
 1654SOL    HW2 1063   3.068   1.371   3.013
 1656SOL     OW 1064   2.216   1.510   3.191
 1656SOL    HW1 1065   2.195   1.466   3.104
 1656SOL    HW2 1066   2.313   1.536   3.194
 1661SOL     OW 1067   2.435   0.870   2.891
 1661SOL    HW1 1068   2.479   0.959   2.882
 1661SOL    HW2 1069   2.372   0.870   2.968
 1665SOL     OW 1070   1.899   1.310   3.144
 1665SOL    HW1 1071   1.952   1.261   3.212
 1665SOL    HW2 1072   1.921   1.408   3.149
 1670SOL     OW 1073   2.885   0.766   2.828
 1670SOL    HW1 1074   2.900   0.787   2.924
 1670SOL    HW2 1075   2.855   0.671   2.819
 1671SOL     OW 1076   2.842   1.573   3.562
 1671SOL    HW1 1077   2.822   1.617   3.474
 1671SOL    HW2 1078   2.881   1.482   3.546
 1675SOL     OW 1079   3.165   0.838   1.904
 1675SOL    HW1 1080   3.199   0.745   1.919
 1675SOL    HW2 1081   3.183   0.865   1.809
 1676SOL     OW 1082   2.930   1.333   2.711
 1676SOL    HW1 1083   2.937   1.249   2.656
 1676SOL    HW2 1084   2.992   1.402   2.675
 1677SOL     OW 1085   2.181   0.810   2.811
 1677SOL    HW1 1086   2.274   0.846   2.816
 1677SOL    HW2 1087   2.175   0.725   2.863
 1681SOL     OW 1088   1.870   1.326   2.062
 1681SOL    HW1 1089   1.777   1.347   2.031
 1681SOL    HW2 1090   1.880   1.227   2.075
 1682SOL     OW 1091   1.950   1.801   2.789
 1682SOL    HW1 1092   1.908   1.715   2.762
 1682SOL    HW2 1093   2.044   1.804   2.755
 1683SOL     OW 1094   2.366   1.568   2.772
 1683SOL    HW1 1095   2.432   1.642   2.781
 1683SOL    HW2 1096   2.410   1.489   2.730
 1690SOL     OW 1097   2.114   1.564   3.606
 1690SOL    HW1 1098   2.084   1.621   3.682
 1690SOL    HW2 1099   2.107   1.467   3.632
 1692SOL     OW 1100   2.792   1.678   3.327
 1692SOL    HW1 1101   2.768   1.660   3.232
 1692SOL    HW2 1102   2.822   1.772   3.337
 1694SOL     OW 1103   2.021   1.137   3.328
 1694SOL    HW1 1104   2.043   1.076   3.404
 1694SOL    HW2 1105   2.031   1.088   3.242
 1695SOL     OW 1106   3.209   1.059   3.096
 1695SOL    HW1 1107   3.233   0.996   3.022
 1695SOL    HW2 1108   3.119   1.099   3.078
 1696SOL     OW 1109   3.164   0.855   2.171
 1696SOL    HW1 1110   3.078   0.824   2.213
 1696SOL    HW2 1111   3.160   0.841   2.072
 1697SOL     OW 1112   3.621   1.747   3.016
 1697SOL    HW1 1113   3.682   1.777   2.943
 1697SOL    HW2 1114   3.583   1.658   2.994
 1698SOL     OW 1115   3.114   1.731   2.990
 1698SOL    HW1 1116   3.198   1.736   2.936
 1698SOL    HW2 1117   3.091   1.635   3.008
 1699SOL     OW 1118   1.945   1.258   2.884
 1699SOL    HW1 1119   1.940   1.257   2.984
 1699SOL    HW2 1120   1.862   1.217   2.846
 1700SOL     OW 1121   2.550   1.662   3.578
 1700SOL    HW1 1122   2.494   1.743   3.587
 1700SOL    HW2 1123   2.602   1.666   3.492
 1702SOL     OW 1124   3.250   1.573   2.339
 1702SOL    HW1 1125   3.317   1.585   2.265
 1702SOL    HW2 1126   3.210   1.662   2.362
 1703SOL     OW 1127   1.992   1.794   3.713
 1703SOL    HW1 1128   1.951   1.720   3.766
 1703SOL    HW2 1129   2.056   1.845   3.771
 1704SOL     OW 1130   3.142   0.927   2.534
 1704SOL    HW1 1131   3.202   0.846   2.536
 1704SOL    HW2 1132   3.182   0.996   2.474
 1705SOL     OW 1133   2.692   1.273   3.284
 1705SOL    HW1 1134   2.687   1.306   3.379
 1705SOL    HW2 1135   2.606   1.292   3.238
 1706SOL     OW 1136   2.534   1.616   2.016
 1706SOL    HW1 1137   2.543   1.626   1.917
 1706SOL    HW2 1138   2.494   1.527   2.037
 1707SOL     OW 1139   3.512   1.720   3.256
 1707SOL    HW1 1140   3.565   1.730   3.172
 1707SOL    HW2 1141   3.485   1.810   3.290
 1710SOL     OW 1142   3.056   1.612   1.893
 1710SOL    HW1 1143   3.062   1.519   1.930
 1710SOL    HW2 1144   2.997   1.612   1.813
 1711SOL     OW 1145   2.684   1.002   3.234
 1711SOL    HW1 1146   2.724   1.001   3.142
 1711SOL    HW2 1147   2.694   1.094   3.274
 1712SOL     OW 1148   2.778   0.910   2.153
 1712SOL    HW1 1149   2.841   0.948   2.085
 1712SOL    HW2 1150   2.818   0.827   2.192
 1713SOL     OW 1151   3.366   1.607   1.906
 1713SOL    HW1 1152   3.274   1.644   1.913
 1713SOL    HW2 1153   3.404   1.627   1.816
 1714SOL     OW 1154   2.234   1.288   3.352
 1714SOL    HW1 1155   2.221   1.381   3.318
 1714SOL    HW2 1156   2.150   1.236   3.339
 1715SOL     OW 1157   3.476   1.292   3.151
 1715SOL    HW1 1158   3.536   1.295   3.231
 1715SOL    HW2 1159   3.401   1.356   3.164
 1716SOL     OW 1160   2.901   1.098   2.558
 1716SOL    HW1 1161   2.831   1.051   2.612
 1716SOL    HW2 1162   2.960   1.030   2.515
 1718SOL     OW 1163   2.452   1.487   2.353
 1718SOL    HW1 1164   2.494   1.429   2.283
 1718SOL    HW2 1165   2.408   1.566   2.309
 1720SOL     OW 1166   2.117   1.348   2.152
 1720SOL    HW1 1167   2.021   1.349   2.125
 1720SOL    HW2 1168   2.129   1.401   2.236
 1726SOL     OW 1169   3.045   1.335   1.981
 1726SOL    HW1 1170   2.946   1.324   1.983
 1726SOL    HW2 1171   3.079   1.350   2.074
 1727SOL     OW 1172   2.475   0.842   3.293
 1727SOL    HW1 1173   2.531   0.923   3.276
 1727SOL    HW2 1174   2.534   0.762   3.296
 1728SOL     OW 1175   3.355   1.767   2.821
 1728SOL    HW1 1176   3.388   1.831   2.752
 1728SOL    HW2 1177   3.421   1.761   2.896
 1731SOL     OW 1178   2.252   1.741   3.422
 1731SOL    HW1 1179   2.161   1.782   3.420
 1731SOL    HW2 1180   2.245   1.647   3.454
 1734SOL     OW 1181   2.456   0.745   2.514
 1734SOL    HW1 1182   2.506   0.830   2.495
 1734SOL    HW2 1183   2.368   0.747   2.466
 1737SOL     OW 1184   2.721   1.374   1.878
 1737SOL    HW1 1185   2.675   1.389   1.966
 1737SOL    HW2 1186   2.765   1.459   1.848
 1738SOL     OW 1187   2.523   1.790   2.815
 1738SOL    HW1 1188   2.477   1.878   2.802
 1738SOL    HW2 1189   2.622   1.802   2.808
 1739SOL     OW 1190   2.721   0.956   2.723
 1739SOL    HW1 1191   2.775   0.887   2.771
 1739SOL    HW2 1192   2.689   1.025   2.789
 1740SOL     OW 1193   2.945   0.984   1.949
 1740SOL    HW1 1194   2.922   1.037   1.867
 1740SOL    HW2 1195   3.026   0.928   1.930
 1741SOL     OW 1196   3.723   1.569   2.713
 1741SOL    HW1 1197   3.652   1.557   2.643
 1741SOL    HW2 1198   3.724   1.490   2.773
 1742SOL     OW 1199   2.083   1.314   3.706
 1742SOL    HW1 1200   2.018   1.241   3.685
 1742SOL    HW2 1201   2.087   1.328   3.804
 1743SOL     OW 1202   1.941   1.240   2.515
 1743SOL    HW1 1203   1.940   1.193   2.603
 1743SOL    HW2 1204   2.023   1.212   2.464
 1744SOL     OW 1205   2.534   1.391   3.486
 1744SOL    HW1 1206   2.456   1.341   3.524
 1744SOL    HW2 1207   2.531   1.486   3.517
 1747SOL     OW 1208   3.567   1.487   2.966
 1747SOL    HW1 1209   3.474   1.462   2.939
 1747SOL    HW2 1210   3.593   1.437   3.048
 1749SOL     OW 1211   2.674   1.586   2.549
 1749SOL    HW1 1212   2.706   1.596   2.455
 1749SOL    HW2 1213   2.595   1.524   2.551
 1752SOL     OW 1214   2.632   1.330   2.163
 1752SOL    HW1 1215   2.586   1.243   2.180
 1752SOL    HW2 1216   2.723   1.327   2.204
 1753SOL     OW 1217   2.480   1.567   3.146
 1753SOL    HW1 1218   2.475   1.649   3.203
 1753SOL    HW2 1219   2.569   1.564   3.101
 1757SOL     OW 1220   1.901   1.077   2.162
 1757SOL    HW1 1221   2.000   1.066   2.153
 1757SOL    HW2 1222   1.861   0.991   2.194
 1758SOL     OW 1223   2.737   1.646   2.199
 1758SOL    HW1 1224   2.660   1.611   2.145
 1758SOL    HW2 1225   2.705   1.717   2.261
 1773SOL     OW 1226   1.889   1.596   3.841
 1773SOL    HW1 1227   1.870   1.500   3.862
 1773SOL    HW2 1228   1.856   1.654   3.916
 1836SOL     OW 1229   2.534   1.616   3.878
 1836SOL    HW1 1230   2.543   1.626   3.779
 1836SOL    HW2 1231   2.494   1.527   3.899
 1839SOL     OW 1232   3.056   1.612   3.755
 1839SOL    HW1 1233   3.062   1.519   3.792
 1839SOL    HW2 1234   2.997   1.612   3.675
 1851SOL     OW 1235   2.721   1.374   3.740
 1851SOL    HW1 1236   2.675   1.389   3.828
 1851SOL    HW2 1237   2.765   1.459   3.710
 1867SOL     OW 1238   2.087   2.137   0.996
 1867SOL    HW1 1239   2.122   2.120   1.088
 1867SOL    HW2 1240   1.999   2.092   0.984
 1868SOL     OW 1241   1.881   2.230   0.647
 1868SOL    HW1 1242   1.799   2.273   0.686
 1868SOL    HW2 1243   1.853   2.157   0.584
 1869SOL     OW 1244   2.431   3.137   1.165
 1869SOL    HW1 1245   2.338   3.130   1.128
 1869SOL    HW2 1246   2.442   3.226   1.209
 1871SOL     OW 1247   2.997   2.565   0.717
 1871SOL    HW1 1248   3.054   2.643   0.692
 1871SOL    HW2 1249   2.937   2.591   0.793
 1873SOL     OW 1250   2.630   3.006   1.023
 1873SOL    HW1 1251   2.552   3.023   1.083
 1873SOL    HW2 1252   2.664   3.093   0.987
 1874SOL     OW 1253   2.712   2.660   1.823
 1874SOL    HW1 1254   2.708   2.736   1.888
 1874SOL    HW2 1255   2.734   2.696   1.732
 1875SOL     OW 1256   2.547   2.874   0.665
 1875SOL    HW1 1257   2.616   2.858   0.735
 1875SOL    HW2 1258   2.474   2.931   0.703
 1876SOL     OW 1259   2.548   3.023   1.803
 1876SOL    HW1 1260   2.608   3.102   1.817
 1876SOL    HW2 1261   2.462   3.054   1.762
 1877SOL     OW 1262   2.197   3.297   1.061
 1877SOL    HW1 1263   2.119   3.266   1.008
 1877SOL    HW2 1264   2.255   3.355   1.004
 1878SOL     OW 1265   3.322   3.367   1.339
 1878SOL    HW1 1266   3.346   3.461   1.365
 1878SOL    HW2 1267   3.306   3.313   1.421
 1879SOL     OW 1268   2.300   2.254   1.499
 1879SOL    HW1 1269   2.382   2.198   1.508
 1879SOL    HW2 1270   2.219   2.196   1.503
 1882SOL     OW 1271   2.989   3.203   1.690
 1882SOL    HW1 1272   3.036   3.203   1.778
 1882SOL    HW2 1273   2.941   3.116   1.679
 1884SOL     OW 1274   2.102   2.953   0.886
 1884SOL    HW1 1275   2.116   2.869   0.938
 1884SOL    HW2 1276   2.047   3.017   0.941
 1885SOL     OW 1277   2.482   3.648   1.439
 1885SOL    HW1 1278   2.390   3.631   1.474
 1885SOL    HW2 1279   2.510   3.740   1.465
 1887SOL     OW 1280   3.456   1.976   1.480
 1887SOL    HW1 1281   3.438   2.043   1.408
 1887SOL    HW2 1282   3.453   2.022   1.569
 1892SOL     OW 1283   1.975   2.599   1.597
 1892SOL    HW1 1284   2.063   2.586   1.642
 1892SOL    HW2 1285   1.962   2.696   1.575
 1894SOL     OW 1286   3.155   3.090   1.423
 1894SOL    HW1 1287   3.192   3.017   1.365
 1894SOL    HW2 1288   3.207   3.095   1.508
 1896SOL     OW 1289   2.059   2.838   1.264
 1896SOL    HW1 1290   2.148   2.793   1.250
 1896SOL    HW2 1291   1.986   2.773   1.245
 1898SOL     OW 1292   3.049   3.654   1.616
 1898SOL    HW1 1293   3.073   3.714   1.540
 1898SOL    HW2 1294   3.056   3.559   1.586
 1899SOL     OW 1295   2.179   2.113   1.801
 1899SOL    HW1 1296   2.250   2.184   1.807
 1899SOL    HW2 1297   2.091   2.152   1.829
 1903SOL     OW 1298   3.143   2.207   0.944
 1903SOL    HW1 1299   3.057   2.157   0.931
 1903SOL    HW2 1300   3.205   2.153   1.000
 1905SOL     OW 1301   2.669   2.467   1.465
 1905SOL    HW1 1302   2.622   2.464   1.554
 1905SOL    HW2 1303   2.618   2.412   1.399
 1906SOL     OW 1304   3.256   2.331   1.674
 1906SOL    HW1 1305   3.236   2.374   1.762
 1906SOL    HW2 1306   3.334   2.269   1.683
 1907SOL     OW 1307   2.835   2.752   1.572
 1907SOL    HW1 1308   2.881   2.668   1.543
 1907SOL    HW2 1309   2.779   2.786   1.497
 1908SOL     OW 1310   2.853   2.272   1.242
 1908SOL    HW1 1311   2.776   2.306   1.296
 1908SOL    HW2 1312   2.819   2.221   1.163
 1910SOL     OW 1313   1.938   2.673   0.789
 1910SOL    HW1 1314   2.037   2.661   0.798
 1910SOL    HW2 1315   1.914   2.768   0.810
 1911SOL     OW 1316   1.992   3.683   1.571
 1911SOL    HW1 1317   1.982   3.668   1.670
 1911SOL    HW2 1318   1.906   3.719   1.535
 1913SOL     OW 1319   3.581   2.447   1.831
 1913SOL    HW1 1320   3.555   2.536   1.795
 1913SOL    HW2 1321   3.579   2.379   1.758
 1915SOL     OW 1322   2.412   2.058   0.885
 1915SOL    HW1 1323   2.407   2.053   0.985
 1915SOL    HW2 1324   2.414   2.154   0.856
 1919SOL     OW 1325   3.089   3.412   1.506
 1919SOL    HW1 1326   3.095   3.335   1.570
 1919SOL    HW2 1327   3.037   3.386   1.426
 1922SOL     OW 1328   2.323   3.128   1.727
 1922SOL    HW1 1329   2.273   3.129   1.641
 1922SOL    HW2 1330   2.260   3.110   1.803
 1924SOL     OW 1331   2.064   2.147   1.498
 1924SOL    HW1 1332   1.984   2.207   1.485
 1924SOL    HW2 1333   2.054   2.098   1.584
 1928SOL     OW 1334   2.111   3.647   1.241
 1928SOL    HW1 1335   2.168   3.582   1.291
 1928SOL    HW2 1336   2.095   3.614   1.148
 1931SOL     OW 1337   3.409   2.084   1.729
 1931SOL    HW1 1338   3.404   2.121   1.821
 1931SOL    HW2 1339   3.337   2.015   1.717
 1932SOL     OW 1340   2.643   2.126   1.749
 1932SOL    HW1 1341   2.710   2.065   1.792
 1932SOL    HW2 1342   2.570   2.145   1.814
 1933SOL     OW 1343   2.750   3.376   1.195
 1933SOL    HW1 1344   2.727   3.351   1.101
 1933SOL    HW2 1345   2.811   3.307   1.234
 1934SOL     OW 1346   3.213   2.452   1.433
 1934SOL    HW1 1347   3.241   2.409   1.518
 1934SOL    HW2 1348   3.238   2.548   1.434
 1935SOL     OW 1349   2.665   3.264   0.924
 1935SOL    HW1 1350   2.755   3.278   0.882
 1935SOL    HW2 1351   2.594   3.266   0.853
 1936SOL     OW 1352   2.784   2.365   0.899
 1936SOL    HW1 1353   2.759   2.356   0.803
 1936SOL    HW2 1354   2.832   2.283   0.930
 1941SOL     OW 1355   2.938   2.545   1.464
 1941SOL    HW1 1356   2.858   2.484   1.467
 1941SOL    HW2 1357   3.019   2.492   1.440
 1943SOL     OW 1358   2.321   3.014   0.741
 1943SOL    HW1 1359   2.250   2.987   0.806
 1943SOL    HW2 1360   2.295   2.986   0.648
 1946SOL     OW 1361   1.940   2.418   1.386
 1946SOL    HW1 1362   2.032   2.417   1.345
 1946SOL    HW2 1363   1.934   2.492   1.453
 1947SOL     OW 1364   2.423   2.084   1.147
 1947SOL    HW1 1365   2.461   2.000   1.184
 1947SOL    HW2 1366   2.335   2.103   1.191
 1948SOL     OW 1367   2.728   2.316   0.642
 1948SOL    HW1 1368   2.696   2.388   0.580
 1948SOL    HW2 1369   2.752   2.235   0.589
 1949SOL     OW 1370   2.879   1.901   0.753
 1949SOL    HW1 1371   2.807   1.906   0.684
 1949SOL    HW2 1372   2.855   1.832   0.822
 1951SOL     OW 1373   3.328   2.452   0.992
 1951SOL    HW1 1374   3.298   2.357   0.999
 1951SOL    HW2 1375   3.401   2.468   1.058
 1957SOL     OW 1376   3.616   3.085   1.588
 1957SOL    HW1 1377   3.707   3.046   1.575
 1957SOL    HW2 1378   3.624   3.181   1.612
 1958SOL     OW 1379   2.926   3.209   1.340
 1958SOL    HW1 1380   2.846   3.186   1.395
 1958SOL    HW2 1381   3.009   3.183   1.389
 1959SOL     OW 1382   3.454   3.491   1.625
 1959SOL    HW1 1383   3.481   3.525   1.535
 1959SOL    HW2 1384   3.533   3.453   1.671
 1960SOL     OW 1385   2.973   3.057   1.100
 1960SOL    HW1 1386   2.933   3.101   1.181
 1960SOL    HW2 1387   2.932   3.094   1.017
 1962SOL     OW 1388   2.777   1.951   1.402
 1962SOL    HW1 1389   2.802   1.931   1.307
 1962SOL    HW2 1390   2.849   2.007   1.444
 1963SOL     OW 1391   2.842   2.978   1.719
 1963SOL    HW1 1392   2.743   2.984   1.729
 1963SOL    HW2 1393   2.865   2.898   1.663
 1965SOL     OW 1394   2.272   2.675   1.251
 1965SOL    HW1 1395   2.358   2.687   1.301
 1965SOL    HW2 1396   2.230   2.588   1.278
 1966SOL     OW 1397   3.136   2.248   1.262
 1966SOL    HW1 1398   3.157   2.322   1.326
 1966SOL    HW2 1399   3.047   2.265   1.219
 1967SOL     OW 1400   1.926   3.426   1.331
 1967SOL    HW1 1401   1.880   3.508   1.297
 1967SOL    HW2 1402   2.024   3.445   1.340
 1969SOL     OW 1403   2.428   2.399   0.865
 1969SOL    HW1 1404   2.440   2.465   0.791
 1969SOL    HW2 1405   2.474   2.433   0.948
 1971SOL     OW 1406   3.134   3.307   1.142
 1971SOL    HW1 1407   3.181   3.320   1.229
 1971SOL    HW2 1408   3.068   3.233   1.151
 1973SOL     OW 1409   2.216   3.372   1.329
 1973SOL    HW1 1410   2.195   3.328   1.242
 1973SOL    HW2 1411   2.313   3.398   1.332
 1974SOL     OW 1412   2.264   2.613   1.598
 1974SOL    HW1 1413   2.332   2.668   1.551
 1974SOL    HW2 1414   2.304   2.525   1.625
 1975SOL     OW 1415   3.449   2.641   1.670
 1975SOL    HW1 1416   3.357   2.679   1.665
 1975SOL    HW2 1417   3.509   2.688   1.605
 1976SOL     OW 1418   2.875   1.967   1.770
 1976SOL    HW1 1419   2.881   2.052   1.718
 1976SOL    HW2 1420   2.907   1.891   1.713
 1977SOL     OW 1421   2.366   1.912   1.740
 1977SOL    HW1 1422   2.324   1.855   1.670
 1977SOL    HW2 1423   2.300   1.981   1.772
 1978SOL     OW 1424   2.435   2.732   1.029
 1978SOL    HW1 1425   2.479   2.821   1.020
 1978SOL    HW2 1426   2.372   2.732   1.106
 1979SOL     OW 1427   3.222   2.724   1.045
 1979SOL    HW1 1428   3.147   2.724   0.979
 1979SOL    HW2 1429   3.259   2.632   1.054
 1981SOL     OW 1430   2.169   2.075   1.231
 1981SOL    HW1 1431   2.146   2.112   1.321
 1981SOL    HW2 1432   2.139   1.980   1.225
 1982SOL     OW 1433   1.899   3.172   1.282
 1982SOL    HW1 1434   1.952   3.123   1.350
 1982SOL    HW2 1435   1.921   3.270   1.287
 1983SOL     OW 1436   2.594   2.496   1.064
 1983SOL    HW1 1437   2.653   2.470   0.988
 1983SOL    HW2 1438   2.566   2.592   1.053
 1984SOL     OW 1439   3.590   2.797   1.854
 1984SOL    HW1 1440   3.544   2.790   1.765
 1984SOL    HW2 1441   3.528   2.841   1.920
 1985SOL     OW 1442   2.169   1.925   0.618
 1985SOL    HW1 1443   2.158   2.019   0.651
 1985SOL    HW2 1444   2.164   1.862   0.695
 1987SOL     OW 1445   2.885   2.628   0.966
 1987SOL    HW1 1446   2.900   2.649   1.062
 1987SOL    HW2 1447   2.855   2.533   0.957
 1988SOL     OW 1448   2.842   3.435   1.700
 1988SOL    HW1 1449   2.822   3.479   1.612
 1988SOL    HW2 1450   2.881   3.344   1.684
 1990SOL     OW 1451   2.212   2.760   1.804
 1990SOL    HW1 1452   2.288   2.804   1.852
 1990SOL    HW2 1453   2.247   2.713   1.722
 1994SOL     OW 1454   2.181   2.672   0.949
 1994SOL    HW1 1455   2.274   2.708   0.954
 1994SOL    HW2 1456   2.175   2.587   1.001
 1995SOL     OW 1457   2.201   2.371   1.006
 1995SOL    HW1 1458   2.149   2.288   0.989
 1995SOL    HW2 1459   2.278   2.376   0.942
 1996SOL     OW 1460   3.000   2.242   1.678
 1996SOL    HW1 1461   2.955   2.305   1.742
 1996SOL    HW2 1462   3.093   2.273   1.661
 1997SOL     OW 1463   3.022   2.069   1.477
 1997SOL    HW1 1464   3.022   2.133   1.554
 1997SOL    HW2 1465   3.050   2.117   1.394
 2000SOL     OW 1466   2.366   3.430   0.910
 2000SOL    HW1 1467   2.432   3.504   0.919
 2000SOL    HW2 1468   2.410   3.351   0.868
 2001SOL     OW 1469   2.864   2.658   1.238
 2001SOL    HW1 1470   2.905   2.626   1.324
 2001SOL    HW2 1471   2.768   2.631   1.235
 2002SOL     OW 1472   1.902   2.406   1.114
 2002SOL    HW1 1473   1.987   2.373   1.073
 2002SOL    HW2 1474   1.915   2.421   1.212
 2003SOL     OW 1475   2.051   2.382   1.722
 2003SOL    HW1 1476   2.110   2.342   1.652
 2003SOL    HW2 1477   1.993   2.453   1.681
 2004SOL     OW 1478   3.231   2.812   1.660
 2004SOL    HW1 1479   3.270   2.901   1.680
 2004SOL    HW2 1480   3.241   2.792   1.563
 2006SOL     OW 1481   3.519   2.466   1.206
 2006SOL    HW1 1482   3.481   2.397   1.268
 2006SOL    HW2 1483   3.601   2.430   1.162
 2007SOL     OW 1484   2.114   3.426   1.744
 2007SOL    HW1 1485   2.084   3.483   1.820
 2007SOL    HW2 1486   2.107   3.329   1.770
 2008SOL     OW 1487   2.533   2.326   1.269
 2008SOL    HW1 1488   2.499   2.237   1.239
 2008SOL    HW2 1489   2.559   2.380   1.189
 2009SOL     OW 1490   2.792   3.540   1.465
 2009SOL    HW1 1491   2.768   3.522   1.370
 2009SOL    HW2 1492   2.822   3.634   1.475
 2011SOL     OW 1493   2.021   2.999   1.466
 2011SOL    HW1 1494   2.043   2.938   1.542
 2011SOL    HW2 1495   2.031   2.950   1.380
 2012SOL     OW 1496   3.209   2.921   1.234
 2012SOL    HW1 1497   3.233   2.858   1.160
 2012SOL    HW2 1498   3.119   2.961   1.216
 2016SOL     OW 1499   1.945   3.120   1.022
 2016SOL    HW1 1500   1.940   3.119   1.122
 2016SOL    HW2 1501   1.862   3.079   0.984
 2017SOL     OW 1502   2.550   3.524   1.716
 2017SOL    HW1 1503   2.494   3.605   1.725
 2017SOL    HW2 1504   2.602   3.528   1.630
 2021SOL     OW 1505   1.992   3.656   1.851
 2021SOL    HW1 1506   1.951   3.582   1.904
 2021SOL    HW2 1507   2.056   3.707   1.909
 2023SOL     OW 1508   2.692   3.135   1.422
 2023SOL    HW1 1509   2.687   3.168   1.517
 2023SOL    HW2 1510   2.606   3.154   1.376
 2027SOL     OW 1511   2.125   2.188   0.720
 2027SOL    HW1 1512   2.046   2.239   0.686
 2027SOL    HW2 1513   2.116   2.173   0.818
 2029SOL     OW 1514   2.684   2.864   1.372
 2029SOL    HW1 1515   2.724   2.863   1.280
 2029SOL    HW2 1516   2.694   2.956   1.412
 2032SOL     OW 1517   2.234   3.150   1.490
 2032SOL    HW1 1518   2.221   3.243   1.456
 2032SOL    HW2 1519   2.150   3.098   1.477
 2033SOL     OW 1520   3.476   3.154   1.289
 2033SOL    HW1 1521   3.536   3.157   1.369
 2033SOL    HW2 1522   3.401   3.218   1.302
 2035SOL     OW 1523   2.876   2.098   0.971
 2035SOL    HW1 1524   2.868   2.062   0.878
 2035SOL    HW2 1525   2.874   2.022   1.036
 2037SOL     OW 1526   3.571   2.247   1.381
 2037SOL    HW1 1527   3.644   2.316   1.385
 2037SOL    HW2 1528   3.599   2.172   1.322
 2039SOL     OW 1529   1.967   2.875   1.726
 2039SOL    HW1 1530   1.890   2.842   1.780
 2039SOL    HW2 1531   2.052   2.845   1.768
 2040SOL     OW 1532   2.534   2.065   1.489
 2040SOL    HW1 1533   2.624   2.049   1.449
 2040SOL    HW2 1534   2.542   2.070   1.588
 2041SOL     OW 1535   3.302   2.718   1.398
 2041SOL    HW1 1536   3.245   2.770   1.335
 2041SOL    HW2 1537   3.398   2.730   1.374
 2044SOL     OW 1538   2.475   2.704   1.431
 2044SOL    HW1 1539   2.531   2.785   1.414
 2044SOL    HW2 1540   2.534   2.624   1.434
 2046SOL     OW 1541   2.578   2.427   1.708
 2046SOL    HW1 1542   2.597   2.492   1.782
 2046SOL    HW2 1543   2.638   2.347   1.717
 2047SOL     OW 1544   3.312   3.082   1.633
 2047SOL    HW1 1545   3.303   3.072   1.732
 2047SOL    HW2 1546   3.408   3.075   1.607
 2048SOL     OW 1547   2.252   3.603   1.560
 2048SOL    HW1 1548   2.161   3.644   1.558
 2048SOL    HW2 1549   2.245   3.509   1.592
 2049SOL     OW 1550   3.536   2.745   1.254
 2049SOL    HW1 1551   3.509   2.656   1.217
 2049SOL    HW2 1552   3.537   2.813   1.181
 2051SOL     OW 1553   2.456   2.607   0.652
 2051SOL    HW1 1554   2.506   2.692   0.633
 2051SOL    HW2 1555   2.368   2.609   0.604
 2052SOL     OW 1556   3.639   2.204   1.642
 2052SOL    HW1 1557   3.622   2.235   1.548
 2052SOL    HW2 1558   3.555   2.167   1.680
 2053SOL     OW 1559   3.592   2.796   1.517
 2053SOL    HW1 1560   3.630   2.887   1.532
 2053SOL    HW2 1561   3.584   2.779   1.418
 2056SOL     OW 1562   2.721   2.818   0.861
 2056SOL    HW1 1563   2.775   2.749   0.909
 2056SOL    HW2 1564   2.689   2.887   0.927
 2059SOL     OW 1565   2.083   3.176   1.844
 2059SOL    HW1 1566   2.018   3.103   1.823
 2059SOL    HW2 1567   2.087   3.190   1.942
 2061SOL     OW 1568   2.534   3.253   1.624
 2061SOL    HW1 1569   2.456   3.203   1.662
 2061SOL    HW2 1570   2.531   3.348   1.655
 2062SOL     OW 1571   3.686   2.054   1.227
 2062SOL    HW1 1572   3.682   1.964   1.271
 2062SOL    HW2 1573   3.689   2.043   1.128
 2065SOL     OW 1574   2.179   2.409   1.280
 2065SOL    HW1 1575   2.217   2.350   1.352
 2065SOL    HW2 1576   2.219   2.383   1.192
 2067SOL     OW 1577   3.286   2.076   1.112
 2067SOL    HW1 1578   3.338   2.011   1.167
 2067SOL    HW2 1579   3.237   2.139   1.173
 2068SOL     OW 1580   2.863   1.896   1.154
 2068SOL    HW1 1581   2.800   1.824   1.123
 2068SOL    HW2 1582   2.956   1.860   1.154
 2070SOL     OW 1583   2.480   3.429   1.284
 2070SOL    HW1 1584   2.475   3.511   1.341
 2070SOL    HW2 1585   2.569   3.426   1.239
 2076SOL     OW 1586   2.092   2.490   1.975
 2076SOL    HW1 1587   1.999   2.488   2.012
 2076SOL    HW2 1588   2.093   2.451   1.883
 2077SOL     OW 1589   2.087   2.137   2.858
 2077SOL    HW1 1590   2.122   2.120   2.950
 2077SOL    HW2 1591   1.999   2.092   2.846
 2078SOL     OW 1592   1.881   2.230   2.509
 2078SOL    HW1 1593   1.799   2.273   2.548
 2078SOL    HW2 1594   1.853   2.157   2.446
 2079SOL     OW 1595   2.431   3.137   3.027
 2079SOL    HW1 1596   2.338   3.130   2.990
 2079SOL    HW2 1597   2.442   3.226   3.071
 2080SOL     OW 1598   3.417   3.373   2.565
 2080SOL    HW1 1599   3.360   3.357   2.646
 2080SOL    HW2 1600   3.358   3.383   2.485
 2081SOL     OW 1601   2.997   2.565   2.579
 2081SOL    HW1 1602   3.054   2.643   2.554
 2081SOL    HW2 1603   2.937   2.591   2.655
 2082SOL     OW 1604   3.617   2.469   2.093
 2082SOL    HW1 1605   3.605   2.456   1.994
 2082SOL    HW2 1606   3.587   2.388   2.142
 2083SOL     OW 1607   2.630   3.006   2.885
 2083SOL    HW1 1608   2.552   3.023   2.945
 2083SOL    HW2 1609   2.664   3.093   2.849
 2084SOL     OW 1610   2.712   2.660   3.685
 2084SOL    HW1 1611   2.708   2.736   3.750
 2084SOL    HW2 1612   2.734   2.696   3.594
 2085SOL     OW 1613   2.547   2.874   2.527
 2085SOL    HW1 1614   2.616   2.858   2.597
 2085SOL    HW2 1615   2.474   2.931   2.565
 2086SOL     OW 1616   2.548   3.023   3.665
 2086SOL    HW1 1617   2.608   3.102   3.679
 2086SOL    HW2 1618   2.462   3.054   3.624
 2087SOL     OW 1619   2.197   3.297   2.923
 2087SOL    HW1 1620   2.119   3.266   2.870
 2087SOL    HW2 1621   2.255   3.355   2.866
 2088SOL     OW 1622   3.322   3.367   3.201
 2088SOL    HW1 1623   3.346   3.461   3.227
 2088SOL    HW2 1624   3.306   3.313   3.283
 2089SOL     OW 1625   2.300   2.254   3.361
 2089SOL    HW1 1626   2.382   2.198   3.370
 2089SOL    HW2 1627   2.219   2.196   3.365
 2090SOL     OW 1628   3.465   2.309   2.599
 2090SOL    HW1 1629   3.391   2.355   2.549
 2090SOL    HW2 1630   3.516   2.377   2.652
 2091SOL     OW 1631   2.093   3.575   2.345
 2091SOL    HW1 1632   2.127   3.652   2.399
 2091SOL    HW2 1633   2.137   3.575   2.255
 2092SOL     OW 1634   2.989   3.203   3.552
 2092SOL    HW1 1635   3.036   3.203   3.640
 2092SOL    HW2 1636   2.941   3.116   3.541
 2093SOL     OW 1637   2.092   3.296   2.400
 2093SOL    HW1 1638   2.066   3.392   2.400
 2093SOL    HW2 1639   2.021   3.242   2.445
 2094SOL     OW 1640   2.102   2.953   2.748
 2094SOL    HW1 1641   2.116   2.869   2.800
 2094SOL    HW2 1642   2.047   3.017   2.803
 2095SOL     OW 1643   2.482   3.648   3.301
 2095SOL    HW1 1644   2.390   3.631   3.336
 2095SOL    HW2 1645   2.510   3.740   3.327
 2096SOL     OW 1646   2.468   2.826   1.985
 2096SOL    HW1 1647   2.475   2.910   1.931
 2096SOL    HW2 1648   2.514   2.839   2.073
 2097SOL     OW 1649   3.456   1.976   3.342
 2097SOL    HW1 1650   3.438   2.043   3.270
 2097SOL    HW2 1651   3.453   2.022   3.431
 2098SOL     OW 1652   1.984   2.505   2.425
 2098SOL    HW1 1653   1.939   2.417   2.442
 2098SOL    HW2 1654   1.983   2.559   2.509
 2100SOL     OW 1655   1.889   3.458   1.979
 2100SOL    HW1 1656   1.870   3.362   2.000
 2100SOL    HW2 1657   1.856   3.516   2.054
 2101SOL     OW 1658   3.551   2.784   2.474
 2101SOL    HW1 1659   3.646   2.755   2.482
 2101SOL    HW2 1660   3.543   2.849   2.399
 2102SOL     OW 1661   3.503   2.970   2.294
 2102SOL    HW1 1662   3.589   2.972   2.242
 2102SOL    HW2 1663   3.517   3.017   2.382
 2103SOL     OW 1664   1.975   2.599   3.459
 2103SOL    HW1 1665   2.063   2.586   3.504
 2103SOL    HW2 1666   1.962   2.696   3.437
 2104SOL     OW 1667   2.475   3.227   2.588
 2104SOL    HW1 1668   2.426   3.140   2.597
 2104SOL    HW2 1669   2.452   3.270   2.501
 2105SOL     OW 1670   3.155   3.090   3.285
 2105SOL    HW1 1671   3.192   3.017   3.227
 2105SOL    HW2 1672   3.207   3.095   3.370
 2106SOL     OW 1673   2.671   1.866   2.364
 2106SOL    HW1 1674   2.711   1.957   2.355
 2106SOL    HW2 1675   2.571   1.874   2.370
 2107SOL     OW 1676   2.059   2.838   3.126
 2107SOL    HW1 1677   2.148   2.793   3.112
 2107SOL    HW2 1678   1.986   2.773   3.107
 2108SOL     OW 1679   3.387   2.861   2.052
 2108SOL    HW1 1680   3.324   2.785   2.065
 2108SOL    HW2 1681   3.435   2.879   2.138
 2110SOL     OW 1682   2.179   2.113   3.663
 2110SOL    HW1 1683   2.250   2.184   3.669
 2110SOL    HW2 1684   2.091   2.152   3.691
 2111SOL     OW 1685   3.328   3.279   2.815
 2111SOL    HW1 1686   3.269   3.285   2.895
 2111SOL    HW2 1687   3.313   3.191   2.769
 2112SOL     OW 1688   3.529   3.576   2.434
 2112SOL    HW1 1689   3.488   3.553   2.346
 2112SOL    HW2 1690   3.511   3.502   2.499
 2113SOL     OW 1691   2.460   2.591   2.132
 2113SOL    HW1 1692   2.484   2.660   2.064
 2113SOL    HW2 1693   2.382   2.624   2.186
 2114SOL     OW 1694   3.143   2.207   2.806
 2114SOL    HW1 1695   3.057   2.157   2.793
 2114SOL    HW2 1696   3.205   2.153   2.862
 2115SOL     OW 1697   3.438   3.524   2.169
 2115SOL    HW1 1698   3.527   3.570   2.172
 2115SOL    HW2 1699   3.417   3.500   2.074
 2116SOL     OW 1700   2.669   2.467   3.327
 2116SOL    HW1 1701   2.622   2.464   3.416
 2116SOL    HW2 1702   2.618   2.412   3.261
 2117SOL     OW 1703   3.256   2.331   3.536
 2117SOL    HW1 1704   3.236   2.374   3.624
 2117SOL    HW2 1705   3.334   2.269   3.545
 2118SOL     OW 1706   2.835   2.752   3.434
 2118SOL    HW1 1707   2.881   2.668   3.405
 2118SOL    HW2 1708   2.779   2.786   3.359
 2119SOL     OW 1709   2.853   2.272   3.104
 2119SOL    HW1 1710   2.776   2.306   3.158
 2119SOL    HW2 1711   2.819   2.221   3.025
 2120SOL     OW 1712   2.903   2.563   2.291
 2120SOL    HW1 1713   2.929   2.559   2.387
 2120SOL    HW2 1714   2.818   2.512   2.277
 2121SOL     OW 1715   1.938   2.673   2.651
 2121SOL    HW1 1716   2.037   2.661   2.660
 2121SOL    HW2 1717   1.914   2.768   2.672
 2122SOL     OW 1718   1.992   3.683   3.433
 2122SOL    HW1 1719   1.982   3.668   3.532
 2122SOL    HW2 1720   1.906   3.719   3.397
 2123SOL     OW 1721   2.727   2.210   2.057
 2123SOL    HW1 1722   2.786   2.273   2.008
 2123SOL    HW2 1723   2.746   2.116   2.028
 2125SOL     OW 1724   3.224   3.006   2.407
 2125SOL    HW1 1725   3.307   2.977   2.359
 2125SOL    HW2 1726   3.175   3.073   2.351
 2126SOL     OW 1727   2.412   2.058   2.747
 2126SOL    HW1 1728   2.407   2.053   2.847
 2126SOL    HW2 1729   2.414   2.154   2.718
 2127SOL     OW 1730   2.870   3.318   2.339
 2127SOL    HW1 1731   2.824   3.390   2.287
 2127SOL    HW2 1732   2.866   3.338   2.437
 2128SOL     OW 1733   2.213   3.663   2.715
 2128SOL    HW1 1734   2.263   3.577   2.721
 2128SOL    HW2 1735   2.278   3.740   2.712
 2129SOL     OW 1736   3.657   2.928   2.735
 2129SOL    HW1 1737   3.595   2.913   2.659
 2129SOL    HW2 1738   3.605   2.939   2.820
 2130SOL     OW 1739   3.089   3.412   3.368
 2130SOL    HW1 1740   3.095   3.335   3.432
 2130SOL    HW2 1741   3.037   3.386   3.288
 2131SOL     OW 1742   2.183   2.805   2.104
 2131SOL    HW1 1743   2.265   2.844   2.062
 2131SOL    HW2 1744   2.156   2.723   2.055
 2132SOL     OW 1745   3.320   2.597   2.590
 2132SOL    HW1 1746   3.315   2.532   2.665
 2132SOL    HW2 1747   3.400   2.656   2.603
 2133SOL     OW 1748   2.323   3.128   3.589
 2133SOL    HW1 1749   2.273   3.129   3.503
 2133SOL    HW2 1750   2.260   3.110   3.665
 2134SOL     OW 1751   2.973   3.638   2.099
 2134SOL    HW1 1752   2.913   3.576   2.149
 2134SOL    HW2 1753   3.004   3.594   2.014
 2135SOL     OW 1754   2.064   2.147   3.360
 2135SOL    HW1 1755   1.984   2.207   3.347
 2135SOL    HW2 1756   2.054   2.098   3.446
 2136SOL     OW 1757   3.494   3.239   1.943
 2136SOL    HW1 1758   3.462   3.333   1.933
 2136SOL    HW2 1759   3.418   3.176   1.931
 2137SOL     OW 1760   2.326   3.605   2.185
 2137SOL    HW1 1761   2.359   3.644   2.271
 2137SOL    HW2 1762   2.402   3.598   2.120
 2138SOL     OW 1763   3.262   1.969   2.288
 2138SOL    HW1 1764   3.238   1.932   2.198
 2138SOL    HW2 1765   3.361   1.985   2.292
 2139SOL     OW 1766   2.111   3.647   3.103
 2139SOL    HW1 1767   2.168   3.582   3.153
 2139SOL    HW2 1768   2.095   3.614   3.010
 2140SOL     OW 1769   2.802   3.560   2.766
 2140SOL    HW1 1770   2.882   3.503   2.787
 2140SOL    HW2 1771   2.753   3.520   2.689
 2141SOL     OW 1772   3.409   2.084   3.591
 2141SOL    HW1 1773   3.404   2.121   3.683
 2141SOL    HW2 1774   3.337   2.015   3.579
 2142SOL     OW 1775   2.476   1.984   1.979
 2142SOL    HW1 1776   2.574   1.962   1.986
 2142SOL    HW2 1777   2.445   1.967   1.886
 2143SOL     OW 1778   2.643   2.126   3.611
 2143SOL    HW1 1779   2.710   2.065   3.654
 2143SOL    HW2 1780   2.570   2.145   3.676
 2144SOL     OW 1781   2.750   3.376   3.057
 2144SOL    HW1 1782   2.727   3.351   2.963
 2144SOL    HW2 1783   2.811   3.307   3.096
 2145SOL     OW 1784   3.213   2.452   3.295
 2145SOL    HW1 1785   3.241   2.409   3.380
 2145SOL    HW2 1786   3.238   2.548   3.296
 2146SOL     OW 1787   2.665   3.264   2.786
 2146SOL    HW1 1788   2.755   3.278   2.744
 2146SOL    HW2 1789   2.594   3.266   2.715
 2147SOL     OW 1790   2.784   2.365   2.761
 2147SOL    HW1 1791   2.759   2.356   2.665
 2147SOL    HW2 1792   2.832   2.283   2.792
 2148SOL     OW 1793   2.401   1.926   2.374
 2148SOL    HW1 1794   2.320   1.927   2.432
 2148SOL    HW2 1795   2.404   2.009   2.319
 2149SOL     OW 1796   3.296   3.050   1.903
 2149SOL    HW1 1797   3.328   2.974   1.960
 2149SOL    HW2 1798   3.204   3.077   1.933
 2150SOL     OW 1799   2.159   1.897   2.033
 2150SOL    HW1 1800   2.208   1.981   2.012
 2150SOL    HW2 1801   2.221   1.832   2.078
 2151SOL     OW 1802   2.797   2.098   2.342
 2151SOL    HW1 1803   2.749   2.139   2.264
 2151SOL    HW2 1804   2.896   2.096   2.323
 2152SOL     OW 1805   2.938   2.545   3.326
 2152SOL    HW1 1806   2.858   2.484   3.329
 2152SOL    HW2 1807   3.019   2.492   3.302
 2153SOL     OW 1808   3.089   3.432   2.655
 2153SOL    HW1 1809   3.110   3.506   2.590
 2153SOL    HW2 1810   3.157   3.432   2.728
 2154SOL     OW 1811   2.321   3.014   2.603
 2154SOL    HW1 1812   2.250   2.987   2.668
 2154SOL    HW2 1813   2.295   2.986   2.510
 2155SOL     OW 1814   3.133   3.659   2.453
 2155SOL    HW1 1815   3.177   3.723   2.389
 2155SOL    HW2 1816   3.083   3.711   2.523
 2156SOL     OW 1817   2.894   2.411   1.878
 2156SOL    HW1 1818   2.853   2.493   1.839
 2156SOL    HW2 1819   2.958   2.437   1.951
 2157SOL     OW 1820   1.940   2.418   3.248
 2157SOL    HW1 1821   2.032   2.417   3.207
 2157SOL    HW2 1822   1.934   2.492   3.315
 2158SOL     OW 1823   2.423   2.084   3.009
 2158SOL    HW1 1824   2.461   2.000   3.046
 2158SOL    HW2 1825   2.335   2.103   3.053
 2159SOL     OW 1826   2.728   2.316   2.504
 2159SOL    HW1 1827   2.696   2.388   2.442
 2159SOL    HW2 1828   2.752   2.235   2.451
 2160SOL     OW 1829   2.879   1.901   2.615
 2160SOL    HW1 1830   2.807   1.906   2.546
 2160SOL    HW2 1831   2.855   1.832   2.684
 2161SOL     OW 1832   3.291   3.035   2.729
 2161SOL    HW1 1833   3.236   2.951   2.722
 2161SOL    HW2 1834   3.317   3.064   2.637
 2162SOL     OW 1835   3.328   2.452   2.854
 2162SOL    HW1 1836   3.298   2.357   2.861
 2162SOL    HW2 1837   3.401   2.468   2.920
 2163SOL     OW 1838   3.719   2.695   2.239
 2163SOL    HW1 1839   3.761   2.631   2.303
 2163SOL    HW2 1840   3.681   2.644   2.161
 2164SOL     OW 1841   2.350   3.247   2.036
 2164SOL    HW1 1842   2.263   3.232   2.083
 2164SOL    HW2 1843   2.333   3.273   1.941
 2165SOL     OW 1844   3.526   3.142   2.519
 2165SOL    HW1 1845   3.625   3.150   2.533
 2165SOL    HW2 1846   3.481   3.226   2.550
 2166SOL     OW 1847   3.252   2.437   1.940
 2166SOL    HW1 1848   3.198   2.416   2.021
 2166SOL    HW2 1849   3.343   2.396   1.949
 2168SOL     OW 1850   2.926   3.209   3.202
 2168SOL    HW1 1851   2.846   3.186   3.257
 2168SOL    HW2 1852   3.009   3.183   3.251
 2170SOL     OW 1853   2.973   3.057   2.962
 2170SOL    HW1 1854   2.933   3.101   3.043
 2170SOL    HW2 1855   2.932   3.094   2.879
 2171SOL     OW 1856   3.500   2.961   2.941
 2171SOL    HW1 1857   3.505   3.042   3.000
 2171SOL    HW2 1858   3.414   2.963   2.890
 2172SOL     OW 1859   2.777   1.951   3.264
 2172SOL    HW1 1860   2.802   1.931   3.169
 2172SOL    HW2 1861   2.849   2.007   3.306
 2173SOL     OW 1862   2.842   2.978   3.581
 2173SOL    HW1 1863   2.743   2.984   3.591
 2173SOL    HW2 1864   2.865   2.898   3.525
 2174SOL     OW 1865   2.567   2.912   2.230
 2174SOL    HW1 1866   2.553   2.919   2.329
 2174SOL    HW2 1867   2.651   2.861   2.212
 2175SOL     OW 1868   2.272   2.675   3.113
 2175SOL    HW1 1869   2.358   2.687   3.163
 2175SOL    HW2 1870   2.230   2.588   3.140
 2176SOL     OW 1871   3.136   2.248   3.124
 2176SOL    HW1 1872   3.157   2.322   3.188
 2176SOL    HW2 1873   3.047   2.265   3.081
 2177SOL     OW 1874   1.926   3.426   3.193
 2177SOL    HW1 1875   1.880   3.508   3.159
 2177SOL    HW2 1876   2.024   3.445   3.202
 2178SOL     OW 1877   2.229   2.962   2.363
 2178SOL    HW1 1878   2.222   3.045   2.307
 2178SOL    HW2 1879   2.233   2.882   2.303
 2179SOL     OW 1880   3.114   3.210   2.250
 2179SOL    HW1 1881   3.164   3.287   2.290
 2179SOL    HW2 1882   3.019   3.212   2.282
 2180SOL     OW 1883   3.134   3.307   3.004
 2180SOL    HW1 1884   3.181   3.320   3.091
 2180SOL    HW2 1885   3.068   3.233   3.013
 2181SOL     OW 1886   3.444   2.501   2.334
 2181SOL    HW1 1887   3.413   2.562   2.407
 2181SOL    HW2 1888   3.494   2.553   2.265
 2182SOL     OW 1889   2.216   3.372   3.191
 2182SOL    HW1 1890   2.195   3.328   3.104
 2182SOL    HW2 1891   2.313   3.398   3.194
 2183SOL     OW 1892   2.264   2.613   3.460
 2183SOL    HW1 1893   2.332   2.668   3.413
 2183SOL    HW2 1894   2.304   2.525   3.487
 2184SOL     OW 1895   3.449   2.641   3.532
 2184SOL    HW1 1896   3.357   2.679   3.527
 2184SOL    HW2 1897   3.509   2.688   3.467
 2185SOL     OW 1898   2.875   1.967   3.632
 2185SOL    HW1 1899   2.881   2.052   3.580
 2185SOL    HW2 1900   2.907   1.891   3.575
 2186SOL     OW 1901   2.366   1.912   3.602
 2186SOL    HW1 1902   2.324   1.855   3.532
 2186SOL    HW2 1903   2.300   1.981   3.634
 2187SOL     OW 1904   2.435   2.732   2.891
 2187SOL    HW1 1905   2.479   2.821   2.882
 2187SOL    HW2 1906   2.372   2.732   2.968
 2188SOL     OW 1907   3.222   2.724   2.907
 2188SOL    HW1 1908   3.147   2.724   2.841
 2188SOL    HW2 1909   3.259   2.632   2.916
 2189SOL     OW 1910   3.071   2.387   2.137
 2189SOL    HW1 1911   3.084   2.303   2.191
 2189SOL    HW2 1912   3.042   2.461   2.197
 2190SOL     OW 1913   2.169   2.075   3.093
 2190SOL    HW1 1914   2.146   2.112   3.183
 2190SOL    HW2 1915   2.139   1.980   3.087
 2191SOL     OW 1916   1.899   3.172   3.144
 2191SOL    HW1 1917   1.952   3.123   3.212
 2191SOL    HW2 1918   1.921   3.270   3.149
 2192SOL     OW 1919   2.594   2.496   2.926
 2192SOL    HW1 1920   2.653   2.470   2.850
 2192SOL    HW2 1921   2.566   2.592   2.915
 2194SOL     OW 1922   2.169   1.925   2.480
 2194SOL    HW1 1923   2.158   2.019   2.513
 2194SOL    HW2 1924   2.164   1.862   2.557
 2195SOL     OW 1925   3.484   2.229   2.236
 2195SOL    HW1 1926   3.486   2.153   2.300
 2195SOL    HW2 1927   3.436   2.306   2.276
 2196SOL     OW 1928   2.885   2.628   2.828
 2196SOL    HW1 1929   2.900   2.649   2.924
 2196SOL    HW2 1930   2.855   2.533   2.819
 2197SOL     OW 1931   2.842   3.435   3.562
 2197SOL    HW1 1932   2.822   3.479   3.474
 2197SOL    HW2 1933   2.881   3.344   3.546
 2199SOL     OW 1934   2.212   2.760   3.666
 2199SOL    HW1 1935   2.288   2.804   3.714
 2199SOL    HW2 1936   2.247   2.713   3.584
 2200SOL     OW 1937   3.402   2.136   1.987
 2200SOL    HW1 1938   3.341   2.061   2.010
 2200SOL    HW2 1939   3.424   2.188   2.070
 2201SOL     OW 1940   3.165   2.700   1.904
 2201SOL    HW1 1941   3.199   2.607   1.919
 2201SOL    HW2 1942   3.183   2.727   1.809
 2202SOL     OW 1943   2.930   3.195   2.711
 2202SOL    HW1 1944   2.937   3.111   2.656
 2202SOL    HW2 1945   2.992   3.264   2.675
 2203SOL     OW 1946   2.181   2.672   2.811
 2203SOL    HW1 1947   2.274   2.708   2.816
 2203SOL    HW2 1948   2.175   2.587   2.863
 2204SOL     OW 1949   3.000   2.242   3.540
 2204SOL    HW1 1950   2.955   2.305   3.604
 2204SOL    HW2 1951   3.093   2.273   3.523
 2205SOL     OW 1952   3.022   2.069   3.339
 2205SOL    HW1 1953   3.022   2.133   3.416
 2205SOL    HW2 1954   3.050   2.117   3.256
 2206SOL     OW 1955   1.870   3.188   2.062
 2206SOL    HW1 1956   1.777   3.209   2.031
 2206SOL    HW2 1957   1.880   3.089   2.075
 2207SOL     OW 1958   1.950   3.663   2.789
 2207SOL    HW1 1959   1.908   3.577   2.762
 2207SOL    HW2 1960   2.044   3.666   2.755
 2208SOL     OW 1961   2.366   3.430   2.772
 2208SOL    HW1 1962   2.432   3.504   2.781
 2208SOL    HW2 1963   2.410   3.351   2.730
 2209SOL     OW 1964   2.864   2.658   3.100
 2209SOL    HW1 1965   2.905   2.626   3.186
 2209SOL    HW2 1966   2.768   2.631   3.097
 2210SOL     OW 1967   1.902   2.406   2.976
 2210SOL    HW1 1968   1.987   2.373   2.935
 2210SOL    HW2 1969   1.915   2.421   3.074
 2211SOL     OW 1970   2.051   2.382   3.584
 2211SOL    HW1 1971   2.110   2.342   3.514
 2211SOL    HW2 1972   1.993   2.453   3.543
 2212SOL     OW 1973   3.231   2.812   3.522
 2212SOL    HW1 1974   3.270   2.901   3.542
 2212SOL    HW2 1975   3.241   2.792   3.425
 2213SOL     OW 1976   2.677   2.434   2.187
 2213SOL    HW1 1977   2.684   2.345   2.141
 2213SOL    HW2 1978   2.583   2.468   2.179
 2214SOL     OW 1979   3.519   2.466   3.068
 2214SOL    HW1 1980   3.481   2.397   3.130
 2214SOL    HW2 1981   3.601   2.430   3.024
 2215SOL     OW 1982   2.114   3.426   3.606
 2215SOL    HW1 1983   2.084   3.483   3.682
 2215SOL    HW2 1984   2.107   3.329   3.632
 2216SOL     OW 1985   2.533   2.326   3.131
 2216SOL    HW1 1986   2.499   2.237   3.101
 2216SOL    HW2 1987   2.559   2.380   3.051
 2217SOL     OW 1988   2.792   3.540   3.327
 2217SOL    HW1 1989   2.768   3.522   3.232
 2217SOL    HW2 1990   2.822   3.634   3.337
 2218SOL     OW 1991   2.021   2.999   3.328
 2218SOL    HW1 1992   2.043   2.938   3.404
 2218SOL    HW2 1993   2.031   2.950   3.242
 2219SOL     OW 1994   3.209   2.921   3.096
 2219SOL    HW1 1995   3.233   2.858   3.022
 2219SOL    HW2 1996   3.119   2.961   3.078
 2220SOL     OW 1997   3.164   2.717   2.171
 2220SOL    HW1 1998   3.078   2.686   2.213
 2220SOL    HW2 1999   3.160   2.703   2.072
 2222SOL     OW 2000   3.114   3.593   2.990
 2222SOL    HW1 2001   3.198   3.598   2.936
 2222SOL    HW2 2002   3.091   3.497   3.008
 2223SOL     OW 2003   1.945   3.120   2.884
 2223SOL    HW1 2004   1.940   3.119   2.984
 2223SOL    HW2 2005   1.862   3.079   2.846
 2224SOL     OW 2006   2.550   3.524   3.578
 2224SOL    HW1 2007   2.494   3.605   3.587
 2224SOL    HW2 2008   2.602   3.528   3.492
 2225SOL     OW 2009   3.588   1.997   2.385
 2225SOL    HW1 2010   3.661   1.980   2.318
 2225SOL    HW2 2011   3.557   1.910   2.423
 2226SOL     OW 2012   3.250   3.435   2.339
 2226SOL    HW1 2013   3.317   3.447   2.265
 2226SOL    HW2 2014   3.210   3.524   2.362
 2228SOL     OW 2015   3.142   2.789   2.534
 2228SOL    HW1 2016   3.202   2.708   2.536
 2228SOL    HW2 2017   3.182   2.858   2.474
 2229SOL     OW 2018   2.692   3.135   3.284
 2229SOL    HW1 2019   2.687   3.168   3.379
 2229SOL    HW2 2020   2.606   3.154   3.238
 2230SOL     OW 2021   2.534   3.478   2.016
 2230SOL    HW1 2022   2.543   3.488   1.917
 2230SOL    HW2 2023   2.494   3.389   2.037
 2232SOL     OW 2024   3.703   2.037   2.825
 2232SOL    HW1 2025   3.742   1.952   2.789
 2232SOL    HW2 2026   3.605   2.039   2.806
 2233SOL     OW 2027   3.056   3.474   1.893
 2233SOL    HW1 2028   3.062   3.381   1.930
 2233SOL    HW2 2029   2.997   3.474   1.813
 2234SOL     OW 2030   2.684   2.864   3.234
 2234SOL    HW1 2031   2.724   2.863   3.142
 2234SOL    HW2 2032   2.694   2.956   3.274
 2235SOL     OW 2033   2.778   2.772   2.153
 2235SOL    HW1 2034   2.841   2.810   2.085
 2235SOL    HW2 2035   2.818   2.689   2.192
 2236SOL     OW 2036   3.366   3.469   1.906
 2236SOL    HW1 2037   3.274   3.506   1.913
 2236SOL    HW2 2038   3.404   3.489   1.816
 2237SOL     OW 2039   2.234   3.150   3.352
 2237SOL    HW1 2040   2.221   3.243   3.318
 2237SOL    HW2 2041   2.150   3.098   3.339
 2238SOL     OW 2042   3.476   3.154   3.151
 2238SOL    HW1 2043   3.536   3.157   3.231
 2238SOL    HW2 2044   3.401   3.218   3.164
 2239SOL     OW 2045   2.901   2.960   2.558
 2239SOL    HW1 2046   2.831   2.913   2.612
 2239SOL    HW2 2047   2.960   2.892   2.515
 2240SOL     OW 2048   2.876   2.098   2.833
 2240SOL    HW1 2049   2.868   2.062   2.740
 2240SOL    HW2 2050   2.874   2.022   2.898
 2241SOL     OW 2051   2.452   3.349   2.353
 2241SOL    HW1 2052   2.494   3.291   2.283
 2241SOL    HW2 2053   2.408   3.428   2.309
 2242SOL     OW 2054   3.571   2.247   3.243
 2242SOL    HW1 2055   3.644   2.316   3.247
 2242SOL    HW2 2056   3.599   2.172   3.184
 2243SOL     OW 2057   2.117   3.210   2.152
 2243SOL    HW1 2058   2.021   3.211   2.125
 2243SOL    HW2 2059   2.129   3.263   2.236
 2244SOL     OW 2060   1.967   2.875   3.588
 2244SOL    HW1 2061   1.890   2.842   3.642
 2244SOL    HW2 2062   2.052   2.845   3.630
 2245SOL     OW 2063   2.534   2.065   3.351
 2245SOL    HW1 2064   2.624   2.049   3.311
 2245SOL    HW2 2065   2.542   2.070   3.450
 2246SOL     OW 2066   1.937   2.207   1.895
 2246SOL    HW1 2067   1.845   2.179   1.866
 2246SOL    HW2 2068   1.968   2.284   1.839
 2247SOL     OW 2069   3.302   2.718   3.260
 2247SOL    HW1 2070   3.245   2.770   3.197
 2247SOL    HW2 2071   3.398   2.730   3.236
 2248SOL     OW 2072   1.934   2.028   2.180
 2248SOL    HW1 2073   1.917   2.111   2.126
 2248SOL    HW2 2074   2.024   1.991   2.158
 2249SOL     OW 2075   3.045   3.197   1.981
 2249SOL    HW1 2076   2.946   3.186   1.983
 2249SOL    HW2 2077   3.079   3.212   2.074
 2250SOL     OW 2078   2.475   2.704   3.293
 2250SOL    HW1 2079   2.531   2.785   3.276
 2250SOL    HW2 2080   2.534   2.624   3.296
 2251SOL     OW 2081   3.355   3.629   2.821
 2251SOL    HW1 2082   3.388   3.693   2.752
 2251SOL    HW2 2083   3.421   3.623   2.896
 2252SOL     OW 2084   2.578   2.427   3.570
 2252SOL    HW1 2085   2.597   2.492   3.644
 2252SOL    HW2 2086   2.638   2.347   3.579
 2253SOL     OW 2087   3.312   3.082   3.495
 2253SOL    HW1 2088   3.303   3.072   3.594
 2253SOL    HW2 2089   3.408   3.075   3.469
 2254SOL     OW 2090   2.252   3.603   3.422
 2254SOL    HW1 2091   2.161   3.644   3.420
 2254SOL    HW2 2092   2.245   3.509   3.454
 2255SOL     OW 2093   3.536   2.745   3.116
 2255SOL    HW1 2094   3.509   2.656   3.079
 2255SOL    HW2 2095   3.537   2.813   3.043
 2256SOL     OW 2096   3.087   2.187   2.311
 2256SOL    HW1 2097   3.152   2.113   2.300
 2256SOL    HW2 2098   3.107   2.237   2.395
 2257SOL     OW 2099   2.456   2.607   2.514
 2257SOL    HW1 2100   2.506   2.692   2.495
 2257SOL    HW2 2101   2.368   2.609   2.466
 2258SOL     OW 2102   3.639   2.204   3.504
 2258SOL    HW1 2103   3.622   2.235   3.410
 2258SOL    HW2 2104   3.555   2.167   3.542
 2259SOL     OW 2105   3.592   2.796   3.379
 2259SOL    HW1 2106   3.630   2.887   3.394
 2259SOL    HW2 2107   3.584   2.779   3.280
 2260SOL     OW 2108   2.721   3.236   1.878
 2260SOL    HW1 2109   2.675   3.251   1.966
 2260SOL    HW2 2110   2.765   3.321   1.848
 2261SOL     OW 2111   2.523   3.652   2.815
 2261SOL    HW1 2112   2.477   3.740   2.802
 2261SOL    HW2 2113   2.622   3.664   2.808
 2262SOL     OW 2114   2.721   2.818   2.723
 2262SOL    HW1 2115   2.775   2.749   2.771
 2262SOL    HW2 2116   2.689   2.887   2.789
 2263SOL     OW 2117   2.945   2.846   1.949
 2263SOL    HW1 2118   2.922   2.899   1.867
 2263SOL    HW2 2119   3.026   2.790   1.930
 2264SOL     OW 2120   3.723   3.431   2.713
 2264SOL    HW1 2121   3.652   3.419   2.643
 2264SOL    HW2 2122   3.724   3.352   2.773
 2265SOL     OW 2123   2.083   3.176   3.706
 2265SOL    HW1 2124   2.018   3.103   3.685
 2265SOL    HW2 2125   2.087   3.190   3.804
 2266SOL     OW 2126   1.941   3.102   2.515
 2266SOL    HW1 2127   1.940   3.055   2.603
 2266SOL    HW2 2128   2.023   3.074   2.464
 2267SOL     OW 2129   2.534   3.253   3.486
 2267SOL    HW1 2130   2.456   3.203   3.524
 2267SOL    HW2 2131   2.531   3.348   3.517
 2268SOL     OW 2132   3.686   2.054   3.089
 2268SOL    HW1 2133   3.682   1.964   3.133
 2268SOL    HW2 2134   3.689   2.043   2.990
 2269SOL     OW 2135   3.567   3.349   2.966
 2269SOL    HW1 2136   3.474   3.324   2.939
 2269SOL    HW2 2137   3.593   3.299   3.048
 2270SOL     OW 2138   2.179   2.409   3.142
 2270SOL    HW1 2139   2.217   2.350   3.214
 2270SOL    HW2 2140   2.219   2.383   3.054
 2271SOL     OW 2141   2.674   3.448   2.549
 2271SOL    HW1 2142   2.706   3.458   2.455
 2271SOL    HW2 2143   2.595   3.386   2.551
 2272SOL     OW 2144   3.286   2.076   2.974
 2272SOL    HW1 2145   3.338   2.011   3.029
 2272SOL    HW2 2146   3.237   2.139   3.035
 2273SOL     OW 2147   2.863   1.896   3.016
 2273SOL    HW1 2148   2.800   1.824   2.985
 2273SOL    HW2 2149   2.956   1.860   3.016
 2274SOL     OW 2150   2.632   3.192   2.163
 2274SOL    HW1 2151   2.586   3.105   2.180
 2274SOL    HW2 2152   2.723   3.189   2.204
 2275SOL     OW 2153   2.480   3.429   3.146
 2275SOL    HW1 2154   2.475   3.511   3.203
 2275SOL    HW2 2155   2.569   3.426   3.101
 2276SOL     OW 2156   3.214   1.914   2.030
 2276SOL    HW1 2157   3.249   1.873   1.946
 2276SOL    HW2 2158   3.124   1.876   2.050
 2277SOL     OW 2159   3.162   2.315   2.553
 2277SOL    HW1 2160   3.103   2.395   2.557
 2277SOL    HW2 2161   3.177   2.280   2.646
 2278SOL     OW 2162   3.455   2.083   2.744
 2278SOL    HW1 2163   3.371   2.082   2.798
 2278SOL    HW2 2164   3.457   2.166   2.688
 2279SOL     OW 2165   1.901   2.939   2.162
 2279SOL    HW1 2166   2.000   2.928   2.153
 2279SOL    HW2 2167   1.861   2.853   2.194
 2280SOL     OW 2168   2.737   3.508   2.199
 2280SOL    HW1 2169   2.660   3.473   2.145
 2280SOL    HW2 2170   2.705   3.579   2.261
 2281SOL     OW 2171   2.092   2.490   3.837
 2281SOL    HW1 2172   1.999   2.488   3.874
 2281SOL    HW2 2173   2.093   2.451   3.745
 2292SOL     OW 2174   2.468   2.826   3.847
 2292SOL    HW1 2175   2.475   2.910   3.793
 2292SOL    HW2 2176   2.514   2.839   3.935
 2303SOL     OW 2177   2.460   2.591   3.994
 2303SOL    HW1 2178   2.484   2.660   3.926
 2303SOL    HW2 2179   2.382   2.624   4.048
 2308SOL     OW 2180   2.727   2.210   3.919
 2308SOL    HW1 2181   2.786   2.273   3.870
 2308SOL    HW2 2182   2.746   2.116   3.890
 2314SOL     OW 2183   2.183   2.805   3.966
 2314SOL    HW1 2184   2.265   2.844   3.924
 2314SOL    HW2 2185   2.156   2.723   3.917
 2321SOL     OW 2186   2.476   1.984   3.841
 2321SOL    HW1 2187   2.574   1.962   3.848
 2321SOL    HW2 2188   2.445   1.967   3.748
 2324SOL     OW 2189   2.159   1.897   3.895
 2324SOL    HW1 2190   2.208   1.981   3.874
 2324SOL    HW2 2191   2.221   1.832   3.940
 2329SOL     OW 2192   2.894   2.411   3.740
 2329SOL    HW1 2193   2.853   2.493   3.701
 2329SOL    HW2 2194   2.958   2.437   3.813
 2333SOL     OW 2195   2.350   3.247   3.898
 2333SOL    HW1 2196   2.263   3.232   3.945
 2333SOL    HW2 2197   2.333   3.273   3.803
 2335SOL     OW 2198   3.252   2.437   3.802
 2335SOL    HW1 2199   3.198   2.416   3.883
 2335SOL    HW2 2200   3.343   2.396   3.811
 2336SOL     OW 2201   2.389   2.118   4.052
 2336SOL    HW1 2202   2.416   2.059   3.977
 2336SOL    HW2 2203   2.389   2.213   4.021
 2347SOL     OW 2204   3.165   2.700   3.766
 2347SOL    HW1 2205   3.199   2.607   3.781
 2347SOL    HW2 2206   3.183   2.727   3.671
 2352SOL     OW 2207   2.677   2.434   4.049
 2352SOL    HW1 2208   2.684   2.345   4.003
 2352SOL    HW2 2209   2.583   2.468   4.041
 2353SOL     OW 2210   2.335   2.362   3.915
 2353SOL    HW1 2211   2.396   2.442   3.919
 2353SOL    HW2 2212   2.240   2.393   3.922
 2363SOL     OW 2213   2.778   2.772   4.015
 2363SOL    HW1 2214   2.841   2.810   3.947
 2363SOL    HW2 2215   2.818   2.689   4.054
 2368SOL     OW 2216   1.937   2.207   3.757
 2368SOL    HW1 2217   1.845   2.179   3.728
 2368SOL    HW2 2218   1.968   2.284   3.701
 2369SOL     OW 2219   1.934   2.028   4.042
 2369SOL    HW1 2220   1.917   2.111   3.988
 2369SOL    HW2 2221   2.024   1.991   4.020
 2374SOL     OW 2222   2.721   3.236   3.740
 2374SOL    HW1 2223   2.675   3.251   3.828
 2374SOL    HW2 2224   2.765   3.321   3.710
 2377SOL     OW 2225   2.945   2.846   3.811
 2377SOL    HW1 2226   2.922   2.899   3.729
 2377SOL    HW2 2227   3.026   2.790   3.792
 2402SOL     OW 2228   2.179   3.975   1.801
 2402SOL    HW1 2229   2.250   4.046   1.807
 2402SOL    HW2 2230   2.091   4.014   1.829
 2419SOL     OW 2231   2.643   3.988   1.749
 2419SOL    HW1 2232   2.710   3.927   1.792
 2419SOL    HW2 2233   2.570   4.007   1.814
 2436SOL     OW 2234   2.777   3.813   1.402
 2436SOL    HW1 2235   2.802   3.793   1.307
 2436SOL    HW2 2236   2.849   3.869   1.444
 2443SOL     OW 2237   2.875   3.829   1.770
 2443SOL    HW1 2238   2.881   3.914   1.718
 2443SOL    HW2 2239   2.907   3.753   1.713
 2444SOL     OW 2240   2.366   3.774   1.740
 2444SOL    HW1 2241   2.324   3.717   1.670
 2444SOL    HW2 2242   2.300   3.843   1.772
 2497SOL     OW 2243   2.087   3.999   2.858
 2497SOL    HW1 2244   2.122   3.982   2.950
 2497SOL    HW2 2245   1.999   3.954   2.846
 2508SOL     OW 2246   2.671   3.728   2.364
 2508SOL    HW1 2247   2.711   3.819   2.355
 2508SOL    HW2 2248   2.571   3.736   2.370
 2519SOL     OW 2249   2.727   4.072   2.057
 2519SOL    HW1 2250   2.786   4.135   2.008
 2519SOL    HW2 2251   2.746   3.978   2.028
 2521SOL     OW 2252   2.412   3.920   2.747
 2521SOL    HW1 2253   2.407   3.915   2.847
 2521SOL    HW2 2254   2.414   4.016   2.718
 2524SOL     OW 2255   3.262   3.831   2.288
 2524SOL    HW1 2256   3.238   3.794   2.198
 2524SOL    HW2 2257   3.361   3.847   2.292
 2527SOL     OW 2258   2.476   3.846   1.979
 2527SOL    HW1 2259   2.574   3.824   1.986
 2527SOL    HW2 2260   2.445   3.829   1.886
 2531SOL     OW 2261   2.401   3.788   2.374
 2531SOL    HW1 2262   2.320   3.789   2.432
 2531SOL    HW2 2263   2.404   3.871   2.319
 2532SOL     OW 2264   2.159   3.759   2.033
 2532SOL    HW1 2265   2.208   3.843   2.012
 2532SOL    HW2 2266   2.221   3.694   2.078
 2533SOL     OW 2267   2.797   3.960   2.342
 2533SOL    HW1 2268   2.749   4.001   2.264
 2533SOL    HW2 2269   2.896   3.958   2.323
 2537SOL     OW 2270   2.423   3.946   3.009
 2537SOL    HW1 2271   2.461   3.862   3.046
 2537SOL    HW2 2272   2.335   3.965   3.053
 2539SOL     OW 2273   2.879   3.763   2.615
 2539SOL    HW1 2274   2.807   3.768   2.546
 2539SOL    HW2 2275   2.855   3.694   2.684
 2543SOL     OW 2276   2.389   3.980   2.190
 2543SOL    HW1 2277   2.416   3.921   2.115
 2543SOL    HW2 2278   2.389   4.075   2.159
 2545SOL     OW 2279   2.777   3.813   3.264
 2545SOL    HW1 2280   2.802   3.793   3.169
 2545SOL    HW2 2281   2.849   3.869   3.306
 2557SOL     OW 2282   2.169   3.937   3.093
 2557SOL    HW1 2283   2.146   3.974   3.183
 2557SOL    HW2 2284   2.139   3.842   3.087
 2560SOL     OW 2285   2.169   3.787   2.480
 2560SOL    HW1 2286   2.158   3.881   2.513
 2560SOL    HW2 2287   2.164   3.724   2.557
 2582SOL     OW 2288   2.125   4.050   2.582
 2582SOL    HW1 2289   2.046   4.101   2.548
 2582SOL    HW2 2290   2.116   4.035   2.680
 2584SOL     OW 2291   2.876   3.960   2.833
 2584SOL    HW1 2292   2.868   3.924   2.740
 2584SOL    HW2 2293   2.874   3.884   2.898
 2590SOL     OW 2294   1.934   3.890   2.180
 2590SOL    HW1 2295   1.917   3.973   2.126
 2590SOL    HW2 2296   2.024   3.853   2.158
 2599SOL     OW 2297   2.290   4.148   2.382
 2599SOL    HW1 2298   2.320   4.076   2.320
 2599SOL    HW2 2299   2.251   4.108   2.465
 2602SOL     OW 2300   2.863   3.758   3.016
 2602SOL    HW1 2301   2.800   3.686   2.985
 2602SOL    HW2 2302   2.956   3.722   3.016
 2603SOL     OW 2303   3.214   3.776   2.030
 2603SOL    HW1 2304   3.249   3.735   1.946
 2603SOL    HW2 2305   3.124   3.738   2.050
 2686SOL     OW 2306   3.854   1.821   1.571
 2686SOL    HW1 2307   3.844   1.806   1.670
 2686SOL    HW2 2308   3.768   1.857   1.535
 2743SOL     OW 2309   3.854   1.794   1.851
 2743SOL    HW1 2310   3.813   1.720   1.904
 2743SOL    HW2 2311   3.918   1.845   1.909
 2783SOL     OW 2312   3.955   1.713   2.345
 2783SOL    HW1 2313   3.989   1.790   2.399
 2783SOL    HW2 2314   3.999   1.713   2.255
 2789SOL     OW 2315   3.751   1.596   1.979
 2789SOL    HW1 2316   3.732   1.500   2.000
 2789SOL    HW2 2317   3.718   1.654   2.054
 2842SOL     OW 2318   3.732   1.326   2.062
 2842SOL    HW1 2319   3.639   1.347   2.031
 2842SOL    HW2 2320   3.742   1.227   2.075
 2843SOL     OW 2321   3.812   1.801   2.789
 2843SOL    HW1 2322   3.770   1.715   2.762
 2843SOL    HW2 2323   3.906   1.804   2.755
 2960SOL     OW 2324   3.837   2.599   1.597
 2960SOL    HW1 2325   3.925   2.586   1.642
 2960SOL    HW2 2326   3.824   2.696   1.575
 2964SOL     OW 2327   4.041   2.113   1.801
 2964SOL    HW1 2328   4.112   2.184   1.807
 2964SOL    HW2 2329   3.953   2.152   1.829
 2988SOL     OW 2330   3.802   2.418   1.386
 2988SOL    HW1 2331   3.894   2.417   1.345
 2988SOL    HW2 2332   3.796   2.492   1.453
 3016SOL     OW 2333   3.913   2.382   1.722
 3016SOL    HW1 2334   3.972   2.342   1.652
 3016SOL    HW2 2335   3.855   2.453   1.681
 3034SOL     OW 2336   3.829   2.875   1.726
 3034SOL    HW1 2337   3.752   2.842   1.780
 3034SOL    HW2 2338   3.914   2.845   1.768
 3056SOL     OW 2339   3.954   2.490   1.975
 3056SOL    HW1 2340   3.861   2.488   2.012
 3056SOL    HW2 2341   3.955   2.451   1.883
 3057SOL     OW 2342   3.949   2.137   2.858
 3057SOL    HW1 2343   3.984   2.120   2.950
 3057SOL    HW2 2344   3.861   2.092   2.846
 3058SOL     OW 2345   3.743   2.230   2.509
 3058SOL    HW1 2346   3.661   2.273   2.548
 3058SOL    HW2 2347   3.715   2.157   2.446
 3068SOL     OW 2348   3.964   2.953   2.748
 3068SOL    HW1 2349   3.978   2.869   2.800
 3068SOL    HW2 2350   3.909   3.017   2.803
 3071SOL     OW 2351   3.846   2.505   2.425
 3071SOL    HW1 2352   3.801   2.417   2.442
 3071SOL    HW2 2353   3.845   2.559   2.509
 3081SOL     OW 2354   3.800   2.673   2.651
 3081SOL    HW1 2355   3.899   2.661   2.660
 3081SOL    HW2 2356   3.776   2.768   2.672
 3087SOL     OW 2357   4.045   2.805   2.104
 3087SOL    HW1 2358   4.127   2.844   2.062
 3087SOL    HW2 2359   4.018   2.723   2.055
 3092SOL     OW 2360   4.106   2.562   2.342
 3092SOL    HW1 2361   4.151   2.472   2.339
 3092SOL    HW2 2362   4.012   2.551   2.375
 3098SOL     OW 2363   4.021   1.897   2.033
 3098SOL    HW1 2364   4.070   1.981   2.012
 3098SOL    HW2 2365   4.083   1.832   2.078
 3101SOL     OW 2366   3.802   2.418   3.248
 3101SOL    HW1 2367   3.894   2.417   3.207
 3101SOL    HW2 2368   3.796   2.492   3.315
 3119SOL     OW 2369   4.031   1.925   2.480
 3119SOL    HW1 2370   4.020   2.019   2.513
 3119SOL    HW2 2371   4.026   1.862   2.557
 3123SOL     OW 2372   4.043   2.672   2.811
 3123SOL    HW1 2373   4.136   2.708   2.816
 3123SOL    HW2 2374   4.037   2.587   2.863
 3124SOL     OW 2375   4.063   2.371   2.868
 3124SOL    HW1 2376   4.011   2.288   2.851
 3124SOL    HW2 2377   4.140   2.376   2.804
 3125SOL     OW 2378   3.732   3.188   2.062
 3125SOL    HW1 2379   3.639   3.209   2.031
 3125SOL    HW2 2380   3.742   3.089   2.075
 3128SOL     OW 2381   3.764   2.406   2.976
 3128SOL    HW1 2382   3.849   2.373   2.935
 3128SOL    HW2 2383   3.777   2.421   3.074
 3135SOL     OW 2384   3.807   3.120   2.884
 3135SOL    HW1 2385   3.802   3.119   2.984
 3135SOL    HW2 2386   3.724   3.079   2.846
 3141SOL     OW 2387   3.987   2.188   2.582
 3141SOL    HW1 2388   3.908   2.239   2.548
 3141SOL    HW2 2389   3.978   2.173   2.680
 3148SOL     OW 2390   3.799   2.207   1.895
 3148SOL    HW1 2391   3.707   2.179   1.866
 3148SOL    HW2 2392   3.830   2.284   1.839
 3149SOL     OW 2393   3.796   2.028   2.180
 3149SOL    HW1 2394   3.779   2.111   2.126
 3149SOL    HW2 2395   3.886   1.991   2.158
 3158SOL     OW 2396   3.803   3.102   2.515
 3158SOL    HW1 2397   3.802   3.055   2.603
 3158SOL    HW2 2398   3.885   3.074   2.464
 3166SOL     OW 2399   3.763   2.939   2.162
 3166SOL    HW1 2400   3.862   2.928   2.153
 3166SOL    HW2 2401   3.723   2.853   2.194
   4.70010   4.70010   4.70010
