; mobley_9979854_GMX.itp created by acpype (v: 2023.10.27) on Thu May 21 00:26:45 2026

[ atomtypes ]
;name   bond_type     mass     charge   ptype   sigma         epsilon       Amb
 h1       h1          0.00000  0.00000   A     2.42200e-01   8.70272e-02 ; 1.36  0.0208
 c3       c3          0.00000  0.00000   A     3.39771e-01   4.51035e-01 ; 1.91  0.1078
 f        f           0.00000  0.00000   A     3.03422e-01   3.48109e-01 ; 1.70  0.0832
 hc       hc          0.00000  0.00000   A     2.60018e-01   8.70272e-02 ; 1.46  0.0208
 oh       oh          0.00000  0.00000   A     3.24287e-01   3.89112e-01 ; 1.82  0.0930
 ho       ho          0.00000  0.00000   A     5.37925e-02   1.96648e-02 ; 0.30  0.0047

[ moleculetype ]
;name            nrexcl
 mobley_9979854   3

[ atoms ]
;   nr  type  resi  res  atom  cgnr     charge      mass       ; qtot   bond_type
     1   h1     1   MOL   H21    1     0.066700      1.00800 ; qtot 0.067
     2   c3     1   MOL    C2    2     0.127100     12.01000 ; qtot 0.194
     3   c3     1   MOL    C1    3     0.578901     12.01000 ; qtot 0.773
     4    f     1   MOL    F1    4    -0.237967     19.00000 ; qtot 0.535
     5    f     1   MOL    F2    5    -0.237967     19.00000 ; qtot 0.297
     6    f     1   MOL    F3    6    -0.237967     19.00000 ; qtot 0.059
     7   c3     1   MOL    C3    7    -0.101100     12.01000 ; qtot -0.042
     8   hc     1   MOL   H31    8     0.064700      1.00800 ; qtot 0.022
     9   hc     1   MOL   H32    9     0.064700      1.00800 ; qtot 0.087
    10   hc     1   MOL   H33   10     0.064700      1.00800 ; qtot 0.152
    11   oh     1   MOL    O1   11    -0.570800     16.00000 ; qtot -0.419
    12   ho     1   MOL   H11   12     0.419000      1.00800 ; qtot -0.000

[ bonds ]
;   ai     aj funct   r             k
     1      2   1    1.0969e-01    2.8804e+05 ;    H21 - C2    
     2      3   1    1.5354e-01    1.9154e+05 ;     C2 - C1    
     2      7   1    1.5354e-01    1.9154e+05 ;     C2 - C3    
     2     11   1    1.4242e-01    2.3861e+05 ;     C2 - O1    
     3      4   1    1.3512e-01    2.7973e+05 ;     C1 - F1    
     3      5   1    1.3512e-01    2.7973e+05 ;     C1 - F2    
     3      6   1    1.3512e-01    2.7973e+05 ;     C1 - F3    
     7      8   1    1.0962e-01    2.8891e+05 ;     C3 - H31   
     7      9   1    1.0962e-01    2.8891e+05 ;     C3 - H32   
     7     10   1    1.0962e-01    2.8891e+05 ;     C3 - H33   
    11     12   1    9.7250e-02    4.4811e+05 ;     O1 - H11   

[ pairs ]
;   ai     aj    funct
     1      4      1 ;    H21 - F1    
     1      5      1 ;    H21 - F2    
     1      6      1 ;    H21 - F3    
     1      8      1 ;    H21 - H31   
     1      9      1 ;    H21 - H32   
     1     10      1 ;    H21 - H33   
     1     12      1 ;    H21 - H11   
     3      8      1 ;     C1 - H31   
     3      9      1 ;     C1 - H32   
     3     10      1 ;     C1 - H33   
     3     12      1 ;     C1 - H11   
     4      7      1 ;     F1 - C3    
     4     11      1 ;     F1 - O1    
     5      7      1 ;     F2 - C3    
     5     11      1 ;     F2 - O1    
     6      7      1 ;     F3 - C3    
     6     11      1 ;     F3 - O1    
     7     12      1 ;     C3 - H11   
     8     11      1 ;    H31 - O1    
     9     11      1 ;    H32 - O1    
    10     11      1 ;    H33 - O1    

[ angles ]
;   ai     aj     ak    funct   theta         cth
     1      2      3      1    1.0959e+02    3.6217e+02 ;    H21 - C2     - C1    
     1      2      7      1    1.0959e+02    3.6217e+02 ;    H21 - C2     - C3    
     1      2     11      1    1.1038e+02    4.7103e+02 ;    H21 - C2     - O1    
     2      3      4      1    1.0948e+02    6.6408e+02 ;     C2 - C1     - F1    
     2      3      5      1    1.0948e+02    6.6408e+02 ;     C2 - C1     - F2    
     2      3      6      1    1.0948e+02    6.6408e+02 ;     C2 - C1     - F3    
     2      7      8      1    1.0968e+02    3.6208e+02 ;     C2 - C3     - H31   
     2      7      9      1    1.0968e+02    3.6208e+02 ;     C2 - C3     - H32   
     2      7     10      1    1.0968e+02    3.6208e+02 ;     C2 - C3     - H33   
     2     11     12      1    1.0739e+02    5.4501e+02 ;     C2 - O1     - H11   
     3      2      7      1    1.1263e+02    5.0099e+02 ;     C1 - C2     - C3    
     3      2     11      1    1.0966e+02    6.4258e+02 ;     C1 - C2     - O1    
     4      3      5      1    1.0737e+02    8.9437e+02 ;     F1 - C1     - F2    
     4      3      6      1    1.0737e+02    8.9437e+02 ;     F1 - C1     - F3    
     5      3      6      1    1.0737e+02    8.9437e+02 ;     F2 - C1     - F3    
     7      2     11      1    1.0966e+02    6.4258e+02 ;     C3 - C2     - O1    
     8      7      9      1    1.0773e+02    2.9957e+02 ;    H31 - C3     - H32   
     8      7     10      1    1.0773e+02    2.9957e+02 ;    H31 - C3     - H33   
     9      7     10      1    1.0773e+02    2.9957e+02 ;    H32 - C3     - H33   

[ dihedrals ] ; propers
; for gromacs 4.5 or higher, using funct 9
;    i      j      k      l   func   phase     kd      pn
     1      2      3      4      9     0.00   0.00000   0 ;    H21-    C2-    C1-    F1
     1      2      3      4      9     0.00   0.79496   1 ;    H21-    C2-    C1-    F1
     1      2      3      5      9     0.00   0.00000   0 ;    H21-    C2-    C1-    F2
     1      2      3      5      9     0.00   0.79496   1 ;    H21-    C2-    C1-    F2
     1      2      3      6      9     0.00   0.00000   0 ;    H21-    C2-    C1-    F3
     1      2      3      6      9     0.00   0.79496   1 ;    H21-    C2-    C1-    F3
     1      2      7      8      9     0.00   0.65084   3 ;    H21-    C2-    C3-   H31
     1      2      7      9      9     0.00   0.65084   3 ;    H21-    C2-    C3-   H32
     1      2      7     10      9     0.00   0.65084   3 ;    H21-    C2-    C3-   H33
     1      2     11     12      9     0.00   0.51463   3 ;    H21-    C2-    O1-   H11
     3      2      7      8      9     0.00   0.54392   3 ;     C1-    C2-    C3-   H31
     3      2      7      9      9     0.00   0.54392   3 ;     C1-    C2-    C3-   H32
     3      2      7     10      9     0.00   0.54392   3 ;     C1-    C2-    C3-   H33
     3      2     11     12      9     0.00   0.25104   3 ;     C1-    C2-    O1-   H11
     4      3      2      7      9     0.00   0.65084   3 ;     F1-    C1-    C2-    C3
     4      3      2     11      9     0.00   0.65084   3 ;     F1-    C1-    C2-    O1
     5      3      2      7      9     0.00   0.65084   3 ;     F2-    C1-    C2-    C3
     5      3      2     11      9     0.00   0.65084   3 ;     F2-    C1-    C2-    O1
     6      3      2      7      9     0.00   0.65084   3 ;     F3-    C1-    C2-    C3
     6      3      2     11      9     0.00   0.65084   3 ;     F3-    C1-    C2-    O1
     7      2     11     12      9     0.00   0.25104   3 ;     C3-    C2-    O1-   H11
     8      7      2     11      9     0.00   0.37656   3 ;    H31-    C3-    C2-    O1
     9      7      2     11      9     0.00   0.37656   3 ;    H32-    C3-    C2-    O1
    10      7      2     11      9     0.00   0.37656   3 ;    H33-    C3-    C2-    O1
