; mobley_2008055_GMX.itp created by acpype (v: 2023.10.27) on Thu May 21 00:06:25 2026

[ atomtypes ]
;name   bond_type     mass     charge   ptype   sigma         epsilon       Amb
 c3       c3          0.00000  0.00000   A     3.39771e-01   4.51035e-01 ; 1.91  0.1078
 hc       hc          0.00000  0.00000   A     2.60018e-01   8.70272e-02 ; 1.46  0.0208

[ moleculetype ]
;name            nrexcl
 mobley_2008055   3

[ atoms ]
;   nr  type  resi  res  atom  cgnr     charge      mass       ; qtot   bond_type
     1   c3     1   MOL    C1    1    -0.095100     12.01000 ; qtot -0.095
     2   c3     1   MOL    C2    2    -0.095100     12.01000 ; qtot -0.190
     3   hc     1   MOL    H1    3     0.031700      1.00800 ; qtot -0.158
     4   hc     1   MOL    H2    4     0.031700      1.00800 ; qtot -0.127
     5   hc     1   MOL    H3    5     0.031700      1.00800 ; qtot -0.095
     6   hc     1   MOL    H4    6     0.031700      1.00800 ; qtot -0.063
     7   hc     1   MOL    H5    7     0.031700      1.00800 ; qtot -0.032
     8   hc     1   MOL    H6    8     0.031700      1.00800 ; qtot 0.000

[ bonds ]
;   ai     aj funct   r             k
     1      2   1    1.5354e-01    1.9154e+05 ;     C1 - C2    
     1      3   1    1.0962e-01    2.8891e+05 ;     C1 - H1    
     1      4   1    1.0962e-01    2.8891e+05 ;     C1 - H2    
     1      5   1    1.0962e-01    2.8891e+05 ;     C1 - H3    
     2      6   1    1.0962e-01    2.8891e+05 ;     C2 - H4    
     2      7   1    1.0962e-01    2.8891e+05 ;     C2 - H5    
     2      8   1    1.0962e-01    2.8891e+05 ;     C2 - H6    

[ pairs ]
;   ai     aj    funct
     3      6      1 ;     H1 - H4    
     3      7      1 ;     H1 - H5    
     3      8      1 ;     H1 - H6    
     4      6      1 ;     H2 - H4    
     4      7      1 ;     H2 - H5    
     4      8      1 ;     H2 - H6    
     5      6      1 ;     H3 - H4    
     5      7      1 ;     H3 - H5    
     5      8      1 ;     H3 - H6    

[ angles ]
;   ai     aj     ak    funct   theta         cth
     1      2      6      1    1.0968e+02    3.6208e+02 ;     C1 - C2     - H4    
     1      2      7      1    1.0968e+02    3.6208e+02 ;     C1 - C2     - H5    
     1      2      8      1    1.0968e+02    3.6208e+02 ;     C1 - C2     - H6    
     2      1      3      1    1.0968e+02    3.6208e+02 ;     C2 - C1     - H1    
     2      1      4      1    1.0968e+02    3.6208e+02 ;     C2 - C1     - H2    
     2      1      5      1    1.0968e+02    3.6208e+02 ;     C2 - C1     - H3    
     3      1      4      1    1.0773e+02    2.9957e+02 ;     H1 - C1     - H2    
     3      1      5      1    1.0773e+02    2.9957e+02 ;     H1 - C1     - H3    
     4      1      5      1    1.0773e+02    2.9957e+02 ;     H2 - C1     - H3    
     6      2      7      1    1.0773e+02    2.9957e+02 ;     H4 - C2     - H5    
     6      2      8      1    1.0773e+02    2.9957e+02 ;     H4 - C2     - H6    
     7      2      8      1    1.0773e+02    2.9957e+02 ;     H5 - C2     - H6    

[ dihedrals ] ; propers
; for gromacs 4.5 or higher, using funct 9
;    i      j      k      l   func   phase     kd      pn
     3      1      2      6      9     0.00   0.50208   3 ;     H1-    C1-    C2-    H4
     3      1      2      7      9     0.00   0.50208   3 ;     H1-    C1-    C2-    H5
     3      1      2      8      9     0.00   0.50208   3 ;     H1-    C1-    C2-    H6
     4      1      2      6      9     0.00   0.50208   3 ;     H2-    C1-    C2-    H4
     4      1      2      7      9     0.00   0.50208   3 ;     H2-    C1-    C2-    H5
     4      1      2      8      9     0.00   0.50208   3 ;     H2-    C1-    C2-    H6
     5      1      2      6      9     0.00   0.50208   3 ;     H3-    C1-    C2-    H4
     5      1      2      7      9     0.00   0.50208   3 ;     H3-    C1-    C2-    H5
     5      1      2      8      9     0.00   0.50208   3 ;     H3-    C1-    C2-    H6
