mobley_8882696_GMX.gro created by acpype (v: 2023.10.27) on Thu May 21 00:07:26 2026
 2398
    1MOL     C1    1   2.168   2.254   2.122
    1MOL     C2    2   2.169   2.114   2.179
    1MOL     C3    3   2.283   2.319   2.197
    1MOL     C4    4   2.204   2.140   2.324
    1MOL     O1    5   2.288   2.256   2.326
    1MOL     H1    6   2.181   2.257   2.013
    1MOL     H2    7   2.074   2.304   2.147
    1MOL     H3    8   2.074   2.062   2.167
    1MOL     H4    9   2.248   2.055   2.131
    1MOL     H5   10   2.378   2.300   2.146
    1MOL     H6   11   2.270   2.427   2.208
    1MOL     H7   12   2.115   2.163   2.383
    1MOL     H8   13   2.256   2.056   2.370
    6SOL     OW   14   1.555   1.511   0.703
    6SOL    HW1   15   1.498   1.495   0.784
    6SOL    HW2   16   1.496   1.521   0.623
   14SOL     OW   17   1.460   1.505   1.339
   14SOL    HW1   18   1.484   1.599   1.365
   14SOL    HW2   19   1.444   1.451   1.421
   18SOL     OW   20   1.127   1.341   1.690
   18SOL    HW1   21   1.174   1.341   1.778
   18SOL    HW2   22   1.079   1.254   1.679
   31SOL     OW   23   1.293   1.228   1.423
   31SOL    HW1   24   1.330   1.155   1.365
   31SOL    HW2   25   1.345   1.233   1.508
   35SOL     OW   26   1.187   1.792   1.616
   35SOL    HW1   27   1.211   1.852   1.540
   35SOL    HW2   28   1.194   1.697   1.586
   37SOL     OW   29   1.466   1.417   0.953
   37SOL    HW1   30   1.407   1.423   1.033
   37SOL    HW2   31   1.451   1.329   0.907
   38SOL     OW   32   1.667   1.714   0.572
   38SOL    HW1   33   1.626   1.691   0.484
   38SOL    HW2   34   1.649   1.640   0.637
   50SOL     OW   35   1.719   0.585   1.831
   50SOL    HW1   36   1.693   0.674   1.795
   50SOL    HW2   37   1.717   0.517   1.758
   56SOL     OW   38   1.227   1.550   1.506
   56SOL    HW1   39   1.233   1.473   1.570
   56SOL    HW2   40   1.175   1.524   1.426
   95SOL     OW   41   1.754   1.223   1.588
   95SOL    HW1   42   1.845   1.184   1.575
   95SOL    HW2   43   1.762   1.319   1.612
   96SOL     OW   44   1.064   1.347   1.340
   96SOL    HW1   45   0.984   1.324   1.395
   96SOL    HW2   46   1.147   1.321   1.389
   97SOL     OW   47   1.592   1.629   1.625
   97SOL    HW1   48   1.619   1.663   1.535
   97SOL    HW2   49   1.671   1.591   1.671
   99SOL     OW   50   1.638   1.099   1.079
   99SOL    HW1   51   1.643   1.180   1.138
   99SOL    HW2   52   1.552   1.101   1.028
  101SOL     OW   53   0.980   1.116   1.719
  101SOL    HW1   54   0.881   1.122   1.729
  101SOL    HW2   55   1.003   1.036   1.663
  109SOL     OW   56   1.272   1.445   1.142
  109SOL    HW1   57   1.319   1.458   1.229
  109SOL    HW2   58   1.206   1.371   1.151
  113SOL     OW   59   1.587   0.779   1.670
  113SOL    HW1   60   1.495   0.817   1.665
  113SOL    HW2   61   1.647   0.826   1.605
  122SOL     OW   62   1.728   0.935   1.854
  122SOL    HW1   63   1.682   0.928   1.765
  122SOL    HW2   64   1.666   0.979   1.920
  126SOL     OW   65   0.980   1.573   1.700
  126SOL    HW1   66   0.960   1.617   1.612
  126SOL    HW2   67   1.019   1.482   1.684
  127SOL     OW   68   1.859   1.518   1.605
  127SOL    HW1   69   1.873   1.545   1.510
  127SOL    HW2   70   1.942   1.540   1.658
  142SOL     OW   71   1.369   0.950   1.660
  142SOL    HW1   72   1.408   1.039   1.680
  142SOL    HW2   73   1.379   0.930   1.563
  147SOL     OW   74   0.930   1.678   1.465
  147SOL    HW1   75   0.906   1.660   1.370
  147SOL    HW2   76   0.960   1.772   1.475
  150SOL     OW   77   1.347   1.059   1.234
  150SOL    HW1   78   1.371   0.996   1.160
  150SOL    HW2   79   1.257   1.099   1.216
  152SOL     OW   80   1.759   1.747   1.154
  152SOL    HW1   81   1.820   1.777   1.081
  152SOL    HW2   82   1.721   1.658   1.132
  153SOL     OW   83   1.252   1.731   1.128
  153SOL    HW1   84   1.336   1.736   1.074
  153SOL    HW2   85   1.229   1.635   1.146
  155SOL     OW   86   0.688   1.662   1.716
  155SOL    HW1   87   0.632   1.743   1.725
  155SOL    HW2   88   0.740   1.666   1.630
  163SOL     OW   89   1.650   1.720   1.394
  163SOL    HW1   90   1.703   1.730   1.310
  163SOL    HW2   91   1.623   1.810   1.428
  171SOL     OW   92   1.614   1.292   1.289
  171SOL    HW1   93   1.674   1.295   1.369
  171SOL    HW2   94   1.539   1.356   1.302
  180SOL     OW   95   1.440   0.856   1.398
  180SOL    HW1   96   1.383   0.908   1.335
  180SOL    HW2   97   1.536   0.868   1.374
  184SOL     OW   98   1.493   1.767   0.959
  184SOL    HW1   99   1.526   1.831   0.890
  184SOL    HW2  100   1.559   1.761   1.034
  186SOL     OW  101   1.450   1.220   1.633
  186SOL    HW1  102   1.441   1.210   1.732
  186SOL    HW2  103   1.546   1.213   1.607
  188SOL     OW  104   1.674   0.883   1.254
  188SOL    HW1  105   1.647   0.794   1.217
  188SOL    HW2  106   1.675   0.951   1.181
  192SOL     OW  107   1.730   0.934   1.517
  192SOL    HW1  108   1.768   1.025   1.532
  192SOL    HW2  109   1.722   0.917   1.418
  197SOL     OW  110   1.861   1.569   0.851
  197SOL    HW1  111   1.790   1.557   0.781
  197SOL    HW2  112   1.862   1.490   0.911
  203SOL     OW  113   1.705   1.487   1.104
  203SOL    HW1  114   1.612   1.462   1.077
  203SOL    HW2  115   1.731   1.437   1.186
  219SOL     OW  116   1.555   1.511   2.565
  219SOL    HW1  117   1.498   1.495   2.646
  219SOL    HW2  118   1.496   1.521   2.485
  221SOL     OW  119   1.755   0.607   2.093
  221SOL    HW1  120   1.743   0.594   1.994
  221SOL    HW2  121   1.725   0.526   2.142
  227SOL     OW  122   1.460   1.505   3.201
  227SOL    HW1  123   1.484   1.599   3.227
  227SOL    HW2  124   1.444   1.451   3.283
  238SOL     OW  125   1.842   1.767   2.221
  238SOL    HW1  126   1.896   1.738   2.301
  238SOL    HW2  127   1.872   1.857   2.192
  240SOL     OW  128   1.689   0.922   2.474
  240SOL    HW1  129   1.784   0.893   2.482
  240SOL    HW2  130   1.681   0.987   2.399
  241SOL     OW  131   1.641   1.108   2.294
  241SOL    HW1  132   1.727   1.110   2.242
  241SOL    HW2  133   1.655   1.155   2.382
  244SOL     OW  134   1.293   1.228   3.285
  244SOL    HW1  135   1.330   1.155   3.227
  244SOL    HW2  136   1.345   1.233   3.370
  247SOL     OW  137   1.525   0.999   2.052
  247SOL    HW1  138   1.462   0.923   2.065
  247SOL    HW2  139   1.573   1.017   2.138
  248SOL     OW  140   1.187   1.792   3.478
  248SOL    HW1  141   1.211   1.852   3.402
  248SOL    HW2  142   1.194   1.697   3.448
  250SOL     OW  143   1.466   1.417   2.815
  250SOL    HW1  144   1.407   1.423   2.895
  250SOL    HW2  145   1.451   1.329   2.769
  251SOL     OW  146   1.667   1.714   2.434
  251SOL    HW1  147   1.626   1.691   2.346
  251SOL    HW2  148   1.649   1.640   2.499
  254SOL     OW  149   1.576   1.662   2.169
  254SOL    HW1  150   1.665   1.708   2.172
  254SOL    HW2  151   1.555   1.638   2.074
  264SOL     OW  152   1.362   1.144   2.407
  264SOL    HW1  153   1.445   1.115   2.359
  264SOL    HW2  154   1.313   1.211   2.351
  266SOL     OW  155   1.008   1.456   2.339
  266SOL    HW1  156   0.962   1.528   2.287
  266SOL    HW2  157   1.004   1.476   2.437
  268SOL     OW  158   1.795   1.066   2.735
  268SOL    HW1  159   1.733   1.051   2.659
  268SOL    HW2  160   1.743   1.077   2.820
  269SOL     OW  161   1.227   1.550   3.368
  269SOL    HW1  162   1.233   1.473   3.432
  269SOL    HW2  163   1.175   1.524   3.288
  271SOL     OW  164   1.458   0.735   2.590
  271SOL    HW1  165   1.453   0.670   2.665
  271SOL    HW2  166   1.538   0.794   2.603
  273SOL     OW  167   1.111   1.776   2.099
  273SOL    HW1  168   1.051   1.714   2.149
  273SOL    HW2  169   1.142   1.732   2.014
  275SOL     OW  170   1.632   1.377   1.943
  275SOL    HW1  171   1.600   1.471   1.933
  275SOL    HW2  172   1.556   1.314   1.931
  279SOL     OW  173   0.940   1.698   2.766
  279SOL    HW1  174   1.020   1.641   2.787
  279SOL    HW2  175   0.891   1.658   2.689
  284SOL     OW  176   0.888   1.514   3.057
  284SOL    HW1  177   0.865   1.489   2.963
  284SOL    HW2  178   0.949   1.445   3.096
  286SOL     OW  179   0.803   1.402   2.786
  286SOL    HW1  180   0.893   1.416   2.744
  286SOL    HW2  181   0.732   1.404   2.715
  289SOL     OW  182   1.434   1.188   1.903
  289SOL    HW1  183   1.466   1.112   1.960
  289SOL    HW2  184   1.342   1.215   1.933
  293SOL     OW  185   1.227   1.570   2.655
  293SOL    HW1  186   1.248   1.644   2.590
  293SOL    HW2  187   1.295   1.570   2.728
  295SOL     OW  188   1.271   1.797   2.453
  295SOL    HW1  189   1.315   1.861   2.389
  295SOL    HW2  190   1.221   1.849   2.523
  301SOL     OW  191   1.429   1.173   2.729
  301SOL    HW1  192   1.374   1.089   2.722
  301SOL    HW2  193   1.455   1.202   2.637
  303SOL     OW  194   1.857   0.833   2.239
  303SOL    HW1  195   1.899   0.769   2.303
  303SOL    HW2  196   1.819   0.782   2.161
  305SOL     OW  197   1.664   1.280   2.519
  305SOL    HW1  198   1.763   1.288   2.533
  305SOL    HW2  199   1.619   1.364   2.550
  308SOL     OW  200   1.754   1.223   3.450
  308SOL    HW1  201   1.845   1.184   3.437
  308SOL    HW2  202   1.762   1.319   3.474
  309SOL     OW  203   1.064   1.347   3.202
  309SOL    HW1  204   0.984   1.324   3.257
  309SOL    HW2  205   1.147   1.321   3.251
  310SOL     OW  206   1.592   1.629   3.487
  310SOL    HW1  207   1.619   1.663   3.397
  310SOL    HW2  208   1.671   1.591   3.533
  311SOL     OW  209   1.111   1.195   2.962
  311SOL    HW1  210   1.071   1.239   3.043
  311SOL    HW2  211   1.070   1.232   2.879
  312SOL     OW  212   1.638   1.099   2.941
  312SOL    HW1  213   1.643   1.180   3.000
  312SOL    HW2  214   1.552   1.101   2.890
  321SOL     OW  215   1.252   1.348   2.250
  321SOL    HW1  216   1.302   1.425   2.290
  321SOL    HW2  217   1.157   1.350   2.282
  322SOL     OW  218   1.272   1.445   3.004
  322SOL    HW1  219   1.319   1.458   3.091
  322SOL    HW2  220   1.206   1.371   3.013
  323SOL     OW  221   1.582   0.639   2.334
  323SOL    HW1  222   1.551   0.700   2.407
  323SOL    HW2  223   1.632   0.691   2.265
  330SOL     OW  224   1.360   0.862   2.907
  330SOL    HW1  225   1.285   0.862   2.841
  330SOL    HW2  226   1.397   0.770   2.916
  340SOL     OW  227   1.859   1.518   3.467
  340SOL    HW1  228   1.873   1.545   3.372
  340SOL    HW2  229   1.942   1.540   3.520
  343SOL     OW  230   1.303   0.838   1.904
  343SOL    HW1  231   1.337   0.745   1.919
  343SOL    HW2  232   1.321   0.865   1.809
  344SOL     OW  233   1.068   1.333   2.711
  344SOL    HW1  234   1.075   1.249   2.656
  344SOL    HW2  235   1.130   1.402   2.675
  360SOL     OW  236   0.930   1.678   3.327
  360SOL    HW1  237   0.906   1.660   3.232
  360SOL    HW2  238   0.960   1.772   3.337
  363SOL     OW  239   1.347   1.059   3.096
  363SOL    HW1  240   1.371   0.996   3.022
  363SOL    HW2  241   1.257   1.099   3.078
  364SOL     OW  242   1.302   0.855   2.171
  364SOL    HW1  243   1.216   0.824   2.213
  364SOL    HW2  244   1.298   0.841   2.072
  365SOL     OW  245   1.759   1.747   3.016
  365SOL    HW1  246   1.820   1.777   2.943
  365SOL    HW2  247   1.721   1.658   2.994
  366SOL     OW  248   1.252   1.731   2.990
  366SOL    HW1  249   1.336   1.736   2.936
  366SOL    HW2  250   1.229   1.635   3.008
  370SOL     OW  251   1.388   1.573   2.339
  370SOL    HW1  252   1.455   1.585   2.265
  370SOL    HW2  253   1.348   1.662   2.362
  372SOL     OW  254   1.280   0.927   2.534
  372SOL    HW1  255   1.340   0.846   2.536
  372SOL    HW2  256   1.320   0.996   2.474
  374SOL     OW  257   0.672   1.616   2.016
  374SOL    HW1  258   0.681   1.626   1.917
  374SOL    HW2  259   0.632   1.527   2.037
  375SOL     OW  260   1.650   1.720   3.256
  375SOL    HW1  261   1.703   1.730   3.172
  375SOL    HW2  262   1.623   1.810   3.290
  378SOL     OW  263   1.194   1.612   1.893
  378SOL    HW1  264   1.200   1.519   1.930
  378SOL    HW2  265   1.135   1.612   1.813
  381SOL     OW  266   1.504   1.607   1.906
  381SOL    HW1  267   1.412   1.644   1.913
  381SOL    HW2  268   1.542   1.627   1.816
  383SOL     OW  269   1.614   1.292   3.151
  383SOL    HW1  270   1.674   1.295   3.231
  383SOL    HW2  271   1.539   1.356   3.164
  384SOL     OW  272   1.039   1.098   2.558
  384SOL    HW1  273   0.969   1.051   2.612
  384SOL    HW2  274   1.098   1.030   2.515
  386SOL     OW  275   0.590   1.487   2.353
  386SOL    HW1  276   0.632   1.429   2.283
  386SOL    HW2  277   0.546   1.566   2.309
  394SOL     OW  278   1.183   1.335   1.981
  394SOL    HW1  279   1.084   1.324   1.983
  394SOL    HW2  280   1.217   1.350   2.074
  396SOL     OW  281   1.493   1.767   2.821
  396SOL    HW1  282   1.526   1.831   2.752
  396SOL    HW2  283   1.559   1.761   2.896
  398SOL     OW  284   1.450   1.220   3.495
  398SOL    HW1  285   1.441   1.210   3.594
  398SOL    HW2  286   1.546   1.213   3.469
  400SOL     OW  287   1.674   0.883   3.116
  400SOL    HW1  288   1.647   0.794   3.079
  400SOL    HW2  289   1.675   0.951   3.043
  404SOL     OW  290   1.730   0.934   3.379
  404SOL    HW1  291   1.768   1.025   3.394
  404SOL    HW2  292   1.722   0.917   3.280
  405SOL     OW  293   0.859   1.374   1.878
  405SOL    HW1  294   0.813   1.389   1.966
  405SOL    HW2  295   0.903   1.459   1.848
  406SOL     OW  296   0.661   1.790   2.815
  406SOL    HW1  297   0.615   1.878   2.802
  406SOL    HW2  298   0.760   1.802   2.808
  408SOL     OW  299   1.083   0.984   1.949
  408SOL    HW1  300   1.060   1.037   1.867
  408SOL    HW2  301   1.164   0.928   1.930
  409SOL     OW  302   1.861   1.569   2.713
  409SOL    HW1  303   1.790   1.557   2.643
  409SOL    HW2  304   1.862   1.490   2.773
  415SOL     OW  305   1.705   1.487   2.966
  415SOL    HW1  306   1.612   1.462   2.939
  415SOL    HW2  307   1.731   1.437   3.048
  417SOL     OW  308   0.812   1.586   2.549
  417SOL    HW1  309   0.844   1.596   2.455
  417SOL    HW2  310   0.733   1.524   2.551
  420SOL     OW  311   0.770   1.330   2.163
  420SOL    HW1  312   0.724   1.243   2.180
  420SOL    HW2  313   0.861   1.327   2.204
  426SOL     OW  314   0.875   1.646   2.199
  426SOL    HW1  315   0.798   1.611   2.145
  426SOL    HW2  316   0.843   1.717   2.261
  510SOL     OW  317   0.850   2.660   1.823
  510SOL    HW1  318   0.846   2.736   1.888
  510SOL    HW2  319   0.872   2.696   1.732
  512SOL     OW  320   0.686   3.023   1.803
  512SOL    HW1  321   0.746   3.102   1.817
  512SOL    HW2  322   0.600   3.054   1.762
  514SOL     OW  323   1.460   3.367   1.339
  514SOL    HW1  324   1.484   3.461   1.365
  514SOL    HW2  325   1.444   3.313   1.421
  516SOL     OW  326   1.603   2.309   0.737
  516SOL    HW1  327   1.529   2.355   0.687
  516SOL    HW2  328   1.654   2.377   0.790
  518SOL     OW  329   1.127   3.203   1.690
  518SOL    HW1  330   1.174   3.203   1.778
  518SOL    HW2  331   1.079   3.116   1.679
  523SOL     OW  332   1.594   1.976   1.480
  523SOL    HW1  333   1.576   2.043   1.408
  523SOL    HW2  334   1.591   2.022   1.569
  527SOL     OW  335   1.689   2.784   0.612
  527SOL    HW1  336   1.784   2.755   0.620
  527SOL    HW2  337   1.681   2.849   0.537
  531SOL     OW  338   1.293   3.090   1.423
  531SOL    HW1  339   1.330   3.017   1.365
  531SOL    HW2  340   1.345   3.095   1.508
  540SOL     OW  341   1.281   2.207   0.944
  540SOL    HW1  342   1.195   2.157   0.931
  540SOL    HW2  343   1.343   2.153   1.000
  542SOL     OW  344   0.807   2.467   1.465
  542SOL    HW1  345   0.760   2.464   1.554
  542SOL    HW2  346   0.756   2.412   1.399
  543SOL     OW  347   1.394   2.331   1.674
  543SOL    HW1  348   1.374   2.374   1.762
  543SOL    HW2  349   1.472   2.269   1.683
  544SOL     OW  350   0.973   2.752   1.572
  544SOL    HW1  351   1.019   2.668   1.543
  544SOL    HW2  352   0.917   2.786   1.497
  545SOL     OW  353   0.991   2.272   1.242
  545SOL    HW1  354   0.914   2.306   1.296
  545SOL    HW2  355   0.957   2.221   1.163
  550SOL     OW  356   1.719   2.447   1.831
  550SOL    HW1  357   1.693   2.536   1.795
  550SOL    HW2  358   1.717   2.379   1.758
  555SOL     OW  359   1.795   2.928   0.873
  555SOL    HW1  360   1.733   2.913   0.797
  555SOL    HW2  361   1.743   2.939   0.958
  556SOL     OW  362   1.227   3.412   1.506
  556SOL    HW1  363   1.233   3.335   1.570
  556SOL    HW2  364   1.175   3.386   1.426
  558SOL     OW  365   1.458   2.597   0.728
  558SOL    HW1  366   1.453   2.532   0.803
  558SOL    HW2  367   1.538   2.656   0.741
  568SOL     OW  368   1.547   2.084   1.729
  568SOL    HW1  369   1.542   2.121   1.821
  568SOL    HW2  370   1.475   2.015   1.717
  570SOL     OW  371   0.781   2.126   1.749
  570SOL    HW1  372   0.848   2.065   1.792
  570SOL    HW2  373   0.708   2.145   1.814
  572SOL     OW  374   1.351   2.452   1.433
  572SOL    HW1  375   1.379   2.409   1.518
  572SOL    HW2  376   1.376   2.548   1.434
  578SOL     OW  377   1.076   2.545   1.464
  578SOL    HW1  378   0.996   2.484   1.467
  578SOL    HW2  379   1.157   2.492   1.440
  587SOL     OW  380   1.429   3.035   0.867
  587SOL    HW1  381   1.374   2.951   0.860
  587SOL    HW2  382   1.455   3.064   0.775
  588SOL     OW  383   1.466   2.452   0.992
  588SOL    HW1  384   1.436   2.357   0.999
  588SOL    HW2  385   1.539   2.468   1.058
  594SOL     OW  386   1.754   3.085   1.588
  594SOL    HW1  387   1.845   3.046   1.575
  594SOL    HW2  388   1.762   3.181   1.612
  595SOL     OW  389   1.064   3.209   1.340
  595SOL    HW1  390   0.984   3.186   1.395
  595SOL    HW2  391   1.147   3.183   1.389
  596SOL     OW  392   1.592   3.491   1.625
  596SOL    HW1  393   1.619   3.525   1.535
  596SOL    HW2  394   1.671   3.453   1.671
  597SOL     OW  395   1.111   3.057   1.100
  597SOL    HW1  396   1.071   3.101   1.181
  597SOL    HW2  397   1.070   3.094   1.017
  598SOL     OW  398   1.638   2.961   1.079
  598SOL    HW1  399   1.643   3.042   1.138
  598SOL    HW2  400   1.552   2.963   1.028
  599SOL     OW  401   0.915   1.951   1.402
  599SOL    HW1  402   0.940   1.931   1.307
  599SOL    HW2  403   0.987   2.007   1.444
  600SOL     OW  404   0.980   2.978   1.719
  600SOL    HW1  405   0.881   2.984   1.729
  600SOL    HW2  406   1.003   2.898   1.663
  603SOL     OW  407   1.274   2.248   1.262
  603SOL    HW1  408   1.295   2.322   1.326
  603SOL    HW2  409   1.185   2.265   1.219
  608SOL     OW  410   1.272   3.307   1.142
  608SOL    HW1  411   1.319   3.320   1.229
  608SOL    HW2  412   1.206   3.233   1.151
  612SOL     OW  413   1.587   2.641   1.670
  612SOL    HW1  414   1.495   2.679   1.665
  612SOL    HW2  415   1.647   2.688   1.605
  613SOL     OW  416   1.013   1.967   1.770
  613SOL    HW1  417   1.019   2.052   1.718
  613SOL    HW2  418   1.045   1.891   1.713
  614SOL     OW  419   0.504   1.912   1.740
  614SOL    HW1  420   0.462   1.855   1.670
  614SOL    HW2  421   0.438   1.981   1.772
  616SOL     OW  422   1.360   2.724   1.045
  616SOL    HW1  423   1.285   2.724   0.979
  616SOL    HW2  424   1.397   2.632   1.054
  621SOL     OW  425   1.728   2.797   1.854
  621SOL    HW1  426   1.682   2.790   1.765
  621SOL    HW2  427   1.666   2.841   1.920
  624SOL     OW  428   1.023   2.628   0.966
  624SOL    HW1  429   1.038   2.649   1.062
  624SOL    HW2  430   0.993   2.533   0.957
  626SOL     OW  431   1.859   3.380   1.605
  626SOL    HW1  432   1.873   3.407   1.510
  626SOL    HW2  433   1.942   3.402   1.658
  633SOL     OW  434   1.138   2.242   1.678
  633SOL    HW1  435   1.093   2.305   1.742
  633SOL    HW2  436   1.231   2.273   1.661
  634SOL     OW  437   1.160   2.069   1.477
  634SOL    HW1  438   1.160   2.133   1.554
  634SOL    HW2  439   1.188   2.117   1.394
  638SOL     OW  440   1.002   2.658   1.238
  638SOL    HW1  441   1.043   2.626   1.324
  638SOL    HW2  442   0.906   2.631   1.235
  641SOL     OW  443   1.369   2.812   1.660
  641SOL    HW1  444   1.408   2.901   1.680
  641SOL    HW2  445   1.379   2.792   1.563
  643SOL     OW  446   1.657   2.466   1.206
  643SOL    HW1  447   1.619   2.397   1.268
  643SOL    HW2  448   1.739   2.430   1.162
  649SOL     OW  449   1.347   2.921   1.234
  649SOL    HW1  450   1.371   2.858   1.160
  649SOL    HW2  451   1.257   2.961   1.216
  656SOL     OW  452   1.726   1.997   0.523
  656SOL    HW1  453   1.799   1.980   0.456
  656SOL    HW2  454   1.695   1.910   0.561
  662SOL     OW  455   1.650   3.582   1.394
  662SOL    HW1  456   1.703   3.592   1.310
  662SOL    HW2  457   1.623   3.672   1.428
  663SOL     OW  458   1.841   2.037   0.963
  663SOL    HW1  459   1.880   1.952   0.927
  663SOL    HW2  460   1.743   2.039   0.944
  666SOL     OW  461   0.822   2.864   1.372
  666SOL    HW1  462   0.862   2.863   1.280
  666SOL    HW2  463   0.832   2.956   1.412
  670SOL     OW  464   1.614   3.154   1.289
  670SOL    HW1  465   1.674   3.157   1.369
  670SOL    HW2  466   1.539   3.218   1.302
  672SOL     OW  467   1.014   2.098   0.971
  672SOL    HW1  468   1.006   2.062   0.878
  672SOL    HW2  469   1.012   2.022   1.036
  674SOL     OW  470   1.709   2.247   1.381
  674SOL    HW1  471   1.782   2.316   1.385
  674SOL    HW2  472   1.737   2.172   1.322
  677SOL     OW  473   0.672   2.065   1.489
  677SOL    HW1  474   0.762   2.049   1.449
  677SOL    HW2  475   0.680   2.070   1.588
  679SOL     OW  476   1.440   2.718   1.398
  679SOL    HW1  477   1.383   2.770   1.335
  679SOL    HW2  478   1.536   2.730   1.374
  684SOL     OW  479   0.716   2.427   1.708
  684SOL    HW1  480   0.735   2.492   1.782
  684SOL    HW2  481   0.776   2.347   1.717
  685SOL     OW  482   1.450   3.082   1.633
  685SOL    HW1  483   1.441   3.072   1.732
  685SOL    HW2  484   1.546   3.075   1.607
  687SOL     OW  485   1.674   2.745   1.254
  687SOL    HW1  486   1.647   2.656   1.217
  687SOL    HW2  487   1.675   2.813   1.181
  690SOL     OW  488   1.777   2.204   1.642
  690SOL    HW1  489   1.760   2.235   1.548
  690SOL    HW2  490   1.693   2.167   1.680
  691SOL     OW  491   1.730   2.796   1.517
  691SOL    HW1  492   1.768   2.887   1.532
  691SOL    HW2  493   1.722   2.779   1.418
  700SOL     OW  494   1.824   2.054   1.227
  700SOL    HW1  495   1.820   1.964   1.271
  700SOL    HW2  496   1.827   2.043   1.128
  702SOL     OW  497   1.705   3.349   1.104
  702SOL    HW1  498   1.612   3.324   1.077
  702SOL    HW2  499   1.731   3.299   1.186
  705SOL     OW  500   1.424   2.076   1.112
  705SOL    HW1  501   1.476   2.011   1.167
  705SOL    HW2  502   1.375   2.139   1.173
  706SOL     OW  503   1.001   1.896   1.154
  706SOL    HW1  504   0.938   1.824   1.123
  706SOL    HW2  505   1.094   1.860   1.154
  710SOL     OW  506   1.300   2.315   0.691
  710SOL    HW1  507   1.241   2.395   0.695
  710SOL    HW2  508   1.315   2.280   0.784
  711SOL     OW  509   1.593   2.083   0.882
  711SOL    HW1  510   1.509   2.082   0.936
  711SOL    HW2  511   1.595   2.166   0.826
  718SOL     OW  512   1.555   3.373   2.565
  718SOL    HW1  513   1.498   3.357   2.646
  718SOL    HW2  514   1.496   3.383   2.485
  719SOL     OW  515   1.135   2.565   2.579
  719SOL    HW1  516   1.192   2.643   2.554
  719SOL    HW2  517   1.075   2.591   2.655
  720SOL     OW  518   1.755   2.469   2.093
  720SOL    HW1  519   1.743   2.456   1.994
  720SOL    HW2  520   1.725   2.388   2.142
  721SOL     OW  521   0.768   3.006   2.885
  721SOL    HW1  522   0.690   3.023   2.945
  721SOL    HW2  523   0.802   3.093   2.849
  723SOL     OW  524   0.685   2.874   2.527
  723SOL    HW1  525   0.754   2.858   2.597
  723SOL    HW2  526   0.612   2.931   2.565
  726SOL     OW  527   1.460   3.367   3.201
  726SOL    HW1  528   1.484   3.461   3.227
  726SOL    HW2  529   1.444   3.313   3.283
  728SOL     OW  530   1.603   2.309   2.599
  728SOL    HW1  531   1.529   2.355   2.549
  728SOL    HW2  532   1.654   2.377   2.652
  734SOL     OW  533   0.606   2.826   1.985
  734SOL    HW1  534   0.613   2.910   1.931
  734SOL    HW2  535   0.652   2.839   2.073
  735SOL     OW  536   1.594   1.976   3.342
  735SOL    HW1  537   1.576   2.043   3.270
  735SOL    HW2  538   1.591   2.022   3.431
  737SOL     OW  539   1.842   3.629   2.221
  737SOL    HW1  540   1.896   3.600   2.301
  737SOL    HW2  541   1.872   3.719   2.192
  739SOL     OW  542   1.689   2.784   2.474
  739SOL    HW1  543   1.784   2.755   2.482
  739SOL    HW2  544   1.681   2.849   2.399
  740SOL     OW  545   1.641   2.970   2.294
  740SOL    HW1  546   1.727   2.972   2.242
  740SOL    HW2  547   1.655   3.017   2.382
  743SOL     OW  548   1.293   3.090   3.285
  743SOL    HW1  549   1.330   3.017   3.227
  743SOL    HW2  550   1.345   3.095   3.370
  744SOL     OW  551   0.809   1.866   2.364
  744SOL    HW1  552   0.849   1.957   2.355
  744SOL    HW2  553   0.709   1.874   2.370
  746SOL     OW  554   1.525   2.861   2.052
  746SOL    HW1  555   1.462   2.785   2.065
  746SOL    HW2  556   1.573   2.879   2.138
  749SOL     OW  557   1.466   3.279   2.815
  749SOL    HW1  558   1.407   3.285   2.895
  749SOL    HW2  559   1.451   3.191   2.769
  750SOL     OW  560   1.667   3.576   2.434
  750SOL    HW1  561   1.626   3.553   2.346
  750SOL    HW2  562   1.649   3.502   2.499
  751SOL     OW  563   0.598   2.591   2.132
  751SOL    HW1  564   0.622   2.660   2.064
  751SOL    HW2  565   0.520   2.624   2.186
  752SOL     OW  566   1.281   2.207   2.806
  752SOL    HW1  567   1.195   2.157   2.793
  752SOL    HW2  568   1.343   2.153   2.862
  753SOL     OW  569   1.576   3.524   2.169
  753SOL    HW1  570   1.665   3.570   2.172
  753SOL    HW2  571   1.555   3.500   2.074
  755SOL     OW  572   1.394   2.331   3.536
  755SOL    HW1  573   1.374   2.374   3.624
  755SOL    HW2  574   1.472   2.269   3.545
  757SOL     OW  575   0.991   2.272   3.104
  757SOL    HW1  576   0.914   2.306   3.158
  757SOL    HW2  577   0.957   2.221   3.025
  758SOL     OW  578   1.041   2.563   2.291
  758SOL    HW1  579   1.067   2.559   2.387
  758SOL    HW2  580   0.956   2.512   2.277
  761SOL     OW  581   0.865   2.210   2.057
  761SOL    HW1  582   0.924   2.273   2.008
  761SOL    HW2  583   0.884   2.116   2.028
  762SOL     OW  584   1.719   2.447   3.693
  762SOL    HW1  585   1.693   2.536   3.657
  762SOL    HW2  586   1.717   2.379   3.620
  763SOL     OW  587   1.362   3.006   2.407
  763SOL    HW1  588   1.445   2.977   2.359
  763SOL    HW2  589   1.313   3.073   2.351
  764SOL     OW  590   0.550   2.058   2.747
  764SOL    HW1  591   0.545   2.053   2.847
  764SOL    HW2  592   0.552   2.154   2.718
  765SOL     OW  593   1.008   3.318   2.339
  765SOL    HW1  594   0.962   3.390   2.287
  765SOL    HW2  595   1.004   3.338   2.437
  767SOL     OW  596   1.795   2.928   2.735
  767SOL    HW1  597   1.733   2.913   2.659
  767SOL    HW2  598   1.743   2.939   2.820
  770SOL     OW  599   1.458   2.597   2.590
  770SOL    HW1  600   1.453   2.532   2.665
  770SOL    HW2  601   1.538   2.656   2.603
  774SOL     OW  602   1.632   3.239   1.943
  774SOL    HW1  603   1.600   3.333   1.933
  774SOL    HW2  604   1.556   3.176   1.931
  776SOL     OW  605   1.400   1.969   2.288
  776SOL    HW1  606   1.376   1.932   2.198
  776SOL    HW2  607   1.499   1.985   2.292
  780SOL     OW  608   1.547   2.084   3.591
  780SOL    HW1  609   1.542   2.121   3.683
  780SOL    HW2  610   1.475   2.015   3.579
  781SOL     OW  611   0.614   1.984   1.979
  781SOL    HW1  612   0.712   1.962   1.986
  781SOL    HW2  613   0.583   1.967   1.886
  784SOL     OW  614   1.351   2.452   3.295
  784SOL    HW1  615   1.379   2.409   3.380
  784SOL    HW2  616   1.376   2.548   3.296
  786SOL     OW  617   0.922   2.365   2.761
  786SOL    HW1  618   0.897   2.356   2.665
  786SOL    HW2  619   0.970   2.283   2.792
  787SOL     OW  620   0.539   1.926   2.374
  787SOL    HW1  621   0.458   1.927   2.432
  787SOL    HW2  622   0.542   2.009   2.319
  788SOL     OW  623   1.434   3.050   1.903
  788SOL    HW1  624   1.466   2.974   1.960
  788SOL    HW2  625   1.342   3.077   1.933
  790SOL     OW  626   0.935   2.098   2.342
  790SOL    HW1  627   0.887   2.139   2.264
  790SOL    HW2  628   1.034   2.096   2.323
  791SOL     OW  629   1.076   2.545   3.326
  791SOL    HW1  630   0.996   2.484   3.329
  791SOL    HW2  631   1.157   2.492   3.302
  792SOL     OW  632   1.227   3.432   2.655
  792SOL    HW1  633   1.248   3.506   2.590
  792SOL    HW2  634   1.295   3.432   2.728
  794SOL     OW  635   1.271   3.659   2.453
  794SOL    HW1  636   1.315   3.723   2.389
  794SOL    HW2  637   1.221   3.711   2.523
  795SOL     OW  638   1.032   2.411   1.878
  795SOL    HW1  639   0.991   2.493   1.839
  795SOL    HW2  640   1.096   2.437   1.951
  798SOL     OW  641   0.866   2.316   2.504
  798SOL    HW1  642   0.834   2.388   2.442
  798SOL    HW2  643   0.890   2.235   2.451
  799SOL     OW  644   1.017   1.901   2.615
  799SOL    HW1  645   0.945   1.906   2.546
  799SOL    HW2  646   0.993   1.832   2.684
  800SOL     OW  647   1.429   3.035   2.729
  800SOL    HW1  648   1.374   2.951   2.722
  800SOL    HW2  649   1.455   3.064   2.637
  801SOL     OW  650   1.466   2.452   2.854
  801SOL    HW1  651   1.436   2.357   2.861
  801SOL    HW2  652   1.539   2.468   2.920
  802SOL     OW  653   1.857   2.695   2.239
  802SOL    HW1  654   1.899   2.631   2.303
  802SOL    HW2  655   1.819   2.644   2.161
  804SOL     OW  656   1.664   3.142   2.519
  804SOL    HW1  657   1.763   3.150   2.533
  804SOL    HW2  658   1.619   3.226   2.550
  805SOL     OW  659   1.390   2.437   1.940
  805SOL    HW1  660   1.336   2.416   2.021
  805SOL    HW2  661   1.481   2.396   1.949
  806SOL     OW  662   0.527   2.118   2.190
  806SOL    HW1  663   0.554   2.059   2.115
  806SOL    HW2  664   0.527   2.213   2.159
  807SOL     OW  665   1.754   3.085   3.450
  807SOL    HW1  666   1.845   3.046   3.437
  807SOL    HW2  667   1.762   3.181   3.474
  810SOL     OW  668   1.111   3.057   2.962
  810SOL    HW1  669   1.071   3.101   3.043
  810SOL    HW2  670   1.070   3.094   2.879
  811SOL     OW  671   1.638   2.961   2.941
  811SOL    HW1  672   1.643   3.042   3.000
  811SOL    HW2  673   1.552   2.963   2.890
  812SOL     OW  674   0.915   1.951   3.264
  812SOL    HW1  675   0.940   1.931   3.169
  812SOL    HW2  676   0.987   2.007   3.306
  814SOL     OW  677   0.705   2.912   2.230
  814SOL    HW1  678   0.691   2.919   2.329
  814SOL    HW2  679   0.789   2.861   2.212
  816SOL     OW  680   1.274   2.248   3.124
  816SOL    HW1  681   1.295   2.322   3.188
  816SOL    HW2  682   1.185   2.265   3.081
  819SOL     OW  683   0.566   2.399   2.727
  819SOL    HW1  684   0.578   2.465   2.653
  819SOL    HW2  685   0.612   2.433   2.810
  820SOL     OW  686   1.252   3.210   2.250
  820SOL    HW1  687   1.302   3.287   2.290
  820SOL    HW2  688   1.157   3.212   2.282
  821SOL     OW  689   1.272   3.307   3.004
  821SOL    HW1  690   1.319   3.320   3.091
  821SOL    HW2  691   1.206   3.233   3.013
  822SOL     OW  692   1.582   2.501   2.334
  822SOL    HW1  693   1.551   2.562   2.407
  822SOL    HW2  694   1.632   2.553   2.265
  825SOL     OW  695   1.587   2.641   3.532
  825SOL    HW1  696   1.495   2.679   3.527
  825SOL    HW2  697   1.647   2.688   3.467
  829SOL     OW  698   1.360   2.724   2.907
  829SOL    HW1  699   1.285   2.724   2.841
  829SOL    HW2  700   1.397   2.632   2.916
  830SOL     OW  701   1.209   2.387   2.137
  830SOL    HW1  702   1.222   2.303   2.191
  830SOL    HW2  703   1.180   2.461   2.197
  833SOL     OW  704   0.732   2.496   2.926
  833SOL    HW1  705   0.791   2.470   2.850
  833SOL    HW2  706   0.704   2.592   2.915
  834SOL     OW  707   1.728   2.797   3.716
  834SOL    HW1  708   1.682   2.790   3.627
  834SOL    HW2  709   1.666   2.841   3.782
  836SOL     OW  710   1.622   2.229   2.236
  836SOL    HW1  711   1.624   2.153   2.300
  836SOL    HW2  712   1.574   2.306   2.276
  837SOL     OW  713   1.023   2.628   2.828
  837SOL    HW1  714   1.038   2.649   2.924
  837SOL    HW2  715   0.993   2.533   2.819
  839SOL     OW  716   1.859   3.380   3.467
  839SOL    HW1  717   1.873   3.407   3.372
  839SOL    HW2  718   1.942   3.402   3.520
  841SOL     OW  719   1.540   2.136   1.987
  841SOL    HW1  720   1.479   2.061   2.010
  841SOL    HW2  721   1.562   2.188   2.070
  842SOL     OW  722   1.303   2.700   1.904
  842SOL    HW1  723   1.337   2.607   1.919
  842SOL    HW2  724   1.321   2.727   1.809
  843SOL     OW  725   1.068   3.195   2.711
  843SOL    HW1  726   1.075   3.111   2.656
  843SOL    HW2  727   1.130   3.264   2.675
  846SOL     OW  728   1.138   2.242   3.540
  846SOL    HW1  729   1.093   2.305   3.604
  846SOL    HW2  730   1.231   2.273   3.523
  847SOL     OW  731   1.160   2.069   3.339
  847SOL    HW1  732   1.160   2.133   3.416
  847SOL    HW2  733   1.188   2.117   3.256
  851SOL     OW  734   1.002   2.658   3.100
  851SOL    HW1  735   1.043   2.626   3.186
  851SOL    HW2  736   0.906   2.631   3.097
  854SOL     OW  737   1.369   2.812   3.522
  854SOL    HW1  738   1.408   2.901   3.542
  854SOL    HW2  739   1.379   2.792   3.425
  855SOL     OW  740   0.815   2.434   2.187
  855SOL    HW1  741   0.822   2.345   2.141
  855SOL    HW2  742   0.721   2.468   2.179
  856SOL     OW  743   1.657   2.466   3.068
  856SOL    HW1  744   1.619   2.397   3.130
  856SOL    HW2  745   1.739   2.430   3.024
  858SOL     OW  746   0.671   2.326   3.131
  858SOL    HW1  747   0.637   2.237   3.101
  858SOL    HW2  748   0.697   2.380   3.051
  860SOL     OW  749   0.473   2.362   2.053
  860SOL    HW1  750   0.534   2.442   2.057
  860SOL    HW2  751   0.378   2.393   2.060
  862SOL     OW  752   1.347   2.921   3.096
  862SOL    HW1  753   1.371   2.858   3.022
  862SOL    HW2  754   1.257   2.961   3.078
  863SOL     OW  755   1.302   2.717   2.171
  863SOL    HW1  756   1.216   2.686   2.213
  863SOL    HW2  757   1.298   2.703   2.072
  864SOL     OW  758   1.759   3.609   3.016
  864SOL    HW1  759   1.820   3.639   2.943
  864SOL    HW2  760   1.721   3.520   2.994
  868SOL     OW  761   1.726   1.997   2.385
  868SOL    HW1  762   1.799   1.980   2.318
  868SOL    HW2  763   1.695   1.910   2.423
  869SOL     OW  764   1.388   3.435   2.339
  869SOL    HW1  765   1.455   3.447   2.265
  869SOL    HW2  766   1.348   3.524   2.362
  871SOL     OW  767   1.280   2.789   2.534
  871SOL    HW1  768   1.340   2.708   2.536
  871SOL    HW2  769   1.320   2.858   2.474
  875SOL     OW  770   1.841   2.037   2.825
  875SOL    HW1  771   1.880   1.952   2.789
  875SOL    HW2  772   1.743   2.039   2.806
  877SOL     OW  773   1.194   3.474   1.893
  877SOL    HW1  774   1.200   3.381   1.930
  877SOL    HW2  775   1.135   3.474   1.813
  879SOL     OW  776   0.916   2.772   2.153
  879SOL    HW1  777   0.979   2.810   2.085
  879SOL    HW2  778   0.956   2.689   2.192
  880SOL     OW  779   1.504   3.469   1.906
  880SOL    HW1  780   1.412   3.506   1.913
  880SOL    HW2  781   1.542   3.489   1.816
  882SOL     OW  782   1.614   3.154   3.151
  882SOL    HW1  783   1.674   3.157   3.231
  882SOL    HW2  784   1.539   3.218   3.164
  883SOL     OW  785   1.039   2.960   2.558
  883SOL    HW1  786   0.969   2.913   2.612
  883SOL    HW2  787   1.098   2.892   2.515
  884SOL     OW  788   1.014   2.098   2.833
  884SOL    HW1  789   1.006   2.062   2.740
  884SOL    HW2  790   1.012   2.022   2.898
  886SOL     OW  791   1.709   2.247   3.243
  886SOL    HW1  792   1.782   2.316   3.247
  886SOL    HW2  793   1.737   2.172   3.184
  891SOL     OW  794   1.440   2.718   3.260
  891SOL    HW1  795   1.383   2.770   3.197
  891SOL    HW2  796   1.536   2.730   3.236
  893SOL     OW  797   1.183   3.197   1.981
  893SOL    HW1  798   1.084   3.186   1.983
  893SOL    HW2  799   1.217   3.212   2.074
  895SOL     OW  800   1.493   3.629   2.821
  895SOL    HW1  801   1.526   3.693   2.752
  895SOL    HW2  802   1.559   3.623   2.896
  897SOL     OW  803   1.450   3.082   3.495
  897SOL    HW1  804   1.441   3.072   3.594
  897SOL    HW2  805   1.546   3.075   3.469
  899SOL     OW  806   1.674   2.745   3.116
  899SOL    HW1  807   1.647   2.656   3.079
  899SOL    HW2  808   1.675   2.813   3.043
  900SOL     OW  809   1.225   2.187   2.311
  900SOL    HW1  810   1.290   2.113   2.300
  900SOL    HW2  811   1.245   2.237   2.395
  901SOL     OW  812   0.594   2.607   2.514
  901SOL    HW1  813   0.644   2.692   2.495
  901SOL    HW2  814   0.506   2.609   2.466
  902SOL     OW  815   1.777   2.204   3.504
  902SOL    HW1  816   1.760   2.235   3.410
  902SOL    HW2  817   1.693   2.167   3.542
  903SOL     OW  818   1.730   2.796   3.379
  903SOL    HW1  819   1.768   2.887   3.394
  903SOL    HW2  820   1.722   2.779   3.280
  904SOL     OW  821   0.859   3.236   1.878
  904SOL    HW1  822   0.813   3.251   1.966
  904SOL    HW2  823   0.903   3.321   1.848
  906SOL     OW  824   0.859   2.818   2.723
  906SOL    HW1  825   0.913   2.749   2.771
  906SOL    HW2  826   0.827   2.887   2.789
  907SOL     OW  827   1.083   2.846   1.949
  907SOL    HW1  828   1.060   2.899   1.867
  907SOL    HW2  829   1.164   2.790   1.930
  908SOL     OW  830   1.861   3.431   2.713
  908SOL    HW1  831   1.790   3.419   2.643
  908SOL    HW2  832   1.862   3.352   2.773
  912SOL     OW  833   1.824   2.054   3.089
  912SOL    HW1  834   1.820   1.964   3.133
  912SOL    HW2  835   1.827   2.043   2.990
  913SOL     OW  836   0.428   2.286   2.382
  913SOL    HW1  837   0.458   2.214   2.320
  913SOL    HW2  838   0.389   2.246   2.465
  914SOL     OW  839   1.705   3.349   2.966
  914SOL    HW1  840   1.612   3.324   2.939
  914SOL    HW2  841   1.731   3.299   3.048
  917SOL     OW  842   1.424   2.076   2.974
  917SOL    HW1  843   1.476   2.011   3.029
  917SOL    HW2  844   1.375   2.139   3.035
  918SOL     OW  845   1.001   1.896   3.016
  918SOL    HW1  846   0.938   1.824   2.985
  918SOL    HW2  847   1.094   1.860   3.016
  919SOL     OW  848   0.770   3.192   2.163
  919SOL    HW1  849   0.724   3.105   2.180
  919SOL    HW2  850   0.861   3.189   2.204
  921SOL     OW  851   1.352   1.914   2.030
  921SOL    HW1  852   1.387   1.873   1.946
  921SOL    HW2  853   1.262   1.876   2.050
  922SOL     OW  854   1.300   2.315   2.553
  922SOL    HW1  855   1.241   2.395   2.557
  922SOL    HW2  856   1.315   2.280   2.646
  923SOL     OW  857   1.593   2.083   2.744
  923SOL    HW1  858   1.509   2.082   2.798
  923SOL    HW2  859   1.595   2.166   2.688
  973SOL     OW  860   1.540   2.136   3.849
  973SOL    HW1  861   1.479   2.061   3.872
  973SOL    HW2  862   1.562   2.188   3.932
 1136SOL     OW  863   1.726   3.859   2.385
 1136SOL    HW1  864   1.799   3.842   2.318
 1136SOL    HW2  865   1.695   3.772   2.423
 1153SOL     OW  866   1.352   3.776   2.030
 1153SOL    HW1  867   1.387   3.735   1.946
 1153SOL    HW2  868   1.262   3.738   2.050
 1188SOL     OW  869   2.431   1.275   1.165
 1188SOL    HW1  870   2.338   1.268   1.128
 1188SOL    HW2  871   2.442   1.364   1.209
 1192SOL     OW  872   2.630   1.144   1.023
 1192SOL    HW1  873   2.552   1.161   1.083
 1192SOL    HW2  874   2.664   1.231   0.987
 1193SOL     OW  875   2.712   0.798   1.823
 1193SOL    HW1  876   2.708   0.874   1.888
 1193SOL    HW2  877   2.734   0.834   1.732
 1195SOL     OW  878   2.548   1.161   1.803
 1195SOL    HW1  879   2.608   1.240   1.817
 1195SOL    HW2  880   2.462   1.192   1.762
 1196SOL     OW  881   2.197   1.435   1.061
 1196SOL    HW1  882   2.119   1.404   1.008
 1196SOL    HW2  883   2.255   1.493   1.004
 1197SOL     OW  884   3.322   1.505   1.339
 1197SOL    HW1  885   3.346   1.599   1.365
 1197SOL    HW2  886   3.306   1.451   1.421
 1200SOL     OW  887   2.093   1.713   0.483
 1200SOL    HW1  888   2.127   1.790   0.537
 1200SOL    HW2  889   2.137   1.713   0.393
 1201SOL     OW  890   2.989   1.341   1.690
 1201SOL    HW1  891   3.036   1.341   1.778
 1201SOL    HW2  892   2.941   1.254   1.679
 1203SOL     OW  893   2.102   1.091   0.886
 1203SOL    HW1  894   2.116   1.007   0.938
 1203SOL    HW2  895   2.047   1.155   0.941
 1204SOL     OW  896   2.482   1.786   1.439
 1204SOL    HW1  897   2.390   1.769   1.474
 1204SOL    HW2  898   2.510   1.878   1.465
 1212SOL     OW  899   1.975   0.737   1.597
 1212SOL    HW1  900   2.063   0.724   1.642
 1212SOL    HW2  901   1.962   0.834   1.575
 1213SOL     OW  902   2.475   1.365   0.726
 1213SOL    HW1  903   2.426   1.278   0.735
 1213SOL    HW2  904   2.452   1.408   0.639
 1214SOL     OW  905   3.155   1.228   1.423
 1214SOL    HW1  906   3.192   1.155   1.365
 1214SOL    HW2  907   3.207   1.233   1.508
 1216SOL     OW  908   2.059   0.976   1.264
 1216SOL    HW1  909   2.148   0.931   1.250
 1216SOL    HW2  910   1.986   0.911   1.245
 1218SOL     OW  911   3.049   1.792   1.616
 1218SOL    HW1  912   3.073   1.852   1.540
 1218SOL    HW2  913   3.056   1.697   1.586
 1227SOL     OW  914   2.835   0.890   1.572
 1227SOL    HW1  915   2.881   0.806   1.543
 1227SOL    HW2  916   2.779   0.924   1.497
 1231SOL     OW  917   1.992   1.821   1.571
 1231SOL    HW1  918   1.982   1.806   1.670
 1231SOL    HW2  919   1.906   1.857   1.535
 1237SOL     OW  920   2.213   1.801   0.853
 1237SOL    HW1  921   2.263   1.715   0.859
 1237SOL    HW2  922   2.278   1.878   0.850
 1239SOL     OW  923   3.089   1.550   1.506
 1239SOL    HW1  924   3.095   1.473   1.570
 1239SOL    HW2  925   3.037   1.524   1.426
 1242SOL     OW  926   2.323   1.266   1.727
 1242SOL    HW1  927   2.273   1.267   1.641
 1242SOL    HW2  928   2.260   1.248   1.803
 1248SOL     OW  929   2.111   1.785   1.241
 1248SOL    HW1  930   2.168   1.720   1.291
 1248SOL    HW2  931   2.095   1.752   1.148
 1249SOL     OW  932   2.802   1.698   0.904
 1249SOL    HW1  933   2.882   1.641   0.925
 1249SOL    HW2  934   2.753   1.658   0.827
 1254SOL     OW  935   2.750   1.514   1.195
 1254SOL    HW1  936   2.727   1.489   1.101
 1254SOL    HW2  937   2.811   1.445   1.234
 1256SOL     OW  938   2.665   1.402   0.924
 1256SOL    HW1  939   2.755   1.416   0.882
 1256SOL    HW2  940   2.594   1.404   0.853
 1263SOL     OW  941   3.089   1.570   0.793
 1263SOL    HW1  942   3.110   1.644   0.728
 1263SOL    HW2  943   3.157   1.570   0.866
 1279SOL     OW  944   2.926   1.347   1.340
 1279SOL    HW1  945   2.846   1.324   1.395
 1279SOL    HW2  946   3.009   1.321   1.389
 1280SOL     OW  947   3.454   1.629   1.625
 1280SOL    HW1  948   3.481   1.663   1.535
 1280SOL    HW2  949   3.533   1.591   1.671
 1281SOL     OW  950   2.973   1.195   1.100
 1281SOL    HW1  951   2.933   1.239   1.181
 1281SOL    HW2  952   2.932   1.232   1.017
 1284SOL     OW  953   2.842   1.116   1.719
 1284SOL    HW1  954   2.743   1.122   1.729
 1284SOL    HW2  955   2.865   1.036   1.663
 1286SOL     OW  956   2.272   0.813   1.251
 1286SOL    HW1  957   2.358   0.825   1.301
 1286SOL    HW2  958   2.230   0.726   1.278
 1288SOL     OW  959   1.926   1.564   1.331
 1288SOL    HW1  960   1.880   1.646   1.297
 1288SOL    HW2  961   2.024   1.583   1.340
 1292SOL     OW  962   3.134   1.445   1.142
 1292SOL    HW1  963   3.181   1.458   1.229
 1292SOL    HW2  964   3.068   1.371   1.151
 1294SOL     OW  965   2.216   1.510   1.329
 1294SOL    HW1  966   2.195   1.466   1.242
 1294SOL    HW2  967   2.313   1.536   1.332
 1295SOL     OW  968   2.264   0.751   1.598
 1295SOL    HW1  969   2.332   0.806   1.551
 1295SOL    HW2  970   2.304   0.663   1.625
 1299SOL     OW  971   2.435   0.870   1.029
 1299SOL    HW1  972   2.479   0.959   1.020
 1299SOL    HW2  973   2.372   0.870   1.106
 1303SOL     OW  974   1.899   1.310   1.282
 1303SOL    HW1  975   1.952   1.261   1.350
 1303SOL    HW2  976   1.921   1.408   1.287
 1309SOL     OW  977   2.842   1.573   1.700
 1309SOL    HW1  978   2.822   1.617   1.612
 1309SOL    HW2  979   2.881   1.482   1.684
 1310SOL     OW  980   3.721   1.518   1.605
 1310SOL    HW1  981   3.735   1.545   1.510
 1310SOL    HW2  982   3.804   1.540   1.658
 1311SOL     OW  983   2.212   0.898   1.804
 1311SOL    HW1  984   2.288   0.942   1.852
 1311SOL    HW2  985   2.247   0.851   1.722
 1314SOL     OW  986   2.930   1.333   0.849
 1314SOL    HW1  987   2.937   1.249   0.794
 1314SOL    HW2  988   2.992   1.402   0.813
 1320SOL     OW  989   1.950   1.801   0.927
 1320SOL    HW1  990   1.908   1.715   0.900
 1320SOL    HW2  991   2.044   1.804   0.893
 1321SOL     OW  992   2.366   1.568   0.910
 1321SOL    HW1  993   2.432   1.642   0.919
 1321SOL    HW2  994   2.410   1.489   0.868
 1324SOL     OW  995   2.051   0.520   1.722
 1324SOL    HW1  996   2.110   0.480   1.652
 1324SOL    HW2  997   1.993   0.591   1.681
 1325SOL     OW  998   3.231   0.950   1.660
 1325SOL    HW1  999   3.270   1.039   1.680
 1325SOL    HW2 1000   3.241   0.930   1.563
 1328SOL     OW 1001   2.114   1.564   1.744
 1328SOL    HW1 1002   2.084   1.621   1.820
 1328SOL    HW2 1003   2.107   1.467   1.770
 1330SOL     OW 1004   2.792   1.678   1.465
 1330SOL    HW1 1005   2.768   1.660   1.370
 1330SOL    HW2 1006   2.822   1.772   1.475
 1332SOL     OW 1007   2.021   1.137   1.466
 1332SOL    HW1 1008   2.043   1.076   1.542
 1332SOL    HW2 1009   2.031   1.088   1.380
 1336SOL     OW 1010   3.114   1.731   1.128
 1336SOL    HW1 1011   3.198   1.736   1.074
 1336SOL    HW2 1012   3.091   1.635   1.146
 1337SOL     OW 1013   1.945   1.258   1.022
 1337SOL    HW1 1014   1.940   1.257   1.122
 1337SOL    HW2 1015   1.862   1.217   0.984
 1338SOL     OW 1016   2.550   1.662   1.716
 1338SOL    HW1 1017   2.494   1.743   1.725
 1338SOL    HW2 1018   2.602   1.666   1.630
 1342SOL     OW 1019   1.992   1.794   1.851
 1342SOL    HW1 1020   1.951   1.720   1.904
 1342SOL    HW2 1021   2.056   1.845   1.909
 1344SOL     OW 1022   2.692   1.273   1.422
 1344SOL    HW1 1023   2.687   1.306   1.517
 1344SOL    HW2 1024   2.606   1.292   1.376
 1346SOL     OW 1025   3.512   1.720   1.394
 1346SOL    HW1 1026   3.565   1.730   1.310
 1346SOL    HW2 1027   3.485   1.810   1.428
 1350SOL     OW 1028   2.684   1.002   1.372
 1350SOL    HW1 1029   2.724   1.001   1.280
 1350SOL    HW2 1030   2.694   1.094   1.412
 1353SOL     OW 1031   2.234   1.288   1.490
 1353SOL    HW1 1032   2.221   1.381   1.456
 1353SOL    HW2 1033   2.150   1.236   1.477
 1360SOL     OW 1034   1.967   1.013   1.726
 1360SOL    HW1 1035   1.890   0.980   1.780
 1360SOL    HW2 1036   2.052   0.983   1.768
 1365SOL     OW 1037   2.475   0.842   1.431
 1365SOL    HW1 1038   2.531   0.923   1.414
 1365SOL    HW2 1039   2.534   0.762   1.434
 1366SOL     OW 1040   3.355   1.767   0.959
 1366SOL    HW1 1041   3.388   1.831   0.890
 1366SOL    HW2 1042   3.421   1.761   1.034
 1367SOL     OW 1043   2.578   0.565   1.708
 1367SOL    HW1 1044   2.597   0.630   1.782
 1367SOL    HW2 1045   2.638   0.485   1.717
 1368SOL     OW 1046   3.312   1.220   1.633
 1368SOL    HW1 1047   3.303   1.210   1.732
 1368SOL    HW2 1048   3.408   1.213   1.607
 1369SOL     OW 1049   2.252   1.741   1.560
 1369SOL    HW1 1050   2.161   1.782   1.558
 1369SOL    HW2 1051   2.245   1.647   1.592
 1376SOL     OW 1052   2.523   1.790   0.953
 1376SOL    HW1 1053   2.477   1.878   0.940
 1376SOL    HW2 1054   2.622   1.802   0.946
 1380SOL     OW 1055   2.083   1.314   1.844
 1380SOL    HW1 1056   2.018   1.241   1.823
 1380SOL    HW2 1057   2.087   1.328   1.942
 1382SOL     OW 1058   2.534   1.391   1.624
 1382SOL    HW1 1059   2.456   1.341   1.662
 1382SOL    HW2 1060   2.531   1.486   1.655
 1387SOL     OW 1061   2.674   1.586   0.687
 1387SOL    HW1 1062   2.706   1.596   0.593
 1387SOL    HW2 1063   2.595   1.524   0.689
 1391SOL     OW 1064   2.480   1.567   1.284
 1391SOL    HW1 1065   2.475   1.649   1.341
 1391SOL    HW2 1066   2.569   1.564   1.239
 1397SOL     OW 1067   2.092   0.628   1.975
 1397SOL    HW1 1068   1.999   0.626   2.012
 1397SOL    HW2 1069   2.093   0.589   1.883
 1400SOL     OW 1070   2.431   1.275   3.027
 1400SOL    HW1 1071   2.338   1.268   2.990
 1400SOL    HW2 1072   2.442   1.364   3.071
 1401SOL     OW 1073   3.417   1.511   2.565
 1401SOL    HW1 1074   3.360   1.495   2.646
 1401SOL    HW2 1075   3.358   1.521   2.485
 1402SOL     OW 1076   2.997   0.703   2.579
 1402SOL    HW1 1077   3.054   0.781   2.554
 1402SOL    HW2 1078   2.937   0.729   2.655
 1404SOL     OW 1079   2.630   1.144   2.885
 1404SOL    HW1 1080   2.552   1.161   2.945
 1404SOL    HW2 1081   2.664   1.231   2.849
 1406SOL     OW 1082   2.547   1.012   2.527
 1406SOL    HW1 1083   2.616   0.996   2.597
 1406SOL    HW2 1084   2.474   1.069   2.565
 1408SOL     OW 1085   2.197   1.435   2.923
 1408SOL    HW1 1086   2.119   1.404   2.870
 1408SOL    HW2 1087   2.255   1.493   2.866
 1409SOL     OW 1088   3.322   1.505   3.201
 1409SOL    HW1 1089   3.346   1.599   3.227
 1409SOL    HW2 1090   3.306   1.451   3.283
 1412SOL     OW 1091   2.093   1.713   2.345
 1412SOL    HW1 1092   2.127   1.790   2.399
 1412SOL    HW2 1093   2.137   1.713   2.255
 1413SOL     OW 1094   2.989   1.341   3.552
 1413SOL    HW1 1095   3.036   1.341   3.640
 1413SOL    HW2 1096   2.941   1.254   3.541
 1414SOL     OW 1097   2.092   1.434   2.400
 1414SOL    HW1 1098   2.066   1.530   2.400
 1414SOL    HW2 1099   2.021   1.380   2.445
 1415SOL     OW 1100   2.102   1.091   2.748
 1415SOL    HW1 1101   2.116   1.007   2.800
 1415SOL    HW2 1102   2.047   1.155   2.803
 1416SOL     OW 1103   2.482   1.786   3.301
 1416SOL    HW1 1104   2.390   1.769   3.336
 1416SOL    HW2 1105   2.510   1.878   3.327
 1417SOL     OW 1106   2.468   0.964   1.985
 1417SOL    HW1 1107   2.475   1.048   1.931
 1417SOL    HW2 1108   2.514   0.977   2.073
 1419SOL     OW 1109   1.984   0.643   2.425
 1419SOL    HW1 1110   1.939   0.555   2.442
 1419SOL    HW2 1111   1.983   0.697   2.509
 1420SOL     OW 1112   3.704   1.767   2.221
 1420SOL    HW1 1113   3.758   1.738   2.301
 1420SOL    HW2 1114   3.734   1.857   2.192
 1421SOL     OW 1115   1.889   1.596   1.979
 1421SOL    HW1 1116   1.870   1.500   2.000
 1421SOL    HW2 1117   1.856   1.654   2.054
 1423SOL     OW 1118   3.503   1.108   2.294
 1423SOL    HW1 1119   3.589   1.110   2.242
 1423SOL    HW2 1120   3.517   1.155   2.382
 1425SOL     OW 1121   2.475   1.365   2.588
 1425SOL    HW1 1122   2.426   1.278   2.597
 1425SOL    HW2 1123   2.452   1.408   2.501
 1426SOL     OW 1124   3.155   1.228   3.285
 1426SOL    HW1 1125   3.192   1.155   3.227
 1426SOL    HW2 1126   3.207   1.233   3.370
 1428SOL     OW 1127   2.059   0.976   3.126
 1428SOL    HW1 1128   2.148   0.931   3.112
 1428SOL    HW2 1129   1.986   0.911   3.107
 1429SOL     OW 1130   3.387   0.999   2.052
 1429SOL    HW1 1131   3.324   0.923   2.065
 1429SOL    HW2 1132   3.435   1.017   2.138
 1430SOL     OW 1133   3.049   1.792   3.478
 1430SOL    HW1 1134   3.073   1.852   3.402
 1430SOL    HW2 1135   3.056   1.697   3.448
 1432SOL     OW 1136   3.328   1.417   2.815
 1432SOL    HW1 1137   3.269   1.423   2.895
 1432SOL    HW2 1138   3.313   1.329   2.769
 1433SOL     OW 1139   3.529   1.714   2.434
 1433SOL    HW1 1140   3.488   1.691   2.346
 1433SOL    HW2 1141   3.511   1.640   2.499
 1434SOL     OW 1142   2.460   0.729   2.132
 1434SOL    HW1 1143   2.484   0.798   2.064
 1434SOL    HW2 1144   2.382   0.762   2.186
 1436SOL     OW 1145   3.438   1.662   2.169
 1436SOL    HW1 1146   3.527   1.708   2.172
 1436SOL    HW2 1147   3.417   1.638   2.074
 1441SOL     OW 1148   2.903   0.701   2.291
 1441SOL    HW1 1149   2.929   0.697   2.387
 1441SOL    HW2 1150   2.818   0.650   2.277
 1442SOL     OW 1151   1.938   0.811   2.651
 1442SOL    HW1 1152   2.037   0.799   2.660
 1442SOL    HW2 1153   1.914   0.906   2.672
 1443SOL     OW 1154   1.992   1.821   3.433
 1443SOL    HW1 1155   1.982   1.806   3.532
 1443SOL    HW2 1156   1.906   1.857   3.397
 1446SOL     OW 1157   3.224   1.144   2.407
 1446SOL    HW1 1158   3.307   1.115   2.359
 1446SOL    HW2 1159   3.175   1.211   2.351
 1448SOL     OW 1160   2.870   1.456   2.339
 1448SOL    HW1 1161   2.824   1.528   2.287
 1448SOL    HW2 1162   2.866   1.476   2.437
 1449SOL     OW 1163   2.213   1.801   2.715
 1449SOL    HW1 1164   2.263   1.715   2.721
 1449SOL    HW2 1165   2.278   1.878   2.712
 1451SOL     OW 1166   3.089   1.550   3.368
 1451SOL    HW1 1167   3.095   1.473   3.432
 1451SOL    HW2 1168   3.037   1.524   3.288
 1452SOL     OW 1169   2.183   0.943   2.104
 1452SOL    HW1 1170   2.265   0.982   2.062
 1452SOL    HW2 1171   2.156   0.861   2.055
 1454SOL     OW 1172   2.323   1.266   3.589
 1454SOL    HW1 1173   2.273   1.267   3.503
 1454SOL    HW2 1174   2.260   1.248   3.665
 1455SOL     OW 1175   2.973   1.776   2.099
 1455SOL    HW1 1176   2.913   1.714   2.149
 1455SOL    HW2 1177   3.004   1.732   2.014
 1457SOL     OW 1178   3.494   1.377   1.943
 1457SOL    HW1 1179   3.462   1.471   1.933
 1457SOL    HW2 1180   3.418   1.314   1.931
 1458SOL     OW 1181   2.326   1.743   2.185
 1458SOL    HW1 1182   2.359   1.782   2.271
 1458SOL    HW2 1183   2.402   1.736   2.120
 1460SOL     OW 1184   2.111   1.785   3.103
 1460SOL    HW1 1185   2.168   1.720   3.153
 1460SOL    HW2 1186   2.095   1.752   3.010
 1461SOL     OW 1187   2.802   1.698   2.766
 1461SOL    HW1 1188   2.882   1.641   2.787
 1461SOL    HW2 1189   2.753   1.658   2.689
 1462SOL     OW 1190   2.244   0.700   2.342
 1462SOL    HW1 1191   2.289   0.610   2.339
 1462SOL    HW2 1192   2.150   0.689   2.375
 1466SOL     OW 1193   2.750   1.514   3.057
 1466SOL    HW1 1194   2.727   1.489   2.963
 1466SOL    HW2 1195   2.811   1.445   3.096
 1468SOL     OW 1196   2.665   1.402   2.786
 1468SOL    HW1 1197   2.755   1.416   2.744
 1468SOL    HW2 1198   2.594   1.404   2.715
 1471SOL     OW 1199   3.296   1.188   1.903
 1471SOL    HW1 1200   3.328   1.112   1.960
 1471SOL    HW2 1201   3.204   1.215   1.933
 1475SOL     OW 1202   3.089   1.570   2.655
 1475SOL    HW1 1203   3.110   1.644   2.590
 1475SOL    HW2 1204   3.157   1.570   2.728
 1476SOL     OW 1205   2.321   1.152   2.603
 1476SOL    HW1 1206   2.250   1.125   2.668
 1476SOL    HW2 1207   2.295   1.124   2.510
 1477SOL     OW 1208   3.133   1.797   2.453
 1477SOL    HW1 1209   3.177   1.861   2.389
 1477SOL    HW2 1210   3.083   1.849   2.523
 1483SOL     OW 1211   3.291   1.173   2.729
 1483SOL    HW1 1212   3.236   1.089   2.722
 1483SOL    HW2 1213   3.317   1.202   2.637
 1486SOL     OW 1214   2.350   1.385   2.036
 1486SOL    HW1 1215   2.263   1.370   2.083
 1486SOL    HW2 1216   2.333   1.411   1.941
 1487SOL     OW 1217   3.526   1.280   2.519
 1487SOL    HW1 1218   3.625   1.288   2.533
 1487SOL    HW2 1219   3.481   1.364   2.550
 1491SOL     OW 1220   2.926   1.347   3.202
 1491SOL    HW1 1221   2.846   1.324   3.257
 1491SOL    HW2 1222   3.009   1.321   3.251
 1493SOL     OW 1223   2.973   1.195   2.962
 1493SOL    HW1 1224   2.933   1.239   3.043
 1493SOL    HW2 1225   2.932   1.232   2.879
 1497SOL     OW 1226   2.567   1.050   2.230
 1497SOL    HW1 1227   2.553   1.057   2.329
 1497SOL    HW2 1228   2.651   0.999   2.212
 1498SOL     OW 1229   2.272   0.813   3.113
 1498SOL    HW1 1230   2.358   0.825   3.163
 1498SOL    HW2 1231   2.230   0.726   3.140
 1500SOL     OW 1232   1.926   1.564   3.193
 1500SOL    HW1 1233   1.880   1.646   3.159
 1500SOL    HW2 1234   2.024   1.583   3.202
 1501SOL     OW 1235   2.229   1.100   2.363
 1501SOL    HW1 1236   2.222   1.183   2.307
 1501SOL    HW2 1237   2.233   1.020   2.303
 1502SOL     OW 1238   2.428   0.537   2.727
 1502SOL    HW1 1239   2.440   0.603   2.653
 1502SOL    HW2 1240   2.474   0.571   2.810
 1503SOL     OW 1241   3.114   1.348   2.250
 1503SOL    HW1 1242   3.164   1.425   2.290
 1503SOL    HW2 1243   3.019   1.350   2.282
 1504SOL     OW 1244   3.134   1.445   3.004
 1504SOL    HW1 1245   3.181   1.458   3.091
 1504SOL    HW2 1246   3.068   1.371   3.013
 1506SOL     OW 1247   2.216   1.510   3.191
 1506SOL    HW1 1248   2.195   1.466   3.104
 1506SOL    HW2 1249   2.313   1.536   3.194
 1511SOL     OW 1250   2.435   0.870   2.891
 1511SOL    HW1 1251   2.479   0.959   2.882
 1511SOL    HW2 1252   2.372   0.870   2.968
 1515SOL     OW 1253   1.899   1.310   3.144
 1515SOL    HW1 1254   1.952   1.261   3.212
 1515SOL    HW2 1255   1.921   1.408   3.149
 1516SOL     OW 1256   2.594   0.634   2.926
 1516SOL    HW1 1257   2.653   0.608   2.850
 1516SOL    HW2 1258   2.566   0.730   2.915
 1520SOL     OW 1259   2.885   0.766   2.828
 1520SOL    HW1 1260   2.900   0.787   2.924
 1520SOL    HW2 1261   2.855   0.671   2.819
 1521SOL     OW 1262   2.842   1.573   3.562
 1521SOL    HW1 1263   2.822   1.617   3.474
 1521SOL    HW2 1264   2.881   1.482   3.546
 1525SOL     OW 1265   3.165   0.838   1.904
 1525SOL    HW1 1266   3.199   0.745   1.919
 1525SOL    HW2 1267   3.183   0.865   1.809
 1526SOL     OW 1268   2.930   1.333   2.711
 1526SOL    HW1 1269   2.937   1.249   2.656
 1526SOL    HW2 1270   2.992   1.402   2.675
 1527SOL     OW 1271   2.181   0.810   2.811
 1527SOL    HW1 1272   2.274   0.846   2.816
 1527SOL    HW2 1273   2.175   0.725   2.863
 1531SOL     OW 1274   1.870   1.326   2.062
 1531SOL    HW1 1275   1.777   1.347   2.031
 1531SOL    HW2 1276   1.880   1.227   2.075
 1532SOL     OW 1277   1.950   1.801   2.789
 1532SOL    HW1 1278   1.908   1.715   2.762
 1532SOL    HW2 1279   2.044   1.804   2.755
 1533SOL     OW 1280   2.366   1.568   2.772
 1533SOL    HW1 1281   2.432   1.642   2.781
 1533SOL    HW2 1282   2.410   1.489   2.730
 1534SOL     OW 1283   2.864   0.796   3.100
 1534SOL    HW1 1284   2.905   0.764   3.186
 1534SOL    HW2 1285   2.768   0.769   3.097
 1538SOL     OW 1286   2.677   0.572   2.187
 1538SOL    HW1 1287   2.684   0.483   2.141
 1538SOL    HW2 1288   2.583   0.606   2.179
 1540SOL     OW 1289   2.114   1.564   3.606
 1540SOL    HW1 1290   2.084   1.621   3.682
 1540SOL    HW2 1291   2.107   1.467   3.632
 1542SOL     OW 1292   2.792   1.678   3.327
 1542SOL    HW1 1293   2.768   1.660   3.232
 1542SOL    HW2 1294   2.822   1.772   3.337
 1543SOL     OW 1295   2.335   0.500   2.053
 1543SOL    HW1 1296   2.396   0.580   2.057
 1543SOL    HW2 1297   2.240   0.531   2.060
 1544SOL     OW 1298   2.021   1.137   3.328
 1544SOL    HW1 1299   2.043   1.076   3.404
 1544SOL    HW2 1300   2.031   1.088   3.242
 1545SOL     OW 1301   3.209   1.059   3.096
 1545SOL    HW1 1302   3.233   0.996   3.022
 1545SOL    HW2 1303   3.119   1.099   3.078
 1546SOL     OW 1304   3.164   0.855   2.171
 1546SOL    HW1 1305   3.078   0.824   2.213
 1546SOL    HW2 1306   3.160   0.841   2.072
 1547SOL     OW 1307   3.621   1.747   3.016
 1547SOL    HW1 1308   3.682   1.777   2.943
 1547SOL    HW2 1309   3.583   1.658   2.994
 1548SOL     OW 1310   3.114   1.731   2.990
 1548SOL    HW1 1311   3.198   1.736   2.936
 1548SOL    HW2 1312   3.091   1.635   3.008
 1549SOL     OW 1313   1.945   1.258   2.884
 1549SOL    HW1 1314   1.940   1.257   2.984
 1549SOL    HW2 1315   1.862   1.217   2.846
 1550SOL     OW 1316   2.550   1.662   3.578
 1550SOL    HW1 1317   2.494   1.743   3.587
 1550SOL    HW2 1318   2.602   1.666   3.492
 1552SOL     OW 1319   3.250   1.573   2.339
 1552SOL    HW1 1320   3.317   1.585   2.265
 1552SOL    HW2 1321   3.210   1.662   2.362
 1553SOL     OW 1322   1.992   1.794   3.713
 1553SOL    HW1 1323   1.951   1.720   3.766
 1553SOL    HW2 1324   2.056   1.845   3.771
 1554SOL     OW 1325   3.142   0.927   2.534
 1554SOL    HW1 1326   3.202   0.846   2.536
 1554SOL    HW2 1327   3.182   0.996   2.474
 1555SOL     OW 1328   2.692   1.273   3.284
 1555SOL    HW1 1329   2.687   1.306   3.379
 1555SOL    HW2 1330   2.606   1.292   3.238
 1556SOL     OW 1331   2.534   1.616   2.016
 1556SOL    HW1 1332   2.543   1.626   1.917
 1556SOL    HW2 1333   2.494   1.527   2.037
 1557SOL     OW 1334   3.512   1.720   3.256
 1557SOL    HW1 1335   3.565   1.730   3.172
 1557SOL    HW2 1336   3.485   1.810   3.290
 1560SOL     OW 1337   3.056   1.612   1.893
 1560SOL    HW1 1338   3.062   1.519   1.930
 1560SOL    HW2 1339   2.997   1.612   1.813
 1561SOL     OW 1340   2.684   1.002   3.234
 1561SOL    HW1 1341   2.724   1.001   3.142
 1561SOL    HW2 1342   2.694   1.094   3.274
 1562SOL     OW 1343   2.778   0.910   2.153
 1562SOL    HW1 1344   2.841   0.948   2.085
 1562SOL    HW2 1345   2.818   0.827   2.192
 1563SOL     OW 1346   3.366   1.607   1.906
 1563SOL    HW1 1347   3.274   1.644   1.913
 1563SOL    HW2 1348   3.404   1.627   1.816
 1564SOL     OW 1349   2.234   1.288   3.352
 1564SOL    HW1 1350   2.221   1.381   3.318
 1564SOL    HW2 1351   2.150   1.236   3.339
 1566SOL     OW 1352   2.901   1.098   2.558
 1566SOL    HW1 1353   2.831   1.051   2.612
 1566SOL    HW2 1354   2.960   1.030   2.515
 1568SOL     OW 1355   2.452   1.487   2.353
 1568SOL    HW1 1356   2.494   1.429   2.283
 1568SOL    HW2 1357   2.408   1.566   2.309
 1570SOL     OW 1358   2.117   1.348   2.152
 1570SOL    HW1 1359   2.021   1.349   2.125
 1570SOL    HW2 1360   2.129   1.401   2.236
 1576SOL     OW 1361   3.045   1.335   1.981
 1576SOL    HW1 1362   2.946   1.324   1.983
 1576SOL    HW2 1363   3.079   1.350   2.074
 1577SOL     OW 1364   2.475   0.842   3.293
 1577SOL    HW1 1365   2.531   0.923   3.276
 1577SOL    HW2 1366   2.534   0.762   3.296
 1578SOL     OW 1367   3.355   1.767   2.821
 1578SOL    HW1 1368   3.388   1.831   2.752
 1578SOL    HW2 1369   3.421   1.761   2.896
 1581SOL     OW 1370   2.252   1.741   3.422
 1581SOL    HW1 1371   2.161   1.782   3.420
 1581SOL    HW2 1372   2.245   1.647   3.454
 1584SOL     OW 1373   2.456   0.745   2.514
 1584SOL    HW1 1374   2.506   0.830   2.495
 1584SOL    HW2 1375   2.368   0.747   2.466
 1587SOL     OW 1376   2.721   1.374   1.878
 1587SOL    HW1 1377   2.675   1.389   1.966
 1587SOL    HW2 1378   2.765   1.459   1.848
 1588SOL     OW 1379   2.523   1.790   2.815
 1588SOL    HW1 1380   2.477   1.878   2.802
 1588SOL    HW2 1381   2.622   1.802   2.808
 1589SOL     OW 1382   2.721   0.956   2.723
 1589SOL    HW1 1383   2.775   0.887   2.771
 1589SOL    HW2 1384   2.689   1.025   2.789
 1590SOL     OW 1385   2.945   0.984   1.949
 1590SOL    HW1 1386   2.922   1.037   1.867
 1590SOL    HW2 1387   3.026   0.928   1.930
 1591SOL     OW 1388   3.723   1.569   2.713
 1591SOL    HW1 1389   3.652   1.557   2.643
 1591SOL    HW2 1390   3.724   1.490   2.773
 1592SOL     OW 1391   2.083   1.314   3.706
 1592SOL    HW1 1392   2.018   1.241   3.685
 1592SOL    HW2 1393   2.087   1.328   3.804
 1593SOL     OW 1394   1.941   1.240   2.515
 1593SOL    HW1 1395   1.940   1.193   2.603
 1593SOL    HW2 1396   2.023   1.212   2.464
 1594SOL     OW 1397   2.534   1.391   3.486
 1594SOL    HW1 1398   2.456   1.341   3.524
 1594SOL    HW2 1399   2.531   1.486   3.517
 1596SOL     OW 1400   2.290   0.424   2.382
 1596SOL    HW1 1401   2.320   0.352   2.320
 1596SOL    HW2 1402   2.251   0.384   2.465
 1597SOL     OW 1403   3.567   1.487   2.966
 1597SOL    HW1 1404   3.474   1.462   2.939
 1597SOL    HW2 1405   3.593   1.437   3.048
 1599SOL     OW 1406   2.674   1.586   2.549
 1599SOL    HW1 1407   2.706   1.596   2.455
 1599SOL    HW2 1408   2.595   1.524   2.551
 1602SOL     OW 1409   2.632   1.330   2.163
 1602SOL    HW1 1410   2.586   1.243   2.180
 1602SOL    HW2 1411   2.723   1.327   2.204
 1603SOL     OW 1412   2.480   1.567   3.146
 1603SOL    HW1 1413   2.475   1.649   3.203
 1603SOL    HW2 1414   2.569   1.564   3.101
 1607SOL     OW 1415   1.901   1.077   2.162
 1607SOL    HW1 1416   2.000   1.066   2.153
 1607SOL    HW2 1417   1.861   0.991   2.194
 1608SOL     OW 1418   2.737   1.646   2.199
 1608SOL    HW1 1419   2.660   1.611   2.145
 1608SOL    HW2 1420   2.705   1.717   2.261
 1616SOL     OW 1421   1.889   1.596   3.841
 1616SOL    HW1 1422   1.870   1.500   3.862
 1616SOL    HW2 1423   1.856   1.654   3.916
 1685SOL     OW 1424   2.087   2.137   0.996
 1685SOL    HW1 1425   2.122   2.120   1.088
 1685SOL    HW2 1426   1.999   2.092   0.984
 1686SOL     OW 1427   1.881   2.230   0.647
 1686SOL    HW1 1428   1.799   2.273   0.686
 1686SOL    HW2 1429   1.853   2.157   0.584
 1687SOL     OW 1430   2.431   3.137   1.165
 1687SOL    HW1 1431   2.338   3.130   1.128
 1687SOL    HW2 1432   2.442   3.226   1.209
 1689SOL     OW 1433   2.997   2.565   0.717
 1689SOL    HW1 1434   3.054   2.643   0.692
 1689SOL    HW2 1435   2.937   2.591   0.793
 1691SOL     OW 1436   2.630   3.006   1.023
 1691SOL    HW1 1437   2.552   3.023   1.083
 1691SOL    HW2 1438   2.664   3.093   0.987
 1692SOL     OW 1439   2.712   2.660   1.823
 1692SOL    HW1 1440   2.708   2.736   1.888
 1692SOL    HW2 1441   2.734   2.696   1.732
 1693SOL     OW 1442   2.547   2.874   0.665
 1693SOL    HW1 1443   2.616   2.858   0.735
 1693SOL    HW2 1444   2.474   2.931   0.703
 1694SOL     OW 1445   2.548   3.023   1.803
 1694SOL    HW1 1446   2.608   3.102   1.817
 1694SOL    HW2 1447   2.462   3.054   1.762
 1695SOL     OW 1448   2.197   3.297   1.061
 1695SOL    HW1 1449   2.119   3.266   1.008
 1695SOL    HW2 1450   2.255   3.355   1.004
 1697SOL     OW 1451   2.300   2.254   1.499
 1697SOL    HW1 1452   2.382   2.198   1.508
 1697SOL    HW2 1453   2.219   2.196   1.503
 1700SOL     OW 1454   2.989   3.203   1.690
 1700SOL    HW1 1455   3.036   3.203   1.778
 1700SOL    HW2 1456   2.941   3.116   1.679
 1702SOL     OW 1457   2.102   2.953   0.886
 1702SOL    HW1 1458   2.116   2.869   0.938
 1702SOL    HW2 1459   2.047   3.017   0.941
 1703SOL     OW 1460   2.482   3.648   1.439
 1703SOL    HW1 1461   2.390   3.631   1.474
 1703SOL    HW2 1462   2.510   3.740   1.465
 1705SOL     OW 1463   3.456   1.976   1.480
 1705SOL    HW1 1464   3.438   2.043   1.408
 1705SOL    HW2 1465   3.453   2.022   1.569
 1706SOL     OW 1466   1.984   2.505   0.563
 1706SOL    HW1 1467   1.939   2.417   0.580
 1706SOL    HW2 1468   1.983   2.559   0.647
 1711SOL     OW 1469   1.975   2.599   1.597
 1711SOL    HW1 1470   2.063   2.586   1.642
 1711SOL    HW2 1471   1.962   2.696   1.575
 1713SOL     OW 1472   3.155   3.090   1.423
 1713SOL    HW1 1473   3.192   3.017   1.365
 1713SOL    HW2 1474   3.207   3.095   1.508
 1715SOL     OW 1475   2.059   2.838   1.264
 1715SOL    HW1 1476   2.148   2.793   1.250
 1715SOL    HW2 1477   1.986   2.773   1.245
 1717SOL     OW 1478   3.049   3.654   1.616
 1717SOL    HW1 1479   3.073   3.714   1.540
 1717SOL    HW2 1480   3.056   3.559   1.586
 1718SOL     OW 1481   2.179   2.113   1.801
 1718SOL    HW1 1482   2.250   2.184   1.807
 1718SOL    HW2 1483   2.091   2.152   1.829
 1722SOL     OW 1484   3.143   2.207   0.944
 1722SOL    HW1 1485   3.057   2.157   0.931
 1722SOL    HW2 1486   3.205   2.153   1.000
 1724SOL     OW 1487   2.669   2.467   1.465
 1724SOL    HW1 1488   2.622   2.464   1.554
 1724SOL    HW2 1489   2.618   2.412   1.399
 1725SOL     OW 1490   3.256   2.331   1.674
 1725SOL    HW1 1491   3.236   2.374   1.762
 1725SOL    HW2 1492   3.334   2.269   1.683
 1726SOL     OW 1493   2.835   2.752   1.572
 1726SOL    HW1 1494   2.881   2.668   1.543
 1726SOL    HW2 1495   2.779   2.786   1.497
 1727SOL     OW 1496   2.853   2.272   1.242
 1727SOL    HW1 1497   2.776   2.306   1.296
 1727SOL    HW2 1498   2.819   2.221   1.163
 1729SOL     OW 1499   1.938   2.673   0.789
 1729SOL    HW1 1500   2.037   2.661   0.798
 1729SOL    HW2 1501   1.914   2.768   0.810
 1730SOL     OW 1502   1.992   3.683   1.571
 1730SOL    HW1 1503   1.982   3.668   1.670
 1730SOL    HW2 1504   1.906   3.719   1.535
 1732SOL     OW 1505   3.581   2.447   1.831
 1732SOL    HW1 1506   3.555   2.536   1.795
 1732SOL    HW2 1507   3.579   2.379   1.758
 1734SOL     OW 1508   2.412   2.058   0.885
 1734SOL    HW1 1509   2.407   2.053   0.985
 1734SOL    HW2 1510   2.414   2.154   0.856
 1738SOL     OW 1511   3.089   3.412   1.506
 1738SOL    HW1 1512   3.095   3.335   1.570
 1738SOL    HW2 1513   3.037   3.386   1.426
 1741SOL     OW 1514   2.323   3.128   1.727
 1741SOL    HW1 1515   2.273   3.129   1.641
 1741SOL    HW2 1516   2.260   3.110   1.803
 1743SOL     OW 1517   2.064   2.147   1.498
 1743SOL    HW1 1518   1.984   2.207   1.485
 1743SOL    HW2 1519   2.054   2.098   1.584
 1747SOL     OW 1520   2.111   3.647   1.241
 1747SOL    HW1 1521   2.168   3.582   1.291
 1747SOL    HW2 1522   2.095   3.614   1.148
 1749SOL     OW 1523   2.244   2.562   0.480
 1749SOL    HW1 1524   2.289   2.472   0.477
 1749SOL    HW2 1525   2.150   2.551   0.513
 1750SOL     OW 1526   3.409   2.084   1.729
 1750SOL    HW1 1527   3.404   2.121   1.821
 1750SOL    HW2 1528   3.337   2.015   1.717
 1752SOL     OW 1529   2.643   2.126   1.749
 1752SOL    HW1 1530   2.710   2.065   1.792
 1752SOL    HW2 1531   2.570   2.145   1.814
 1753SOL     OW 1532   2.750   3.376   1.195
 1753SOL    HW1 1533   2.727   3.351   1.101
 1753SOL    HW2 1534   2.811   3.307   1.234
 1754SOL     OW 1535   3.213   2.452   1.433
 1754SOL    HW1 1536   3.241   2.409   1.518
 1754SOL    HW2 1537   3.238   2.548   1.434
 1755SOL     OW 1538   2.665   3.264   0.924
 1755SOL    HW1 1539   2.755   3.278   0.882
 1755SOL    HW2 1540   2.594   3.266   0.853
 1756SOL     OW 1541   2.784   2.365   0.899
 1756SOL    HW1 1542   2.759   2.356   0.803
 1756SOL    HW2 1543   2.832   2.283   0.930
 1757SOL     OW 1544   2.401   1.926   0.512
 1757SOL    HW1 1545   2.320   1.927   0.570
 1757SOL    HW2 1546   2.404   2.009   0.457
 1760SOL     OW 1547   2.938   2.545   1.464
 1760SOL    HW1 1548   2.858   2.484   1.467
 1760SOL    HW2 1549   3.019   2.492   1.440
 1762SOL     OW 1550   2.321   3.014   0.741
 1762SOL    HW1 1551   2.250   2.987   0.806
 1762SOL    HW2 1552   2.295   2.986   0.648
 1765SOL     OW 1553   1.940   2.418   1.386
 1765SOL    HW1 1554   2.032   2.417   1.345
 1765SOL    HW2 1555   1.934   2.492   1.453
 1766SOL     OW 1556   2.423   2.084   1.147
 1766SOL    HW1 1557   2.461   2.000   1.184
 1766SOL    HW2 1558   2.335   2.103   1.191
 1767SOL     OW 1559   2.728   2.316   0.642
 1767SOL    HW1 1560   2.696   2.388   0.580
 1767SOL    HW2 1561   2.752   2.235   0.589
 1768SOL     OW 1562   2.879   1.901   0.753
 1768SOL    HW1 1563   2.807   1.906   0.684
 1768SOL    HW2 1564   2.855   1.832   0.822
 1770SOL     OW 1565   3.328   2.452   0.992
 1770SOL    HW1 1566   3.298   2.357   0.999
 1770SOL    HW2 1567   3.401   2.468   1.058
 1776SOL     OW 1568   3.616   3.085   1.588
 1776SOL    HW1 1569   3.707   3.046   1.575
 1776SOL    HW2 1570   3.624   3.181   1.612
 1777SOL     OW 1571   2.926   3.209   1.340
 1777SOL    HW1 1572   2.846   3.186   1.395
 1777SOL    HW2 1573   3.009   3.183   1.389
 1779SOL     OW 1574   2.973   3.057   1.100
 1779SOL    HW1 1575   2.933   3.101   1.181
 1779SOL    HW2 1576   2.932   3.094   1.017
 1781SOL     OW 1577   2.777   1.951   1.402
 1781SOL    HW1 1578   2.802   1.931   1.307
 1781SOL    HW2 1579   2.849   2.007   1.444
 1782SOL     OW 1580   2.842   2.978   1.719
 1782SOL    HW1 1581   2.743   2.984   1.729
 1782SOL    HW2 1582   2.865   2.898   1.663
 1784SOL     OW 1583   2.272   2.675   1.251
 1784SOL    HW1 1584   2.358   2.687   1.301
 1784SOL    HW2 1585   2.230   2.588   1.278
 1785SOL     OW 1586   3.136   2.248   1.262
 1785SOL    HW1 1587   3.157   2.322   1.326
 1785SOL    HW2 1588   3.047   2.265   1.219
 1786SOL     OW 1589   1.926   3.426   1.331
 1786SOL    HW1 1590   1.880   3.508   1.297
 1786SOL    HW2 1591   2.024   3.445   1.340
 1788SOL     OW 1592   2.428   2.399   0.865
 1788SOL    HW1 1593   2.440   2.465   0.791
 1788SOL    HW2 1594   2.474   2.433   0.948
 1790SOL     OW 1595   3.134   3.307   1.142
 1790SOL    HW1 1596   3.181   3.320   1.229
 1790SOL    HW2 1597   3.068   3.233   1.151
 1792SOL     OW 1598   2.216   3.372   1.329
 1792SOL    HW1 1599   2.195   3.328   1.242
 1792SOL    HW2 1600   2.313   3.398   1.332
 1793SOL     OW 1601   2.264   2.613   1.598
 1793SOL    HW1 1602   2.332   2.668   1.551
 1793SOL    HW2 1603   2.304   2.525   1.625
 1794SOL     OW 1604   3.449   2.641   1.670
 1794SOL    HW1 1605   3.357   2.679   1.665
 1794SOL    HW2 1606   3.509   2.688   1.605
 1795SOL     OW 1607   2.875   1.967   1.770
 1795SOL    HW1 1608   2.881   2.052   1.718
 1795SOL    HW2 1609   2.907   1.891   1.713
 1796SOL     OW 1610   2.366   1.912   1.740
 1796SOL    HW1 1611   2.324   1.855   1.670
 1796SOL    HW2 1612   2.300   1.981   1.772
 1797SOL     OW 1613   2.435   2.732   1.029
 1797SOL    HW1 1614   2.479   2.821   1.020
 1797SOL    HW2 1615   2.372   2.732   1.106
 1798SOL     OW 1616   3.222   2.724   1.045
 1798SOL    HW1 1617   3.147   2.724   0.979
 1798SOL    HW2 1618   3.259   2.632   1.054
 1800SOL     OW 1619   2.169   2.075   1.231
 1800SOL    HW1 1620   2.146   2.112   1.321
 1800SOL    HW2 1621   2.139   1.980   1.225
 1801SOL     OW 1622   1.899   3.172   1.282
 1801SOL    HW1 1623   1.952   3.123   1.350
 1801SOL    HW2 1624   1.921   3.270   1.287
 1802SOL     OW 1625   2.594   2.496   1.064
 1802SOL    HW1 1626   2.653   2.470   0.988
 1802SOL    HW2 1627   2.566   2.592   1.053
 1803SOL     OW 1628   3.590   2.797   1.854
 1803SOL    HW1 1629   3.544   2.790   1.765
 1803SOL    HW2 1630   3.528   2.841   1.920
 1804SOL     OW 1631   2.169   1.925   0.618
 1804SOL    HW1 1632   2.158   2.019   0.651
 1804SOL    HW2 1633   2.164   1.862   0.695
 1806SOL     OW 1634   2.885   2.628   0.966
 1806SOL    HW1 1635   2.900   2.649   1.062
 1806SOL    HW2 1636   2.855   2.533   0.957
 1807SOL     OW 1637   2.842   3.435   1.700
 1807SOL    HW1 1638   2.822   3.479   1.612
 1807SOL    HW2 1639   2.881   3.344   1.684
 1809SOL     OW 1640   2.212   2.760   1.804
 1809SOL    HW1 1641   2.288   2.804   1.852
 1809SOL    HW2 1642   2.247   2.713   1.722
 1813SOL     OW 1643   2.181   2.672   0.949
 1813SOL    HW1 1644   2.274   2.708   0.954
 1813SOL    HW2 1645   2.175   2.587   1.001
 1814SOL     OW 1646   2.201   2.371   1.006
 1814SOL    HW1 1647   2.149   2.288   0.989
 1814SOL    HW2 1648   2.278   2.376   0.942
 1815SOL     OW 1649   3.000   2.242   1.678
 1815SOL    HW1 1650   2.955   2.305   1.742
 1815SOL    HW2 1651   3.093   2.273   1.661
 1816SOL     OW 1652   3.022   2.069   1.477
 1816SOL    HW1 1653   3.022   2.133   1.554
 1816SOL    HW2 1654   3.050   2.117   1.394
 1819SOL     OW 1655   2.366   3.430   0.910
 1819SOL    HW1 1656   2.432   3.504   0.919
 1819SOL    HW2 1657   2.410   3.351   0.868
 1820SOL     OW 1658   2.864   2.658   1.238
 1820SOL    HW1 1659   2.905   2.626   1.324
 1820SOL    HW2 1660   2.768   2.631   1.235
 1821SOL     OW 1661   1.902   2.406   1.114
 1821SOL    HW1 1662   1.987   2.373   1.073
 1821SOL    HW2 1663   1.915   2.421   1.212
 1822SOL     OW 1664   2.051   2.382   1.722
 1822SOL    HW1 1665   2.110   2.342   1.652
 1822SOL    HW2 1666   1.993   2.453   1.681
 1823SOL     OW 1667   3.231   2.812   1.660
 1823SOL    HW1 1668   3.270   2.901   1.680
 1823SOL    HW2 1669   3.241   2.792   1.563
 1825SOL     OW 1670   3.519   2.466   1.206
 1825SOL    HW1 1671   3.481   2.397   1.268
 1825SOL    HW2 1672   3.601   2.430   1.162
 1826SOL     OW 1673   2.114   3.426   1.744
 1826SOL    HW1 1674   2.084   3.483   1.820
 1826SOL    HW2 1675   2.107   3.329   1.770
 1827SOL     OW 1676   2.533   2.326   1.269
 1827SOL    HW1 1677   2.499   2.237   1.239
 1827SOL    HW2 1678   2.559   2.380   1.189
 1828SOL     OW 1679   2.792   3.540   1.465
 1828SOL    HW1 1680   2.768   3.522   1.370
 1828SOL    HW2 1681   2.822   3.634   1.475
 1830SOL     OW 1682   2.021   2.999   1.466
 1830SOL    HW1 1683   2.043   2.938   1.542
 1830SOL    HW2 1684   2.031   2.950   1.380
 1831SOL     OW 1685   3.209   2.921   1.234
 1831SOL    HW1 1686   3.233   2.858   1.160
 1831SOL    HW2 1687   3.119   2.961   1.216
 1835SOL     OW 1688   1.945   3.120   1.022
 1835SOL    HW1 1689   1.940   3.119   1.122
 1835SOL    HW2 1690   1.862   3.079   0.984
 1836SOL     OW 1691   2.550   3.524   1.716
 1836SOL    HW1 1692   2.494   3.605   1.725
 1836SOL    HW2 1693   2.602   3.528   1.630
 1840SOL     OW 1694   1.992   3.656   1.851
 1840SOL    HW1 1695   1.951   3.582   1.904
 1840SOL    HW2 1696   2.056   3.707   1.909
 1842SOL     OW 1697   2.692   3.135   1.422
 1842SOL    HW1 1698   2.687   3.168   1.517
 1842SOL    HW2 1699   2.606   3.154   1.376
 1846SOL     OW 1700   2.125   2.188   0.720
 1846SOL    HW1 1701   2.046   2.239   0.686
 1846SOL    HW2 1702   2.116   2.173   0.818
 1848SOL     OW 1703   2.684   2.864   1.372
 1848SOL    HW1 1704   2.724   2.863   1.280
 1848SOL    HW2 1705   2.694   2.956   1.412
 1851SOL     OW 1706   2.234   3.150   1.490
 1851SOL    HW1 1707   2.221   3.243   1.456
 1851SOL    HW2 1708   2.150   3.098   1.477
 1854SOL     OW 1709   2.876   2.098   0.971
 1854SOL    HW1 1710   2.868   2.062   0.878
 1854SOL    HW2 1711   2.874   2.022   1.036
 1856SOL     OW 1712   3.571   2.247   1.381
 1856SOL    HW1 1713   3.644   2.316   1.385
 1856SOL    HW2 1714   3.599   2.172   1.322
 1858SOL     OW 1715   1.967   2.875   1.726
 1858SOL    HW1 1716   1.890   2.842   1.780
 1858SOL    HW2 1717   2.052   2.845   1.768
 1859SOL     OW 1718   2.534   2.065   1.489
 1859SOL    HW1 1719   2.624   2.049   1.449
 1859SOL    HW2 1720   2.542   2.070   1.588
 1861SOL     OW 1721   3.302   2.718   1.398
 1861SOL    HW1 1722   3.245   2.770   1.335
 1861SOL    HW2 1723   3.398   2.730   1.374
 1864SOL     OW 1724   2.475   2.704   1.431
 1864SOL    HW1 1725   2.531   2.785   1.414
 1864SOL    HW2 1726   2.534   2.624   1.434
 1866SOL     OW 1727   2.578   2.427   1.708
 1866SOL    HW1 1728   2.597   2.492   1.782
 1866SOL    HW2 1729   2.638   2.347   1.717
 1867SOL     OW 1730   3.312   3.082   1.633
 1867SOL    HW1 1731   3.303   3.072   1.732
 1867SOL    HW2 1732   3.408   3.075   1.607
 1868SOL     OW 1733   2.252   3.603   1.560
 1868SOL    HW1 1734   2.161   3.644   1.558
 1868SOL    HW2 1735   2.245   3.509   1.592
 1869SOL     OW 1736   3.536   2.745   1.254
 1869SOL    HW1 1737   3.509   2.656   1.217
 1869SOL    HW2 1738   3.537   2.813   1.181
 1871SOL     OW 1739   2.456   2.607   0.652
 1871SOL    HW1 1740   2.506   2.692   0.633
 1871SOL    HW2 1741   2.368   2.609   0.604
 1872SOL     OW 1742   3.639   2.204   1.642
 1872SOL    HW1 1743   3.622   2.235   1.548
 1872SOL    HW2 1744   3.555   2.167   1.680
 1873SOL     OW 1745   3.592   2.796   1.517
 1873SOL    HW1 1746   3.630   2.887   1.532
 1873SOL    HW2 1747   3.584   2.779   1.418
 1876SOL     OW 1748   2.721   2.818   0.861
 1876SOL    HW1 1749   2.775   2.749   0.909
 1876SOL    HW2 1750   2.689   2.887   0.927
 1879SOL     OW 1751   2.083   3.176   1.844
 1879SOL    HW1 1752   2.018   3.103   1.823
 1879SOL    HW2 1753   2.087   3.190   1.942
 1881SOL     OW 1754   2.534   3.253   1.624
 1881SOL    HW1 1755   2.456   3.203   1.662
 1881SOL    HW2 1756   2.531   3.348   1.655
 1882SOL     OW 1757   3.686   2.054   1.227
 1882SOL    HW1 1758   3.682   1.964   1.271
 1882SOL    HW2 1759   3.689   2.043   1.128
 1883SOL     OW 1760   2.290   2.286   0.520
 1883SOL    HW1 1761   2.320   2.214   0.458
 1883SOL    HW2 1762   2.251   2.246   0.603
 1885SOL     OW 1763   2.179   2.409   1.280
 1885SOL    HW1 1764   2.217   2.350   1.352
 1885SOL    HW2 1765   2.219   2.383   1.192
 1887SOL     OW 1766   3.286   2.076   1.112
 1887SOL    HW1 1767   3.338   2.011   1.167
 1887SOL    HW2 1768   3.237   2.139   1.173
 1888SOL     OW 1769   2.863   1.896   1.154
 1888SOL    HW1 1770   2.800   1.824   1.123
 1888SOL    HW2 1771   2.956   1.860   1.154
 1890SOL     OW 1772   2.480   3.429   1.284
 1890SOL    HW1 1773   2.475   3.511   1.341
 1890SOL    HW2 1774   2.569   3.426   1.239
 1892SOL     OW 1775   3.162   2.315   0.691
 1892SOL    HW1 1776   3.103   2.395   0.695
 1892SOL    HW2 1777   3.177   2.280   0.784
 1896SOL     OW 1778   2.092   2.490   1.975
 1896SOL    HW1 1779   1.999   2.488   2.012
 1896SOL    HW2 1780   2.093   2.451   1.883
 1897SOL     OW 1781   2.087   2.137   2.858
 1897SOL    HW1 1782   2.122   2.120   2.950
 1897SOL    HW2 1783   1.999   2.092   2.846
 1898SOL     OW 1784   1.881   2.230   2.509
 1898SOL    HW1 1785   1.799   2.273   2.548
 1898SOL    HW2 1786   1.853   2.157   2.446
 1899SOL     OW 1787   2.431   3.137   3.027
 1899SOL    HW1 1788   2.338   3.130   2.990
 1899SOL    HW2 1789   2.442   3.226   3.071
 1900SOL     OW 1790   3.417   3.373   2.565
 1900SOL    HW1 1791   3.360   3.357   2.646
 1900SOL    HW2 1792   3.358   3.383   2.485
 1901SOL     OW 1793   2.997   2.565   2.579
 1901SOL    HW1 1794   3.054   2.643   2.554
 1901SOL    HW2 1795   2.937   2.591   2.655
 1902SOL     OW 1796   3.617   2.469   2.093
 1902SOL    HW1 1797   3.605   2.456   1.994
 1902SOL    HW2 1798   3.587   2.388   2.142
 1903SOL     OW 1799   2.630   3.006   2.885
 1903SOL    HW1 1800   2.552   3.023   2.945
 1903SOL    HW2 1801   2.664   3.093   2.849
 1904SOL     OW 1802   2.712   2.660   3.685
 1904SOL    HW1 1803   2.708   2.736   3.750
 1904SOL    HW2 1804   2.734   2.696   3.594
 1905SOL     OW 1805   2.547   2.874   2.527
 1905SOL    HW1 1806   2.616   2.858   2.597
 1905SOL    HW2 1807   2.474   2.931   2.565
 1906SOL     OW 1808   2.548   3.023   3.665
 1906SOL    HW1 1809   2.608   3.102   3.679
 1906SOL    HW2 1810   2.462   3.054   3.624
 1907SOL     OW 1811   2.197   3.297   2.923
 1907SOL    HW1 1812   2.119   3.266   2.870
 1907SOL    HW2 1813   2.255   3.355   2.866
 1909SOL     OW 1814   2.300   2.254   3.361
 1909SOL    HW1 1815   2.382   2.198   3.370
 1909SOL    HW2 1816   2.219   2.196   3.365
 1910SOL     OW 1817   3.465   2.309   2.599
 1910SOL    HW1 1818   3.391   2.355   2.549
 1910SOL    HW2 1819   3.516   2.377   2.652
 1911SOL     OW 1820   2.093   3.575   2.345
 1911SOL    HW1 1821   2.127   3.652   2.399
 1911SOL    HW2 1822   2.137   3.575   2.255
 1913SOL     OW 1823   2.092   3.296   2.400
 1913SOL    HW1 1824   2.066   3.392   2.400
 1913SOL    HW2 1825   2.021   3.242   2.445
 1914SOL     OW 1826   2.102   2.953   2.748
 1914SOL    HW1 1827   2.116   2.869   2.800
 1914SOL    HW2 1828   2.047   3.017   2.803
 1916SOL     OW 1829   2.468   2.826   1.985
 1916SOL    HW1 1830   2.475   2.910   1.931
 1916SOL    HW2 1831   2.514   2.839   2.073
 1917SOL     OW 1832   3.456   1.976   3.342
 1917SOL    HW1 1833   3.438   2.043   3.270
 1917SOL    HW2 1834   3.453   2.022   3.431
 1918SOL     OW 1835   1.984   2.505   2.425
 1918SOL    HW1 1836   1.939   2.417   2.442
 1918SOL    HW2 1837   1.983   2.559   2.509
 1920SOL     OW 1838   1.889   3.458   1.979
 1920SOL    HW1 1839   1.870   3.362   2.000
 1920SOL    HW2 1840   1.856   3.516   2.054
 1921SOL     OW 1841   3.551   2.784   2.474
 1921SOL    HW1 1842   3.646   2.755   2.482
 1921SOL    HW2 1843   3.543   2.849   2.399
 1922SOL     OW 1844   3.503   2.970   2.294
 1922SOL    HW1 1845   3.589   2.972   2.242
 1922SOL    HW2 1846   3.517   3.017   2.382
 1923SOL     OW 1847   1.975   2.599   3.459
 1923SOL    HW1 1848   2.063   2.586   3.504
 1923SOL    HW2 1849   1.962   2.696   3.437
 1924SOL     OW 1850   2.475   3.227   2.588
 1924SOL    HW1 1851   2.426   3.140   2.597
 1924SOL    HW2 1852   2.452   3.270   2.501
 1925SOL     OW 1853   3.155   3.090   3.285
 1925SOL    HW1 1854   3.192   3.017   3.227
 1925SOL    HW2 1855   3.207   3.095   3.370
 1926SOL     OW 1856   2.671   1.866   2.364
 1926SOL    HW1 1857   2.711   1.957   2.355
 1926SOL    HW2 1858   2.571   1.874   2.370
 1927SOL     OW 1859   2.059   2.838   3.126
 1927SOL    HW1 1860   2.148   2.793   3.112
 1927SOL    HW2 1861   1.986   2.773   3.107
 1928SOL     OW 1862   3.387   2.861   2.052
 1928SOL    HW1 1863   3.324   2.785   2.065
 1928SOL    HW2 1864   3.435   2.879   2.138
 1930SOL     OW 1865   2.179   2.113   3.663
 1930SOL    HW1 1866   2.250   2.184   3.669
 1930SOL    HW2 1867   2.091   2.152   3.691
 1931SOL     OW 1868   3.328   3.279   2.815
 1931SOL    HW1 1869   3.269   3.285   2.895
 1931SOL    HW2 1870   3.313   3.191   2.769
 1933SOL     OW 1871   2.460   2.591   2.132
 1933SOL    HW1 1872   2.484   2.660   2.064
 1933SOL    HW2 1873   2.382   2.624   2.186
 1934SOL     OW 1874   3.143   2.207   2.806
 1934SOL    HW1 1875   3.057   2.157   2.793
 1934SOL    HW2 1876   3.205   2.153   2.862
 1936SOL     OW 1877   2.669   2.467   3.327
 1936SOL    HW1 1878   2.622   2.464   3.416
 1936SOL    HW2 1879   2.618   2.412   3.261
 1937SOL     OW 1880   3.256   2.331   3.536
 1937SOL    HW1 1881   3.236   2.374   3.624
 1937SOL    HW2 1882   3.334   2.269   3.545
 1938SOL     OW 1883   2.835   2.752   3.434
 1938SOL    HW1 1884   2.881   2.668   3.405
 1938SOL    HW2 1885   2.779   2.786   3.359
 1939SOL     OW 1886   2.853   2.272   3.104
 1939SOL    HW1 1887   2.776   2.306   3.158
 1939SOL    HW2 1888   2.819   2.221   3.025
 1940SOL     OW 1889   2.903   2.563   2.291
 1940SOL    HW1 1890   2.929   2.559   2.387
 1940SOL    HW2 1891   2.818   2.512   2.277
 1941SOL     OW 1892   1.938   2.673   2.651
 1941SOL    HW1 1893   2.037   2.661   2.660
 1941SOL    HW2 1894   1.914   2.768   2.672
 1943SOL     OW 1895   2.727   2.210   2.057
 1943SOL    HW1 1896   2.786   2.273   2.008
 1943SOL    HW2 1897   2.746   2.116   2.028
 1945SOL     OW 1898   3.224   3.006   2.407
 1945SOL    HW1 1899   3.307   2.977   2.359
 1945SOL    HW2 1900   3.175   3.073   2.351
 1946SOL     OW 1901   2.412   2.058   2.747
 1946SOL    HW1 1902   2.407   2.053   2.847
 1946SOL    HW2 1903   2.414   2.154   2.718
 1947SOL     OW 1904   2.870   3.318   2.339
 1947SOL    HW1 1905   2.824   3.390   2.287
 1947SOL    HW2 1906   2.866   3.338   2.437
 1948SOL     OW 1907   2.213   3.663   2.715
 1948SOL    HW1 1908   2.263   3.577   2.721
 1948SOL    HW2 1909   2.278   3.740   2.712
 1949SOL     OW 1910   3.657   2.928   2.735
 1949SOL    HW1 1911   3.595   2.913   2.659
 1949SOL    HW2 1912   3.605   2.939   2.820
 1951SOL     OW 1913   2.183   2.805   2.104
 1951SOL    HW1 1914   2.265   2.844   2.062
 1951SOL    HW2 1915   2.156   2.723   2.055
 1952SOL     OW 1916   3.320   2.597   2.590
 1952SOL    HW1 1917   3.315   2.532   2.665
 1952SOL    HW2 1918   3.400   2.656   2.603
 1953SOL     OW 1919   2.323   3.128   3.589
 1953SOL    HW1 1920   2.273   3.129   3.503
 1953SOL    HW2 1921   2.260   3.110   3.665
 1954SOL     OW 1922   2.973   3.638   2.099
 1954SOL    HW1 1923   2.913   3.576   2.149
 1954SOL    HW2 1924   3.004   3.594   2.014
 1955SOL     OW 1925   2.064   2.147   3.360
 1955SOL    HW1 1926   1.984   2.207   3.347
 1955SOL    HW2 1927   2.054   2.098   3.446
 1956SOL     OW 1928   3.494   3.239   1.943
 1956SOL    HW1 1929   3.462   3.333   1.933
 1956SOL    HW2 1930   3.418   3.176   1.931
 1957SOL     OW 1931   2.326   3.605   2.185
 1957SOL    HW1 1932   2.359   3.644   2.271
 1957SOL    HW2 1933   2.402   3.598   2.120
 1958SOL     OW 1934   3.262   1.969   2.288
 1958SOL    HW1 1935   3.238   1.932   2.198
 1958SOL    HW2 1936   3.361   1.985   2.292
 1959SOL     OW 1937   2.111   3.647   3.103
 1959SOL    HW1 1938   2.168   3.582   3.153
 1959SOL    HW2 1939   2.095   3.614   3.010
 1960SOL     OW 1940   2.802   3.560   2.766
 1960SOL    HW1 1941   2.882   3.503   2.787
 1960SOL    HW2 1942   2.753   3.520   2.689
 1961SOL     OW 1943   2.244   2.562   2.342
 1961SOL    HW1 1944   2.289   2.472   2.339
 1961SOL    HW2 1945   2.150   2.551   2.375
 1963SOL     OW 1946   2.476   1.984   1.979
 1963SOL    HW1 1947   2.574   1.962   1.986
 1963SOL    HW2 1948   2.445   1.967   1.886
 1964SOL     OW 1949   2.643   2.126   3.611
 1964SOL    HW1 1950   2.710   2.065   3.654
 1964SOL    HW2 1951   2.570   2.145   3.676
 1965SOL     OW 1952   2.750   3.376   3.057
 1965SOL    HW1 1953   2.727   3.351   2.963
 1965SOL    HW2 1954   2.811   3.307   3.096
 1966SOL     OW 1955   3.213   2.452   3.295
 1966SOL    HW1 1956   3.241   2.409   3.380
 1966SOL    HW2 1957   3.238   2.548   3.296
 1967SOL     OW 1958   2.665   3.264   2.786
 1967SOL    HW1 1959   2.755   3.278   2.744
 1967SOL    HW2 1960   2.594   3.266   2.715
 1968SOL     OW 1961   2.784   2.365   2.761
 1968SOL    HW1 1962   2.759   2.356   2.665
 1968SOL    HW2 1963   2.832   2.283   2.792
 1969SOL     OW 1964   2.401   1.926   2.374
 1969SOL    HW1 1965   2.320   1.927   2.432
 1969SOL    HW2 1966   2.404   2.009   2.319
 1970SOL     OW 1967   3.296   3.050   1.903
 1970SOL    HW1 1968   3.328   2.974   1.960
 1970SOL    HW2 1969   3.204   3.077   1.933
 1971SOL     OW 1970   2.159   1.897   2.033
 1971SOL    HW1 1971   2.208   1.981   2.012
 1971SOL    HW2 1972   2.221   1.832   2.078
 1972SOL     OW 1973   2.797   2.098   2.342
 1972SOL    HW1 1974   2.749   2.139   2.264
 1972SOL    HW2 1975   2.896   2.096   2.323
 1973SOL     OW 1976   2.938   2.545   3.326
 1973SOL    HW1 1977   2.858   2.484   3.329
 1973SOL    HW2 1978   3.019   2.492   3.302
 1974SOL     OW 1979   3.089   3.432   2.655
 1974SOL    HW1 1980   3.110   3.506   2.590
 1974SOL    HW2 1981   3.157   3.432   2.728
 1975SOL     OW 1982   2.321   3.014   2.603
 1975SOL    HW1 1983   2.250   2.987   2.668
 1975SOL    HW2 1984   2.295   2.986   2.510
 1976SOL     OW 1985   3.133   3.659   2.453
 1976SOL    HW1 1986   3.177   3.723   2.389
 1976SOL    HW2 1987   3.083   3.711   2.523
 1977SOL     OW 1988   2.894   2.411   1.878
 1977SOL    HW1 1989   2.853   2.493   1.839
 1977SOL    HW2 1990   2.958   2.437   1.951
 1978SOL     OW 1991   1.940   2.418   3.248
 1978SOL    HW1 1992   2.032   2.417   3.207
 1978SOL    HW2 1993   1.934   2.492   3.315
 1979SOL     OW 1994   2.423   2.084   3.009
 1979SOL    HW1 1995   2.461   2.000   3.046
 1979SOL    HW2 1996   2.335   2.103   3.053
 1980SOL     OW 1997   2.728   2.316   2.504
 1980SOL    HW1 1998   2.696   2.388   2.442
 1980SOL    HW2 1999   2.752   2.235   2.451
 1981SOL     OW 2000   2.879   1.901   2.615
 1981SOL    HW1 2001   2.807   1.906   2.546
 1981SOL    HW2 2002   2.855   1.832   2.684
 1982SOL     OW 2003   3.291   3.035   2.729
 1982SOL    HW1 2004   3.236   2.951   2.722
 1982SOL    HW2 2005   3.317   3.064   2.637
 1983SOL     OW 2006   3.328   2.452   2.854
 1983SOL    HW1 2007   3.298   2.357   2.861
 1983SOL    HW2 2008   3.401   2.468   2.920
 1984SOL     OW 2009   3.719   2.695   2.239
 1984SOL    HW1 2010   3.761   2.631   2.303
 1984SOL    HW2 2011   3.681   2.644   2.161
 1985SOL     OW 2012   2.350   3.247   2.036
 1985SOL    HW1 2013   2.263   3.232   2.083
 1985SOL    HW2 2014   2.333   3.273   1.941
 1986SOL     OW 2015   3.526   3.142   2.519
 1986SOL    HW1 2016   3.625   3.150   2.533
 1986SOL    HW2 2017   3.481   3.226   2.550
 1987SOL     OW 2018   3.252   2.437   1.940
 1987SOL    HW1 2019   3.198   2.416   2.021
 1987SOL    HW2 2020   3.343   2.396   1.949
 1989SOL     OW 2021   2.926   3.209   3.202
 1989SOL    HW1 2022   2.846   3.186   3.257
 1989SOL    HW2 2023   3.009   3.183   3.251
 1991SOL     OW 2024   2.973   3.057   2.962
 1991SOL    HW1 2025   2.933   3.101   3.043
 1991SOL    HW2 2026   2.932   3.094   2.879
 1992SOL     OW 2027   3.500   2.961   2.941
 1992SOL    HW1 2028   3.505   3.042   3.000
 1992SOL    HW2 2029   3.414   2.963   2.890
 1993SOL     OW 2030   2.777   1.951   3.264
 1993SOL    HW1 2031   2.802   1.931   3.169
 1993SOL    HW2 2032   2.849   2.007   3.306
 1994SOL     OW 2033   2.842   2.978   3.581
 1994SOL    HW1 2034   2.743   2.984   3.591
 1994SOL    HW2 2035   2.865   2.898   3.525
 1995SOL     OW 2036   2.567   2.912   2.230
 1995SOL    HW1 2037   2.553   2.919   2.329
 1995SOL    HW2 2038   2.651   2.861   2.212
 1996SOL     OW 2039   2.272   2.675   3.113
 1996SOL    HW1 2040   2.358   2.687   3.163
 1996SOL    HW2 2041   2.230   2.588   3.140
 1997SOL     OW 2042   3.136   2.248   3.124
 1997SOL    HW1 2043   3.157   2.322   3.188
 1997SOL    HW2 2044   3.047   2.265   3.081
 1998SOL     OW 2045   1.926   3.426   3.193
 1998SOL    HW1 2046   1.880   3.508   3.159
 1998SOL    HW2 2047   2.024   3.445   3.202
 1999SOL     OW 2048   2.229   2.962   2.363
 1999SOL    HW1 2049   2.222   3.045   2.307
 1999SOL    HW2 2050   2.233   2.882   2.303
 2000SOL     OW 2051   2.428   2.399   2.727
 2000SOL    HW1 2052   2.440   2.465   2.653
 2000SOL    HW2 2053   2.474   2.433   2.810
 2001SOL     OW 2054   3.114   3.210   2.250
 2001SOL    HW1 2055   3.164   3.287   2.290
 2001SOL    HW2 2056   3.019   3.212   2.282
 2002SOL     OW 2057   3.134   3.307   3.004
 2002SOL    HW1 2058   3.181   3.320   3.091
 2002SOL    HW2 2059   3.068   3.233   3.013
 2003SOL     OW 2060   3.444   2.501   2.334
 2003SOL    HW1 2061   3.413   2.562   2.407
 2003SOL    HW2 2062   3.494   2.553   2.265
 2004SOL     OW 2063   2.216   3.372   3.191
 2004SOL    HW1 2064   2.195   3.328   3.104
 2004SOL    HW2 2065   2.313   3.398   3.194
 2005SOL     OW 2066   2.264   2.613   3.460
 2005SOL    HW1 2067   2.332   2.668   3.413
 2005SOL    HW2 2068   2.304   2.525   3.487
 2007SOL     OW 2069   2.875   1.967   3.632
 2007SOL    HW1 2070   2.881   2.052   3.580
 2007SOL    HW2 2071   2.907   1.891   3.575
 2008SOL     OW 2072   2.366   1.912   3.602
 2008SOL    HW1 2073   2.324   1.855   3.532
 2008SOL    HW2 2074   2.300   1.981   3.634
 2009SOL     OW 2075   2.435   2.732   2.891
 2009SOL    HW1 2076   2.479   2.821   2.882
 2009SOL    HW2 2077   2.372   2.732   2.968
 2010SOL     OW 2078   3.222   2.724   2.907
 2010SOL    HW1 2079   3.147   2.724   2.841
 2010SOL    HW2 2080   3.259   2.632   2.916
 2011SOL     OW 2081   3.071   2.387   2.137
 2011SOL    HW1 2082   3.084   2.303   2.191
 2011SOL    HW2 2083   3.042   2.461   2.197
 2012SOL     OW 2084   2.169   2.075   3.093
 2012SOL    HW1 2085   2.146   2.112   3.183
 2012SOL    HW2 2086   2.139   1.980   3.087
 2013SOL     OW 2087   1.899   3.172   3.144
 2013SOL    HW1 2088   1.952   3.123   3.212
 2013SOL    HW2 2089   1.921   3.270   3.149
 2014SOL     OW 2090   2.594   2.496   2.926
 2014SOL    HW1 2091   2.653   2.470   2.850
 2014SOL    HW2 2092   2.566   2.592   2.915
 2016SOL     OW 2093   2.169   1.925   2.480
 2016SOL    HW1 2094   2.158   2.019   2.513
 2016SOL    HW2 2095   2.164   1.862   2.557
 2017SOL     OW 2096   3.484   2.229   2.236
 2017SOL    HW1 2097   3.486   2.153   2.300
 2017SOL    HW2 2098   3.436   2.306   2.276
 2018SOL     OW 2099   2.885   2.628   2.828
 2018SOL    HW1 2100   2.900   2.649   2.924
 2018SOL    HW2 2101   2.855   2.533   2.819
 2021SOL     OW 2102   2.212   2.760   3.666
 2021SOL    HW1 2103   2.288   2.804   3.714
 2021SOL    HW2 2104   2.247   2.713   3.584
 2022SOL     OW 2105   3.402   2.136   1.987
 2022SOL    HW1 2106   3.341   2.061   2.010
 2022SOL    HW2 2107   3.424   2.188   2.070
 2023SOL     OW 2108   3.165   2.700   1.904
 2023SOL    HW1 2109   3.199   2.607   1.919
 2023SOL    HW2 2110   3.183   2.727   1.809
 2024SOL     OW 2111   2.930   3.195   2.711
 2024SOL    HW1 2112   2.937   3.111   2.656
 2024SOL    HW2 2113   2.992   3.264   2.675
 2025SOL     OW 2114   2.181   2.672   2.811
 2025SOL    HW1 2115   2.274   2.708   2.816
 2025SOL    HW2 2116   2.175   2.587   2.863
 2026SOL     OW 2117   2.201   2.371   2.868
 2026SOL    HW1 2118   2.149   2.288   2.851
 2026SOL    HW2 2119   2.278   2.376   2.804
 2027SOL     OW 2120   3.000   2.242   3.540
 2027SOL    HW1 2121   2.955   2.305   3.604
 2027SOL    HW2 2122   3.093   2.273   3.523
 2028SOL     OW 2123   3.022   2.069   3.339
 2028SOL    HW1 2124   3.022   2.133   3.416
 2028SOL    HW2 2125   3.050   2.117   3.256
 2029SOL     OW 2126   1.870   3.188   2.062
 2029SOL    HW1 2127   1.777   3.209   2.031
 2029SOL    HW2 2128   1.880   3.089   2.075
 2030SOL     OW 2129   1.950   3.663   2.789
 2030SOL    HW1 2130   1.908   3.577   2.762
 2030SOL    HW2 2131   2.044   3.666   2.755
 2031SOL     OW 2132   2.366   3.430   2.772
 2031SOL    HW1 2133   2.432   3.504   2.781
 2031SOL    HW2 2134   2.410   3.351   2.730
 2032SOL     OW 2135   2.864   2.658   3.100
 2032SOL    HW1 2136   2.905   2.626   3.186
 2032SOL    HW2 2137   2.768   2.631   3.097
 2033SOL     OW 2138   1.902   2.406   2.976
 2033SOL    HW1 2139   1.987   2.373   2.935
 2033SOL    HW2 2140   1.915   2.421   3.074
 2034SOL     OW 2141   2.051   2.382   3.584
 2034SOL    HW1 2142   2.110   2.342   3.514
 2034SOL    HW2 2143   1.993   2.453   3.543
 2035SOL     OW 2144   3.231   2.812   3.522
 2035SOL    HW1 2145   3.270   2.901   3.542
 2035SOL    HW2 2146   3.241   2.792   3.425
 2036SOL     OW 2147   2.677   2.434   2.187
 2036SOL    HW1 2148   2.684   2.345   2.141
 2036SOL    HW2 2149   2.583   2.468   2.179
 2037SOL     OW 2150   3.519   2.466   3.068
 2037SOL    HW1 2151   3.481   2.397   3.130
 2037SOL    HW2 2152   3.601   2.430   3.024
 2039SOL     OW 2153   2.533   2.326   3.131
 2039SOL    HW1 2154   2.499   2.237   3.101
 2039SOL    HW2 2155   2.559   2.380   3.051
 2041SOL     OW 2156   2.021   2.999   3.328
 2041SOL    HW1 2157   2.043   2.938   3.404
 2041SOL    HW2 2158   2.031   2.950   3.242
 2042SOL     OW 2159   3.209   2.921   3.096
 2042SOL    HW1 2160   3.233   2.858   3.022
 2042SOL    HW2 2161   3.119   2.961   3.078
 2043SOL     OW 2162   3.164   2.717   2.171
 2043SOL    HW1 2163   3.078   2.686   2.213
 2043SOL    HW2 2164   3.160   2.703   2.072
 2046SOL     OW 2165   1.945   3.120   2.884
 2046SOL    HW1 2166   1.940   3.119   2.984
 2046SOL    HW2 2167   1.862   3.079   2.846
 2048SOL     OW 2168   3.588   1.997   2.385
 2048SOL    HW1 2169   3.661   1.980   2.318
 2048SOL    HW2 2170   3.557   1.910   2.423
 2049SOL     OW 2171   3.250   3.435   2.339
 2049SOL    HW1 2172   3.317   3.447   2.265
 2049SOL    HW2 2173   3.210   3.524   2.362
 2051SOL     OW 2174   3.142   2.789   2.534
 2051SOL    HW1 2175   3.202   2.708   2.536
 2051SOL    HW2 2176   3.182   2.858   2.474
 2052SOL     OW 2177   2.692   3.135   3.284
 2052SOL    HW1 2178   2.687   3.168   3.379
 2052SOL    HW2 2179   2.606   3.154   3.238
 2053SOL     OW 2180   2.534   3.478   2.016
 2053SOL    HW1 2181   2.543   3.488   1.917
 2053SOL    HW2 2182   2.494   3.389   2.037
 2055SOL     OW 2183   3.703   2.037   2.825
 2055SOL    HW1 2184   3.742   1.952   2.789
 2055SOL    HW2 2185   3.605   2.039   2.806
 2056SOL     OW 2186   2.125   2.188   2.582
 2056SOL    HW1 2187   2.046   2.239   2.548
 2056SOL    HW2 2188   2.116   2.173   2.680
 2057SOL     OW 2189   3.056   3.474   1.893
 2057SOL    HW1 2190   3.062   3.381   1.930
 2057SOL    HW2 2191   2.997   3.474   1.813
 2058SOL     OW 2192   2.684   2.864   3.234
 2058SOL    HW1 2193   2.724   2.863   3.142
 2058SOL    HW2 2194   2.694   2.956   3.274
 2059SOL     OW 2195   2.778   2.772   2.153
 2059SOL    HW1 2196   2.841   2.810   2.085
 2059SOL    HW2 2197   2.818   2.689   2.192
 2060SOL     OW 2198   3.366   3.469   1.906
 2060SOL    HW1 2199   3.274   3.506   1.913
 2060SOL    HW2 2200   3.404   3.489   1.816
 2061SOL     OW 2201   2.234   3.150   3.352
 2061SOL    HW1 2202   2.221   3.243   3.318
 2061SOL    HW2 2203   2.150   3.098   3.339
 2063SOL     OW 2204   2.901   2.960   2.558
 2063SOL    HW1 2205   2.831   2.913   2.612
 2063SOL    HW2 2206   2.960   2.892   2.515
 2064SOL     OW 2207   2.876   2.098   2.833
 2064SOL    HW1 2208   2.868   2.062   2.740
 2064SOL    HW2 2209   2.874   2.022   2.898
 2065SOL     OW 2210   2.452   3.349   2.353
 2065SOL    HW1 2211   2.494   3.291   2.283
 2065SOL    HW2 2212   2.408   3.428   2.309
 2066SOL     OW 2213   3.571   2.247   3.243
 2066SOL    HW1 2214   3.644   2.316   3.247
 2066SOL    HW2 2215   3.599   2.172   3.184
 2067SOL     OW 2216   2.117   3.210   2.152
 2067SOL    HW1 2217   2.021   3.211   2.125
 2067SOL    HW2 2218   2.129   3.263   2.236
 2068SOL     OW 2219   1.967   2.875   3.588
 2068SOL    HW1 2220   1.890   2.842   3.642
 2068SOL    HW2 2221   2.052   2.845   3.630
 2069SOL     OW 2222   2.534   2.065   3.351
 2069SOL    HW1 2223   2.624   2.049   3.311
 2069SOL    HW2 2224   2.542   2.070   3.450
 2070SOL     OW 2225   1.937   2.207   1.895
 2070SOL    HW1 2226   1.845   2.179   1.866
 2070SOL    HW2 2227   1.968   2.284   1.839
 2071SOL     OW 2228   3.302   2.718   3.260
 2071SOL    HW1 2229   3.245   2.770   3.197
 2071SOL    HW2 2230   3.398   2.730   3.236
 2072SOL     OW 2231   3.045   3.197   1.981
 2072SOL    HW1 2232   2.946   3.186   1.983
 2072SOL    HW2 2233   3.079   3.212   2.074
 2073SOL     OW 2234   2.475   2.704   3.293
 2073SOL    HW1 2235   2.531   2.785   3.276
 2073SOL    HW2 2236   2.534   2.624   3.296
 2075SOL     OW 2237   2.578   2.427   3.570
 2075SOL    HW1 2238   2.597   2.492   3.644
 2075SOL    HW2 2239   2.638   2.347   3.579
 2078SOL     OW 2240   3.536   2.745   3.116
 2078SOL    HW1 2241   3.509   2.656   3.079
 2078SOL    HW2 2242   3.537   2.813   3.043
 2079SOL     OW 2243   3.087   2.187   2.311
 2079SOL    HW1 2244   3.152   2.113   2.300
 2079SOL    HW2 2245   3.107   2.237   2.395
 2080SOL     OW 2246   2.456   2.607   2.514
 2080SOL    HW1 2247   2.506   2.692   2.495
 2080SOL    HW2 2248   2.368   2.609   2.466
 2083SOL     OW 2249   2.721   3.236   1.878
 2083SOL    HW1 2250   2.675   3.251   1.966
 2083SOL    HW2 2251   2.765   3.321   1.848
 2084SOL     OW 2252   2.523   3.652   2.815
 2084SOL    HW1 2253   2.477   3.740   2.802
 2084SOL    HW2 2254   2.622   3.664   2.808
 2085SOL     OW 2255   2.721   2.818   2.723
 2085SOL    HW1 2256   2.775   2.749   2.771
 2085SOL    HW2 2257   2.689   2.887   2.789
 2086SOL     OW 2258   2.945   2.846   1.949
 2086SOL    HW1 2259   2.922   2.899   1.867
 2086SOL    HW2 2260   3.026   2.790   1.930
 2088SOL     OW 2261   2.083   3.176   3.706
 2088SOL    HW1 2262   2.018   3.103   3.685
 2088SOL    HW2 2263   2.087   3.190   3.804
 2089SOL     OW 2264   1.941   3.102   2.515
 2089SOL    HW1 2265   1.940   3.055   2.603
 2089SOL    HW2 2266   2.023   3.074   2.464
 2090SOL     OW 2267   2.534   3.253   3.486
 2090SOL    HW1 2268   2.456   3.203   3.524
 2090SOL    HW2 2269   2.531   3.348   3.517
 2091SOL     OW 2270   3.686   2.054   3.089
 2091SOL    HW1 2271   3.682   1.964   3.133
 2091SOL    HW2 2272   3.689   2.043   2.990
 2093SOL     OW 2273   2.179   2.409   3.142
 2093SOL    HW1 2274   2.217   2.350   3.214
 2093SOL    HW2 2275   2.219   2.383   3.054
 2094SOL     OW 2276   2.674   3.448   2.549
 2094SOL    HW1 2277   2.706   3.458   2.455
 2094SOL    HW2 2278   2.595   3.386   2.551
 2095SOL     OW 2279   3.286   2.076   2.974
 2095SOL    HW1 2280   3.338   2.011   3.029
 2095SOL    HW2 2281   3.237   2.139   3.035
 2096SOL     OW 2282   2.863   1.896   3.016
 2096SOL    HW1 2283   2.800   1.824   2.985
 2096SOL    HW2 2284   2.956   1.860   3.016
 2097SOL     OW 2285   2.632   3.192   2.163
 2097SOL    HW1 2286   2.586   3.105   2.180
 2097SOL    HW2 2287   2.723   3.189   2.204
 2098SOL     OW 2288   2.480   3.429   3.146
 2098SOL    HW1 2289   2.475   3.511   3.203
 2098SOL    HW2 2290   2.569   3.426   3.101
 2099SOL     OW 2291   3.214   1.914   2.030
 2099SOL    HW1 2292   3.249   1.873   1.946
 2099SOL    HW2 2293   3.124   1.876   2.050
 2100SOL     OW 2294   3.162   2.315   2.553
 2100SOL    HW1 2295   3.103   2.395   2.557
 2100SOL    HW2 2296   3.177   2.280   2.646
 2101SOL     OW 2297   3.455   2.083   2.744
 2101SOL    HW1 2298   3.371   2.082   2.798
 2101SOL    HW2 2299   3.457   2.166   2.688
 2102SOL     OW 2300   1.901   2.939   2.162
 2102SOL    HW1 2301   2.000   2.928   2.153
 2102SOL    HW2 2302   1.861   2.853   2.194
 2103SOL     OW 2303   2.737   3.508   2.199
 2103SOL    HW1 2304   2.660   3.473   2.145
 2103SOL    HW2 2305   2.705   3.579   2.261
 2104SOL     OW 2306   2.092   2.490   3.837
 2104SOL    HW1 2307   1.999   2.488   3.874
 2104SOL    HW2 2308   2.093   2.451   3.745
 2108SOL     OW 2309   2.468   2.826   3.847
 2108SOL    HW1 2310   2.475   2.910   3.793
 2108SOL    HW2 2311   2.514   2.839   3.935
 2121SOL     OW 2312   2.727   2.210   3.919
 2121SOL    HW1 2313   2.786   2.273   3.870
 2121SOL    HW2 2314   2.746   2.116   3.890
 2131SOL     OW 2315   2.476   1.984   3.841
 2131SOL    HW1 2316   2.574   1.962   3.848
 2131SOL    HW2 2317   2.445   1.967   3.748
 2134SOL     OW 2318   2.159   1.897   3.895
 2134SOL    HW1 2319   2.208   1.981   3.874
 2134SOL    HW2 2320   2.221   1.832   3.940
 2138SOL     OW 2321   2.894   2.411   3.740
 2138SOL    HW1 2322   2.853   2.493   3.701
 2138SOL    HW2 2323   2.958   2.437   3.813
 2155SOL     OW 2324   2.335   2.362   3.915
 2155SOL    HW1 2325   2.396   2.442   3.919
 2155SOL    HW2 2326   2.240   2.393   3.922
 2165SOL     OW 2327   1.937   2.207   3.757
 2165SOL    HW1 2328   1.845   2.179   3.728
 2165SOL    HW2 2329   1.968   2.284   3.701
 2218SOL     OW 2330   2.366   3.774   1.740
 2218SOL    HW1 2331   2.324   3.717   1.670
 2218SOL    HW2 2332   2.300   3.843   1.772
 2262SOL     OW 2333   2.671   3.728   2.364
 2262SOL    HW1 2334   2.711   3.819   2.355
 2262SOL    HW2 2335   2.571   3.736   2.370
 2276SOL     OW 2336   2.476   3.846   1.979
 2276SOL    HW1 2337   2.574   3.824   1.986
 2276SOL    HW2 2338   2.445   3.829   1.886
 2280SOL     OW 2339   2.401   3.788   2.374
 2280SOL    HW1 2340   2.320   3.789   2.432
 2280SOL    HW2 2341   2.404   3.871   2.319
 2281SOL     OW 2342   2.159   3.759   2.033
 2281SOL    HW1 2343   2.208   3.843   2.012
 2281SOL    HW2 2344   2.221   3.694   2.078
 2288SOL     OW 2345   2.879   3.763   2.615
 2288SOL    HW1 2346   2.807   3.768   2.546
 2288SOL    HW2 2347   2.855   3.694   2.684
 2290SOL     OW 2348   2.389   3.980   2.190
 2290SOL    HW1 2349   2.416   3.921   2.115
 2290SOL    HW2 2350   2.389   4.075   2.159
 2300SOL     OW 2351   2.169   3.787   2.480
 2300SOL    HW1 2352   2.158   3.881   2.513
 2300SOL    HW2 2353   2.164   3.724   2.557
 2319SOL     OW 2354   1.934   3.890   2.180
 2319SOL    HW1 2355   1.917   3.973   2.126
 2319SOL    HW2 2356   2.024   3.853   2.158
 2421SOL     OW 2357   3.854   1.794   1.851
 2421SOL    HW1 2358   3.813   1.720   1.904
 2421SOL    HW2 2359   3.918   1.845   1.909
 2449SOL     OW 2360   3.751   1.596   1.979
 2449SOL    HW1 2361   3.732   1.500   2.000
 2449SOL    HW2 2362   3.718   1.654   2.054
 2489SOL     OW 2363   3.732   1.326   2.062
 2489SOL    HW1 2364   3.639   1.347   2.031
 2489SOL    HW2 2365   3.742   1.227   2.075
 2490SOL     OW 2366   3.812   1.801   2.789
 2490SOL    HW1 2367   3.770   1.715   2.762
 2490SOL    HW2 2368   3.906   1.804   2.755
 2561SOL     OW 2369   3.837   2.599   1.597
 2561SOL    HW1 2370   3.925   2.586   1.642
 2561SOL    HW2 2371   3.824   2.696   1.575
 2604SOL     OW 2372   3.913   2.382   1.722
 2604SOL    HW1 2373   3.972   2.342   1.652
 2604SOL    HW2 2374   3.855   2.453   1.681
 2629SOL     OW 2375   3.954   2.490   1.975
 2629SOL    HW1 2376   3.861   2.488   2.012
 2629SOL    HW2 2377   3.955   2.451   1.883
 2631SOL     OW 2378   3.743   2.230   2.509
 2631SOL    HW1 2379   3.661   2.273   2.548
 2631SOL    HW2 2380   3.715   2.157   2.446
 2639SOL     OW 2381   3.846   2.505   2.425
 2639SOL    HW1 2382   3.801   2.417   2.442
 2639SOL    HW2 2383   3.845   2.559   2.509
 2647SOL     OW 2384   3.800   2.673   2.651
 2647SOL    HW1 2385   3.899   2.661   2.660
 2647SOL    HW2 2386   3.776   2.768   2.672
 2684SOL     OW 2387   3.764   2.406   2.976
 2684SOL    HW1 2388   3.849   2.373   2.935
 2684SOL    HW2 2389   3.777   2.421   3.074
 2699SOL     OW 2390   3.799   2.207   1.895
 2699SOL    HW1 2391   3.707   2.179   1.866
 2699SOL    HW2 2392   3.830   2.284   1.839
 2700SOL     OW 2393   3.796   2.028   2.180
 2700SOL    HW1 2394   3.779   2.111   2.126
 2700SOL    HW2 2395   3.886   1.991   2.158
 2709SOL     OW 2396   3.763   2.939   2.162
 2709SOL    HW1 2397   3.862   2.928   2.153
 2709SOL    HW2 2398   3.723   2.853   2.194
   4.41650   4.41650   4.41650
