; mobley_3802803_GMX.itp created by acpype (v: 2023.10.27) on Thu May 21 00:26:10 2026

[ atomtypes ]
;name   bond_type     mass     charge   ptype   sigma         epsilon       Amb
 c3       c3          0.00000  0.00000   A     3.39771e-01   4.51035e-01 ; 1.91  0.1078
 no       no          0.00000  0.00000   A     3.36510e-01   3.58987e-01 ; 1.89  0.0858
 o        o           0.00000  0.00000   A     3.04812e-01   6.12119e-01 ; 1.71  0.1463
 os       os          0.00000  0.00000   A     3.15610e-01   3.03758e-01 ; 1.77  0.0726
 hc       hc          0.00000  0.00000   A     2.60018e-01   8.70272e-02 ; 1.46  0.0208
 h1       h1          0.00000  0.00000   A     2.42200e-01   8.70272e-02 ; 1.36  0.0208

[ moleculetype ]
;name            nrexcl
 mobley_3802803   3

[ atoms ]
;   nr  type  resi  res  atom  cgnr     charge      mass       ; qtot   bond_type
     1   c3     1   MOL    C1    1    -0.093100     12.01000 ; qtot -0.093
     2   c3     1   MOL    C2    2    -0.080400     12.01000 ; qtot -0.173
     3   c3     1   MOL    C3    3    -0.079400     12.01000 ; qtot -0.253
     4   c3     1   MOL    C4    4    -0.078400     12.01000 ; qtot -0.331
     5   c3     1   MOL    C5    5    -0.087400     12.01000 ; qtot -0.419
     6   c3     1   MOL    C6    6     0.133400     12.01000 ; qtot -0.285
     7   no     1   MOL    N1    7     0.378201     14.01000 ; qtot 0.093
     8    o     1   MOL    O1    8    -0.184500     16.00000 ; qtot -0.092
     9    o     1   MOL    O2    9    -0.184500     16.00000 ; qtot -0.276
    10   os     1   MOL    O3   10    -0.350000     16.00000 ; qtot -0.626
    11   hc     1   MOL    H1   11     0.035033      1.00800 ; qtot -0.591
    12   hc     1   MOL    H2   12     0.035033      1.00800 ; qtot -0.556
    13   hc     1   MOL    H3   13     0.035033      1.00800 ; qtot -0.521
    14   hc     1   MOL    H4   14     0.039700      1.00800 ; qtot -0.481
    15   hc     1   MOL    H5   15     0.039700      1.00800 ; qtot -0.442
    16   hc     1   MOL    H6   16     0.043700      1.00800 ; qtot -0.398
    17   hc     1   MOL    H7   17     0.043700      1.00800 ; qtot -0.354
    18   hc     1   MOL    H8   18     0.044700      1.00800 ; qtot -0.309
    19   hc     1   MOL    H9   19     0.044700      1.00800 ; qtot -0.265
    20   hc     1   MOL   H10   20     0.064700      1.00800 ; qtot -0.200
    21   hc     1   MOL   H11   21     0.064700      1.00800 ; qtot -0.135
    22   h1     1   MOL   H12   22     0.067700      1.00800 ; qtot -0.068
    23   h1     1   MOL   H13   23     0.067700      1.00800 ; qtot 0.000

[ bonds ]
;   ai     aj funct   r             k
     1      2   1    1.5354e-01    1.9154e+05 ;     C1 - C2    
     1     11   1    1.0962e-01    2.8891e+05 ;     C1 - H1    
     1     12   1    1.0962e-01    2.8891e+05 ;     C1 - H2    
     1     13   1    1.0962e-01    2.8891e+05 ;     C1 - H3    
     2      3   1    1.5354e-01    1.9154e+05 ;     C2 - C3    
     2     14   1    1.0962e-01    2.8891e+05 ;     C2 - H4    
     2     15   1    1.0962e-01    2.8891e+05 ;     C2 - H5    
     3      4   1    1.5354e-01    1.9154e+05 ;     C3 - C4    
     3     16   1    1.0962e-01    2.8891e+05 ;     C3 - H6    
     3     17   1    1.0962e-01    2.8891e+05 ;     C3 - H7    
     4      5   1    1.5354e-01    1.9154e+05 ;     C4 - C5    
     4     18   1    1.0962e-01    2.8891e+05 ;     C4 - H8    
     4     19   1    1.0962e-01    2.8891e+05 ;     C4 - H9    
     5      6   1    1.5354e-01    1.9154e+05 ;     C5 - C6    
     5     20   1    1.0962e-01    2.8891e+05 ;     C5 - H10   
     5     21   1    1.0962e-01    2.8891e+05 ;     C5 - H11   
     6     10   1    1.4273e-01    2.3620e+05 ;     C6 - O3    
     6     22   1    1.0969e-01    2.8804e+05 ;     C6 - H12   
     6     23   1    1.0969e-01    2.8804e+05 ;     C6 - H13   
     7      8   1    1.2311e-01    3.0270e+05 ;     N1 - O1    
     7      9   1    1.2311e-01    3.0270e+05 ;     N1 - O2    
     7     10   1    1.4202e-01    1.5509e+05 ;     N1 - O3    

[ pairs ]
;   ai     aj    funct
     1      4      1 ;     C1 - C4    
     1     16      1 ;     C1 - H6    
     1     17      1 ;     C1 - H7    
     2      5      1 ;     C2 - C5    
     2     18      1 ;     C2 - H8    
     2     19      1 ;     C2 - H9    
     3      6      1 ;     C3 - C6    
     3     20      1 ;     C3 - H10   
     3     21      1 ;     C3 - H11   
     4     10      1 ;     C4 - O3    
     4     14      1 ;     C4 - H4    
     4     15      1 ;     C4 - H5    
     4     22      1 ;     C4 - H12   
     4     23      1 ;     C4 - H13   
     5      7      1 ;     C5 - N1    
     5     16      1 ;     C5 - H6    
     5     17      1 ;     C5 - H7    
     6      8      1 ;     C6 - O1    
     6      9      1 ;     C6 - O2    
     6     18      1 ;     C6 - H8    
     6     19      1 ;     C6 - H9    
     7     22      1 ;     N1 - H12   
     7     23      1 ;     N1 - H13   
    10     20      1 ;     O3 - H10   
    10     21      1 ;     O3 - H11   
    11      3      1 ;     H1 - C3    
    11     14      1 ;     H1 - H4    
    11     15      1 ;     H1 - H5    
    12      3      1 ;     H2 - C3    
    12     14      1 ;     H2 - H4    
    12     15      1 ;     H2 - H5    
    13      3      1 ;     H3 - C3    
    13     14      1 ;     H3 - H4    
    13     15      1 ;     H3 - H5    
    14     16      1 ;     H4 - H6    
    14     17      1 ;     H4 - H7    
    15     16      1 ;     H5 - H6    
    15     17      1 ;     H5 - H7    
    16     18      1 ;     H6 - H8    
    16     19      1 ;     H6 - H9    
    17     18      1 ;     H7 - H8    
    17     19      1 ;     H7 - H9    
    18     20      1 ;     H8 - H10   
    18     21      1 ;     H8 - H11   
    19     20      1 ;     H9 - H10   
    19     21      1 ;     H9 - H11   
    20     22      1 ;    H10 - H12   
    20     23      1 ;    H10 - H13   
    21     22      1 ;    H11 - H12   
    21     23      1 ;    H11 - H13   

[ angles ]
;   ai     aj     ak    funct   theta         cth
     1      2      3      1    1.1263e+02    5.0099e+02 ;     C1 - C2     - C3    
     1      2     14      1    1.0968e+02    3.6208e+02 ;     C1 - C2     - H4    
     1      2     15      1    1.0968e+02    3.6208e+02 ;     C1 - C2     - H5    
     2      1     11      1    1.0968e+02    3.6208e+02 ;     C2 - C1     - H1    
     2      1     12      1    1.0968e+02    3.6208e+02 ;     C2 - C1     - H2    
     2      1     13      1    1.0968e+02    3.6208e+02 ;     C2 - C1     - H3    
     2      3      4      1    1.1263e+02    5.0099e+02 ;     C2 - C3     - C4    
     2      3     16      1    1.0968e+02    3.6208e+02 ;     C2 - C3     - H6    
     2      3     17      1    1.0968e+02    3.6208e+02 ;     C2 - C3     - H7    
     3      2     14      1    1.0968e+02    3.6208e+02 ;     C3 - C2     - H4    
     3      2     15      1    1.0968e+02    3.6208e+02 ;     C3 - C2     - H5    
     3      4      5      1    1.1263e+02    5.0099e+02 ;     C3 - C4     - C5    
     3      4     18      1    1.0968e+02    3.6208e+02 ;     C3 - C4     - H8    
     3      4     19      1    1.0968e+02    3.6208e+02 ;     C3 - C4     - H9    
     4      3     16      1    1.0968e+02    3.6208e+02 ;     C4 - C3     - H6    
     4      3     17      1    1.0968e+02    3.6208e+02 ;     C4 - C3     - H7    
     4      5      6      1    1.1263e+02    5.0099e+02 ;     C4 - C5     - C6    
     4      5     20      1    1.0968e+02    3.6208e+02 ;     C4 - C5     - H10   
     4      5     21      1    1.0968e+02    3.6208e+02 ;     C4 - C5     - H11   
     5      4     18      1    1.0968e+02    3.6208e+02 ;     C5 - C4     - H8    
     5      4     19      1    1.0968e+02    3.6208e+02 ;     C5 - C4     - H9    
     5      6     10      1    1.0762e+02    6.4802e+02 ;     C5 - C6     - O3    
     5      6     22      1    1.0959e+02    3.6217e+02 ;     C5 - C6     - H12   
     5      6     23      1    1.0959e+02    3.6217e+02 ;     C5 - C6     - H13   
     6      5     20      1    1.0968e+02    3.6208e+02 ;     C6 - C5     - H10   
     6      5     21      1    1.0968e+02    3.6208e+02 ;     C6 - C5     - H11   
     6     10      7      1    1.1387e+02    7.8567e+02 ;     C6 - O3     - N1    
     8      7      9      1    1.2505e+02    1.0964e+03 ;     O1 - N1     - O2    
     8      7     10      1    1.1480e+02    1.0519e+03 ;     O1 - N1     - O3    
     9      7     10      1    1.1480e+02    1.0519e+03 ;     O2 - N1     - O3    
    10      6     22      1    1.1034e+02    4.7028e+02 ;     O3 - C6     - H12   
    10      6     23      1    1.1034e+02    4.7028e+02 ;     O3 - C6     - H13   
    11      1     12      1    1.0773e+02    2.9957e+02 ;     H1 - C1     - H2    
    11      1     13      1    1.0773e+02    2.9957e+02 ;     H1 - C1     - H3    
    12      1     13      1    1.0773e+02    2.9957e+02 ;     H2 - C1     - H3    
    14      2     15      1    1.0773e+02    2.9957e+02 ;     H4 - C2     - H5    
    16      3     17      1    1.0773e+02    2.9957e+02 ;     H6 - C3     - H7    
    18      4     19      1    1.0773e+02    2.9957e+02 ;     H8 - C4     - H9    
    20      5     21      1    1.0773e+02    2.9957e+02 ;    H10 - C5     - H11   
    22      6     23      1    1.0855e+02    2.9824e+02 ;    H12 - C6     - H13   

[ dihedrals ] ; propers
; for gromacs 4.5 or higher, using funct 9
;    i      j      k      l   func   phase     kd      pn
     1      2      3      4      9     0.00   2.17568   3 ;     C1-    C2-    C3-    C4
     1      2      3     16      9     0.00   0.54392   3 ;     C1-    C2-    C3-    H6
     1      2      3     17      9     0.00   0.54392   3 ;     C1-    C2-    C3-    H7
     2      3      4      5      9     0.00   2.17568   3 ;     C2-    C3-    C4-    C5
     2      3      4     18      9     0.00   0.54392   3 ;     C2-    C3-    C4-    H8
     2      3      4     19      9     0.00   0.54392   3 ;     C2-    C3-    C4-    H9
     3      4      5      6      9     0.00   2.17568   3 ;     C3-    C4-    C5-    C6
     3      4      5     20      9     0.00   0.54392   3 ;     C3-    C4-    C5-   H10
     3      4      5     21      9     0.00   0.54392   3 ;     C3-    C4-    C5-   H11
     4      3      2     14      9     0.00   0.54392   3 ;     C4-    C3-    C2-    H4
     4      3      2     15      9     0.00   0.54392   3 ;     C4-    C3-    C2-    H5
     4      5      6     10      9     0.00   0.65084   3 ;     C4-    C5-    C6-    O3
     4      5      6     22      9     0.00   0.65084   3 ;     C4-    C5-    C6-   H12
     4      5      6     23      9     0.00   0.65084   3 ;     C4-    C5-    C6-   H13
     5      4      3     16      9     0.00   0.54392   3 ;     C5-    C4-    C3-    H6
     5      4      3     17      9     0.00   0.54392   3 ;     C5-    C4-    C3-    H7
     5      6     10      7      9     0.00   1.60387   3 ;     C5-    C6-    O3-    N1
     6      5      4     18      9     0.00   0.54392   3 ;     C6-    C5-    C4-    H8
     6      5      4     19      9     0.00   0.54392   3 ;     C6-    C5-    C4-    H9
     6     10      7      8      9   180.00  10.60644   2 ;     C6-    O3-    N1-    O1
     6     10      7      9      9   180.00  10.60644   2 ;     C6-    O3-    N1-    O2
     7     10      6     22      9     0.00   1.60387   3 ;     N1-    O3-    C6-   H12
     7     10      6     23      9     0.00   1.60387   3 ;     N1-    O3-    C6-   H13
    10      6      5     20      9     0.00   0.00000   0 ;     O3-    C6-    C5-   H10
    10      6      5     20      9     0.00   1.04600   1 ;     O3-    C6-    C5-   H10
    10      6      5     21      9     0.00   0.00000   0 ;     O3-    C6-    C5-   H11
    10      6      5     21      9     0.00   1.04600   1 ;     O3-    C6-    C5-   H11
    11      1      2      3      9     0.00   0.54392   3 ;     H1-    C1-    C2-    C3
    11      1      2     14      9     0.00   0.50208   3 ;     H1-    C1-    C2-    H4
    11      1      2     15      9     0.00   0.50208   3 ;     H1-    C1-    C2-    H5
    12      1      2      3      9     0.00   0.54392   3 ;     H2-    C1-    C2-    C3
    12      1      2     14      9     0.00   0.50208   3 ;     H2-    C1-    C2-    H4
    12      1      2     15      9     0.00   0.50208   3 ;     H2-    C1-    C2-    H5
    13      1      2      3      9     0.00   0.54392   3 ;     H3-    C1-    C2-    C3
    13      1      2     14      9     0.00   0.50208   3 ;     H3-    C1-    C2-    H4
    13      1      2     15      9     0.00   0.50208   3 ;     H3-    C1-    C2-    H5
    14      2      3     16      9     0.00   0.50208   3 ;     H4-    C2-    C3-    H6
    14      2      3     17      9     0.00   0.50208   3 ;     H4-    C2-    C3-    H7
    15      2      3     16      9     0.00   0.50208   3 ;     H5-    C2-    C3-    H6
    15      2      3     17      9     0.00   0.50208   3 ;     H5-    C2-    C3-    H7
    16      3      4     18      9     0.00   0.50208   3 ;     H6-    C3-    C4-    H8
    16      3      4     19      9     0.00   0.50208   3 ;     H6-    C3-    C4-    H9
    17      3      4     18      9     0.00   0.50208   3 ;     H7-    C3-    C4-    H8
    17      3      4     19      9     0.00   0.50208   3 ;     H7-    C3-    C4-    H9
    18      4      5     20      9     0.00   0.50208   3 ;     H8-    C4-    C5-   H10
    18      4      5     21      9     0.00   0.50208   3 ;     H8-    C4-    C5-   H11
    19      4      5     20      9     0.00   0.50208   3 ;     H9-    C4-    C5-   H10
    19      4      5     21      9     0.00   0.50208   3 ;     H9-    C4-    C5-   H11
    20      5      6     22      9     0.00   0.65084   3 ;    H10-    C5-    C6-   H12
    20      5      6     23      9     0.00   0.65084   3 ;    H10-    C5-    C6-   H13
    21      5      6     22      9     0.00   0.65084   3 ;    H11-    C5-    C6-   H12
    21      5      6     23      9     0.00   0.65084   3 ;    H11-    C5-    C6-   H13

[ dihedrals ] ; impropers
; treated as propers in GROMACS to use correct AMBER analytical function
;    i      j      k      l   func   phase     kd      pn
     8      9      7     10      4   180.00   4.60240   2 ;     O1-    O2-    N1-    O3
