mobley_7203421_GMX.gro created by acpype (v: 2023.10.27) on Tue May 19 14:02:31 2026
 2424
    1MOL     C1    1   2.634   2.571   2.254
    1MOL     C2    2   2.237   2.347   2.702
    1MOL     C3    3   2.599   2.492   2.379
    1MOL     C4    4   2.271   2.430   2.579
    1MOL     C5    5   2.452   2.502   2.418
    1MOL     C6    6   2.418   2.416   2.540
    1MOL     N1    7   2.767   2.560   2.221
    1MOL     O1    8   2.552   2.635   2.188
    1MOL     H1    9   2.257   2.241   2.685
    1MOL     H2   10   2.131   2.359   2.728
    1MOL     H3   11   2.297   2.380   2.788
    1MOL     H4   12   2.623   2.387   2.359
    1MOL     H5   13   2.663   2.526   2.461
    1MOL     H6   14   2.247   2.535   2.599
    1MOL     H7   15   2.207   2.398   2.496
    1MOL     H8   16   2.424   2.607   2.437
    1MOL     H9   17   2.391   2.468   2.333
    1MOL    H10   18   2.440   2.311   2.519
    1MOL    H11   19   2.481   2.446   2.625
    1MOL    H12   20   2.801   2.608   2.138
    1MOL    H13   21   2.833   2.506   2.276
   14SOL     OW   22   1.460   1.505   1.339
   14SOL    HW1   23   1.484   1.599   1.365
   14SOL    HW2   24   1.444   1.451   1.421
   35SOL     OW   25   1.187   1.792   1.616
   35SOL    HW1   26   1.211   1.852   1.540
   35SOL    HW2   27   1.194   1.697   1.586
   95SOL     OW   28   1.754   1.223   1.588
   95SOL    HW1   29   1.845   1.184   1.575
   95SOL    HW2   30   1.762   1.319   1.612
   97SOL     OW   31   1.592   1.629   1.625
   97SOL    HW1   32   1.619   1.663   1.535
   97SOL    HW2   33   1.671   1.591   1.671
  127SOL     OW   34   1.859   1.518   1.605
  127SOL    HW1   35   1.873   1.545   1.510
  127SOL    HW2   36   1.942   1.540   1.658
  152SOL     OW   37   1.759   1.747   1.154
  152SOL    HW1   38   1.820   1.777   1.081
  152SOL    HW2   39   1.721   1.658   1.132
  163SOL     OW   40   1.650   1.720   1.394
  163SOL    HW1   41   1.703   1.730   1.310
  163SOL    HW2   42   1.623   1.810   1.428
  219SOL     OW   43   1.555   1.511   2.565
  219SOL    HW1   44   1.498   1.495   2.646
  219SOL    HW2   45   1.496   1.521   2.485
  227SOL     OW   46   1.460   1.505   3.201
  227SOL    HW1   47   1.484   1.599   3.227
  227SOL    HW2   48   1.444   1.451   3.283
  238SOL     OW   49   1.842   1.767   2.221
  238SOL    HW1   50   1.896   1.738   2.301
  238SOL    HW2   51   1.872   1.857   2.192
  240SOL     OW   52   1.689   0.922   2.474
  240SOL    HW1   53   1.784   0.893   2.482
  240SOL    HW2   54   1.681   0.987   2.399
  241SOL     OW   55   1.641   1.108   2.294
  241SOL    HW1   56   1.727   1.110   2.242
  241SOL    HW2   57   1.655   1.155   2.382
  247SOL     OW   58   1.525   0.999   2.052
  247SOL    HW1   59   1.462   0.923   2.065
  247SOL    HW2   60   1.573   1.017   2.138
  248SOL     OW   61   1.187   1.792   3.478
  248SOL    HW1   62   1.211   1.852   3.402
  248SOL    HW2   63   1.194   1.697   3.448
  250SOL     OW   64   1.466   1.417   2.815
  250SOL    HW1   65   1.407   1.423   2.895
  250SOL    HW2   66   1.451   1.329   2.769
  251SOL     OW   67   1.667   1.714   2.434
  251SOL    HW1   68   1.626   1.691   2.346
  251SOL    HW2   69   1.649   1.640   2.499
  254SOL     OW   70   1.576   1.662   2.169
  254SOL    HW1   71   1.665   1.708   2.172
  254SOL    HW2   72   1.555   1.638   2.074
  264SOL     OW   73   1.362   1.144   2.407
  264SOL    HW1   74   1.445   1.115   2.359
  264SOL    HW2   75   1.313   1.211   2.351
  266SOL     OW   76   1.008   1.456   2.339
  266SOL    HW1   77   0.962   1.528   2.287
  266SOL    HW2   78   1.004   1.476   2.437
  268SOL     OW   79   1.795   1.066   2.735
  268SOL    HW1   80   1.733   1.051   2.659
  268SOL    HW2   81   1.743   1.077   2.820
  269SOL     OW   82   1.227   1.550   3.368
  269SOL    HW1   83   1.233   1.473   3.432
  269SOL    HW2   84   1.175   1.524   3.288
  273SOL     OW   85   1.111   1.776   2.099
  273SOL    HW1   86   1.051   1.714   2.149
  273SOL    HW2   87   1.142   1.732   2.014
  275SOL     OW   88   1.632   1.377   1.943
  275SOL    HW1   89   1.600   1.471   1.933
  275SOL    HW2   90   1.556   1.314   1.931
  279SOL     OW   91   0.940   1.698   2.766
  279SOL    HW1   92   1.020   1.641   2.787
  279SOL    HW2   93   0.891   1.658   2.689
  289SOL     OW   94   1.434   1.188   1.903
  289SOL    HW1   95   1.466   1.112   1.960
  289SOL    HW2   96   1.342   1.215   1.933
  293SOL     OW   97   1.227   1.570   2.655
  293SOL    HW1   98   1.248   1.644   2.590
  293SOL    HW2   99   1.295   1.570   2.728
  295SOL     OW  100   1.271   1.797   2.453
  295SOL    HW1  101   1.315   1.861   2.389
  295SOL    HW2  102   1.221   1.849   2.523
  301SOL     OW  103   1.429   1.173   2.729
  301SOL    HW1  104   1.374   1.089   2.722
  301SOL    HW2  105   1.455   1.202   2.637
  303SOL     OW  106   1.857   0.833   2.239
  303SOL    HW1  107   1.899   0.769   2.303
  303SOL    HW2  108   1.819   0.782   2.161
  305SOL     OW  109   1.664   1.280   2.519
  305SOL    HW1  110   1.763   1.288   2.533
  305SOL    HW2  111   1.619   1.364   2.550
  308SOL     OW  112   1.754   1.223   3.450
  308SOL    HW1  113   1.845   1.184   3.437
  308SOL    HW2  114   1.762   1.319   3.474
  310SOL     OW  115   1.592   1.629   3.487
  310SOL    HW1  116   1.619   1.663   3.397
  310SOL    HW2  117   1.671   1.591   3.533
  312SOL     OW  118   1.638   1.099   2.941
  312SOL    HW1  119   1.643   1.180   3.000
  312SOL    HW2  120   1.552   1.101   2.890
  321SOL     OW  121   1.252   1.348   2.250
  321SOL    HW1  122   1.302   1.425   2.290
  321SOL    HW2  123   1.157   1.350   2.282
  322SOL     OW  124   1.272   1.445   3.004
  322SOL    HW1  125   1.319   1.458   3.091
  322SOL    HW2  126   1.206   1.371   3.013
  340SOL     OW  127   1.859   1.518   3.467
  340SOL    HW1  128   1.873   1.545   3.372
  340SOL    HW2  129   1.942   1.540   3.520
  365SOL     OW  130   1.759   1.747   3.016
  365SOL    HW1  131   1.820   1.777   2.943
  365SOL    HW2  132   1.721   1.658   2.994
  366SOL     OW  133   1.252   1.731   2.990
  366SOL    HW1  134   1.336   1.736   2.936
  366SOL    HW2  135   1.229   1.635   3.008
  370SOL     OW  136   1.388   1.573   2.339
  370SOL    HW1  137   1.455   1.585   2.265
  370SOL    HW2  138   1.348   1.662   2.362
  375SOL     OW  139   1.650   1.720   3.256
  375SOL    HW1  140   1.703   1.730   3.172
  375SOL    HW2  141   1.623   1.810   3.290
  378SOL     OW  142   1.194   1.612   1.893
  378SOL    HW1  143   1.200   1.519   1.930
  378SOL    HW2  144   1.135   1.612   1.813
  381SOL     OW  145   1.504   1.607   1.906
  381SOL    HW1  146   1.412   1.644   1.913
  381SOL    HW2  147   1.542   1.627   1.816
  383SOL     OW  148   1.614   1.292   3.151
  383SOL    HW1  149   1.674   1.295   3.231
  383SOL    HW2  150   1.539   1.356   3.164
  394SOL     OW  151   1.183   1.335   1.981
  394SOL    HW1  152   1.084   1.324   1.983
  394SOL    HW2  153   1.217   1.350   2.074
  396SOL     OW  154   1.493   1.767   2.821
  396SOL    HW1  155   1.526   1.831   2.752
  396SOL    HW2  156   1.559   1.761   2.896
  409SOL     OW  157   1.861   1.569   2.713
  409SOL    HW1  158   1.790   1.557   2.643
  409SOL    HW2  159   1.862   1.490   2.773
  415SOL     OW  160   1.705   1.487   2.966
  415SOL    HW1  161   1.612   1.462   2.939
  415SOL    HW2  162   1.731   1.437   3.048
  570SOL     OW  163   0.850   2.660   1.823
  570SOL    HW1  164   0.846   2.736   1.888
  570SOL    HW2  165   0.872   2.696   1.732
  574SOL     OW  166   1.460   3.367   1.339
  574SOL    HW1  167   1.484   3.461   1.365
  574SOL    HW2  168   1.444   3.313   1.421
  578SOL     OW  169   1.127   3.203   1.690
  578SOL    HW1  170   1.174   3.203   1.778
  578SOL    HW2  171   1.079   3.116   1.679
  583SOL     OW  172   1.594   1.976   1.480
  583SOL    HW1  173   1.576   2.043   1.408
  583SOL    HW2  174   1.591   2.022   1.569
  591SOL     OW  175   1.293   3.090   1.423
  591SOL    HW1  176   1.330   3.017   1.365
  591SOL    HW2  177   1.345   3.095   1.508
  603SOL     OW  178   1.394   2.331   1.674
  603SOL    HW1  179   1.374   2.374   1.762
  603SOL    HW2  180   1.472   2.269   1.683
  604SOL     OW  181   0.973   2.752   1.572
  604SOL    HW1  182   1.019   2.668   1.543
  604SOL    HW2  183   0.917   2.786   1.497
  610SOL     OW  184   1.719   2.447   1.831
  610SOL    HW1  185   1.693   2.536   1.795
  610SOL    HW2  186   1.717   2.379   1.758
  615SOL     OW  187   1.795   2.928   0.873
  615SOL    HW1  188   1.733   2.913   0.797
  615SOL    HW2  189   1.743   2.939   0.958
  628SOL     OW  190   1.547   2.084   1.729
  628SOL    HW1  191   1.542   2.121   1.821
  628SOL    HW2  192   1.475   2.015   1.717
  632SOL     OW  193   1.351   2.452   1.433
  632SOL    HW1  194   1.379   2.409   1.518
  632SOL    HW2  195   1.376   2.548   1.434
  639SOL     OW  196   1.076   2.545   1.464
  639SOL    HW1  197   0.996   2.484   1.467
  639SOL    HW2  198   1.157   2.492   1.440
  649SOL     OW  199   1.466   2.452   0.992
  649SOL    HW1  200   1.436   2.357   0.999
  649SOL    HW2  201   1.539   2.468   1.058
  655SOL     OW  202   1.754   3.085   1.588
  655SOL    HW1  203   1.845   3.046   1.575
  655SOL    HW2  204   1.762   3.181   1.612
  657SOL     OW  205   1.592   3.491   1.625
  657SOL    HW1  206   1.619   3.525   1.535
  657SOL    HW2  207   1.671   3.453   1.671
  659SOL     OW  208   1.638   2.961   1.079
  659SOL    HW1  209   1.643   3.042   1.138
  659SOL    HW2  210   1.552   2.963   1.028
  661SOL     OW  211   0.980   2.978   1.719
  661SOL    HW1  212   0.881   2.984   1.729
  661SOL    HW2  213   1.003   2.898   1.663
  664SOL     OW  214   1.274   2.248   1.262
  664SOL    HW1  215   1.295   2.322   1.326
  664SOL    HW2  216   1.185   2.265   1.219
  673SOL     OW  217   1.587   2.641   1.670
  673SOL    HW1  218   1.495   2.679   1.665
  673SOL    HW2  219   1.647   2.688   1.605
  674SOL     OW  220   1.013   1.967   1.770
  674SOL    HW1  221   1.019   2.052   1.718
  674SOL    HW2  222   1.045   1.891   1.713
  682SOL     OW  223   1.728   2.797   1.854
  682SOL    HW1  224   1.682   2.790   1.765
  682SOL    HW2  225   1.666   2.841   1.920
  687SOL     OW  226   1.859   3.380   1.605
  687SOL    HW1  227   1.873   3.407   1.510
  687SOL    HW2  228   1.942   3.402   1.658
  694SOL     OW  229   1.138   2.242   1.678
  694SOL    HW1  230   1.093   2.305   1.742
  694SOL    HW2  231   1.231   2.273   1.661
  695SOL     OW  232   1.160   2.069   1.477
  695SOL    HW1  233   1.160   2.133   1.554
  695SOL    HW2  234   1.188   2.117   1.394
  702SOL     OW  235   1.369   2.812   1.660
  702SOL    HW1  236   1.408   2.901   1.680
  702SOL    HW2  237   1.379   2.792   1.563
  704SOL     OW  238   1.657   2.466   1.206
  704SOL    HW1  239   1.619   2.397   1.268
  704SOL    HW2  240   1.739   2.430   1.162
  710SOL     OW  241   1.347   2.921   1.234
  710SOL    HW1  242   1.371   2.858   1.160
  710SOL    HW2  243   1.257   2.961   1.216
  723SOL     OW  244   1.650   3.582   1.394
  723SOL    HW1  245   1.703   3.592   1.310
  723SOL    HW2  246   1.623   3.672   1.428
  724SOL     OW  247   1.841   2.037   0.963
  724SOL    HW1  248   1.880   1.952   0.927
  724SOL    HW2  249   1.743   2.039   0.944
  731SOL     OW  250   1.614   3.154   1.289
  731SOL    HW1  251   1.674   3.157   1.369
  731SOL    HW2  252   1.539   3.218   1.302
  735SOL     OW  253   1.709   2.247   1.381
  735SOL    HW1  254   1.782   2.316   1.385
  735SOL    HW2  255   1.737   2.172   1.322
  740SOL     OW  256   1.440   2.718   1.398
  740SOL    HW1  257   1.383   2.770   1.335
  740SOL    HW2  258   1.536   2.730   1.374
  746SOL     OW  259   1.450   3.082   1.633
  746SOL    HW1  260   1.441   3.072   1.732
  746SOL    HW2  261   1.546   3.075   1.607
  748SOL     OW  262   1.674   2.745   1.254
  748SOL    HW1  263   1.647   2.656   1.217
  748SOL    HW2  264   1.675   2.813   1.181
  751SOL     OW  265   1.777   2.204   1.642
  751SOL    HW1  266   1.760   2.235   1.548
  751SOL    HW2  267   1.693   2.167   1.680
  752SOL     OW  268   1.730   2.796   1.517
  752SOL    HW1  269   1.768   2.887   1.532
  752SOL    HW2  270   1.722   2.779   1.418
  761SOL     OW  271   1.824   2.054   1.227
  761SOL    HW1  272   1.820   1.964   1.271
  761SOL    HW2  273   1.827   2.043   1.128
  763SOL     OW  274   1.705   3.349   1.104
  763SOL    HW1  275   1.612   3.324   1.077
  763SOL    HW2  276   1.731   3.299   1.186
  766SOL     OW  277   1.424   2.076   1.112
  766SOL    HW1  278   1.476   2.011   1.167
  766SOL    HW2  279   1.375   2.139   1.173
  779SOL     OW  280   1.555   3.373   2.565
  779SOL    HW1  281   1.498   3.357   2.646
  779SOL    HW2  282   1.496   3.383   2.485
  780SOL     OW  283   1.135   2.565   2.579
  780SOL    HW1  284   1.192   2.643   2.554
  780SOL    HW2  285   1.075   2.591   2.655
  781SOL     OW  286   1.755   2.469   2.093
  781SOL    HW1  287   1.743   2.456   1.994
  781SOL    HW2  288   1.725   2.388   2.142
  787SOL     OW  289   1.460   3.367   3.201
  787SOL    HW1  290   1.484   3.461   3.227
  787SOL    HW2  291   1.444   3.313   3.283
  789SOL     OW  292   1.603   2.309   2.599
  789SOL    HW1  293   1.529   2.355   2.549
  789SOL    HW2  294   1.654   2.377   2.652
  796SOL     OW  295   1.594   1.976   3.342
  796SOL    HW1  296   1.576   2.043   3.270
  796SOL    HW2  297   1.591   2.022   3.431
  798SOL     OW  298   1.842   3.629   2.221
  798SOL    HW1  299   1.896   3.600   2.301
  798SOL    HW2  300   1.872   3.719   2.192
  800SOL     OW  301   1.689   2.784   2.474
  800SOL    HW1  302   1.784   2.755   2.482
  800SOL    HW2  303   1.681   2.849   2.399
  801SOL     OW  304   1.641   2.970   2.294
  801SOL    HW1  305   1.727   2.972   2.242
  801SOL    HW2  306   1.655   3.017   2.382
  804SOL     OW  307   1.293   3.090   3.285
  804SOL    HW1  308   1.330   3.017   3.227
  804SOL    HW2  309   1.345   3.095   3.370
  805SOL     OW  310   0.809   1.866   2.364
  805SOL    HW1  311   0.849   1.957   2.355
  805SOL    HW2  312   0.709   1.874   2.370
  807SOL     OW  313   1.525   2.861   2.052
  807SOL    HW1  314   1.462   2.785   2.065
  807SOL    HW2  315   1.573   2.879   2.138
  810SOL     OW  316   1.466   3.279   2.815
  810SOL    HW1  317   1.407   3.285   2.895
  810SOL    HW2  318   1.451   3.191   2.769
  811SOL     OW  319   1.667   3.576   2.434
  811SOL    HW1  320   1.626   3.553   2.346
  811SOL    HW2  321   1.649   3.502   2.499
  813SOL     OW  322   1.281   2.207   2.806
  813SOL    HW1  323   1.195   2.157   2.793
  813SOL    HW2  324   1.343   2.153   2.862
  814SOL     OW  325   1.576   3.524   2.169
  814SOL    HW1  326   1.665   3.570   2.172
  814SOL    HW2  327   1.555   3.500   2.074
  816SOL     OW  328   1.394   2.331   3.536
  816SOL    HW1  329   1.374   2.374   3.624
  816SOL    HW2  330   1.472   2.269   3.545
  818SOL     OW  331   0.991   2.272   3.104
  818SOL    HW1  332   0.914   2.306   3.158
  818SOL    HW2  333   0.957   2.221   3.025
  819SOL     OW  334   1.041   2.563   2.291
  819SOL    HW1  335   1.067   2.559   2.387
  819SOL    HW2  336   0.956   2.512   2.277
  822SOL     OW  337   0.865   2.210   2.057
  822SOL    HW1  338   0.924   2.273   2.008
  822SOL    HW2  339   0.884   2.116   2.028
  823SOL     OW  340   1.719   2.447   3.693
  823SOL    HW1  341   1.693   2.536   3.657
  823SOL    HW2  342   1.717   2.379   3.620
  824SOL     OW  343   1.362   3.006   2.407
  824SOL    HW1  344   1.445   2.977   2.359
  824SOL    HW2  345   1.313   3.073   2.351
  826SOL     OW  346   1.008   3.318   2.339
  826SOL    HW1  347   0.962   3.390   2.287
  826SOL    HW2  348   1.004   3.338   2.437
  828SOL     OW  349   1.795   2.928   2.735
  828SOL    HW1  350   1.733   2.913   2.659
  828SOL    HW2  351   1.743   2.939   2.820
  831SOL     OW  352   1.458   2.597   2.590
  831SOL    HW1  353   1.453   2.532   2.665
  831SOL    HW2  354   1.538   2.656   2.603
  835SOL     OW  355   1.632   3.239   1.943
  835SOL    HW1  356   1.600   3.333   1.933
  835SOL    HW2  357   1.556   3.176   1.931
  837SOL     OW  358   1.400   1.969   2.288
  837SOL    HW1  359   1.376   1.932   2.198
  837SOL    HW2  360   1.499   1.985   2.292
  841SOL     OW  361   1.547   2.084   3.591
  841SOL    HW1  362   1.542   2.121   3.683
  841SOL    HW2  363   1.475   2.015   3.579
  845SOL     OW  364   1.351   2.452   3.295
  845SOL    HW1  365   1.379   2.409   3.380
  845SOL    HW2  366   1.376   2.548   3.296
  847SOL     OW  367   0.922   2.365   2.761
  847SOL    HW1  368   0.897   2.356   2.665
  847SOL    HW2  369   0.970   2.283   2.792
  849SOL     OW  370   1.434   3.050   1.903
  849SOL    HW1  371   1.466   2.974   1.960
  849SOL    HW2  372   1.342   3.077   1.933
  851SOL     OW  373   0.935   2.098   2.342
  851SOL    HW1  374   0.887   2.139   2.264
  851SOL    HW2  375   1.034   2.096   2.323
  852SOL     OW  376   1.076   2.545   3.326
  852SOL    HW1  377   0.996   2.484   3.329
  852SOL    HW2  378   1.157   2.492   3.302
  853SOL     OW  379   1.227   3.432   2.655
  853SOL    HW1  380   1.248   3.506   2.590
  853SOL    HW2  381   1.295   3.432   2.728
  855SOL     OW  382   1.271   3.659   2.453
  855SOL    HW1  383   1.315   3.723   2.389
  855SOL    HW2  384   1.221   3.711   2.523
  856SOL     OW  385   1.032   2.411   1.878
  856SOL    HW1  386   0.991   2.493   1.839
  856SOL    HW2  387   1.096   2.437   1.951
  859SOL     OW  388   0.866   2.316   2.504
  859SOL    HW1  389   0.834   2.388   2.442
  859SOL    HW2  390   0.890   2.235   2.451
  860SOL     OW  391   1.017   1.901   2.615
  860SOL    HW1  392   0.945   1.906   2.546
  860SOL    HW2  393   0.993   1.832   2.684
  861SOL     OW  394   1.429   3.035   2.729
  861SOL    HW1  395   1.374   2.951   2.722
  861SOL    HW2  396   1.455   3.064   2.637
  862SOL     OW  397   1.466   2.452   2.854
  862SOL    HW1  398   1.436   2.357   2.861
  862SOL    HW2  399   1.539   2.468   2.920
  863SOL     OW  400   1.857   2.695   2.239
  863SOL    HW1  401   1.899   2.631   2.303
  863SOL    HW2  402   1.819   2.644   2.161
  865SOL     OW  403   1.664   3.142   2.519
  865SOL    HW1  404   1.763   3.150   2.533
  865SOL    HW2  405   1.619   3.226   2.550
  866SOL     OW  406   1.390   2.437   1.940
  866SOL    HW1  407   1.336   2.416   2.021
  866SOL    HW2  408   1.481   2.396   1.949
  868SOL     OW  409   1.754   3.085   3.450
  868SOL    HW1  410   1.845   3.046   3.437
  868SOL    HW2  411   1.762   3.181   3.474
  869SOL     OW  412   1.064   3.209   3.202
  869SOL    HW1  413   0.984   3.186   3.257
  869SOL    HW2  414   1.147   3.183   3.251
  870SOL     OW  415   1.592   3.491   3.487
  870SOL    HW1  416   1.619   3.525   3.397
  870SOL    HW2  417   1.671   3.453   3.533
  871SOL     OW  418   1.111   3.057   2.962
  871SOL    HW1  419   1.071   3.101   3.043
  871SOL    HW2  420   1.070   3.094   2.879
  872SOL     OW  421   1.638   2.961   2.941
  872SOL    HW1  422   1.643   3.042   3.000
  872SOL    HW2  423   1.552   2.963   2.890
  877SOL     OW  424   1.274   2.248   3.124
  877SOL    HW1  425   1.295   2.322   3.188
  877SOL    HW2  426   1.185   2.265   3.081
  881SOL     OW  427   1.252   3.210   2.250
  881SOL    HW1  428   1.302   3.287   2.290
  881SOL    HW2  429   1.157   3.212   2.282
  882SOL     OW  430   1.272   3.307   3.004
  882SOL    HW1  431   1.319   3.320   3.091
  882SOL    HW2  432   1.206   3.233   3.013
  883SOL     OW  433   1.582   2.501   2.334
  883SOL    HW1  434   1.551   2.562   2.407
  883SOL    HW2  435   1.632   2.553   2.265
  886SOL     OW  436   1.587   2.641   3.532
  886SOL    HW1  437   1.495   2.679   3.527
  886SOL    HW2  438   1.647   2.688   3.467
  890SOL     OW  439   1.360   2.724   2.907
  890SOL    HW1  440   1.285   2.724   2.841
  890SOL    HW2  441   1.397   2.632   2.916
  891SOL     OW  442   1.209   2.387   2.137
  891SOL    HW1  443   1.222   2.303   2.191
  891SOL    HW2  444   1.180   2.461   2.197
  894SOL     OW  445   0.732   2.496   2.926
  894SOL    HW1  446   0.791   2.470   2.850
  894SOL    HW2  447   0.704   2.592   2.915
  895SOL     OW  448   1.728   2.797   3.716
  895SOL    HW1  449   1.682   2.790   3.627
  895SOL    HW2  450   1.666   2.841   3.782
  897SOL     OW  451   1.622   2.229   2.236
  897SOL    HW1  452   1.624   2.153   2.300
  897SOL    HW2  453   1.574   2.306   2.276
  898SOL     OW  454   1.023   2.628   2.828
  898SOL    HW1  455   1.038   2.649   2.924
  898SOL    HW2  456   0.993   2.533   2.819
  900SOL     OW  457   1.859   3.380   3.467
  900SOL    HW1  458   1.873   3.407   3.372
  900SOL    HW2  459   1.942   3.402   3.520
  902SOL     OW  460   1.540   2.136   1.987
  902SOL    HW1  461   1.479   2.061   2.010
  902SOL    HW2  462   1.562   2.188   2.070
  903SOL     OW  463   1.303   2.700   1.904
  903SOL    HW1  464   1.337   2.607   1.919
  903SOL    HW2  465   1.321   2.727   1.809
  904SOL     OW  466   1.068   3.195   2.711
  904SOL    HW1  467   1.075   3.111   2.656
  904SOL    HW2  468   1.130   3.264   2.675
  907SOL     OW  469   1.138   2.242   3.540
  907SOL    HW1  470   1.093   2.305   3.604
  907SOL    HW2  471   1.231   2.273   3.523
  908SOL     OW  472   1.160   2.069   3.339
  908SOL    HW1  473   1.160   2.133   3.416
  908SOL    HW2  474   1.188   2.117   3.256
  912SOL     OW  475   1.002   2.658   3.100
  912SOL    HW1  476   1.043   2.626   3.186
  912SOL    HW2  477   0.906   2.631   3.097
  915SOL     OW  478   1.369   2.812   3.522
  915SOL    HW1  479   1.408   2.901   3.542
  915SOL    HW2  480   1.379   2.792   3.425
  916SOL     OW  481   0.815   2.434   2.187
  916SOL    HW1  482   0.822   2.345   2.141
  916SOL    HW2  483   0.721   2.468   2.179
  917SOL     OW  484   1.657   2.466   3.068
  917SOL    HW1  485   1.619   2.397   3.130
  917SOL    HW2  486   1.739   2.430   3.024
  923SOL     OW  487   1.347   2.921   3.096
  923SOL    HW1  488   1.371   2.858   3.022
  923SOL    HW2  489   1.257   2.961   3.078
  924SOL     OW  490   1.302   2.717   2.171
  924SOL    HW1  491   1.216   2.686   2.213
  924SOL    HW2  492   1.298   2.703   2.072
  925SOL     OW  493   1.759   3.609   3.016
  925SOL    HW1  494   1.820   3.639   2.943
  925SOL    HW2  495   1.721   3.520   2.994
  926SOL     OW  496   1.252   3.593   2.990
  926SOL    HW1  497   1.336   3.598   2.936
  926SOL    HW2  498   1.229   3.497   3.008
  929SOL     OW  499   1.726   1.997   2.385
  929SOL    HW1  500   1.799   1.980   2.318
  929SOL    HW2  501   1.695   1.910   2.423
  930SOL     OW  502   1.388   3.435   2.339
  930SOL    HW1  503   1.455   3.447   2.265
  930SOL    HW2  504   1.348   3.524   2.362
  932SOL     OW  505   1.280   2.789   2.534
  932SOL    HW1  506   1.340   2.708   2.536
  932SOL    HW2  507   1.320   2.858   2.474
  935SOL     OW  508   1.650   3.582   3.256
  935SOL    HW1  509   1.703   3.592   3.172
  935SOL    HW2  510   1.623   3.672   3.290
  936SOL     OW  511   1.841   2.037   2.825
  936SOL    HW1  512   1.880   1.952   2.789
  936SOL    HW2  513   1.743   2.039   2.806
  938SOL     OW  514   1.194   3.474   1.893
  938SOL    HW1  515   1.200   3.381   1.930
  938SOL    HW2  516   1.135   3.474   1.813
  940SOL     OW  517   0.916   2.772   2.153
  940SOL    HW1  518   0.979   2.810   2.085
  940SOL    HW2  519   0.956   2.689   2.192
  941SOL     OW  520   1.504   3.469   1.906
  941SOL    HW1  521   1.412   3.506   1.913
  941SOL    HW2  522   1.542   3.489   1.816
  943SOL     OW  523   1.614   3.154   3.151
  943SOL    HW1  524   1.674   3.157   3.231
  943SOL    HW2  525   1.539   3.218   3.164
  944SOL     OW  526   1.039   2.960   2.558
  944SOL    HW1  527   0.969   2.913   2.612
  944SOL    HW2  528   1.098   2.892   2.515
  945SOL     OW  529   1.014   2.098   2.833
  945SOL    HW1  530   1.006   2.062   2.740
  945SOL    HW2  531   1.012   2.022   2.898
  947SOL     OW  532   1.709   2.247   3.243
  947SOL    HW1  533   1.782   2.316   3.247
  947SOL    HW2  534   1.737   2.172   3.184
  952SOL     OW  535   1.440   2.718   3.260
  952SOL    HW1  536   1.383   2.770   3.197
  952SOL    HW2  537   1.536   2.730   3.236
  954SOL     OW  538   1.183   3.197   1.981
  954SOL    HW1  539   1.084   3.186   1.983
  954SOL    HW2  540   1.217   3.212   2.074
  956SOL     OW  541   1.493   3.629   2.821
  956SOL    HW1  542   1.526   3.693   2.752
  956SOL    HW2  543   1.559   3.623   2.896
  958SOL     OW  544   1.450   3.082   3.495
  958SOL    HW1  545   1.441   3.072   3.594
  958SOL    HW2  546   1.546   3.075   3.469
  960SOL     OW  547   1.674   2.745   3.116
  960SOL    HW1  548   1.647   2.656   3.079
  960SOL    HW2  549   1.675   2.813   3.043
  961SOL     OW  550   1.225   2.187   2.311
  961SOL    HW1  551   1.290   2.113   2.300
  961SOL    HW2  552   1.245   2.237   2.395
  963SOL     OW  553   1.777   2.204   3.504
  963SOL    HW1  554   1.760   2.235   3.410
  963SOL    HW2  555   1.693   2.167   3.542
  964SOL     OW  556   1.730   2.796   3.379
  964SOL    HW1  557   1.768   2.887   3.394
  964SOL    HW2  558   1.722   2.779   3.280
  967SOL     OW  559   0.859   2.818   2.723
  967SOL    HW1  560   0.913   2.749   2.771
  967SOL    HW2  561   0.827   2.887   2.789
  968SOL     OW  562   1.083   2.846   1.949
  968SOL    HW1  563   1.060   2.899   1.867
  968SOL    HW2  564   1.164   2.790   1.930
  969SOL     OW  565   1.861   3.431   2.713
  969SOL    HW1  566   1.790   3.419   2.643
  969SOL    HW2  567   1.862   3.352   2.773
  973SOL     OW  568   1.824   2.054   3.089
  973SOL    HW1  569   1.820   1.964   3.133
  973SOL    HW2  570   1.827   2.043   2.990
  975SOL     OW  571   1.705   3.349   2.966
  975SOL    HW1  572   1.612   3.324   2.939
  975SOL    HW2  573   1.731   3.299   3.048
  978SOL     OW  574   1.424   2.076   2.974
  978SOL    HW1  575   1.476   2.011   3.029
  978SOL    HW2  576   1.375   2.139   3.035
  979SOL     OW  577   1.001   1.896   3.016
  979SOL    HW1  578   0.938   1.824   2.985
  979SOL    HW2  579   1.094   1.860   3.016
  982SOL     OW  580   1.352   1.914   2.030
  982SOL    HW1  581   1.387   1.873   1.946
  982SOL    HW2  582   1.262   1.876   2.050
  983SOL     OW  583   1.300   2.315   2.553
  983SOL    HW1  584   1.241   2.395   2.557
  983SOL    HW2  585   1.315   2.280   2.646
  984SOL     OW  586   1.593   2.083   2.744
  984SOL    HW1  587   1.509   2.082   2.798
  984SOL    HW2  588   1.595   2.166   2.688
  993SOL     OW  589   1.755   2.469   3.955
  993SOL    HW1  590   1.743   2.456   3.856
  993SOL    HW2  591   1.725   2.388   4.004
 1010SOL     OW  592   1.525   2.861   3.914
 1010SOL    HW1  593   1.462   2.785   3.927
 1010SOL    HW2  594   1.573   2.879   4.000
 1027SOL     OW  595   1.632   3.239   3.805
 1027SOL    HW1  596   1.600   3.333   3.795
 1027SOL    HW2  597   1.556   3.176   3.793
 1037SOL     OW  598   1.434   3.050   3.765
 1037SOL    HW1  599   1.466   2.974   3.822
 1037SOL    HW2  600   1.342   3.077   3.795
 1048SOL     OW  601   1.857   2.695   4.101
 1048SOL    HW1  602   1.899   2.631   4.165
 1048SOL    HW2  603   1.819   2.644   4.023
 1051SOL     OW  604   1.390   2.437   3.802
 1051SOL    HW1  605   1.336   2.416   3.883
 1051SOL    HW2  606   1.481   2.396   3.811
 1069SOL     OW  607   1.540   2.136   3.849
 1069SOL    HW1  608   1.479   2.061   3.872
 1069SOL    HW2  609   1.562   2.188   3.932
 1070SOL     OW  610   1.303   2.700   3.766
 1070SOL    HW1  611   1.337   2.607   3.781
 1070SOL    HW2  612   1.321   2.727   3.671
 1299SOL     OW  613   1.400   3.831   2.288
 1299SOL    HW1  614   1.376   3.794   2.198
 1299SOL    HW2  615   1.499   3.847   2.292
 1363SOL     OW  616   1.726   3.859   2.385
 1363SOL    HW1  617   1.799   3.842   2.318
 1363SOL    HW2  618   1.695   3.772   2.423
 1365SOL     OW  619   1.841   3.899   2.825
 1365SOL    HW1  620   1.880   3.814   2.789
 1365SOL    HW2  621   1.743   3.901   2.806
 1389SOL     OW  622   1.824   3.916   3.089
 1389SOL    HW1  623   1.820   3.826   3.133
 1389SOL    HW2  624   1.827   3.905   2.990
 1395SOL     OW  625   1.352   3.776   2.030
 1395SOL    HW1  626   1.387   3.735   1.946
 1395SOL    HW2  627   1.262   3.738   2.050
 1397SOL     OW  628   1.593   3.945   2.744
 1397SOL    HW1  629   1.509   3.944   2.798
 1397SOL    HW2  630   1.595   4.028   2.688
 1495SOL     OW  631   2.431   1.275   1.165
 1495SOL    HW1  632   2.338   1.268   1.128
 1495SOL    HW2  633   2.442   1.364   1.209
 1502SOL     OW  634   2.548   1.161   1.803
 1502SOL    HW1  635   2.608   1.240   1.817
 1502SOL    HW2  636   2.462   1.192   1.762
 1503SOL     OW  637   2.197   1.435   1.061
 1503SOL    HW1  638   2.119   1.404   1.008
 1503SOL    HW2  639   2.255   1.493   1.004
 1504SOL     OW  640   3.322   1.505   1.339
 1504SOL    HW1  641   3.346   1.599   1.365
 1504SOL    HW2  642   3.306   1.451   1.421
 1508SOL     OW  643   2.989   1.341   1.690
 1508SOL    HW1  644   3.036   1.341   1.778
 1508SOL    HW2  645   2.941   1.254   1.679
 1511SOL     OW  646   2.482   1.786   1.439
 1511SOL    HW1  647   2.390   1.769   1.474
 1511SOL    HW2  648   2.510   1.878   1.465
 1521SOL     OW  649   3.155   1.228   1.423
 1521SOL    HW1  650   3.192   1.155   1.365
 1521SOL    HW2  651   3.207   1.233   1.508
 1525SOL     OW  652   3.049   1.792   1.616
 1525SOL    HW1  653   3.073   1.852   1.540
 1525SOL    HW2  654   3.056   1.697   1.586
 1538SOL     OW  655   1.992   1.821   1.571
 1538SOL    HW1  656   1.982   1.806   1.670
 1538SOL    HW2  657   1.906   1.857   1.535
 1544SOL     OW  658   2.213   1.801   0.853
 1544SOL    HW1  659   2.263   1.715   0.859
 1544SOL    HW2  660   2.278   1.878   0.850
 1546SOL     OW  661   3.089   1.550   1.506
 1546SOL    HW1  662   3.095   1.473   1.570
 1546SOL    HW2  663   3.037   1.524   1.426
 1549SOL     OW  664   2.323   1.266   1.727
 1549SOL    HW1  665   2.273   1.267   1.641
 1549SOL    HW2  666   2.260   1.248   1.803
 1555SOL     OW  667   2.111   1.785   1.241
 1555SOL    HW1  668   2.168   1.720   1.291
 1555SOL    HW2  669   2.095   1.752   1.148
 1556SOL     OW  670   2.802   1.698   0.904
 1556SOL    HW1  671   2.882   1.641   0.925
 1556SOL    HW2  672   2.753   1.658   0.827
 1561SOL     OW  673   2.750   1.514   1.195
 1561SOL    HW1  674   2.727   1.489   1.101
 1561SOL    HW2  675   2.811   1.445   1.234
 1586SOL     OW  676   2.926   1.347   1.340
 1586SOL    HW1  677   2.846   1.324   1.395
 1586SOL    HW2  678   3.009   1.321   1.389
 1587SOL     OW  679   3.454   1.629   1.625
 1587SOL    HW1  680   3.481   1.663   1.535
 1587SOL    HW2  681   3.533   1.591   1.671
 1591SOL     OW  682   2.842   1.116   1.719
 1591SOL    HW1  683   2.743   1.122   1.729
 1591SOL    HW2  684   2.865   1.036   1.663
 1595SOL     OW  685   1.926   1.564   1.331
 1595SOL    HW1  686   1.880   1.646   1.297
 1595SOL    HW2  687   2.024   1.583   1.340
 1599SOL     OW  688   3.134   1.445   1.142
 1599SOL    HW1  689   3.181   1.458   1.229
 1599SOL    HW2  690   3.068   1.371   1.151
 1601SOL     OW  691   2.216   1.510   1.329
 1601SOL    HW1  692   2.195   1.466   1.242
 1601SOL    HW2  693   2.313   1.536   1.332
 1610SOL     OW  694   1.899   1.310   1.282
 1610SOL    HW1  695   1.952   1.261   1.350
 1610SOL    HW2  696   1.921   1.408   1.287
 1616SOL     OW  697   2.842   1.573   1.700
 1616SOL    HW1  698   2.822   1.617   1.612
 1616SOL    HW2  699   2.881   1.482   1.684
 1617SOL     OW  700   3.721   1.518   1.605
 1617SOL    HW1  701   3.735   1.545   1.510
 1617SOL    HW2  702   3.804   1.540   1.658
 1618SOL     OW  703   2.212   0.898   1.804
 1618SOL    HW1  704   2.288   0.942   1.852
 1618SOL    HW2  705   2.247   0.851   1.722
 1627SOL     OW  706   1.950   1.801   0.927
 1627SOL    HW1  707   1.908   1.715   0.900
 1627SOL    HW2  708   2.044   1.804   0.893
 1628SOL     OW  709   2.366   1.568   0.910
 1628SOL    HW1  710   2.432   1.642   0.919
 1628SOL    HW2  711   2.410   1.489   0.868
 1635SOL     OW  712   2.114   1.564   1.744
 1635SOL    HW1  713   2.084   1.621   1.820
 1635SOL    HW2  714   2.107   1.467   1.770
 1637SOL     OW  715   2.792   1.678   1.465
 1637SOL    HW1  716   2.768   1.660   1.370
 1637SOL    HW2  717   2.822   1.772   1.475
 1639SOL     OW  718   2.021   1.137   1.466
 1639SOL    HW1  719   2.043   1.076   1.542
 1639SOL    HW2  720   2.031   1.088   1.380
 1643SOL     OW  721   3.114   1.731   1.128
 1643SOL    HW1  722   3.198   1.736   1.074
 1643SOL    HW2  723   3.091   1.635   1.146
 1645SOL     OW  724   2.550   1.662   1.716
 1645SOL    HW1  725   2.494   1.743   1.725
 1645SOL    HW2  726   2.602   1.666   1.630
 1649SOL     OW  727   1.992   1.794   1.851
 1649SOL    HW1  728   1.951   1.720   1.904
 1649SOL    HW2  729   2.056   1.845   1.909
 1651SOL     OW  730   2.692   1.273   1.422
 1651SOL    HW1  731   2.687   1.306   1.517
 1651SOL    HW2  732   2.606   1.292   1.376
 1653SOL     OW  733   3.512   1.720   1.394
 1653SOL    HW1  734   3.565   1.730   1.310
 1653SOL    HW2  735   3.485   1.810   1.428
 1660SOL     OW  736   2.234   1.288   1.490
 1660SOL    HW1  737   2.221   1.381   1.456
 1660SOL    HW2  738   2.150   1.236   1.477
 1667SOL     OW  739   1.967   1.013   1.726
 1667SOL    HW1  740   1.890   0.980   1.780
 1667SOL    HW2  741   2.052   0.983   1.768
 1675SOL     OW  742   3.312   1.220   1.633
 1675SOL    HW1  743   3.303   1.210   1.732
 1675SOL    HW2  744   3.408   1.213   1.607
 1676SOL     OW  745   2.252   1.741   1.560
 1676SOL    HW1  746   2.161   1.782   1.558
 1676SOL    HW2  747   2.245   1.647   1.592
 1683SOL     OW  748   2.523   1.790   0.953
 1683SOL    HW1  749   2.477   1.878   0.940
 1683SOL    HW2  750   2.622   1.802   0.946
 1687SOL     OW  751   2.083   1.314   1.844
 1687SOL    HW1  752   2.018   1.241   1.823
 1687SOL    HW2  753   2.087   1.328   1.942
 1689SOL     OW  754   2.534   1.391   1.624
 1689SOL    HW1  755   2.456   1.341   1.662
 1689SOL    HW2  756   2.531   1.486   1.655
 1698SOL     OW  757   2.480   1.567   1.284
 1698SOL    HW1  758   2.475   1.649   1.341
 1698SOL    HW2  759   2.569   1.564   1.239
 1707SOL     OW  760   2.431   1.275   3.027
 1707SOL    HW1  761   2.338   1.268   2.990
 1707SOL    HW2  762   2.442   1.364   3.071
 1708SOL     OW  763   3.417   1.511   2.565
 1708SOL    HW1  764   3.360   1.495   2.646
 1708SOL    HW2  765   3.358   1.521   2.485
 1711SOL     OW  766   2.630   1.144   2.885
 1711SOL    HW1  767   2.552   1.161   2.945
 1711SOL    HW2  768   2.664   1.231   2.849
 1713SOL     OW  769   2.547   1.012   2.527
 1713SOL    HW1  770   2.616   0.996   2.597
 1713SOL    HW2  771   2.474   1.069   2.565
 1714SOL     OW  772   2.548   1.161   3.665
 1714SOL    HW1  773   2.608   1.240   3.679
 1714SOL    HW2  774   2.462   1.192   3.624
 1715SOL     OW  775   2.197   1.435   2.923
 1715SOL    HW1  776   2.119   1.404   2.870
 1715SOL    HW2  777   2.255   1.493   2.866
 1716SOL     OW  778   3.322   1.505   3.201
 1716SOL    HW1  779   3.346   1.599   3.227
 1716SOL    HW2  780   3.306   1.451   3.283
 1719SOL     OW  781   2.093   1.713   2.345
 1719SOL    HW1  782   2.127   1.790   2.399
 1719SOL    HW2  783   2.137   1.713   2.255
 1720SOL     OW  784   2.989   1.341   3.552
 1720SOL    HW1  785   3.036   1.341   3.640
 1720SOL    HW2  786   2.941   1.254   3.541
 1721SOL     OW  787   2.092   1.434   2.400
 1721SOL    HW1  788   2.066   1.530   2.400
 1721SOL    HW2  789   2.021   1.380   2.445
 1722SOL     OW  790   2.102   1.091   2.748
 1722SOL    HW1  791   2.116   1.007   2.800
 1722SOL    HW2  792   2.047   1.155   2.803
 1723SOL     OW  793   2.482   1.786   3.301
 1723SOL    HW1  794   2.390   1.769   3.336
 1723SOL    HW2  795   2.510   1.878   3.327
 1724SOL     OW  796   2.468   0.964   1.985
 1724SOL    HW1  797   2.475   1.048   1.931
 1724SOL    HW2  798   2.514   0.977   2.073
 1727SOL     OW  799   3.704   1.767   2.221
 1727SOL    HW1  800   3.758   1.738   2.301
 1727SOL    HW2  801   3.734   1.857   2.192
 1728SOL     OW  802   1.889   1.596   1.979
 1728SOL    HW1  803   1.870   1.500   2.000
 1728SOL    HW2  804   1.856   1.654   2.054
 1730SOL     OW  805   3.503   1.108   2.294
 1730SOL    HW1  806   3.589   1.110   2.242
 1730SOL    HW2  807   3.517   1.155   2.382
 1732SOL     OW  808   2.475   1.365   2.588
 1732SOL    HW1  809   2.426   1.278   2.597
 1732SOL    HW2  810   2.452   1.408   2.501
 1733SOL     OW  811   3.155   1.228   3.285
 1733SOL    HW1  812   3.192   1.155   3.227
 1733SOL    HW2  813   3.207   1.233   3.370
 1735SOL     OW  814   2.059   0.976   3.126
 1735SOL    HW1  815   2.148   0.931   3.112
 1735SOL    HW2  816   1.986   0.911   3.107
 1736SOL     OW  817   3.387   0.999   2.052
 1736SOL    HW1  818   3.324   0.923   2.065
 1736SOL    HW2  819   3.435   1.017   2.138
 1737SOL     OW  820   3.049   1.792   3.478
 1737SOL    HW1  821   3.073   1.852   3.402
 1737SOL    HW2  822   3.056   1.697   3.448
 1739SOL     OW  823   3.328   1.417   2.815
 1739SOL    HW1  824   3.269   1.423   2.895
 1739SOL    HW2  825   3.313   1.329   2.769
 1740SOL     OW  826   3.529   1.714   2.434
 1740SOL    HW1  827   3.488   1.691   2.346
 1740SOL    HW2  828   3.511   1.640   2.499
 1741SOL     OW  829   2.460   0.729   2.132
 1741SOL    HW1  830   2.484   0.798   2.064
 1741SOL    HW2  831   2.382   0.762   2.186
 1743SOL     OW  832   3.438   1.662   2.169
 1743SOL    HW1  833   3.527   1.708   2.172
 1743SOL    HW2  834   3.417   1.638   2.074
 1749SOL     OW  835   1.938   0.811   2.651
 1749SOL    HW1  836   2.037   0.799   2.660
 1749SOL    HW2  837   1.914   0.906   2.672
 1750SOL     OW  838   1.992   1.821   3.433
 1750SOL    HW1  839   1.982   1.806   3.532
 1750SOL    HW2  840   1.906   1.857   3.397
 1753SOL     OW  841   3.224   1.144   2.407
 1753SOL    HW1  842   3.307   1.115   2.359
 1753SOL    HW2  843   3.175   1.211   2.351
 1755SOL     OW  844   2.870   1.456   2.339
 1755SOL    HW1  845   2.824   1.528   2.287
 1755SOL    HW2  846   2.866   1.476   2.437
 1756SOL     OW  847   2.213   1.801   2.715
 1756SOL    HW1  848   2.263   1.715   2.721
 1756SOL    HW2  849   2.278   1.878   2.712
 1758SOL     OW  850   3.089   1.550   3.368
 1758SOL    HW1  851   3.095   1.473   3.432
 1758SOL    HW2  852   3.037   1.524   3.288
 1759SOL     OW  853   2.183   0.943   2.104
 1759SOL    HW1  854   2.265   0.982   2.062
 1759SOL    HW2  855   2.156   0.861   2.055
 1761SOL     OW  856   2.323   1.266   3.589
 1761SOL    HW1  857   2.273   1.267   3.503
 1761SOL    HW2  858   2.260   1.248   3.665
 1762SOL     OW  859   2.973   1.776   2.099
 1762SOL    HW1  860   2.913   1.714   2.149
 1762SOL    HW2  861   3.004   1.732   2.014
 1764SOL     OW  862   3.494   1.377   1.943
 1764SOL    HW1  863   3.462   1.471   1.933
 1764SOL    HW2  864   3.418   1.314   1.931
 1765SOL     OW  865   2.326   1.743   2.185
 1765SOL    HW1  866   2.359   1.782   2.271
 1765SOL    HW2  867   2.402   1.736   2.120
 1767SOL     OW  868   2.111   1.785   3.103
 1767SOL    HW1  869   2.168   1.720   3.153
 1767SOL    HW2  870   2.095   1.752   3.010
 1768SOL     OW  871   2.802   1.698   2.766
 1768SOL    HW1  872   2.882   1.641   2.787
 1768SOL    HW2  873   2.753   1.658   2.689
 1769SOL     OW  874   2.244   0.700   2.342
 1769SOL    HW1  875   2.289   0.610   2.339
 1769SOL    HW2  876   2.150   0.689   2.375
 1773SOL     OW  877   2.750   1.514   3.057
 1773SOL    HW1  878   2.727   1.489   2.963
 1773SOL    HW2  879   2.811   1.445   3.096
 1775SOL     OW  880   2.665   1.402   2.786
 1775SOL    HW1  881   2.755   1.416   2.744
 1775SOL    HW2  882   2.594   1.404   2.715
 1778SOL     OW  883   3.296   1.188   1.903
 1778SOL    HW1  884   3.328   1.112   1.960
 1778SOL    HW2  885   3.204   1.215   1.933
 1782SOL     OW  886   3.089   1.570   2.655
 1782SOL    HW1  887   3.110   1.644   2.590
 1782SOL    HW2  888   3.157   1.570   2.728
 1783SOL     OW  889   2.321   1.152   2.603
 1783SOL    HW1  890   2.250   1.125   2.668
 1783SOL    HW2  891   2.295   1.124   2.510
 1784SOL     OW  892   3.133   1.797   2.453
 1784SOL    HW1  893   3.177   1.861   2.389
 1784SOL    HW2  894   3.083   1.849   2.523
 1790SOL     OW  895   3.291   1.173   2.729
 1790SOL    HW1  896   3.236   1.089   2.722
 1790SOL    HW2  897   3.317   1.202   2.637
 1793SOL     OW  898   2.350   1.385   2.036
 1793SOL    HW1  899   2.263   1.370   2.083
 1793SOL    HW2  900   2.333   1.411   1.941
 1794SOL     OW  901   3.526   1.280   2.519
 1794SOL    HW1  902   3.625   1.288   2.533
 1794SOL    HW2  903   3.481   1.364   2.550
 1798SOL     OW  904   2.926   1.347   3.202
 1798SOL    HW1  905   2.846   1.324   3.257
 1798SOL    HW2  906   3.009   1.321   3.251
 1799SOL     OW  907   3.454   1.629   3.487
 1799SOL    HW1  908   3.481   1.663   3.397
 1799SOL    HW2  909   3.533   1.591   3.533
 1800SOL     OW  910   2.973   1.195   2.962
 1800SOL    HW1  911   2.933   1.239   3.043
 1800SOL    HW2  912   2.932   1.232   2.879
 1801SOL     OW  913   3.500   1.099   2.941
 1801SOL    HW1  914   3.505   1.180   3.000
 1801SOL    HW2  915   3.414   1.101   2.890
 1803SOL     OW  916   2.842   1.116   3.581
 1803SOL    HW1  917   2.743   1.122   3.591
 1803SOL    HW2  918   2.865   1.036   3.525
 1804SOL     OW  919   2.567   1.050   2.230
 1804SOL    HW1  920   2.553   1.057   2.329
 1804SOL    HW2  921   2.651   0.999   2.212
 1805SOL     OW  922   2.272   0.813   3.113
 1805SOL    HW1  923   2.358   0.825   3.163
 1805SOL    HW2  924   2.230   0.726   3.140
 1807SOL     OW  925   1.926   1.564   3.193
 1807SOL    HW1  926   1.880   1.646   3.159
 1807SOL    HW2  927   2.024   1.583   3.202
 1808SOL     OW  928   2.229   1.100   2.363
 1808SOL    HW1  929   2.222   1.183   2.307
 1808SOL    HW2  930   2.233   1.020   2.303
 1810SOL     OW  931   3.114   1.348   2.250
 1810SOL    HW1  932   3.164   1.425   2.290
 1810SOL    HW2  933   3.019   1.350   2.282
 1811SOL     OW  934   3.134   1.445   3.004
 1811SOL    HW1  935   3.181   1.458   3.091
 1811SOL    HW2  936   3.068   1.371   3.013
 1813SOL     OW  937   2.216   1.510   3.191
 1813SOL    HW1  938   2.195   1.466   3.104
 1813SOL    HW2  939   2.313   1.536   3.194
 1818SOL     OW  940   2.435   0.870   2.891
 1818SOL    HW1  941   2.479   0.959   2.882
 1818SOL    HW2  942   2.372   0.870   2.968
 1822SOL     OW  943   1.899   1.310   3.144
 1822SOL    HW1  944   1.952   1.261   3.212
 1822SOL    HW2  945   1.921   1.408   3.149
 1827SOL     OW  946   2.885   0.766   2.828
 1827SOL    HW1  947   2.900   0.787   2.924
 1827SOL    HW2  948   2.855   0.671   2.819
 1828SOL     OW  949   2.842   1.573   3.562
 1828SOL    HW1  950   2.822   1.617   3.474
 1828SOL    HW2  951   2.881   1.482   3.546
 1833SOL     OW  952   2.930   1.333   2.711
 1833SOL    HW1  953   2.937   1.249   2.656
 1833SOL    HW2  954   2.992   1.402   2.675
 1834SOL     OW  955   2.181   0.810   2.811
 1834SOL    HW1  956   2.274   0.846   2.816
 1834SOL    HW2  957   2.175   0.725   2.863
 1838SOL     OW  958   1.870   1.326   2.062
 1838SOL    HW1  959   1.777   1.347   2.031
 1838SOL    HW2  960   1.880   1.227   2.075
 1839SOL     OW  961   1.950   1.801   2.789
 1839SOL    HW1  962   1.908   1.715   2.762
 1839SOL    HW2  963   2.044   1.804   2.755
 1840SOL     OW  964   2.366   1.568   2.772
 1840SOL    HW1  965   2.432   1.642   2.781
 1840SOL    HW2  966   2.410   1.489   2.730
 1847SOL     OW  967   2.114   1.564   3.606
 1847SOL    HW1  968   2.084   1.621   3.682
 1847SOL    HW2  969   2.107   1.467   3.632
 1849SOL     OW  970   2.792   1.678   3.327
 1849SOL    HW1  971   2.768   1.660   3.232
 1849SOL    HW2  972   2.822   1.772   3.337
 1851SOL     OW  973   2.021   1.137   3.328
 1851SOL    HW1  974   2.043   1.076   3.404
 1851SOL    HW2  975   2.031   1.088   3.242
 1852SOL     OW  976   3.209   1.059   3.096
 1852SOL    HW1  977   3.233   0.996   3.022
 1852SOL    HW2  978   3.119   1.099   3.078
 1853SOL     OW  979   3.164   0.855   2.171
 1853SOL    HW1  980   3.078   0.824   2.213
 1853SOL    HW2  981   3.160   0.841   2.072
 1854SOL     OW  982   3.621   1.747   3.016
 1854SOL    HW1  983   3.682   1.777   2.943
 1854SOL    HW2  984   3.583   1.658   2.994
 1855SOL     OW  985   3.114   1.731   2.990
 1855SOL    HW1  986   3.198   1.736   2.936
 1855SOL    HW2  987   3.091   1.635   3.008
 1856SOL     OW  988   1.945   1.258   2.884
 1856SOL    HW1  989   1.940   1.257   2.984
 1856SOL    HW2  990   1.862   1.217   2.846
 1857SOL     OW  991   2.550   1.662   3.578
 1857SOL    HW1  992   2.494   1.743   3.587
 1857SOL    HW2  993   2.602   1.666   3.492
 1859SOL     OW  994   3.250   1.573   2.339
 1859SOL    HW1  995   3.317   1.585   2.265
 1859SOL    HW2  996   3.210   1.662   2.362
 1860SOL     OW  997   1.992   1.794   3.713
 1860SOL    HW1  998   1.951   1.720   3.766
 1860SOL    HW2  999   2.056   1.845   3.771
 1861SOL     OW 1000   3.142   0.927   2.534
 1861SOL    HW1 1001   3.202   0.846   2.536
 1861SOL    HW2 1002   3.182   0.996   2.474
 1862SOL     OW 1003   2.692   1.273   3.284
 1862SOL    HW1 1004   2.687   1.306   3.379
 1862SOL    HW2 1005   2.606   1.292   3.238
 1863SOL     OW 1006   2.534   1.616   2.016
 1863SOL    HW1 1007   2.543   1.626   1.917
 1863SOL    HW2 1008   2.494   1.527   2.037
 1864SOL     OW 1009   3.512   1.720   3.256
 1864SOL    HW1 1010   3.565   1.730   3.172
 1864SOL    HW2 1011   3.485   1.810   3.290
 1867SOL     OW 1012   3.056   1.612   1.893
 1867SOL    HW1 1013   3.062   1.519   1.930
 1867SOL    HW2 1014   2.997   1.612   1.813
 1868SOL     OW 1015   2.684   1.002   3.234
 1868SOL    HW1 1016   2.724   1.001   3.142
 1868SOL    HW2 1017   2.694   1.094   3.274
 1869SOL     OW 1018   2.778   0.910   2.153
 1869SOL    HW1 1019   2.841   0.948   2.085
 1869SOL    HW2 1020   2.818   0.827   2.192
 1870SOL     OW 1021   3.366   1.607   1.906
 1870SOL    HW1 1022   3.274   1.644   1.913
 1870SOL    HW2 1023   3.404   1.627   1.816
 1871SOL     OW 1024   2.234   1.288   3.352
 1871SOL    HW1 1025   2.221   1.381   3.318
 1871SOL    HW2 1026   2.150   1.236   3.339
 1872SOL     OW 1027   3.476   1.292   3.151
 1872SOL    HW1 1028   3.536   1.295   3.231
 1872SOL    HW2 1029   3.401   1.356   3.164
 1873SOL     OW 1030   2.901   1.098   2.558
 1873SOL    HW1 1031   2.831   1.051   2.612
 1873SOL    HW2 1032   2.960   1.030   2.515
 1875SOL     OW 1033   2.452   1.487   2.353
 1875SOL    HW1 1034   2.494   1.429   2.283
 1875SOL    HW2 1035   2.408   1.566   2.309
 1877SOL     OW 1036   2.117   1.348   2.152
 1877SOL    HW1 1037   2.021   1.349   2.125
 1877SOL    HW2 1038   2.129   1.401   2.236
 1883SOL     OW 1039   3.045   1.335   1.981
 1883SOL    HW1 1040   2.946   1.324   1.983
 1883SOL    HW2 1041   3.079   1.350   2.074
 1885SOL     OW 1042   3.355   1.767   2.821
 1885SOL    HW1 1043   3.388   1.831   2.752
 1885SOL    HW2 1044   3.421   1.761   2.896
 1888SOL     OW 1045   2.252   1.741   3.422
 1888SOL    HW1 1046   2.161   1.782   3.420
 1888SOL    HW2 1047   2.245   1.647   3.454
 1891SOL     OW 1048   2.456   0.745   2.514
 1891SOL    HW1 1049   2.506   0.830   2.495
 1891SOL    HW2 1050   2.368   0.747   2.466
 1894SOL     OW 1051   2.721   1.374   1.878
 1894SOL    HW1 1052   2.675   1.389   1.966
 1894SOL    HW2 1053   2.765   1.459   1.848
 1895SOL     OW 1054   2.523   1.790   2.815
 1895SOL    HW1 1055   2.477   1.878   2.802
 1895SOL    HW2 1056   2.622   1.802   2.808
 1896SOL     OW 1057   2.721   0.956   2.723
 1896SOL    HW1 1058   2.775   0.887   2.771
 1896SOL    HW2 1059   2.689   1.025   2.789
 1897SOL     OW 1060   2.945   0.984   1.949
 1897SOL    HW1 1061   2.922   1.037   1.867
 1897SOL    HW2 1062   3.026   0.928   1.930
 1898SOL     OW 1063   3.723   1.569   2.713
 1898SOL    HW1 1064   3.652   1.557   2.643
 1898SOL    HW2 1065   3.724   1.490   2.773
 1899SOL     OW 1066   2.083   1.314   3.706
 1899SOL    HW1 1067   2.018   1.241   3.685
 1899SOL    HW2 1068   2.087   1.328   3.804
 1900SOL     OW 1069   1.941   1.240   2.515
 1900SOL    HW1 1070   1.940   1.193   2.603
 1900SOL    HW2 1071   2.023   1.212   2.464
 1901SOL     OW 1072   2.534   1.391   3.486
 1901SOL    HW1 1073   2.456   1.341   3.524
 1901SOL    HW2 1074   2.531   1.486   3.517
 1904SOL     OW 1075   3.567   1.487   2.966
 1904SOL    HW1 1076   3.474   1.462   2.939
 1904SOL    HW2 1077   3.593   1.437   3.048
 1906SOL     OW 1078   2.674   1.586   2.549
 1906SOL    HW1 1079   2.706   1.596   2.455
 1906SOL    HW2 1080   2.595   1.524   2.551
 1909SOL     OW 1081   2.632   1.330   2.163
 1909SOL    HW1 1082   2.586   1.243   2.180
 1909SOL    HW2 1083   2.723   1.327   2.204
 1910SOL     OW 1084   2.480   1.567   3.146
 1910SOL    HW1 1085   2.475   1.649   3.203
 1910SOL    HW2 1086   2.569   1.564   3.101
 1914SOL     OW 1087   1.901   1.077   2.162
 1914SOL    HW1 1088   2.000   1.066   2.153
 1914SOL    HW2 1089   1.861   0.991   2.194
 1915SOL     OW 1090   2.737   1.646   2.199
 1915SOL    HW1 1091   2.660   1.611   2.145
 1915SOL    HW2 1092   2.705   1.717   2.261
 1933SOL     OW 1093   1.889   1.596   3.841
 1933SOL    HW1 1094   1.870   1.500   3.862
 1933SOL    HW2 1095   1.856   1.654   3.916
 1955SOL     OW 1096   2.973   1.776   3.961
 1955SOL    HW1 1097   2.913   1.714   4.011
 1955SOL    HW2 1098   3.004   1.732   3.876
 1957SOL     OW 1099   2.326   1.743   4.047
 1957SOL    HW1 1100   2.359   1.782   4.133
 1957SOL    HW2 1101   2.402   1.736   3.982
 1978SOL     OW 1102   2.350   1.385   3.898
 1978SOL    HW1 1103   2.263   1.370   3.945
 1978SOL    HW2 1104   2.333   1.411   3.803
 2018SOL     OW 1105   2.534   1.616   3.878
 2018SOL    HW1 1106   2.543   1.626   3.779
 2018SOL    HW2 1107   2.494   1.527   3.899
 2021SOL     OW 1108   3.056   1.612   3.755
 2021SOL    HW1 1109   3.062   1.519   3.792
 2021SOL    HW2 1110   2.997   1.612   3.675
 2036SOL     OW 1111   2.721   1.374   3.740
 2036SOL    HW1 1112   2.675   1.389   3.828
 2036SOL    HW2 1113   2.765   1.459   3.710
 2053SOL     OW 1114   2.087   2.137   0.996
 2053SOL    HW1 1115   2.122   2.120   1.088
 2053SOL    HW2 1116   1.999   2.092   0.984
 2055SOL     OW 1117   2.431   3.137   1.165
 2055SOL    HW1 1118   2.338   3.130   1.128
 2055SOL    HW2 1119   2.442   3.226   1.209
 2059SOL     OW 1120   2.630   3.006   1.023
 2059SOL    HW1 1121   2.552   3.023   1.083
 2059SOL    HW2 1122   2.664   3.093   0.987
 2060SOL     OW 1123   2.712   2.660   1.823
 2060SOL    HW1 1124   2.708   2.736   1.888
 2060SOL    HW2 1125   2.734   2.696   1.732
 2062SOL     OW 1126   2.548   3.023   1.803
 2062SOL    HW1 1127   2.608   3.102   1.817
 2062SOL    HW2 1128   2.462   3.054   1.762
 2063SOL     OW 1129   2.197   3.297   1.061
 2063SOL    HW1 1130   2.119   3.266   1.008
 2063SOL    HW2 1131   2.255   3.355   1.004
 2064SOL     OW 1132   3.322   3.367   1.339
 2064SOL    HW1 1133   3.346   3.461   1.365
 2064SOL    HW2 1134   3.306   3.313   1.421
 2065SOL     OW 1135   2.300   2.254   1.499
 2065SOL    HW1 1136   2.382   2.198   1.508
 2065SOL    HW2 1137   2.219   2.196   1.503
 2068SOL     OW 1138   2.989   3.203   1.690
 2068SOL    HW1 1139   3.036   3.203   1.778
 2068SOL    HW2 1140   2.941   3.116   1.679
 2070SOL     OW 1141   2.102   2.953   0.886
 2070SOL    HW1 1142   2.116   2.869   0.938
 2070SOL    HW2 1143   2.047   3.017   0.941
 2071SOL     OW 1144   2.482   3.648   1.439
 2071SOL    HW1 1145   2.390   3.631   1.474
 2071SOL    HW2 1146   2.510   3.740   1.465
 2073SOL     OW 1147   3.456   1.976   1.480
 2073SOL    HW1 1148   3.438   2.043   1.408
 2073SOL    HW2 1149   3.453   2.022   1.569
 2079SOL     OW 1150   1.975   2.599   1.597
 2079SOL    HW1 1151   2.063   2.586   1.642
 2079SOL    HW2 1152   1.962   2.696   1.575
 2081SOL     OW 1153   3.155   3.090   1.423
 2081SOL    HW1 1154   3.192   3.017   1.365
 2081SOL    HW2 1155   3.207   3.095   1.508
 2083SOL     OW 1156   2.059   2.838   1.264
 2083SOL    HW1 1157   2.148   2.793   1.250
 2083SOL    HW2 1158   1.986   2.773   1.245
 2085SOL     OW 1159   3.049   3.654   1.616
 2085SOL    HW1 1160   3.073   3.714   1.540
 2085SOL    HW2 1161   3.056   3.559   1.586
 2086SOL     OW 1162   2.179   2.113   1.801
 2086SOL    HW1 1163   2.250   2.184   1.807
 2086SOL    HW2 1164   2.091   2.152   1.829
 2090SOL     OW 1165   3.143   2.207   0.944
 2090SOL    HW1 1166   3.057   2.157   0.931
 2090SOL    HW2 1167   3.205   2.153   1.000
 2092SOL     OW 1168   2.669   2.467   1.465
 2092SOL    HW1 1169   2.622   2.464   1.554
 2092SOL    HW2 1170   2.618   2.412   1.399
 2093SOL     OW 1171   3.256   2.331   1.674
 2093SOL    HW1 1172   3.236   2.374   1.762
 2093SOL    HW2 1173   3.334   2.269   1.683
 2094SOL     OW 1174   2.835   2.752   1.572
 2094SOL    HW1 1175   2.881   2.668   1.543
 2094SOL    HW2 1176   2.779   2.786   1.497
 2095SOL     OW 1177   2.853   2.272   1.242
 2095SOL    HW1 1178   2.776   2.306   1.296
 2095SOL    HW2 1179   2.819   2.221   1.163
 2097SOL     OW 1180   1.938   2.673   0.789
 2097SOL    HW1 1181   2.037   2.661   0.798
 2097SOL    HW2 1182   1.914   2.768   0.810
 2098SOL     OW 1183   1.992   3.683   1.571
 2098SOL    HW1 1184   1.982   3.668   1.670
 2098SOL    HW2 1185   1.906   3.719   1.535
 2100SOL     OW 1186   3.581   2.447   1.831
 2100SOL    HW1 1187   3.555   2.536   1.795
 2100SOL    HW2 1188   3.579   2.379   1.758
 2102SOL     OW 1189   2.412   2.058   0.885
 2102SOL    HW1 1190   2.407   2.053   0.985
 2102SOL    HW2 1191   2.414   2.154   0.856
 2106SOL     OW 1192   3.089   3.412   1.506
 2106SOL    HW1 1193   3.095   3.335   1.570
 2106SOL    HW2 1194   3.037   3.386   1.426
 2109SOL     OW 1195   2.323   3.128   1.727
 2109SOL    HW1 1196   2.273   3.129   1.641
 2109SOL    HW2 1197   2.260   3.110   1.803
 2111SOL     OW 1198   2.064   2.147   1.498
 2111SOL    HW1 1199   1.984   2.207   1.485
 2111SOL    HW2 1200   2.054   2.098   1.584
 2115SOL     OW 1201   2.111   3.647   1.241
 2115SOL    HW1 1202   2.168   3.582   1.291
 2115SOL    HW2 1203   2.095   3.614   1.148
 2118SOL     OW 1204   3.409   2.084   1.729
 2118SOL    HW1 1205   3.404   2.121   1.821
 2118SOL    HW2 1206   3.337   2.015   1.717
 2120SOL     OW 1207   2.643   2.126   1.749
 2120SOL    HW1 1208   2.710   2.065   1.792
 2120SOL    HW2 1209   2.570   2.145   1.814
 2121SOL     OW 1210   2.750   3.376   1.195
 2121SOL    HW1 1211   2.727   3.351   1.101
 2121SOL    HW2 1212   2.811   3.307   1.234
 2122SOL     OW 1213   3.213   2.452   1.433
 2122SOL    HW1 1214   3.241   2.409   1.518
 2122SOL    HW2 1215   3.238   2.548   1.434
 2123SOL     OW 1216   2.665   3.264   0.924
 2123SOL    HW1 1217   2.755   3.278   0.882
 2123SOL    HW2 1218   2.594   3.266   0.853
 2124SOL     OW 1219   2.784   2.365   0.899
 2124SOL    HW1 1220   2.759   2.356   0.803
 2124SOL    HW2 1221   2.832   2.283   0.930
 2129SOL     OW 1222   2.938   2.545   1.464
 2129SOL    HW1 1223   2.858   2.484   1.467
 2129SOL    HW2 1224   3.019   2.492   1.440
 2134SOL     OW 1225   1.940   2.418   1.386
 2134SOL    HW1 1226   2.032   2.417   1.345
 2134SOL    HW2 1227   1.934   2.492   1.453
 2135SOL     OW 1228   2.423   2.084   1.147
 2135SOL    HW1 1229   2.461   2.000   1.184
 2135SOL    HW2 1230   2.335   2.103   1.191
 2139SOL     OW 1231   3.328   2.452   0.992
 2139SOL    HW1 1232   3.298   2.357   0.999
 2139SOL    HW2 1233   3.401   2.468   1.058
 2145SOL     OW 1234   3.616   3.085   1.588
 2145SOL    HW1 1235   3.707   3.046   1.575
 2145SOL    HW2 1236   3.624   3.181   1.612
 2146SOL     OW 1237   2.926   3.209   1.340
 2146SOL    HW1 1238   2.846   3.186   1.395
 2146SOL    HW2 1239   3.009   3.183   1.389
 2147SOL     OW 1240   3.454   3.491   1.625
 2147SOL    HW1 1241   3.481   3.525   1.535
 2147SOL    HW2 1242   3.533   3.453   1.671
 2148SOL     OW 1243   2.973   3.057   1.100
 2148SOL    HW1 1244   2.933   3.101   1.181
 2148SOL    HW2 1245   2.932   3.094   1.017
 2149SOL     OW 1246   3.500   2.961   1.079
 2149SOL    HW1 1247   3.505   3.042   1.138
 2149SOL    HW2 1248   3.414   2.963   1.028
 2150SOL     OW 1249   2.777   1.951   1.402
 2150SOL    HW1 1250   2.802   1.931   1.307
 2150SOL    HW2 1251   2.849   2.007   1.444
 2151SOL     OW 1252   2.842   2.978   1.719
 2151SOL    HW1 1253   2.743   2.984   1.729
 2151SOL    HW2 1254   2.865   2.898   1.663
 2153SOL     OW 1255   2.272   2.675   1.251
 2153SOL    HW1 1256   2.358   2.687   1.301
 2153SOL    HW2 1257   2.230   2.588   1.278
 2154SOL     OW 1258   3.136   2.248   1.262
 2154SOL    HW1 1259   3.157   2.322   1.326
 2154SOL    HW2 1260   3.047   2.265   1.219
 2155SOL     OW 1261   1.926   3.426   1.331
 2155SOL    HW1 1262   1.880   3.508   1.297
 2155SOL    HW2 1263   2.024   3.445   1.340
 2157SOL     OW 1264   2.428   2.399   0.865
 2157SOL    HW1 1265   2.440   2.465   0.791
 2157SOL    HW2 1266   2.474   2.433   0.948
 2159SOL     OW 1267   3.134   3.307   1.142
 2159SOL    HW1 1268   3.181   3.320   1.229
 2159SOL    HW2 1269   3.068   3.233   1.151
 2161SOL     OW 1270   2.216   3.372   1.329
 2161SOL    HW1 1271   2.195   3.328   1.242
 2161SOL    HW2 1272   2.313   3.398   1.332
 2162SOL     OW 1273   2.264   2.613   1.598
 2162SOL    HW1 1274   2.332   2.668   1.551
 2162SOL    HW2 1275   2.304   2.525   1.625
 2163SOL     OW 1276   3.449   2.641   1.670
 2163SOL    HW1 1277   3.357   2.679   1.665
 2163SOL    HW2 1278   3.509   2.688   1.605
 2164SOL     OW 1279   2.875   1.967   1.770
 2164SOL    HW1 1280   2.881   2.052   1.718
 2164SOL    HW2 1281   2.907   1.891   1.713
 2165SOL     OW 1282   2.366   1.912   1.740
 2165SOL    HW1 1283   2.324   1.855   1.670
 2165SOL    HW2 1284   2.300   1.981   1.772
 2166SOL     OW 1285   2.435   2.732   1.029
 2166SOL    HW1 1286   2.479   2.821   1.020
 2166SOL    HW2 1287   2.372   2.732   1.106
 2167SOL     OW 1288   3.222   2.724   1.045
 2167SOL    HW1 1289   3.147   2.724   0.979
 2167SOL    HW2 1290   3.259   2.632   1.054
 2169SOL     OW 1291   2.169   2.075   1.231
 2169SOL    HW1 1292   2.146   2.112   1.321
 2169SOL    HW2 1293   2.139   1.980   1.225
 2170SOL     OW 1294   1.899   3.172   1.282
 2170SOL    HW1 1295   1.952   3.123   1.350
 2170SOL    HW2 1296   1.921   3.270   1.287
 2171SOL     OW 1297   2.594   2.496   1.064
 2171SOL    HW1 1298   2.653   2.470   0.988
 2171SOL    HW2 1299   2.566   2.592   1.053
 2172SOL     OW 1300   3.590   2.797   1.854
 2172SOL    HW1 1301   3.544   2.790   1.765
 2172SOL    HW2 1302   3.528   2.841   1.920
 2175SOL     OW 1303   2.885   2.628   0.966
 2175SOL    HW1 1304   2.900   2.649   1.062
 2175SOL    HW2 1305   2.855   2.533   0.957
 2176SOL     OW 1306   2.842   3.435   1.700
 2176SOL    HW1 1307   2.822   3.479   1.612
 2176SOL    HW2 1308   2.881   3.344   1.684
 2177SOL     OW 1309   3.721   3.380   1.605
 2177SOL    HW1 1310   3.735   3.407   1.510
 2177SOL    HW2 1311   3.804   3.402   1.658
 2178SOL     OW 1312   2.212   2.760   1.804
 2178SOL    HW1 1313   2.288   2.804   1.852
 2178SOL    HW2 1314   2.247   2.713   1.722
 2182SOL     OW 1315   2.181   2.672   0.949
 2182SOL    HW1 1316   2.274   2.708   0.954
 2182SOL    HW2 1317   2.175   2.587   1.001
 2183SOL     OW 1318   2.201   2.371   1.006
 2183SOL    HW1 1319   2.149   2.288   0.989
 2183SOL    HW2 1320   2.278   2.376   0.942
 2184SOL     OW 1321   3.000   2.242   1.678
 2184SOL    HW1 1322   2.955   2.305   1.742
 2184SOL    HW2 1323   3.093   2.273   1.661
 2185SOL     OW 1324   3.022   2.069   1.477
 2185SOL    HW1 1325   3.022   2.133   1.554
 2185SOL    HW2 1326   3.050   2.117   1.394
 2189SOL     OW 1327   2.864   2.658   1.238
 2189SOL    HW1 1328   2.905   2.626   1.324
 2189SOL    HW2 1329   2.768   2.631   1.235
 2190SOL     OW 1330   1.902   2.406   1.114
 2190SOL    HW1 1331   1.987   2.373   1.073
 2190SOL    HW2 1332   1.915   2.421   1.212
 2191SOL     OW 1333   2.051   2.382   1.722
 2191SOL    HW1 1334   2.110   2.342   1.652
 2191SOL    HW2 1335   1.993   2.453   1.681
 2192SOL     OW 1336   3.231   2.812   1.660
 2192SOL    HW1 1337   3.270   2.901   1.680
 2192SOL    HW2 1338   3.241   2.792   1.563
 2194SOL     OW 1339   3.519   2.466   1.206
 2194SOL    HW1 1340   3.481   2.397   1.268
 2194SOL    HW2 1341   3.601   2.430   1.162
 2195SOL     OW 1342   2.114   3.426   1.744
 2195SOL    HW1 1343   2.084   3.483   1.820
 2195SOL    HW2 1344   2.107   3.329   1.770
 2196SOL     OW 1345   2.533   2.326   1.269
 2196SOL    HW1 1346   2.499   2.237   1.239
 2196SOL    HW2 1347   2.559   2.380   1.189
 2197SOL     OW 1348   2.792   3.540   1.465
 2197SOL    HW1 1349   2.768   3.522   1.370
 2197SOL    HW2 1350   2.822   3.634   1.475
 2199SOL     OW 1351   2.021   2.999   1.466
 2199SOL    HW1 1352   2.043   2.938   1.542
 2199SOL    HW2 1353   2.031   2.950   1.380
 2200SOL     OW 1354   3.209   2.921   1.234
 2200SOL    HW1 1355   3.233   2.858   1.160
 2200SOL    HW2 1356   3.119   2.961   1.216
 2204SOL     OW 1357   1.945   3.120   1.022
 2204SOL    HW1 1358   1.940   3.119   1.122
 2204SOL    HW2 1359   1.862   3.079   0.984
 2205SOL     OW 1360   2.550   3.524   1.716
 2205SOL    HW1 1361   2.494   3.605   1.725
 2205SOL    HW2 1362   2.602   3.528   1.630
 2209SOL     OW 1363   1.992   3.656   1.851
 2209SOL    HW1 1364   1.951   3.582   1.904
 2209SOL    HW2 1365   2.056   3.707   1.909
 2211SOL     OW 1366   2.692   3.135   1.422
 2211SOL    HW1 1367   2.687   3.168   1.517
 2211SOL    HW2 1368   2.606   3.154   1.376
 2215SOL     OW 1369   2.125   2.188   0.720
 2215SOL    HW1 1370   2.046   2.239   0.686
 2215SOL    HW2 1371   2.116   2.173   0.818
 2217SOL     OW 1372   2.684   2.864   1.372
 2217SOL    HW1 1373   2.724   2.863   1.280
 2217SOL    HW2 1374   2.694   2.956   1.412
 2220SOL     OW 1375   2.234   3.150   1.490
 2220SOL    HW1 1376   2.221   3.243   1.456
 2220SOL    HW2 1377   2.150   3.098   1.477
 2221SOL     OW 1378   3.476   3.154   1.289
 2221SOL    HW1 1379   3.536   3.157   1.369
 2221SOL    HW2 1380   3.401   3.218   1.302
 2223SOL     OW 1381   2.876   2.098   0.971
 2223SOL    HW1 1382   2.868   2.062   0.878
 2223SOL    HW2 1383   2.874   2.022   1.036
 2225SOL     OW 1384   3.571   2.247   1.381
 2225SOL    HW1 1385   3.644   2.316   1.385
 2225SOL    HW2 1386   3.599   2.172   1.322
 2227SOL     OW 1387   1.967   2.875   1.726
 2227SOL    HW1 1388   1.890   2.842   1.780
 2227SOL    HW2 1389   2.052   2.845   1.768
 2228SOL     OW 1390   2.534   2.065   1.489
 2228SOL    HW1 1391   2.624   2.049   1.449
 2228SOL    HW2 1392   2.542   2.070   1.588
 2229SOL     OW 1393   3.302   2.718   1.398
 2229SOL    HW1 1394   3.245   2.770   1.335
 2229SOL    HW2 1395   3.398   2.730   1.374
 2232SOL     OW 1396   2.475   2.704   1.431
 2232SOL    HW1 1397   2.531   2.785   1.414
 2232SOL    HW2 1398   2.534   2.624   1.434
 2234SOL     OW 1399   2.578   2.427   1.708
 2234SOL    HW1 1400   2.597   2.492   1.782
 2234SOL    HW2 1401   2.638   2.347   1.717
 2235SOL     OW 1402   3.312   3.082   1.633
 2235SOL    HW1 1403   3.303   3.072   1.732
 2235SOL    HW2 1404   3.408   3.075   1.607
 2236SOL     OW 1405   2.252   3.603   1.560
 2236SOL    HW1 1406   2.161   3.644   1.558
 2236SOL    HW2 1407   2.245   3.509   1.592
 2237SOL     OW 1408   3.536   2.745   1.254
 2237SOL    HW1 1409   3.509   2.656   1.217
 2237SOL    HW2 1410   3.537   2.813   1.181
 2240SOL     OW 1411   3.639   2.204   1.642
 2240SOL    HW1 1412   3.622   2.235   1.548
 2240SOL    HW2 1413   3.555   2.167   1.680
 2241SOL     OW 1414   3.592   2.796   1.517
 2241SOL    HW1 1415   3.630   2.887   1.532
 2241SOL    HW2 1416   3.584   2.779   1.418
 2244SOL     OW 1417   2.721   2.818   0.861
 2244SOL    HW1 1418   2.775   2.749   0.909
 2244SOL    HW2 1419   2.689   2.887   0.927
 2247SOL     OW 1420   2.083   3.176   1.844
 2247SOL    HW1 1421   2.018   3.103   1.823
 2247SOL    HW2 1422   2.087   3.190   1.942
 2249SOL     OW 1423   2.534   3.253   1.624
 2249SOL    HW1 1424   2.456   3.203   1.662
 2249SOL    HW2 1425   2.531   3.348   1.655
 2250SOL     OW 1426   3.686   2.054   1.227
 2250SOL    HW1 1427   3.682   1.964   1.271
 2250SOL    HW2 1428   3.689   2.043   1.128
 2253SOL     OW 1429   2.179   2.409   1.280
 2253SOL    HW1 1430   2.217   2.350   1.352
 2253SOL    HW2 1431   2.219   2.383   1.192
 2255SOL     OW 1432   3.286   2.076   1.112
 2255SOL    HW1 1433   3.338   2.011   1.167
 2255SOL    HW2 1434   3.237   2.139   1.173
 2256SOL     OW 1435   2.863   1.896   1.154
 2256SOL    HW1 1436   2.800   1.824   1.123
 2256SOL    HW2 1437   2.956   1.860   1.154
 2258SOL     OW 1438   2.480   3.429   1.284
 2258SOL    HW1 1439   2.475   3.511   1.341
 2258SOL    HW2 1440   2.569   3.426   1.239
 2264SOL     OW 1441   2.092   2.490   1.975
 2264SOL    HW1 1442   1.999   2.488   2.012
 2264SOL    HW2 1443   2.093   2.451   1.883
 2265SOL     OW 1444   2.087   2.137   2.858
 2265SOL    HW1 1445   2.122   2.120   2.950
 2265SOL    HW2 1446   1.999   2.092   2.846
 2266SOL     OW 1447   1.881   2.230   2.509
 2266SOL    HW1 1448   1.799   2.273   2.548
 2266SOL    HW2 1449   1.853   2.157   2.446
 2267SOL     OW 1450   2.431   3.137   3.027
 2267SOL    HW1 1451   2.338   3.130   2.990
 2267SOL    HW2 1452   2.442   3.226   3.071
 2268SOL     OW 1453   3.417   3.373   2.565
 2268SOL    HW1 1454   3.360   3.357   2.646
 2268SOL    HW2 1455   3.358   3.383   2.485
 2269SOL     OW 1456   2.997   2.565   2.579
 2269SOL    HW1 1457   3.054   2.643   2.554
 2269SOL    HW2 1458   2.937   2.591   2.655
 2270SOL     OW 1459   3.617   2.469   2.093
 2270SOL    HW1 1460   3.605   2.456   1.994
 2270SOL    HW2 1461   3.587   2.388   2.142
 2271SOL     OW 1462   2.630   3.006   2.885
 2271SOL    HW1 1463   2.552   3.023   2.945
 2271SOL    HW2 1464   2.664   3.093   2.849
 2272SOL     OW 1465   2.712   2.660   3.685
 2272SOL    HW1 1466   2.708   2.736   3.750
 2272SOL    HW2 1467   2.734   2.696   3.594
 2273SOL     OW 1468   2.547   2.874   2.527
 2273SOL    HW1 1469   2.616   2.858   2.597
 2273SOL    HW2 1470   2.474   2.931   2.565
 2274SOL     OW 1471   2.548   3.023   3.665
 2274SOL    HW1 1472   2.608   3.102   3.679
 2274SOL    HW2 1473   2.462   3.054   3.624
 2275SOL     OW 1474   2.197   3.297   2.923
 2275SOL    HW1 1475   2.119   3.266   2.870
 2275SOL    HW2 1476   2.255   3.355   2.866
 2276SOL     OW 1477   3.322   3.367   3.201
 2276SOL    HW1 1478   3.346   3.461   3.227
 2276SOL    HW2 1479   3.306   3.313   3.283
 2277SOL     OW 1480   2.300   2.254   3.361
 2277SOL    HW1 1481   2.382   2.198   3.370
 2277SOL    HW2 1482   2.219   2.196   3.365
 2278SOL     OW 1483   3.465   2.309   2.599
 2278SOL    HW1 1484   3.391   2.355   2.549
 2278SOL    HW2 1485   3.516   2.377   2.652
 2279SOL     OW 1486   2.093   3.575   2.345
 2279SOL    HW1 1487   2.127   3.652   2.399
 2279SOL    HW2 1488   2.137   3.575   2.255
 2280SOL     OW 1489   2.989   3.203   3.552
 2280SOL    HW1 1490   3.036   3.203   3.640
 2280SOL    HW2 1491   2.941   3.116   3.541
 2281SOL     OW 1492   2.092   3.296   2.400
 2281SOL    HW1 1493   2.066   3.392   2.400
 2281SOL    HW2 1494   2.021   3.242   2.445
 2282SOL     OW 1495   2.102   2.953   2.748
 2282SOL    HW1 1496   2.116   2.869   2.800
 2282SOL    HW2 1497   2.047   3.017   2.803
 2283SOL     OW 1498   2.482   3.648   3.301
 2283SOL    HW1 1499   2.390   3.631   3.336
 2283SOL    HW2 1500   2.510   3.740   3.327
 2284SOL     OW 1501   2.468   2.826   1.985
 2284SOL    HW1 1502   2.475   2.910   1.931
 2284SOL    HW2 1503   2.514   2.839   2.073
 2285SOL     OW 1504   3.456   1.976   3.342
 2285SOL    HW1 1505   3.438   2.043   3.270
 2285SOL    HW2 1506   3.453   2.022   3.431
 2286SOL     OW 1507   1.984   2.505   2.425
 2286SOL    HW1 1508   1.939   2.417   2.442
 2286SOL    HW2 1509   1.983   2.559   2.509
 2287SOL     OW 1510   3.704   3.629   2.221
 2287SOL    HW1 1511   3.758   3.600   2.301
 2287SOL    HW2 1512   3.734   3.719   2.192
 2288SOL     OW 1513   1.889   3.458   1.979
 2288SOL    HW1 1514   1.870   3.362   2.000
 2288SOL    HW2 1515   1.856   3.516   2.054
 2289SOL     OW 1516   3.551   2.784   2.474
 2289SOL    HW1 1517   3.646   2.755   2.482
 2289SOL    HW2 1518   3.543   2.849   2.399
 2290SOL     OW 1519   3.503   2.970   2.294
 2290SOL    HW1 1520   3.589   2.972   2.242
 2290SOL    HW2 1521   3.517   3.017   2.382
 2291SOL     OW 1522   1.975   2.599   3.459
 2291SOL    HW1 1523   2.063   2.586   3.504
 2291SOL    HW2 1524   1.962   2.696   3.437
 2292SOL     OW 1525   2.475   3.227   2.588
 2292SOL    HW1 1526   2.426   3.140   2.597
 2292SOL    HW2 1527   2.452   3.270   2.501
 2293SOL     OW 1528   3.155   3.090   3.285
 2293SOL    HW1 1529   3.192   3.017   3.227
 2293SOL    HW2 1530   3.207   3.095   3.370
 2294SOL     OW 1531   2.671   1.866   2.364
 2294SOL    HW1 1532   2.711   1.957   2.355
 2294SOL    HW2 1533   2.571   1.874   2.370
 2295SOL     OW 1534   2.059   2.838   3.126
 2295SOL    HW1 1535   2.148   2.793   3.112
 2295SOL    HW2 1536   1.986   2.773   3.107
 2296SOL     OW 1537   3.387   2.861   2.052
 2296SOL    HW1 1538   3.324   2.785   2.065
 2296SOL    HW2 1539   3.435   2.879   2.138
 2297SOL     OW 1540   3.049   3.654   3.478
 2297SOL    HW1 1541   3.073   3.714   3.402
 2297SOL    HW2 1542   3.056   3.559   3.448
 2298SOL     OW 1543   2.179   2.113   3.663
 2298SOL    HW1 1544   2.250   2.184   3.669
 2298SOL    HW2 1545   2.091   2.152   3.691
 2299SOL     OW 1546   3.328   3.279   2.815
 2299SOL    HW1 1547   3.269   3.285   2.895
 2299SOL    HW2 1548   3.313   3.191   2.769
 2300SOL     OW 1549   3.529   3.576   2.434
 2300SOL    HW1 1550   3.488   3.553   2.346
 2300SOL    HW2 1551   3.511   3.502   2.499
 2301SOL     OW 1552   3.143   2.207   2.806
 2301SOL    HW1 1553   3.057   2.157   2.793
 2301SOL    HW2 1554   3.205   2.153   2.862
 2302SOL     OW 1555   3.438   3.524   2.169
 2302SOL    HW1 1556   3.527   3.570   2.172
 2302SOL    HW2 1557   3.417   3.500   2.074
 2303SOL     OW 1558   2.669   2.467   3.327
 2303SOL    HW1 1559   2.622   2.464   3.416
 2303SOL    HW2 1560   2.618   2.412   3.261
 2304SOL     OW 1561   3.256   2.331   3.536
 2304SOL    HW1 1562   3.236   2.374   3.624
 2304SOL    HW2 1563   3.334   2.269   3.545
 2305SOL     OW 1564   2.835   2.752   3.434
 2305SOL    HW1 1565   2.881   2.668   3.405
 2305SOL    HW2 1566   2.779   2.786   3.359
 2306SOL     OW 1567   2.853   2.272   3.104
 2306SOL    HW1 1568   2.776   2.306   3.158
 2306SOL    HW2 1569   2.819   2.221   3.025
 2307SOL     OW 1570   1.938   2.673   2.651
 2307SOL    HW1 1571   2.037   2.661   2.660
 2307SOL    HW2 1572   1.914   2.768   2.672
 2308SOL     OW 1573   1.992   3.683   3.433
 2308SOL    HW1 1574   1.982   3.668   3.532
 2308SOL    HW2 1575   1.906   3.719   3.397
 2309SOL     OW 1576   2.727   2.210   2.057
 2309SOL    HW1 1577   2.786   2.273   2.008
 2309SOL    HW2 1578   2.746   2.116   2.028
 2310SOL     OW 1579   3.581   2.447   3.693
 2310SOL    HW1 1580   3.555   2.536   3.657
 2310SOL    HW2 1581   3.579   2.379   3.620
 2311SOL     OW 1582   3.224   3.006   2.407
 2311SOL    HW1 1583   3.307   2.977   2.359
 2311SOL    HW2 1584   3.175   3.073   2.351
 2312SOL     OW 1585   2.412   2.058   2.747
 2312SOL    HW1 1586   2.407   2.053   2.847
 2312SOL    HW2 1587   2.414   2.154   2.718
 2313SOL     OW 1588   2.870   3.318   2.339
 2313SOL    HW1 1589   2.824   3.390   2.287
 2313SOL    HW2 1590   2.866   3.338   2.437
 2314SOL     OW 1591   2.213   3.663   2.715
 2314SOL    HW1 1592   2.263   3.577   2.721
 2314SOL    HW2 1593   2.278   3.740   2.712
 2315SOL     OW 1594   3.657   2.928   2.735
 2315SOL    HW1 1595   3.595   2.913   2.659
 2315SOL    HW2 1596   3.605   2.939   2.820
 2316SOL     OW 1597   3.089   3.412   3.368
 2316SOL    HW1 1598   3.095   3.335   3.432
 2316SOL    HW2 1599   3.037   3.386   3.288
 2317SOL     OW 1600   2.183   2.805   2.104
 2317SOL    HW1 1601   2.265   2.844   2.062
 2317SOL    HW2 1602   2.156   2.723   2.055
 2318SOL     OW 1603   3.320   2.597   2.590
 2318SOL    HW1 1604   3.315   2.532   2.665
 2318SOL    HW2 1605   3.400   2.656   2.603
 2319SOL     OW 1606   2.323   3.128   3.589
 2319SOL    HW1 1607   2.273   3.129   3.503
 2319SOL    HW2 1608   2.260   3.110   3.665
 2320SOL     OW 1609   2.973   3.638   2.099
 2320SOL    HW1 1610   2.913   3.576   2.149
 2320SOL    HW2 1611   3.004   3.594   2.014
 2321SOL     OW 1612   2.064   2.147   3.360
 2321SOL    HW1 1613   1.984   2.207   3.347
 2321SOL    HW2 1614   2.054   2.098   3.446
 2322SOL     OW 1615   3.494   3.239   1.943
 2322SOL    HW1 1616   3.462   3.333   1.933
 2322SOL    HW2 1617   3.418   3.176   1.931
 2323SOL     OW 1618   2.326   3.605   2.185
 2323SOL    HW1 1619   2.359   3.644   2.271
 2323SOL    HW2 1620   2.402   3.598   2.120
 2324SOL     OW 1621   3.262   1.969   2.288
 2324SOL    HW1 1622   3.238   1.932   2.198
 2324SOL    HW2 1623   3.361   1.985   2.292
 2325SOL     OW 1624   2.111   3.647   3.103
 2325SOL    HW1 1625   2.168   3.582   3.153
 2325SOL    HW2 1626   2.095   3.614   3.010
 2326SOL     OW 1627   2.802   3.560   2.766
 2326SOL    HW1 1628   2.882   3.503   2.787
 2326SOL    HW2 1629   2.753   3.520   2.689
 2327SOL     OW 1630   3.409   2.084   3.591
 2327SOL    HW1 1631   3.404   2.121   3.683
 2327SOL    HW2 1632   3.337   2.015   3.579
 2328SOL     OW 1633   2.476   1.984   1.979
 2328SOL    HW1 1634   2.574   1.962   1.986
 2328SOL    HW2 1635   2.445   1.967   1.886
 2329SOL     OW 1636   2.643   2.126   3.611
 2329SOL    HW1 1637   2.710   2.065   3.654
 2329SOL    HW2 1638   2.570   2.145   3.676
 2330SOL     OW 1639   2.750   3.376   3.057
 2330SOL    HW1 1640   2.727   3.351   2.963
 2330SOL    HW2 1641   2.811   3.307   3.096
 2331SOL     OW 1642   3.213   2.452   3.295
 2331SOL    HW1 1643   3.241   2.409   3.380
 2331SOL    HW2 1644   3.238   2.548   3.296
 2332SOL     OW 1645   2.665   3.264   2.786
 2332SOL    HW1 1646   2.755   3.278   2.744
 2332SOL    HW2 1647   2.594   3.266   2.715
 2333SOL     OW 1648   2.784   2.365   2.761
 2333SOL    HW1 1649   2.759   2.356   2.665
 2333SOL    HW2 1650   2.832   2.283   2.792
 2334SOL     OW 1651   2.401   1.926   2.374
 2334SOL    HW1 1652   2.320   1.927   2.432
 2334SOL    HW2 1653   2.404   2.009   2.319
 2335SOL     OW 1654   3.296   3.050   1.903
 2335SOL    HW1 1655   3.328   2.974   1.960
 2335SOL    HW2 1656   3.204   3.077   1.933
 2336SOL     OW 1657   2.159   1.897   2.033
 2336SOL    HW1 1658   2.208   1.981   2.012
 2336SOL    HW2 1659   2.221   1.832   2.078
 2337SOL     OW 1660   2.797   2.098   2.342
 2337SOL    HW1 1661   2.749   2.139   2.264
 2337SOL    HW2 1662   2.896   2.096   2.323
 2338SOL     OW 1663   2.938   2.545   3.326
 2338SOL    HW1 1664   2.858   2.484   3.329
 2338SOL    HW2 1665   3.019   2.492   3.302
 2339SOL     OW 1666   3.089   3.432   2.655
 2339SOL    HW1 1667   3.110   3.506   2.590
 2339SOL    HW2 1668   3.157   3.432   2.728
 2340SOL     OW 1669   2.321   3.014   2.603
 2340SOL    HW1 1670   2.250   2.987   2.668
 2340SOL    HW2 1671   2.295   2.986   2.510
 2341SOL     OW 1672   3.133   3.659   2.453
 2341SOL    HW1 1673   3.177   3.723   2.389
 2341SOL    HW2 1674   3.083   3.711   2.523
 2342SOL     OW 1675   2.894   2.411   1.878
 2342SOL    HW1 1676   2.853   2.493   1.839
 2342SOL    HW2 1677   2.958   2.437   1.951
 2343SOL     OW 1678   1.940   2.418   3.248
 2343SOL    HW1 1679   2.032   2.417   3.207
 2343SOL    HW2 1680   1.934   2.492   3.315
 2344SOL     OW 1681   2.423   2.084   3.009
 2344SOL    HW1 1682   2.461   2.000   3.046
 2344SOL    HW2 1683   2.335   2.103   3.053
 2345SOL     OW 1684   2.879   1.901   2.615
 2345SOL    HW1 1685   2.807   1.906   2.546
 2345SOL    HW2 1686   2.855   1.832   2.684
 2346SOL     OW 1687   3.291   3.035   2.729
 2346SOL    HW1 1688   3.236   2.951   2.722
 2346SOL    HW2 1689   3.317   3.064   2.637
 2347SOL     OW 1690   3.328   2.452   2.854
 2347SOL    HW1 1691   3.298   2.357   2.861
 2347SOL    HW2 1692   3.401   2.468   2.920
 2348SOL     OW 1693   3.719   2.695   2.239
 2348SOL    HW1 1694   3.761   2.631   2.303
 2348SOL    HW2 1695   3.681   2.644   2.161
 2349SOL     OW 1696   2.350   3.247   2.036
 2349SOL    HW1 1697   2.263   3.232   2.083
 2349SOL    HW2 1698   2.333   3.273   1.941
 2350SOL     OW 1699   3.526   3.142   2.519
 2350SOL    HW1 1700   3.625   3.150   2.533
 2350SOL    HW2 1701   3.481   3.226   2.550
 2351SOL     OW 1702   3.252   2.437   1.940
 2351SOL    HW1 1703   3.198   2.416   2.021
 2351SOL    HW2 1704   3.343   2.396   1.949
 2352SOL     OW 1705   2.389   2.118   2.190
 2352SOL    HW1 1706   2.416   2.059   2.115
 2352SOL    HW2 1707   2.389   2.213   2.159
 2353SOL     OW 1708   3.616   3.085   3.450
 2353SOL    HW1 1709   3.707   3.046   3.437
 2353SOL    HW2 1710   3.624   3.181   3.474
 2354SOL     OW 1711   2.926   3.209   3.202
 2354SOL    HW1 1712   2.846   3.186   3.257
 2354SOL    HW2 1713   3.009   3.183   3.251
 2355SOL     OW 1714   3.454   3.491   3.487
 2355SOL    HW1 1715   3.481   3.525   3.397
 2355SOL    HW2 1716   3.533   3.453   3.533
 2356SOL     OW 1717   2.973   3.057   2.962
 2356SOL    HW1 1718   2.933   3.101   3.043
 2356SOL    HW2 1719   2.932   3.094   2.879
 2357SOL     OW 1720   3.500   2.961   2.941
 2357SOL    HW1 1721   3.505   3.042   3.000
 2357SOL    HW2 1722   3.414   2.963   2.890
 2358SOL     OW 1723   2.777   1.951   3.264
 2358SOL    HW1 1724   2.802   1.931   3.169
 2358SOL    HW2 1725   2.849   2.007   3.306
 2359SOL     OW 1726   2.842   2.978   3.581
 2359SOL    HW1 1727   2.743   2.984   3.591
 2359SOL    HW2 1728   2.865   2.898   3.525
 2360SOL     OW 1729   2.567   2.912   2.230
 2360SOL    HW1 1730   2.553   2.919   2.329
 2360SOL    HW2 1731   2.651   2.861   2.212
 2361SOL     OW 1732   2.272   2.675   3.113
 2361SOL    HW1 1733   2.358   2.687   3.163
 2361SOL    HW2 1734   2.230   2.588   3.140
 2362SOL     OW 1735   3.136   2.248   3.124
 2362SOL    HW1 1736   3.157   2.322   3.188
 2362SOL    HW2 1737   3.047   2.265   3.081
 2363SOL     OW 1738   1.926   3.426   3.193
 2363SOL    HW1 1739   1.880   3.508   3.159
 2363SOL    HW2 1740   2.024   3.445   3.202
 2364SOL     OW 1741   2.229   2.962   2.363
 2364SOL    HW1 1742   2.222   3.045   2.307
 2364SOL    HW2 1743   2.233   2.882   2.303
 2365SOL     OW 1744   3.114   3.210   2.250
 2365SOL    HW1 1745   3.164   3.287   2.290
 2365SOL    HW2 1746   3.019   3.212   2.282
 2366SOL     OW 1747   3.134   3.307   3.004
 2366SOL    HW1 1748   3.181   3.320   3.091
 2366SOL    HW2 1749   3.068   3.233   3.013
 2367SOL     OW 1750   3.444   2.501   2.334
 2367SOL    HW1 1751   3.413   2.562   2.407
 2367SOL    HW2 1752   3.494   2.553   2.265
 2368SOL     OW 1753   2.216   3.372   3.191
 2368SOL    HW1 1754   2.195   3.328   3.104
 2368SOL    HW2 1755   2.313   3.398   3.194
 2369SOL     OW 1756   2.264   2.613   3.460
 2369SOL    HW1 1757   2.332   2.668   3.413
 2369SOL    HW2 1758   2.304   2.525   3.487
 2370SOL     OW 1759   3.449   2.641   3.532
 2370SOL    HW1 1760   3.357   2.679   3.527
 2370SOL    HW2 1761   3.509   2.688   3.467
 2371SOL     OW 1762   2.875   1.967   3.632
 2371SOL    HW1 1763   2.881   2.052   3.580
 2371SOL    HW2 1764   2.907   1.891   3.575
 2372SOL     OW 1765   2.366   1.912   3.602
 2372SOL    HW1 1766   2.324   1.855   3.532
 2372SOL    HW2 1767   2.300   1.981   3.634
 2373SOL     OW 1768   2.435   2.732   2.891
 2373SOL    HW1 1769   2.479   2.821   2.882
 2373SOL    HW2 1770   2.372   2.732   2.968
 2374SOL     OW 1771   3.222   2.724   2.907
 2374SOL    HW1 1772   3.147   2.724   2.841
 2374SOL    HW2 1773   3.259   2.632   2.916
 2375SOL     OW 1774   3.071   2.387   2.137
 2375SOL    HW1 1775   3.084   2.303   2.191
 2375SOL    HW2 1776   3.042   2.461   2.197
 2376SOL     OW 1777   2.169   2.075   3.093
 2376SOL    HW1 1778   2.146   2.112   3.183
 2376SOL    HW2 1779   2.139   1.980   3.087
 2377SOL     OW 1780   1.899   3.172   3.144
 2377SOL    HW1 1781   1.952   3.123   3.212
 2377SOL    HW2 1782   1.921   3.270   3.149
 2378SOL     OW 1783   2.594   2.496   2.926
 2378SOL    HW1 1784   2.653   2.470   2.850
 2378SOL    HW2 1785   2.566   2.592   2.915
 2379SOL     OW 1786   3.590   2.797   3.716
 2379SOL    HW1 1787   3.544   2.790   3.627
 2379SOL    HW2 1788   3.528   2.841   3.782
 2380SOL     OW 1789   2.169   1.925   2.480
 2380SOL    HW1 1790   2.158   2.019   2.513
 2380SOL    HW2 1791   2.164   1.862   2.557
 2381SOL     OW 1792   3.484   2.229   2.236
 2381SOL    HW1 1793   3.486   2.153   2.300
 2381SOL    HW2 1794   3.436   2.306   2.276
 2382SOL     OW 1795   2.885   2.628   2.828
 2382SOL    HW1 1796   2.900   2.649   2.924
 2382SOL    HW2 1797   2.855   2.533   2.819
 2383SOL     OW 1798   2.842   3.435   3.562
 2383SOL    HW1 1799   2.822   3.479   3.474
 2383SOL    HW2 1800   2.881   3.344   3.546
 2385SOL     OW 1801   2.212   2.760   3.666
 2385SOL    HW1 1802   2.288   2.804   3.714
 2385SOL    HW2 1803   2.247   2.713   3.584
 2386SOL     OW 1804   3.402   2.136   1.987
 2386SOL    HW1 1805   3.341   2.061   2.010
 2386SOL    HW2 1806   3.424   2.188   2.070
 2387SOL     OW 1807   3.165   2.700   1.904
 2387SOL    HW1 1808   3.199   2.607   1.919
 2387SOL    HW2 1809   3.183   2.727   1.809
 2388SOL     OW 1810   2.930   3.195   2.711
 2388SOL    HW1 1811   2.937   3.111   2.656
 2388SOL    HW2 1812   2.992   3.264   2.675
 2389SOL     OW 1813   2.181   2.672   2.811
 2389SOL    HW1 1814   2.274   2.708   2.816
 2389SOL    HW2 1815   2.175   2.587   2.863
 2390SOL     OW 1816   3.000   2.242   3.540
 2390SOL    HW1 1817   2.955   2.305   3.604
 2390SOL    HW2 1818   3.093   2.273   3.523
 2391SOL     OW 1819   3.022   2.069   3.339
 2391SOL    HW1 1820   3.022   2.133   3.416
 2391SOL    HW2 1821   3.050   2.117   3.256
 2392SOL     OW 1822   1.870   3.188   2.062
 2392SOL    HW1 1823   1.777   3.209   2.031
 2392SOL    HW2 1824   1.880   3.089   2.075
 2393SOL     OW 1825   1.950   3.663   2.789
 2393SOL    HW1 1826   1.908   3.577   2.762
 2393SOL    HW2 1827   2.044   3.666   2.755
 2394SOL     OW 1828   2.366   3.430   2.772
 2394SOL    HW1 1829   2.432   3.504   2.781
 2394SOL    HW2 1830   2.410   3.351   2.730
 2395SOL     OW 1831   2.864   2.658   3.100
 2395SOL    HW1 1832   2.905   2.626   3.186
 2395SOL    HW2 1833   2.768   2.631   3.097
 2396SOL     OW 1834   1.902   2.406   2.976
 2396SOL    HW1 1835   1.987   2.373   2.935
 2396SOL    HW2 1836   1.915   2.421   3.074
 2397SOL     OW 1837   2.051   2.382   3.584
 2397SOL    HW1 1838   2.110   2.342   3.514
 2397SOL    HW2 1839   1.993   2.453   3.543
 2398SOL     OW 1840   3.231   2.812   3.522
 2398SOL    HW1 1841   3.270   2.901   3.542
 2398SOL    HW2 1842   3.241   2.792   3.425
 2399SOL     OW 1843   3.519   2.466   3.068
 2399SOL    HW1 1844   3.481   2.397   3.130
 2399SOL    HW2 1845   3.601   2.430   3.024
 2400SOL     OW 1846   2.114   3.426   3.606
 2400SOL    HW1 1847   2.084   3.483   3.682
 2400SOL    HW2 1848   2.107   3.329   3.632
 2401SOL     OW 1849   2.533   2.326   3.131
 2401SOL    HW1 1850   2.499   2.237   3.101
 2401SOL    HW2 1851   2.559   2.380   3.051
 2402SOL     OW 1852   2.792   3.540   3.327
 2402SOL    HW1 1853   2.768   3.522   3.232
 2402SOL    HW2 1854   2.822   3.634   3.337
 2403SOL     OW 1855   2.335   2.362   2.053
 2403SOL    HW1 1856   2.396   2.442   2.057
 2403SOL    HW2 1857   2.240   2.393   2.060
 2404SOL     OW 1858   2.021   2.999   3.328
 2404SOL    HW1 1859   2.043   2.938   3.404
 2404SOL    HW2 1860   2.031   2.950   3.242
 2405SOL     OW 1861   3.209   2.921   3.096
 2405SOL    HW1 1862   3.233   2.858   3.022
 2405SOL    HW2 1863   3.119   2.961   3.078
 2406SOL     OW 1864   3.164   2.717   2.171
 2406SOL    HW1 1865   3.078   2.686   2.213
 2406SOL    HW2 1866   3.160   2.703   2.072
 2407SOL     OW 1867   3.621   3.609   3.016
 2407SOL    HW1 1868   3.682   3.639   2.943
 2407SOL    HW2 1869   3.583   3.520   2.994
 2408SOL     OW 1870   3.114   3.593   2.990
 2408SOL    HW1 1871   3.198   3.598   2.936
 2408SOL    HW2 1872   3.091   3.497   3.008
 2409SOL     OW 1873   1.945   3.120   2.884
 2409SOL    HW1 1874   1.940   3.119   2.984
 2409SOL    HW2 1875   1.862   3.079   2.846
 2410SOL     OW 1876   2.550   3.524   3.578
 2410SOL    HW1 1877   2.494   3.605   3.587
 2410SOL    HW2 1878   2.602   3.528   3.492
 2411SOL     OW 1879   3.588   1.997   2.385
 2411SOL    HW1 1880   3.661   1.980   2.318
 2411SOL    HW2 1881   3.557   1.910   2.423
 2412SOL     OW 1882   3.250   3.435   2.339
 2412SOL    HW1 1883   3.317   3.447   2.265
 2412SOL    HW2 1884   3.210   3.524   2.362
 2413SOL     OW 1885   1.992   3.656   3.713
 2413SOL    HW1 1886   1.951   3.582   3.766
 2413SOL    HW2 1887   2.056   3.707   3.771
 2414SOL     OW 1888   3.142   2.789   2.534
 2414SOL    HW1 1889   3.202   2.708   2.536
 2414SOL    HW2 1890   3.182   2.858   2.474
 2415SOL     OW 1891   2.692   3.135   3.284
 2415SOL    HW1 1892   2.687   3.168   3.379
 2415SOL    HW2 1893   2.606   3.154   3.238
 2416SOL     OW 1894   2.534   3.478   2.016
 2416SOL    HW1 1895   2.543   3.488   1.917
 2416SOL    HW2 1896   2.494   3.389   2.037
 2417SOL     OW 1897   3.512   3.582   3.256
 2417SOL    HW1 1898   3.565   3.592   3.172
 2417SOL    HW2 1899   3.485   3.672   3.290
 2418SOL     OW 1900   3.703   2.037   2.825
 2418SOL    HW1 1901   3.742   1.952   2.789
 2418SOL    HW2 1902   3.605   2.039   2.806
 2419SOL     OW 1903   2.125   2.188   2.582
 2419SOL    HW1 1904   2.046   2.239   2.548
 2419SOL    HW2 1905   2.116   2.173   2.680
 2420SOL     OW 1906   3.056   3.474   1.893
 2420SOL    HW1 1907   3.062   3.381   1.930
 2420SOL    HW2 1908   2.997   3.474   1.813
 2421SOL     OW 1909   2.684   2.864   3.234
 2421SOL    HW1 1910   2.724   2.863   3.142
 2421SOL    HW2 1911   2.694   2.956   3.274
 2422SOL     OW 1912   3.366   3.469   1.906
 2422SOL    HW1 1913   3.274   3.506   1.913
 2422SOL    HW2 1914   3.404   3.489   1.816
 2423SOL     OW 1915   2.234   3.150   3.352
 2423SOL    HW1 1916   2.221   3.243   3.318
 2423SOL    HW2 1917   2.150   3.098   3.339
 2424SOL     OW 1918   3.476   3.154   3.151
 2424SOL    HW1 1919   3.536   3.157   3.231
 2424SOL    HW2 1920   3.401   3.218   3.164
 2425SOL     OW 1921   2.901   2.960   2.558
 2425SOL    HW1 1922   2.831   2.913   2.612
 2425SOL    HW2 1923   2.960   2.892   2.515
 2426SOL     OW 1924   2.876   2.098   2.833
 2426SOL    HW1 1925   2.868   2.062   2.740
 2426SOL    HW2 1926   2.874   2.022   2.898
 2427SOL     OW 1927   2.452   3.349   2.353
 2427SOL    HW1 1928   2.494   3.291   2.283
 2427SOL    HW2 1929   2.408   3.428   2.309
 2428SOL     OW 1930   3.571   2.247   3.243
 2428SOL    HW1 1931   3.644   2.316   3.247
 2428SOL    HW2 1932   3.599   2.172   3.184
 2429SOL     OW 1933   2.117   3.210   2.152
 2429SOL    HW1 1934   2.021   3.211   2.125
 2429SOL    HW2 1935   2.129   3.263   2.236
 2430SOL     OW 1936   1.967   2.875   3.588
 2430SOL    HW1 1937   1.890   2.842   3.642
 2430SOL    HW2 1938   2.052   2.845   3.630
 2431SOL     OW 1939   2.534   2.065   3.351
 2431SOL    HW1 1940   2.624   2.049   3.311
 2431SOL    HW2 1941   2.542   2.070   3.450
 2432SOL     OW 1942   1.937   2.207   1.895
 2432SOL    HW1 1943   1.845   2.179   1.866
 2432SOL    HW2 1944   1.968   2.284   1.839
 2433SOL     OW 1945   3.302   2.718   3.260
 2433SOL    HW1 1946   3.245   2.770   3.197
 2433SOL    HW2 1947   3.398   2.730   3.236
 2434SOL     OW 1948   1.934   2.028   2.180
 2434SOL    HW1 1949   1.917   2.111   2.126
 2434SOL    HW2 1950   2.024   1.991   2.158
 2435SOL     OW 1951   3.045   3.197   1.981
 2435SOL    HW1 1952   2.946   3.186   1.983
 2435SOL    HW2 1953   3.079   3.212   2.074
 2436SOL     OW 1954   2.475   2.704   3.293
 2436SOL    HW1 1955   2.531   2.785   3.276
 2436SOL    HW2 1956   2.534   2.624   3.296
 2437SOL     OW 1957   3.355   3.629   2.821
 2437SOL    HW1 1958   3.388   3.693   2.752
 2437SOL    HW2 1959   3.421   3.623   2.896
 2438SOL     OW 1960   2.578   2.427   3.570
 2438SOL    HW1 1961   2.597   2.492   3.644
 2438SOL    HW2 1962   2.638   2.347   3.579
 2439SOL     OW 1963   3.312   3.082   3.495
 2439SOL    HW1 1964   3.303   3.072   3.594
 2439SOL    HW2 1965   3.408   3.075   3.469
 2440SOL     OW 1966   2.252   3.603   3.422
 2440SOL    HW1 1967   2.161   3.644   3.420
 2440SOL    HW2 1968   2.245   3.509   3.454
 2441SOL     OW 1969   3.536   2.745   3.116
 2441SOL    HW1 1970   3.509   2.656   3.079
 2441SOL    HW2 1971   3.537   2.813   3.043
 2442SOL     OW 1972   3.087   2.187   2.311
 2442SOL    HW1 1973   3.152   2.113   2.300
 2442SOL    HW2 1974   3.107   2.237   2.395
 2443SOL     OW 1975   3.639   2.204   3.504
 2443SOL    HW1 1976   3.622   2.235   3.410
 2443SOL    HW2 1977   3.555   2.167   3.542
 2444SOL     OW 1978   3.592   2.796   3.379
 2444SOL    HW1 1979   3.630   2.887   3.394
 2444SOL    HW2 1980   3.584   2.779   3.280
 2445SOL     OW 1981   2.721   3.236   1.878
 2445SOL    HW1 1982   2.675   3.251   1.966
 2445SOL    HW2 1983   2.765   3.321   1.848
 2446SOL     OW 1984   2.523   3.652   2.815
 2446SOL    HW1 1985   2.477   3.740   2.802
 2446SOL    HW2 1986   2.622   3.664   2.808
 2447SOL     OW 1987   2.721   2.818   2.723
 2447SOL    HW1 1988   2.775   2.749   2.771
 2447SOL    HW2 1989   2.689   2.887   2.789
 2448SOL     OW 1990   2.945   2.846   1.949
 2448SOL    HW1 1991   2.922   2.899   1.867
 2448SOL    HW2 1992   3.026   2.790   1.930
 2449SOL     OW 1993   3.723   3.431   2.713
 2449SOL    HW1 1994   3.652   3.419   2.643
 2449SOL    HW2 1995   3.724   3.352   2.773
 2450SOL     OW 1996   2.083   3.176   3.706
 2450SOL    HW1 1997   2.018   3.103   3.685
 2450SOL    HW2 1998   2.087   3.190   3.804
 2451SOL     OW 1999   1.941   3.102   2.515
 2451SOL    HW1 2000   1.940   3.055   2.603
 2451SOL    HW2 2001   2.023   3.074   2.464
 2452SOL     OW 2002   2.534   3.253   3.486
 2452SOL    HW1 2003   2.456   3.203   3.524
 2452SOL    HW2 2004   2.531   3.348   3.517
 2453SOL     OW 2005   3.686   2.054   3.089
 2453SOL    HW1 2006   3.682   1.964   3.133
 2453SOL    HW2 2007   3.689   2.043   2.990
 2454SOL     OW 2008   2.290   2.286   2.382
 2454SOL    HW1 2009   2.320   2.214   2.320
 2454SOL    HW2 2010   2.251   2.246   2.465
 2455SOL     OW 2011   3.567   3.349   2.966
 2455SOL    HW1 2012   3.474   3.324   2.939
 2455SOL    HW2 2013   3.593   3.299   3.048
 2456SOL     OW 2014   2.179   2.409   3.142
 2456SOL    HW1 2015   2.217   2.350   3.214
 2456SOL    HW2 2016   2.219   2.383   3.054
 2457SOL     OW 2017   2.674   3.448   2.549
 2457SOL    HW1 2018   2.706   3.458   2.455
 2457SOL    HW2 2019   2.595   3.386   2.551
 2458SOL     OW 2020   3.286   2.076   2.974
 2458SOL    HW1 2021   3.338   2.011   3.029
 2458SOL    HW2 2022   3.237   2.139   3.035
 2459SOL     OW 2023   2.863   1.896   3.016
 2459SOL    HW1 2024   2.800   1.824   2.985
 2459SOL    HW2 2025   2.956   1.860   3.016
 2460SOL     OW 2026   2.632   3.192   2.163
 2460SOL    HW1 2027   2.586   3.105   2.180
 2460SOL    HW2 2028   2.723   3.189   2.204
 2461SOL     OW 2029   2.480   3.429   3.146
 2461SOL    HW1 2030   2.475   3.511   3.203
 2461SOL    HW2 2031   2.569   3.426   3.101
 2462SOL     OW 2032   3.214   1.914   2.030
 2462SOL    HW1 2033   3.249   1.873   1.946
 2462SOL    HW2 2034   3.124   1.876   2.050
 2463SOL     OW 2035   3.162   2.315   2.553
 2463SOL    HW1 2036   3.103   2.395   2.557
 2463SOL    HW2 2037   3.177   2.280   2.646
 2464SOL     OW 2038   3.455   2.083   2.744
 2464SOL    HW1 2039   3.371   2.082   2.798
 2464SOL    HW2 2040   3.457   2.166   2.688
 2465SOL     OW 2041   1.901   2.939   2.162
 2465SOL    HW1 2042   2.000   2.928   2.153
 2465SOL    HW2 2043   1.861   2.853   2.194
 2466SOL     OW 2044   2.737   3.508   2.199
 2466SOL    HW1 2045   2.660   3.473   2.145
 2466SOL    HW2 2046   2.705   3.579   2.261
 2467SOL     OW 2047   2.092   2.490   3.837
 2467SOL    HW1 2048   1.999   2.488   3.874
 2467SOL    HW2 2049   2.093   2.451   3.745
 2481SOL     OW 2050   2.468   2.826   3.847
 2481SOL    HW1 2051   2.475   2.910   3.793
 2481SOL    HW2 2052   2.514   2.839   3.935
 2484SOL     OW 2053   1.889   3.458   3.841
 2484SOL    HW1 2054   1.870   3.362   3.862
 2484SOL    HW2 2055   1.856   3.516   3.916
 2490SOL     OW 2056   3.387   2.861   3.914
 2490SOL    HW1 2057   3.324   2.785   3.927
 2490SOL    HW2 2058   3.435   2.879   4.000
 2493SOL     OW 2059   2.460   2.591   3.994
 2493SOL    HW1 2060   2.484   2.660   3.926
 2493SOL    HW2 2061   2.382   2.624   4.048
 2496SOL     OW 2062   2.903   2.563   4.153
 2496SOL    HW1 2063   2.929   2.559   4.249
 2496SOL    HW2 2064   2.818   2.512   4.139
 2498SOL     OW 2065   2.727   2.210   3.919
 2498SOL    HW1 2066   2.786   2.273   3.870
 2498SOL    HW2 2067   2.746   2.116   3.890
 2504SOL     OW 2068   2.183   2.805   3.966
 2504SOL    HW1 2069   2.265   2.844   3.924
 2504SOL    HW2 2070   2.156   2.723   3.917
 2512SOL     OW 2071   2.244   2.562   4.204
 2512SOL    HW1 2072   2.289   2.472   4.201
 2512SOL    HW2 2073   2.150   2.551   4.237
 2513SOL     OW 2074   2.476   1.984   3.841
 2513SOL    HW1 2075   2.574   1.962   3.848
 2513SOL    HW2 2076   2.445   1.967   3.748
 2517SOL     OW 2077   3.296   3.050   3.765
 2517SOL    HW1 2078   3.328   2.974   3.822
 2517SOL    HW2 2079   3.204   3.077   3.795
 2518SOL     OW 2080   2.159   1.897   3.895
 2518SOL    HW1 2081   2.208   1.981   3.874
 2518SOL    HW2 2082   2.221   1.832   3.940
 2523SOL     OW 2083   2.894   2.411   3.740
 2523SOL    HW1 2084   2.853   2.493   3.701
 2523SOL    HW2 2085   2.958   2.437   3.813
 2529SOL     OW 2086   2.350   3.247   3.898
 2529SOL    HW1 2087   2.263   3.232   3.945
 2529SOL    HW2 2088   2.333   3.273   3.803
 2531SOL     OW 2089   3.252   2.437   3.802
 2531SOL    HW1 2090   3.198   2.416   3.883
 2531SOL    HW2 2091   3.343   2.396   3.811
 2532SOL     OW 2092   2.389   2.118   4.052
 2532SOL    HW1 2093   2.416   2.059   3.977
 2532SOL    HW2 2094   2.389   2.213   4.021
 2535SOL     OW 2095   2.567   2.912   4.092
 2535SOL    HW1 2096   2.553   2.919   4.191
 2535SOL    HW2 2097   2.651   2.861   4.074
 2543SOL     OW 2098   3.071   2.387   3.999
 2543SOL    HW1 2099   3.084   2.303   4.053
 2543SOL    HW2 2100   3.042   2.461   4.059
 2549SOL     OW 2101   3.402   2.136   3.849
 2549SOL    HW1 2102   3.341   2.061   3.872
 2549SOL    HW2 2103   3.424   2.188   3.932
 2550SOL     OW 2104   3.165   2.700   3.766
 2550SOL    HW1 2105   3.199   2.607   3.781
 2550SOL    HW2 2106   3.183   2.727   3.671
 2554SOL     OW 2107   1.870   3.188   3.924
 2554SOL    HW1 2108   1.777   3.209   3.893
 2554SOL    HW2 2109   1.880   3.089   3.937
 2559SOL     OW 2110   2.677   2.434   4.049
 2559SOL    HW1 2111   2.684   2.345   4.003
 2559SOL    HW2 2112   2.583   2.468   4.041
 2562SOL     OW 2113   2.335   2.362   3.915
 2562SOL    HW1 2114   2.396   2.442   3.919
 2562SOL    HW2 2115   2.240   2.393   3.922
 2563SOL     OW 2116   3.164   2.717   4.033
 2563SOL    HW1 2117   3.078   2.686   4.075
 2563SOL    HW2 2118   3.160   2.703   3.934
 2569SOL     OW 2119   2.534   3.478   3.878
 2569SOL    HW1 2120   2.543   3.488   3.779
 2569SOL    HW2 2121   2.494   3.389   3.899
 2572SOL     OW 2122   3.056   3.474   3.755
 2572SOL    HW1 2123   3.062   3.381   3.792
 2572SOL    HW2 2124   2.997   3.474   3.675
 2574SOL     OW 2125   2.778   2.772   4.015
 2574SOL    HW1 2126   2.841   2.810   3.947
 2574SOL    HW2 2127   2.818   2.689   4.054
 2579SOL     OW 2128   2.117   3.210   4.014
 2579SOL    HW1 2129   2.021   3.211   3.987
 2579SOL    HW2 2130   2.129   3.263   4.098
 2580SOL     OW 2131   1.937   2.207   3.757
 2580SOL    HW1 2132   1.845   2.179   3.728
 2580SOL    HW2 2133   1.968   2.284   3.701
 2581SOL     OW 2134   1.934   2.028   4.042
 2581SOL    HW1 2135   1.917   2.111   3.988
 2581SOL    HW2 2136   2.024   1.991   4.020
 2582SOL     OW 2137   3.045   3.197   3.843
 2582SOL    HW1 2138   2.946   3.186   3.845
 2582SOL    HW2 2139   3.079   3.212   3.936
 2587SOL     OW 2140   2.721   3.236   3.740
 2587SOL    HW1 2141   2.675   3.251   3.828
 2587SOL    HW2 2142   2.765   3.321   3.710
 2590SOL     OW 2143   2.945   2.846   3.811
 2590SOL    HW1 2144   2.922   2.899   3.729
 2590SOL    HW2 2145   3.026   2.790   3.792
 2594SOL     OW 2146   2.290   2.286   4.244
 2594SOL    HW1 2147   2.320   2.214   4.182
 2594SOL    HW2 2148   2.251   2.246   4.327
 2597SOL     OW 2149   2.632   3.192   4.025
 2597SOL    HW1 2150   2.586   3.105   4.042
 2597SOL    HW2 2151   2.723   3.189   4.066
 2598SOL     OW 2152   3.214   1.914   3.892
 2598SOL    HW1 2153   3.249   1.873   3.808
 2598SOL    HW2 2154   3.124   1.876   3.912
 2601SOL     OW 2155   1.901   2.939   4.024
 2601SOL    HW1 2156   2.000   2.928   4.015
 2601SOL    HW2 2157   1.861   2.853   4.056
 2625SOL     OW 2158   2.179   3.975   1.801
 2625SOL    HW1 2159   2.250   4.046   1.807
 2625SOL    HW2 2160   2.091   4.014   1.829
 2645SOL     OW 2161   2.643   3.988   1.749
 2645SOL    HW1 2162   2.710   3.927   1.792
 2645SOL    HW2 2163   2.570   4.007   1.814
 2665SOL     OW 2164   2.777   3.813   1.402
 2665SOL    HW1 2165   2.802   3.793   1.307
 2665SOL    HW2 2166   2.849   3.869   1.444
 2674SOL     OW 2167   2.875   3.829   1.770
 2674SOL    HW1 2168   2.881   3.914   1.718
 2674SOL    HW2 2169   2.907   3.753   1.713
 2675SOL     OW 2170   2.366   3.774   1.740
 2675SOL    HW1 2171   2.324   3.717   1.670
 2675SOL    HW2 2172   2.300   3.843   1.772
 2714SOL     OW 2173   2.534   3.927   1.489
 2714SOL    HW1 2174   2.624   3.911   1.449
 2714SOL    HW2 2175   2.542   3.932   1.588
 2739SOL     OW 2176   2.087   3.999   2.858
 2739SOL    HW1 2177   2.122   3.982   2.950
 2739SOL    HW2 2178   1.999   3.954   2.846
 2740SOL     OW 2179   1.881   4.092   2.509
 2740SOL    HW1 2180   1.799   4.135   2.548
 2740SOL    HW2 2181   1.853   4.019   2.446
 2757SOL     OW 2182   2.671   3.728   2.364
 2757SOL    HW1 2183   2.711   3.819   2.355
 2757SOL    HW2 2184   2.571   3.736   2.370
 2762SOL     OW 2185   3.143   4.069   2.806
 2762SOL    HW1 2186   3.057   4.019   2.793
 2762SOL    HW2 2187   3.205   4.015   2.862
 2769SOL     OW 2188   2.727   4.072   2.057
 2769SOL    HW1 2189   2.786   4.135   2.008
 2769SOL    HW2 2190   2.746   3.978   2.028
 2771SOL     OW 2191   2.412   3.920   2.747
 2771SOL    HW1 2192   2.407   3.915   2.847
 2771SOL    HW2 2193   2.414   4.016   2.718
 2776SOL     OW 2194   3.262   3.831   2.288
 2776SOL    HW1 2195   3.238   3.794   2.198
 2776SOL    HW2 2196   3.361   3.847   2.292
 2779SOL     OW 2197   2.476   3.846   1.979
 2779SOL    HW1 2198   2.574   3.824   1.986
 2779SOL    HW2 2199   2.445   3.829   1.886
 2783SOL     OW 2200   2.401   3.788   2.374
 2783SOL    HW1 2201   2.320   3.789   2.432
 2783SOL    HW2 2202   2.404   3.871   2.319
 2784SOL     OW 2203   2.159   3.759   2.033
 2784SOL    HW1 2204   2.208   3.843   2.012
 2784SOL    HW2 2205   2.221   3.694   2.078
 2785SOL     OW 2206   2.797   3.960   2.342
 2785SOL    HW1 2207   2.749   4.001   2.264
 2785SOL    HW2 2208   2.896   3.958   2.323
 2790SOL     OW 2209   2.423   3.946   3.009
 2790SOL    HW1 2210   2.461   3.862   3.046
 2790SOL    HW2 2211   2.335   3.965   3.053
 2791SOL     OW 2212   2.728   4.178   2.504
 2791SOL    HW1 2213   2.696   4.250   2.442
 2791SOL    HW2 2214   2.752   4.097   2.451
 2792SOL     OW 2215   2.879   3.763   2.615
 2792SOL    HW1 2216   2.807   3.768   2.546
 2792SOL    HW2 2217   2.855   3.694   2.684
 2797SOL     OW 2218   2.389   3.980   2.190
 2797SOL    HW1 2219   2.416   3.921   2.115
 2797SOL    HW2 2220   2.389   4.075   2.159
 2800SOL     OW 2221   2.777   3.813   3.264
 2800SOL    HW1 2222   2.802   3.793   3.169
 2800SOL    HW2 2223   2.849   3.869   3.306
 2810SOL     OW 2224   2.366   3.774   3.602
 2810SOL    HW1 2225   2.324   3.717   3.532
 2810SOL    HW2 2226   2.300   3.843   3.634
 2814SOL     OW 2227   2.169   3.937   3.093
 2814SOL    HW1 2228   2.146   3.974   3.183
 2814SOL    HW2 2229   2.139   3.842   3.087
 2817SOL     OW 2230   2.169   3.787   2.480
 2817SOL    HW1 2231   2.158   3.881   2.513
 2817SOL    HW2 2232   2.164   3.724   2.557
 2826SOL     OW 2233   3.022   3.931   3.339
 2826SOL    HW1 2234   3.022   3.995   3.416
 2826SOL    HW2 2235   3.050   3.979   3.256
 2838SOL     OW 2236   3.588   3.859   2.385
 2838SOL    HW1 2237   3.661   3.842   2.318
 2838SOL    HW2 2238   3.557   3.772   2.423
 2841SOL     OW 2239   2.125   4.050   2.582
 2841SOL    HW1 2240   2.046   4.101   2.548
 2841SOL    HW2 2241   2.116   4.035   2.680
 2845SOL     OW 2242   2.876   3.960   2.833
 2845SOL    HW1 2243   2.868   3.924   2.740
 2845SOL    HW2 2244   2.874   3.884   2.898
 2848SOL     OW 2245   2.534   3.927   3.351
 2848SOL    HW1 2246   2.624   3.911   3.311
 2848SOL    HW2 2247   2.542   3.932   3.450
 2849SOL     OW 2248   1.937   4.069   1.895
 2849SOL    HW1 2249   1.845   4.041   1.866
 2849SOL    HW2 2250   1.968   4.146   1.839
 2851SOL     OW 2251   1.934   3.890   2.180
 2851SOL    HW1 2252   1.917   3.973   2.126
 2851SOL    HW2 2253   2.024   3.853   2.158
 2857SOL     OW 2254   3.087   4.049   2.311
 2857SOL    HW1 2255   3.152   3.975   2.300
 2857SOL    HW2 2256   3.107   4.099   2.395
 2865SOL     OW 2257   2.290   4.148   2.382
 2865SOL    HW1 2258   2.320   4.076   2.320
 2865SOL    HW2 2259   2.251   4.108   2.465
 2867SOL     OW 2260   3.286   3.938   2.974
 2867SOL    HW1 2261   3.338   3.873   3.029
 2867SOL    HW2 2262   3.237   4.001   3.035
 2868SOL     OW 2263   2.863   3.758   3.016
 2868SOL    HW1 2264   2.800   3.686   2.985
 2868SOL    HW2 2265   2.956   3.722   3.016
 2870SOL     OW 2266   3.214   3.776   2.030
 2870SOL    HW1 2267   3.249   3.735   1.946
 2870SOL    HW2 2268   3.124   3.738   2.050
 2997SOL     OW 2269   3.854   1.821   1.571
 2997SOL    HW1 2270   3.844   1.806   1.670
 2997SOL    HW2 2271   3.768   1.857   1.535
 3071SOL     OW 2272   3.854   1.794   1.851
 3071SOL    HW1 2273   3.813   1.720   1.904
 3071SOL    HW2 2274   3.918   1.845   1.909
 3114SOL     OW 2275   3.955   1.713   2.345
 3114SOL    HW1 2276   3.989   1.790   2.399
 3114SOL    HW2 2277   3.999   1.713   2.255
 3121SOL     OW 2278   3.751   1.596   1.979
 3121SOL    HW1 2279   3.732   1.500   2.000
 3121SOL    HW2 2280   3.718   1.654   2.054
 3137SOL     OW 2281   4.075   1.801   2.715
 3137SOL    HW1 2282   4.125   1.715   2.721
 3137SOL    HW2 2283   4.140   1.878   2.712
 3142SOL     OW 2284   3.973   1.785   3.103
 3142SOL    HW1 2285   4.030   1.720   3.153
 3142SOL    HW2 2286   3.957   1.752   3.010
 3167SOL     OW 2287   3.788   1.564   3.193
 3167SOL    HW1 2288   3.742   1.646   3.159
 3167SOL    HW2 2289   3.886   1.583   3.202
 3191SOL     OW 2290   3.732   1.326   2.062
 3191SOL    HW1 2291   3.639   1.347   2.031
 3191SOL    HW2 2292   3.742   1.227   2.075
 3192SOL     OW 2293   3.812   1.801   2.789
 3192SOL    HW1 2294   3.770   1.715   2.762
 3192SOL    HW2 2295   3.906   1.804   2.755
 3348SOL     OW 2296   3.837   2.599   1.597
 3348SOL    HW1 2297   3.925   2.586   1.642
 3348SOL    HW2 2298   3.824   2.696   1.575
 3352SOL     OW 2299   4.041   2.113   1.801
 3352SOL    HW1 2300   4.112   2.184   1.807
 3352SOL    HW2 2301   3.953   2.152   1.829
 3366SOL     OW 2302   3.926   2.147   1.498
 3366SOL    HW1 2303   3.846   2.207   1.485
 3366SOL    HW2 2304   3.916   2.098   1.584
 3384SOL     OW 2305   3.802   2.418   1.386
 3384SOL    HW1 2306   3.894   2.417   1.345
 3384SOL    HW2 2307   3.796   2.492   1.453
 3411SOL     OW 2308   4.074   2.760   1.804
 3411SOL    HW1 2309   4.150   2.804   1.852
 3411SOL    HW2 2310   4.109   2.713   1.722
 3422SOL     OW 2311   3.913   2.382   1.722
 3422SOL    HW1 2312   3.972   2.342   1.652
 3422SOL    HW2 2313   3.855   2.453   1.681
 3444SOL     OW 2314   3.829   2.875   1.726
 3444SOL    HW1 2315   3.752   2.842   1.780
 3444SOL    HW2 2316   3.914   2.845   1.768
 3455SOL     OW 2317   3.945   3.176   1.844
 3455SOL    HW1 2318   3.880   3.103   1.823
 3455SOL    HW2 2319   3.949   3.190   1.942
 3466SOL     OW 2320   3.954   2.490   1.975
 3466SOL    HW1 2321   3.861   2.488   2.012
 3466SOL    HW2 2322   3.955   2.451   1.883
 3467SOL     OW 2323   3.949   2.137   2.858
 3467SOL    HW1 2324   3.984   2.120   2.950
 3467SOL    HW2 2325   3.861   2.092   2.846
 3468SOL     OW 2326   3.743   2.230   2.509
 3468SOL    HW1 2327   3.661   2.273   2.548
 3468SOL    HW2 2328   3.715   2.157   2.446
 3478SOL     OW 2329   3.954   3.296   2.400
 3478SOL    HW1 2330   3.928   3.392   2.400
 3478SOL    HW2 2331   3.883   3.242   2.445
 3479SOL     OW 2332   3.964   2.953   2.748
 3479SOL    HW1 2333   3.978   2.869   2.800
 3479SOL    HW2 2334   3.909   3.017   2.803
 3482SOL     OW 2335   3.846   2.505   2.425
 3482SOL    HW1 2336   3.801   2.417   2.442
 3482SOL    HW2 2337   3.845   2.559   2.509
 3483SOL     OW 2338   3.751   3.458   1.979
 3483SOL    HW1 2339   3.732   3.362   2.000
 3483SOL    HW2 2340   3.718   3.516   2.054
 3484SOL     OW 2341   3.837   2.599   3.459
 3484SOL    HW1 2342   3.925   2.586   3.504
 3484SOL    HW2 2343   3.824   2.696   3.437
 3487SOL     OW 2344   3.921   2.838   3.126
 3487SOL    HW1 2345   4.010   2.793   3.112
 3487SOL    HW2 2346   3.848   2.773   3.107
 3494SOL     OW 2347   3.800   2.673   2.651
 3494SOL    HW1 2348   3.899   2.661   2.660
 3494SOL    HW2 2349   3.776   2.768   2.672
 3500SOL     OW 2350   4.045   2.805   2.104
 3500SOL    HW1 2351   4.127   2.844   2.062
 3500SOL    HW2 2352   4.018   2.723   2.055
 3502SOL     OW 2353   3.926   2.147   3.360
 3502SOL    HW1 2354   3.846   2.207   3.347
 3502SOL    HW2 2355   3.916   2.098   3.446
 3506SOL     OW 2356   4.106   2.562   2.342
 3506SOL    HW1 2357   4.151   2.472   2.339
 3506SOL    HW2 2358   4.012   2.551   2.375
 3513SOL     OW 2359   4.021   1.897   2.033
 3513SOL    HW1 2360   4.070   1.981   2.012
 3513SOL    HW2 2361   4.083   1.832   2.078
 3519SOL     OW 2362   3.802   2.418   3.248
 3519SOL    HW1 2363   3.894   2.417   3.207
 3519SOL    HW2 2364   3.796   2.492   3.315
 3529SOL     OW 2365   3.788   3.426   3.193
 3529SOL    HW1 2366   3.742   3.508   3.159
 3529SOL    HW2 2367   3.886   3.445   3.202
 3530SOL     OW 2368   4.091   2.962   2.363
 3530SOL    HW1 2369   4.084   3.045   2.307
 3530SOL    HW2 2370   4.095   2.882   2.303
 3540SOL     OW 2371   4.031   2.075   3.093
 3540SOL    HW1 2372   4.008   2.112   3.183
 3540SOL    HW2 2373   4.001   1.980   3.087
 3541SOL     OW 2374   3.761   3.172   3.144
 3541SOL    HW1 2375   3.814   3.123   3.212
 3541SOL    HW2 2376   3.783   3.270   3.149
 3543SOL     OW 2377   4.031   1.925   2.480
 3543SOL    HW1 2378   4.020   2.019   2.513
 3543SOL    HW2 2379   4.026   1.862   2.557
 3549SOL     OW 2380   4.043   2.672   2.811
 3549SOL    HW1 2381   4.136   2.708   2.816
 3549SOL    HW2 2382   4.037   2.587   2.863
 3550SOL     OW 2383   4.063   2.371   2.868
 3550SOL    HW1 2384   4.011   2.288   2.851
 3550SOL    HW2 2385   4.140   2.376   2.804
 3553SOL     OW 2386   3.732   3.188   2.062
 3553SOL    HW1 2387   3.639   3.209   2.031
 3553SOL    HW2 2388   3.742   3.089   2.075
 3557SOL     OW 2389   3.764   2.406   2.976
 3557SOL    HW1 2390   3.849   2.373   2.935
 3557SOL    HW2 2391   3.777   2.421   3.074
 3563SOL     OW 2392   4.197   2.362   2.053
 3563SOL    HW1 2393   4.258   2.442   2.057
 3563SOL    HW2 2394   4.102   2.393   2.060
 3564SOL     OW 2395   3.883   2.999   3.328
 3564SOL    HW1 2396   3.905   2.938   3.404
 3564SOL    HW2 2397   3.893   2.950   3.242
 3566SOL     OW 2398   3.807   3.120   2.884
 3566SOL    HW1 2399   3.802   3.119   2.984
 3566SOL    HW2 2400   3.724   3.079   2.846
 3571SOL     OW 2401   3.987   2.188   2.582
 3571SOL    HW1 2402   3.908   2.239   2.548
 3571SOL    HW2 2403   3.978   2.173   2.680
 3578SOL     OW 2404   3.979   3.210   2.152
 3578SOL    HW1 2405   3.883   3.211   2.125
 3578SOL    HW2 2406   3.991   3.263   2.236
 3581SOL     OW 2407   3.799   2.207   1.895
 3581SOL    HW1 2408   3.707   2.179   1.866
 3581SOL    HW2 2409   3.830   2.284   1.839
 3582SOL     OW 2410   3.796   2.028   2.180
 3582SOL    HW1 2411   3.779   2.111   2.126
 3582SOL    HW2 2412   3.886   1.991   2.158
 3592SOL     OW 2413   3.803   3.102   2.515
 3592SOL    HW1 2414   3.802   3.055   2.603
 3592SOL    HW2 2415   3.885   3.074   2.464
 3594SOL     OW 2416   4.152   2.286   2.382
 3594SOL    HW1 2417   4.182   2.214   2.320
 3594SOL    HW2 2418   4.113   2.246   2.465
 3595SOL     OW 2419   4.041   2.409   3.142
 3595SOL    HW1 2420   4.079   2.350   3.214
 3595SOL    HW2 2421   4.081   2.383   3.054
 3600SOL     OW 2422   3.763   2.939   2.162
 3600SOL    HW1 2423   3.862   2.928   2.153
 3600SOL    HW2 2424   3.723   2.853   2.194
   4.92682   4.92682   4.92682
