; mobley_5094777_GMX.itp created by acpype (v: 2023.10.27) on Thu May 21 00:21:55 2026

[ atomtypes ]
;name   bond_type     mass     charge   ptype   sigma         epsilon       Amb
 ca       ca          0.00000  0.00000   A     3.31521e-01   4.13379e-01 ; 1.86  0.0988
 c5       c5          0.00000  0.00000   A     3.39771e-01   4.51035e-01 ; 1.91  0.1078
 ha       ha          0.00000  0.00000   A     2.62548e-01   6.73624e-02 ; 1.47  0.0161
 hc       hc          0.00000  0.00000   A     2.60018e-01   8.70272e-02 ; 1.46  0.0208

[ moleculetype ]
;name            nrexcl
 mobley_5094777   3

[ atoms ]
;   nr  type  resi  res  atom  cgnr     charge      mass       ; qtot   bond_type
     1   ca     1   MOL    C1    1    -0.132000     12.01000 ; qtot -0.132
     2   ca     1   MOL    C2    2    -0.132000     12.01000 ; qtot -0.264
     3   ca     1   MOL    C3    3    -0.119000     12.01000 ; qtot -0.383
     4   ca     1   MOL    C4    4    -0.119000     12.01000 ; qtot -0.502
     5   ca     1   MOL    C5    5    -0.086300     12.01000 ; qtot -0.588
     6   ca     1   MOL    C6    6    -0.086300     12.01000 ; qtot -0.675
     7   c5     1   MOL    C7    7    -0.036100     12.01000 ; qtot -0.711
     8   c5     1   MOL    C8    8    -0.036100     12.01000 ; qtot -0.747
     9   c5     1   MOL    C9    9    -0.079400     12.01000 ; qtot -0.826
    10   ha     1   MOL    H1   10     0.129000      1.00800 ; qtot -0.697
    11   ha     1   MOL    H2   11     0.129000      1.00800 ; qtot -0.568
    12   ha     1   MOL    H3   12     0.133000      1.00800 ; qtot -0.435
    13   ha     1   MOL    H4   13     0.133000      1.00800 ; qtot -0.302
    14   hc     1   MOL    H5   14     0.053700      1.00800 ; qtot -0.249
    15   hc     1   MOL    H6   15     0.053700      1.00800 ; qtot -0.195
    16   hc     1   MOL    H7   16     0.053700      1.00800 ; qtot -0.141
    17   hc     1   MOL    H8   17     0.053700      1.00800 ; qtot -0.087
    18   hc     1   MOL    H9   18     0.043700      1.00800 ; qtot -0.044
    19   hc     1   MOL   H10   19     0.043700      1.00800 ; qtot -0.000

[ bonds ]
;   ai     aj funct   r             k
     1      2   1    1.3986e-01    2.9644e+05 ;     C1 - C2    
     1      3   1    1.3986e-01    2.9644e+05 ;     C1 - C3    
     1     10   1    1.0860e-01    3.0183e+05 ;     C1 - H1    
     2      4   1    1.3986e-01    2.9644e+05 ;     C2 - C4    
     2     11   1    1.0860e-01    3.0183e+05 ;     C2 - H2    
     3      5   1    1.3986e-01    2.9644e+05 ;     C3 - C5    
     3     12   1    1.0860e-01    3.0183e+05 ;     C3 - H3    
     4      6   1    1.3986e-01    2.9644e+05 ;     C4 - C6    
     4     13   1    1.0860e-01    3.0183e+05 ;     C4 - H4    
     5      6   1    1.3986e-01    2.9644e+05 ;     C5 - C6    
     5      7   1    1.5151e-01    2.0384e+05 ;     C5 - C7    
     6      8   1    1.5151e-01    2.0384e+05 ;     C6 - C8    
     7      9   1    1.5483e-01    1.8418e+05 ;     C7 - C9    
     7     14   1    1.0954e-01    2.8989e+05 ;     C7 - H5    
     7     15   1    1.0954e-01    2.8989e+05 ;     C7 - H6    
     8      9   1    1.5483e-01    1.8418e+05 ;     C8 - C9    
     8     16   1    1.0954e-01    2.8989e+05 ;     C8 - H7    
     8     17   1    1.0954e-01    2.8989e+05 ;     C8 - H8    
     9     18   1    1.0954e-01    2.8989e+05 ;     C9 - H9    
     9     19   1    1.0954e-01    2.8989e+05 ;     C9 - H10   

[ pairs ]
;   ai     aj    funct
     1      6      1 ;     C1 - C6    
     1      7      1 ;     C1 - C7    
     1     13      1 ;     C1 - H4    
     2      5      1 ;     C2 - C5    
     2      8      1 ;     C2 - C8    
     2     12      1 ;     C2 - H3    
     3      4      1 ;     C3 - C4    
     3      8      1 ;     C3 - C8    
     3      9      1 ;     C3 - C9    
     3     11      1 ;     C3 - H2    
     3     14      1 ;     C3 - H5    
     3     15      1 ;     C3 - H6    
     4      7      1 ;     C4 - C7    
     4      9      1 ;     C4 - C9    
     4     16      1 ;     C4 - H7    
     4     17      1 ;     C4 - H8    
     5     13      1 ;     C5 - H4    
     5     16      1 ;     C5 - H7    
     5     17      1 ;     C5 - H8    
     5     18      1 ;     C5 - H9    
     5     19      1 ;     C5 - H10   
     6     11      1 ;     C6 - H2    
     6     12      1 ;     C6 - H3    
     6     14      1 ;     C6 - H5    
     6     15      1 ;     C6 - H6    
     6     18      1 ;     C6 - H9    
     6     19      1 ;     C6 - H10   
     7     12      1 ;     C7 - H3    
     7     16      1 ;     C7 - H7    
     7     17      1 ;     C7 - H8    
     8     13      1 ;     C8 - H4    
     8     14      1 ;     C8 - H5    
     8     15      1 ;     C8 - H6    
    10      4      1 ;     H1 - C4    
    10      5      1 ;     H1 - C5    
    10     11      1 ;     H1 - H2    
    10     12      1 ;     H1 - H3    
    11     13      1 ;     H2 - H4    
    14     18      1 ;     H5 - H9    
    14     19      1 ;     H5 - H10   
    15     18      1 ;     H6 - H9    
    15     19      1 ;     H6 - H10   
    16     18      1 ;     H7 - H9    
    16     19      1 ;     H7 - H10   
    17     18      1 ;     H8 - H9    
    17     19      1 ;     H8 - H10   

[ angles ]
;   ai     aj     ak    funct   theta         cth
     1      2      4      1    1.2002e+02    5.3279e+02 ;     C1 - C2     - C4    
     1      2     11      1    1.1988e+02    3.7572e+02 ;     C1 - C2     - H2    
     1      3      5      1    1.2002e+02    5.3279e+02 ;     C1 - C3     - C5    
     1      3     12      1    1.1988e+02    3.7572e+02 ;     C1 - C3     - H3    
     2      1      3      1    1.2002e+02    5.3279e+02 ;     C2 - C1     - C3    
     2      1     10      1    1.1988e+02    3.7572e+02 ;     C2 - C1     - H1    
     2      4      6      1    1.2002e+02    5.3279e+02 ;     C2 - C4     - C6    
     2      4     13      1    1.1988e+02    3.7572e+02 ;     C2 - C4     - H4    
     3      1     10      1    1.1988e+02    3.7572e+02 ;     C3 - C1     - H1    
     3      5      6      1    1.2002e+02    5.3279e+02 ;     C3 - C5     - C6    
     3      5      7      1    1.2187e+02    5.0601e+02 ;     C3 - C5     - C7    
     4      2     11      1    1.1988e+02    3.7572e+02 ;     C4 - C2     - H2    
     4      6      5      1    1.2002e+02    5.3279e+02 ;     C4 - C6     - C5    
     4      6      8      1    1.2187e+02    5.0601e+02 ;     C4 - C6     - C8    
     5      3     12      1    1.1988e+02    3.7572e+02 ;     C5 - C3     - H3    
     5      6      8      1    1.2187e+02    5.0601e+02 ;     C5 - C6     - C8    
     5      7      9      1    1.0483e+02    5.2049e+02 ;     C5 - C7     - C9    
     5      7     14      1    1.1160e+02    3.6334e+02 ;     C5 - C7     - H5    
     5      7     15      1    1.1160e+02    3.6334e+02 ;     C5 - C7     - H6    
     6      4     13      1    1.1988e+02    3.7572e+02 ;     C6 - C4     - H4    
     6      5      7      1    1.2187e+02    5.0601e+02 ;     C6 - C5     - C7    
     6      8      9      1    1.0483e+02    5.2049e+02 ;     C6 - C8     - C9    
     6      8     16      1    1.1160e+02    3.6334e+02 ;     C6 - C8     - H7    
     6      8     17      1    1.1160e+02    3.6334e+02 ;     C6 - C8     - H8    
     7      9      8      1    1.0383e+02    5.1748e+02 ;     C7 - C9     - C8    
     7      9     18      1    1.1117e+02    3.5690e+02 ;     C7 - C9     - H9    
     7      9     19      1    1.1117e+02    3.5690e+02 ;     C7 - C9     - H10   
     8      9     18      1    1.1117e+02    3.5690e+02 ;     C8 - C9     - H9    
     8      9     19      1    1.1117e+02    3.5690e+02 ;     C8 - C9     - H10   
     9      7     14      1    1.1117e+02    3.5690e+02 ;     C9 - C7     - H5    
     9      7     15      1    1.1117e+02    3.5690e+02 ;     C9 - C7     - H6    
     9      8     16      1    1.1117e+02    3.5690e+02 ;     C9 - C8     - H7    
     9      8     17      1    1.1117e+02    3.5690e+02 ;     C9 - C8     - H8    
    14      7     15      1    1.0722e+02    3.0049e+02 ;     H5 - C7     - H6    
    16      8     17      1    1.0722e+02    3.0049e+02 ;     H7 - C8     - H8    
    18      9     19      1    1.0722e+02    3.0049e+02 ;     H9 - C9     - H10   

[ dihedrals ] ; propers
; for gromacs 4.5 or higher, using funct 9
;    i      j      k      l   func   phase     kd      pn
     1      2      4      6      9   180.00  15.16700   2 ;     C1-    C2-    C4-    C6
     1      2      4     13      9   180.00  15.16700   2 ;     C1-    C2-    C4-    H4
     1      3      5      6      9   180.00  15.16700   2 ;     C1-    C3-    C5-    C6
     1      3      5      7      9   180.00  15.16700   2 ;     C1-    C3-    C5-    C7
     2      1      3      5      9   180.00  15.16700   2 ;     C2-    C1-    C3-    C5
     2      1      3     12      9   180.00  15.16700   2 ;     C2-    C1-    C3-    H3
     2      4      6      5      9   180.00  15.16700   2 ;     C2-    C4-    C6-    C5
     2      4      6      8      9   180.00  15.16700   2 ;     C2-    C4-    C6-    C8
     3      1      2      4      9   180.00  15.16700   2 ;     C3-    C1-    C2-    C4
     3      1      2     11      9   180.00  15.16700   2 ;     C3-    C1-    C2-    H2
     3      5      6      4      9   180.00  15.16700   2 ;     C3-    C5-    C6-    C4
     3      5      6      8      9   180.00  15.16700   2 ;     C3-    C5-    C6-    C8
     3      5      7      9      9   180.00   1.00416   2 ;     C3-    C5-    C7-    C9
     3      5      7     14      9     0.00   0.00000   0 ;     C3-    C5-    C7-    H5
     3      5      7     15      9     0.00   0.00000   0 ;     C3-    C5-    C7-    H6
     4      6      5      7      9   180.00  15.16700   2 ;     C4-    C6-    C5-    C7
     4      6      8      9      9   180.00   1.00416   2 ;     C4-    C6-    C8-    C9
     4      6      8     16      9     0.00   0.00000   0 ;     C4-    C6-    C8-    H7
     4      6      8     17      9     0.00   0.00000   0 ;     C4-    C6-    C8-    H8
     5      6      4     13      9   180.00  15.16700   2 ;     C5-    C6-    C4-    H4
     5      6      8      9      9   180.00   1.00416   2 ;     C5-    C6-    C8-    C9
     5      6      8     16      9     0.00   0.00000   0 ;     C5-    C6-    C8-    H7
     5      6      8     17      9     0.00   0.00000   0 ;     C5-    C6-    C8-    H8
     5      7      9      8      9     0.00   0.65084   3 ;     C5-    C7-    C9-    C8
     5      7      9     18      9     0.00   0.65084   3 ;     C5-    C7-    C9-    H9
     5      7      9     19      9     0.00   0.65084   3 ;     C5-    C7-    C9-   H10
     6      4      2     11      9   180.00  15.16700   2 ;     C6-    C4-    C2-    H2
     6      5      3     12      9   180.00  15.16700   2 ;     C6-    C5-    C3-    H3
     6      5      7      9      9   180.00   1.00416   2 ;     C6-    C5-    C7-    C9
     6      5      7     14      9     0.00   0.00000   0 ;     C6-    C5-    C7-    H5
     6      5      7     15      9     0.00   0.00000   0 ;     C6-    C5-    C7-    H6
     6      8      9      7      9     0.00   0.65084   3 ;     C6-    C8-    C9-    C7
     6      8      9     18      9     0.00   0.65084   3 ;     C6-    C8-    C9-    H9
     6      8      9     19      9     0.00   0.65084   3 ;     C6-    C8-    C9-   H10
     7      5      3     12      9   180.00  15.16700   2 ;     C7-    C5-    C3-    H3
     7      5      6      8      9   180.00  15.16700   2 ;     C7-    C5-    C6-    C8
     7      9      8     16      9     0.00   0.54392   3 ;     C7-    C9-    C8-    H7
     7      9      8     17      9     0.00   0.54392   3 ;     C7-    C9-    C8-    H8
     8      6      4     13      9   180.00  15.16700   2 ;     C8-    C6-    C4-    H4
     8      9      7     14      9     0.00   0.54392   3 ;     C8-    C9-    C7-    H5
     8      9      7     15      9     0.00   0.54392   3 ;     C8-    C9-    C7-    H6
    10      1      2      4      9   180.00  15.16700   2 ;     H1-    C1-    C2-    C4
    10      1      2     11      9   180.00  15.16700   2 ;     H1-    C1-    C2-    H2
    10      1      3      5      9   180.00  15.16700   2 ;     H1-    C1-    C3-    C5
    10      1      3     12      9   180.00  15.16700   2 ;     H1-    C1-    C3-    H3
    11      2      4     13      9   180.00  15.16700   2 ;     H2-    C2-    C4-    H4
    14      7      9     18      9     0.00   0.50208   3 ;     H5-    C7-    C9-    H9
    14      7      9     19      9     0.00   0.50208   3 ;     H5-    C7-    C9-   H10
    15      7      9     18      9     0.00   0.50208   3 ;     H6-    C7-    C9-    H9
    15      7      9     19      9     0.00   0.50208   3 ;     H6-    C7-    C9-   H10
    16      8      9     18      9     0.00   0.50208   3 ;     H7-    C8-    C9-    H9
    16      8      9     19      9     0.00   0.50208   3 ;     H7-    C8-    C9-   H10
    17      8      9     18      9     0.00   0.50208   3 ;     H8-    C8-    C9-    H9
    17      8      9     19      9     0.00   0.50208   3 ;     H8-    C8-    C9-   H10

[ dihedrals ] ; impropers
; treated as propers in GROMACS to use correct AMBER analytical function
;    i      j      k      l   func   phase     kd      pn
     1      4      2     11      4   180.00   4.60240   2 ;     C1-    C4-    C2-    H2
     1      5      3     12      4   180.00   4.60240   2 ;     C1-    C5-    C3-    H3
     2      6      4     13      4   180.00   4.60240   2 ;     C2-    C6-    C4-    H4
     7      3      5      6      4   180.00   4.60240   2 ;     C7-    C3-    C5-    C6
     8      4      6      5      4   180.00   4.60240   2 ;     C8-    C4-    C6-    C5
    10      1      3      2      4   180.00   4.60240   2 ;     H1-    C1-    C3-    C2
