; mobley_2913224_GMX.itp created by acpype (v: 2023.10.27) on Thu May 21 00:09:59 2026

[ atomtypes ]
;name   bond_type     mass     charge   ptype   sigma         epsilon       Amb
 ca       ca          0.00000  0.00000   A     3.31521e-01   4.13379e-01 ; 1.86  0.0988
 c        c           0.00000  0.00000   A     3.31521e-01   4.13379e-01 ; 1.86  0.0988
 c3       c3          0.00000  0.00000   A     3.39771e-01   4.51035e-01 ; 1.91  0.1078
 o        o           0.00000  0.00000   A     3.04812e-01   6.12119e-01 ; 1.71  0.1463
 oh       oh          0.00000  0.00000   A     3.24287e-01   3.89112e-01 ; 1.82  0.0930
 os       os          0.00000  0.00000   A     3.15610e-01   3.03758e-01 ; 1.77  0.0726
 ha       ha          0.00000  0.00000   A     2.62548e-01   6.73624e-02 ; 1.47  0.0161
 hc       hc          0.00000  0.00000   A     2.60018e-01   8.70272e-02 ; 1.46  0.0208
 ho       ho          0.00000  0.00000   A     5.37925e-02   1.96648e-02 ; 0.30  0.0047

[ moleculetype ]
;name            nrexcl
 mobley_2913224   3

[ atoms ]
;   nr  type  resi  res  atom  cgnr     charge      mass       ; qtot   bond_type
     1   ca     1   MOL    C1    1    -0.154000     12.01000 ; qtot -0.154
     2   ca     1   MOL    C2    2    -0.082000     12.01000 ; qtot -0.236
     3   ca     1   MOL    C3    3    -0.057000     12.01000 ; qtot -0.293
     4   ca     1   MOL    C4    4    -0.147000     12.01000 ; qtot -0.440
     5   ca     1   MOL    C5    5    -0.147600     12.01000 ; qtot -0.588
     6   ca     1   MOL    C6    6     0.180100     12.01000 ; qtot -0.407
     7    c     1   MOL    C7    7     0.665700     12.01000 ; qtot 0.258
     8    c     1   MOL    C8    8     0.665100     12.01000 ; qtot 0.923
     9   c3     1   MOL    C9    9    -0.147100     12.01000 ; qtot 0.776
    10    o     1   MOL    O1   10    -0.565000     16.00000 ; qtot 0.211
    11    o     1   MOL    O2   11    -0.518000     16.00000 ; qtot -0.307
    12   oh     1   MOL    O3   12    -0.605100     16.00000 ; qtot -0.912
    13   os     1   MOL    O4   13    -0.381200     16.00000 ; qtot -1.293
    14   ha     1   MOL    H1   14     0.143000      1.00800 ; qtot -1.150
    15   ha     1   MOL    H2   15     0.141000      1.00800 ; qtot -1.009
    16   ha     1   MOL    H3   16     0.159000      1.00800 ; qtot -0.850
    17   ha     1   MOL    H4   17     0.154000      1.00800 ; qtot -0.696
    18   hc     1   MOL    H5   18     0.082700      1.00800 ; qtot -0.613
    19   hc     1   MOL    H6   19     0.082700      1.00800 ; qtot -0.531
    20   hc     1   MOL    H7   20     0.082700      1.00800 ; qtot -0.448
    21   ho     1   MOL    H8   21     0.448000      1.00800 ; qtot 0.000

[ bonds ]
;   ai     aj funct   r             k
     1      2   1    1.3986e-01    2.9644e+05 ;     C1 - C2    
     1      3   1    1.3986e-01    2.9644e+05 ;     C1 - C3    
     1     14   1    1.0860e-01    3.0183e+05 ;     C1 - H1    
     2      4   1    1.3986e-01    2.9644e+05 ;     C2 - C4    
     2     15   1    1.0860e-01    3.0183e+05 ;     C2 - H2    
     3      5   1    1.3986e-01    2.9644e+05 ;     C3 - C5    
     3     16   1    1.0860e-01    3.0183e+05 ;     C3 - H3    
     4      6   1    1.3986e-01    2.9644e+05 ;     C4 - C6    
     4     17   1    1.0860e-01    3.0183e+05 ;     C4 - H4    
     5      6   1    1.3986e-01    2.9644e+05 ;     C5 - C6    
     5      7   1    1.4907e-01    2.1994e+05 ;     C5 - C7    
     6     13   1    1.3688e-01    2.8731e+05 ;     C6 - O4    
     7     10   1    1.2190e-01    4.9421e+05 ;     C7 - O1    
     7     12   1    1.3556e-01    3.0064e+05 ;     C7 - O3    
     8      9   1    1.5270e-01    1.9652e+05 ;     C8 - C9    
     8     11   1    1.2190e-01    4.9421e+05 ;     C8 - O2    
     8     13   1    1.3621e-01    2.9398e+05 ;     C8 - O4    
     9     18   1    1.0962e-01    2.8891e+05 ;     C9 - H5    
     9     19   1    1.0962e-01    2.8891e+05 ;     C9 - H6    
     9     20   1    1.0962e-01    2.8891e+05 ;     C9 - H7    
    12     21   1    9.7250e-02    4.4811e+05 ;     O3 - H8    

[ pairs ]
;   ai     aj    funct
     1      6      1 ;     C1 - C6    
     1      7      1 ;     C1 - C7    
     1     17      1 ;     C1 - H4    
     2      5      1 ;     C2 - C5    
     2     13      1 ;     C2 - O4    
     2     16      1 ;     C2 - H3    
     3      4      1 ;     C3 - C4    
     3     10      1 ;     C3 - O1    
     3     12      1 ;     C3 - O3    
     3     13      1 ;     C3 - O4    
     3     15      1 ;     C3 - H2    
     4      7      1 ;     C4 - C7    
     4      8      1 ;     C4 - C8    
     5      8      1 ;     C5 - C8    
     5     17      1 ;     C5 - H4    
     5     21      1 ;     C5 - H8    
     6      9      1 ;     C6 - C9    
     6     10      1 ;     C6 - O1    
     6     11      1 ;     C6 - O2    
     6     12      1 ;     C6 - O3    
     6     15      1 ;     C6 - H2    
     6     16      1 ;     C6 - H3    
     7     13      1 ;     C7 - O4    
     7     16      1 ;     C7 - H3    
    10     21      1 ;     O1 - H8    
    11     18      1 ;     O2 - H5    
    11     19      1 ;     O2 - H6    
    11     20      1 ;     O2 - H7    
    13     17      1 ;     O4 - H4    
    13     18      1 ;     O4 - H5    
    13     19      1 ;     O4 - H6    
    13     20      1 ;     O4 - H7    
    14      4      1 ;     H1 - C4    
    14      5      1 ;     H1 - C5    
    14     15      1 ;     H1 - H2    
    14     16      1 ;     H1 - H3    
    15     17      1 ;     H2 - H4    

[ angles ]
;   ai     aj     ak    funct   theta         cth
     1      2      4      1    1.2002e+02    5.3279e+02 ;     C1 - C2     - C4    
     1      2     15      1    1.1988e+02    3.7572e+02 ;     C1 - C2     - H2    
     1      3      5      1    1.2002e+02    5.3279e+02 ;     C1 - C3     - C5    
     1      3     16      1    1.1988e+02    3.7572e+02 ;     C1 - C3     - H3    
     2      1      3      1    1.2002e+02    5.3279e+02 ;     C2 - C1     - C3    
     2      1     14      1    1.1988e+02    3.7572e+02 ;     C2 - C1     - H1    
     2      4      6      1    1.2002e+02    5.3279e+02 ;     C2 - C4     - C6    
     2      4     17      1    1.1988e+02    3.7572e+02 ;     C2 - C4     - H4    
     3      1     14      1    1.1988e+02    3.7572e+02 ;     C3 - C1     - H1    
     3      5      6      1    1.2002e+02    5.3279e+02 ;     C3 - C5     - C6    
     3      5      7      1    1.2033e+02    5.1413e+02 ;     C3 - C5     - C7    
     4      2     15      1    1.1988e+02    3.7572e+02 ;     C4 - C2     - H2    
     4      6      5      1    1.2002e+02    5.3279e+02 ;     C4 - C6     - C5    
     4      6     13      1    1.1911e+02    6.6107e+02 ;     C4 - C6     - O4    
     5      3     16      1    1.1988e+02    3.7572e+02 ;     C5 - C3     - H3    
     5      6     13      1    1.1911e+02    6.6107e+02 ;     C5 - C6     - O4    
     5      7     10      1    1.2260e+02    6.5237e+02 ;     C5 - C7     - O1    
     5      7     12      1    1.1345e+02    6.5580e+02 ;     C5 - C7     - O3    
     6      4     17      1    1.1988e+02    3.7572e+02 ;     C6 - C4     - H4    
     6      5      7      1    1.2033e+02    5.1413e+02 ;     C6 - C5     - C7    
     6     13      8      1    1.2129e+02    7.4776e+02 ;     C6 - O4     - C8    
     7     12     21      1    1.0654e+02    5.7287e+02 ;     C7 - O3     - H8    
     8      9     18      1    1.0895e+02    3.6510e+02 ;     C8 - C9     - H5    
     8      9     19      1    1.0895e+02    3.6510e+02 ;     C8 - C9     - H6    
     8      9     20      1    1.0895e+02    3.6510e+02 ;     C8 - C9     - H7    
     9      8     11      1    1.2290e+02    6.3973e+02 ;     C9 - C8     - O2    
     9      8     13      1    1.1080e+02    6.5245e+02 ;     C9 - C8     - O4    
    10      7     12      1    1.2209e+02    8.5379e+02 ;     O1 - C7     - O3    
    11      8     13      1    1.2320e+02    8.4734e+02 ;     O2 - C8     - O4    
    18      9     19      1    1.0773e+02    2.9957e+02 ;     H5 - C9     - H6    
    18      9     20      1    1.0773e+02    2.9957e+02 ;     H5 - C9     - H7    
    19      9     20      1    1.0773e+02    2.9957e+02 ;     H6 - C9     - H7    

[ dihedrals ] ; propers
; for gromacs 4.5 or higher, using funct 9
;    i      j      k      l   func   phase     kd      pn
     1      2      4      6      9   180.00  15.16700   2 ;     C1-    C2-    C4-    C6
     1      2      4     17      9   180.00  15.16700   2 ;     C1-    C2-    C4-    H4
     1      3      5      6      9   180.00  15.16700   2 ;     C1-    C3-    C5-    C6
     1      3      5      7      9   180.00  15.16700   2 ;     C1-    C3-    C5-    C7
     2      1      3      5      9   180.00  15.16700   2 ;     C2-    C1-    C3-    C5
     2      1      3     16      9   180.00  15.16700   2 ;     C2-    C1-    C3-    H3
     2      4      6      5      9   180.00  15.16700   2 ;     C2-    C4-    C6-    C5
     2      4      6     13      9   180.00  15.16700   2 ;     C2-    C4-    C6-    O4
     3      1      2      4      9   180.00  15.16700   2 ;     C3-    C1-    C2-    C4
     3      1      2     15      9   180.00  15.16700   2 ;     C3-    C1-    C2-    H2
     3      5      6      4      9   180.00  15.16700   2 ;     C3-    C5-    C6-    C4
     3      5      6     13      9   180.00  15.16700   2 ;     C3-    C5-    C6-    O4
     3      5      7     10      9   180.00   2.42672   2 ;     C3-    C5-    C7-    O1
     3      5      7     12      9   180.00   4.18400   2 ;     C3-    C5-    C7-    O3
     4      6      5      7      9   180.00  15.16700   2 ;     C4-    C6-    C5-    C7
     4      6     13      8      9   180.00   4.10032   2 ;     C4-    C6-    O4-    C8
     5      6      4     17      9   180.00  15.16700   2 ;     C5-    C6-    C4-    H4
     5      6     13      8      9   180.00   4.10032   2 ;     C5-    C6-    O4-    C8
     5      7     12     21      9   180.00   9.62320   2 ;     C5-    C7-    O3-    H8
     6      4      2     15      9   180.00  15.16700   2 ;     C6-    C4-    C2-    H2
     6      5      3     16      9   180.00  15.16700   2 ;     C6-    C5-    C3-    H3
     6      5      7     10      9   180.00   2.42672   2 ;     C6-    C5-    C7-    O1
     6      5      7     12      9   180.00   4.18400   2 ;     C6-    C5-    C7-    O3
     6     13      8      9      9   180.00  11.29680   2 ;     C6-    O4-    C8-    C9
     6     13      8     11      9     0.00   0.33472   3 ;     C6-    O4-    C8-    O2
     6     13      8     11      9     0.00   7.23832   1 ;     C6-    O4-    C8-    O2
     6     13      8     11      9   180.00   8.99560   2 ;     C6-    O4-    C8-    O2
     7      5      3     16      9   180.00  15.16700   2 ;     C7-    C5-    C3-    H3
     7      5      6     13      9   180.00  15.16700   2 ;     C7-    C5-    C6-    O4
    10      7     12     21      9     0.00   7.94960   1 ;     O1-    C7-    O3-    H8
    10      7     12     21      9   180.00   9.62320   2 ;     O1-    C7-    O3-    H8
    11      8      9     18      9     0.00  16.86152   1 ;     O2-    C8-    C9-    H5
    11      8      9     18      9   180.00  15.31344   2 ;     O2-    C8-    C9-    H5
    11      8      9     19      9     0.00  16.86152   1 ;     O2-    C8-    C9-    H6
    11      8      9     19      9   180.00  15.31344   2 ;     O2-    C8-    C9-    H6
    11      8      9     20      9     0.00  16.86152   1 ;     O2-    C8-    C9-    H7
    11      8      9     20      9   180.00  15.31344   2 ;     O2-    C8-    C9-    H7
    13      6      4     17      9   180.00  15.16700   2 ;     O4-    C6-    C4-    H4
    13      8      9     18      9   180.00   0.00000   2 ;     O4-    C8-    C9-    H5
    13      8      9     19      9   180.00   0.00000   2 ;     O4-    C8-    C9-    H6
    13      8      9     20      9   180.00   0.00000   2 ;     O4-    C8-    C9-    H7
    14      1      2      4      9   180.00  15.16700   2 ;     H1-    C1-    C2-    C4
    14      1      2     15      9   180.00  15.16700   2 ;     H1-    C1-    C2-    H2
    14      1      3      5      9   180.00  15.16700   2 ;     H1-    C1-    C3-    C5
    14      1      3     16      9   180.00  15.16700   2 ;     H1-    C1-    C3-    H3
    15      2      4     17      9   180.00  15.16700   2 ;     H2-    C2-    C4-    H4

[ dihedrals ] ; impropers
; treated as propers in GROMACS to use correct AMBER analytical function
;    i      j      k      l   func   phase     kd      pn
     1      4      2     15      4   180.00   4.60240   2 ;     C1-    C4-    C2-    H2
     1      5      3     16      4   180.00   4.60240   2 ;     C1-    C5-    C3-    H3
     2      6      4     17      4   180.00   4.60240   2 ;     C2-    C6-    C4-    H4
     4      5      6     13      4   180.00   4.60240   2 ;     C4-    C5-    C6-    O4
     5     10      7     12      4   180.00   4.60240   2 ;     C5-    O1-    C7-    O3
     7      3      5      6      4   180.00   4.60240   2 ;     C7-    C3-    C5-    C6
     9     11      8     13      4   180.00   4.60240   2 ;     C9-    O2-    C8-    O4
    14      1      3      2      4   180.00   4.60240   2 ;     H1-    C1-    C3-    C2
