mobley_951560_GMX.gro created by acpype (v: 2023.10.27) on Tue May 19 14:13:55 2026
 2398
    1MOL     C1    1   2.159   2.275   2.132
    1MOL     C2    2   2.159   2.137   2.198
    1MOL     C3    3   2.328   2.349   2.287
    1MOL     C4    4   2.327   2.211   2.353
    1MOL     N1    5   2.198   2.379   2.227
    1MOL     N2    6   2.289   2.106   2.258
    1MOL     H1    7   2.227   2.275   2.046
    1MOL     H2    8   2.059   2.297   2.094
    1MOL     H3    9   2.080   2.132   2.275
    1MOL     H4   10   2.136   2.061   2.123
    1MOL     H5   11   2.351   2.425   2.363
    1MOL     H6   12   2.407   2.354   2.211
    1MOL     H7   13   2.428   2.189   2.392
    1MOL     H8   14   2.259   2.210   2.439
    1MOL     H9   15   2.203   2.469   2.179
    1MOL    H10   16   2.283   2.016   2.307
   14SOL     OW   17   1.460   1.505   1.339
   14SOL    HW1   18   1.484   1.599   1.365
   14SOL    HW2   19   1.444   1.451   1.421
   18SOL     OW   20   1.127   1.341   1.690
   18SOL    HW1   21   1.174   1.341   1.778
   18SOL    HW2   22   1.079   1.254   1.679
   31SOL     OW   23   1.293   1.228   1.423
   31SOL    HW1   24   1.330   1.155   1.365
   31SOL    HW2   25   1.345   1.233   1.508
   35SOL     OW   26   1.187   1.792   1.616
   35SOL    HW1   27   1.211   1.852   1.540
   35SOL    HW2   28   1.194   1.697   1.586
   37SOL     OW   29   1.466   1.417   0.953
   37SOL    HW1   30   1.407   1.423   1.033
   37SOL    HW2   31   1.451   1.329   0.907
   50SOL     OW   32   1.719   0.585   1.831
   50SOL    HW1   33   1.693   0.674   1.795
   50SOL    HW2   34   1.717   0.517   1.758
   56SOL     OW   35   1.227   1.550   1.506
   56SOL    HW1   36   1.233   1.473   1.570
   56SOL    HW2   37   1.175   1.524   1.426
   95SOL     OW   38   1.754   1.223   1.588
   95SOL    HW1   39   1.845   1.184   1.575
   95SOL    HW2   40   1.762   1.319   1.612
   96SOL     OW   41   1.064   1.347   1.340
   96SOL    HW1   42   0.984   1.324   1.395
   96SOL    HW2   43   1.147   1.321   1.389
   97SOL     OW   44   1.592   1.629   1.625
   97SOL    HW1   45   1.619   1.663   1.535
   97SOL    HW2   46   1.671   1.591   1.671
   99SOL     OW   47   1.638   1.099   1.079
   99SOL    HW1   48   1.643   1.180   1.138
   99SOL    HW2   49   1.552   1.101   1.028
  101SOL     OW   50   0.980   1.116   1.719
  101SOL    HW1   51   0.881   1.122   1.729
  101SOL    HW2   52   1.003   1.036   1.663
  109SOL     OW   53   1.272   1.445   1.142
  109SOL    HW1   54   1.319   1.458   1.229
  109SOL    HW2   55   1.206   1.371   1.151
  113SOL     OW   56   1.587   0.779   1.670
  113SOL    HW1   57   1.495   0.817   1.665
  113SOL    HW2   58   1.647   0.826   1.605
  122SOL     OW   59   1.728   0.935   1.854
  122SOL    HW1   60   1.682   0.928   1.765
  122SOL    HW2   61   1.666   0.979   1.920
  126SOL     OW   62   0.980   1.573   1.700
  126SOL    HW1   63   0.960   1.617   1.612
  126SOL    HW2   64   1.019   1.482   1.684
  127SOL     OW   65   1.859   1.518   1.605
  127SOL    HW1   66   1.873   1.545   1.510
  127SOL    HW2   67   1.942   1.540   1.658
  142SOL     OW   68   1.369   0.950   1.660
  142SOL    HW1   69   1.408   1.039   1.680
  142SOL    HW2   70   1.379   0.930   1.563
  147SOL     OW   71   0.930   1.678   1.465
  147SOL    HW1   72   0.906   1.660   1.370
  147SOL    HW2   73   0.960   1.772   1.475
  150SOL     OW   74   1.347   1.059   1.234
  150SOL    HW1   75   1.371   0.996   1.160
  150SOL    HW2   76   1.257   1.099   1.216
  152SOL     OW   77   1.759   1.747   1.154
  152SOL    HW1   78   1.820   1.777   1.081
  152SOL    HW2   79   1.721   1.658   1.132
  153SOL     OW   80   1.252   1.731   1.128
  153SOL    HW1   81   1.336   1.736   1.074
  153SOL    HW2   82   1.229   1.635   1.146
  155SOL     OW   83   0.688   1.662   1.716
  155SOL    HW1   84   0.632   1.743   1.725
  155SOL    HW2   85   0.740   1.666   1.630
  163SOL     OW   86   1.650   1.720   1.394
  163SOL    HW1   87   1.703   1.730   1.310
  163SOL    HW2   88   1.623   1.810   1.428
  171SOL     OW   89   1.614   1.292   1.289
  171SOL    HW1   90   1.674   1.295   1.369
  171SOL    HW2   91   1.539   1.356   1.302
  184SOL     OW   92   1.493   1.767   0.959
  184SOL    HW1   93   1.526   1.831   0.890
  184SOL    HW2   94   1.559   1.761   1.034
  186SOL     OW   95   1.450   1.220   1.633
  186SOL    HW1   96   1.441   1.210   1.732
  186SOL    HW2   97   1.546   1.213   1.607
  188SOL     OW   98   1.674   0.883   1.254
  188SOL    HW1   99   1.647   0.794   1.217
  188SOL    HW2  100   1.675   0.951   1.181
  192SOL     OW  101   1.730   0.934   1.517
  192SOL    HW1  102   1.768   1.025   1.532
  192SOL    HW2  103   1.722   0.917   1.418
  197SOL     OW  104   1.861   1.569   0.851
  197SOL    HW1  105   1.790   1.557   0.781
  197SOL    HW2  106   1.862   1.490   0.911
  203SOL     OW  107   1.705   1.487   1.104
  203SOL    HW1  108   1.612   1.462   1.077
  203SOL    HW2  109   1.731   1.437   1.186
  219SOL     OW  110   1.555   1.511   2.565
  219SOL    HW1  111   1.498   1.495   2.646
  219SOL    HW2  112   1.496   1.521   2.485
  221SOL     OW  113   1.755   0.607   2.093
  221SOL    HW1  114   1.743   0.594   1.994
  221SOL    HW2  115   1.725   0.526   2.142
  227SOL     OW  116   1.460   1.505   3.201
  227SOL    HW1  117   1.484   1.599   3.227
  227SOL    HW2  118   1.444   1.451   3.283
  238SOL     OW  119   1.842   1.767   2.221
  238SOL    HW1  120   1.896   1.738   2.301
  238SOL    HW2  121   1.872   1.857   2.192
  240SOL     OW  122   1.689   0.922   2.474
  240SOL    HW1  123   1.784   0.893   2.482
  240SOL    HW2  124   1.681   0.987   2.399
  241SOL     OW  125   1.641   1.108   2.294
  241SOL    HW1  126   1.727   1.110   2.242
  241SOL    HW2  127   1.655   1.155   2.382
  244SOL     OW  128   1.293   1.228   3.285
  244SOL    HW1  129   1.330   1.155   3.227
  244SOL    HW2  130   1.345   1.233   3.370
  247SOL     OW  131   1.525   0.999   2.052
  247SOL    HW1  132   1.462   0.923   2.065
  247SOL    HW2  133   1.573   1.017   2.138
  248SOL     OW  134   1.187   1.792   3.478
  248SOL    HW1  135   1.211   1.852   3.402
  248SOL    HW2  136   1.194   1.697   3.448
  250SOL     OW  137   1.466   1.417   2.815
  250SOL    HW1  138   1.407   1.423   2.895
  250SOL    HW2  139   1.451   1.329   2.769
  251SOL     OW  140   1.667   1.714   2.434
  251SOL    HW1  141   1.626   1.691   2.346
  251SOL    HW2  142   1.649   1.640   2.499
  254SOL     OW  143   1.576   1.662   2.169
  254SOL    HW1  144   1.665   1.708   2.172
  254SOL    HW2  145   1.555   1.638   2.074
  264SOL     OW  146   1.362   1.144   2.407
  264SOL    HW1  147   1.445   1.115   2.359
  264SOL    HW2  148   1.313   1.211   2.351
  266SOL     OW  149   1.008   1.456   2.339
  266SOL    HW1  150   0.962   1.528   2.287
  266SOL    HW2  151   1.004   1.476   2.437
  268SOL     OW  152   1.795   1.066   2.735
  268SOL    HW1  153   1.733   1.051   2.659
  268SOL    HW2  154   1.743   1.077   2.820
  269SOL     OW  155   1.227   1.550   3.368
  269SOL    HW1  156   1.233   1.473   3.432
  269SOL    HW2  157   1.175   1.524   3.288
  271SOL     OW  158   1.458   0.735   2.590
  271SOL    HW1  159   1.453   0.670   2.665
  271SOL    HW2  160   1.538   0.794   2.603
  273SOL     OW  161   1.111   1.776   2.099
  273SOL    HW1  162   1.051   1.714   2.149
  273SOL    HW2  163   1.142   1.732   2.014
  275SOL     OW  164   1.632   1.377   1.943
  275SOL    HW1  165   1.600   1.471   1.933
  275SOL    HW2  166   1.556   1.314   1.931
  279SOL     OW  167   0.940   1.698   2.766
  279SOL    HW1  168   1.020   1.641   2.787
  279SOL    HW2  169   0.891   1.658   2.689
  284SOL     OW  170   0.888   1.514   3.057
  284SOL    HW1  171   0.865   1.489   2.963
  284SOL    HW2  172   0.949   1.445   3.096
  286SOL     OW  173   0.803   1.402   2.786
  286SOL    HW1  174   0.893   1.416   2.744
  286SOL    HW2  175   0.732   1.404   2.715
  289SOL     OW  176   1.434   1.188   1.903
  289SOL    HW1  177   1.466   1.112   1.960
  289SOL    HW2  178   1.342   1.215   1.933
  293SOL     OW  179   1.227   1.570   2.655
  293SOL    HW1  180   1.248   1.644   2.590
  293SOL    HW2  181   1.295   1.570   2.728
  295SOL     OW  182   1.271   1.797   2.453
  295SOL    HW1  183   1.315   1.861   2.389
  295SOL    HW2  184   1.221   1.849   2.523
  301SOL     OW  185   1.429   1.173   2.729
  301SOL    HW1  186   1.374   1.089   2.722
  301SOL    HW2  187   1.455   1.202   2.637
  303SOL     OW  188   1.857   0.833   2.239
  303SOL    HW1  189   1.899   0.769   2.303
  303SOL    HW2  190   1.819   0.782   2.161
  305SOL     OW  191   1.664   1.280   2.519
  305SOL    HW1  192   1.763   1.288   2.533
  305SOL    HW2  193   1.619   1.364   2.550
  308SOL     OW  194   1.754   1.223   3.450
  308SOL    HW1  195   1.845   1.184   3.437
  308SOL    HW2  196   1.762   1.319   3.474
  309SOL     OW  197   1.064   1.347   3.202
  309SOL    HW1  198   0.984   1.324   3.257
  309SOL    HW2  199   1.147   1.321   3.251
  310SOL     OW  200   1.592   1.629   3.487
  310SOL    HW1  201   1.619   1.663   3.397
  310SOL    HW2  202   1.671   1.591   3.533
  311SOL     OW  203   1.111   1.195   2.962
  311SOL    HW1  204   1.071   1.239   3.043
  311SOL    HW2  205   1.070   1.232   2.879
  312SOL     OW  206   1.638   1.099   2.941
  312SOL    HW1  207   1.643   1.180   3.000
  312SOL    HW2  208   1.552   1.101   2.890
  321SOL     OW  209   1.252   1.348   2.250
  321SOL    HW1  210   1.302   1.425   2.290
  321SOL    HW2  211   1.157   1.350   2.282
  322SOL     OW  212   1.272   1.445   3.004
  322SOL    HW1  213   1.319   1.458   3.091
  322SOL    HW2  214   1.206   1.371   3.013
  323SOL     OW  215   1.582   0.639   2.334
  323SOL    HW1  216   1.551   0.700   2.407
  323SOL    HW2  217   1.632   0.691   2.265
  330SOL     OW  218   1.360   0.862   2.907
  330SOL    HW1  219   1.285   0.862   2.841
  330SOL    HW2  220   1.397   0.770   2.916
  340SOL     OW  221   1.859   1.518   3.467
  340SOL    HW1  222   1.873   1.545   3.372
  340SOL    HW2  223   1.942   1.540   3.520
  343SOL     OW  224   1.303   0.838   1.904
  343SOL    HW1  225   1.337   0.745   1.919
  343SOL    HW2  226   1.321   0.865   1.809
  344SOL     OW  227   1.068   1.333   2.711
  344SOL    HW1  228   1.075   1.249   2.656
  344SOL    HW2  229   1.130   1.402   2.675
  360SOL     OW  230   0.930   1.678   3.327
  360SOL    HW1  231   0.906   1.660   3.232
  360SOL    HW2  232   0.960   1.772   3.337
  363SOL     OW  233   1.347   1.059   3.096
  363SOL    HW1  234   1.371   0.996   3.022
  363SOL    HW2  235   1.257   1.099   3.078
  364SOL     OW  236   1.302   0.855   2.171
  364SOL    HW1  237   1.216   0.824   2.213
  364SOL    HW2  238   1.298   0.841   2.072
  365SOL     OW  239   1.759   1.747   3.016
  365SOL    HW1  240   1.820   1.777   2.943
  365SOL    HW2  241   1.721   1.658   2.994
  366SOL     OW  242   1.252   1.731   2.990
  366SOL    HW1  243   1.336   1.736   2.936
  366SOL    HW2  244   1.229   1.635   3.008
  370SOL     OW  245   1.388   1.573   2.339
  370SOL    HW1  246   1.455   1.585   2.265
  370SOL    HW2  247   1.348   1.662   2.362
  372SOL     OW  248   1.280   0.927   2.534
  372SOL    HW1  249   1.340   0.846   2.536
  372SOL    HW2  250   1.320   0.996   2.474
  374SOL     OW  251   0.672   1.616   2.016
  374SOL    HW1  252   0.681   1.626   1.917
  374SOL    HW2  253   0.632   1.527   2.037
  375SOL     OW  254   1.650   1.720   3.256
  375SOL    HW1  255   1.703   1.730   3.172
  375SOL    HW2  256   1.623   1.810   3.290
  378SOL     OW  257   1.194   1.612   1.893
  378SOL    HW1  258   1.200   1.519   1.930
  378SOL    HW2  259   1.135   1.612   1.813
  381SOL     OW  260   1.504   1.607   1.906
  381SOL    HW1  261   1.412   1.644   1.913
  381SOL    HW2  262   1.542   1.627   1.816
  383SOL     OW  263   1.614   1.292   3.151
  383SOL    HW1  264   1.674   1.295   3.231
  383SOL    HW2  265   1.539   1.356   3.164
  384SOL     OW  266   1.039   1.098   2.558
  384SOL    HW1  267   0.969   1.051   2.612
  384SOL    HW2  268   1.098   1.030   2.515
  394SOL     OW  269   1.183   1.335   1.981
  394SOL    HW1  270   1.084   1.324   1.983
  394SOL    HW2  271   1.217   1.350   2.074
  396SOL     OW  272   1.493   1.767   2.821
  396SOL    HW1  273   1.526   1.831   2.752
  396SOL    HW2  274   1.559   1.761   2.896
  400SOL     OW  275   1.674   0.883   3.116
  400SOL    HW1  276   1.647   0.794   3.079
  400SOL    HW2  277   1.675   0.951   3.043
  405SOL     OW  278   0.859   1.374   1.878
  405SOL    HW1  279   0.813   1.389   1.966
  405SOL    HW2  280   0.903   1.459   1.848
  406SOL     OW  281   0.661   1.790   2.815
  406SOL    HW1  282   0.615   1.878   2.802
  406SOL    HW2  283   0.760   1.802   2.808
  408SOL     OW  284   1.083   0.984   1.949
  408SOL    HW1  285   1.060   1.037   1.867
  408SOL    HW2  286   1.164   0.928   1.930
  409SOL     OW  287   1.861   1.569   2.713
  409SOL    HW1  288   1.790   1.557   2.643
  409SOL    HW2  289   1.862   1.490   2.773
  415SOL     OW  290   1.705   1.487   2.966
  415SOL    HW1  291   1.612   1.462   2.939
  415SOL    HW2  292   1.731   1.437   3.048
  417SOL     OW  293   0.812   1.586   2.549
  417SOL    HW1  294   0.844   1.596   2.455
  417SOL    HW2  295   0.733   1.524   2.551
  420SOL     OW  296   0.770   1.330   2.163
  420SOL    HW1  297   0.724   1.243   2.180
  420SOL    HW2  298   0.861   1.327   2.204
  426SOL     OW  299   0.875   1.646   2.199
  426SOL    HW1  300   0.798   1.611   2.145
  426SOL    HW2  301   0.843   1.717   2.261
  519SOL     OW  302   0.850   2.660   1.823
  519SOL    HW1  303   0.846   2.736   1.888
  519SOL    HW2  304   0.872   2.696   1.732
  521SOL     OW  305   0.686   3.023   1.803
  521SOL    HW1  306   0.746   3.102   1.817
  521SOL    HW2  307   0.600   3.054   1.762
  523SOL     OW  308   1.460   3.367   1.339
  523SOL    HW1  309   1.484   3.461   1.365
  523SOL    HW2  310   1.444   3.313   1.421
  525SOL     OW  311   1.603   2.309   0.737
  525SOL    HW1  312   1.529   2.355   0.687
  525SOL    HW2  313   1.654   2.377   0.790
  527SOL     OW  314   1.127   3.203   1.690
  527SOL    HW1  315   1.174   3.203   1.778
  527SOL    HW2  316   1.079   3.116   1.679
  532SOL     OW  317   1.594   1.976   1.480
  532SOL    HW1  318   1.576   2.043   1.408
  532SOL    HW2  319   1.591   2.022   1.569
  540SOL     OW  320   1.293   3.090   1.423
  540SOL    HW1  321   1.330   3.017   1.365
  540SOL    HW2  322   1.345   3.095   1.508
  549SOL     OW  323   1.281   2.207   0.944
  549SOL    HW1  324   1.195   2.157   0.931
  549SOL    HW2  325   1.343   2.153   1.000
  551SOL     OW  326   0.807   2.467   1.465
  551SOL    HW1  327   0.760   2.464   1.554
  551SOL    HW2  328   0.756   2.412   1.399
  552SOL     OW  329   1.394   2.331   1.674
  552SOL    HW1  330   1.374   2.374   1.762
  552SOL    HW2  331   1.472   2.269   1.683
  553SOL     OW  332   0.973   2.752   1.572
  553SOL    HW1  333   1.019   2.668   1.543
  553SOL    HW2  334   0.917   2.786   1.497
  554SOL     OW  335   0.991   2.272   1.242
  554SOL    HW1  336   0.914   2.306   1.296
  554SOL    HW2  337   0.957   2.221   1.163
  559SOL     OW  338   1.719   2.447   1.831
  559SOL    HW1  339   1.693   2.536   1.795
  559SOL    HW2  340   1.717   2.379   1.758
  564SOL     OW  341   1.795   2.928   0.873
  564SOL    HW1  342   1.733   2.913   0.797
  564SOL    HW2  343   1.743   2.939   0.958
  565SOL     OW  344   1.227   3.412   1.506
  565SOL    HW1  345   1.233   3.335   1.570
  565SOL    HW2  346   1.175   3.386   1.426
  567SOL     OW  347   1.458   2.597   0.728
  567SOL    HW1  348   1.453   2.532   0.803
  567SOL    HW2  349   1.538   2.656   0.741
  577SOL     OW  350   1.547   2.084   1.729
  577SOL    HW1  351   1.542   2.121   1.821
  577SOL    HW2  352   1.475   2.015   1.717
  579SOL     OW  353   0.781   2.126   1.749
  579SOL    HW1  354   0.848   2.065   1.792
  579SOL    HW2  355   0.708   2.145   1.814
  581SOL     OW  356   1.351   2.452   1.433
  581SOL    HW1  357   1.379   2.409   1.518
  581SOL    HW2  358   1.376   2.548   1.434
  587SOL     OW  359   1.076   2.545   1.464
  587SOL    HW1  360   0.996   2.484   1.467
  587SOL    HW2  361   1.157   2.492   1.440
  596SOL     OW  362   1.429   3.035   0.867
  596SOL    HW1  363   1.374   2.951   0.860
  596SOL    HW2  364   1.455   3.064   0.775
  597SOL     OW  365   1.466   2.452   0.992
  597SOL    HW1  366   1.436   2.357   0.999
  597SOL    HW2  367   1.539   2.468   1.058
  603SOL     OW  368   1.754   3.085   1.588
  603SOL    HW1  369   1.845   3.046   1.575
  603SOL    HW2  370   1.762   3.181   1.612
  604SOL     OW  371   1.064   3.209   1.340
  604SOL    HW1  372   0.984   3.186   1.395
  604SOL    HW2  373   1.147   3.183   1.389
  605SOL     OW  374   1.592   3.491   1.625
  605SOL    HW1  375   1.619   3.525   1.535
  605SOL    HW2  376   1.671   3.453   1.671
  607SOL     OW  377   1.638   2.961   1.079
  607SOL    HW1  378   1.643   3.042   1.138
  607SOL    HW2  379   1.552   2.963   1.028
  608SOL     OW  380   0.915   1.951   1.402
  608SOL    HW1  381   0.940   1.931   1.307
  608SOL    HW2  382   0.987   2.007   1.444
  609SOL     OW  383   0.980   2.978   1.719
  609SOL    HW1  384   0.881   2.984   1.729
  609SOL    HW2  385   1.003   2.898   1.663
  612SOL     OW  386   1.274   2.248   1.262
  612SOL    HW1  387   1.295   2.322   1.326
  612SOL    HW2  388   1.185   2.265   1.219
  621SOL     OW  389   1.587   2.641   1.670
  621SOL    HW1  390   1.495   2.679   1.665
  621SOL    HW2  391   1.647   2.688   1.605
  622SOL     OW  392   1.013   1.967   1.770
  622SOL    HW1  393   1.019   2.052   1.718
  622SOL    HW2  394   1.045   1.891   1.713
  625SOL     OW  395   1.360   2.724   1.045
  625SOL    HW1  396   1.285   2.724   0.979
  625SOL    HW2  397   1.397   2.632   1.054
  630SOL     OW  398   1.728   2.797   1.854
  630SOL    HW1  399   1.682   2.790   1.765
  630SOL    HW2  400   1.666   2.841   1.920
  635SOL     OW  401   1.859   3.380   1.605
  635SOL    HW1  402   1.873   3.407   1.510
  635SOL    HW2  403   1.942   3.402   1.658
  642SOL     OW  404   1.138   2.242   1.678
  642SOL    HW1  405   1.093   2.305   1.742
  642SOL    HW2  406   1.231   2.273   1.661
  643SOL     OW  407   1.160   2.069   1.477
  643SOL    HW1  408   1.160   2.133   1.554
  643SOL    HW2  409   1.188   2.117   1.394
  647SOL     OW  410   1.002   2.658   1.238
  647SOL    HW1  411   1.043   2.626   1.324
  647SOL    HW2  412   0.906   2.631   1.235
  650SOL     OW  413   1.369   2.812   1.660
  650SOL    HW1  414   1.408   2.901   1.680
  650SOL    HW2  415   1.379   2.792   1.563
  652SOL     OW  416   1.657   2.466   1.206
  652SOL    HW1  417   1.619   2.397   1.268
  652SOL    HW2  418   1.739   2.430   1.162
  658SOL     OW  419   1.347   2.921   1.234
  658SOL    HW1  420   1.371   2.858   1.160
  658SOL    HW2  421   1.257   2.961   1.216
  671SOL     OW  422   1.650   3.582   1.394
  671SOL    HW1  423   1.703   3.592   1.310
  671SOL    HW2  424   1.623   3.672   1.428
  672SOL     OW  425   1.841   2.037   0.963
  672SOL    HW1  426   1.880   1.952   0.927
  672SOL    HW2  427   1.743   2.039   0.944
  675SOL     OW  428   0.822   2.864   1.372
  675SOL    HW1  429   0.862   2.863   1.280
  675SOL    HW2  430   0.832   2.956   1.412
  679SOL     OW  431   1.614   3.154   1.289
  679SOL    HW1  432   1.674   3.157   1.369
  679SOL    HW2  433   1.539   3.218   1.302
  681SOL     OW  434   1.014   2.098   0.971
  681SOL    HW1  435   1.006   2.062   0.878
  681SOL    HW2  436   1.012   2.022   1.036
  683SOL     OW  437   1.709   2.247   1.381
  683SOL    HW1  438   1.782   2.316   1.385
  683SOL    HW2  439   1.737   2.172   1.322
  686SOL     OW  440   0.672   2.065   1.489
  686SOL    HW1  441   0.762   2.049   1.449
  686SOL    HW2  442   0.680   2.070   1.588
  688SOL     OW  443   1.440   2.718   1.398
  688SOL    HW1  444   1.383   2.770   1.335
  688SOL    HW2  445   1.536   2.730   1.374
  693SOL     OW  446   0.716   2.427   1.708
  693SOL    HW1  447   0.735   2.492   1.782
  693SOL    HW2  448   0.776   2.347   1.717
  694SOL     OW  449   1.450   3.082   1.633
  694SOL    HW1  450   1.441   3.072   1.732
  694SOL    HW2  451   1.546   3.075   1.607
  696SOL     OW  452   1.674   2.745   1.254
  696SOL    HW1  453   1.647   2.656   1.217
  696SOL    HW2  454   1.675   2.813   1.181
  699SOL     OW  455   1.777   2.204   1.642
  699SOL    HW1  456   1.760   2.235   1.548
  699SOL    HW2  457   1.693   2.167   1.680
  700SOL     OW  458   1.730   2.796   1.517
  700SOL    HW1  459   1.768   2.887   1.532
  700SOL    HW2  460   1.722   2.779   1.418
  709SOL     OW  461   1.824   2.054   1.227
  709SOL    HW1  462   1.820   1.964   1.271
  709SOL    HW2  463   1.827   2.043   1.128
  711SOL     OW  464   1.705   3.349   1.104
  711SOL    HW1  465   1.612   3.324   1.077
  711SOL    HW2  466   1.731   3.299   1.186
  714SOL     OW  467   1.424   2.076   1.112
  714SOL    HW1  468   1.476   2.011   1.167
  714SOL    HW2  469   1.375   2.139   1.173
  715SOL     OW  470   1.001   1.896   1.154
  715SOL    HW1  471   0.938   1.824   1.123
  715SOL    HW2  472   1.094   1.860   1.154
  720SOL     OW  473   1.593   2.083   0.882
  720SOL    HW1  474   1.509   2.082   0.936
  720SOL    HW2  475   1.595   2.166   0.826
  727SOL     OW  476   1.555   3.373   2.565
  727SOL    HW1  477   1.498   3.357   2.646
  727SOL    HW2  478   1.496   3.383   2.485
  728SOL     OW  479   1.135   2.565   2.579
  728SOL    HW1  480   1.192   2.643   2.554
  728SOL    HW2  481   1.075   2.591   2.655
  729SOL     OW  482   1.755   2.469   2.093
  729SOL    HW1  483   1.743   2.456   1.994
  729SOL    HW2  484   1.725   2.388   2.142
  730SOL     OW  485   0.768   3.006   2.885
  730SOL    HW1  486   0.690   3.023   2.945
  730SOL    HW2  487   0.802   3.093   2.849
  732SOL     OW  488   0.685   2.874   2.527
  732SOL    HW1  489   0.754   2.858   2.597
  732SOL    HW2  490   0.612   2.931   2.565
  735SOL     OW  491   1.460   3.367   3.201
  735SOL    HW1  492   1.484   3.461   3.227
  735SOL    HW2  493   1.444   3.313   3.283
  737SOL     OW  494   1.603   2.309   2.599
  737SOL    HW1  495   1.529   2.355   2.549
  737SOL    HW2  496   1.654   2.377   2.652
  743SOL     OW  497   0.606   2.826   1.985
  743SOL    HW1  498   0.613   2.910   1.931
  743SOL    HW2  499   0.652   2.839   2.073
  744SOL     OW  500   1.594   1.976   3.342
  744SOL    HW1  501   1.576   2.043   3.270
  744SOL    HW2  502   1.591   2.022   3.431
  746SOL     OW  503   1.842   3.629   2.221
  746SOL    HW1  504   1.896   3.600   2.301
  746SOL    HW2  505   1.872   3.719   2.192
  748SOL     OW  506   1.689   2.784   2.474
  748SOL    HW1  507   1.784   2.755   2.482
  748SOL    HW2  508   1.681   2.849   2.399
  749SOL     OW  509   1.641   2.970   2.294
  749SOL    HW1  510   1.727   2.972   2.242
  749SOL    HW2  511   1.655   3.017   2.382
  752SOL     OW  512   1.293   3.090   3.285
  752SOL    HW1  513   1.330   3.017   3.227
  752SOL    HW2  514   1.345   3.095   3.370
  753SOL     OW  515   0.809   1.866   2.364
  753SOL    HW1  516   0.849   1.957   2.355
  753SOL    HW2  517   0.709   1.874   2.370
  755SOL     OW  518   1.525   2.861   2.052
  755SOL    HW1  519   1.462   2.785   2.065
  755SOL    HW2  520   1.573   2.879   2.138
  758SOL     OW  521   1.466   3.279   2.815
  758SOL    HW1  522   1.407   3.285   2.895
  758SOL    HW2  523   1.451   3.191   2.769
  759SOL     OW  524   1.667   3.576   2.434
  759SOL    HW1  525   1.626   3.553   2.346
  759SOL    HW2  526   1.649   3.502   2.499
  760SOL     OW  527   0.598   2.591   2.132
  760SOL    HW1  528   0.622   2.660   2.064
  760SOL    HW2  529   0.520   2.624   2.186
  761SOL     OW  530   1.281   2.207   2.806
  761SOL    HW1  531   1.195   2.157   2.793
  761SOL    HW2  532   1.343   2.153   2.862
  762SOL     OW  533   1.576   3.524   2.169
  762SOL    HW1  534   1.665   3.570   2.172
  762SOL    HW2  535   1.555   3.500   2.074
  764SOL     OW  536   1.394   2.331   3.536
  764SOL    HW1  537   1.374   2.374   3.624
  764SOL    HW2  538   1.472   2.269   3.545
  766SOL     OW  539   0.991   2.272   3.104
  766SOL    HW1  540   0.914   2.306   3.158
  766SOL    HW2  541   0.957   2.221   3.025
  767SOL     OW  542   1.041   2.563   2.291
  767SOL    HW1  543   1.067   2.559   2.387
  767SOL    HW2  544   0.956   2.512   2.277
  770SOL     OW  545   0.865   2.210   2.057
  770SOL    HW1  546   0.924   2.273   2.008
  770SOL    HW2  547   0.884   2.116   2.028
  771SOL     OW  548   1.719   2.447   3.693
  771SOL    HW1  549   1.693   2.536   3.657
  771SOL    HW2  550   1.717   2.379   3.620
  772SOL     OW  551   1.362   3.006   2.407
  772SOL    HW1  552   1.445   2.977   2.359
  772SOL    HW2  553   1.313   3.073   2.351
  773SOL     OW  554   0.550   2.058   2.747
  773SOL    HW1  555   0.545   2.053   2.847
  773SOL    HW2  556   0.552   2.154   2.718
  774SOL     OW  557   1.008   3.318   2.339
  774SOL    HW1  558   0.962   3.390   2.287
  774SOL    HW2  559   1.004   3.338   2.437
  776SOL     OW  560   1.795   2.928   2.735
  776SOL    HW1  561   1.733   2.913   2.659
  776SOL    HW2  562   1.743   2.939   2.820
  779SOL     OW  563   1.458   2.597   2.590
  779SOL    HW1  564   1.453   2.532   2.665
  779SOL    HW2  565   1.538   2.656   2.603
  783SOL     OW  566   1.632   3.239   1.943
  783SOL    HW1  567   1.600   3.333   1.933
  783SOL    HW2  568   1.556   3.176   1.931
  785SOL     OW  569   1.400   1.969   2.288
  785SOL    HW1  570   1.376   1.932   2.198
  785SOL    HW2  571   1.499   1.985   2.292
  789SOL     OW  572   1.547   2.084   3.591
  789SOL    HW1  573   1.542   2.121   3.683
  789SOL    HW2  574   1.475   2.015   3.579
  790SOL     OW  575   0.614   1.984   1.979
  790SOL    HW1  576   0.712   1.962   1.986
  790SOL    HW2  577   0.583   1.967   1.886
  793SOL     OW  578   1.351   2.452   3.295
  793SOL    HW1  579   1.379   2.409   3.380
  793SOL    HW2  580   1.376   2.548   3.296
  795SOL     OW  581   0.922   2.365   2.761
  795SOL    HW1  582   0.897   2.356   2.665
  795SOL    HW2  583   0.970   2.283   2.792
  796SOL     OW  584   0.539   1.926   2.374
  796SOL    HW1  585   0.458   1.927   2.432
  796SOL    HW2  586   0.542   2.009   2.319
  797SOL     OW  587   1.434   3.050   1.903
  797SOL    HW1  588   1.466   2.974   1.960
  797SOL    HW2  589   1.342   3.077   1.933
  799SOL     OW  590   0.935   2.098   2.342
  799SOL    HW1  591   0.887   2.139   2.264
  799SOL    HW2  592   1.034   2.096   2.323
  800SOL     OW  593   1.076   2.545   3.326
  800SOL    HW1  594   0.996   2.484   3.329
  800SOL    HW2  595   1.157   2.492   3.302
  801SOL     OW  596   1.227   3.432   2.655
  801SOL    HW1  597   1.248   3.506   2.590
  801SOL    HW2  598   1.295   3.432   2.728
  803SOL     OW  599   1.271   3.659   2.453
  803SOL    HW1  600   1.315   3.723   2.389
  803SOL    HW2  601   1.221   3.711   2.523
  804SOL     OW  602   1.032   2.411   1.878
  804SOL    HW1  603   0.991   2.493   1.839
  804SOL    HW2  604   1.096   2.437   1.951
  807SOL     OW  605   0.866   2.316   2.504
  807SOL    HW1  606   0.834   2.388   2.442
  807SOL    HW2  607   0.890   2.235   2.451
  808SOL     OW  608   1.017   1.901   2.615
  808SOL    HW1  609   0.945   1.906   2.546
  808SOL    HW2  610   0.993   1.832   2.684
  809SOL     OW  611   1.429   3.035   2.729
  809SOL    HW1  612   1.374   2.951   2.722
  809SOL    HW2  613   1.455   3.064   2.637
  810SOL     OW  614   1.466   2.452   2.854
  810SOL    HW1  615   1.436   2.357   2.861
  810SOL    HW2  616   1.539   2.468   2.920
  811SOL     OW  617   1.857   2.695   2.239
  811SOL    HW1  618   1.899   2.631   2.303
  811SOL    HW2  619   1.819   2.644   2.161
  813SOL     OW  620   1.664   3.142   2.519
  813SOL    HW1  621   1.763   3.150   2.533
  813SOL    HW2  622   1.619   3.226   2.550
  814SOL     OW  623   1.390   2.437   1.940
  814SOL    HW1  624   1.336   2.416   2.021
  814SOL    HW2  625   1.481   2.396   1.949
  815SOL     OW  626   0.527   2.118   2.190
  815SOL    HW1  627   0.554   2.059   2.115
  815SOL    HW2  628   0.527   2.213   2.159
  816SOL     OW  629   1.754   3.085   3.450
  816SOL    HW1  630   1.845   3.046   3.437
  816SOL    HW2  631   1.762   3.181   3.474
  819SOL     OW  632   1.111   3.057   2.962
  819SOL    HW1  633   1.071   3.101   3.043
  819SOL    HW2  634   1.070   3.094   2.879
  820SOL     OW  635   1.638   2.961   2.941
  820SOL    HW1  636   1.643   3.042   3.000
  820SOL    HW2  637   1.552   2.963   2.890
  821SOL     OW  638   0.915   1.951   3.264
  821SOL    HW1  639   0.940   1.931   3.169
  821SOL    HW2  640   0.987   2.007   3.306
  823SOL     OW  641   0.705   2.912   2.230
  823SOL    HW1  642   0.691   2.919   2.329
  823SOL    HW2  643   0.789   2.861   2.212
  825SOL     OW  644   1.274   2.248   3.124
  825SOL    HW1  645   1.295   2.322   3.188
  825SOL    HW2  646   1.185   2.265   3.081
  828SOL     OW  647   0.566   2.399   2.727
  828SOL    HW1  648   0.578   2.465   2.653
  828SOL    HW2  649   0.612   2.433   2.810
  829SOL     OW  650   1.252   3.210   2.250
  829SOL    HW1  651   1.302   3.287   2.290
  829SOL    HW2  652   1.157   3.212   2.282
  830SOL     OW  653   1.272   3.307   3.004
  830SOL    HW1  654   1.319   3.320   3.091
  830SOL    HW2  655   1.206   3.233   3.013
  831SOL     OW  656   1.582   2.501   2.334
  831SOL    HW1  657   1.551   2.562   2.407
  831SOL    HW2  658   1.632   2.553   2.265
  834SOL     OW  659   1.587   2.641   3.532
  834SOL    HW1  660   1.495   2.679   3.527
  834SOL    HW2  661   1.647   2.688   3.467
  838SOL     OW  662   1.360   2.724   2.907
  838SOL    HW1  663   1.285   2.724   2.841
  838SOL    HW2  664   1.397   2.632   2.916
  839SOL     OW  665   1.209   2.387   2.137
  839SOL    HW1  666   1.222   2.303   2.191
  839SOL    HW2  667   1.180   2.461   2.197
  842SOL     OW  668   0.732   2.496   2.926
  842SOL    HW1  669   0.791   2.470   2.850
  842SOL    HW2  670   0.704   2.592   2.915
  843SOL     OW  671   1.728   2.797   3.716
  843SOL    HW1  672   1.682   2.790   3.627
  843SOL    HW2  673   1.666   2.841   3.782
  845SOL     OW  674   1.622   2.229   2.236
  845SOL    HW1  675   1.624   2.153   2.300
  845SOL    HW2  676   1.574   2.306   2.276
  846SOL     OW  677   1.023   2.628   2.828
  846SOL    HW1  678   1.038   2.649   2.924
  846SOL    HW2  679   0.993   2.533   2.819
  848SOL     OW  680   1.859   3.380   3.467
  848SOL    HW1  681   1.873   3.407   3.372
  848SOL    HW2  682   1.942   3.402   3.520
  850SOL     OW  683   1.540   2.136   1.987
  850SOL    HW1  684   1.479   2.061   2.010
  850SOL    HW2  685   1.562   2.188   2.070
  851SOL     OW  686   1.303   2.700   1.904
  851SOL    HW1  687   1.337   2.607   1.919
  851SOL    HW2  688   1.321   2.727   1.809
  852SOL     OW  689   1.068   3.195   2.711
  852SOL    HW1  690   1.075   3.111   2.656
  852SOL    HW2  691   1.130   3.264   2.675
  855SOL     OW  692   1.138   2.242   3.540
  855SOL    HW1  693   1.093   2.305   3.604
  855SOL    HW2  694   1.231   2.273   3.523
  856SOL     OW  695   1.160   2.069   3.339
  856SOL    HW1  696   1.160   2.133   3.416
  856SOL    HW2  697   1.188   2.117   3.256
  860SOL     OW  698   1.002   2.658   3.100
  860SOL    HW1  699   1.043   2.626   3.186
  860SOL    HW2  700   0.906   2.631   3.097
  863SOL     OW  701   1.369   2.812   3.522
  863SOL    HW1  702   1.408   2.901   3.542
  863SOL    HW2  703   1.379   2.792   3.425
  864SOL     OW  704   0.815   2.434   2.187
  864SOL    HW1  705   0.822   2.345   2.141
  864SOL    HW2  706   0.721   2.468   2.179
  865SOL     OW  707   1.657   2.466   3.068
  865SOL    HW1  708   1.619   2.397   3.130
  865SOL    HW2  709   1.739   2.430   3.024
  869SOL     OW  710   0.473   2.362   2.053
  869SOL    HW1  711   0.534   2.442   2.057
  869SOL    HW2  712   0.378   2.393   2.060
  871SOL     OW  713   1.347   2.921   3.096
  871SOL    HW1  714   1.371   2.858   3.022
  871SOL    HW2  715   1.257   2.961   3.078
  872SOL     OW  716   1.302   2.717   2.171
  872SOL    HW1  717   1.216   2.686   2.213
  872SOL    HW2  718   1.298   2.703   2.072
  873SOL     OW  719   1.759   3.609   3.016
  873SOL    HW1  720   1.820   3.639   2.943
  873SOL    HW2  721   1.721   3.520   2.994
  877SOL     OW  722   1.726   1.997   2.385
  877SOL    HW1  723   1.799   1.980   2.318
  877SOL    HW2  724   1.695   1.910   2.423
  878SOL     OW  725   1.388   3.435   2.339
  878SOL    HW1  726   1.455   3.447   2.265
  878SOL    HW2  727   1.348   3.524   2.362
  880SOL     OW  728   1.280   2.789   2.534
  880SOL    HW1  729   1.340   2.708   2.536
  880SOL    HW2  730   1.320   2.858   2.474
  883SOL     OW  731   1.650   3.582   3.256
  883SOL    HW1  732   1.703   3.592   3.172
  883SOL    HW2  733   1.623   3.672   3.290
  884SOL     OW  734   1.841   2.037   2.825
  884SOL    HW1  735   1.880   1.952   2.789
  884SOL    HW2  736   1.743   2.039   2.806
  886SOL     OW  737   1.194   3.474   1.893
  886SOL    HW1  738   1.200   3.381   1.930
  886SOL    HW2  739   1.135   3.474   1.813
  888SOL     OW  740   0.916   2.772   2.153
  888SOL    HW1  741   0.979   2.810   2.085
  888SOL    HW2  742   0.956   2.689   2.192
  889SOL     OW  743   1.504   3.469   1.906
  889SOL    HW1  744   1.412   3.506   1.913
  889SOL    HW2  745   1.542   3.489   1.816
  891SOL     OW  746   1.614   3.154   3.151
  891SOL    HW1  747   1.674   3.157   3.231
  891SOL    HW2  748   1.539   3.218   3.164
  892SOL     OW  749   1.039   2.960   2.558
  892SOL    HW1  750   0.969   2.913   2.612
  892SOL    HW2  751   1.098   2.892   2.515
  893SOL     OW  752   1.014   2.098   2.833
  893SOL    HW1  753   1.006   2.062   2.740
  893SOL    HW2  754   1.012   2.022   2.898
  895SOL     OW  755   1.709   2.247   3.243
  895SOL    HW1  756   1.782   2.316   3.247
  895SOL    HW2  757   1.737   2.172   3.184
  900SOL     OW  758   1.440   2.718   3.260
  900SOL    HW1  759   1.383   2.770   3.197
  900SOL    HW2  760   1.536   2.730   3.236
  902SOL     OW  761   1.183   3.197   1.981
  902SOL    HW1  762   1.084   3.186   1.983
  902SOL    HW2  763   1.217   3.212   2.074
  904SOL     OW  764   1.493   3.629   2.821
  904SOL    HW1  765   1.526   3.693   2.752
  904SOL    HW2  766   1.559   3.623   2.896
  906SOL     OW  767   1.450   3.082   3.495
  906SOL    HW1  768   1.441   3.072   3.594
  906SOL    HW2  769   1.546   3.075   3.469
  908SOL     OW  770   1.674   2.745   3.116
  908SOL    HW1  771   1.647   2.656   3.079
  908SOL    HW2  772   1.675   2.813   3.043
  909SOL     OW  773   1.225   2.187   2.311
  909SOL    HW1  774   1.290   2.113   2.300
  909SOL    HW2  775   1.245   2.237   2.395
  910SOL     OW  776   0.594   2.607   2.514
  910SOL    HW1  777   0.644   2.692   2.495
  910SOL    HW2  778   0.506   2.609   2.466
  911SOL     OW  779   1.777   2.204   3.504
  911SOL    HW1  780   1.760   2.235   3.410
  911SOL    HW2  781   1.693   2.167   3.542
  912SOL     OW  782   1.730   2.796   3.379
  912SOL    HW1  783   1.768   2.887   3.394
  912SOL    HW2  784   1.722   2.779   3.280
  913SOL     OW  785   0.859   3.236   1.878
  913SOL    HW1  786   0.813   3.251   1.966
  913SOL    HW2  787   0.903   3.321   1.848
  915SOL     OW  788   0.859   2.818   2.723
  915SOL    HW1  789   0.913   2.749   2.771
  915SOL    HW2  790   0.827   2.887   2.789
  916SOL     OW  791   1.083   2.846   1.949
  916SOL    HW1  792   1.060   2.899   1.867
  916SOL    HW2  793   1.164   2.790   1.930
  917SOL     OW  794   1.861   3.431   2.713
  917SOL    HW1  795   1.790   3.419   2.643
  917SOL    HW2  796   1.862   3.352   2.773
  921SOL     OW  797   1.824   2.054   3.089
  921SOL    HW1  798   1.820   1.964   3.133
  921SOL    HW2  799   1.827   2.043   2.990
  923SOL     OW  800   1.705   3.349   2.966
  923SOL    HW1  801   1.612   3.324   2.939
  923SOL    HW2  802   1.731   3.299   3.048
  926SOL     OW  803   1.424   2.076   2.974
  926SOL    HW1  804   1.476   2.011   3.029
  926SOL    HW2  805   1.375   2.139   3.035
  927SOL     OW  806   1.001   1.896   3.016
  927SOL    HW1  807   0.938   1.824   2.985
  927SOL    HW2  808   1.094   1.860   3.016
  928SOL     OW  809   0.770   3.192   2.163
  928SOL    HW1  810   0.724   3.105   2.180
  928SOL    HW2  811   0.861   3.189   2.204
  930SOL     OW  812   1.352   1.914   2.030
  930SOL    HW1  813   1.387   1.873   1.946
  930SOL    HW2  814   1.262   1.876   2.050
  931SOL     OW  815   1.300   2.315   2.553
  931SOL    HW1  816   1.241   2.395   2.557
  931SOL    HW2  817   1.315   2.280   2.646
  932SOL     OW  818   1.593   2.083   2.744
  932SOL    HW1  819   1.509   2.082   2.798
  932SOL    HW2  820   1.595   2.166   2.688
  937SOL     OW  821   1.755   2.469   3.955
  937SOL    HW1  822   1.743   2.456   3.856
  937SOL    HW2  823   1.725   2.388   4.004
  979SOL     OW  824   1.390   2.437   3.802
  979SOL    HW1  825   1.336   2.416   3.883
  979SOL    HW2  826   1.481   2.396   3.811
  989SOL     OW  827   1.540   2.136   3.849
  989SOL    HW1  828   1.479   2.061   3.872
  989SOL    HW2  829   1.562   2.188   3.932
 1127SOL     OW  830   1.400   3.831   2.288
 1127SOL    HW1  831   1.376   3.794   2.198
 1127SOL    HW2  832   1.499   3.847   2.292
 1168SOL     OW  833   1.726   3.859   2.385
 1168SOL    HW1  834   1.799   3.842   2.318
 1168SOL    HW2  835   1.695   3.772   2.423
 1186SOL     OW  836   1.352   3.776   2.030
 1186SOL    HW1  837   1.387   3.735   1.946
 1186SOL    HW2  838   1.262   3.738   2.050
 1231SOL     OW  839   2.431   1.275   1.165
 1231SOL    HW1  840   2.338   1.268   1.128
 1231SOL    HW2  841   2.442   1.364   1.209
 1235SOL     OW  842   2.630   1.144   1.023
 1235SOL    HW1  843   2.552   1.161   1.083
 1235SOL    HW2  844   2.664   1.231   0.987
 1236SOL     OW  845   2.712   0.798   1.823
 1236SOL    HW1  846   2.708   0.874   1.888
 1236SOL    HW2  847   2.734   0.834   1.732
 1238SOL     OW  848   2.548   1.161   1.803
 1238SOL    HW1  849   2.608   1.240   1.817
 1238SOL    HW2  850   2.462   1.192   1.762
 1239SOL     OW  851   2.197   1.435   1.061
 1239SOL    HW1  852   2.119   1.404   1.008
 1239SOL    HW2  853   2.255   1.493   1.004
 1240SOL     OW  854   3.322   1.505   1.339
 1240SOL    HW1  855   3.346   1.599   1.365
 1240SOL    HW2  856   3.306   1.451   1.421
 1244SOL     OW  857   2.989   1.341   1.690
 1244SOL    HW1  858   3.036   1.341   1.778
 1244SOL    HW2  859   2.941   1.254   1.679
 1246SOL     OW  860   2.102   1.091   0.886
 1246SOL    HW1  861   2.116   1.007   0.938
 1246SOL    HW2  862   2.047   1.155   0.941
 1247SOL     OW  863   2.482   1.786   1.439
 1247SOL    HW1  864   2.390   1.769   1.474
 1247SOL    HW2  865   2.510   1.878   1.465
 1255SOL     OW  866   1.975   0.737   1.597
 1255SOL    HW1  867   2.063   0.724   1.642
 1255SOL    HW2  868   1.962   0.834   1.575
 1256SOL     OW  869   2.475   1.365   0.726
 1256SOL    HW1  870   2.426   1.278   0.735
 1256SOL    HW2  871   2.452   1.408   0.639
 1257SOL     OW  872   3.155   1.228   1.423
 1257SOL    HW1  873   3.192   1.155   1.365
 1257SOL    HW2  874   3.207   1.233   1.508
 1259SOL     OW  875   2.059   0.976   1.264
 1259SOL    HW1  876   2.148   0.931   1.250
 1259SOL    HW2  877   1.986   0.911   1.245
 1261SOL     OW  878   3.049   1.792   1.616
 1261SOL    HW1  879   3.073   1.852   1.540
 1261SOL    HW2  880   3.056   1.697   1.586
 1270SOL     OW  881   2.835   0.890   1.572
 1270SOL    HW1  882   2.881   0.806   1.543
 1270SOL    HW2  883   2.779   0.924   1.497
 1274SOL     OW  884   1.992   1.821   1.571
 1274SOL    HW1  885   1.982   1.806   1.670
 1274SOL    HW2  886   1.906   1.857   1.535
 1280SOL     OW  887   2.213   1.801   0.853
 1280SOL    HW1  888   2.263   1.715   0.859
 1280SOL    HW2  889   2.278   1.878   0.850
 1282SOL     OW  890   3.089   1.550   1.506
 1282SOL    HW1  891   3.095   1.473   1.570
 1282SOL    HW2  892   3.037   1.524   1.426
 1285SOL     OW  893   2.323   1.266   1.727
 1285SOL    HW1  894   2.273   1.267   1.641
 1285SOL    HW2  895   2.260   1.248   1.803
 1291SOL     OW  896   2.111   1.785   1.241
 1291SOL    HW1  897   2.168   1.720   1.291
 1291SOL    HW2  898   2.095   1.752   1.148
 1292SOL     OW  899   2.802   1.698   0.904
 1292SOL    HW1  900   2.882   1.641   0.925
 1292SOL    HW2  901   2.753   1.658   0.827
 1297SOL     OW  902   2.750   1.514   1.195
 1297SOL    HW1  903   2.727   1.489   1.101
 1297SOL    HW2  904   2.811   1.445   1.234
 1299SOL     OW  905   2.665   1.402   0.924
 1299SOL    HW1  906   2.755   1.416   0.882
 1299SOL    HW2  907   2.594   1.404   0.853
 1322SOL     OW  908   2.926   1.347   1.340
 1322SOL    HW1  909   2.846   1.324   1.395
 1322SOL    HW2  910   3.009   1.321   1.389
 1323SOL     OW  911   3.454   1.629   1.625
 1323SOL    HW1  912   3.481   1.663   1.535
 1323SOL    HW2  913   3.533   1.591   1.671
 1324SOL     OW  914   2.973   1.195   1.100
 1324SOL    HW1  915   2.933   1.239   1.181
 1324SOL    HW2  916   2.932   1.232   1.017
 1327SOL     OW  917   2.842   1.116   1.719
 1327SOL    HW1  918   2.743   1.122   1.729
 1327SOL    HW2  919   2.865   1.036   1.663
 1329SOL     OW  920   2.272   0.813   1.251
 1329SOL    HW1  921   2.358   0.825   1.301
 1329SOL    HW2  922   2.230   0.726   1.278
 1331SOL     OW  923   1.926   1.564   1.331
 1331SOL    HW1  924   1.880   1.646   1.297
 1331SOL    HW2  925   2.024   1.583   1.340
 1335SOL     OW  926   3.134   1.445   1.142
 1335SOL    HW1  927   3.181   1.458   1.229
 1335SOL    HW2  928   3.068   1.371   1.151
 1337SOL     OW  929   2.216   1.510   1.329
 1337SOL    HW1  930   2.195   1.466   1.242
 1337SOL    HW2  931   2.313   1.536   1.332
 1338SOL     OW  932   2.264   0.751   1.598
 1338SOL    HW1  933   2.332   0.806   1.551
 1338SOL    HW2  934   2.304   0.663   1.625
 1346SOL     OW  935   1.899   1.310   1.282
 1346SOL    HW1  936   1.952   1.261   1.350
 1346SOL    HW2  937   1.921   1.408   1.287
 1352SOL     OW  938   2.842   1.573   1.700
 1352SOL    HW1  939   2.822   1.617   1.612
 1352SOL    HW2  940   2.881   1.482   1.684
 1353SOL     OW  941   3.721   1.518   1.605
 1353SOL    HW1  942   3.735   1.545   1.510
 1353SOL    HW2  943   3.804   1.540   1.658
 1354SOL     OW  944   2.212   0.898   1.804
 1354SOL    HW1  945   2.288   0.942   1.852
 1354SOL    HW2  946   2.247   0.851   1.722
 1363SOL     OW  947   1.950   1.801   0.927
 1363SOL    HW1  948   1.908   1.715   0.900
 1363SOL    HW2  949   2.044   1.804   0.893
 1364SOL     OW  950   2.366   1.568   0.910
 1364SOL    HW1  951   2.432   1.642   0.919
 1364SOL    HW2  952   2.410   1.489   0.868
 1368SOL     OW  953   3.231   0.950   1.660
 1368SOL    HW1  954   3.270   1.039   1.680
 1368SOL    HW2  955   3.241   0.930   1.563
 1371SOL     OW  956   2.114   1.564   1.744
 1371SOL    HW1  957   2.084   1.621   1.820
 1371SOL    HW2  958   2.107   1.467   1.770
 1373SOL     OW  959   2.792   1.678   1.465
 1373SOL    HW1  960   2.768   1.660   1.370
 1373SOL    HW2  961   2.822   1.772   1.475
 1375SOL     OW  962   2.021   1.137   1.466
 1375SOL    HW1  963   2.043   1.076   1.542
 1375SOL    HW2  964   2.031   1.088   1.380
 1379SOL     OW  965   3.114   1.731   1.128
 1379SOL    HW1  966   3.198   1.736   1.074
 1379SOL    HW2  967   3.091   1.635   1.146
 1380SOL     OW  968   1.945   1.258   1.022
 1380SOL    HW1  969   1.940   1.257   1.122
 1380SOL    HW2  970   1.862   1.217   0.984
 1381SOL     OW  971   2.550   1.662   1.716
 1381SOL    HW1  972   2.494   1.743   1.725
 1381SOL    HW2  973   2.602   1.666   1.630
 1385SOL     OW  974   1.992   1.794   1.851
 1385SOL    HW1  975   1.951   1.720   1.904
 1385SOL    HW2  976   2.056   1.845   1.909
 1387SOL     OW  977   2.692   1.273   1.422
 1387SOL    HW1  978   2.687   1.306   1.517
 1387SOL    HW2  979   2.606   1.292   1.376
 1389SOL     OW  980   3.512   1.720   1.394
 1389SOL    HW1  981   3.565   1.730   1.310
 1389SOL    HW2  982   3.485   1.810   1.428
 1393SOL     OW  983   2.684   1.002   1.372
 1393SOL    HW1  984   2.724   1.001   1.280
 1393SOL    HW2  985   2.694   1.094   1.412
 1396SOL     OW  986   2.234   1.288   1.490
 1396SOL    HW1  987   2.221   1.381   1.456
 1396SOL    HW2  988   2.150   1.236   1.477
 1403SOL     OW  989   1.967   1.013   1.726
 1403SOL    HW1  990   1.890   0.980   1.780
 1403SOL    HW2  991   2.052   0.983   1.768
 1408SOL     OW  992   2.475   0.842   1.431
 1408SOL    HW1  993   2.531   0.923   1.414
 1408SOL    HW2  994   2.534   0.762   1.434
 1409SOL     OW  995   3.355   1.767   0.959
 1409SOL    HW1  996   3.388   1.831   0.890
 1409SOL    HW2  997   3.421   1.761   1.034
 1410SOL     OW  998   2.578   0.565   1.708
 1410SOL    HW1  999   2.597   0.630   1.782
 1410SOL    HW2 1000   2.638   0.485   1.717
 1411SOL     OW 1001   3.312   1.220   1.633
 1411SOL    HW1 1002   3.303   1.210   1.732
 1411SOL    HW2 1003   3.408   1.213   1.607
 1412SOL     OW 1004   2.252   1.741   1.560
 1412SOL    HW1 1005   2.161   1.782   1.558
 1412SOL    HW2 1006   2.245   1.647   1.592
 1419SOL     OW 1007   2.523   1.790   0.953
 1419SOL    HW1 1008   2.477   1.878   0.940
 1419SOL    HW2 1009   2.622   1.802   0.946
 1423SOL     OW 1010   2.083   1.314   1.844
 1423SOL    HW1 1011   2.018   1.241   1.823
 1423SOL    HW2 1012   2.087   1.328   1.942
 1425SOL     OW 1013   2.534   1.391   1.624
 1425SOL    HW1 1014   2.456   1.341   1.662
 1425SOL    HW2 1015   2.531   1.486   1.655
 1430SOL     OW 1016   2.674   1.586   0.687
 1430SOL    HW1 1017   2.706   1.596   0.593
 1430SOL    HW2 1018   2.595   1.524   0.689
 1434SOL     OW 1019   2.480   1.567   1.284
 1434SOL    HW1 1020   2.475   1.649   1.341
 1434SOL    HW2 1021   2.569   1.564   1.239
 1440SOL     OW 1022   2.092   0.628   1.975
 1440SOL    HW1 1023   1.999   0.626   2.012
 1440SOL    HW2 1024   2.093   0.589   1.883
 1443SOL     OW 1025   2.431   1.275   3.027
 1443SOL    HW1 1026   2.338   1.268   2.990
 1443SOL    HW2 1027   2.442   1.364   3.071
 1444SOL     OW 1028   3.417   1.511   2.565
 1444SOL    HW1 1029   3.360   1.495   2.646
 1444SOL    HW2 1030   3.358   1.521   2.485
 1445SOL     OW 1031   2.997   0.703   2.579
 1445SOL    HW1 1032   3.054   0.781   2.554
 1445SOL    HW2 1033   2.937   0.729   2.655
 1447SOL     OW 1034   2.630   1.144   2.885
 1447SOL    HW1 1035   2.552   1.161   2.945
 1447SOL    HW2 1036   2.664   1.231   2.849
 1449SOL     OW 1037   2.547   1.012   2.527
 1449SOL    HW1 1038   2.616   0.996   2.597
 1449SOL    HW2 1039   2.474   1.069   2.565
 1451SOL     OW 1040   2.197   1.435   2.923
 1451SOL    HW1 1041   2.119   1.404   2.870
 1451SOL    HW2 1042   2.255   1.493   2.866
 1452SOL     OW 1043   3.322   1.505   3.201
 1452SOL    HW1 1044   3.346   1.599   3.227
 1452SOL    HW2 1045   3.306   1.451   3.283
 1455SOL     OW 1046   2.093   1.713   2.345
 1455SOL    HW1 1047   2.127   1.790   2.399
 1455SOL    HW2 1048   2.137   1.713   2.255
 1456SOL     OW 1049   2.989   1.341   3.552
 1456SOL    HW1 1050   3.036   1.341   3.640
 1456SOL    HW2 1051   2.941   1.254   3.541
 1457SOL     OW 1052   2.092   1.434   2.400
 1457SOL    HW1 1053   2.066   1.530   2.400
 1457SOL    HW2 1054   2.021   1.380   2.445
 1458SOL     OW 1055   2.102   1.091   2.748
 1458SOL    HW1 1056   2.116   1.007   2.800
 1458SOL    HW2 1057   2.047   1.155   2.803
 1459SOL     OW 1058   2.482   1.786   3.301
 1459SOL    HW1 1059   2.390   1.769   3.336
 1459SOL    HW2 1060   2.510   1.878   3.327
 1460SOL     OW 1061   2.468   0.964   1.985
 1460SOL    HW1 1062   2.475   1.048   1.931
 1460SOL    HW2 1063   2.514   0.977   2.073
 1462SOL     OW 1064   1.984   0.643   2.425
 1462SOL    HW1 1065   1.939   0.555   2.442
 1462SOL    HW2 1066   1.983   0.697   2.509
 1463SOL     OW 1067   3.704   1.767   2.221
 1463SOL    HW1 1068   3.758   1.738   2.301
 1463SOL    HW2 1069   3.734   1.857   2.192
 1464SOL     OW 1070   1.889   1.596   1.979
 1464SOL    HW1 1071   1.870   1.500   2.000
 1464SOL    HW2 1072   1.856   1.654   2.054
 1466SOL     OW 1073   3.503   1.108   2.294
 1466SOL    HW1 1074   3.589   1.110   2.242
 1466SOL    HW2 1075   3.517   1.155   2.382
 1468SOL     OW 1076   2.475   1.365   2.588
 1468SOL    HW1 1077   2.426   1.278   2.597
 1468SOL    HW2 1078   2.452   1.408   2.501
 1469SOL     OW 1079   3.155   1.228   3.285
 1469SOL    HW1 1080   3.192   1.155   3.227
 1469SOL    HW2 1081   3.207   1.233   3.370
 1471SOL     OW 1082   2.059   0.976   3.126
 1471SOL    HW1 1083   2.148   0.931   3.112
 1471SOL    HW2 1084   1.986   0.911   3.107
 1472SOL     OW 1085   3.387   0.999   2.052
 1472SOL    HW1 1086   3.324   0.923   2.065
 1472SOL    HW2 1087   3.435   1.017   2.138
 1473SOL     OW 1088   3.049   1.792   3.478
 1473SOL    HW1 1089   3.073   1.852   3.402
 1473SOL    HW2 1090   3.056   1.697   3.448
 1475SOL     OW 1091   3.328   1.417   2.815
 1475SOL    HW1 1092   3.269   1.423   2.895
 1475SOL    HW2 1093   3.313   1.329   2.769
 1476SOL     OW 1094   3.529   1.714   2.434
 1476SOL    HW1 1095   3.488   1.691   2.346
 1476SOL    HW2 1096   3.511   1.640   2.499
 1477SOL     OW 1097   2.460   0.729   2.132
 1477SOL    HW1 1098   2.484   0.798   2.064
 1477SOL    HW2 1099   2.382   0.762   2.186
 1479SOL     OW 1100   3.438   1.662   2.169
 1479SOL    HW1 1101   3.527   1.708   2.172
 1479SOL    HW2 1102   3.417   1.638   2.074
 1484SOL     OW 1103   2.903   0.701   2.291
 1484SOL    HW1 1104   2.929   0.697   2.387
 1484SOL    HW2 1105   2.818   0.650   2.277
 1485SOL     OW 1106   1.938   0.811   2.651
 1485SOL    HW1 1107   2.037   0.799   2.660
 1485SOL    HW2 1108   1.914   0.906   2.672
 1486SOL     OW 1109   1.992   1.821   3.433
 1486SOL    HW1 1110   1.982   1.806   3.532
 1486SOL    HW2 1111   1.906   1.857   3.397
 1489SOL     OW 1112   3.224   1.144   2.407
 1489SOL    HW1 1113   3.307   1.115   2.359
 1489SOL    HW2 1114   3.175   1.211   2.351
 1491SOL     OW 1115   2.870   1.456   2.339
 1491SOL    HW1 1116   2.824   1.528   2.287
 1491SOL    HW2 1117   2.866   1.476   2.437
 1492SOL     OW 1118   2.213   1.801   2.715
 1492SOL    HW1 1119   2.263   1.715   2.721
 1492SOL    HW2 1120   2.278   1.878   2.712
 1494SOL     OW 1121   3.089   1.550   3.368
 1494SOL    HW1 1122   3.095   1.473   3.432
 1494SOL    HW2 1123   3.037   1.524   3.288
 1495SOL     OW 1124   2.183   0.943   2.104
 1495SOL    HW1 1125   2.265   0.982   2.062
 1495SOL    HW2 1126   2.156   0.861   2.055
 1497SOL     OW 1127   2.323   1.266   3.589
 1497SOL    HW1 1128   2.273   1.267   3.503
 1497SOL    HW2 1129   2.260   1.248   3.665
 1498SOL     OW 1130   2.973   1.776   2.099
 1498SOL    HW1 1131   2.913   1.714   2.149
 1498SOL    HW2 1132   3.004   1.732   2.014
 1500SOL     OW 1133   3.494   1.377   1.943
 1500SOL    HW1 1134   3.462   1.471   1.933
 1500SOL    HW2 1135   3.418   1.314   1.931
 1501SOL     OW 1136   2.326   1.743   2.185
 1501SOL    HW1 1137   2.359   1.782   2.271
 1501SOL    HW2 1138   2.402   1.736   2.120
 1503SOL     OW 1139   2.111   1.785   3.103
 1503SOL    HW1 1140   2.168   1.720   3.153
 1503SOL    HW2 1141   2.095   1.752   3.010
 1504SOL     OW 1142   2.802   1.698   2.766
 1504SOL    HW1 1143   2.882   1.641   2.787
 1504SOL    HW2 1144   2.753   1.658   2.689
 1505SOL     OW 1145   2.244   0.700   2.342
 1505SOL    HW1 1146   2.289   0.610   2.339
 1505SOL    HW2 1147   2.150   0.689   2.375
 1509SOL     OW 1148   2.750   1.514   3.057
 1509SOL    HW1 1149   2.727   1.489   2.963
 1509SOL    HW2 1150   2.811   1.445   3.096
 1511SOL     OW 1151   2.665   1.402   2.786
 1511SOL    HW1 1152   2.755   1.416   2.744
 1511SOL    HW2 1153   2.594   1.404   2.715
 1514SOL     OW 1154   3.296   1.188   1.903
 1514SOL    HW1 1155   3.328   1.112   1.960
 1514SOL    HW2 1156   3.204   1.215   1.933
 1518SOL     OW 1157   3.089   1.570   2.655
 1518SOL    HW1 1158   3.110   1.644   2.590
 1518SOL    HW2 1159   3.157   1.570   2.728
 1519SOL     OW 1160   2.321   1.152   2.603
 1519SOL    HW1 1161   2.250   1.125   2.668
 1519SOL    HW2 1162   2.295   1.124   2.510
 1520SOL     OW 1163   3.133   1.797   2.453
 1520SOL    HW1 1164   3.177   1.861   2.389
 1520SOL    HW2 1165   3.083   1.849   2.523
 1526SOL     OW 1166   3.291   1.173   2.729
 1526SOL    HW1 1167   3.236   1.089   2.722
 1526SOL    HW2 1168   3.317   1.202   2.637
 1529SOL     OW 1169   2.350   1.385   2.036
 1529SOL    HW1 1170   2.263   1.370   2.083
 1529SOL    HW2 1171   2.333   1.411   1.941
 1530SOL     OW 1172   3.526   1.280   2.519
 1530SOL    HW1 1173   3.625   1.288   2.533
 1530SOL    HW2 1174   3.481   1.364   2.550
 1534SOL     OW 1175   2.926   1.347   3.202
 1534SOL    HW1 1176   2.846   1.324   3.257
 1534SOL    HW2 1177   3.009   1.321   3.251
 1536SOL     OW 1178   2.973   1.195   2.962
 1536SOL    HW1 1179   2.933   1.239   3.043
 1536SOL    HW2 1180   2.932   1.232   2.879
 1540SOL     OW 1181   2.567   1.050   2.230
 1540SOL    HW1 1182   2.553   1.057   2.329
 1540SOL    HW2 1183   2.651   0.999   2.212
 1541SOL     OW 1184   2.272   0.813   3.113
 1541SOL    HW1 1185   2.358   0.825   3.163
 1541SOL    HW2 1186   2.230   0.726   3.140
 1543SOL     OW 1187   1.926   1.564   3.193
 1543SOL    HW1 1188   1.880   1.646   3.159
 1543SOL    HW2 1189   2.024   1.583   3.202
 1544SOL     OW 1190   2.229   1.100   2.363
 1544SOL    HW1 1191   2.222   1.183   2.307
 1544SOL    HW2 1192   2.233   1.020   2.303
 1545SOL     OW 1193   2.428   0.537   2.727
 1545SOL    HW1 1194   2.440   0.603   2.653
 1545SOL    HW2 1195   2.474   0.571   2.810
 1546SOL     OW 1196   3.114   1.348   2.250
 1546SOL    HW1 1197   3.164   1.425   2.290
 1546SOL    HW2 1198   3.019   1.350   2.282
 1547SOL     OW 1199   3.134   1.445   3.004
 1547SOL    HW1 1200   3.181   1.458   3.091
 1547SOL    HW2 1201   3.068   1.371   3.013
 1549SOL     OW 1202   2.216   1.510   3.191
 1549SOL    HW1 1203   2.195   1.466   3.104
 1549SOL    HW2 1204   2.313   1.536   3.194
 1554SOL     OW 1205   2.435   0.870   2.891
 1554SOL    HW1 1206   2.479   0.959   2.882
 1554SOL    HW2 1207   2.372   0.870   2.968
 1558SOL     OW 1208   1.899   1.310   3.144
 1558SOL    HW1 1209   1.952   1.261   3.212
 1558SOL    HW2 1210   1.921   1.408   3.149
 1559SOL     OW 1211   2.594   0.634   2.926
 1559SOL    HW1 1212   2.653   0.608   2.850
 1559SOL    HW2 1213   2.566   0.730   2.915
 1563SOL     OW 1214   2.885   0.766   2.828
 1563SOL    HW1 1215   2.900   0.787   2.924
 1563SOL    HW2 1216   2.855   0.671   2.819
 1564SOL     OW 1217   2.842   1.573   3.562
 1564SOL    HW1 1218   2.822   1.617   3.474
 1564SOL    HW2 1219   2.881   1.482   3.546
 1568SOL     OW 1220   3.165   0.838   1.904
 1568SOL    HW1 1221   3.199   0.745   1.919
 1568SOL    HW2 1222   3.183   0.865   1.809
 1569SOL     OW 1223   2.930   1.333   2.711
 1569SOL    HW1 1224   2.937   1.249   2.656
 1569SOL    HW2 1225   2.992   1.402   2.675
 1570SOL     OW 1226   2.181   0.810   2.811
 1570SOL    HW1 1227   2.274   0.846   2.816
 1570SOL    HW2 1228   2.175   0.725   2.863
 1574SOL     OW 1229   1.870   1.326   2.062
 1574SOL    HW1 1230   1.777   1.347   2.031
 1574SOL    HW2 1231   1.880   1.227   2.075
 1575SOL     OW 1232   1.950   1.801   2.789
 1575SOL    HW1 1233   1.908   1.715   2.762
 1575SOL    HW2 1234   2.044   1.804   2.755
 1576SOL     OW 1235   2.366   1.568   2.772
 1576SOL    HW1 1236   2.432   1.642   2.781
 1576SOL    HW2 1237   2.410   1.489   2.730
 1577SOL     OW 1238   2.864   0.796   3.100
 1577SOL    HW1 1239   2.905   0.764   3.186
 1577SOL    HW2 1240   2.768   0.769   3.097
 1581SOL     OW 1241   2.677   0.572   2.187
 1581SOL    HW1 1242   2.684   0.483   2.141
 1581SOL    HW2 1243   2.583   0.606   2.179
 1583SOL     OW 1244   2.114   1.564   3.606
 1583SOL    HW1 1245   2.084   1.621   3.682
 1583SOL    HW2 1246   2.107   1.467   3.632
 1585SOL     OW 1247   2.792   1.678   3.327
 1585SOL    HW1 1248   2.768   1.660   3.232
 1585SOL    HW2 1249   2.822   1.772   3.337
 1586SOL     OW 1250   2.335   0.500   2.053
 1586SOL    HW1 1251   2.396   0.580   2.057
 1586SOL    HW2 1252   2.240   0.531   2.060
 1587SOL     OW 1253   2.021   1.137   3.328
 1587SOL    HW1 1254   2.043   1.076   3.404
 1587SOL    HW2 1255   2.031   1.088   3.242
 1588SOL     OW 1256   3.209   1.059   3.096
 1588SOL    HW1 1257   3.233   0.996   3.022
 1588SOL    HW2 1258   3.119   1.099   3.078
 1589SOL     OW 1259   3.164   0.855   2.171
 1589SOL    HW1 1260   3.078   0.824   2.213
 1589SOL    HW2 1261   3.160   0.841   2.072
 1590SOL     OW 1262   3.621   1.747   3.016
 1590SOL    HW1 1263   3.682   1.777   2.943
 1590SOL    HW2 1264   3.583   1.658   2.994
 1591SOL     OW 1265   3.114   1.731   2.990
 1591SOL    HW1 1266   3.198   1.736   2.936
 1591SOL    HW2 1267   3.091   1.635   3.008
 1592SOL     OW 1268   1.945   1.258   2.884
 1592SOL    HW1 1269   1.940   1.257   2.984
 1592SOL    HW2 1270   1.862   1.217   2.846
 1593SOL     OW 1271   2.550   1.662   3.578
 1593SOL    HW1 1272   2.494   1.743   3.587
 1593SOL    HW2 1273   2.602   1.666   3.492
 1595SOL     OW 1274   3.250   1.573   2.339
 1595SOL    HW1 1275   3.317   1.585   2.265
 1595SOL    HW2 1276   3.210   1.662   2.362
 1596SOL     OW 1277   1.992   1.794   3.713
 1596SOL    HW1 1278   1.951   1.720   3.766
 1596SOL    HW2 1279   2.056   1.845   3.771
 1597SOL     OW 1280   3.142   0.927   2.534
 1597SOL    HW1 1281   3.202   0.846   2.536
 1597SOL    HW2 1282   3.182   0.996   2.474
 1598SOL     OW 1283   2.692   1.273   3.284
 1598SOL    HW1 1284   2.687   1.306   3.379
 1598SOL    HW2 1285   2.606   1.292   3.238
 1599SOL     OW 1286   2.534   1.616   2.016
 1599SOL    HW1 1287   2.543   1.626   1.917
 1599SOL    HW2 1288   2.494   1.527   2.037
 1600SOL     OW 1289   3.512   1.720   3.256
 1600SOL    HW1 1290   3.565   1.730   3.172
 1600SOL    HW2 1291   3.485   1.810   3.290
 1603SOL     OW 1292   3.056   1.612   1.893
 1603SOL    HW1 1293   3.062   1.519   1.930
 1603SOL    HW2 1294   2.997   1.612   1.813
 1604SOL     OW 1295   2.684   1.002   3.234
 1604SOL    HW1 1296   2.724   1.001   3.142
 1604SOL    HW2 1297   2.694   1.094   3.274
 1605SOL     OW 1298   2.778   0.910   2.153
 1605SOL    HW1 1299   2.841   0.948   2.085
 1605SOL    HW2 1300   2.818   0.827   2.192
 1606SOL     OW 1301   3.366   1.607   1.906
 1606SOL    HW1 1302   3.274   1.644   1.913
 1606SOL    HW2 1303   3.404   1.627   1.816
 1607SOL     OW 1304   2.234   1.288   3.352
 1607SOL    HW1 1305   2.221   1.381   3.318
 1607SOL    HW2 1306   2.150   1.236   3.339
 1609SOL     OW 1307   2.901   1.098   2.558
 1609SOL    HW1 1308   2.831   1.051   2.612
 1609SOL    HW2 1309   2.960   1.030   2.515
 1611SOL     OW 1310   2.452   1.487   2.353
 1611SOL    HW1 1311   2.494   1.429   2.283
 1611SOL    HW2 1312   2.408   1.566   2.309
 1613SOL     OW 1313   2.117   1.348   2.152
 1613SOL    HW1 1314   2.021   1.349   2.125
 1613SOL    HW2 1315   2.129   1.401   2.236
 1619SOL     OW 1316   3.045   1.335   1.981
 1619SOL    HW1 1317   2.946   1.324   1.983
 1619SOL    HW2 1318   3.079   1.350   2.074
 1620SOL     OW 1319   2.475   0.842   3.293
 1620SOL    HW1 1320   2.531   0.923   3.276
 1620SOL    HW2 1321   2.534   0.762   3.296
 1621SOL     OW 1322   3.355   1.767   2.821
 1621SOL    HW1 1323   3.388   1.831   2.752
 1621SOL    HW2 1324   3.421   1.761   2.896
 1624SOL     OW 1325   2.252   1.741   3.422
 1624SOL    HW1 1326   2.161   1.782   3.420
 1624SOL    HW2 1327   2.245   1.647   3.454
 1627SOL     OW 1328   2.456   0.745   2.514
 1627SOL    HW1 1329   2.506   0.830   2.495
 1627SOL    HW2 1330   2.368   0.747   2.466
 1630SOL     OW 1331   2.721   1.374   1.878
 1630SOL    HW1 1332   2.675   1.389   1.966
 1630SOL    HW2 1333   2.765   1.459   1.848
 1631SOL     OW 1334   2.523   1.790   2.815
 1631SOL    HW1 1335   2.477   1.878   2.802
 1631SOL    HW2 1336   2.622   1.802   2.808
 1632SOL     OW 1337   2.721   0.956   2.723
 1632SOL    HW1 1338   2.775   0.887   2.771
 1632SOL    HW2 1339   2.689   1.025   2.789
 1633SOL     OW 1340   2.945   0.984   1.949
 1633SOL    HW1 1341   2.922   1.037   1.867
 1633SOL    HW2 1342   3.026   0.928   1.930
 1634SOL     OW 1343   3.723   1.569   2.713
 1634SOL    HW1 1344   3.652   1.557   2.643
 1634SOL    HW2 1345   3.724   1.490   2.773
 1635SOL     OW 1346   2.083   1.314   3.706
 1635SOL    HW1 1347   2.018   1.241   3.685
 1635SOL    HW2 1348   2.087   1.328   3.804
 1636SOL     OW 1349   1.941   1.240   2.515
 1636SOL    HW1 1350   1.940   1.193   2.603
 1636SOL    HW2 1351   2.023   1.212   2.464
 1637SOL     OW 1352   2.534   1.391   3.486
 1637SOL    HW1 1353   2.456   1.341   3.524
 1637SOL    HW2 1354   2.531   1.486   3.517
 1640SOL     OW 1355   3.567   1.487   2.966
 1640SOL    HW1 1356   3.474   1.462   2.939
 1640SOL    HW2 1357   3.593   1.437   3.048
 1642SOL     OW 1358   2.674   1.586   2.549
 1642SOL    HW1 1359   2.706   1.596   2.455
 1642SOL    HW2 1360   2.595   1.524   2.551
 1645SOL     OW 1361   2.632   1.330   2.163
 1645SOL    HW1 1362   2.586   1.243   2.180
 1645SOL    HW2 1363   2.723   1.327   2.204
 1646SOL     OW 1364   2.480   1.567   3.146
 1646SOL    HW1 1365   2.475   1.649   3.203
 1646SOL    HW2 1366   2.569   1.564   3.101
 1650SOL     OW 1367   1.901   1.077   2.162
 1650SOL    HW1 1368   2.000   1.066   2.153
 1650SOL    HW2 1369   1.861   0.991   2.194
 1651SOL     OW 1370   2.737   1.646   2.199
 1651SOL    HW1 1371   2.660   1.611   2.145
 1651SOL    HW2 1372   2.705   1.717   2.261
 1662SOL     OW 1373   1.889   1.596   3.841
 1662SOL    HW1 1374   1.870   1.500   3.862
 1662SOL    HW2 1375   1.856   1.654   3.916
 1715SOL     OW 1376   2.534   1.616   3.878
 1715SOL    HW1 1377   2.543   1.626   3.779
 1715SOL    HW2 1378   2.494   1.527   3.899
 1727SOL     OW 1379   2.721   1.374   3.740
 1727SOL    HW1 1380   2.675   1.389   3.828
 1727SOL    HW2 1381   2.765   1.459   3.710
 1738SOL     OW 1382   2.087   2.137   0.996
 1738SOL    HW1 1383   2.122   2.120   1.088
 1738SOL    HW2 1384   1.999   2.092   0.984
 1739SOL     OW 1385   1.881   2.230   0.647
 1739SOL    HW1 1386   1.799   2.273   0.686
 1739SOL    HW2 1387   1.853   2.157   0.584
 1740SOL     OW 1388   2.431   3.137   1.165
 1740SOL    HW1 1389   2.338   3.130   1.128
 1740SOL    HW2 1390   2.442   3.226   1.209
 1742SOL     OW 1391   2.997   2.565   0.717
 1742SOL    HW1 1392   3.054   2.643   0.692
 1742SOL    HW2 1393   2.937   2.591   0.793
 1744SOL     OW 1394   2.630   3.006   1.023
 1744SOL    HW1 1395   2.552   3.023   1.083
 1744SOL    HW2 1396   2.664   3.093   0.987
 1745SOL     OW 1397   2.712   2.660   1.823
 1745SOL    HW1 1398   2.708   2.736   1.888
 1745SOL    HW2 1399   2.734   2.696   1.732
 1746SOL     OW 1400   2.547   2.874   0.665
 1746SOL    HW1 1401   2.616   2.858   0.735
 1746SOL    HW2 1402   2.474   2.931   0.703
 1747SOL     OW 1403   2.548   3.023   1.803
 1747SOL    HW1 1404   2.608   3.102   1.817
 1747SOL    HW2 1405   2.462   3.054   1.762
 1748SOL     OW 1406   2.197   3.297   1.061
 1748SOL    HW1 1407   2.119   3.266   1.008
 1748SOL    HW2 1408   2.255   3.355   1.004
 1750SOL     OW 1409   2.300   2.254   1.499
 1750SOL    HW1 1410   2.382   2.198   1.508
 1750SOL    HW2 1411   2.219   2.196   1.503
 1753SOL     OW 1412   2.989   3.203   1.690
 1753SOL    HW1 1413   3.036   3.203   1.778
 1753SOL    HW2 1414   2.941   3.116   1.679
 1755SOL     OW 1415   2.102   2.953   0.886
 1755SOL    HW1 1416   2.116   2.869   0.938
 1755SOL    HW2 1417   2.047   3.017   0.941
 1756SOL     OW 1418   2.482   3.648   1.439
 1756SOL    HW1 1419   2.390   3.631   1.474
 1756SOL    HW2 1420   2.510   3.740   1.465
 1758SOL     OW 1421   3.456   1.976   1.480
 1758SOL    HW1 1422   3.438   2.043   1.408
 1758SOL    HW2 1423   3.453   2.022   1.569
 1759SOL     OW 1424   1.984   2.505   0.563
 1759SOL    HW1 1425   1.939   2.417   0.580
 1759SOL    HW2 1426   1.983   2.559   0.647
 1764SOL     OW 1427   1.975   2.599   1.597
 1764SOL    HW1 1428   2.063   2.586   1.642
 1764SOL    HW2 1429   1.962   2.696   1.575
 1766SOL     OW 1430   3.155   3.090   1.423
 1766SOL    HW1 1431   3.192   3.017   1.365
 1766SOL    HW2 1432   3.207   3.095   1.508
 1768SOL     OW 1433   2.059   2.838   1.264
 1768SOL    HW1 1434   2.148   2.793   1.250
 1768SOL    HW2 1435   1.986   2.773   1.245
 1770SOL     OW 1436   3.049   3.654   1.616
 1770SOL    HW1 1437   3.073   3.714   1.540
 1770SOL    HW2 1438   3.056   3.559   1.586
 1771SOL     OW 1439   2.179   2.113   1.801
 1771SOL    HW1 1440   2.250   2.184   1.807
 1771SOL    HW2 1441   2.091   2.152   1.829
 1775SOL     OW 1442   3.143   2.207   0.944
 1775SOL    HW1 1443   3.057   2.157   0.931
 1775SOL    HW2 1444   3.205   2.153   1.000
 1777SOL     OW 1445   2.669   2.467   1.465
 1777SOL    HW1 1446   2.622   2.464   1.554
 1777SOL    HW2 1447   2.618   2.412   1.399
 1778SOL     OW 1448   3.256   2.331   1.674
 1778SOL    HW1 1449   3.236   2.374   1.762
 1778SOL    HW2 1450   3.334   2.269   1.683
 1779SOL     OW 1451   2.835   2.752   1.572
 1779SOL    HW1 1452   2.881   2.668   1.543
 1779SOL    HW2 1453   2.779   2.786   1.497
 1780SOL     OW 1454   2.853   2.272   1.242
 1780SOL    HW1 1455   2.776   2.306   1.296
 1780SOL    HW2 1456   2.819   2.221   1.163
 1782SOL     OW 1457   1.938   2.673   0.789
 1782SOL    HW1 1458   2.037   2.661   0.798
 1782SOL    HW2 1459   1.914   2.768   0.810
 1783SOL     OW 1460   1.992   3.683   1.571
 1783SOL    HW1 1461   1.982   3.668   1.670
 1783SOL    HW2 1462   1.906   3.719   1.535
 1785SOL     OW 1463   3.581   2.447   1.831
 1785SOL    HW1 1464   3.555   2.536   1.795
 1785SOL    HW2 1465   3.579   2.379   1.758
 1787SOL     OW 1466   2.412   2.058   0.885
 1787SOL    HW1 1467   2.407   2.053   0.985
 1787SOL    HW2 1468   2.414   2.154   0.856
 1791SOL     OW 1469   3.089   3.412   1.506
 1791SOL    HW1 1470   3.095   3.335   1.570
 1791SOL    HW2 1471   3.037   3.386   1.426
 1794SOL     OW 1472   2.323   3.128   1.727
 1794SOL    HW1 1473   2.273   3.129   1.641
 1794SOL    HW2 1474   2.260   3.110   1.803
 1796SOL     OW 1475   2.064   2.147   1.498
 1796SOL    HW1 1476   1.984   2.207   1.485
 1796SOL    HW2 1477   2.054   2.098   1.584
 1800SOL     OW 1478   2.111   3.647   1.241
 1800SOL    HW1 1479   2.168   3.582   1.291
 1800SOL    HW2 1480   2.095   3.614   1.148
 1802SOL     OW 1481   2.244   2.562   0.480
 1802SOL    HW1 1482   2.289   2.472   0.477
 1802SOL    HW2 1483   2.150   2.551   0.513
 1803SOL     OW 1484   3.409   2.084   1.729
 1803SOL    HW1 1485   3.404   2.121   1.821
 1803SOL    HW2 1486   3.337   2.015   1.717
 1805SOL     OW 1487   2.643   2.126   1.749
 1805SOL    HW1 1488   2.710   2.065   1.792
 1805SOL    HW2 1489   2.570   2.145   1.814
 1806SOL     OW 1490   2.750   3.376   1.195
 1806SOL    HW1 1491   2.727   3.351   1.101
 1806SOL    HW2 1492   2.811   3.307   1.234
 1807SOL     OW 1493   3.213   2.452   1.433
 1807SOL    HW1 1494   3.241   2.409   1.518
 1807SOL    HW2 1495   3.238   2.548   1.434
 1808SOL     OW 1496   2.665   3.264   0.924
 1808SOL    HW1 1497   2.755   3.278   0.882
 1808SOL    HW2 1498   2.594   3.266   0.853
 1809SOL     OW 1499   2.784   2.365   0.899
 1809SOL    HW1 1500   2.759   2.356   0.803
 1809SOL    HW2 1501   2.832   2.283   0.930
 1810SOL     OW 1502   2.401   1.926   0.512
 1810SOL    HW1 1503   2.320   1.927   0.570
 1810SOL    HW2 1504   2.404   2.009   0.457
 1813SOL     OW 1505   2.938   2.545   1.464
 1813SOL    HW1 1506   2.858   2.484   1.467
 1813SOL    HW2 1507   3.019   2.492   1.440
 1815SOL     OW 1508   2.321   3.014   0.741
 1815SOL    HW1 1509   2.250   2.987   0.806
 1815SOL    HW2 1510   2.295   2.986   0.648
 1818SOL     OW 1511   1.940   2.418   1.386
 1818SOL    HW1 1512   2.032   2.417   1.345
 1818SOL    HW2 1513   1.934   2.492   1.453
 1819SOL     OW 1514   2.423   2.084   1.147
 1819SOL    HW1 1515   2.461   2.000   1.184
 1819SOL    HW2 1516   2.335   2.103   1.191
 1820SOL     OW 1517   2.728   2.316   0.642
 1820SOL    HW1 1518   2.696   2.388   0.580
 1820SOL    HW2 1519   2.752   2.235   0.589
 1821SOL     OW 1520   2.879   1.901   0.753
 1821SOL    HW1 1521   2.807   1.906   0.684
 1821SOL    HW2 1522   2.855   1.832   0.822
 1823SOL     OW 1523   3.328   2.452   0.992
 1823SOL    HW1 1524   3.298   2.357   0.999
 1823SOL    HW2 1525   3.401   2.468   1.058
 1829SOL     OW 1526   3.616   3.085   1.588
 1829SOL    HW1 1527   3.707   3.046   1.575
 1829SOL    HW2 1528   3.624   3.181   1.612
 1830SOL     OW 1529   2.926   3.209   1.340
 1830SOL    HW1 1530   2.846   3.186   1.395
 1830SOL    HW2 1531   3.009   3.183   1.389
 1832SOL     OW 1532   2.973   3.057   1.100
 1832SOL    HW1 1533   2.933   3.101   1.181
 1832SOL    HW2 1534   2.932   3.094   1.017
 1834SOL     OW 1535   2.777   1.951   1.402
 1834SOL    HW1 1536   2.802   1.931   1.307
 1834SOL    HW2 1537   2.849   2.007   1.444
 1835SOL     OW 1538   2.842   2.978   1.719
 1835SOL    HW1 1539   2.743   2.984   1.729
 1835SOL    HW2 1540   2.865   2.898   1.663
 1837SOL     OW 1541   2.272   2.675   1.251
 1837SOL    HW1 1542   2.358   2.687   1.301
 1837SOL    HW2 1543   2.230   2.588   1.278
 1838SOL     OW 1544   3.136   2.248   1.262
 1838SOL    HW1 1545   3.157   2.322   1.326
 1838SOL    HW2 1546   3.047   2.265   1.219
 1839SOL     OW 1547   1.926   3.426   1.331
 1839SOL    HW1 1548   1.880   3.508   1.297
 1839SOL    HW2 1549   2.024   3.445   1.340
 1841SOL     OW 1550   2.428   2.399   0.865
 1841SOL    HW1 1551   2.440   2.465   0.791
 1841SOL    HW2 1552   2.474   2.433   0.948
 1843SOL     OW 1553   3.134   3.307   1.142
 1843SOL    HW1 1554   3.181   3.320   1.229
 1843SOL    HW2 1555   3.068   3.233   1.151
 1845SOL     OW 1556   2.216   3.372   1.329
 1845SOL    HW1 1557   2.195   3.328   1.242
 1845SOL    HW2 1558   2.313   3.398   1.332
 1846SOL     OW 1559   2.264   2.613   1.598
 1846SOL    HW1 1560   2.332   2.668   1.551
 1846SOL    HW2 1561   2.304   2.525   1.625
 1847SOL     OW 1562   3.449   2.641   1.670
 1847SOL    HW1 1563   3.357   2.679   1.665
 1847SOL    HW2 1564   3.509   2.688   1.605
 1848SOL     OW 1565   2.875   1.967   1.770
 1848SOL    HW1 1566   2.881   2.052   1.718
 1848SOL    HW2 1567   2.907   1.891   1.713
 1849SOL     OW 1568   2.366   1.912   1.740
 1849SOL    HW1 1569   2.324   1.855   1.670
 1849SOL    HW2 1570   2.300   1.981   1.772
 1850SOL     OW 1571   2.435   2.732   1.029
 1850SOL    HW1 1572   2.479   2.821   1.020
 1850SOL    HW2 1573   2.372   2.732   1.106
 1851SOL     OW 1574   3.222   2.724   1.045
 1851SOL    HW1 1575   3.147   2.724   0.979
 1851SOL    HW2 1576   3.259   2.632   1.054
 1853SOL     OW 1577   2.169   2.075   1.231
 1853SOL    HW1 1578   2.146   2.112   1.321
 1853SOL    HW2 1579   2.139   1.980   1.225
 1854SOL     OW 1580   1.899   3.172   1.282
 1854SOL    HW1 1581   1.952   3.123   1.350
 1854SOL    HW2 1582   1.921   3.270   1.287
 1855SOL     OW 1583   2.594   2.496   1.064
 1855SOL    HW1 1584   2.653   2.470   0.988
 1855SOL    HW2 1585   2.566   2.592   1.053
 1856SOL     OW 1586   3.590   2.797   1.854
 1856SOL    HW1 1587   3.544   2.790   1.765
 1856SOL    HW2 1588   3.528   2.841   1.920
 1857SOL     OW 1589   2.169   1.925   0.618
 1857SOL    HW1 1590   2.158   2.019   0.651
 1857SOL    HW2 1591   2.164   1.862   0.695
 1859SOL     OW 1592   2.885   2.628   0.966
 1859SOL    HW1 1593   2.900   2.649   1.062
 1859SOL    HW2 1594   2.855   2.533   0.957
 1860SOL     OW 1595   2.842   3.435   1.700
 1860SOL    HW1 1596   2.822   3.479   1.612
 1860SOL    HW2 1597   2.881   3.344   1.684
 1862SOL     OW 1598   2.212   2.760   1.804
 1862SOL    HW1 1599   2.288   2.804   1.852
 1862SOL    HW2 1600   2.247   2.713   1.722
 1866SOL     OW 1601   2.181   2.672   0.949
 1866SOL    HW1 1602   2.274   2.708   0.954
 1866SOL    HW2 1603   2.175   2.587   1.001
 1867SOL     OW 1604   2.201   2.371   1.006
 1867SOL    HW1 1605   2.149   2.288   0.989
 1867SOL    HW2 1606   2.278   2.376   0.942
 1868SOL     OW 1607   3.000   2.242   1.678
 1868SOL    HW1 1608   2.955   2.305   1.742
 1868SOL    HW2 1609   3.093   2.273   1.661
 1869SOL     OW 1610   3.022   2.069   1.477
 1869SOL    HW1 1611   3.022   2.133   1.554
 1869SOL    HW2 1612   3.050   2.117   1.394
 1872SOL     OW 1613   2.366   3.430   0.910
 1872SOL    HW1 1614   2.432   3.504   0.919
 1872SOL    HW2 1615   2.410   3.351   0.868
 1873SOL     OW 1616   2.864   2.658   1.238
 1873SOL    HW1 1617   2.905   2.626   1.324
 1873SOL    HW2 1618   2.768   2.631   1.235
 1874SOL     OW 1619   1.902   2.406   1.114
 1874SOL    HW1 1620   1.987   2.373   1.073
 1874SOL    HW2 1621   1.915   2.421   1.212
 1875SOL     OW 1622   2.051   2.382   1.722
 1875SOL    HW1 1623   2.110   2.342   1.652
 1875SOL    HW2 1624   1.993   2.453   1.681
 1876SOL     OW 1625   3.231   2.812   1.660
 1876SOL    HW1 1626   3.270   2.901   1.680
 1876SOL    HW2 1627   3.241   2.792   1.563
 1878SOL     OW 1628   3.519   2.466   1.206
 1878SOL    HW1 1629   3.481   2.397   1.268
 1878SOL    HW2 1630   3.601   2.430   1.162
 1879SOL     OW 1631   2.114   3.426   1.744
 1879SOL    HW1 1632   2.084   3.483   1.820
 1879SOL    HW2 1633   2.107   3.329   1.770
 1880SOL     OW 1634   2.533   2.326   1.269
 1880SOL    HW1 1635   2.499   2.237   1.239
 1880SOL    HW2 1636   2.559   2.380   1.189
 1881SOL     OW 1637   2.792   3.540   1.465
 1881SOL    HW1 1638   2.768   3.522   1.370
 1881SOL    HW2 1639   2.822   3.634   1.475
 1883SOL     OW 1640   2.021   2.999   1.466
 1883SOL    HW1 1641   2.043   2.938   1.542
 1883SOL    HW2 1642   2.031   2.950   1.380
 1884SOL     OW 1643   3.209   2.921   1.234
 1884SOL    HW1 1644   3.233   2.858   1.160
 1884SOL    HW2 1645   3.119   2.961   1.216
 1888SOL     OW 1646   1.945   3.120   1.022
 1888SOL    HW1 1647   1.940   3.119   1.122
 1888SOL    HW2 1648   1.862   3.079   0.984
 1889SOL     OW 1649   2.550   3.524   1.716
 1889SOL    HW1 1650   2.494   3.605   1.725
 1889SOL    HW2 1651   2.602   3.528   1.630
 1893SOL     OW 1652   1.992   3.656   1.851
 1893SOL    HW1 1653   1.951   3.582   1.904
 1893SOL    HW2 1654   2.056   3.707   1.909
 1895SOL     OW 1655   2.692   3.135   1.422
 1895SOL    HW1 1656   2.687   3.168   1.517
 1895SOL    HW2 1657   2.606   3.154   1.376
 1899SOL     OW 1658   2.125   2.188   0.720
 1899SOL    HW1 1659   2.046   2.239   0.686
 1899SOL    HW2 1660   2.116   2.173   0.818
 1901SOL     OW 1661   2.684   2.864   1.372
 1901SOL    HW1 1662   2.724   2.863   1.280
 1901SOL    HW2 1663   2.694   2.956   1.412
 1904SOL     OW 1664   2.234   3.150   1.490
 1904SOL    HW1 1665   2.221   3.243   1.456
 1904SOL    HW2 1666   2.150   3.098   1.477
 1907SOL     OW 1667   2.876   2.098   0.971
 1907SOL    HW1 1668   2.868   2.062   0.878
 1907SOL    HW2 1669   2.874   2.022   1.036
 1909SOL     OW 1670   3.571   2.247   1.381
 1909SOL    HW1 1671   3.644   2.316   1.385
 1909SOL    HW2 1672   3.599   2.172   1.322
 1911SOL     OW 1673   1.967   2.875   1.726
 1911SOL    HW1 1674   1.890   2.842   1.780
 1911SOL    HW2 1675   2.052   2.845   1.768
 1912SOL     OW 1676   2.534   2.065   1.489
 1912SOL    HW1 1677   2.624   2.049   1.449
 1912SOL    HW2 1678   2.542   2.070   1.588
 1914SOL     OW 1679   3.302   2.718   1.398
 1914SOL    HW1 1680   3.245   2.770   1.335
 1914SOL    HW2 1681   3.398   2.730   1.374
 1916SOL     OW 1682   2.475   2.704   1.431
 1916SOL    HW1 1683   2.531   2.785   1.414
 1916SOL    HW2 1684   2.534   2.624   1.434
 1918SOL     OW 1685   2.578   2.427   1.708
 1918SOL    HW1 1686   2.597   2.492   1.782
 1918SOL    HW2 1687   2.638   2.347   1.717
 1919SOL     OW 1688   3.312   3.082   1.633
 1919SOL    HW1 1689   3.303   3.072   1.732
 1919SOL    HW2 1690   3.408   3.075   1.607
 1920SOL     OW 1691   2.252   3.603   1.560
 1920SOL    HW1 1692   2.161   3.644   1.558
 1920SOL    HW2 1693   2.245   3.509   1.592
 1921SOL     OW 1694   3.536   2.745   1.254
 1921SOL    HW1 1695   3.509   2.656   1.217
 1921SOL    HW2 1696   3.537   2.813   1.181
 1923SOL     OW 1697   2.456   2.607   0.652
 1923SOL    HW1 1698   2.506   2.692   0.633
 1923SOL    HW2 1699   2.368   2.609   0.604
 1924SOL     OW 1700   3.639   2.204   1.642
 1924SOL    HW1 1701   3.622   2.235   1.548
 1924SOL    HW2 1702   3.555   2.167   1.680
 1925SOL     OW 1703   3.592   2.796   1.517
 1925SOL    HW1 1704   3.630   2.887   1.532
 1925SOL    HW2 1705   3.584   2.779   1.418
 1928SOL     OW 1706   2.721   2.818   0.861
 1928SOL    HW1 1707   2.775   2.749   0.909
 1928SOL    HW2 1708   2.689   2.887   0.927
 1931SOL     OW 1709   2.083   3.176   1.844
 1931SOL    HW1 1710   2.018   3.103   1.823
 1931SOL    HW2 1711   2.087   3.190   1.942
 1933SOL     OW 1712   2.534   3.253   1.624
 1933SOL    HW1 1713   2.456   3.203   1.662
 1933SOL    HW2 1714   2.531   3.348   1.655
 1934SOL     OW 1715   3.686   2.054   1.227
 1934SOL    HW1 1716   3.682   1.964   1.271
 1934SOL    HW2 1717   3.689   2.043   1.128
 1935SOL     OW 1718   2.290   2.286   0.520
 1935SOL    HW1 1719   2.320   2.214   0.458
 1935SOL    HW2 1720   2.251   2.246   0.603
 1937SOL     OW 1721   2.179   2.409   1.280
 1937SOL    HW1 1722   2.217   2.350   1.352
 1937SOL    HW2 1723   2.219   2.383   1.192
 1939SOL     OW 1724   3.286   2.076   1.112
 1939SOL    HW1 1725   3.338   2.011   1.167
 1939SOL    HW2 1726   3.237   2.139   1.173
 1940SOL     OW 1727   2.863   1.896   1.154
 1940SOL    HW1 1728   2.800   1.824   1.123
 1940SOL    HW2 1729   2.956   1.860   1.154
 1942SOL     OW 1730   2.480   3.429   1.284
 1942SOL    HW1 1731   2.475   3.511   1.341
 1942SOL    HW2 1732   2.569   3.426   1.239
 1948SOL     OW 1733   2.092   2.490   1.975
 1948SOL    HW1 1734   1.999   2.488   2.012
 1948SOL    HW2 1735   2.093   2.451   1.883
 1949SOL     OW 1736   2.087   2.137   2.858
 1949SOL    HW1 1737   2.122   2.120   2.950
 1949SOL    HW2 1738   1.999   2.092   2.846
 1950SOL     OW 1739   1.881   2.230   2.509
 1950SOL    HW1 1740   1.799   2.273   2.548
 1950SOL    HW2 1741   1.853   2.157   2.446
 1951SOL     OW 1742   2.431   3.137   3.027
 1951SOL    HW1 1743   2.338   3.130   2.990
 1951SOL    HW2 1744   2.442   3.226   3.071
 1952SOL     OW 1745   3.417   3.373   2.565
 1952SOL    HW1 1746   3.360   3.357   2.646
 1952SOL    HW2 1747   3.358   3.383   2.485
 1953SOL     OW 1748   2.997   2.565   2.579
 1953SOL    HW1 1749   3.054   2.643   2.554
 1953SOL    HW2 1750   2.937   2.591   2.655
 1954SOL     OW 1751   3.617   2.469   2.093
 1954SOL    HW1 1752   3.605   2.456   1.994
 1954SOL    HW2 1753   3.587   2.388   2.142
 1955SOL     OW 1754   2.630   3.006   2.885
 1955SOL    HW1 1755   2.552   3.023   2.945
 1955SOL    HW2 1756   2.664   3.093   2.849
 1956SOL     OW 1757   2.712   2.660   3.685
 1956SOL    HW1 1758   2.708   2.736   3.750
 1956SOL    HW2 1759   2.734   2.696   3.594
 1957SOL     OW 1760   2.547   2.874   2.527
 1957SOL    HW1 1761   2.616   2.858   2.597
 1957SOL    HW2 1762   2.474   2.931   2.565
 1958SOL     OW 1763   2.548   3.023   3.665
 1958SOL    HW1 1764   2.608   3.102   3.679
 1958SOL    HW2 1765   2.462   3.054   3.624
 1959SOL     OW 1766   2.197   3.297   2.923
 1959SOL    HW1 1767   2.119   3.266   2.870
 1959SOL    HW2 1768   2.255   3.355   2.866
 1961SOL     OW 1769   2.300   2.254   3.361
 1961SOL    HW1 1770   2.382   2.198   3.370
 1961SOL    HW2 1771   2.219   2.196   3.365
 1962SOL     OW 1772   3.465   2.309   2.599
 1962SOL    HW1 1773   3.391   2.355   2.549
 1962SOL    HW2 1774   3.516   2.377   2.652
 1963SOL     OW 1775   2.093   3.575   2.345
 1963SOL    HW1 1776   2.127   3.652   2.399
 1963SOL    HW2 1777   2.137   3.575   2.255
 1964SOL     OW 1778   2.989   3.203   3.552
 1964SOL    HW1 1779   3.036   3.203   3.640
 1964SOL    HW2 1780   2.941   3.116   3.541
 1965SOL     OW 1781   2.092   3.296   2.400
 1965SOL    HW1 1782   2.066   3.392   2.400
 1965SOL    HW2 1783   2.021   3.242   2.445
 1966SOL     OW 1784   2.102   2.953   2.748
 1966SOL    HW1 1785   2.116   2.869   2.800
 1966SOL    HW2 1786   2.047   3.017   2.803
 1967SOL     OW 1787   2.482   3.648   3.301
 1967SOL    HW1 1788   2.390   3.631   3.336
 1967SOL    HW2 1789   2.510   3.740   3.327
 1968SOL     OW 1790   2.468   2.826   1.985
 1968SOL    HW1 1791   2.475   2.910   1.931
 1968SOL    HW2 1792   2.514   2.839   2.073
 1969SOL     OW 1793   3.456   1.976   3.342
 1969SOL    HW1 1794   3.438   2.043   3.270
 1969SOL    HW2 1795   3.453   2.022   3.431
 1970SOL     OW 1796   1.984   2.505   2.425
 1970SOL    HW1 1797   1.939   2.417   2.442
 1970SOL    HW2 1798   1.983   2.559   2.509
 1972SOL     OW 1799   1.889   3.458   1.979
 1972SOL    HW1 1800   1.870   3.362   2.000
 1972SOL    HW2 1801   1.856   3.516   2.054
 1973SOL     OW 1802   3.551   2.784   2.474
 1973SOL    HW1 1803   3.646   2.755   2.482
 1973SOL    HW2 1804   3.543   2.849   2.399
 1974SOL     OW 1805   3.503   2.970   2.294
 1974SOL    HW1 1806   3.589   2.972   2.242
 1974SOL    HW2 1807   3.517   3.017   2.382
 1975SOL     OW 1808   1.975   2.599   3.459
 1975SOL    HW1 1809   2.063   2.586   3.504
 1975SOL    HW2 1810   1.962   2.696   3.437
 1976SOL     OW 1811   2.475   3.227   2.588
 1976SOL    HW1 1812   2.426   3.140   2.597
 1976SOL    HW2 1813   2.452   3.270   2.501
 1977SOL     OW 1814   3.155   3.090   3.285
 1977SOL    HW1 1815   3.192   3.017   3.227
 1977SOL    HW2 1816   3.207   3.095   3.370
 1978SOL     OW 1817   2.671   1.866   2.364
 1978SOL    HW1 1818   2.711   1.957   2.355
 1978SOL    HW2 1819   2.571   1.874   2.370
 1979SOL     OW 1820   2.059   2.838   3.126
 1979SOL    HW1 1821   2.148   2.793   3.112
 1979SOL    HW2 1822   1.986   2.773   3.107
 1980SOL     OW 1823   3.387   2.861   2.052
 1980SOL    HW1 1824   3.324   2.785   2.065
 1980SOL    HW2 1825   3.435   2.879   2.138
 1982SOL     OW 1826   2.179   2.113   3.663
 1982SOL    HW1 1827   2.250   2.184   3.669
 1982SOL    HW2 1828   2.091   2.152   3.691
 1983SOL     OW 1829   3.328   3.279   2.815
 1983SOL    HW1 1830   3.269   3.285   2.895
 1983SOL    HW2 1831   3.313   3.191   2.769
 1985SOL     OW 1832   2.460   2.591   2.132
 1985SOL    HW1 1833   2.484   2.660   2.064
 1985SOL    HW2 1834   2.382   2.624   2.186
 1986SOL     OW 1835   3.143   2.207   2.806
 1986SOL    HW1 1836   3.057   2.157   2.793
 1986SOL    HW2 1837   3.205   2.153   2.862
 1987SOL     OW 1838   3.438   3.524   2.169
 1987SOL    HW1 1839   3.527   3.570   2.172
 1987SOL    HW2 1840   3.417   3.500   2.074
 1988SOL     OW 1841   2.669   2.467   3.327
 1988SOL    HW1 1842   2.622   2.464   3.416
 1988SOL    HW2 1843   2.618   2.412   3.261
 1989SOL     OW 1844   3.256   2.331   3.536
 1989SOL    HW1 1845   3.236   2.374   3.624
 1989SOL    HW2 1846   3.334   2.269   3.545
 1990SOL     OW 1847   2.835   2.752   3.434
 1990SOL    HW1 1848   2.881   2.668   3.405
 1990SOL    HW2 1849   2.779   2.786   3.359
 1991SOL     OW 1850   2.853   2.272   3.104
 1991SOL    HW1 1851   2.776   2.306   3.158
 1991SOL    HW2 1852   2.819   2.221   3.025
 1992SOL     OW 1853   2.903   2.563   2.291
 1992SOL    HW1 1854   2.929   2.559   2.387
 1992SOL    HW2 1855   2.818   2.512   2.277
 1993SOL     OW 1856   1.938   2.673   2.651
 1993SOL    HW1 1857   2.037   2.661   2.660
 1993SOL    HW2 1858   1.914   2.768   2.672
 1995SOL     OW 1859   2.727   2.210   2.057
 1995SOL    HW1 1860   2.786   2.273   2.008
 1995SOL    HW2 1861   2.746   2.116   2.028
 1997SOL     OW 1862   3.224   3.006   2.407
 1997SOL    HW1 1863   3.307   2.977   2.359
 1997SOL    HW2 1864   3.175   3.073   2.351
 1998SOL     OW 1865   2.412   2.058   2.747
 1998SOL    HW1 1866   2.407   2.053   2.847
 1998SOL    HW2 1867   2.414   2.154   2.718
 1999SOL     OW 1868   2.870   3.318   2.339
 1999SOL    HW1 1869   2.824   3.390   2.287
 1999SOL    HW2 1870   2.866   3.338   2.437
 2000SOL     OW 1871   2.213   3.663   2.715
 2000SOL    HW1 1872   2.263   3.577   2.721
 2000SOL    HW2 1873   2.278   3.740   2.712
 2001SOL     OW 1874   3.657   2.928   2.735
 2001SOL    HW1 1875   3.595   2.913   2.659
 2001SOL    HW2 1876   3.605   2.939   2.820
 2003SOL     OW 1877   2.183   2.805   2.104
 2003SOL    HW1 1878   2.265   2.844   2.062
 2003SOL    HW2 1879   2.156   2.723   2.055
 2004SOL     OW 1880   3.320   2.597   2.590
 2004SOL    HW1 1881   3.315   2.532   2.665
 2004SOL    HW2 1882   3.400   2.656   2.603
 2005SOL     OW 1883   2.323   3.128   3.589
 2005SOL    HW1 1884   2.273   3.129   3.503
 2005SOL    HW2 1885   2.260   3.110   3.665
 2006SOL     OW 1886   2.973   3.638   2.099
 2006SOL    HW1 1887   2.913   3.576   2.149
 2006SOL    HW2 1888   3.004   3.594   2.014
 2007SOL     OW 1889   2.064   2.147   3.360
 2007SOL    HW1 1890   1.984   2.207   3.347
 2007SOL    HW2 1891   2.054   2.098   3.446
 2008SOL     OW 1892   3.494   3.239   1.943
 2008SOL    HW1 1893   3.462   3.333   1.933
 2008SOL    HW2 1894   3.418   3.176   1.931
 2009SOL     OW 1895   2.326   3.605   2.185
 2009SOL    HW1 1896   2.359   3.644   2.271
 2009SOL    HW2 1897   2.402   3.598   2.120
 2010SOL     OW 1898   3.262   1.969   2.288
 2010SOL    HW1 1899   3.238   1.932   2.198
 2010SOL    HW2 1900   3.361   1.985   2.292
 2011SOL     OW 1901   2.111   3.647   3.103
 2011SOL    HW1 1902   2.168   3.582   3.153
 2011SOL    HW2 1903   2.095   3.614   3.010
 2012SOL     OW 1904   2.802   3.560   2.766
 2012SOL    HW1 1905   2.882   3.503   2.787
 2012SOL    HW2 1906   2.753   3.520   2.689
 2013SOL     OW 1907   3.409   2.084   3.591
 2013SOL    HW1 1908   3.404   2.121   3.683
 2013SOL    HW2 1909   3.337   2.015   3.579
 2014SOL     OW 1910   2.476   1.984   1.979
 2014SOL    HW1 1911   2.574   1.962   1.986
 2014SOL    HW2 1912   2.445   1.967   1.886
 2015SOL     OW 1913   2.643   2.126   3.611
 2015SOL    HW1 1914   2.710   2.065   3.654
 2015SOL    HW2 1915   2.570   2.145   3.676
 2016SOL     OW 1916   2.750   3.376   3.057
 2016SOL    HW1 1917   2.727   3.351   2.963
 2016SOL    HW2 1918   2.811   3.307   3.096
 2017SOL     OW 1919   3.213   2.452   3.295
 2017SOL    HW1 1920   3.241   2.409   3.380
 2017SOL    HW2 1921   3.238   2.548   3.296
 2018SOL     OW 1922   2.665   3.264   2.786
 2018SOL    HW1 1923   2.755   3.278   2.744
 2018SOL    HW2 1924   2.594   3.266   2.715
 2019SOL     OW 1925   2.784   2.365   2.761
 2019SOL    HW1 1926   2.759   2.356   2.665
 2019SOL    HW2 1927   2.832   2.283   2.792
 2020SOL     OW 1928   3.296   3.050   1.903
 2020SOL    HW1 1929   3.328   2.974   1.960
 2020SOL    HW2 1930   3.204   3.077   1.933
 2021SOL     OW 1931   2.159   1.897   2.033
 2021SOL    HW1 1932   2.208   1.981   2.012
 2021SOL    HW2 1933   2.221   1.832   2.078
 2022SOL     OW 1934   2.797   2.098   2.342
 2022SOL    HW1 1935   2.749   2.139   2.264
 2022SOL    HW2 1936   2.896   2.096   2.323
 2023SOL     OW 1937   2.938   2.545   3.326
 2023SOL    HW1 1938   2.858   2.484   3.329
 2023SOL    HW2 1939   3.019   2.492   3.302
 2024SOL     OW 1940   3.089   3.432   2.655
 2024SOL    HW1 1941   3.110   3.506   2.590
 2024SOL    HW2 1942   3.157   3.432   2.728
 2025SOL     OW 1943   2.321   3.014   2.603
 2025SOL    HW1 1944   2.250   2.987   2.668
 2025SOL    HW2 1945   2.295   2.986   2.510
 2026SOL     OW 1946   3.133   3.659   2.453
 2026SOL    HW1 1947   3.177   3.723   2.389
 2026SOL    HW2 1948   3.083   3.711   2.523
 2027SOL     OW 1949   2.894   2.411   1.878
 2027SOL    HW1 1950   2.853   2.493   1.839
 2027SOL    HW2 1951   2.958   2.437   1.951
 2028SOL     OW 1952   1.940   2.418   3.248
 2028SOL    HW1 1953   2.032   2.417   3.207
 2028SOL    HW2 1954   1.934   2.492   3.315
 2029SOL     OW 1955   2.423   2.084   3.009
 2029SOL    HW1 1956   2.461   2.000   3.046
 2029SOL    HW2 1957   2.335   2.103   3.053
 2030SOL     OW 1958   2.728   2.316   2.504
 2030SOL    HW1 1959   2.696   2.388   2.442
 2030SOL    HW2 1960   2.752   2.235   2.451
 2031SOL     OW 1961   2.879   1.901   2.615
 2031SOL    HW1 1962   2.807   1.906   2.546
 2031SOL    HW2 1963   2.855   1.832   2.684
 2032SOL     OW 1964   3.291   3.035   2.729
 2032SOL    HW1 1965   3.236   2.951   2.722
 2032SOL    HW2 1966   3.317   3.064   2.637
 2033SOL     OW 1967   3.328   2.452   2.854
 2033SOL    HW1 1968   3.298   2.357   2.861
 2033SOL    HW2 1969   3.401   2.468   2.920
 2034SOL     OW 1970   3.719   2.695   2.239
 2034SOL    HW1 1971   3.761   2.631   2.303
 2034SOL    HW2 1972   3.681   2.644   2.161
 2035SOL     OW 1973   2.350   3.247   2.036
 2035SOL    HW1 1974   2.263   3.232   2.083
 2035SOL    HW2 1975   2.333   3.273   1.941
 2036SOL     OW 1976   3.526   3.142   2.519
 2036SOL    HW1 1977   3.625   3.150   2.533
 2036SOL    HW2 1978   3.481   3.226   2.550
 2037SOL     OW 1979   3.252   2.437   1.940
 2037SOL    HW1 1980   3.198   2.416   2.021
 2037SOL    HW2 1981   3.343   2.396   1.949
 2039SOL     OW 1982   2.926   3.209   3.202
 2039SOL    HW1 1983   2.846   3.186   3.257
 2039SOL    HW2 1984   3.009   3.183   3.251
 2041SOL     OW 1985   2.973   3.057   2.962
 2041SOL    HW1 1986   2.933   3.101   3.043
 2041SOL    HW2 1987   2.932   3.094   2.879
 2042SOL     OW 1988   3.500   2.961   2.941
 2042SOL    HW1 1989   3.505   3.042   3.000
 2042SOL    HW2 1990   3.414   2.963   2.890
 2043SOL     OW 1991   2.777   1.951   3.264
 2043SOL    HW1 1992   2.802   1.931   3.169
 2043SOL    HW2 1993   2.849   2.007   3.306
 2044SOL     OW 1994   2.842   2.978   3.581
 2044SOL    HW1 1995   2.743   2.984   3.591
 2044SOL    HW2 1996   2.865   2.898   3.525
 2045SOL     OW 1997   2.567   2.912   2.230
 2045SOL    HW1 1998   2.553   2.919   2.329
 2045SOL    HW2 1999   2.651   2.861   2.212
 2046SOL     OW 2000   2.272   2.675   3.113
 2046SOL    HW1 2001   2.358   2.687   3.163
 2046SOL    HW2 2002   2.230   2.588   3.140
 2047SOL     OW 2003   3.136   2.248   3.124
 2047SOL    HW1 2004   3.157   2.322   3.188
 2047SOL    HW2 2005   3.047   2.265   3.081
 2048SOL     OW 2006   1.926   3.426   3.193
 2048SOL    HW1 2007   1.880   3.508   3.159
 2048SOL    HW2 2008   2.024   3.445   3.202
 2049SOL     OW 2009   2.229   2.962   2.363
 2049SOL    HW1 2010   2.222   3.045   2.307
 2049SOL    HW2 2011   2.233   2.882   2.303
 2050SOL     OW 2012   2.428   2.399   2.727
 2050SOL    HW1 2013   2.440   2.465   2.653
 2050SOL    HW2 2014   2.474   2.433   2.810
 2051SOL     OW 2015   3.114   3.210   2.250
 2051SOL    HW1 2016   3.164   3.287   2.290
 2051SOL    HW2 2017   3.019   3.212   2.282
 2052SOL     OW 2018   3.134   3.307   3.004
 2052SOL    HW1 2019   3.181   3.320   3.091
 2052SOL    HW2 2020   3.068   3.233   3.013
 2053SOL     OW 2021   3.444   2.501   2.334
 2053SOL    HW1 2022   3.413   2.562   2.407
 2053SOL    HW2 2023   3.494   2.553   2.265
 2054SOL     OW 2024   2.216   3.372   3.191
 2054SOL    HW1 2025   2.195   3.328   3.104
 2054SOL    HW2 2026   2.313   3.398   3.194
 2055SOL     OW 2027   2.264   2.613   3.460
 2055SOL    HW1 2028   2.332   2.668   3.413
 2055SOL    HW2 2029   2.304   2.525   3.487
 2057SOL     OW 2030   2.875   1.967   3.632
 2057SOL    HW1 2031   2.881   2.052   3.580
 2057SOL    HW2 2032   2.907   1.891   3.575
 2058SOL     OW 2033   2.366   1.912   3.602
 2058SOL    HW1 2034   2.324   1.855   3.532
 2058SOL    HW2 2035   2.300   1.981   3.634
 2059SOL     OW 2036   2.435   2.732   2.891
 2059SOL    HW1 2037   2.479   2.821   2.882
 2059SOL    HW2 2038   2.372   2.732   2.968
 2060SOL     OW 2039   3.222   2.724   2.907
 2060SOL    HW1 2040   3.147   2.724   2.841
 2060SOL    HW2 2041   3.259   2.632   2.916
 2061SOL     OW 2042   3.071   2.387   2.137
 2061SOL    HW1 2043   3.084   2.303   2.191
 2061SOL    HW2 2044   3.042   2.461   2.197
 2062SOL     OW 2045   2.169   2.075   3.093
 2062SOL    HW1 2046   2.146   2.112   3.183
 2062SOL    HW2 2047   2.139   1.980   3.087
 2063SOL     OW 2048   1.899   3.172   3.144
 2063SOL    HW1 2049   1.952   3.123   3.212
 2063SOL    HW2 2050   1.921   3.270   3.149
 2064SOL     OW 2051   2.594   2.496   2.926
 2064SOL    HW1 2052   2.653   2.470   2.850
 2064SOL    HW2 2053   2.566   2.592   2.915
 2066SOL     OW 2054   2.169   1.925   2.480
 2066SOL    HW1 2055   2.158   2.019   2.513
 2066SOL    HW2 2056   2.164   1.862   2.557
 2067SOL     OW 2057   3.484   2.229   2.236
 2067SOL    HW1 2058   3.486   2.153   2.300
 2067SOL    HW2 2059   3.436   2.306   2.276
 2068SOL     OW 2060   2.885   2.628   2.828
 2068SOL    HW1 2061   2.900   2.649   2.924
 2068SOL    HW2 2062   2.855   2.533   2.819
 2071SOL     OW 2063   2.212   2.760   3.666
 2071SOL    HW1 2064   2.288   2.804   3.714
 2071SOL    HW2 2065   2.247   2.713   3.584
 2072SOL     OW 2066   3.402   2.136   1.987
 2072SOL    HW1 2067   3.341   2.061   2.010
 2072SOL    HW2 2068   3.424   2.188   2.070
 2073SOL     OW 2069   3.165   2.700   1.904
 2073SOL    HW1 2070   3.199   2.607   1.919
 2073SOL    HW2 2071   3.183   2.727   1.809
 2074SOL     OW 2072   2.930   3.195   2.711
 2074SOL    HW1 2073   2.937   3.111   2.656
 2074SOL    HW2 2074   2.992   3.264   2.675
 2075SOL     OW 2075   2.181   2.672   2.811
 2075SOL    HW1 2076   2.274   2.708   2.816
 2075SOL    HW2 2077   2.175   2.587   2.863
 2076SOL     OW 2078   2.201   2.371   2.868
 2076SOL    HW1 2079   2.149   2.288   2.851
 2076SOL    HW2 2080   2.278   2.376   2.804
 2077SOL     OW 2081   3.000   2.242   3.540
 2077SOL    HW1 2082   2.955   2.305   3.604
 2077SOL    HW2 2083   3.093   2.273   3.523
 2078SOL     OW 2084   3.022   2.069   3.339
 2078SOL    HW1 2085   3.022   2.133   3.416
 2078SOL    HW2 2086   3.050   2.117   3.256
 2079SOL     OW 2087   1.870   3.188   2.062
 2079SOL    HW1 2088   1.777   3.209   2.031
 2079SOL    HW2 2089   1.880   3.089   2.075
 2080SOL     OW 2090   1.950   3.663   2.789
 2080SOL    HW1 2091   1.908   3.577   2.762
 2080SOL    HW2 2092   2.044   3.666   2.755
 2081SOL     OW 2093   2.366   3.430   2.772
 2081SOL    HW1 2094   2.432   3.504   2.781
 2081SOL    HW2 2095   2.410   3.351   2.730
 2082SOL     OW 2096   2.864   2.658   3.100
 2082SOL    HW1 2097   2.905   2.626   3.186
 2082SOL    HW2 2098   2.768   2.631   3.097
 2083SOL     OW 2099   1.902   2.406   2.976
 2083SOL    HW1 2100   1.987   2.373   2.935
 2083SOL    HW2 2101   1.915   2.421   3.074
 2084SOL     OW 2102   2.051   2.382   3.584
 2084SOL    HW1 2103   2.110   2.342   3.514
 2084SOL    HW2 2104   1.993   2.453   3.543
 2085SOL     OW 2105   3.231   2.812   3.522
 2085SOL    HW1 2106   3.270   2.901   3.542
 2085SOL    HW2 2107   3.241   2.792   3.425
 2086SOL     OW 2108   2.677   2.434   2.187
 2086SOL    HW1 2109   2.684   2.345   2.141
 2086SOL    HW2 2110   2.583   2.468   2.179
 2087SOL     OW 2111   3.519   2.466   3.068
 2087SOL    HW1 2112   3.481   2.397   3.130
 2087SOL    HW2 2113   3.601   2.430   3.024
 2089SOL     OW 2114   2.533   2.326   3.131
 2089SOL    HW1 2115   2.499   2.237   3.101
 2089SOL    HW2 2116   2.559   2.380   3.051
 2090SOL     OW 2117   2.792   3.540   3.327
 2090SOL    HW1 2118   2.768   3.522   3.232
 2090SOL    HW2 2119   2.822   3.634   3.337
 2091SOL     OW 2120   2.021   2.999   3.328
 2091SOL    HW1 2121   2.043   2.938   3.404
 2091SOL    HW2 2122   2.031   2.950   3.242
 2092SOL     OW 2123   3.209   2.921   3.096
 2092SOL    HW1 2124   3.233   2.858   3.022
 2092SOL    HW2 2125   3.119   2.961   3.078
 2093SOL     OW 2126   3.164   2.717   2.171
 2093SOL    HW1 2127   3.078   2.686   2.213
 2093SOL    HW2 2128   3.160   2.703   2.072
 2095SOL     OW 2129   3.114   3.593   2.990
 2095SOL    HW1 2130   3.198   3.598   2.936
 2095SOL    HW2 2131   3.091   3.497   3.008
 2096SOL     OW 2132   1.945   3.120   2.884
 2096SOL    HW1 2133   1.940   3.119   2.984
 2096SOL    HW2 2134   1.862   3.079   2.846
 2098SOL     OW 2135   3.588   1.997   2.385
 2098SOL    HW1 2136   3.661   1.980   2.318
 2098SOL    HW2 2137   3.557   1.910   2.423
 2099SOL     OW 2138   3.250   3.435   2.339
 2099SOL    HW1 2139   3.317   3.447   2.265
 2099SOL    HW2 2140   3.210   3.524   2.362
 2101SOL     OW 2141   3.142   2.789   2.534
 2101SOL    HW1 2142   3.202   2.708   2.536
 2101SOL    HW2 2143   3.182   2.858   2.474
 2102SOL     OW 2144   2.692   3.135   3.284
 2102SOL    HW1 2145   2.687   3.168   3.379
 2102SOL    HW2 2146   2.606   3.154   3.238
 2103SOL     OW 2147   2.534   3.478   2.016
 2103SOL    HW1 2148   2.543   3.488   1.917
 2103SOL    HW2 2149   2.494   3.389   2.037
 2105SOL     OW 2150   3.703   2.037   2.825
 2105SOL    HW1 2151   3.742   1.952   2.789
 2105SOL    HW2 2152   3.605   2.039   2.806
 2106SOL     OW 2153   2.125   2.188   2.582
 2106SOL    HW1 2154   2.046   2.239   2.548
 2106SOL    HW2 2155   2.116   2.173   2.680
 2107SOL     OW 2156   3.056   3.474   1.893
 2107SOL    HW1 2157   3.062   3.381   1.930
 2107SOL    HW2 2158   2.997   3.474   1.813
 2108SOL     OW 2159   2.684   2.864   3.234
 2108SOL    HW1 2160   2.724   2.863   3.142
 2108SOL    HW2 2161   2.694   2.956   3.274
 2109SOL     OW 2162   2.778   2.772   2.153
 2109SOL    HW1 2163   2.841   2.810   2.085
 2109SOL    HW2 2164   2.818   2.689   2.192
 2110SOL     OW 2165   3.366   3.469   1.906
 2110SOL    HW1 2166   3.274   3.506   1.913
 2110SOL    HW2 2167   3.404   3.489   1.816
 2111SOL     OW 2168   2.234   3.150   3.352
 2111SOL    HW1 2169   2.221   3.243   3.318
 2111SOL    HW2 2170   2.150   3.098   3.339
 2112SOL     OW 2171   3.476   3.154   3.151
 2112SOL    HW1 2172   3.536   3.157   3.231
 2112SOL    HW2 2173   3.401   3.218   3.164
 2113SOL     OW 2174   2.901   2.960   2.558
 2113SOL    HW1 2175   2.831   2.913   2.612
 2113SOL    HW2 2176   2.960   2.892   2.515
 2114SOL     OW 2177   2.876   2.098   2.833
 2114SOL    HW1 2178   2.868   2.062   2.740
 2114SOL    HW2 2179   2.874   2.022   2.898
 2115SOL     OW 2180   2.452   3.349   2.353
 2115SOL    HW1 2181   2.494   3.291   2.283
 2115SOL    HW2 2182   2.408   3.428   2.309
 2116SOL     OW 2183   3.571   2.247   3.243
 2116SOL    HW1 2184   3.644   2.316   3.247
 2116SOL    HW2 2185   3.599   2.172   3.184
 2117SOL     OW 2186   2.117   3.210   2.152
 2117SOL    HW1 2187   2.021   3.211   2.125
 2117SOL    HW2 2188   2.129   3.263   2.236
 2118SOL     OW 2189   1.967   2.875   3.588
 2118SOL    HW1 2190   1.890   2.842   3.642
 2118SOL    HW2 2191   2.052   2.845   3.630
 2119SOL     OW 2192   2.534   2.065   3.351
 2119SOL    HW1 2193   2.624   2.049   3.311
 2119SOL    HW2 2194   2.542   2.070   3.450
 2120SOL     OW 2195   1.937   2.207   1.895
 2120SOL    HW1 2196   1.845   2.179   1.866
 2120SOL    HW2 2197   1.968   2.284   1.839
 2121SOL     OW 2198   3.302   2.718   3.260
 2121SOL    HW1 2199   3.245   2.770   3.197
 2121SOL    HW2 2200   3.398   2.730   3.236
 2122SOL     OW 2201   3.045   3.197   1.981
 2122SOL    HW1 2202   2.946   3.186   1.983
 2122SOL    HW2 2203   3.079   3.212   2.074
 2123SOL     OW 2204   2.475   2.704   3.293
 2123SOL    HW1 2205   2.531   2.785   3.276
 2123SOL    HW2 2206   2.534   2.624   3.296
 2125SOL     OW 2207   2.578   2.427   3.570
 2125SOL    HW1 2208   2.597   2.492   3.644
 2125SOL    HW2 2209   2.638   2.347   3.579
 2128SOL     OW 2210   3.536   2.745   3.116
 2128SOL    HW1 2211   3.509   2.656   3.079
 2128SOL    HW2 2212   3.537   2.813   3.043
 2129SOL     OW 2213   3.087   2.187   2.311
 2129SOL    HW1 2214   3.152   2.113   2.300
 2129SOL    HW2 2215   3.107   2.237   2.395
 2130SOL     OW 2216   2.456   2.607   2.514
 2130SOL    HW1 2217   2.506   2.692   2.495
 2130SOL    HW2 2218   2.368   2.609   2.466
 2133SOL     OW 2219   2.721   3.236   1.878
 2133SOL    HW1 2220   2.675   3.251   1.966
 2133SOL    HW2 2221   2.765   3.321   1.848
 2134SOL     OW 2222   2.523   3.652   2.815
 2134SOL    HW1 2223   2.477   3.740   2.802
 2134SOL    HW2 2224   2.622   3.664   2.808
 2135SOL     OW 2225   2.721   2.818   2.723
 2135SOL    HW1 2226   2.775   2.749   2.771
 2135SOL    HW2 2227   2.689   2.887   2.789
 2136SOL     OW 2228   2.945   2.846   1.949
 2136SOL    HW1 2229   2.922   2.899   1.867
 2136SOL    HW2 2230   3.026   2.790   1.930
 2138SOL     OW 2231   2.083   3.176   3.706
 2138SOL    HW1 2232   2.018   3.103   3.685
 2138SOL    HW2 2233   2.087   3.190   3.804
 2139SOL     OW 2234   1.941   3.102   2.515
 2139SOL    HW1 2235   1.940   3.055   2.603
 2139SOL    HW2 2236   2.023   3.074   2.464
 2140SOL     OW 2237   2.534   3.253   3.486
 2140SOL    HW1 2238   2.456   3.203   3.524
 2140SOL    HW2 2239   2.531   3.348   3.517
 2141SOL     OW 2240   3.686   2.054   3.089
 2141SOL    HW1 2241   3.682   1.964   3.133
 2141SOL    HW2 2242   3.689   2.043   2.990
 2143SOL     OW 2243   2.179   2.409   3.142
 2143SOL    HW1 2244   2.217   2.350   3.214
 2143SOL    HW2 2245   2.219   2.383   3.054
 2144SOL     OW 2246   2.674   3.448   2.549
 2144SOL    HW1 2247   2.706   3.458   2.455
 2144SOL    HW2 2248   2.595   3.386   2.551
 2145SOL     OW 2249   3.286   2.076   2.974
 2145SOL    HW1 2250   3.338   2.011   3.029
 2145SOL    HW2 2251   3.237   2.139   3.035
 2146SOL     OW 2252   2.863   1.896   3.016
 2146SOL    HW1 2253   2.800   1.824   2.985
 2146SOL    HW2 2254   2.956   1.860   3.016
 2147SOL     OW 2255   2.632   3.192   2.163
 2147SOL    HW1 2256   2.586   3.105   2.180
 2147SOL    HW2 2257   2.723   3.189   2.204
 2148SOL     OW 2258   2.480   3.429   3.146
 2148SOL    HW1 2259   2.475   3.511   3.203
 2148SOL    HW2 2260   2.569   3.426   3.101
 2149SOL     OW 2261   3.214   1.914   2.030
 2149SOL    HW1 2262   3.249   1.873   1.946
 2149SOL    HW2 2263   3.124   1.876   2.050
 2150SOL     OW 2264   3.162   2.315   2.553
 2150SOL    HW1 2265   3.103   2.395   2.557
 2150SOL    HW2 2266   3.177   2.280   2.646
 2151SOL     OW 2267   3.455   2.083   2.744
 2151SOL    HW1 2268   3.371   2.082   2.798
 2151SOL    HW2 2269   3.457   2.166   2.688
 2152SOL     OW 2270   1.901   2.939   2.162
 2152SOL    HW1 2271   2.000   2.928   2.153
 2152SOL    HW2 2272   1.861   2.853   2.194
 2153SOL     OW 2273   2.737   3.508   2.199
 2153SOL    HW1 2274   2.660   3.473   2.145
 2153SOL    HW2 2275   2.705   3.579   2.261
 2154SOL     OW 2276   2.092   2.490   3.837
 2154SOL    HW1 2277   1.999   2.488   3.874
 2154SOL    HW2 2278   2.093   2.451   3.745
 2161SOL     OW 2279   2.468   2.826   3.847
 2161SOL    HW1 2280   2.475   2.910   3.793
 2161SOL    HW2 2281   2.514   2.839   3.935
 2170SOL     OW 2282   2.460   2.591   3.994
 2170SOL    HW1 2283   2.484   2.660   3.926
 2170SOL    HW2 2284   2.382   2.624   4.048
 2175SOL     OW 2285   2.727   2.210   3.919
 2175SOL    HW1 2286   2.786   2.273   3.870
 2175SOL    HW2 2287   2.746   2.116   3.890
 2187SOL     OW 2288   2.476   1.984   3.841
 2187SOL    HW1 2289   2.574   1.962   3.848
 2187SOL    HW2 2290   2.445   1.967   3.748
 2190SOL     OW 2291   2.159   1.897   3.895
 2190SOL    HW1 2292   2.208   1.981   3.874
 2190SOL    HW2 2293   2.221   1.832   3.940
 2194SOL     OW 2294   2.894   2.411   3.740
 2194SOL    HW1 2295   2.853   2.493   3.701
 2194SOL    HW2 2296   2.958   2.437   3.813
 2213SOL     OW 2297   2.335   2.362   3.915
 2213SOL    HW1 2298   2.396   2.442   3.919
 2213SOL    HW2 2299   2.240   2.393   3.922
 2224SOL     OW 2300   1.937   2.207   3.757
 2224SOL    HW1 2301   1.845   2.179   3.728
 2224SOL    HW2 2302   1.968   2.284   3.701
 2250SOL     OW 2303   2.179   3.975   1.801
 2250SOL    HW1 2304   2.250   4.046   1.807
 2250SOL    HW2 2305   2.091   4.014   1.829
 2283SOL     OW 2306   2.875   3.829   1.770
 2283SOL    HW1 2307   2.881   3.914   1.718
 2283SOL    HW2 2308   2.907   3.753   1.713
 2284SOL     OW 2309   2.366   3.774   1.740
 2284SOL    HW1 2310   2.324   3.717   1.670
 2284SOL    HW2 2311   2.300   3.843   1.772
 2332SOL     OW 2312   2.671   3.728   2.364
 2332SOL    HW1 2313   2.711   3.819   2.355
 2332SOL    HW2 2314   2.571   3.736   2.370
 2341SOL     OW 2315   2.412   3.920   2.747
 2341SOL    HW1 2316   2.407   3.915   2.847
 2341SOL    HW2 2317   2.414   4.016   2.718
 2347SOL     OW 2318   2.476   3.846   1.979
 2347SOL    HW1 2319   2.574   3.824   1.986
 2347SOL    HW2 2320   2.445   3.829   1.886
 2351SOL     OW 2321   2.401   3.788   2.374
 2351SOL    HW1 2322   2.320   3.789   2.432
 2351SOL    HW2 2323   2.404   3.871   2.319
 2352SOL     OW 2324   2.159   3.759   2.033
 2352SOL    HW1 2325   2.208   3.843   2.012
 2352SOL    HW2 2326   2.221   3.694   2.078
 2359SOL     OW 2327   2.879   3.763   2.615
 2359SOL    HW1 2328   2.807   3.768   2.546
 2359SOL    HW2 2329   2.855   3.694   2.684
 2362SOL     OW 2330   2.389   3.980   2.190
 2362SOL    HW1 2331   2.416   3.921   2.115
 2362SOL    HW2 2332   2.389   4.075   2.159
 2372SOL     OW 2333   2.169   3.787   2.480
 2372SOL    HW1 2334   2.158   3.881   2.513
 2372SOL    HW2 2335   2.164   3.724   2.557
 2393SOL     OW 2336   1.934   3.890   2.180
 2393SOL    HW1 2337   1.917   3.973   2.126
 2393SOL    HW2 2338   2.024   3.853   2.158
 2465SOL     OW 2339   3.854   1.821   1.571
 2465SOL    HW1 2340   3.844   1.806   1.670
 2465SOL    HW2 2341   3.768   1.857   1.535
 2508SOL     OW 2342   3.854   1.794   1.851
 2508SOL    HW1 2343   3.813   1.720   1.904
 2508SOL    HW2 2344   3.918   1.845   1.909
 2535SOL     OW 2345   3.955   1.713   2.345
 2535SOL    HW1 2346   3.989   1.790   2.399
 2535SOL    HW2 2347   3.999   1.713   2.255
 2541SOL     OW 2348   3.751   1.596   1.979
 2541SOL    HW1 2349   3.732   1.500   2.000
 2541SOL    HW2 2350   3.718   1.654   2.054
 2581SOL     OW 2351   3.732   1.326   2.062
 2581SOL    HW1 2352   3.639   1.347   2.031
 2581SOL    HW2 2353   3.742   1.227   2.075
 2582SOL     OW 2354   3.812   1.801   2.789
 2582SOL    HW1 2355   3.770   1.715   2.762
 2582SOL    HW2 2356   3.906   1.804   2.755
 2661SOL     OW 2357   3.837   2.599   1.597
 2661SOL    HW1 2358   3.925   2.586   1.642
 2661SOL    HW2 2359   3.824   2.696   1.575
 2682SOL     OW 2360   3.802   2.418   1.386
 2682SOL    HW1 2361   3.894   2.417   1.345
 2682SOL    HW2 2362   3.796   2.492   1.453
 2704SOL     OW 2363   3.913   2.382   1.722
 2704SOL    HW1 2364   3.972   2.342   1.652
 2704SOL    HW2 2365   3.855   2.453   1.681
 2716SOL     OW 2366   3.829   2.875   1.726
 2716SOL    HW1 2367   3.752   2.842   1.780
 2716SOL    HW2 2368   3.914   2.845   1.768
 2730SOL     OW 2369   3.954   2.490   1.975
 2730SOL    HW1 2370   3.861   2.488   2.012
 2730SOL    HW2 2371   3.955   2.451   1.883
 2732SOL     OW 2372   3.743   2.230   2.509
 2732SOL    HW1 2373   3.661   2.273   2.548
 2732SOL    HW2 2374   3.715   2.157   2.446
 2743SOL     OW 2375   3.846   2.505   2.425
 2743SOL    HW1 2376   3.801   2.417   2.442
 2743SOL    HW2 2377   3.845   2.559   2.509
 2751SOL     OW 2378   3.800   2.673   2.651
 2751SOL    HW1 2379   3.899   2.661   2.660
 2751SOL    HW2 2380   3.776   2.768   2.672
 2785SOL     OW 2381   3.732   3.188   2.062
 2785SOL    HW1 2382   3.639   3.209   2.031
 2785SOL    HW2 2383   3.742   3.089   2.075
 2788SOL     OW 2384   3.764   2.406   2.976
 2788SOL    HW1 2385   3.849   2.373   2.935
 2788SOL    HW2 2386   3.777   2.421   3.074
 2797SOL     OW 2387   3.987   2.188   2.582
 2797SOL    HW1 2388   3.908   2.239   2.548
 2797SOL    HW2 2389   3.978   2.173   2.680
 2803SOL     OW 2390   3.799   2.207   1.895
 2803SOL    HW1 2391   3.707   2.179   1.866
 2803SOL    HW2 2392   3.830   2.284   1.839
 2804SOL     OW 2393   3.796   2.028   2.180
 2804SOL    HW1 2394   3.779   2.111   2.126
 2804SOL    HW2 2395   3.886   1.991   2.158
 2815SOL     OW 2396   3.763   2.939   2.162
 2815SOL    HW1 2397   3.862   2.928   2.153
 2815SOL    HW2 2398   3.723   2.853   2.194
   4.48645   4.48645   4.48645
