mobley_1261349_GMX.gro created by acpype (v: 2023.10.27) on Thu May 21 00:07:08 2026
 2396
    1MOL     C1    1   2.130   2.239   2.093
    1MOL     C2    2   2.310   2.338   2.237
    1MOL     C3    3   2.302   2.090   2.198
    1MOL     C4    4   2.127   2.200   2.341
    1MOL     C5    5   2.217   2.217   2.217
    1MOL     H1    6   2.068   2.329   2.104
    1MOL     H2    7   2.191   2.252   2.003
    1MOL     H3    8   2.062   2.155   2.076
    1MOL     H4    9   2.373   2.325   2.325
    1MOL     H5   10   2.252   2.430   2.251
    1MOL     H6   11   2.375   2.353   2.151
    1MOL     H7   12   2.238   2.002   2.183
    1MOL     H8   13   2.367   2.100   2.110
    1MOL     H9   14   2.365   2.072   2.285
    1MOL    H10   15   2.065   2.289   2.357
    1MOL    H11   16   2.187   2.184   2.431
    1MOL    H12   17   2.060   2.114   2.329
    6SOL     OW   18   1.555   1.511   0.703
    6SOL    HW1   19   1.498   1.495   0.784
    6SOL    HW2   20   1.496   1.521   0.623
   14SOL     OW   21   1.460   1.505   1.339
   14SOL    HW1   22   1.484   1.599   1.365
   14SOL    HW2   23   1.444   1.451   1.421
   18SOL     OW   24   1.127   1.341   1.690
   18SOL    HW1   25   1.174   1.341   1.778
   18SOL    HW2   26   1.079   1.254   1.679
   31SOL     OW   27   1.293   1.228   1.423
   31SOL    HW1   28   1.330   1.155   1.365
   31SOL    HW2   29   1.345   1.233   1.508
   35SOL     OW   30   1.187   1.792   1.616
   35SOL    HW1   31   1.211   1.852   1.540
   35SOL    HW2   32   1.194   1.697   1.586
   37SOL     OW   33   1.466   1.417   0.953
   37SOL    HW1   34   1.407   1.423   1.033
   37SOL    HW2   35   1.451   1.329   0.907
   50SOL     OW   36   1.719   0.585   1.831
   50SOL    HW1   37   1.693   0.674   1.795
   50SOL    HW2   38   1.717   0.517   1.758
   56SOL     OW   39   1.227   1.550   1.506
   56SOL    HW1   40   1.233   1.473   1.570
   56SOL    HW2   41   1.175   1.524   1.426
   95SOL     OW   42   1.754   1.223   1.588
   95SOL    HW1   43   1.845   1.184   1.575
   95SOL    HW2   44   1.762   1.319   1.612
   96SOL     OW   45   1.064   1.347   1.340
   96SOL    HW1   46   0.984   1.324   1.395
   96SOL    HW2   47   1.147   1.321   1.389
   97SOL     OW   48   1.592   1.629   1.625
   97SOL    HW1   49   1.619   1.663   1.535
   97SOL    HW2   50   1.671   1.591   1.671
   99SOL     OW   51   1.638   1.099   1.079
   99SOL    HW1   52   1.643   1.180   1.138
   99SOL    HW2   53   1.552   1.101   1.028
  101SOL     OW   54   0.980   1.116   1.719
  101SOL    HW1   55   0.881   1.122   1.729
  101SOL    HW2   56   1.003   1.036   1.663
  109SOL     OW   57   1.272   1.445   1.142
  109SOL    HW1   58   1.319   1.458   1.229
  109SOL    HW2   59   1.206   1.371   1.151
  113SOL     OW   60   1.587   0.779   1.670
  113SOL    HW1   61   1.495   0.817   1.665
  113SOL    HW2   62   1.647   0.826   1.605
  122SOL     OW   63   1.728   0.935   1.854
  122SOL    HW1   64   1.682   0.928   1.765
  122SOL    HW2   65   1.666   0.979   1.920
  126SOL     OW   66   0.980   1.573   1.700
  126SOL    HW1   67   0.960   1.617   1.612
  126SOL    HW2   68   1.019   1.482   1.684
  127SOL     OW   69   1.859   1.518   1.605
  127SOL    HW1   70   1.873   1.545   1.510
  127SOL    HW2   71   1.942   1.540   1.658
  142SOL     OW   72   1.369   0.950   1.660
  142SOL    HW1   73   1.408   1.039   1.680
  142SOL    HW2   74   1.379   0.930   1.563
  147SOL     OW   75   0.930   1.678   1.465
  147SOL    HW1   76   0.906   1.660   1.370
  147SOL    HW2   77   0.960   1.772   1.475
  150SOL     OW   78   1.347   1.059   1.234
  150SOL    HW1   79   1.371   0.996   1.160
  150SOL    HW2   80   1.257   1.099   1.216
  152SOL     OW   81   1.759   1.747   1.154
  152SOL    HW1   82   1.820   1.777   1.081
  152SOL    HW2   83   1.721   1.658   1.132
  153SOL     OW   84   1.252   1.731   1.128
  153SOL    HW1   85   1.336   1.736   1.074
  153SOL    HW2   86   1.229   1.635   1.146
  155SOL     OW   87   0.688   1.662   1.716
  155SOL    HW1   88   0.632   1.743   1.725
  155SOL    HW2   89   0.740   1.666   1.630
  163SOL     OW   90   1.650   1.720   1.394
  163SOL    HW1   91   1.703   1.730   1.310
  163SOL    HW2   92   1.623   1.810   1.428
  171SOL     OW   93   1.614   1.292   1.289
  171SOL    HW1   94   1.674   1.295   1.369
  171SOL    HW2   95   1.539   1.356   1.302
  180SOL     OW   96   1.440   0.856   1.398
  180SOL    HW1   97   1.383   0.908   1.335
  180SOL    HW2   98   1.536   0.868   1.374
  184SOL     OW   99   1.493   1.767   0.959
  184SOL    HW1  100   1.526   1.831   0.890
  184SOL    HW2  101   1.559   1.761   1.034
  186SOL     OW  102   1.450   1.220   1.633
  186SOL    HW1  103   1.441   1.210   1.732
  186SOL    HW2  104   1.546   1.213   1.607
  188SOL     OW  105   1.674   0.883   1.254
  188SOL    HW1  106   1.647   0.794   1.217
  188SOL    HW2  107   1.675   0.951   1.181
  192SOL     OW  108   1.730   0.934   1.517
  192SOL    HW1  109   1.768   1.025   1.532
  192SOL    HW2  110   1.722   0.917   1.418
  197SOL     OW  111   1.861   1.569   0.851
  197SOL    HW1  112   1.790   1.557   0.781
  197SOL    HW2  113   1.862   1.490   0.911
  203SOL     OW  114   1.705   1.487   1.104
  203SOL    HW1  115   1.612   1.462   1.077
  203SOL    HW2  116   1.731   1.437   1.186
  219SOL     OW  117   1.555   1.511   2.565
  219SOL    HW1  118   1.498   1.495   2.646
  219SOL    HW2  119   1.496   1.521   2.485
  221SOL     OW  120   1.755   0.607   2.093
  221SOL    HW1  121   1.743   0.594   1.994
  221SOL    HW2  122   1.725   0.526   2.142
  227SOL     OW  123   1.460   1.505   3.201
  227SOL    HW1  124   1.484   1.599   3.227
  227SOL    HW2  125   1.444   1.451   3.283
  238SOL     OW  126   1.842   1.767   2.221
  238SOL    HW1  127   1.896   1.738   2.301
  238SOL    HW2  128   1.872   1.857   2.192
  240SOL     OW  129   1.689   0.922   2.474
  240SOL    HW1  130   1.784   0.893   2.482
  240SOL    HW2  131   1.681   0.987   2.399
  241SOL     OW  132   1.641   1.108   2.294
  241SOL    HW1  133   1.727   1.110   2.242
  241SOL    HW2  134   1.655   1.155   2.382
  244SOL     OW  135   1.293   1.228   3.285
  244SOL    HW1  136   1.330   1.155   3.227
  244SOL    HW2  137   1.345   1.233   3.370
  247SOL     OW  138   1.525   0.999   2.052
  247SOL    HW1  139   1.462   0.923   2.065
  247SOL    HW2  140   1.573   1.017   2.138
  248SOL     OW  141   1.187   1.792   3.478
  248SOL    HW1  142   1.211   1.852   3.402
  248SOL    HW2  143   1.194   1.697   3.448
  250SOL     OW  144   1.466   1.417   2.815
  250SOL    HW1  145   1.407   1.423   2.895
  250SOL    HW2  146   1.451   1.329   2.769
  251SOL     OW  147   1.667   1.714   2.434
  251SOL    HW1  148   1.626   1.691   2.346
  251SOL    HW2  149   1.649   1.640   2.499
  254SOL     OW  150   1.576   1.662   2.169
  254SOL    HW1  151   1.665   1.708   2.172
  254SOL    HW2  152   1.555   1.638   2.074
  264SOL     OW  153   1.362   1.144   2.407
  264SOL    HW1  154   1.445   1.115   2.359
  264SOL    HW2  155   1.313   1.211   2.351
  266SOL     OW  156   1.008   1.456   2.339
  266SOL    HW1  157   0.962   1.528   2.287
  266SOL    HW2  158   1.004   1.476   2.437
  268SOL     OW  159   1.795   1.066   2.735
  268SOL    HW1  160   1.733   1.051   2.659
  268SOL    HW2  161   1.743   1.077   2.820
  269SOL     OW  162   1.227   1.550   3.368
  269SOL    HW1  163   1.233   1.473   3.432
  269SOL    HW2  164   1.175   1.524   3.288
  271SOL     OW  165   1.458   0.735   2.590
  271SOL    HW1  166   1.453   0.670   2.665
  271SOL    HW2  167   1.538   0.794   2.603
  273SOL     OW  168   1.111   1.776   2.099
  273SOL    HW1  169   1.051   1.714   2.149
  273SOL    HW2  170   1.142   1.732   2.014
  275SOL     OW  171   1.632   1.377   1.943
  275SOL    HW1  172   1.600   1.471   1.933
  275SOL    HW2  173   1.556   1.314   1.931
  279SOL     OW  174   0.940   1.698   2.766
  279SOL    HW1  175   1.020   1.641   2.787
  279SOL    HW2  176   0.891   1.658   2.689
  284SOL     OW  177   0.888   1.514   3.057
  284SOL    HW1  178   0.865   1.489   2.963
  284SOL    HW2  179   0.949   1.445   3.096
  286SOL     OW  180   0.803   1.402   2.786
  286SOL    HW1  181   0.893   1.416   2.744
  286SOL    HW2  182   0.732   1.404   2.715
  289SOL     OW  183   1.434   1.188   1.903
  289SOL    HW1  184   1.466   1.112   1.960
  289SOL    HW2  185   1.342   1.215   1.933
  293SOL     OW  186   1.227   1.570   2.655
  293SOL    HW1  187   1.248   1.644   2.590
  293SOL    HW2  188   1.295   1.570   2.728
  295SOL     OW  189   1.271   1.797   2.453
  295SOL    HW1  190   1.315   1.861   2.389
  295SOL    HW2  191   1.221   1.849   2.523
  301SOL     OW  192   1.429   1.173   2.729
  301SOL    HW1  193   1.374   1.089   2.722
  301SOL    HW2  194   1.455   1.202   2.637
  303SOL     OW  195   1.857   0.833   2.239
  303SOL    HW1  196   1.899   0.769   2.303
  303SOL    HW2  197   1.819   0.782   2.161
  305SOL     OW  198   1.664   1.280   2.519
  305SOL    HW1  199   1.763   1.288   2.533
  305SOL    HW2  200   1.619   1.364   2.550
  308SOL     OW  201   1.754   1.223   3.450
  308SOL    HW1  202   1.845   1.184   3.437
  308SOL    HW2  203   1.762   1.319   3.474
  309SOL     OW  204   1.064   1.347   3.202
  309SOL    HW1  205   0.984   1.324   3.257
  309SOL    HW2  206   1.147   1.321   3.251
  310SOL     OW  207   1.592   1.629   3.487
  310SOL    HW1  208   1.619   1.663   3.397
  310SOL    HW2  209   1.671   1.591   3.533
  311SOL     OW  210   1.111   1.195   2.962
  311SOL    HW1  211   1.071   1.239   3.043
  311SOL    HW2  212   1.070   1.232   2.879
  312SOL     OW  213   1.638   1.099   2.941
  312SOL    HW1  214   1.643   1.180   3.000
  312SOL    HW2  215   1.552   1.101   2.890
  321SOL     OW  216   1.252   1.348   2.250
  321SOL    HW1  217   1.302   1.425   2.290
  321SOL    HW2  218   1.157   1.350   2.282
  322SOL     OW  219   1.272   1.445   3.004
  322SOL    HW1  220   1.319   1.458   3.091
  322SOL    HW2  221   1.206   1.371   3.013
  323SOL     OW  222   1.582   0.639   2.334
  323SOL    HW1  223   1.551   0.700   2.407
  323SOL    HW2  224   1.632   0.691   2.265
  330SOL     OW  225   1.360   0.862   2.907
  330SOL    HW1  226   1.285   0.862   2.841
  330SOL    HW2  227   1.397   0.770   2.916
  340SOL     OW  228   1.859   1.518   3.467
  340SOL    HW1  229   1.873   1.545   3.372
  340SOL    HW2  230   1.942   1.540   3.520
  343SOL     OW  231   1.303   0.838   1.904
  343SOL    HW1  232   1.337   0.745   1.919
  343SOL    HW2  233   1.321   0.865   1.809
  344SOL     OW  234   1.068   1.333   2.711
  344SOL    HW1  235   1.075   1.249   2.656
  344SOL    HW2  236   1.130   1.402   2.675
  360SOL     OW  237   0.930   1.678   3.327
  360SOL    HW1  238   0.906   1.660   3.232
  360SOL    HW2  239   0.960   1.772   3.337
  363SOL     OW  240   1.347   1.059   3.096
  363SOL    HW1  241   1.371   0.996   3.022
  363SOL    HW2  242   1.257   1.099   3.078
  364SOL     OW  243   1.302   0.855   2.171
  364SOL    HW1  244   1.216   0.824   2.213
  364SOL    HW2  245   1.298   0.841   2.072
  365SOL     OW  246   1.759   1.747   3.016
  365SOL    HW1  247   1.820   1.777   2.943
  365SOL    HW2  248   1.721   1.658   2.994
  366SOL     OW  249   1.252   1.731   2.990
  366SOL    HW1  250   1.336   1.736   2.936
  366SOL    HW2  251   1.229   1.635   3.008
  370SOL     OW  252   1.388   1.573   2.339
  370SOL    HW1  253   1.455   1.585   2.265
  370SOL    HW2  254   1.348   1.662   2.362
  372SOL     OW  255   1.280   0.927   2.534
  372SOL    HW1  256   1.340   0.846   2.536
  372SOL    HW2  257   1.320   0.996   2.474
  374SOL     OW  258   0.672   1.616   2.016
  374SOL    HW1  259   0.681   1.626   1.917
  374SOL    HW2  260   0.632   1.527   2.037
  375SOL     OW  261   1.650   1.720   3.256
  375SOL    HW1  262   1.703   1.730   3.172
  375SOL    HW2  263   1.623   1.810   3.290
  378SOL     OW  264   1.194   1.612   1.893
  378SOL    HW1  265   1.200   1.519   1.930
  378SOL    HW2  266   1.135   1.612   1.813
  381SOL     OW  267   1.504   1.607   1.906
  381SOL    HW1  268   1.412   1.644   1.913
  381SOL    HW2  269   1.542   1.627   1.816
  383SOL     OW  270   1.614   1.292   3.151
  383SOL    HW1  271   1.674   1.295   3.231
  383SOL    HW2  272   1.539   1.356   3.164
  384SOL     OW  273   1.039   1.098   2.558
  384SOL    HW1  274   0.969   1.051   2.612
  384SOL    HW2  275   1.098   1.030   2.515
  386SOL     OW  276   0.590   1.487   2.353
  386SOL    HW1  277   0.632   1.429   2.283
  386SOL    HW2  278   0.546   1.566   2.309
  394SOL     OW  279   1.183   1.335   1.981
  394SOL    HW1  280   1.084   1.324   1.983
  394SOL    HW2  281   1.217   1.350   2.074
  396SOL     OW  282   1.493   1.767   2.821
  396SOL    HW1  283   1.526   1.831   2.752
  396SOL    HW2  284   1.559   1.761   2.896
  398SOL     OW  285   1.450   1.220   3.495
  398SOL    HW1  286   1.441   1.210   3.594
  398SOL    HW2  287   1.546   1.213   3.469
  400SOL     OW  288   1.674   0.883   3.116
  400SOL    HW1  289   1.647   0.794   3.079
  400SOL    HW2  290   1.675   0.951   3.043
  404SOL     OW  291   1.730   0.934   3.379
  404SOL    HW1  292   1.768   1.025   3.394
  404SOL    HW2  293   1.722   0.917   3.280
  405SOL     OW  294   0.859   1.374   1.878
  405SOL    HW1  295   0.813   1.389   1.966
  405SOL    HW2  296   0.903   1.459   1.848
  406SOL     OW  297   0.661   1.790   2.815
  406SOL    HW1  298   0.615   1.878   2.802
  406SOL    HW2  299   0.760   1.802   2.808
  408SOL     OW  300   1.083   0.984   1.949
  408SOL    HW1  301   1.060   1.037   1.867
  408SOL    HW2  302   1.164   0.928   1.930
  409SOL     OW  303   1.861   1.569   2.713
  409SOL    HW1  304   1.790   1.557   2.643
  409SOL    HW2  305   1.862   1.490   2.773
  415SOL     OW  306   1.705   1.487   2.966
  415SOL    HW1  307   1.612   1.462   2.939
  415SOL    HW2  308   1.731   1.437   3.048
  417SOL     OW  309   0.812   1.586   2.549
  417SOL    HW1  310   0.844   1.596   2.455
  417SOL    HW2  311   0.733   1.524   2.551
  420SOL     OW  312   0.770   1.330   2.163
  420SOL    HW1  313   0.724   1.243   2.180
  420SOL    HW2  314   0.861   1.327   2.204
  426SOL     OW  315   0.875   1.646   2.199
  426SOL    HW1  316   0.798   1.611   2.145
  426SOL    HW2  317   0.843   1.717   2.261
  513SOL     OW  318   0.850   2.660   1.823
  513SOL    HW1  319   0.846   2.736   1.888
  513SOL    HW2  320   0.872   2.696   1.732
  515SOL     OW  321   0.686   3.023   1.803
  515SOL    HW1  322   0.746   3.102   1.817
  515SOL    HW2  323   0.600   3.054   1.762
  517SOL     OW  324   1.460   3.367   1.339
  517SOL    HW1  325   1.484   3.461   1.365
  517SOL    HW2  326   1.444   3.313   1.421
  519SOL     OW  327   1.603   2.309   0.737
  519SOL    HW1  328   1.529   2.355   0.687
  519SOL    HW2  329   1.654   2.377   0.790
  521SOL     OW  330   1.127   3.203   1.690
  521SOL    HW1  331   1.174   3.203   1.778
  521SOL    HW2  332   1.079   3.116   1.679
  526SOL     OW  333   1.594   1.976   1.480
  526SOL    HW1  334   1.576   2.043   1.408
  526SOL    HW2  335   1.591   2.022   1.569
  530SOL     OW  336   1.689   2.784   0.612
  530SOL    HW1  337   1.784   2.755   0.620
  530SOL    HW2  338   1.681   2.849   0.537
  534SOL     OW  339   1.293   3.090   1.423
  534SOL    HW1  340   1.330   3.017   1.365
  534SOL    HW2  341   1.345   3.095   1.508
  543SOL     OW  342   1.281   2.207   0.944
  543SOL    HW1  343   1.195   2.157   0.931
  543SOL    HW2  344   1.343   2.153   1.000
  545SOL     OW  345   0.807   2.467   1.465
  545SOL    HW1  346   0.760   2.464   1.554
  545SOL    HW2  347   0.756   2.412   1.399
  546SOL     OW  348   1.394   2.331   1.674
  546SOL    HW1  349   1.374   2.374   1.762
  546SOL    HW2  350   1.472   2.269   1.683
  547SOL     OW  351   0.973   2.752   1.572
  547SOL    HW1  352   1.019   2.668   1.543
  547SOL    HW2  353   0.917   2.786   1.497
  548SOL     OW  354   0.991   2.272   1.242
  548SOL    HW1  355   0.914   2.306   1.296
  548SOL    HW2  356   0.957   2.221   1.163
  553SOL     OW  357   1.719   2.447   1.831
  553SOL    HW1  358   1.693   2.536   1.795
  553SOL    HW2  359   1.717   2.379   1.758
  558SOL     OW  360   1.795   2.928   0.873
  558SOL    HW1  361   1.733   2.913   0.797
  558SOL    HW2  362   1.743   2.939   0.958
  559SOL     OW  363   1.227   3.412   1.506
  559SOL    HW1  364   1.233   3.335   1.570
  559SOL    HW2  365   1.175   3.386   1.426
  561SOL     OW  366   1.458   2.597   0.728
  561SOL    HW1  367   1.453   2.532   0.803
  561SOL    HW2  368   1.538   2.656   0.741
  571SOL     OW  369   1.547   2.084   1.729
  571SOL    HW1  370   1.542   2.121   1.821
  571SOL    HW2  371   1.475   2.015   1.717
  573SOL     OW  372   0.781   2.126   1.749
  573SOL    HW1  373   0.848   2.065   1.792
  573SOL    HW2  374   0.708   2.145   1.814
  575SOL     OW  375   1.351   2.452   1.433
  575SOL    HW1  376   1.379   2.409   1.518
  575SOL    HW2  377   1.376   2.548   1.434
  581SOL     OW  378   1.076   2.545   1.464
  581SOL    HW1  379   0.996   2.484   1.467
  581SOL    HW2  380   1.157   2.492   1.440
  590SOL     OW  381   1.429   3.035   0.867
  590SOL    HW1  382   1.374   2.951   0.860
  590SOL    HW2  383   1.455   3.064   0.775
  591SOL     OW  384   1.466   2.452   0.992
  591SOL    HW1  385   1.436   2.357   0.999
  591SOL    HW2  386   1.539   2.468   1.058
  597SOL     OW  387   1.754   3.085   1.588
  597SOL    HW1  388   1.845   3.046   1.575
  597SOL    HW2  389   1.762   3.181   1.612
  598SOL     OW  390   1.064   3.209   1.340
  598SOL    HW1  391   0.984   3.186   1.395
  598SOL    HW2  392   1.147   3.183   1.389
  599SOL     OW  393   1.592   3.491   1.625
  599SOL    HW1  394   1.619   3.525   1.535
  599SOL    HW2  395   1.671   3.453   1.671
  600SOL     OW  396   1.111   3.057   1.100
  600SOL    HW1  397   1.071   3.101   1.181
  600SOL    HW2  398   1.070   3.094   1.017
  601SOL     OW  399   1.638   2.961   1.079
  601SOL    HW1  400   1.643   3.042   1.138
  601SOL    HW2  401   1.552   2.963   1.028
  602SOL     OW  402   0.915   1.951   1.402
  602SOL    HW1  403   0.940   1.931   1.307
  602SOL    HW2  404   0.987   2.007   1.444
  603SOL     OW  405   0.980   2.978   1.719
  603SOL    HW1  406   0.881   2.984   1.729
  603SOL    HW2  407   1.003   2.898   1.663
  606SOL     OW  408   1.274   2.248   1.262
  606SOL    HW1  409   1.295   2.322   1.326
  606SOL    HW2  410   1.185   2.265   1.219
  611SOL     OW  411   1.272   3.307   1.142
  611SOL    HW1  412   1.319   3.320   1.229
  611SOL    HW2  413   1.206   3.233   1.151
  615SOL     OW  414   1.587   2.641   1.670
  615SOL    HW1  415   1.495   2.679   1.665
  615SOL    HW2  416   1.647   2.688   1.605
  616SOL     OW  417   1.013   1.967   1.770
  616SOL    HW1  418   1.019   2.052   1.718
  616SOL    HW2  419   1.045   1.891   1.713
  619SOL     OW  420   1.360   2.724   1.045
  619SOL    HW1  421   1.285   2.724   0.979
  619SOL    HW2  422   1.397   2.632   1.054
  624SOL     OW  423   1.728   2.797   1.854
  624SOL    HW1  424   1.682   2.790   1.765
  624SOL    HW2  425   1.666   2.841   1.920
  627SOL     OW  426   1.023   2.628   0.966
  627SOL    HW1  427   1.038   2.649   1.062
  627SOL    HW2  428   0.993   2.533   0.957
  629SOL     OW  429   1.859   3.380   1.605
  629SOL    HW1  430   1.873   3.407   1.510
  629SOL    HW2  431   1.942   3.402   1.658
  636SOL     OW  432   1.138   2.242   1.678
  636SOL    HW1  433   1.093   2.305   1.742
  636SOL    HW2  434   1.231   2.273   1.661
  637SOL     OW  435   1.160   2.069   1.477
  637SOL    HW1  436   1.160   2.133   1.554
  637SOL    HW2  437   1.188   2.117   1.394
  641SOL     OW  438   1.002   2.658   1.238
  641SOL    HW1  439   1.043   2.626   1.324
  641SOL    HW2  440   0.906   2.631   1.235
  644SOL     OW  441   1.369   2.812   1.660
  644SOL    HW1  442   1.408   2.901   1.680
  644SOL    HW2  443   1.379   2.792   1.563
  646SOL     OW  444   1.657   2.466   1.206
  646SOL    HW1  445   1.619   2.397   1.268
  646SOL    HW2  446   1.739   2.430   1.162
  652SOL     OW  447   1.347   2.921   1.234
  652SOL    HW1  448   1.371   2.858   1.160
  652SOL    HW2  449   1.257   2.961   1.216
  659SOL     OW  450   1.726   1.997   0.523
  659SOL    HW1  451   1.799   1.980   0.456
  659SOL    HW2  452   1.695   1.910   0.561
  665SOL     OW  453   1.650   3.582   1.394
  665SOL    HW1  454   1.703   3.592   1.310
  665SOL    HW2  455   1.623   3.672   1.428
  666SOL     OW  456   1.841   2.037   0.963
  666SOL    HW1  457   1.880   1.952   0.927
  666SOL    HW2  458   1.743   2.039   0.944
  669SOL     OW  459   0.822   2.864   1.372
  669SOL    HW1  460   0.862   2.863   1.280
  669SOL    HW2  461   0.832   2.956   1.412
  673SOL     OW  462   1.614   3.154   1.289
  673SOL    HW1  463   1.674   3.157   1.369
  673SOL    HW2  464   1.539   3.218   1.302
  675SOL     OW  465   1.014   2.098   0.971
  675SOL    HW1  466   1.006   2.062   0.878
  675SOL    HW2  467   1.012   2.022   1.036
  677SOL     OW  468   1.709   2.247   1.381
  677SOL    HW1  469   1.782   2.316   1.385
  677SOL    HW2  470   1.737   2.172   1.322
  680SOL     OW  471   0.672   2.065   1.489
  680SOL    HW1  472   0.762   2.049   1.449
  680SOL    HW2  473   0.680   2.070   1.588
  682SOL     OW  474   1.440   2.718   1.398
  682SOL    HW1  475   1.383   2.770   1.335
  682SOL    HW2  476   1.536   2.730   1.374
  687SOL     OW  477   0.716   2.427   1.708
  687SOL    HW1  478   0.735   2.492   1.782
  687SOL    HW2  479   0.776   2.347   1.717
  688SOL     OW  480   1.450   3.082   1.633
  688SOL    HW1  481   1.441   3.072   1.732
  688SOL    HW2  482   1.546   3.075   1.607
  690SOL     OW  483   1.674   2.745   1.254
  690SOL    HW1  484   1.647   2.656   1.217
  690SOL    HW2  485   1.675   2.813   1.181
  693SOL     OW  486   1.777   2.204   1.642
  693SOL    HW1  487   1.760   2.235   1.548
  693SOL    HW2  488   1.693   2.167   1.680
  694SOL     OW  489   1.730   2.796   1.517
  694SOL    HW1  490   1.768   2.887   1.532
  694SOL    HW2  491   1.722   2.779   1.418
  703SOL     OW  492   1.824   2.054   1.227
  703SOL    HW1  493   1.820   1.964   1.271
  703SOL    HW2  494   1.827   2.043   1.128
  705SOL     OW  495   1.705   3.349   1.104
  705SOL    HW1  496   1.612   3.324   1.077
  705SOL    HW2  497   1.731   3.299   1.186
  708SOL     OW  498   1.424   2.076   1.112
  708SOL    HW1  499   1.476   2.011   1.167
  708SOL    HW2  500   1.375   2.139   1.173
  709SOL     OW  501   1.001   1.896   1.154
  709SOL    HW1  502   0.938   1.824   1.123
  709SOL    HW2  503   1.094   1.860   1.154
  713SOL     OW  504   1.300   2.315   0.691
  713SOL    HW1  505   1.241   2.395   0.695
  713SOL    HW2  506   1.315   2.280   0.784
  714SOL     OW  507   1.593   2.083   0.882
  714SOL    HW1  508   1.509   2.082   0.936
  714SOL    HW2  509   1.595   2.166   0.826
  721SOL     OW  510   1.555   3.373   2.565
  721SOL    HW1  511   1.498   3.357   2.646
  721SOL    HW2  512   1.496   3.383   2.485
  722SOL     OW  513   1.135   2.565   2.579
  722SOL    HW1  514   1.192   2.643   2.554
  722SOL    HW2  515   1.075   2.591   2.655
  723SOL     OW  516   1.755   2.469   2.093
  723SOL    HW1  517   1.743   2.456   1.994
  723SOL    HW2  518   1.725   2.388   2.142
  724SOL     OW  519   0.768   3.006   2.885
  724SOL    HW1  520   0.690   3.023   2.945
  724SOL    HW2  521   0.802   3.093   2.849
  726SOL     OW  522   0.685   2.874   2.527
  726SOL    HW1  523   0.754   2.858   2.597
  726SOL    HW2  524   0.612   2.931   2.565
  729SOL     OW  525   1.460   3.367   3.201
  729SOL    HW1  526   1.484   3.461   3.227
  729SOL    HW2  527   1.444   3.313   3.283
  731SOL     OW  528   1.603   2.309   2.599
  731SOL    HW1  529   1.529   2.355   2.549
  731SOL    HW2  530   1.654   2.377   2.652
  737SOL     OW  531   0.606   2.826   1.985
  737SOL    HW1  532   0.613   2.910   1.931
  737SOL    HW2  533   0.652   2.839   2.073
  738SOL     OW  534   1.594   1.976   3.342
  738SOL    HW1  535   1.576   2.043   3.270
  738SOL    HW2  536   1.591   2.022   3.431
  740SOL     OW  537   1.842   3.629   2.221
  740SOL    HW1  538   1.896   3.600   2.301
  740SOL    HW2  539   1.872   3.719   2.192
  742SOL     OW  540   1.689   2.784   2.474
  742SOL    HW1  541   1.784   2.755   2.482
  742SOL    HW2  542   1.681   2.849   2.399
  743SOL     OW  543   1.641   2.970   2.294
  743SOL    HW1  544   1.727   2.972   2.242
  743SOL    HW2  545   1.655   3.017   2.382
  746SOL     OW  546   1.293   3.090   3.285
  746SOL    HW1  547   1.330   3.017   3.227
  746SOL    HW2  548   1.345   3.095   3.370
  747SOL     OW  549   0.809   1.866   2.364
  747SOL    HW1  550   0.849   1.957   2.355
  747SOL    HW2  551   0.709   1.874   2.370
  749SOL     OW  552   1.525   2.861   2.052
  749SOL    HW1  553   1.462   2.785   2.065
  749SOL    HW2  554   1.573   2.879   2.138
  752SOL     OW  555   1.466   3.279   2.815
  752SOL    HW1  556   1.407   3.285   2.895
  752SOL    HW2  557   1.451   3.191   2.769
  753SOL     OW  558   1.667   3.576   2.434
  753SOL    HW1  559   1.626   3.553   2.346
  753SOL    HW2  560   1.649   3.502   2.499
  754SOL     OW  561   0.598   2.591   2.132
  754SOL    HW1  562   0.622   2.660   2.064
  754SOL    HW2  563   0.520   2.624   2.186
  755SOL     OW  564   1.281   2.207   2.806
  755SOL    HW1  565   1.195   2.157   2.793
  755SOL    HW2  566   1.343   2.153   2.862
  756SOL     OW  567   1.576   3.524   2.169
  756SOL    HW1  568   1.665   3.570   2.172
  756SOL    HW2  569   1.555   3.500   2.074
  758SOL     OW  570   1.394   2.331   3.536
  758SOL    HW1  571   1.374   2.374   3.624
  758SOL    HW2  572   1.472   2.269   3.545
  760SOL     OW  573   0.991   2.272   3.104
  760SOL    HW1  574   0.914   2.306   3.158
  760SOL    HW2  575   0.957   2.221   3.025
  761SOL     OW  576   1.041   2.563   2.291
  761SOL    HW1  577   1.067   2.559   2.387
  761SOL    HW2  578   0.956   2.512   2.277
  764SOL     OW  579   0.865   2.210   2.057
  764SOL    HW1  580   0.924   2.273   2.008
  764SOL    HW2  581   0.884   2.116   2.028
  765SOL     OW  582   1.719   2.447   3.693
  765SOL    HW1  583   1.693   2.536   3.657
  765SOL    HW2  584   1.717   2.379   3.620
  766SOL     OW  585   1.362   3.006   2.407
  766SOL    HW1  586   1.445   2.977   2.359
  766SOL    HW2  587   1.313   3.073   2.351
  767SOL     OW  588   0.550   2.058   2.747
  767SOL    HW1  589   0.545   2.053   2.847
  767SOL    HW2  590   0.552   2.154   2.718
  768SOL     OW  591   1.008   3.318   2.339
  768SOL    HW1  592   0.962   3.390   2.287
  768SOL    HW2  593   1.004   3.338   2.437
  770SOL     OW  594   1.795   2.928   2.735
  770SOL    HW1  595   1.733   2.913   2.659
  770SOL    HW2  596   1.743   2.939   2.820
  773SOL     OW  597   1.458   2.597   2.590
  773SOL    HW1  598   1.453   2.532   2.665
  773SOL    HW2  599   1.538   2.656   2.603
  777SOL     OW  600   1.632   3.239   1.943
  777SOL    HW1  601   1.600   3.333   1.933
  777SOL    HW2  602   1.556   3.176   1.931
  779SOL     OW  603   1.400   1.969   2.288
  779SOL    HW1  604   1.376   1.932   2.198
  779SOL    HW2  605   1.499   1.985   2.292
  783SOL     OW  606   1.547   2.084   3.591
  783SOL    HW1  607   1.542   2.121   3.683
  783SOL    HW2  608   1.475   2.015   3.579
  784SOL     OW  609   0.614   1.984   1.979
  784SOL    HW1  610   0.712   1.962   1.986
  784SOL    HW2  611   0.583   1.967   1.886
  787SOL     OW  612   1.351   2.452   3.295
  787SOL    HW1  613   1.379   2.409   3.380
  787SOL    HW2  614   1.376   2.548   3.296
  789SOL     OW  615   0.922   2.365   2.761
  789SOL    HW1  616   0.897   2.356   2.665
  789SOL    HW2  617   0.970   2.283   2.792
  790SOL     OW  618   0.539   1.926   2.374
  790SOL    HW1  619   0.458   1.927   2.432
  790SOL    HW2  620   0.542   2.009   2.319
  791SOL     OW  621   1.434   3.050   1.903
  791SOL    HW1  622   1.466   2.974   1.960
  791SOL    HW2  623   1.342   3.077   1.933
  793SOL     OW  624   0.935   2.098   2.342
  793SOL    HW1  625   0.887   2.139   2.264
  793SOL    HW2  626   1.034   2.096   2.323
  794SOL     OW  627   1.076   2.545   3.326
  794SOL    HW1  628   0.996   2.484   3.329
  794SOL    HW2  629   1.157   2.492   3.302
  795SOL     OW  630   1.227   3.432   2.655
  795SOL    HW1  631   1.248   3.506   2.590
  795SOL    HW2  632   1.295   3.432   2.728
  797SOL     OW  633   1.271   3.659   2.453
  797SOL    HW1  634   1.315   3.723   2.389
  797SOL    HW2  635   1.221   3.711   2.523
  798SOL     OW  636   1.032   2.411   1.878
  798SOL    HW1  637   0.991   2.493   1.839
  798SOL    HW2  638   1.096   2.437   1.951
  801SOL     OW  639   0.866   2.316   2.504
  801SOL    HW1  640   0.834   2.388   2.442
  801SOL    HW2  641   0.890   2.235   2.451
  802SOL     OW  642   1.017   1.901   2.615
  802SOL    HW1  643   0.945   1.906   2.546
  802SOL    HW2  644   0.993   1.832   2.684
  803SOL     OW  645   1.429   3.035   2.729
  803SOL    HW1  646   1.374   2.951   2.722
  803SOL    HW2  647   1.455   3.064   2.637
  804SOL     OW  648   1.466   2.452   2.854
  804SOL    HW1  649   1.436   2.357   2.861
  804SOL    HW2  650   1.539   2.468   2.920
  805SOL     OW  651   1.857   2.695   2.239
  805SOL    HW1  652   1.899   2.631   2.303
  805SOL    HW2  653   1.819   2.644   2.161
  807SOL     OW  654   1.664   3.142   2.519
  807SOL    HW1  655   1.763   3.150   2.533
  807SOL    HW2  656   1.619   3.226   2.550
  808SOL     OW  657   1.390   2.437   1.940
  808SOL    HW1  658   1.336   2.416   2.021
  808SOL    HW2  659   1.481   2.396   1.949
  809SOL     OW  660   0.527   2.118   2.190
  809SOL    HW1  661   0.554   2.059   2.115
  809SOL    HW2  662   0.527   2.213   2.159
  810SOL     OW  663   1.754   3.085   3.450
  810SOL    HW1  664   1.845   3.046   3.437
  810SOL    HW2  665   1.762   3.181   3.474
  813SOL     OW  666   1.111   3.057   2.962
  813SOL    HW1  667   1.071   3.101   3.043
  813SOL    HW2  668   1.070   3.094   2.879
  814SOL     OW  669   1.638   2.961   2.941
  814SOL    HW1  670   1.643   3.042   3.000
  814SOL    HW2  671   1.552   2.963   2.890
  815SOL     OW  672   0.915   1.951   3.264
  815SOL    HW1  673   0.940   1.931   3.169
  815SOL    HW2  674   0.987   2.007   3.306
  817SOL     OW  675   0.705   2.912   2.230
  817SOL    HW1  676   0.691   2.919   2.329
  817SOL    HW2  677   0.789   2.861   2.212
  819SOL     OW  678   1.274   2.248   3.124
  819SOL    HW1  679   1.295   2.322   3.188
  819SOL    HW2  680   1.185   2.265   3.081
  822SOL     OW  681   0.566   2.399   2.727
  822SOL    HW1  682   0.578   2.465   2.653
  822SOL    HW2  683   0.612   2.433   2.810
  823SOL     OW  684   1.252   3.210   2.250
  823SOL    HW1  685   1.302   3.287   2.290
  823SOL    HW2  686   1.157   3.212   2.282
  824SOL     OW  687   1.272   3.307   3.004
  824SOL    HW1  688   1.319   3.320   3.091
  824SOL    HW2  689   1.206   3.233   3.013
  825SOL     OW  690   1.582   2.501   2.334
  825SOL    HW1  691   1.551   2.562   2.407
  825SOL    HW2  692   1.632   2.553   2.265
  828SOL     OW  693   1.587   2.641   3.532
  828SOL    HW1  694   1.495   2.679   3.527
  828SOL    HW2  695   1.647   2.688   3.467
  832SOL     OW  696   1.360   2.724   2.907
  832SOL    HW1  697   1.285   2.724   2.841
  832SOL    HW2  698   1.397   2.632   2.916
  833SOL     OW  699   1.209   2.387   2.137
  833SOL    HW1  700   1.222   2.303   2.191
  833SOL    HW2  701   1.180   2.461   2.197
  836SOL     OW  702   0.732   2.496   2.926
  836SOL    HW1  703   0.791   2.470   2.850
  836SOL    HW2  704   0.704   2.592   2.915
  837SOL     OW  705   1.728   2.797   3.716
  837SOL    HW1  706   1.682   2.790   3.627
  837SOL    HW2  707   1.666   2.841   3.782
  839SOL     OW  708   1.622   2.229   2.236
  839SOL    HW1  709   1.624   2.153   2.300
  839SOL    HW2  710   1.574   2.306   2.276
  840SOL     OW  711   1.023   2.628   2.828
  840SOL    HW1  712   1.038   2.649   2.924
  840SOL    HW2  713   0.993   2.533   2.819
  842SOL     OW  714   1.859   3.380   3.467
  842SOL    HW1  715   1.873   3.407   3.372
  842SOL    HW2  716   1.942   3.402   3.520
  844SOL     OW  717   1.540   2.136   1.987
  844SOL    HW1  718   1.479   2.061   2.010
  844SOL    HW2  719   1.562   2.188   2.070
  845SOL     OW  720   1.303   2.700   1.904
  845SOL    HW1  721   1.337   2.607   1.919
  845SOL    HW2  722   1.321   2.727   1.809
  846SOL     OW  723   1.068   3.195   2.711
  846SOL    HW1  724   1.075   3.111   2.656
  846SOL    HW2  725   1.130   3.264   2.675
  849SOL     OW  726   1.138   2.242   3.540
  849SOL    HW1  727   1.093   2.305   3.604
  849SOL    HW2  728   1.231   2.273   3.523
  850SOL     OW  729   1.160   2.069   3.339
  850SOL    HW1  730   1.160   2.133   3.416
  850SOL    HW2  731   1.188   2.117   3.256
  854SOL     OW  732   1.002   2.658   3.100
  854SOL    HW1  733   1.043   2.626   3.186
  854SOL    HW2  734   0.906   2.631   3.097
  857SOL     OW  735   1.369   2.812   3.522
  857SOL    HW1  736   1.408   2.901   3.542
  857SOL    HW2  737   1.379   2.792   3.425
  858SOL     OW  738   0.815   2.434   2.187
  858SOL    HW1  739   0.822   2.345   2.141
  858SOL    HW2  740   0.721   2.468   2.179
  859SOL     OW  741   1.657   2.466   3.068
  859SOL    HW1  742   1.619   2.397   3.130
  859SOL    HW2  743   1.739   2.430   3.024
  861SOL     OW  744   0.671   2.326   3.131
  861SOL    HW1  745   0.637   2.237   3.101
  861SOL    HW2  746   0.697   2.380   3.051
  863SOL     OW  747   0.473   2.362   2.053
  863SOL    HW1  748   0.534   2.442   2.057
  863SOL    HW2  749   0.378   2.393   2.060
  865SOL     OW  750   1.347   2.921   3.096
  865SOL    HW1  751   1.371   2.858   3.022
  865SOL    HW2  752   1.257   2.961   3.078
  866SOL     OW  753   1.302   2.717   2.171
  866SOL    HW1  754   1.216   2.686   2.213
  866SOL    HW2  755   1.298   2.703   2.072
  867SOL     OW  756   1.759   3.609   3.016
  867SOL    HW1  757   1.820   3.639   2.943
  867SOL    HW2  758   1.721   3.520   2.994
  871SOL     OW  759   1.726   1.997   2.385
  871SOL    HW1  760   1.799   1.980   2.318
  871SOL    HW2  761   1.695   1.910   2.423
  872SOL     OW  762   1.388   3.435   2.339
  872SOL    HW1  763   1.455   3.447   2.265
  872SOL    HW2  764   1.348   3.524   2.362
  874SOL     OW  765   1.280   2.789   2.534
  874SOL    HW1  766   1.340   2.708   2.536
  874SOL    HW2  767   1.320   2.858   2.474
  878SOL     OW  768   1.841   2.037   2.825
  878SOL    HW1  769   1.880   1.952   2.789
  878SOL    HW2  770   1.743   2.039   2.806
  880SOL     OW  771   1.194   3.474   1.893
  880SOL    HW1  772   1.200   3.381   1.930
  880SOL    HW2  773   1.135   3.474   1.813
  882SOL     OW  774   0.916   2.772   2.153
  882SOL    HW1  775   0.979   2.810   2.085
  882SOL    HW2  776   0.956   2.689   2.192
  883SOL     OW  777   1.504   3.469   1.906
  883SOL    HW1  778   1.412   3.506   1.913
  883SOL    HW2  779   1.542   3.489   1.816
  885SOL     OW  780   1.614   3.154   3.151
  885SOL    HW1  781   1.674   3.157   3.231
  885SOL    HW2  782   1.539   3.218   3.164
  886SOL     OW  783   1.039   2.960   2.558
  886SOL    HW1  784   0.969   2.913   2.612
  886SOL    HW2  785   1.098   2.892   2.515
  887SOL     OW  786   1.014   2.098   2.833
  887SOL    HW1  787   1.006   2.062   2.740
  887SOL    HW2  788   1.012   2.022   2.898
  889SOL     OW  789   1.709   2.247   3.243
  889SOL    HW1  790   1.782   2.316   3.247
  889SOL    HW2  791   1.737   2.172   3.184
  894SOL     OW  792   1.440   2.718   3.260
  894SOL    HW1  793   1.383   2.770   3.197
  894SOL    HW2  794   1.536   2.730   3.236
  896SOL     OW  795   1.183   3.197   1.981
  896SOL    HW1  796   1.084   3.186   1.983
  896SOL    HW2  797   1.217   3.212   2.074
  898SOL     OW  798   1.493   3.629   2.821
  898SOL    HW1  799   1.526   3.693   2.752
  898SOL    HW2  800   1.559   3.623   2.896
  900SOL     OW  801   1.450   3.082   3.495
  900SOL    HW1  802   1.441   3.072   3.594
  900SOL    HW2  803   1.546   3.075   3.469
  902SOL     OW  804   1.674   2.745   3.116
  902SOL    HW1  805   1.647   2.656   3.079
  902SOL    HW2  806   1.675   2.813   3.043
  903SOL     OW  807   1.225   2.187   2.311
  903SOL    HW1  808   1.290   2.113   2.300
  903SOL    HW2  809   1.245   2.237   2.395
  904SOL     OW  810   0.594   2.607   2.514
  904SOL    HW1  811   0.644   2.692   2.495
  904SOL    HW2  812   0.506   2.609   2.466
  905SOL     OW  813   1.777   2.204   3.504
  905SOL    HW1  814   1.760   2.235   3.410
  905SOL    HW2  815   1.693   2.167   3.542
  906SOL     OW  816   1.730   2.796   3.379
  906SOL    HW1  817   1.768   2.887   3.394
  906SOL    HW2  818   1.722   2.779   3.280
  907SOL     OW  819   0.859   3.236   1.878
  907SOL    HW1  820   0.813   3.251   1.966
  907SOL    HW2  821   0.903   3.321   1.848
  909SOL     OW  822   0.859   2.818   2.723
  909SOL    HW1  823   0.913   2.749   2.771
  909SOL    HW2  824   0.827   2.887   2.789
  910SOL     OW  825   1.083   2.846   1.949
  910SOL    HW1  826   1.060   2.899   1.867
  910SOL    HW2  827   1.164   2.790   1.930
  911SOL     OW  828   1.861   3.431   2.713
  911SOL    HW1  829   1.790   3.419   2.643
  911SOL    HW2  830   1.862   3.352   2.773
  915SOL     OW  831   1.824   2.054   3.089
  915SOL    HW1  832   1.820   1.964   3.133
  915SOL    HW2  833   1.827   2.043   2.990
  916SOL     OW  834   0.428   2.286   2.382
  916SOL    HW1  835   0.458   2.214   2.320
  916SOL    HW2  836   0.389   2.246   2.465
  917SOL     OW  837   1.705   3.349   2.966
  917SOL    HW1  838   1.612   3.324   2.939
  917SOL    HW2  839   1.731   3.299   3.048
  920SOL     OW  840   1.424   2.076   2.974
  920SOL    HW1  841   1.476   2.011   3.029
  920SOL    HW2  842   1.375   2.139   3.035
  921SOL     OW  843   1.001   1.896   3.016
  921SOL    HW1  844   0.938   1.824   2.985
  921SOL    HW2  845   1.094   1.860   3.016
  922SOL     OW  846   0.770   3.192   2.163
  922SOL    HW1  847   0.724   3.105   2.180
  922SOL    HW2  848   0.861   3.189   2.204
  924SOL     OW  849   1.352   1.914   2.030
  924SOL    HW1  850   1.387   1.873   1.946
  924SOL    HW2  851   1.262   1.876   2.050
  925SOL     OW  852   1.300   2.315   2.553
  925SOL    HW1  853   1.241   2.395   2.557
  925SOL    HW2  854   1.315   2.280   2.646
  926SOL     OW  855   1.593   2.083   2.744
  926SOL    HW1  856   1.509   2.082   2.798
  926SOL    HW2  857   1.595   2.166   2.688
  977SOL     OW  858   1.540   2.136   3.849
  977SOL    HW1  859   1.479   2.061   3.872
  977SOL    HW2  860   1.562   2.188   3.932
 1148SOL     OW  861   1.726   3.859   2.385
 1148SOL    HW1  862   1.799   3.842   2.318
 1148SOL    HW2  863   1.695   3.772   2.423
 1166SOL     OW  864   1.352   3.776   2.030
 1166SOL    HW1  865   1.387   3.735   1.946
 1166SOL    HW2  866   1.262   3.738   2.050
 1204SOL     OW  867   2.431   1.275   1.165
 1204SOL    HW1  868   2.338   1.268   1.128
 1204SOL    HW2  869   2.442   1.364   1.209
 1208SOL     OW  870   2.630   1.144   1.023
 1208SOL    HW1  871   2.552   1.161   1.083
 1208SOL    HW2  872   2.664   1.231   0.987
 1209SOL     OW  873   2.712   0.798   1.823
 1209SOL    HW1  874   2.708   0.874   1.888
 1209SOL    HW2  875   2.734   0.834   1.732
 1211SOL     OW  876   2.548   1.161   1.803
 1211SOL    HW1  877   2.608   1.240   1.817
 1211SOL    HW2  878   2.462   1.192   1.762
 1212SOL     OW  879   2.197   1.435   1.061
 1212SOL    HW1  880   2.119   1.404   1.008
 1212SOL    HW2  881   2.255   1.493   1.004
 1213SOL     OW  882   3.322   1.505   1.339
 1213SOL    HW1  883   3.346   1.599   1.365
 1213SOL    HW2  884   3.306   1.451   1.421
 1217SOL     OW  885   2.989   1.341   1.690
 1217SOL    HW1  886   3.036   1.341   1.778
 1217SOL    HW2  887   2.941   1.254   1.679
 1219SOL     OW  888   2.102   1.091   0.886
 1219SOL    HW1  889   2.116   1.007   0.938
 1219SOL    HW2  890   2.047   1.155   0.941
 1220SOL     OW  891   2.482   1.786   1.439
 1220SOL    HW1  892   2.390   1.769   1.474
 1220SOL    HW2  893   2.510   1.878   1.465
 1228SOL     OW  894   1.975   0.737   1.597
 1228SOL    HW1  895   2.063   0.724   1.642
 1228SOL    HW2  896   1.962   0.834   1.575
 1229SOL     OW  897   2.475   1.365   0.726
 1229SOL    HW1  898   2.426   1.278   0.735
 1229SOL    HW2  899   2.452   1.408   0.639
 1230SOL     OW  900   3.155   1.228   1.423
 1230SOL    HW1  901   3.192   1.155   1.365
 1230SOL    HW2  902   3.207   1.233   1.508
 1232SOL     OW  903   2.059   0.976   1.264
 1232SOL    HW1  904   2.148   0.931   1.250
 1232SOL    HW2  905   1.986   0.911   1.245
 1234SOL     OW  906   3.049   1.792   1.616
 1234SOL    HW1  907   3.073   1.852   1.540
 1234SOL    HW2  908   3.056   1.697   1.586
 1243SOL     OW  909   2.835   0.890   1.572
 1243SOL    HW1  910   2.881   0.806   1.543
 1243SOL    HW2  911   2.779   0.924   1.497
 1247SOL     OW  912   1.992   1.821   1.571
 1247SOL    HW1  913   1.982   1.806   1.670
 1247SOL    HW2  914   1.906   1.857   1.535
 1253SOL     OW  915   2.213   1.801   0.853
 1253SOL    HW1  916   2.263   1.715   0.859
 1253SOL    HW2  917   2.278   1.878   0.850
 1255SOL     OW  918   3.089   1.550   1.506
 1255SOL    HW1  919   3.095   1.473   1.570
 1255SOL    HW2  920   3.037   1.524   1.426
 1258SOL     OW  921   2.323   1.266   1.727
 1258SOL    HW1  922   2.273   1.267   1.641
 1258SOL    HW2  923   2.260   1.248   1.803
 1264SOL     OW  924   2.111   1.785   1.241
 1264SOL    HW1  925   2.168   1.720   1.291
 1264SOL    HW2  926   2.095   1.752   1.148
 1265SOL     OW  927   2.802   1.698   0.904
 1265SOL    HW1  928   2.882   1.641   0.925
 1265SOL    HW2  929   2.753   1.658   0.827
 1270SOL     OW  930   2.750   1.514   1.195
 1270SOL    HW1  931   2.727   1.489   1.101
 1270SOL    HW2  932   2.811   1.445   1.234
 1272SOL     OW  933   2.665   1.402   0.924
 1272SOL    HW1  934   2.755   1.416   0.882
 1272SOL    HW2  935   2.594   1.404   0.853
 1279SOL     OW  936   3.089   1.570   0.793
 1279SOL    HW1  937   3.110   1.644   0.728
 1279SOL    HW2  938   3.157   1.570   0.866
 1295SOL     OW  939   2.926   1.347   1.340
 1295SOL    HW1  940   2.846   1.324   1.395
 1295SOL    HW2  941   3.009   1.321   1.389
 1296SOL     OW  942   3.454   1.629   1.625
 1296SOL    HW1  943   3.481   1.663   1.535
 1296SOL    HW2  944   3.533   1.591   1.671
 1297SOL     OW  945   2.973   1.195   1.100
 1297SOL    HW1  946   2.933   1.239   1.181
 1297SOL    HW2  947   2.932   1.232   1.017
 1300SOL     OW  948   2.842   1.116   1.719
 1300SOL    HW1  949   2.743   1.122   1.729
 1300SOL    HW2  950   2.865   1.036   1.663
 1302SOL     OW  951   2.272   0.813   1.251
 1302SOL    HW1  952   2.358   0.825   1.301
 1302SOL    HW2  953   2.230   0.726   1.278
 1304SOL     OW  954   1.926   1.564   1.331
 1304SOL    HW1  955   1.880   1.646   1.297
 1304SOL    HW2  956   2.024   1.583   1.340
 1308SOL     OW  957   3.134   1.445   1.142
 1308SOL    HW1  958   3.181   1.458   1.229
 1308SOL    HW2  959   3.068   1.371   1.151
 1310SOL     OW  960   2.216   1.510   1.329
 1310SOL    HW1  961   2.195   1.466   1.242
 1310SOL    HW2  962   2.313   1.536   1.332
 1311SOL     OW  963   2.264   0.751   1.598
 1311SOL    HW1  964   2.332   0.806   1.551
 1311SOL    HW2  965   2.304   0.663   1.625
 1319SOL     OW  966   1.899   1.310   1.282
 1319SOL    HW1  967   1.952   1.261   1.350
 1319SOL    HW2  968   1.921   1.408   1.287
 1325SOL     OW  969   2.842   1.573   1.700
 1325SOL    HW1  970   2.822   1.617   1.612
 1325SOL    HW2  971   2.881   1.482   1.684
 1326SOL     OW  972   3.721   1.518   1.605
 1326SOL    HW1  973   3.735   1.545   1.510
 1326SOL    HW2  974   3.804   1.540   1.658
 1327SOL     OW  975   2.212   0.898   1.804
 1327SOL    HW1  976   2.288   0.942   1.852
 1327SOL    HW2  977   2.247   0.851   1.722
 1330SOL     OW  978   2.930   1.333   0.849
 1330SOL    HW1  979   2.937   1.249   0.794
 1330SOL    HW2  980   2.992   1.402   0.813
 1336SOL     OW  981   1.950   1.801   0.927
 1336SOL    HW1  982   1.908   1.715   0.900
 1336SOL    HW2  983   2.044   1.804   0.893
 1337SOL     OW  984   2.366   1.568   0.910
 1337SOL    HW1  985   2.432   1.642   0.919
 1337SOL    HW2  986   2.410   1.489   0.868
 1340SOL     OW  987   2.051   0.520   1.722
 1340SOL    HW1  988   2.110   0.480   1.652
 1340SOL    HW2  989   1.993   0.591   1.681
 1341SOL     OW  990   3.231   0.950   1.660
 1341SOL    HW1  991   3.270   1.039   1.680
 1341SOL    HW2  992   3.241   0.930   1.563
 1344SOL     OW  993   2.114   1.564   1.744
 1344SOL    HW1  994   2.084   1.621   1.820
 1344SOL    HW2  995   2.107   1.467   1.770
 1346SOL     OW  996   2.792   1.678   1.465
 1346SOL    HW1  997   2.768   1.660   1.370
 1346SOL    HW2  998   2.822   1.772   1.475
 1348SOL     OW  999   2.021   1.137   1.466
 1348SOL    HW1 1000   2.043   1.076   1.542
 1348SOL    HW2 1001   2.031   1.088   1.380
 1352SOL     OW 1002   3.114   1.731   1.128
 1352SOL    HW1 1003   3.198   1.736   1.074
 1352SOL    HW2 1004   3.091   1.635   1.146
 1353SOL     OW 1005   1.945   1.258   1.022
 1353SOL    HW1 1006   1.940   1.257   1.122
 1353SOL    HW2 1007   1.862   1.217   0.984
 1354SOL     OW 1008   2.550   1.662   1.716
 1354SOL    HW1 1009   2.494   1.743   1.725
 1354SOL    HW2 1010   2.602   1.666   1.630
 1358SOL     OW 1011   1.992   1.794   1.851
 1358SOL    HW1 1012   1.951   1.720   1.904
 1358SOL    HW2 1013   2.056   1.845   1.909
 1360SOL     OW 1014   2.692   1.273   1.422
 1360SOL    HW1 1015   2.687   1.306   1.517
 1360SOL    HW2 1016   2.606   1.292   1.376
 1362SOL     OW 1017   3.512   1.720   1.394
 1362SOL    HW1 1018   3.565   1.730   1.310
 1362SOL    HW2 1019   3.485   1.810   1.428
 1366SOL     OW 1020   2.684   1.002   1.372
 1366SOL    HW1 1021   2.724   1.001   1.280
 1366SOL    HW2 1022   2.694   1.094   1.412
 1369SOL     OW 1023   2.234   1.288   1.490
 1369SOL    HW1 1024   2.221   1.381   1.456
 1369SOL    HW2 1025   2.150   1.236   1.477
 1376SOL     OW 1026   1.967   1.013   1.726
 1376SOL    HW1 1027   1.890   0.980   1.780
 1376SOL    HW2 1028   2.052   0.983   1.768
 1381SOL     OW 1029   2.475   0.842   1.431
 1381SOL    HW1 1030   2.531   0.923   1.414
 1381SOL    HW2 1031   2.534   0.762   1.434
 1382SOL     OW 1032   3.355   1.767   0.959
 1382SOL    HW1 1033   3.388   1.831   0.890
 1382SOL    HW2 1034   3.421   1.761   1.034
 1383SOL     OW 1035   2.578   0.565   1.708
 1383SOL    HW1 1036   2.597   0.630   1.782
 1383SOL    HW2 1037   2.638   0.485   1.717
 1384SOL     OW 1038   3.312   1.220   1.633
 1384SOL    HW1 1039   3.303   1.210   1.732
 1384SOL    HW2 1040   3.408   1.213   1.607
 1385SOL     OW 1041   2.252   1.741   1.560
 1385SOL    HW1 1042   2.161   1.782   1.558
 1385SOL    HW2 1043   2.245   1.647   1.592
 1392SOL     OW 1044   2.523   1.790   0.953
 1392SOL    HW1 1045   2.477   1.878   0.940
 1392SOL    HW2 1046   2.622   1.802   0.946
 1396SOL     OW 1047   2.083   1.314   1.844
 1396SOL    HW1 1048   2.018   1.241   1.823
 1396SOL    HW2 1049   2.087   1.328   1.942
 1398SOL     OW 1050   2.534   1.391   1.624
 1398SOL    HW1 1051   2.456   1.341   1.662
 1398SOL    HW2 1052   2.531   1.486   1.655
 1403SOL     OW 1053   2.674   1.586   0.687
 1403SOL    HW1 1054   2.706   1.596   0.593
 1403SOL    HW2 1055   2.595   1.524   0.689
 1407SOL     OW 1056   2.480   1.567   1.284
 1407SOL    HW1 1057   2.475   1.649   1.341
 1407SOL    HW2 1058   2.569   1.564   1.239
 1413SOL     OW 1059   2.092   0.628   1.975
 1413SOL    HW1 1060   1.999   0.626   2.012
 1413SOL    HW2 1061   2.093   0.589   1.883
 1416SOL     OW 1062   2.431   1.275   3.027
 1416SOL    HW1 1063   2.338   1.268   2.990
 1416SOL    HW2 1064   2.442   1.364   3.071
 1417SOL     OW 1065   3.417   1.511   2.565
 1417SOL    HW1 1066   3.360   1.495   2.646
 1417SOL    HW2 1067   3.358   1.521   2.485
 1418SOL     OW 1068   2.997   0.703   2.579
 1418SOL    HW1 1069   3.054   0.781   2.554
 1418SOL    HW2 1070   2.937   0.729   2.655
 1420SOL     OW 1071   2.630   1.144   2.885
 1420SOL    HW1 1072   2.552   1.161   2.945
 1420SOL    HW2 1073   2.664   1.231   2.849
 1422SOL     OW 1074   2.547   1.012   2.527
 1422SOL    HW1 1075   2.616   0.996   2.597
 1422SOL    HW2 1076   2.474   1.069   2.565
 1424SOL     OW 1077   2.197   1.435   2.923
 1424SOL    HW1 1078   2.119   1.404   2.870
 1424SOL    HW2 1079   2.255   1.493   2.866
 1425SOL     OW 1080   3.322   1.505   3.201
 1425SOL    HW1 1081   3.346   1.599   3.227
 1425SOL    HW2 1082   3.306   1.451   3.283
 1428SOL     OW 1083   2.093   1.713   2.345
 1428SOL    HW1 1084   2.127   1.790   2.399
 1428SOL    HW2 1085   2.137   1.713   2.255
 1429SOL     OW 1086   2.989   1.341   3.552
 1429SOL    HW1 1087   3.036   1.341   3.640
 1429SOL    HW2 1088   2.941   1.254   3.541
 1430SOL     OW 1089   2.092   1.434   2.400
 1430SOL    HW1 1090   2.066   1.530   2.400
 1430SOL    HW2 1091   2.021   1.380   2.445
 1431SOL     OW 1092   2.102   1.091   2.748
 1431SOL    HW1 1093   2.116   1.007   2.800
 1431SOL    HW2 1094   2.047   1.155   2.803
 1432SOL     OW 1095   2.482   1.786   3.301
 1432SOL    HW1 1096   2.390   1.769   3.336
 1432SOL    HW2 1097   2.510   1.878   3.327
 1433SOL     OW 1098   2.468   0.964   1.985
 1433SOL    HW1 1099   2.475   1.048   1.931
 1433SOL    HW2 1100   2.514   0.977   2.073
 1435SOL     OW 1101   1.984   0.643   2.425
 1435SOL    HW1 1102   1.939   0.555   2.442
 1435SOL    HW2 1103   1.983   0.697   2.509
 1436SOL     OW 1104   3.704   1.767   2.221
 1436SOL    HW1 1105   3.758   1.738   2.301
 1436SOL    HW2 1106   3.734   1.857   2.192
 1437SOL     OW 1107   1.889   1.596   1.979
 1437SOL    HW1 1108   1.870   1.500   2.000
 1437SOL    HW2 1109   1.856   1.654   2.054
 1439SOL     OW 1110   3.503   1.108   2.294
 1439SOL    HW1 1111   3.589   1.110   2.242
 1439SOL    HW2 1112   3.517   1.155   2.382
 1441SOL     OW 1113   2.475   1.365   2.588
 1441SOL    HW1 1114   2.426   1.278   2.597
 1441SOL    HW2 1115   2.452   1.408   2.501
 1442SOL     OW 1116   3.155   1.228   3.285
 1442SOL    HW1 1117   3.192   1.155   3.227
 1442SOL    HW2 1118   3.207   1.233   3.370
 1444SOL     OW 1119   2.059   0.976   3.126
 1444SOL    HW1 1120   2.148   0.931   3.112
 1444SOL    HW2 1121   1.986   0.911   3.107
 1445SOL     OW 1122   3.387   0.999   2.052
 1445SOL    HW1 1123   3.324   0.923   2.065
 1445SOL    HW2 1124   3.435   1.017   2.138
 1446SOL     OW 1125   3.049   1.792   3.478
 1446SOL    HW1 1126   3.073   1.852   3.402
 1446SOL    HW2 1127   3.056   1.697   3.448
 1448SOL     OW 1128   3.328   1.417   2.815
 1448SOL    HW1 1129   3.269   1.423   2.895
 1448SOL    HW2 1130   3.313   1.329   2.769
 1449SOL     OW 1131   3.529   1.714   2.434
 1449SOL    HW1 1132   3.488   1.691   2.346
 1449SOL    HW2 1133   3.511   1.640   2.499
 1450SOL     OW 1134   2.460   0.729   2.132
 1450SOL    HW1 1135   2.484   0.798   2.064
 1450SOL    HW2 1136   2.382   0.762   2.186
 1452SOL     OW 1137   3.438   1.662   2.169
 1452SOL    HW1 1138   3.527   1.708   2.172
 1452SOL    HW2 1139   3.417   1.638   2.074
 1457SOL     OW 1140   2.903   0.701   2.291
 1457SOL    HW1 1141   2.929   0.697   2.387
 1457SOL    HW2 1142   2.818   0.650   2.277
 1458SOL     OW 1143   1.938   0.811   2.651
 1458SOL    HW1 1144   2.037   0.799   2.660
 1458SOL    HW2 1145   1.914   0.906   2.672
 1459SOL     OW 1146   1.992   1.821   3.433
 1459SOL    HW1 1147   1.982   1.806   3.532
 1459SOL    HW2 1148   1.906   1.857   3.397
 1462SOL     OW 1149   3.224   1.144   2.407
 1462SOL    HW1 1150   3.307   1.115   2.359
 1462SOL    HW2 1151   3.175   1.211   2.351
 1464SOL     OW 1152   2.870   1.456   2.339
 1464SOL    HW1 1153   2.824   1.528   2.287
 1464SOL    HW2 1154   2.866   1.476   2.437
 1465SOL     OW 1155   2.213   1.801   2.715
 1465SOL    HW1 1156   2.263   1.715   2.721
 1465SOL    HW2 1157   2.278   1.878   2.712
 1467SOL     OW 1158   3.089   1.550   3.368
 1467SOL    HW1 1159   3.095   1.473   3.432
 1467SOL    HW2 1160   3.037   1.524   3.288
 1468SOL     OW 1161   2.183   0.943   2.104
 1468SOL    HW1 1162   2.265   0.982   2.062
 1468SOL    HW2 1163   2.156   0.861   2.055
 1470SOL     OW 1164   2.323   1.266   3.589
 1470SOL    HW1 1165   2.273   1.267   3.503
 1470SOL    HW2 1166   2.260   1.248   3.665
 1471SOL     OW 1167   2.973   1.776   2.099
 1471SOL    HW1 1168   2.913   1.714   2.149
 1471SOL    HW2 1169   3.004   1.732   2.014
 1473SOL     OW 1170   3.494   1.377   1.943
 1473SOL    HW1 1171   3.462   1.471   1.933
 1473SOL    HW2 1172   3.418   1.314   1.931
 1474SOL     OW 1173   2.326   1.743   2.185
 1474SOL    HW1 1174   2.359   1.782   2.271
 1474SOL    HW2 1175   2.402   1.736   2.120
 1476SOL     OW 1176   2.111   1.785   3.103
 1476SOL    HW1 1177   2.168   1.720   3.153
 1476SOL    HW2 1178   2.095   1.752   3.010
 1477SOL     OW 1179   2.802   1.698   2.766
 1477SOL    HW1 1180   2.882   1.641   2.787
 1477SOL    HW2 1181   2.753   1.658   2.689
 1478SOL     OW 1182   2.244   0.700   2.342
 1478SOL    HW1 1183   2.289   0.610   2.339
 1478SOL    HW2 1184   2.150   0.689   2.375
 1482SOL     OW 1185   2.750   1.514   3.057
 1482SOL    HW1 1186   2.727   1.489   2.963
 1482SOL    HW2 1187   2.811   1.445   3.096
 1484SOL     OW 1188   2.665   1.402   2.786
 1484SOL    HW1 1189   2.755   1.416   2.744
 1484SOL    HW2 1190   2.594   1.404   2.715
 1487SOL     OW 1191   3.296   1.188   1.903
 1487SOL    HW1 1192   3.328   1.112   1.960
 1487SOL    HW2 1193   3.204   1.215   1.933
 1491SOL     OW 1194   3.089   1.570   2.655
 1491SOL    HW1 1195   3.110   1.644   2.590
 1491SOL    HW2 1196   3.157   1.570   2.728
 1492SOL     OW 1197   2.321   1.152   2.603
 1492SOL    HW1 1198   2.250   1.125   2.668
 1492SOL    HW2 1199   2.295   1.124   2.510
 1493SOL     OW 1200   3.133   1.797   2.453
 1493SOL    HW1 1201   3.177   1.861   2.389
 1493SOL    HW2 1202   3.083   1.849   2.523
 1499SOL     OW 1203   3.291   1.173   2.729
 1499SOL    HW1 1204   3.236   1.089   2.722
 1499SOL    HW2 1205   3.317   1.202   2.637
 1502SOL     OW 1206   2.350   1.385   2.036
 1502SOL    HW1 1207   2.263   1.370   2.083
 1502SOL    HW2 1208   2.333   1.411   1.941
 1503SOL     OW 1209   3.526   1.280   2.519
 1503SOL    HW1 1210   3.625   1.288   2.533
 1503SOL    HW2 1211   3.481   1.364   2.550
 1507SOL     OW 1212   2.926   1.347   3.202
 1507SOL    HW1 1213   2.846   1.324   3.257
 1507SOL    HW2 1214   3.009   1.321   3.251
 1509SOL     OW 1215   2.973   1.195   2.962
 1509SOL    HW1 1216   2.933   1.239   3.043
 1509SOL    HW2 1217   2.932   1.232   2.879
 1513SOL     OW 1218   2.567   1.050   2.230
 1513SOL    HW1 1219   2.553   1.057   2.329
 1513SOL    HW2 1220   2.651   0.999   2.212
 1514SOL     OW 1221   2.272   0.813   3.113
 1514SOL    HW1 1222   2.358   0.825   3.163
 1514SOL    HW2 1223   2.230   0.726   3.140
 1516SOL     OW 1224   1.926   1.564   3.193
 1516SOL    HW1 1225   1.880   1.646   3.159
 1516SOL    HW2 1226   2.024   1.583   3.202
 1517SOL     OW 1227   2.229   1.100   2.363
 1517SOL    HW1 1228   2.222   1.183   2.307
 1517SOL    HW2 1229   2.233   1.020   2.303
 1518SOL     OW 1230   2.428   0.537   2.727
 1518SOL    HW1 1231   2.440   0.603   2.653
 1518SOL    HW2 1232   2.474   0.571   2.810
 1519SOL     OW 1233   3.114   1.348   2.250
 1519SOL    HW1 1234   3.164   1.425   2.290
 1519SOL    HW2 1235   3.019   1.350   2.282
 1520SOL     OW 1236   3.134   1.445   3.004
 1520SOL    HW1 1237   3.181   1.458   3.091
 1520SOL    HW2 1238   3.068   1.371   3.013
 1522SOL     OW 1239   2.216   1.510   3.191
 1522SOL    HW1 1240   2.195   1.466   3.104
 1522SOL    HW2 1241   2.313   1.536   3.194
 1527SOL     OW 1242   2.435   0.870   2.891
 1527SOL    HW1 1243   2.479   0.959   2.882
 1527SOL    HW2 1244   2.372   0.870   2.968
 1531SOL     OW 1245   1.899   1.310   3.144
 1531SOL    HW1 1246   1.952   1.261   3.212
 1531SOL    HW2 1247   1.921   1.408   3.149
 1532SOL     OW 1248   2.594   0.634   2.926
 1532SOL    HW1 1249   2.653   0.608   2.850
 1532SOL    HW2 1250   2.566   0.730   2.915
 1536SOL     OW 1251   2.885   0.766   2.828
 1536SOL    HW1 1252   2.900   0.787   2.924
 1536SOL    HW2 1253   2.855   0.671   2.819
 1537SOL     OW 1254   2.842   1.573   3.562
 1537SOL    HW1 1255   2.822   1.617   3.474
 1537SOL    HW2 1256   2.881   1.482   3.546
 1541SOL     OW 1257   3.165   0.838   1.904
 1541SOL    HW1 1258   3.199   0.745   1.919
 1541SOL    HW2 1259   3.183   0.865   1.809
 1542SOL     OW 1260   2.930   1.333   2.711
 1542SOL    HW1 1261   2.937   1.249   2.656
 1542SOL    HW2 1262   2.992   1.402   2.675
 1543SOL     OW 1263   2.181   0.810   2.811
 1543SOL    HW1 1264   2.274   0.846   2.816
 1543SOL    HW2 1265   2.175   0.725   2.863
 1547SOL     OW 1266   1.870   1.326   2.062
 1547SOL    HW1 1267   1.777   1.347   2.031
 1547SOL    HW2 1268   1.880   1.227   2.075
 1548SOL     OW 1269   1.950   1.801   2.789
 1548SOL    HW1 1270   1.908   1.715   2.762
 1548SOL    HW2 1271   2.044   1.804   2.755
 1549SOL     OW 1272   2.366   1.568   2.772
 1549SOL    HW1 1273   2.432   1.642   2.781
 1549SOL    HW2 1274   2.410   1.489   2.730
 1550SOL     OW 1275   2.864   0.796   3.100
 1550SOL    HW1 1276   2.905   0.764   3.186
 1550SOL    HW2 1277   2.768   0.769   3.097
 1554SOL     OW 1278   2.677   0.572   2.187
 1554SOL    HW1 1279   2.684   0.483   2.141
 1554SOL    HW2 1280   2.583   0.606   2.179
 1556SOL     OW 1281   2.114   1.564   3.606
 1556SOL    HW1 1282   2.084   1.621   3.682
 1556SOL    HW2 1283   2.107   1.467   3.632
 1558SOL     OW 1284   2.792   1.678   3.327
 1558SOL    HW1 1285   2.768   1.660   3.232
 1558SOL    HW2 1286   2.822   1.772   3.337
 1559SOL     OW 1287   2.335   0.500   2.053
 1559SOL    HW1 1288   2.396   0.580   2.057
 1559SOL    HW2 1289   2.240   0.531   2.060
 1560SOL     OW 1290   2.021   1.137   3.328
 1560SOL    HW1 1291   2.043   1.076   3.404
 1560SOL    HW2 1292   2.031   1.088   3.242
 1561SOL     OW 1293   3.209   1.059   3.096
 1561SOL    HW1 1294   3.233   0.996   3.022
 1561SOL    HW2 1295   3.119   1.099   3.078
 1562SOL     OW 1296   3.164   0.855   2.171
 1562SOL    HW1 1297   3.078   0.824   2.213
 1562SOL    HW2 1298   3.160   0.841   2.072
 1563SOL     OW 1299   3.621   1.747   3.016
 1563SOL    HW1 1300   3.682   1.777   2.943
 1563SOL    HW2 1301   3.583   1.658   2.994
 1564SOL     OW 1302   3.114   1.731   2.990
 1564SOL    HW1 1303   3.198   1.736   2.936
 1564SOL    HW2 1304   3.091   1.635   3.008
 1565SOL     OW 1305   1.945   1.258   2.884
 1565SOL    HW1 1306   1.940   1.257   2.984
 1565SOL    HW2 1307   1.862   1.217   2.846
 1566SOL     OW 1308   2.550   1.662   3.578
 1566SOL    HW1 1309   2.494   1.743   3.587
 1566SOL    HW2 1310   2.602   1.666   3.492
 1568SOL     OW 1311   3.250   1.573   2.339
 1568SOL    HW1 1312   3.317   1.585   2.265
 1568SOL    HW2 1313   3.210   1.662   2.362
 1569SOL     OW 1314   1.992   1.794   3.713
 1569SOL    HW1 1315   1.951   1.720   3.766
 1569SOL    HW2 1316   2.056   1.845   3.771
 1570SOL     OW 1317   3.142   0.927   2.534
 1570SOL    HW1 1318   3.202   0.846   2.536
 1570SOL    HW2 1319   3.182   0.996   2.474
 1571SOL     OW 1320   2.692   1.273   3.284
 1571SOL    HW1 1321   2.687   1.306   3.379
 1571SOL    HW2 1322   2.606   1.292   3.238
 1572SOL     OW 1323   2.534   1.616   2.016
 1572SOL    HW1 1324   2.543   1.626   1.917
 1572SOL    HW2 1325   2.494   1.527   2.037
 1573SOL     OW 1326   3.512   1.720   3.256
 1573SOL    HW1 1327   3.565   1.730   3.172
 1573SOL    HW2 1328   3.485   1.810   3.290
 1576SOL     OW 1329   3.056   1.612   1.893
 1576SOL    HW1 1330   3.062   1.519   1.930
 1576SOL    HW2 1331   2.997   1.612   1.813
 1577SOL     OW 1332   2.684   1.002   3.234
 1577SOL    HW1 1333   2.724   1.001   3.142
 1577SOL    HW2 1334   2.694   1.094   3.274
 1578SOL     OW 1335   2.778   0.910   2.153
 1578SOL    HW1 1336   2.841   0.948   2.085
 1578SOL    HW2 1337   2.818   0.827   2.192
 1579SOL     OW 1338   3.366   1.607   1.906
 1579SOL    HW1 1339   3.274   1.644   1.913
 1579SOL    HW2 1340   3.404   1.627   1.816
 1580SOL     OW 1341   2.234   1.288   3.352
 1580SOL    HW1 1342   2.221   1.381   3.318
 1580SOL    HW2 1343   2.150   1.236   3.339
 1582SOL     OW 1344   2.901   1.098   2.558
 1582SOL    HW1 1345   2.831   1.051   2.612
 1582SOL    HW2 1346   2.960   1.030   2.515
 1584SOL     OW 1347   2.452   1.487   2.353
 1584SOL    HW1 1348   2.494   1.429   2.283
 1584SOL    HW2 1349   2.408   1.566   2.309
 1586SOL     OW 1350   2.117   1.348   2.152
 1586SOL    HW1 1351   2.021   1.349   2.125
 1586SOL    HW2 1352   2.129   1.401   2.236
 1592SOL     OW 1353   3.045   1.335   1.981
 1592SOL    HW1 1354   2.946   1.324   1.983
 1592SOL    HW2 1355   3.079   1.350   2.074
 1593SOL     OW 1356   2.475   0.842   3.293
 1593SOL    HW1 1357   2.531   0.923   3.276
 1593SOL    HW2 1358   2.534   0.762   3.296
 1594SOL     OW 1359   3.355   1.767   2.821
 1594SOL    HW1 1360   3.388   1.831   2.752
 1594SOL    HW2 1361   3.421   1.761   2.896
 1597SOL     OW 1362   2.252   1.741   3.422
 1597SOL    HW1 1363   2.161   1.782   3.420
 1597SOL    HW2 1364   2.245   1.647   3.454
 1600SOL     OW 1365   2.456   0.745   2.514
 1600SOL    HW1 1366   2.506   0.830   2.495
 1600SOL    HW2 1367   2.368   0.747   2.466
 1603SOL     OW 1368   2.721   1.374   1.878
 1603SOL    HW1 1369   2.675   1.389   1.966
 1603SOL    HW2 1370   2.765   1.459   1.848
 1604SOL     OW 1371   2.523   1.790   2.815
 1604SOL    HW1 1372   2.477   1.878   2.802
 1604SOL    HW2 1373   2.622   1.802   2.808
 1605SOL     OW 1374   2.721   0.956   2.723
 1605SOL    HW1 1375   2.775   0.887   2.771
 1605SOL    HW2 1376   2.689   1.025   2.789
 1606SOL     OW 1377   2.945   0.984   1.949
 1606SOL    HW1 1378   2.922   1.037   1.867
 1606SOL    HW2 1379   3.026   0.928   1.930
 1607SOL     OW 1380   3.723   1.569   2.713
 1607SOL    HW1 1381   3.652   1.557   2.643
 1607SOL    HW2 1382   3.724   1.490   2.773
 1608SOL     OW 1383   2.083   1.314   3.706
 1608SOL    HW1 1384   2.018   1.241   3.685
 1608SOL    HW2 1385   2.087   1.328   3.804
 1609SOL     OW 1386   1.941   1.240   2.515
 1609SOL    HW1 1387   1.940   1.193   2.603
 1609SOL    HW2 1388   2.023   1.212   2.464
 1610SOL     OW 1389   2.534   1.391   3.486
 1610SOL    HW1 1390   2.456   1.341   3.524
 1610SOL    HW2 1391   2.531   1.486   3.517
 1613SOL     OW 1392   3.567   1.487   2.966
 1613SOL    HW1 1393   3.474   1.462   2.939
 1613SOL    HW2 1394   3.593   1.437   3.048
 1615SOL     OW 1395   2.674   1.586   2.549
 1615SOL    HW1 1396   2.706   1.596   2.455
 1615SOL    HW2 1397   2.595   1.524   2.551
 1618SOL     OW 1398   2.632   1.330   2.163
 1618SOL    HW1 1399   2.586   1.243   2.180
 1618SOL    HW2 1400   2.723   1.327   2.204
 1619SOL     OW 1401   2.480   1.567   3.146
 1619SOL    HW1 1402   2.475   1.649   3.203
 1619SOL    HW2 1403   2.569   1.564   3.101
 1623SOL     OW 1404   1.901   1.077   2.162
 1623SOL    HW1 1405   2.000   1.066   2.153
 1623SOL    HW2 1406   1.861   0.991   2.194
 1624SOL     OW 1407   2.737   1.646   2.199
 1624SOL    HW1 1408   2.660   1.611   2.145
 1624SOL    HW2 1409   2.705   1.717   2.261
 1632SOL     OW 1410   1.889   1.596   3.841
 1632SOL    HW1 1411   1.870   1.500   3.862
 1632SOL    HW2 1412   1.856   1.654   3.916
 1681SOL     OW 1413   2.534   1.616   3.878
 1681SOL    HW1 1414   2.543   1.626   3.779
 1681SOL    HW2 1415   2.494   1.527   3.899
 1704SOL     OW 1416   2.087   2.137   0.996
 1704SOL    HW1 1417   2.122   2.120   1.088
 1704SOL    HW2 1418   1.999   2.092   0.984
 1705SOL     OW 1419   1.881   2.230   0.647
 1705SOL    HW1 1420   1.799   2.273   0.686
 1705SOL    HW2 1421   1.853   2.157   0.584
 1706SOL     OW 1422   2.431   3.137   1.165
 1706SOL    HW1 1423   2.338   3.130   1.128
 1706SOL    HW2 1424   2.442   3.226   1.209
 1708SOL     OW 1425   2.997   2.565   0.717
 1708SOL    HW1 1426   3.054   2.643   0.692
 1708SOL    HW2 1427   2.937   2.591   0.793
 1710SOL     OW 1428   2.630   3.006   1.023
 1710SOL    HW1 1429   2.552   3.023   1.083
 1710SOL    HW2 1430   2.664   3.093   0.987
 1711SOL     OW 1431   2.712   2.660   1.823
 1711SOL    HW1 1432   2.708   2.736   1.888
 1711SOL    HW2 1433   2.734   2.696   1.732
 1712SOL     OW 1434   2.547   2.874   0.665
 1712SOL    HW1 1435   2.616   2.858   0.735
 1712SOL    HW2 1436   2.474   2.931   0.703
 1713SOL     OW 1437   2.548   3.023   1.803
 1713SOL    HW1 1438   2.608   3.102   1.817
 1713SOL    HW2 1439   2.462   3.054   1.762
 1714SOL     OW 1440   2.197   3.297   1.061
 1714SOL    HW1 1441   2.119   3.266   1.008
 1714SOL    HW2 1442   2.255   3.355   1.004
 1716SOL     OW 1443   2.300   2.254   1.499
 1716SOL    HW1 1444   2.382   2.198   1.508
 1716SOL    HW2 1445   2.219   2.196   1.503
 1719SOL     OW 1446   2.989   3.203   1.690
 1719SOL    HW1 1447   3.036   3.203   1.778
 1719SOL    HW2 1448   2.941   3.116   1.679
 1721SOL     OW 1449   2.102   2.953   0.886
 1721SOL    HW1 1450   2.116   2.869   0.938
 1721SOL    HW2 1451   2.047   3.017   0.941
 1722SOL     OW 1452   2.482   3.648   1.439
 1722SOL    HW1 1453   2.390   3.631   1.474
 1722SOL    HW2 1454   2.510   3.740   1.465
 1724SOL     OW 1455   3.456   1.976   1.480
 1724SOL    HW1 1456   3.438   2.043   1.408
 1724SOL    HW2 1457   3.453   2.022   1.569
 1725SOL     OW 1458   1.984   2.505   0.563
 1725SOL    HW1 1459   1.939   2.417   0.580
 1725SOL    HW2 1460   1.983   2.559   0.647
 1730SOL     OW 1461   1.975   2.599   1.597
 1730SOL    HW1 1462   2.063   2.586   1.642
 1730SOL    HW2 1463   1.962   2.696   1.575
 1732SOL     OW 1464   3.155   3.090   1.423
 1732SOL    HW1 1465   3.192   3.017   1.365
 1732SOL    HW2 1466   3.207   3.095   1.508
 1734SOL     OW 1467   2.059   2.838   1.264
 1734SOL    HW1 1468   2.148   2.793   1.250
 1734SOL    HW2 1469   1.986   2.773   1.245
 1736SOL     OW 1470   3.049   3.654   1.616
 1736SOL    HW1 1471   3.073   3.714   1.540
 1736SOL    HW2 1472   3.056   3.559   1.586
 1737SOL     OW 1473   2.179   2.113   1.801
 1737SOL    HW1 1474   2.250   2.184   1.807
 1737SOL    HW2 1475   2.091   2.152   1.829
 1741SOL     OW 1476   3.143   2.207   0.944
 1741SOL    HW1 1477   3.057   2.157   0.931
 1741SOL    HW2 1478   3.205   2.153   1.000
 1743SOL     OW 1479   2.669   2.467   1.465
 1743SOL    HW1 1480   2.622   2.464   1.554
 1743SOL    HW2 1481   2.618   2.412   1.399
 1744SOL     OW 1482   3.256   2.331   1.674
 1744SOL    HW1 1483   3.236   2.374   1.762
 1744SOL    HW2 1484   3.334   2.269   1.683
 1745SOL     OW 1485   2.835   2.752   1.572
 1745SOL    HW1 1486   2.881   2.668   1.543
 1745SOL    HW2 1487   2.779   2.786   1.497
 1746SOL     OW 1488   2.853   2.272   1.242
 1746SOL    HW1 1489   2.776   2.306   1.296
 1746SOL    HW2 1490   2.819   2.221   1.163
 1748SOL     OW 1491   1.938   2.673   0.789
 1748SOL    HW1 1492   2.037   2.661   0.798
 1748SOL    HW2 1493   1.914   2.768   0.810
 1749SOL     OW 1494   1.992   3.683   1.571
 1749SOL    HW1 1495   1.982   3.668   1.670
 1749SOL    HW2 1496   1.906   3.719   1.535
 1751SOL     OW 1497   3.581   2.447   1.831
 1751SOL    HW1 1498   3.555   2.536   1.795
 1751SOL    HW2 1499   3.579   2.379   1.758
 1753SOL     OW 1500   2.412   2.058   0.885
 1753SOL    HW1 1501   2.407   2.053   0.985
 1753SOL    HW2 1502   2.414   2.154   0.856
 1757SOL     OW 1503   3.089   3.412   1.506
 1757SOL    HW1 1504   3.095   3.335   1.570
 1757SOL    HW2 1505   3.037   3.386   1.426
 1760SOL     OW 1506   2.323   3.128   1.727
 1760SOL    HW1 1507   2.273   3.129   1.641
 1760SOL    HW2 1508   2.260   3.110   1.803
 1762SOL     OW 1509   2.064   2.147   1.498
 1762SOL    HW1 1510   1.984   2.207   1.485
 1762SOL    HW2 1511   2.054   2.098   1.584
 1766SOL     OW 1512   2.111   3.647   1.241
 1766SOL    HW1 1513   2.168   3.582   1.291
 1766SOL    HW2 1514   2.095   3.614   1.148
 1768SOL     OW 1515   2.244   2.562   0.480
 1768SOL    HW1 1516   2.289   2.472   0.477
 1768SOL    HW2 1517   2.150   2.551   0.513
 1769SOL     OW 1518   3.409   2.084   1.729
 1769SOL    HW1 1519   3.404   2.121   1.821
 1769SOL    HW2 1520   3.337   2.015   1.717
 1771SOL     OW 1521   2.643   2.126   1.749
 1771SOL    HW1 1522   2.710   2.065   1.792
 1771SOL    HW2 1523   2.570   2.145   1.814
 1772SOL     OW 1524   2.750   3.376   1.195
 1772SOL    HW1 1525   2.727   3.351   1.101
 1772SOL    HW2 1526   2.811   3.307   1.234
 1773SOL     OW 1527   3.213   2.452   1.433
 1773SOL    HW1 1528   3.241   2.409   1.518
 1773SOL    HW2 1529   3.238   2.548   1.434
 1774SOL     OW 1530   2.665   3.264   0.924
 1774SOL    HW1 1531   2.755   3.278   0.882
 1774SOL    HW2 1532   2.594   3.266   0.853
 1775SOL     OW 1533   2.784   2.365   0.899
 1775SOL    HW1 1534   2.759   2.356   0.803
 1775SOL    HW2 1535   2.832   2.283   0.930
 1776SOL     OW 1536   2.401   1.926   0.512
 1776SOL    HW1 1537   2.320   1.927   0.570
 1776SOL    HW2 1538   2.404   2.009   0.457
 1779SOL     OW 1539   2.938   2.545   1.464
 1779SOL    HW1 1540   2.858   2.484   1.467
 1779SOL    HW2 1541   3.019   2.492   1.440
 1781SOL     OW 1542   2.321   3.014   0.741
 1781SOL    HW1 1543   2.250   2.987   0.806
 1781SOL    HW2 1544   2.295   2.986   0.648
 1784SOL     OW 1545   1.940   2.418   1.386
 1784SOL    HW1 1546   2.032   2.417   1.345
 1784SOL    HW2 1547   1.934   2.492   1.453
 1785SOL     OW 1548   2.423   2.084   1.147
 1785SOL    HW1 1549   2.461   2.000   1.184
 1785SOL    HW2 1550   2.335   2.103   1.191
 1786SOL     OW 1551   2.728   2.316   0.642
 1786SOL    HW1 1552   2.696   2.388   0.580
 1786SOL    HW2 1553   2.752   2.235   0.589
 1787SOL     OW 1554   2.879   1.901   0.753
 1787SOL    HW1 1555   2.807   1.906   0.684
 1787SOL    HW2 1556   2.855   1.832   0.822
 1789SOL     OW 1557   3.328   2.452   0.992
 1789SOL    HW1 1558   3.298   2.357   0.999
 1789SOL    HW2 1559   3.401   2.468   1.058
 1795SOL     OW 1560   3.616   3.085   1.588
 1795SOL    HW1 1561   3.707   3.046   1.575
 1795SOL    HW2 1562   3.624   3.181   1.612
 1796SOL     OW 1563   2.926   3.209   1.340
 1796SOL    HW1 1564   2.846   3.186   1.395
 1796SOL    HW2 1565   3.009   3.183   1.389
 1798SOL     OW 1566   2.973   3.057   1.100
 1798SOL    HW1 1567   2.933   3.101   1.181
 1798SOL    HW2 1568   2.932   3.094   1.017
 1800SOL     OW 1569   2.777   1.951   1.402
 1800SOL    HW1 1570   2.802   1.931   1.307
 1800SOL    HW2 1571   2.849   2.007   1.444
 1801SOL     OW 1572   2.842   2.978   1.719
 1801SOL    HW1 1573   2.743   2.984   1.729
 1801SOL    HW2 1574   2.865   2.898   1.663
 1803SOL     OW 1575   2.272   2.675   1.251
 1803SOL    HW1 1576   2.358   2.687   1.301
 1803SOL    HW2 1577   2.230   2.588   1.278
 1804SOL     OW 1578   3.136   2.248   1.262
 1804SOL    HW1 1579   3.157   2.322   1.326
 1804SOL    HW2 1580   3.047   2.265   1.219
 1805SOL     OW 1581   1.926   3.426   1.331
 1805SOL    HW1 1582   1.880   3.508   1.297
 1805SOL    HW2 1583   2.024   3.445   1.340
 1807SOL     OW 1584   2.428   2.399   0.865
 1807SOL    HW1 1585   2.440   2.465   0.791
 1807SOL    HW2 1586   2.474   2.433   0.948
 1809SOL     OW 1587   3.134   3.307   1.142
 1809SOL    HW1 1588   3.181   3.320   1.229
 1809SOL    HW2 1589   3.068   3.233   1.151
 1811SOL     OW 1590   2.216   3.372   1.329
 1811SOL    HW1 1591   2.195   3.328   1.242
 1811SOL    HW2 1592   2.313   3.398   1.332
 1812SOL     OW 1593   2.264   2.613   1.598
 1812SOL    HW1 1594   2.332   2.668   1.551
 1812SOL    HW2 1595   2.304   2.525   1.625
 1813SOL     OW 1596   3.449   2.641   1.670
 1813SOL    HW1 1597   3.357   2.679   1.665
 1813SOL    HW2 1598   3.509   2.688   1.605
 1814SOL     OW 1599   2.875   1.967   1.770
 1814SOL    HW1 1600   2.881   2.052   1.718
 1814SOL    HW2 1601   2.907   1.891   1.713
 1815SOL     OW 1602   2.366   1.912   1.740
 1815SOL    HW1 1603   2.324   1.855   1.670
 1815SOL    HW2 1604   2.300   1.981   1.772
 1816SOL     OW 1605   2.435   2.732   1.029
 1816SOL    HW1 1606   2.479   2.821   1.020
 1816SOL    HW2 1607   2.372   2.732   1.106
 1817SOL     OW 1608   3.222   2.724   1.045
 1817SOL    HW1 1609   3.147   2.724   0.979
 1817SOL    HW2 1610   3.259   2.632   1.054
 1819SOL     OW 1611   2.169   2.075   1.231
 1819SOL    HW1 1612   2.146   2.112   1.321
 1819SOL    HW2 1613   2.139   1.980   1.225
 1820SOL     OW 1614   1.899   3.172   1.282
 1820SOL    HW1 1615   1.952   3.123   1.350
 1820SOL    HW2 1616   1.921   3.270   1.287
 1821SOL     OW 1617   2.594   2.496   1.064
 1821SOL    HW1 1618   2.653   2.470   0.988
 1821SOL    HW2 1619   2.566   2.592   1.053
 1822SOL     OW 1620   3.590   2.797   1.854
 1822SOL    HW1 1621   3.544   2.790   1.765
 1822SOL    HW2 1622   3.528   2.841   1.920
 1823SOL     OW 1623   2.169   1.925   0.618
 1823SOL    HW1 1624   2.158   2.019   0.651
 1823SOL    HW2 1625   2.164   1.862   0.695
 1825SOL     OW 1626   2.885   2.628   0.966
 1825SOL    HW1 1627   2.900   2.649   1.062
 1825SOL    HW2 1628   2.855   2.533   0.957
 1826SOL     OW 1629   2.842   3.435   1.700
 1826SOL    HW1 1630   2.822   3.479   1.612
 1826SOL    HW2 1631   2.881   3.344   1.684
 1828SOL     OW 1632   2.212   2.760   1.804
 1828SOL    HW1 1633   2.288   2.804   1.852
 1828SOL    HW2 1634   2.247   2.713   1.722
 1832SOL     OW 1635   2.181   2.672   0.949
 1832SOL    HW1 1636   2.274   2.708   0.954
 1832SOL    HW2 1637   2.175   2.587   1.001
 1833SOL     OW 1638   2.201   2.371   1.006
 1833SOL    HW1 1639   2.149   2.288   0.989
 1833SOL    HW2 1640   2.278   2.376   0.942
 1834SOL     OW 1641   3.000   2.242   1.678
 1834SOL    HW1 1642   2.955   2.305   1.742
 1834SOL    HW2 1643   3.093   2.273   1.661
 1835SOL     OW 1644   3.022   2.069   1.477
 1835SOL    HW1 1645   3.022   2.133   1.554
 1835SOL    HW2 1646   3.050   2.117   1.394
 1838SOL     OW 1647   2.366   3.430   0.910
 1838SOL    HW1 1648   2.432   3.504   0.919
 1838SOL    HW2 1649   2.410   3.351   0.868
 1839SOL     OW 1650   2.864   2.658   1.238
 1839SOL    HW1 1651   2.905   2.626   1.324
 1839SOL    HW2 1652   2.768   2.631   1.235
 1840SOL     OW 1653   1.902   2.406   1.114
 1840SOL    HW1 1654   1.987   2.373   1.073
 1840SOL    HW2 1655   1.915   2.421   1.212
 1841SOL     OW 1656   2.051   2.382   1.722
 1841SOL    HW1 1657   2.110   2.342   1.652
 1841SOL    HW2 1658   1.993   2.453   1.681
 1842SOL     OW 1659   3.231   2.812   1.660
 1842SOL    HW1 1660   3.270   2.901   1.680
 1842SOL    HW2 1661   3.241   2.792   1.563
 1844SOL     OW 1662   3.519   2.466   1.206
 1844SOL    HW1 1663   3.481   2.397   1.268
 1844SOL    HW2 1664   3.601   2.430   1.162
 1845SOL     OW 1665   2.114   3.426   1.744
 1845SOL    HW1 1666   2.084   3.483   1.820
 1845SOL    HW2 1667   2.107   3.329   1.770
 1846SOL     OW 1668   2.533   2.326   1.269
 1846SOL    HW1 1669   2.499   2.237   1.239
 1846SOL    HW2 1670   2.559   2.380   1.189
 1847SOL     OW 1671   2.792   3.540   1.465
 1847SOL    HW1 1672   2.768   3.522   1.370
 1847SOL    HW2 1673   2.822   3.634   1.475
 1849SOL     OW 1674   2.021   2.999   1.466
 1849SOL    HW1 1675   2.043   2.938   1.542
 1849SOL    HW2 1676   2.031   2.950   1.380
 1850SOL     OW 1677   3.209   2.921   1.234
 1850SOL    HW1 1678   3.233   2.858   1.160
 1850SOL    HW2 1679   3.119   2.961   1.216
 1854SOL     OW 1680   1.945   3.120   1.022
 1854SOL    HW1 1681   1.940   3.119   1.122
 1854SOL    HW2 1682   1.862   3.079   0.984
 1855SOL     OW 1683   2.550   3.524   1.716
 1855SOL    HW1 1684   2.494   3.605   1.725
 1855SOL    HW2 1685   2.602   3.528   1.630
 1859SOL     OW 1686   1.992   3.656   1.851
 1859SOL    HW1 1687   1.951   3.582   1.904
 1859SOL    HW2 1688   2.056   3.707   1.909
 1861SOL     OW 1689   2.692   3.135   1.422
 1861SOL    HW1 1690   2.687   3.168   1.517
 1861SOL    HW2 1691   2.606   3.154   1.376
 1865SOL     OW 1692   2.125   2.188   0.720
 1865SOL    HW1 1693   2.046   2.239   0.686
 1865SOL    HW2 1694   2.116   2.173   0.818
 1867SOL     OW 1695   2.684   2.864   1.372
 1867SOL    HW1 1696   2.724   2.863   1.280
 1867SOL    HW2 1697   2.694   2.956   1.412
 1870SOL     OW 1698   2.234   3.150   1.490
 1870SOL    HW1 1699   2.221   3.243   1.456
 1870SOL    HW2 1700   2.150   3.098   1.477
 1873SOL     OW 1701   2.876   2.098   0.971
 1873SOL    HW1 1702   2.868   2.062   0.878
 1873SOL    HW2 1703   2.874   2.022   1.036
 1875SOL     OW 1704   3.571   2.247   1.381
 1875SOL    HW1 1705   3.644   2.316   1.385
 1875SOL    HW2 1706   3.599   2.172   1.322
 1877SOL     OW 1707   1.967   2.875   1.726
 1877SOL    HW1 1708   1.890   2.842   1.780
 1877SOL    HW2 1709   2.052   2.845   1.768
 1878SOL     OW 1710   2.534   2.065   1.489
 1878SOL    HW1 1711   2.624   2.049   1.449
 1878SOL    HW2 1712   2.542   2.070   1.588
 1880SOL     OW 1713   3.302   2.718   1.398
 1880SOL    HW1 1714   3.245   2.770   1.335
 1880SOL    HW2 1715   3.398   2.730   1.374
 1882SOL     OW 1716   2.475   2.704   1.431
 1882SOL    HW1 1717   2.531   2.785   1.414
 1882SOL    HW2 1718   2.534   2.624   1.434
 1884SOL     OW 1719   2.578   2.427   1.708
 1884SOL    HW1 1720   2.597   2.492   1.782
 1884SOL    HW2 1721   2.638   2.347   1.717
 1885SOL     OW 1722   3.312   3.082   1.633
 1885SOL    HW1 1723   3.303   3.072   1.732
 1885SOL    HW2 1724   3.408   3.075   1.607
 1886SOL     OW 1725   2.252   3.603   1.560
 1886SOL    HW1 1726   2.161   3.644   1.558
 1886SOL    HW2 1727   2.245   3.509   1.592
 1887SOL     OW 1728   3.536   2.745   1.254
 1887SOL    HW1 1729   3.509   2.656   1.217
 1887SOL    HW2 1730   3.537   2.813   1.181
 1889SOL     OW 1731   2.456   2.607   0.652
 1889SOL    HW1 1732   2.506   2.692   0.633
 1889SOL    HW2 1733   2.368   2.609   0.604
 1890SOL     OW 1734   3.639   2.204   1.642
 1890SOL    HW1 1735   3.622   2.235   1.548
 1890SOL    HW2 1736   3.555   2.167   1.680
 1891SOL     OW 1737   3.592   2.796   1.517
 1891SOL    HW1 1738   3.630   2.887   1.532
 1891SOL    HW2 1739   3.584   2.779   1.418
 1894SOL     OW 1740   2.721   2.818   0.861
 1894SOL    HW1 1741   2.775   2.749   0.909
 1894SOL    HW2 1742   2.689   2.887   0.927
 1897SOL     OW 1743   2.083   3.176   1.844
 1897SOL    HW1 1744   2.018   3.103   1.823
 1897SOL    HW2 1745   2.087   3.190   1.942
 1899SOL     OW 1746   2.534   3.253   1.624
 1899SOL    HW1 1747   2.456   3.203   1.662
 1899SOL    HW2 1748   2.531   3.348   1.655
 1900SOL     OW 1749   3.686   2.054   1.227
 1900SOL    HW1 1750   3.682   1.964   1.271
 1900SOL    HW2 1751   3.689   2.043   1.128
 1901SOL     OW 1752   2.290   2.286   0.520
 1901SOL    HW1 1753   2.320   2.214   0.458
 1901SOL    HW2 1754   2.251   2.246   0.603
 1903SOL     OW 1755   2.179   2.409   1.280
 1903SOL    HW1 1756   2.217   2.350   1.352
 1903SOL    HW2 1757   2.219   2.383   1.192
 1905SOL     OW 1758   3.286   2.076   1.112
 1905SOL    HW1 1759   3.338   2.011   1.167
 1905SOL    HW2 1760   3.237   2.139   1.173
 1906SOL     OW 1761   2.863   1.896   1.154
 1906SOL    HW1 1762   2.800   1.824   1.123
 1906SOL    HW2 1763   2.956   1.860   1.154
 1908SOL     OW 1764   2.480   3.429   1.284
 1908SOL    HW1 1765   2.475   3.511   1.341
 1908SOL    HW2 1766   2.569   3.426   1.239
 1910SOL     OW 1767   3.162   2.315   0.691
 1910SOL    HW1 1768   3.103   2.395   0.695
 1910SOL    HW2 1769   3.177   2.280   0.784
 1914SOL     OW 1770   2.092   2.490   1.975
 1914SOL    HW1 1771   1.999   2.488   2.012
 1914SOL    HW2 1772   2.093   2.451   1.883
 1915SOL     OW 1773   2.087   2.137   2.858
 1915SOL    HW1 1774   2.122   2.120   2.950
 1915SOL    HW2 1775   1.999   2.092   2.846
 1916SOL     OW 1776   1.881   2.230   2.509
 1916SOL    HW1 1777   1.799   2.273   2.548
 1916SOL    HW2 1778   1.853   2.157   2.446
 1917SOL     OW 1779   2.431   3.137   3.027
 1917SOL    HW1 1780   2.338   3.130   2.990
 1917SOL    HW2 1781   2.442   3.226   3.071
 1918SOL     OW 1782   3.417   3.373   2.565
 1918SOL    HW1 1783   3.360   3.357   2.646
 1918SOL    HW2 1784   3.358   3.383   2.485
 1919SOL     OW 1785   2.997   2.565   2.579
 1919SOL    HW1 1786   3.054   2.643   2.554
 1919SOL    HW2 1787   2.937   2.591   2.655
 1920SOL     OW 1788   3.617   2.469   2.093
 1920SOL    HW1 1789   3.605   2.456   1.994
 1920SOL    HW2 1790   3.587   2.388   2.142
 1921SOL     OW 1791   2.630   3.006   2.885
 1921SOL    HW1 1792   2.552   3.023   2.945
 1921SOL    HW2 1793   2.664   3.093   2.849
 1922SOL     OW 1794   2.712   2.660   3.685
 1922SOL    HW1 1795   2.708   2.736   3.750
 1922SOL    HW2 1796   2.734   2.696   3.594
 1923SOL     OW 1797   2.547   2.874   2.527
 1923SOL    HW1 1798   2.616   2.858   2.597
 1923SOL    HW2 1799   2.474   2.931   2.565
 1924SOL     OW 1800   2.548   3.023   3.665
 1924SOL    HW1 1801   2.608   3.102   3.679
 1924SOL    HW2 1802   2.462   3.054   3.624
 1925SOL     OW 1803   2.197   3.297   2.923
 1925SOL    HW1 1804   2.119   3.266   2.870
 1925SOL    HW2 1805   2.255   3.355   2.866
 1927SOL     OW 1806   2.300   2.254   3.361
 1927SOL    HW1 1807   2.382   2.198   3.370
 1927SOL    HW2 1808   2.219   2.196   3.365
 1928SOL     OW 1809   3.465   2.309   2.599
 1928SOL    HW1 1810   3.391   2.355   2.549
 1928SOL    HW2 1811   3.516   2.377   2.652
 1929SOL     OW 1812   2.093   3.575   2.345
 1929SOL    HW1 1813   2.127   3.652   2.399
 1929SOL    HW2 1814   2.137   3.575   2.255
 1931SOL     OW 1815   2.092   3.296   2.400
 1931SOL    HW1 1816   2.066   3.392   2.400
 1931SOL    HW2 1817   2.021   3.242   2.445
 1932SOL     OW 1818   2.102   2.953   2.748
 1932SOL    HW1 1819   2.116   2.869   2.800
 1932SOL    HW2 1820   2.047   3.017   2.803
 1934SOL     OW 1821   2.468   2.826   1.985
 1934SOL    HW1 1822   2.475   2.910   1.931
 1934SOL    HW2 1823   2.514   2.839   2.073
 1935SOL     OW 1824   3.456   1.976   3.342
 1935SOL    HW1 1825   3.438   2.043   3.270
 1935SOL    HW2 1826   3.453   2.022   3.431
 1936SOL     OW 1827   1.984   2.505   2.425
 1936SOL    HW1 1828   1.939   2.417   2.442
 1936SOL    HW2 1829   1.983   2.559   2.509
 1938SOL     OW 1830   1.889   3.458   1.979
 1938SOL    HW1 1831   1.870   3.362   2.000
 1938SOL    HW2 1832   1.856   3.516   2.054
 1939SOL     OW 1833   3.551   2.784   2.474
 1939SOL    HW1 1834   3.646   2.755   2.482
 1939SOL    HW2 1835   3.543   2.849   2.399
 1940SOL     OW 1836   3.503   2.970   2.294
 1940SOL    HW1 1837   3.589   2.972   2.242
 1940SOL    HW2 1838   3.517   3.017   2.382
 1941SOL     OW 1839   1.975   2.599   3.459
 1941SOL    HW1 1840   2.063   2.586   3.504
 1941SOL    HW2 1841   1.962   2.696   3.437
 1942SOL     OW 1842   2.475   3.227   2.588
 1942SOL    HW1 1843   2.426   3.140   2.597
 1942SOL    HW2 1844   2.452   3.270   2.501
 1943SOL     OW 1845   3.155   3.090   3.285
 1943SOL    HW1 1846   3.192   3.017   3.227
 1943SOL    HW2 1847   3.207   3.095   3.370
 1944SOL     OW 1848   2.671   1.866   2.364
 1944SOL    HW1 1849   2.711   1.957   2.355
 1944SOL    HW2 1850   2.571   1.874   2.370
 1945SOL     OW 1851   2.059   2.838   3.126
 1945SOL    HW1 1852   2.148   2.793   3.112
 1945SOL    HW2 1853   1.986   2.773   3.107
 1946SOL     OW 1854   3.387   2.861   2.052
 1946SOL    HW1 1855   3.324   2.785   2.065
 1946SOL    HW2 1856   3.435   2.879   2.138
 1948SOL     OW 1857   2.179   2.113   3.663
 1948SOL    HW1 1858   2.250   2.184   3.669
 1948SOL    HW2 1859   2.091   2.152   3.691
 1949SOL     OW 1860   3.328   3.279   2.815
 1949SOL    HW1 1861   3.269   3.285   2.895
 1949SOL    HW2 1862   3.313   3.191   2.769
 1951SOL     OW 1863   2.460   2.591   2.132
 1951SOL    HW1 1864   2.484   2.660   2.064
 1951SOL    HW2 1865   2.382   2.624   2.186
 1952SOL     OW 1866   3.143   2.207   2.806
 1952SOL    HW1 1867   3.057   2.157   2.793
 1952SOL    HW2 1868   3.205   2.153   2.862
 1953SOL     OW 1869   3.438   3.524   2.169
 1953SOL    HW1 1870   3.527   3.570   2.172
 1953SOL    HW2 1871   3.417   3.500   2.074
 1954SOL     OW 1872   2.669   2.467   3.327
 1954SOL    HW1 1873   2.622   2.464   3.416
 1954SOL    HW2 1874   2.618   2.412   3.261
 1955SOL     OW 1875   3.256   2.331   3.536
 1955SOL    HW1 1876   3.236   2.374   3.624
 1955SOL    HW2 1877   3.334   2.269   3.545
 1956SOL     OW 1878   2.835   2.752   3.434
 1956SOL    HW1 1879   2.881   2.668   3.405
 1956SOL    HW2 1880   2.779   2.786   3.359
 1957SOL     OW 1881   2.853   2.272   3.104
 1957SOL    HW1 1882   2.776   2.306   3.158
 1957SOL    HW2 1883   2.819   2.221   3.025
 1958SOL     OW 1884   2.903   2.563   2.291
 1958SOL    HW1 1885   2.929   2.559   2.387
 1958SOL    HW2 1886   2.818   2.512   2.277
 1959SOL     OW 1887   1.938   2.673   2.651
 1959SOL    HW1 1888   2.037   2.661   2.660
 1959SOL    HW2 1889   1.914   2.768   2.672
 1961SOL     OW 1890   2.727   2.210   2.057
 1961SOL    HW1 1891   2.786   2.273   2.008
 1961SOL    HW2 1892   2.746   2.116   2.028
 1963SOL     OW 1893   3.224   3.006   2.407
 1963SOL    HW1 1894   3.307   2.977   2.359
 1963SOL    HW2 1895   3.175   3.073   2.351
 1964SOL     OW 1896   2.412   2.058   2.747
 1964SOL    HW1 1897   2.407   2.053   2.847
 1964SOL    HW2 1898   2.414   2.154   2.718
 1965SOL     OW 1899   2.870   3.318   2.339
 1965SOL    HW1 1900   2.824   3.390   2.287
 1965SOL    HW2 1901   2.866   3.338   2.437
 1966SOL     OW 1902   2.213   3.663   2.715
 1966SOL    HW1 1903   2.263   3.577   2.721
 1966SOL    HW2 1904   2.278   3.740   2.712
 1967SOL     OW 1905   3.657   2.928   2.735
 1967SOL    HW1 1906   3.595   2.913   2.659
 1967SOL    HW2 1907   3.605   2.939   2.820
 1969SOL     OW 1908   2.183   2.805   2.104
 1969SOL    HW1 1909   2.265   2.844   2.062
 1969SOL    HW2 1910   2.156   2.723   2.055
 1970SOL     OW 1911   3.320   2.597   2.590
 1970SOL    HW1 1912   3.315   2.532   2.665
 1970SOL    HW2 1913   3.400   2.656   2.603
 1971SOL     OW 1914   2.323   3.128   3.589
 1971SOL    HW1 1915   2.273   3.129   3.503
 1971SOL    HW2 1916   2.260   3.110   3.665
 1972SOL     OW 1917   2.973   3.638   2.099
 1972SOL    HW1 1918   2.913   3.576   2.149
 1972SOL    HW2 1919   3.004   3.594   2.014
 1973SOL     OW 1920   2.064   2.147   3.360
 1973SOL    HW1 1921   1.984   2.207   3.347
 1973SOL    HW2 1922   2.054   2.098   3.446
 1974SOL     OW 1923   3.494   3.239   1.943
 1974SOL    HW1 1924   3.462   3.333   1.933
 1974SOL    HW2 1925   3.418   3.176   1.931
 1975SOL     OW 1926   2.326   3.605   2.185
 1975SOL    HW1 1927   2.359   3.644   2.271
 1975SOL    HW2 1928   2.402   3.598   2.120
 1976SOL     OW 1929   3.262   1.969   2.288
 1976SOL    HW1 1930   3.238   1.932   2.198
 1976SOL    HW2 1931   3.361   1.985   2.292
 1977SOL     OW 1932   2.111   3.647   3.103
 1977SOL    HW1 1933   2.168   3.582   3.153
 1977SOL    HW2 1934   2.095   3.614   3.010
 1978SOL     OW 1935   2.802   3.560   2.766
 1978SOL    HW1 1936   2.882   3.503   2.787
 1978SOL    HW2 1937   2.753   3.520   2.689
 1980SOL     OW 1938   2.476   1.984   1.979
 1980SOL    HW1 1939   2.574   1.962   1.986
 1980SOL    HW2 1940   2.445   1.967   1.886
 1981SOL     OW 1941   2.643   2.126   3.611
 1981SOL    HW1 1942   2.710   2.065   3.654
 1981SOL    HW2 1943   2.570   2.145   3.676
 1982SOL     OW 1944   2.750   3.376   3.057
 1982SOL    HW1 1945   2.727   3.351   2.963
 1982SOL    HW2 1946   2.811   3.307   3.096
 1983SOL     OW 1947   3.213   2.452   3.295
 1983SOL    HW1 1948   3.241   2.409   3.380
 1983SOL    HW2 1949   3.238   2.548   3.296
 1984SOL     OW 1950   2.665   3.264   2.786
 1984SOL    HW1 1951   2.755   3.278   2.744
 1984SOL    HW2 1952   2.594   3.266   2.715
 1985SOL     OW 1953   2.784   2.365   2.761
 1985SOL    HW1 1954   2.759   2.356   2.665
 1985SOL    HW2 1955   2.832   2.283   2.792
 1986SOL     OW 1956   3.296   3.050   1.903
 1986SOL    HW1 1957   3.328   2.974   1.960
 1986SOL    HW2 1958   3.204   3.077   1.933
 1987SOL     OW 1959   2.159   1.897   2.033
 1987SOL    HW1 1960   2.208   1.981   2.012
 1987SOL    HW2 1961   2.221   1.832   2.078
 1988SOL     OW 1962   2.797   2.098   2.342
 1988SOL    HW1 1963   2.749   2.139   2.264
 1988SOL    HW2 1964   2.896   2.096   2.323
 1989SOL     OW 1965   2.938   2.545   3.326
 1989SOL    HW1 1966   2.858   2.484   3.329
 1989SOL    HW2 1967   3.019   2.492   3.302
 1990SOL     OW 1968   3.089   3.432   2.655
 1990SOL    HW1 1969   3.110   3.506   2.590
 1990SOL    HW2 1970   3.157   3.432   2.728
 1991SOL     OW 1971   2.321   3.014   2.603
 1991SOL    HW1 1972   2.250   2.987   2.668
 1991SOL    HW2 1973   2.295   2.986   2.510
 1992SOL     OW 1974   3.133   3.659   2.453
 1992SOL    HW1 1975   3.177   3.723   2.389
 1992SOL    HW2 1976   3.083   3.711   2.523
 1993SOL     OW 1977   2.894   2.411   1.878
 1993SOL    HW1 1978   2.853   2.493   1.839
 1993SOL    HW2 1979   2.958   2.437   1.951
 1994SOL     OW 1980   1.940   2.418   3.248
 1994SOL    HW1 1981   2.032   2.417   3.207
 1994SOL    HW2 1982   1.934   2.492   3.315
 1995SOL     OW 1983   2.423   2.084   3.009
 1995SOL    HW1 1984   2.461   2.000   3.046
 1995SOL    HW2 1985   2.335   2.103   3.053
 1996SOL     OW 1986   2.728   2.316   2.504
 1996SOL    HW1 1987   2.696   2.388   2.442
 1996SOL    HW2 1988   2.752   2.235   2.451
 1997SOL     OW 1989   2.879   1.901   2.615
 1997SOL    HW1 1990   2.807   1.906   2.546
 1997SOL    HW2 1991   2.855   1.832   2.684
 1998SOL     OW 1992   3.291   3.035   2.729
 1998SOL    HW1 1993   3.236   2.951   2.722
 1998SOL    HW2 1994   3.317   3.064   2.637
 1999SOL     OW 1995   3.328   2.452   2.854
 1999SOL    HW1 1996   3.298   2.357   2.861
 1999SOL    HW2 1997   3.401   2.468   2.920
 2000SOL     OW 1998   3.719   2.695   2.239
 2000SOL    HW1 1999   3.761   2.631   2.303
 2000SOL    HW2 2000   3.681   2.644   2.161
 2001SOL     OW 2001   2.350   3.247   2.036
 2001SOL    HW1 2002   2.263   3.232   2.083
 2001SOL    HW2 2003   2.333   3.273   1.941
 2002SOL     OW 2004   3.526   3.142   2.519
 2002SOL    HW1 2005   3.625   3.150   2.533
 2002SOL    HW2 2006   3.481   3.226   2.550
 2003SOL     OW 2007   3.252   2.437   1.940
 2003SOL    HW1 2008   3.198   2.416   2.021
 2003SOL    HW2 2009   3.343   2.396   1.949
 2005SOL     OW 2010   2.926   3.209   3.202
 2005SOL    HW1 2011   2.846   3.186   3.257
 2005SOL    HW2 2012   3.009   3.183   3.251
 2007SOL     OW 2013   2.973   3.057   2.962
 2007SOL    HW1 2014   2.933   3.101   3.043
 2007SOL    HW2 2015   2.932   3.094   2.879
 2008SOL     OW 2016   3.500   2.961   2.941
 2008SOL    HW1 2017   3.505   3.042   3.000
 2008SOL    HW2 2018   3.414   2.963   2.890
 2009SOL     OW 2019   2.777   1.951   3.264
 2009SOL    HW1 2020   2.802   1.931   3.169
 2009SOL    HW2 2021   2.849   2.007   3.306
 2010SOL     OW 2022   2.842   2.978   3.581
 2010SOL    HW1 2023   2.743   2.984   3.591
 2010SOL    HW2 2024   2.865   2.898   3.525
 2011SOL     OW 2025   2.567   2.912   2.230
 2011SOL    HW1 2026   2.553   2.919   2.329
 2011SOL    HW2 2027   2.651   2.861   2.212
 2012SOL     OW 2028   2.272   2.675   3.113
 2012SOL    HW1 2029   2.358   2.687   3.163
 2012SOL    HW2 2030   2.230   2.588   3.140
 2013SOL     OW 2031   3.136   2.248   3.124
 2013SOL    HW1 2032   3.157   2.322   3.188
 2013SOL    HW2 2033   3.047   2.265   3.081
 2014SOL     OW 2034   1.926   3.426   3.193
 2014SOL    HW1 2035   1.880   3.508   3.159
 2014SOL    HW2 2036   2.024   3.445   3.202
 2015SOL     OW 2037   2.229   2.962   2.363
 2015SOL    HW1 2038   2.222   3.045   2.307
 2015SOL    HW2 2039   2.233   2.882   2.303
 2016SOL     OW 2040   2.428   2.399   2.727
 2016SOL    HW1 2041   2.440   2.465   2.653
 2016SOL    HW2 2042   2.474   2.433   2.810
 2017SOL     OW 2043   3.114   3.210   2.250
 2017SOL    HW1 2044   3.164   3.287   2.290
 2017SOL    HW2 2045   3.019   3.212   2.282
 2018SOL     OW 2046   3.134   3.307   3.004
 2018SOL    HW1 2047   3.181   3.320   3.091
 2018SOL    HW2 2048   3.068   3.233   3.013
 2019SOL     OW 2049   3.444   2.501   2.334
 2019SOL    HW1 2050   3.413   2.562   2.407
 2019SOL    HW2 2051   3.494   2.553   2.265
 2020SOL     OW 2052   2.216   3.372   3.191
 2020SOL    HW1 2053   2.195   3.328   3.104
 2020SOL    HW2 2054   2.313   3.398   3.194
 2021SOL     OW 2055   2.264   2.613   3.460
 2021SOL    HW1 2056   2.332   2.668   3.413
 2021SOL    HW2 2057   2.304   2.525   3.487
 2023SOL     OW 2058   2.875   1.967   3.632
 2023SOL    HW1 2059   2.881   2.052   3.580
 2023SOL    HW2 2060   2.907   1.891   3.575
 2024SOL     OW 2061   2.366   1.912   3.602
 2024SOL    HW1 2062   2.324   1.855   3.532
 2024SOL    HW2 2063   2.300   1.981   3.634
 2025SOL     OW 2064   2.435   2.732   2.891
 2025SOL    HW1 2065   2.479   2.821   2.882
 2025SOL    HW2 2066   2.372   2.732   2.968
 2026SOL     OW 2067   3.222   2.724   2.907
 2026SOL    HW1 2068   3.147   2.724   2.841
 2026SOL    HW2 2069   3.259   2.632   2.916
 2027SOL     OW 2070   3.071   2.387   2.137
 2027SOL    HW1 2071   3.084   2.303   2.191
 2027SOL    HW2 2072   3.042   2.461   2.197
 2028SOL     OW 2073   2.169   2.075   3.093
 2028SOL    HW1 2074   2.146   2.112   3.183
 2028SOL    HW2 2075   2.139   1.980   3.087
 2029SOL     OW 2076   1.899   3.172   3.144
 2029SOL    HW1 2077   1.952   3.123   3.212
 2029SOL    HW2 2078   1.921   3.270   3.149
 2030SOL     OW 2079   2.594   2.496   2.926
 2030SOL    HW1 2080   2.653   2.470   2.850
 2030SOL    HW2 2081   2.566   2.592   2.915
 2032SOL     OW 2082   2.169   1.925   2.480
 2032SOL    HW1 2083   2.158   2.019   2.513
 2032SOL    HW2 2084   2.164   1.862   2.557
 2033SOL     OW 2085   3.484   2.229   2.236
 2033SOL    HW1 2086   3.486   2.153   2.300
 2033SOL    HW2 2087   3.436   2.306   2.276
 2034SOL     OW 2088   2.885   2.628   2.828
 2034SOL    HW1 2089   2.900   2.649   2.924
 2034SOL    HW2 2090   2.855   2.533   2.819
 2037SOL     OW 2091   2.212   2.760   3.666
 2037SOL    HW1 2092   2.288   2.804   3.714
 2037SOL    HW2 2093   2.247   2.713   3.584
 2038SOL     OW 2094   3.402   2.136   1.987
 2038SOL    HW1 2095   3.341   2.061   2.010
 2038SOL    HW2 2096   3.424   2.188   2.070
 2039SOL     OW 2097   3.165   2.700   1.904
 2039SOL    HW1 2098   3.199   2.607   1.919
 2039SOL    HW2 2099   3.183   2.727   1.809
 2040SOL     OW 2100   2.930   3.195   2.711
 2040SOL    HW1 2101   2.937   3.111   2.656
 2040SOL    HW2 2102   2.992   3.264   2.675
 2041SOL     OW 2103   2.181   2.672   2.811
 2041SOL    HW1 2104   2.274   2.708   2.816
 2041SOL    HW2 2105   2.175   2.587   2.863
 2042SOL     OW 2106   2.201   2.371   2.868
 2042SOL    HW1 2107   2.149   2.288   2.851
 2042SOL    HW2 2108   2.278   2.376   2.804
 2043SOL     OW 2109   3.000   2.242   3.540
 2043SOL    HW1 2110   2.955   2.305   3.604
 2043SOL    HW2 2111   3.093   2.273   3.523
 2044SOL     OW 2112   3.022   2.069   3.339
 2044SOL    HW1 2113   3.022   2.133   3.416
 2044SOL    HW2 2114   3.050   2.117   3.256
 2045SOL     OW 2115   1.870   3.188   2.062
 2045SOL    HW1 2116   1.777   3.209   2.031
 2045SOL    HW2 2117   1.880   3.089   2.075
 2046SOL     OW 2118   1.950   3.663   2.789
 2046SOL    HW1 2119   1.908   3.577   2.762
 2046SOL    HW2 2120   2.044   3.666   2.755
 2047SOL     OW 2121   2.366   3.430   2.772
 2047SOL    HW1 2122   2.432   3.504   2.781
 2047SOL    HW2 2123   2.410   3.351   2.730
 2048SOL     OW 2124   2.864   2.658   3.100
 2048SOL    HW1 2125   2.905   2.626   3.186
 2048SOL    HW2 2126   2.768   2.631   3.097
 2049SOL     OW 2127   1.902   2.406   2.976
 2049SOL    HW1 2128   1.987   2.373   2.935
 2049SOL    HW2 2129   1.915   2.421   3.074
 2050SOL     OW 2130   2.051   2.382   3.584
 2050SOL    HW1 2131   2.110   2.342   3.514
 2050SOL    HW2 2132   1.993   2.453   3.543
 2051SOL     OW 2133   3.231   2.812   3.522
 2051SOL    HW1 2134   3.270   2.901   3.542
 2051SOL    HW2 2135   3.241   2.792   3.425
 2052SOL     OW 2136   2.677   2.434   2.187
 2052SOL    HW1 2137   2.684   2.345   2.141
 2052SOL    HW2 2138   2.583   2.468   2.179
 2053SOL     OW 2139   3.519   2.466   3.068
 2053SOL    HW1 2140   3.481   2.397   3.130
 2053SOL    HW2 2141   3.601   2.430   3.024
 2055SOL     OW 2142   2.533   2.326   3.131
 2055SOL    HW1 2143   2.499   2.237   3.101
 2055SOL    HW2 2144   2.559   2.380   3.051
 2057SOL     OW 2145   2.021   2.999   3.328
 2057SOL    HW1 2146   2.043   2.938   3.404
 2057SOL    HW2 2147   2.031   2.950   3.242
 2058SOL     OW 2148   3.209   2.921   3.096
 2058SOL    HW1 2149   3.233   2.858   3.022
 2058SOL    HW2 2150   3.119   2.961   3.078
 2059SOL     OW 2151   3.164   2.717   2.171
 2059SOL    HW1 2152   3.078   2.686   2.213
 2059SOL    HW2 2153   3.160   2.703   2.072
 2062SOL     OW 2154   1.945   3.120   2.884
 2062SOL    HW1 2155   1.940   3.119   2.984
 2062SOL    HW2 2156   1.862   3.079   2.846
 2064SOL     OW 2157   3.588   1.997   2.385
 2064SOL    HW1 2158   3.661   1.980   2.318
 2064SOL    HW2 2159   3.557   1.910   2.423
 2065SOL     OW 2160   3.250   3.435   2.339
 2065SOL    HW1 2161   3.317   3.447   2.265
 2065SOL    HW2 2162   3.210   3.524   2.362
 2067SOL     OW 2163   3.142   2.789   2.534
 2067SOL    HW1 2164   3.202   2.708   2.536
 2067SOL    HW2 2165   3.182   2.858   2.474
 2068SOL     OW 2166   2.692   3.135   3.284
 2068SOL    HW1 2167   2.687   3.168   3.379
 2068SOL    HW2 2168   2.606   3.154   3.238
 2069SOL     OW 2169   2.534   3.478   2.016
 2069SOL    HW1 2170   2.543   3.488   1.917
 2069SOL    HW2 2171   2.494   3.389   2.037
 2071SOL     OW 2172   3.703   2.037   2.825
 2071SOL    HW1 2173   3.742   1.952   2.789
 2071SOL    HW2 2174   3.605   2.039   2.806
 2072SOL     OW 2175   2.125   2.188   2.582
 2072SOL    HW1 2176   2.046   2.239   2.548
 2072SOL    HW2 2177   2.116   2.173   2.680
 2073SOL     OW 2178   3.056   3.474   1.893
 2073SOL    HW1 2179   3.062   3.381   1.930
 2073SOL    HW2 2180   2.997   3.474   1.813
 2074SOL     OW 2181   2.684   2.864   3.234
 2074SOL    HW1 2182   2.724   2.863   3.142
 2074SOL    HW2 2183   2.694   2.956   3.274
 2075SOL     OW 2184   2.778   2.772   2.153
 2075SOL    HW1 2185   2.841   2.810   2.085
 2075SOL    HW2 2186   2.818   2.689   2.192
 2076SOL     OW 2187   3.366   3.469   1.906
 2076SOL    HW1 2188   3.274   3.506   1.913
 2076SOL    HW2 2189   3.404   3.489   1.816
 2077SOL     OW 2190   2.234   3.150   3.352
 2077SOL    HW1 2191   2.221   3.243   3.318
 2077SOL    HW2 2192   2.150   3.098   3.339
 2079SOL     OW 2193   2.901   2.960   2.558
 2079SOL    HW1 2194   2.831   2.913   2.612
 2079SOL    HW2 2195   2.960   2.892   2.515
 2080SOL     OW 2196   2.876   2.098   2.833
 2080SOL    HW1 2197   2.868   2.062   2.740
 2080SOL    HW2 2198   2.874   2.022   2.898
 2081SOL     OW 2199   2.452   3.349   2.353
 2081SOL    HW1 2200   2.494   3.291   2.283
 2081SOL    HW2 2201   2.408   3.428   2.309
 2082SOL     OW 2202   3.571   2.247   3.243
 2082SOL    HW1 2203   3.644   2.316   3.247
 2082SOL    HW2 2204   3.599   2.172   3.184
 2083SOL     OW 2205   2.117   3.210   2.152
 2083SOL    HW1 2206   2.021   3.211   2.125
 2083SOL    HW2 2207   2.129   3.263   2.236
 2084SOL     OW 2208   1.967   2.875   3.588
 2084SOL    HW1 2209   1.890   2.842   3.642
 2084SOL    HW2 2210   2.052   2.845   3.630
 2085SOL     OW 2211   2.534   2.065   3.351
 2085SOL    HW1 2212   2.624   2.049   3.311
 2085SOL    HW2 2213   2.542   2.070   3.450
 2086SOL     OW 2214   1.937   2.207   1.895
 2086SOL    HW1 2215   1.845   2.179   1.866
 2086SOL    HW2 2216   1.968   2.284   1.839
 2087SOL     OW 2217   3.302   2.718   3.260
 2087SOL    HW1 2218   3.245   2.770   3.197
 2087SOL    HW2 2219   3.398   2.730   3.236
 2088SOL     OW 2220   1.934   2.028   2.180
 2088SOL    HW1 2221   1.917   2.111   2.126
 2088SOL    HW2 2222   2.024   1.991   2.158
 2089SOL     OW 2223   3.045   3.197   1.981
 2089SOL    HW1 2224   2.946   3.186   1.983
 2089SOL    HW2 2225   3.079   3.212   2.074
 2090SOL     OW 2226   2.475   2.704   3.293
 2090SOL    HW1 2227   2.531   2.785   3.276
 2090SOL    HW2 2228   2.534   2.624   3.296
 2092SOL     OW 2229   2.578   2.427   3.570
 2092SOL    HW1 2230   2.597   2.492   3.644
 2092SOL    HW2 2231   2.638   2.347   3.579
 2095SOL     OW 2232   3.536   2.745   3.116
 2095SOL    HW1 2233   3.509   2.656   3.079
 2095SOL    HW2 2234   3.537   2.813   3.043
 2096SOL     OW 2235   3.087   2.187   2.311
 2096SOL    HW1 2236   3.152   2.113   2.300
 2096SOL    HW2 2237   3.107   2.237   2.395
 2097SOL     OW 2238   2.456   2.607   2.514
 2097SOL    HW1 2239   2.506   2.692   2.495
 2097SOL    HW2 2240   2.368   2.609   2.466
 2100SOL     OW 2241   2.721   3.236   1.878
 2100SOL    HW1 2242   2.675   3.251   1.966
 2100SOL    HW2 2243   2.765   3.321   1.848
 2101SOL     OW 2244   2.523   3.652   2.815
 2101SOL    HW1 2245   2.477   3.740   2.802
 2101SOL    HW2 2246   2.622   3.664   2.808
 2102SOL     OW 2247   2.721   2.818   2.723
 2102SOL    HW1 2248   2.775   2.749   2.771
 2102SOL    HW2 2249   2.689   2.887   2.789
 2103SOL     OW 2250   2.945   2.846   1.949
 2103SOL    HW1 2251   2.922   2.899   1.867
 2103SOL    HW2 2252   3.026   2.790   1.930
 2105SOL     OW 2253   2.083   3.176   3.706
 2105SOL    HW1 2254   2.018   3.103   3.685
 2105SOL    HW2 2255   2.087   3.190   3.804
 2106SOL     OW 2256   1.941   3.102   2.515
 2106SOL    HW1 2257   1.940   3.055   2.603
 2106SOL    HW2 2258   2.023   3.074   2.464
 2107SOL     OW 2259   2.534   3.253   3.486
 2107SOL    HW1 2260   2.456   3.203   3.524
 2107SOL    HW2 2261   2.531   3.348   3.517
 2108SOL     OW 2262   3.686   2.054   3.089
 2108SOL    HW1 2263   3.682   1.964   3.133
 2108SOL    HW2 2264   3.689   2.043   2.990
 2110SOL     OW 2265   2.179   2.409   3.142
 2110SOL    HW1 2266   2.217   2.350   3.214
 2110SOL    HW2 2267   2.219   2.383   3.054
 2111SOL     OW 2268   2.674   3.448   2.549
 2111SOL    HW1 2269   2.706   3.458   2.455
 2111SOL    HW2 2270   2.595   3.386   2.551
 2112SOL     OW 2271   3.286   2.076   2.974
 2112SOL    HW1 2272   3.338   2.011   3.029
 2112SOL    HW2 2273   3.237   2.139   3.035
 2113SOL     OW 2274   2.863   1.896   3.016
 2113SOL    HW1 2275   2.800   1.824   2.985
 2113SOL    HW2 2276   2.956   1.860   3.016
 2114SOL     OW 2277   2.632   3.192   2.163
 2114SOL    HW1 2278   2.586   3.105   2.180
 2114SOL    HW2 2279   2.723   3.189   2.204
 2115SOL     OW 2280   2.480   3.429   3.146
 2115SOL    HW1 2281   2.475   3.511   3.203
 2115SOL    HW2 2282   2.569   3.426   3.101
 2116SOL     OW 2283   3.214   1.914   2.030
 2116SOL    HW1 2284   3.249   1.873   1.946
 2116SOL    HW2 2285   3.124   1.876   2.050
 2117SOL     OW 2286   3.162   2.315   2.553
 2117SOL    HW1 2287   3.103   2.395   2.557
 2117SOL    HW2 2288   3.177   2.280   2.646
 2118SOL     OW 2289   3.455   2.083   2.744
 2118SOL    HW1 2290   3.371   2.082   2.798
 2118SOL    HW2 2291   3.457   2.166   2.688
 2119SOL     OW 2292   1.901   2.939   2.162
 2119SOL    HW1 2293   2.000   2.928   2.153
 2119SOL    HW2 2294   1.861   2.853   2.194
 2120SOL     OW 2295   2.737   3.508   2.199
 2120SOL    HW1 2296   2.660   3.473   2.145
 2120SOL    HW2 2297   2.705   3.579   2.261
 2121SOL     OW 2298   2.092   2.490   3.837
 2121SOL    HW1 2299   1.999   2.488   3.874
 2121SOL    HW2 2300   2.093   2.451   3.745
 2125SOL     OW 2301   2.468   2.826   3.847
 2125SOL    HW1 2302   2.475   2.910   3.793
 2125SOL    HW2 2303   2.514   2.839   3.935
 2139SOL     OW 2304   2.727   2.210   3.919
 2139SOL    HW1 2305   2.786   2.273   3.870
 2139SOL    HW2 2306   2.746   2.116   3.890
 2149SOL     OW 2307   2.476   1.984   3.841
 2149SOL    HW1 2308   2.574   1.962   3.848
 2149SOL    HW2 2309   2.445   1.967   3.748
 2152SOL     OW 2310   2.159   1.897   3.895
 2152SOL    HW1 2311   2.208   1.981   3.874
 2152SOL    HW2 2312   2.221   1.832   3.940
 2156SOL     OW 2313   2.894   2.411   3.740
 2156SOL    HW1 2314   2.853   2.493   3.701
 2156SOL    HW2 2315   2.958   2.437   3.813
 2173SOL     OW 2316   2.335   2.362   3.915
 2173SOL    HW1 2317   2.396   2.442   3.919
 2173SOL    HW2 2318   2.240   2.393   3.922
 2184SOL     OW 2319   1.937   2.207   3.757
 2184SOL    HW1 2320   1.845   2.179   3.728
 2184SOL    HW2 2321   1.968   2.284   3.701
 2239SOL     OW 2322   2.875   3.829   1.770
 2239SOL    HW1 2323   2.881   3.914   1.718
 2239SOL    HW2 2324   2.907   3.753   1.713
 2240SOL     OW 2325   2.366   3.774   1.740
 2240SOL    HW1 2326   2.324   3.717   1.670
 2240SOL    HW2 2327   2.300   3.843   1.772
 2286SOL     OW 2328   2.671   3.728   2.364
 2286SOL    HW1 2329   2.711   3.819   2.355
 2286SOL    HW2 2330   2.571   3.736   2.370
 2295SOL     OW 2331   2.412   3.920   2.747
 2295SOL    HW1 2332   2.407   3.915   2.847
 2295SOL    HW2 2333   2.414   4.016   2.718
 2300SOL     OW 2334   2.476   3.846   1.979
 2300SOL    HW1 2335   2.574   3.824   1.986
 2300SOL    HW2 2336   2.445   3.829   1.886
 2304SOL     OW 2337   2.401   3.788   2.374
 2304SOL    HW1 2338   2.320   3.789   2.432
 2304SOL    HW2 2339   2.404   3.871   2.319
 2305SOL     OW 2340   2.159   3.759   2.033
 2305SOL    HW1 2341   2.208   3.843   2.012
 2305SOL    HW2 2342   2.221   3.694   2.078
 2312SOL     OW 2343   2.879   3.763   2.615
 2312SOL    HW1 2344   2.807   3.768   2.546
 2312SOL    HW2 2345   2.855   3.694   2.684
 2314SOL     OW 2346   2.389   3.980   2.190
 2314SOL    HW1 2347   2.416   3.921   2.115
 2314SOL    HW2 2348   2.389   4.075   2.159
 2324SOL     OW 2349   2.169   3.787   2.480
 2324SOL    HW1 2350   2.158   3.881   2.513
 2324SOL    HW2 2351   2.164   3.724   2.557
 2345SOL     OW 2352   1.934   3.890   2.180
 2345SOL    HW1 2353   1.917   3.973   2.126
 2345SOL    HW2 2354   2.024   3.853   2.158
 2450SOL     OW 2355   3.854   1.794   1.851
 2450SOL    HW1 2356   3.813   1.720   1.904
 2450SOL    HW2 2357   3.918   1.845   1.909
 2478SOL     OW 2358   3.751   1.596   1.979
 2478SOL    HW1 2359   3.732   1.500   2.000
 2478SOL    HW2 2360   3.718   1.654   2.054
 2518SOL     OW 2361   3.732   1.326   2.062
 2518SOL    HW1 2362   3.639   1.347   2.031
 2518SOL    HW2 2363   3.742   1.227   2.075
 2519SOL     OW 2364   3.812   1.801   2.789
 2519SOL    HW1 2365   3.770   1.715   2.762
 2519SOL    HW2 2366   3.906   1.804   2.755
 2590SOL     OW 2367   3.837   2.599   1.597
 2590SOL    HW1 2368   3.925   2.586   1.642
 2590SOL    HW2 2369   3.824   2.696   1.575
 2633SOL     OW 2370   3.913   2.382   1.722
 2633SOL    HW1 2371   3.972   2.342   1.652
 2633SOL    HW2 2372   3.855   2.453   1.681
 2657SOL     OW 2373   3.954   2.490   1.975
 2657SOL    HW1 2374   3.861   2.488   2.012
 2657SOL    HW2 2375   3.955   2.451   1.883
 2659SOL     OW 2376   3.743   2.230   2.509
 2659SOL    HW1 2377   3.661   2.273   2.548
 2659SOL    HW2 2378   3.715   2.157   2.446
 2667SOL     OW 2379   3.846   2.505   2.425
 2667SOL    HW1 2380   3.801   2.417   2.442
 2667SOL    HW2 2381   3.845   2.559   2.509
 2675SOL     OW 2382   3.800   2.673   2.651
 2675SOL    HW1 2383   3.899   2.661   2.660
 2675SOL    HW2 2384   3.776   2.768   2.672
 2712SOL     OW 2385   3.764   2.406   2.976
 2712SOL    HW1 2386   3.849   2.373   2.935
 2712SOL    HW2 2387   3.777   2.421   3.074
 2727SOL     OW 2388   3.799   2.207   1.895
 2727SOL    HW1 2389   3.707   2.179   1.866
 2727SOL    HW2 2390   3.830   2.284   1.839
 2728SOL     OW 2391   3.796   2.028   2.180
 2728SOL    HW1 2392   3.779   2.111   2.126
 2728SOL    HW2 2393   3.886   1.991   2.158
 2737SOL     OW 2394   3.763   2.939   2.162
 2737SOL    HW1 2395   3.862   2.928   2.153
 2737SOL    HW2 2396   3.723   2.853   2.194
   4.43362   4.43362   4.43362
