; mobley_7735340_GMX.itp created by acpype (v: 2023.10.27) on Thu May 21 00:09:58 2026

[ atomtypes ]
;name   bond_type     mass     charge   ptype   sigma         epsilon       Amb
 cc       cc          0.00000  0.00000   A     3.31521e-01   4.13379e-01 ; 1.86  0.0988
 cd       cd          0.00000  0.00000   A     3.31521e-01   4.13379e-01 ; 1.86  0.0988
 nc       nc          0.00000  0.00000   A     3.38417e-01   3.93714e-01 ; 1.90  0.0941
 na       na          0.00000  0.00000   A     3.20581e-01   8.54373e-01 ; 1.80  0.2042
 h4       h4          0.00000  0.00000   A     2.53639e-01   6.73624e-02 ; 1.42  0.0161
 h5       h5          0.00000  0.00000   A     2.44730e-01   6.73624e-02 ; 1.37  0.0161
 hn       hn          0.00000  0.00000   A     1.10650e-01   4.18400e-02 ; 0.62  0.0100

[ moleculetype ]
;name            nrexcl
 mobley_7735340   3

[ atoms ]
;   nr  type  resi  res  atom  cgnr     charge      mass       ; qtot   bond_type
     1   cc     1   MOL    C1    1     0.291200     12.01000 ; qtot 0.291
     2   cd     1   MOL    C2    2    -0.261600     12.01000 ; qtot 0.030
     3   cd     1   MOL    C3    3     0.382400     12.01000 ; qtot 0.412
     4   nc     1   MOL    N1    4    -0.668000     14.01000 ; qtot -0.256
     5   na     1   MOL    N2    5    -0.321900     14.01000 ; qtot -0.578
     6   h4     1   MOL    H1    6     0.042100      1.00800 ; qtot -0.536
     7   h4     1   MOL    H2    7     0.176000      1.00800 ; qtot -0.360
     8   h5     1   MOL    H3    8     0.060100      1.00800 ; qtot -0.300
     9   hn     1   MOL    H4    9     0.299700      1.00800 ; qtot 0.000

[ bonds ]
;   ai     aj funct   r             k
     1      2   1    1.3730e-01    3.2321e+05 ;     C1 - C2    
     1      4   1    1.3629e-01    2.9793e+05 ;     C1 - N1    
     1      6   1    1.0809e-01    3.0854e+05 ;     C1 - H1    
     2      5   1    1.3830e-01    2.7819e+05 ;     C2 - N2    
     2      7   1    1.0818e-01    3.0735e+05 ;     C2 - H2    
     3      4   1    1.3171e-01    3.4961e+05 ;     C3 - N1    
     3      5   1    1.3830e-01    2.7819e+05 ;     C3 - N2    
     3      8   1    1.0821e-01    3.0695e+05 ;     C3 - H3    
     5      9   1    1.0095e-01    4.0315e+05 ;     N2 - H4    

[ pairs ]
;   ai     aj    funct
     1      8      1 ;     C1 - H3    
     1      9      1 ;     C1 - H4    
     2      8      1 ;     C2 - H3    
     3      7      1 ;     C3 - H2    
     4      7      1 ;     N1 - H2    
     4      9      1 ;     N1 - H4    
     6      3      1 ;     H1 - C3    
     6      5      1 ;     H1 - N2    
     6      7      1 ;     H1 - H2    
     7      9      1 ;     H2 - H4    
     8      9      1 ;     H3 - H4    

[ angles ]
;   ai     aj     ak    funct   theta         cth
     1      2      5      1    1.0899e+02    6.0241e+02 ;     C1 - C2     - N2    
     1      2      7      1    1.2764e+02    3.6987e+02 ;     C1 - C2     - H2    
     1      4      3      1    1.0915e+02    7.2032e+02 ;     C1 - N1     - C3    
     2      1      4      1    1.1799e+02    5.8325e+02 ;     C2 - C1     - N1    
     2      1      6      1    1.2911e+02    3.6777e+02 ;     C2 - C1     - H1    
     2      5      3      1    1.1090e+02    6.9279e+02 ;     C2 - N2     - C3    
     2      5      9      1    1.2524e+02    4.6384e+02 ;     C2 - N2     - H4    
     3      5      9      1    1.2524e+02    4.6384e+02 ;     C3 - N2     - H4    
     4      1      6      1    1.2076e+02    4.0610e+02 ;     N1 - C1     - H1    
     4      3      5      1    1.1302e+02    6.4024e+02 ;     N1 - C3     - N2    
     4      3      8      1    1.2529e+02    4.0911e+02 ;     N1 - C3     - H3    
     5      2      7      1    1.2017e+02    4.0233e+02 ;     N2 - C2     - H2    
     5      3      8      1    1.2083e+02    4.0116e+02 ;     N2 - C3     - H3    

[ dihedrals ] ; propers
; for gromacs 4.5 or higher, using funct 9
;    i      j      k      l   func   phase     kd      pn
     1      2      5      3      9   180.00   7.11280   2 ;     C1-    C2-    N2-    C3
     1      2      5      9      9   180.00   7.11280   2 ;     C1-    C2-    N2-    H4
     1      4      3      5      9   180.00  19.87400   2 ;     C1-    N1-    C3-    N2
     1      4      3      8      9   180.00  19.87400   2 ;     C1-    N1-    C3-    H3
     2      1      4      3      9   180.00  19.87400   2 ;     C2-    C1-    N1-    C3
     2      5      3      4      9   180.00   7.11280   2 ;     C2-    N2-    C3-    N1
     2      5      3      8      9   180.00   7.11280   2 ;     C2-    N2-    C3-    H3
     3      5      2      7      9   180.00   7.11280   2 ;     C3-    N2-    C2-    H2
     4      1      2      5      9   180.00  16.73600   2 ;     N1-    C1-    C2-    N2
     4      1      2      7      9   180.00  16.73600   2 ;     N1-    C1-    C2-    H2
     4      3      5      9      9   180.00   7.11280   2 ;     N1-    C3-    N2-    H4
     6      1      2      5      9   180.00  16.73600   2 ;     H1-    C1-    C2-    N2
     6      1      2      7      9   180.00  16.73600   2 ;     H1-    C1-    C2-    H2
     6      1      4      3      9   180.00  19.87400   2 ;     H1-    C1-    N1-    C3
     7      2      5      9      9   180.00   7.11280   2 ;     H2-    C2-    N2-    H4
     8      3      5      9      9   180.00   7.11280   2 ;     H3-    C3-    N2-    H4

[ dihedrals ] ; impropers
; treated as propers in GROMACS to use correct AMBER analytical function
;    i      j      k      l   func   phase     kd      pn
     1      7      2      5      4   180.00   4.60240   2 ;     C1-    H2-    C2-    N2
     2      3      5      9      4   180.00   4.60240   2 ;     C2-    C3-    N2-    H4
     4      1      6      2      4   180.00   4.60240   2 ;     N1-    C1-    H1-    C2
     8      5      3      4      4   180.00   4.60240   2 ;     H3-    N2-    C3-    N1
