mobley_3269565_GMX.gro created by acpype (v: 2023.10.27) on Tue May 19 12:43:05 2026
 2424
    1MOL     C1    1   2.267   2.165   2.184
    1MOL     C2    2   2.443   2.264   2.334
    1MOL     C3    3   2.100   2.377   2.262
    1MOL     C4    4   2.294   2.252   2.305
    1MOL     O1    5   2.240   2.382   2.283
    1MOL     H1    6   2.304   2.063   2.198
    1MOL     H2    7   2.159   2.160   2.164
    1MOL     H3    8   2.313   2.207   2.094
    1MOL     H4    9   2.488   2.166   2.354
    1MOL     H5   10   2.460   2.329   2.420
    1MOL     H6   11   2.496   2.310   2.249
    1MOL     H7   12   2.079   2.356   2.157
    1MOL     H8   13   2.055   2.472   2.291
    1MOL     H9   14   2.058   2.297   2.324
    1MOL    H10   15   2.244   2.210   2.393
   14SOL     OW   16   1.460   1.505   1.339
   14SOL    HW1   17   1.484   1.599   1.365
   14SOL    HW2   18   1.444   1.451   1.421
   18SOL     OW   19   1.127   1.341   1.690
   18SOL    HW1   20   1.174   1.341   1.778
   18SOL    HW2   21   1.079   1.254   1.679
   31SOL     OW   22   1.293   1.228   1.423
   31SOL    HW1   23   1.330   1.155   1.365
   31SOL    HW2   24   1.345   1.233   1.508
   35SOL     OW   25   1.187   1.792   1.616
   35SOL    HW1   26   1.211   1.852   1.540
   35SOL    HW2   27   1.194   1.697   1.586
   37SOL     OW   28   1.466   1.417   0.953
   37SOL    HW1   29   1.407   1.423   1.033
   37SOL    HW2   30   1.451   1.329   0.907
   56SOL     OW   31   1.227   1.550   1.506
   56SOL    HW1   32   1.233   1.473   1.570
   56SOL    HW2   33   1.175   1.524   1.426
   95SOL     OW   34   1.754   1.223   1.588
   95SOL    HW1   35   1.845   1.184   1.575
   95SOL    HW2   36   1.762   1.319   1.612
   96SOL     OW   37   1.064   1.347   1.340
   96SOL    HW1   38   0.984   1.324   1.395
   96SOL    HW2   39   1.147   1.321   1.389
   97SOL     OW   40   1.592   1.629   1.625
   97SOL    HW1   41   1.619   1.663   1.535
   97SOL    HW2   42   1.671   1.591   1.671
   99SOL     OW   43   1.638   1.099   1.079
   99SOL    HW1   44   1.643   1.180   1.138
   99SOL    HW2   45   1.552   1.101   1.028
  109SOL     OW   46   1.272   1.445   1.142
  109SOL    HW1   47   1.319   1.458   1.229
  109SOL    HW2   48   1.206   1.371   1.151
  113SOL     OW   49   1.587   0.779   1.670
  113SOL    HW1   50   1.495   0.817   1.665
  113SOL    HW2   51   1.647   0.826   1.605
  122SOL     OW   52   1.728   0.935   1.854
  122SOL    HW1   53   1.682   0.928   1.765
  122SOL    HW2   54   1.666   0.979   1.920
  126SOL     OW   55   0.980   1.573   1.700
  126SOL    HW1   56   0.960   1.617   1.612
  126SOL    HW2   57   1.019   1.482   1.684
  127SOL     OW   58   1.859   1.518   1.605
  127SOL    HW1   59   1.873   1.545   1.510
  127SOL    HW2   60   1.942   1.540   1.658
  142SOL     OW   61   1.369   0.950   1.660
  142SOL    HW1   62   1.408   1.039   1.680
  142SOL    HW2   63   1.379   0.930   1.563
  147SOL     OW   64   0.930   1.678   1.465
  147SOL    HW1   65   0.906   1.660   1.370
  147SOL    HW2   66   0.960   1.772   1.475
  152SOL     OW   67   1.759   1.747   1.154
  152SOL    HW1   68   1.820   1.777   1.081
  152SOL    HW2   69   1.721   1.658   1.132
  153SOL     OW   70   1.252   1.731   1.128
  153SOL    HW1   71   1.336   1.736   1.074
  153SOL    HW2   72   1.229   1.635   1.146
  155SOL     OW   73   0.688   1.662   1.716
  155SOL    HW1   74   0.632   1.743   1.725
  155SOL    HW2   75   0.740   1.666   1.630
  163SOL     OW   76   1.650   1.720   1.394
  163SOL    HW1   77   1.703   1.730   1.310
  163SOL    HW2   78   1.623   1.810   1.428
  171SOL     OW   79   1.614   1.292   1.289
  171SOL    HW1   80   1.674   1.295   1.369
  171SOL    HW2   81   1.539   1.356   1.302
  184SOL     OW   82   1.493   1.767   0.959
  184SOL    HW1   83   1.526   1.831   0.890
  184SOL    HW2   84   1.559   1.761   1.034
  186SOL     OW   85   1.450   1.220   1.633
  186SOL    HW1   86   1.441   1.210   1.732
  186SOL    HW2   87   1.546   1.213   1.607
  192SOL     OW   88   1.730   0.934   1.517
  192SOL    HW1   89   1.768   1.025   1.532
  192SOL    HW2   90   1.722   0.917   1.418
  197SOL     OW   91   1.861   1.569   0.851
  197SOL    HW1   92   1.790   1.557   0.781
  197SOL    HW2   93   1.862   1.490   0.911
  203SOL     OW   94   1.705   1.487   1.104
  203SOL    HW1   95   1.612   1.462   1.077
  203SOL    HW2   96   1.731   1.437   1.186
  219SOL     OW   97   1.555   1.511   2.565
  219SOL    HW1   98   1.498   1.495   2.646
  219SOL    HW2   99   1.496   1.521   2.485
  221SOL     OW  100   1.755   0.607   2.093
  221SOL    HW1  101   1.743   0.594   1.994
  221SOL    HW2  102   1.725   0.526   2.142
  227SOL     OW  103   1.460   1.505   3.201
  227SOL    HW1  104   1.484   1.599   3.227
  227SOL    HW2  105   1.444   1.451   3.283
  238SOL     OW  106   1.842   1.767   2.221
  238SOL    HW1  107   1.896   1.738   2.301
  238SOL    HW2  108   1.872   1.857   2.192
  240SOL     OW  109   1.689   0.922   2.474
  240SOL    HW1  110   1.784   0.893   2.482
  240SOL    HW2  111   1.681   0.987   2.399
  241SOL     OW  112   1.641   1.108   2.294
  241SOL    HW1  113   1.727   1.110   2.242
  241SOL    HW2  114   1.655   1.155   2.382
  244SOL     OW  115   1.293   1.228   3.285
  244SOL    HW1  116   1.330   1.155   3.227
  244SOL    HW2  117   1.345   1.233   3.370
  247SOL     OW  118   1.525   0.999   2.052
  247SOL    HW1  119   1.462   0.923   2.065
  247SOL    HW2  120   1.573   1.017   2.138
  248SOL     OW  121   1.187   1.792   3.478
  248SOL    HW1  122   1.211   1.852   3.402
  248SOL    HW2  123   1.194   1.697   3.448
  250SOL     OW  124   1.466   1.417   2.815
  250SOL    HW1  125   1.407   1.423   2.895
  250SOL    HW2  126   1.451   1.329   2.769
  251SOL     OW  127   1.667   1.714   2.434
  251SOL    HW1  128   1.626   1.691   2.346
  251SOL    HW2  129   1.649   1.640   2.499
  254SOL     OW  130   1.576   1.662   2.169
  254SOL    HW1  131   1.665   1.708   2.172
  254SOL    HW2  132   1.555   1.638   2.074
  264SOL     OW  133   1.362   1.144   2.407
  264SOL    HW1  134   1.445   1.115   2.359
  264SOL    HW2  135   1.313   1.211   2.351
  266SOL     OW  136   1.008   1.456   2.339
  266SOL    HW1  137   0.962   1.528   2.287
  266SOL    HW2  138   1.004   1.476   2.437
  268SOL     OW  139   1.795   1.066   2.735
  268SOL    HW1  140   1.733   1.051   2.659
  268SOL    HW2  141   1.743   1.077   2.820
  269SOL     OW  142   1.227   1.550   3.368
  269SOL    HW1  143   1.233   1.473   3.432
  269SOL    HW2  144   1.175   1.524   3.288
  271SOL     OW  145   1.458   0.735   2.590
  271SOL    HW1  146   1.453   0.670   2.665
  271SOL    HW2  147   1.538   0.794   2.603
  273SOL     OW  148   1.111   1.776   2.099
  273SOL    HW1  149   1.051   1.714   2.149
  273SOL    HW2  150   1.142   1.732   2.014
  275SOL     OW  151   1.632   1.377   1.943
  275SOL    HW1  152   1.600   1.471   1.933
  275SOL    HW2  153   1.556   1.314   1.931
  279SOL     OW  154   0.940   1.698   2.766
  279SOL    HW1  155   1.020   1.641   2.787
  279SOL    HW2  156   0.891   1.658   2.689
  284SOL     OW  157   0.888   1.514   3.057
  284SOL    HW1  158   0.865   1.489   2.963
  284SOL    HW2  159   0.949   1.445   3.096
  286SOL     OW  160   0.803   1.402   2.786
  286SOL    HW1  161   0.893   1.416   2.744
  286SOL    HW2  162   0.732   1.404   2.715
  289SOL     OW  163   1.434   1.188   1.903
  289SOL    HW1  164   1.466   1.112   1.960
  289SOL    HW2  165   1.342   1.215   1.933
  293SOL     OW  166   1.227   1.570   2.655
  293SOL    HW1  167   1.248   1.644   2.590
  293SOL    HW2  168   1.295   1.570   2.728
  295SOL     OW  169   1.271   1.797   2.453
  295SOL    HW1  170   1.315   1.861   2.389
  295SOL    HW2  171   1.221   1.849   2.523
  301SOL     OW  172   1.429   1.173   2.729
  301SOL    HW1  173   1.374   1.089   2.722
  301SOL    HW2  174   1.455   1.202   2.637
  303SOL     OW  175   1.857   0.833   2.239
  303SOL    HW1  176   1.899   0.769   2.303
  303SOL    HW2  177   1.819   0.782   2.161
  305SOL     OW  178   1.664   1.280   2.519
  305SOL    HW1  179   1.763   1.288   2.533
  305SOL    HW2  180   1.619   1.364   2.550
  308SOL     OW  181   1.754   1.223   3.450
  308SOL    HW1  182   1.845   1.184   3.437
  308SOL    HW2  183   1.762   1.319   3.474
  309SOL     OW  184   1.064   1.347   3.202
  309SOL    HW1  185   0.984   1.324   3.257
  309SOL    HW2  186   1.147   1.321   3.251
  310SOL     OW  187   1.592   1.629   3.487
  310SOL    HW1  188   1.619   1.663   3.397
  310SOL    HW2  189   1.671   1.591   3.533
  311SOL     OW  190   1.111   1.195   2.962
  311SOL    HW1  191   1.071   1.239   3.043
  311SOL    HW2  192   1.070   1.232   2.879
  312SOL     OW  193   1.638   1.099   2.941
  312SOL    HW1  194   1.643   1.180   3.000
  312SOL    HW2  195   1.552   1.101   2.890
  321SOL     OW  196   1.252   1.348   2.250
  321SOL    HW1  197   1.302   1.425   2.290
  321SOL    HW2  198   1.157   1.350   2.282
  322SOL     OW  199   1.272   1.445   3.004
  322SOL    HW1  200   1.319   1.458   3.091
  322SOL    HW2  201   1.206   1.371   3.013
  323SOL     OW  202   1.582   0.639   2.334
  323SOL    HW1  203   1.551   0.700   2.407
  323SOL    HW2  204   1.632   0.691   2.265
  330SOL     OW  205   1.360   0.862   2.907
  330SOL    HW1  206   1.285   0.862   2.841
  330SOL    HW2  207   1.397   0.770   2.916
  340SOL     OW  208   1.859   1.518   3.467
  340SOL    HW1  209   1.873   1.545   3.372
  340SOL    HW2  210   1.942   1.540   3.520
  343SOL     OW  211   1.303   0.838   1.904
  343SOL    HW1  212   1.337   0.745   1.919
  343SOL    HW2  213   1.321   0.865   1.809
  344SOL     OW  214   1.068   1.333   2.711
  344SOL    HW1  215   1.075   1.249   2.656
  344SOL    HW2  216   1.130   1.402   2.675
  363SOL     OW  217   1.347   1.059   3.096
  363SOL    HW1  218   1.371   0.996   3.022
  363SOL    HW2  219   1.257   1.099   3.078
  364SOL     OW  220   1.302   0.855   2.171
  364SOL    HW1  221   1.216   0.824   2.213
  364SOL    HW2  222   1.298   0.841   2.072
  365SOL     OW  223   1.759   1.747   3.016
  365SOL    HW1  224   1.820   1.777   2.943
  365SOL    HW2  225   1.721   1.658   2.994
  366SOL     OW  226   1.252   1.731   2.990
  366SOL    HW1  227   1.336   1.736   2.936
  366SOL    HW2  228   1.229   1.635   3.008
  370SOL     OW  229   1.388   1.573   2.339
  370SOL    HW1  230   1.455   1.585   2.265
  370SOL    HW2  231   1.348   1.662   2.362
  372SOL     OW  232   1.280   0.927   2.534
  372SOL    HW1  233   1.340   0.846   2.536
  372SOL    HW2  234   1.320   0.996   2.474
  374SOL     OW  235   0.672   1.616   2.016
  374SOL    HW1  236   0.681   1.626   1.917
  374SOL    HW2  237   0.632   1.527   2.037
  375SOL     OW  238   1.650   1.720   3.256
  375SOL    HW1  239   1.703   1.730   3.172
  375SOL    HW2  240   1.623   1.810   3.290
  378SOL     OW  241   1.194   1.612   1.893
  378SOL    HW1  242   1.200   1.519   1.930
  378SOL    HW2  243   1.135   1.612   1.813
  381SOL     OW  244   1.504   1.607   1.906
  381SOL    HW1  245   1.412   1.644   1.913
  381SOL    HW2  246   1.542   1.627   1.816
  383SOL     OW  247   1.614   1.292   3.151
  383SOL    HW1  248   1.674   1.295   3.231
  383SOL    HW2  249   1.539   1.356   3.164
  384SOL     OW  250   1.039   1.098   2.558
  384SOL    HW1  251   0.969   1.051   2.612
  384SOL    HW2  252   1.098   1.030   2.515
  394SOL     OW  253   1.183   1.335   1.981
  394SOL    HW1  254   1.084   1.324   1.983
  394SOL    HW2  255   1.217   1.350   2.074
  396SOL     OW  256   1.493   1.767   2.821
  396SOL    HW1  257   1.526   1.831   2.752
  396SOL    HW2  258   1.559   1.761   2.896
  400SOL     OW  259   1.674   0.883   3.116
  400SOL    HW1  260   1.647   0.794   3.079
  400SOL    HW2  261   1.675   0.951   3.043
  405SOL     OW  262   0.859   1.374   1.878
  405SOL    HW1  263   0.813   1.389   1.966
  405SOL    HW2  264   0.903   1.459   1.848
  406SOL     OW  265   0.661   1.790   2.815
  406SOL    HW1  266   0.615   1.878   2.802
  406SOL    HW2  267   0.760   1.802   2.808
  408SOL     OW  268   1.083   0.984   1.949
  408SOL    HW1  269   1.060   1.037   1.867
  408SOL    HW2  270   1.164   0.928   1.930
  409SOL     OW  271   1.861   1.569   2.713
  409SOL    HW1  272   1.790   1.557   2.643
  409SOL    HW2  273   1.862   1.490   2.773
  415SOL     OW  274   1.705   1.487   2.966
  415SOL    HW1  275   1.612   1.462   2.939
  415SOL    HW2  276   1.731   1.437   3.048
  417SOL     OW  277   0.812   1.586   2.549
  417SOL    HW1  278   0.844   1.596   2.455
  417SOL    HW2  279   0.733   1.524   2.551
  420SOL     OW  280   0.770   1.330   2.163
  420SOL    HW1  281   0.724   1.243   2.180
  420SOL    HW2  282   0.861   1.327   2.204
  426SOL     OW  283   0.875   1.646   2.199
  426SOL    HW1  284   0.798   1.611   2.145
  426SOL    HW2  285   0.843   1.717   2.261
  521SOL     OW  286   0.850   2.660   1.823
  521SOL    HW1  287   0.846   2.736   1.888
  521SOL    HW2  288   0.872   2.696   1.732
  525SOL     OW  289   1.460   3.367   1.339
  525SOL    HW1  290   1.484   3.461   1.365
  525SOL    HW2  291   1.444   3.313   1.421
  527SOL     OW  292   1.603   2.309   0.737
  527SOL    HW1  293   1.529   2.355   0.687
  527SOL    HW2  294   1.654   2.377   0.790
  529SOL     OW  295   1.127   3.203   1.690
  529SOL    HW1  296   1.174   3.203   1.778
  529SOL    HW2  297   1.079   3.116   1.679
  534SOL     OW  298   1.594   1.976   1.480
  534SOL    HW1  299   1.576   2.043   1.408
  534SOL    HW2  300   1.591   2.022   1.569
  542SOL     OW  301   1.293   3.090   1.423
  542SOL    HW1  302   1.330   3.017   1.365
  542SOL    HW2  303   1.345   3.095   1.508
  551SOL     OW  304   1.281   2.207   0.944
  551SOL    HW1  305   1.195   2.157   0.931
  551SOL    HW2  306   1.343   2.153   1.000
  553SOL     OW  307   0.807   2.467   1.465
  553SOL    HW1  308   0.760   2.464   1.554
  553SOL    HW2  309   0.756   2.412   1.399
  554SOL     OW  310   1.394   2.331   1.674
  554SOL    HW1  311   1.374   2.374   1.762
  554SOL    HW2  312   1.472   2.269   1.683
  555SOL     OW  313   0.973   2.752   1.572
  555SOL    HW1  314   1.019   2.668   1.543
  555SOL    HW2  315   0.917   2.786   1.497
  556SOL     OW  316   0.991   2.272   1.242
  556SOL    HW1  317   0.914   2.306   1.296
  556SOL    HW2  318   0.957   2.221   1.163
  561SOL     OW  319   1.719   2.447   1.831
  561SOL    HW1  320   1.693   2.536   1.795
  561SOL    HW2  321   1.717   2.379   1.758
  566SOL     OW  322   1.795   2.928   0.873
  566SOL    HW1  323   1.733   2.913   0.797
  566SOL    HW2  324   1.743   2.939   0.958
  567SOL     OW  325   1.227   3.412   1.506
  567SOL    HW1  326   1.233   3.335   1.570
  567SOL    HW2  327   1.175   3.386   1.426
  569SOL     OW  328   1.458   2.597   0.728
  569SOL    HW1  329   1.453   2.532   0.803
  569SOL    HW2  330   1.538   2.656   0.741
  579SOL     OW  331   1.547   2.084   1.729
  579SOL    HW1  332   1.542   2.121   1.821
  579SOL    HW2  333   1.475   2.015   1.717
  580SOL     OW  334   0.781   2.126   1.749
  580SOL    HW1  335   0.848   2.065   1.792
  580SOL    HW2  336   0.708   2.145   1.814
  582SOL     OW  337   1.351   2.452   1.433
  582SOL    HW1  338   1.379   2.409   1.518
  582SOL    HW2  339   1.376   2.548   1.434
  588SOL     OW  340   1.076   2.545   1.464
  588SOL    HW1  341   0.996   2.484   1.467
  588SOL    HW2  342   1.157   2.492   1.440
  598SOL     OW  343   1.466   2.452   0.992
  598SOL    HW1  344   1.436   2.357   0.999
  598SOL    HW2  345   1.539   2.468   1.058
  604SOL     OW  346   1.754   3.085   1.588
  604SOL    HW1  347   1.845   3.046   1.575
  604SOL    HW2  348   1.762   3.181   1.612
  605SOL     OW  349   1.064   3.209   1.340
  605SOL    HW1  350   0.984   3.186   1.395
  605SOL    HW2  351   1.147   3.183   1.389
  606SOL     OW  352   1.592   3.491   1.625
  606SOL    HW1  353   1.619   3.525   1.535
  606SOL    HW2  354   1.671   3.453   1.671
  608SOL     OW  355   1.638   2.961   1.079
  608SOL    HW1  356   1.643   3.042   1.138
  608SOL    HW2  357   1.552   2.963   1.028
  609SOL     OW  358   0.915   1.951   1.402
  609SOL    HW1  359   0.940   1.931   1.307
  609SOL    HW2  360   0.987   2.007   1.444
  610SOL     OW  361   0.980   2.978   1.719
  610SOL    HW1  362   0.881   2.984   1.729
  610SOL    HW2  363   1.003   2.898   1.663
  613SOL     OW  364   1.274   2.248   1.262
  613SOL    HW1  365   1.295   2.322   1.326
  613SOL    HW2  366   1.185   2.265   1.219
  622SOL     OW  367   1.587   2.641   1.670
  622SOL    HW1  368   1.495   2.679   1.665
  622SOL    HW2  369   1.647   2.688   1.605
  623SOL     OW  370   1.013   1.967   1.770
  623SOL    HW1  371   1.019   2.052   1.718
  623SOL    HW2  372   1.045   1.891   1.713
  626SOL     OW  373   1.360   2.724   1.045
  626SOL    HW1  374   1.285   2.724   0.979
  626SOL    HW2  375   1.397   2.632   1.054
  631SOL     OW  376   1.728   2.797   1.854
  631SOL    HW1  377   1.682   2.790   1.765
  631SOL    HW2  378   1.666   2.841   1.920
  636SOL     OW  379   1.859   3.380   1.605
  636SOL    HW1  380   1.873   3.407   1.510
  636SOL    HW2  381   1.942   3.402   1.658
  643SOL     OW  382   1.138   2.242   1.678
  643SOL    HW1  383   1.093   2.305   1.742
  643SOL    HW2  384   1.231   2.273   1.661
  644SOL     OW  385   1.160   2.069   1.477
  644SOL    HW1  386   1.160   2.133   1.554
  644SOL    HW2  387   1.188   2.117   1.394
  648SOL     OW  388   1.002   2.658   1.238
  648SOL    HW1  389   1.043   2.626   1.324
  648SOL    HW2  390   0.906   2.631   1.235
  651SOL     OW  391   1.369   2.812   1.660
  651SOL    HW1  392   1.408   2.901   1.680
  651SOL    HW2  393   1.379   2.792   1.563
  653SOL     OW  394   1.657   2.466   1.206
  653SOL    HW1  395   1.619   2.397   1.268
  653SOL    HW2  396   1.739   2.430   1.162
  659SOL     OW  397   1.347   2.921   1.234
  659SOL    HW1  398   1.371   2.858   1.160
  659SOL    HW2  399   1.257   2.961   1.216
  672SOL     OW  400   1.650   3.582   1.394
  672SOL    HW1  401   1.703   3.592   1.310
  672SOL    HW2  402   1.623   3.672   1.428
  673SOL     OW  403   1.841   2.037   0.963
  673SOL    HW1  404   1.880   1.952   0.927
  673SOL    HW2  405   1.743   2.039   0.944
  680SOL     OW  406   1.614   3.154   1.289
  680SOL    HW1  407   1.674   3.157   1.369
  680SOL    HW2  408   1.539   3.218   1.302
  684SOL     OW  409   1.709   2.247   1.381
  684SOL    HW1  410   1.782   2.316   1.385
  684SOL    HW2  411   1.737   2.172   1.322
  687SOL     OW  412   0.672   2.065   1.489
  687SOL    HW1  413   0.762   2.049   1.449
  687SOL    HW2  414   0.680   2.070   1.588
  689SOL     OW  415   1.440   2.718   1.398
  689SOL    HW1  416   1.383   2.770   1.335
  689SOL    HW2  417   1.536   2.730   1.374
  694SOL     OW  418   0.716   2.427   1.708
  694SOL    HW1  419   0.735   2.492   1.782
  694SOL    HW2  420   0.776   2.347   1.717
  695SOL     OW  421   1.450   3.082   1.633
  695SOL    HW1  422   1.441   3.072   1.732
  695SOL    HW2  423   1.546   3.075   1.607
  697SOL     OW  424   1.674   2.745   1.254
  697SOL    HW1  425   1.647   2.656   1.217
  697SOL    HW2  426   1.675   2.813   1.181
  700SOL     OW  427   1.777   2.204   1.642
  700SOL    HW1  428   1.760   2.235   1.548
  700SOL    HW2  429   1.693   2.167   1.680
  701SOL     OW  430   1.730   2.796   1.517
  701SOL    HW1  431   1.768   2.887   1.532
  701SOL    HW2  432   1.722   2.779   1.418
  710SOL     OW  433   1.824   2.054   1.227
  710SOL    HW1  434   1.820   1.964   1.271
  710SOL    HW2  435   1.827   2.043   1.128
  712SOL     OW  436   1.705   3.349   1.104
  712SOL    HW1  437   1.612   3.324   1.077
  712SOL    HW2  438   1.731   3.299   1.186
  715SOL     OW  439   1.424   2.076   1.112
  715SOL    HW1  440   1.476   2.011   1.167
  715SOL    HW2  441   1.375   2.139   1.173
  716SOL     OW  442   1.001   1.896   1.154
  716SOL    HW1  443   0.938   1.824   1.123
  716SOL    HW2  444   1.094   1.860   1.154
  721SOL     OW  445   1.593   2.083   0.882
  721SOL    HW1  446   1.509   2.082   0.936
  721SOL    HW2  447   1.595   2.166   0.826
  728SOL     OW  448   1.555   3.373   2.565
  728SOL    HW1  449   1.498   3.357   2.646
  728SOL    HW2  450   1.496   3.383   2.485
  729SOL     OW  451   1.135   2.565   2.579
  729SOL    HW1  452   1.192   2.643   2.554
  729SOL    HW2  453   1.075   2.591   2.655
  730SOL     OW  454   1.755   2.469   2.093
  730SOL    HW1  455   1.743   2.456   1.994
  730SOL    HW2  456   1.725   2.388   2.142
  731SOL     OW  457   0.768   3.006   2.885
  731SOL    HW1  458   0.690   3.023   2.945
  731SOL    HW2  459   0.802   3.093   2.849
  733SOL     OW  460   0.685   2.874   2.527
  733SOL    HW1  461   0.754   2.858   2.597
  733SOL    HW2  462   0.612   2.931   2.565
  736SOL     OW  463   1.460   3.367   3.201
  736SOL    HW1  464   1.484   3.461   3.227
  736SOL    HW2  465   1.444   3.313   3.283
  738SOL     OW  466   1.603   2.309   2.599
  738SOL    HW1  467   1.529   2.355   2.549
  738SOL    HW2  468   1.654   2.377   2.652
  744SOL     OW  469   0.606   2.826   1.985
  744SOL    HW1  470   0.613   2.910   1.931
  744SOL    HW2  471   0.652   2.839   2.073
  745SOL     OW  472   1.594   1.976   3.342
  745SOL    HW1  473   1.576   2.043   3.270
  745SOL    HW2  474   1.591   2.022   3.431
  747SOL     OW  475   1.842   3.629   2.221
  747SOL    HW1  476   1.896   3.600   2.301
  747SOL    HW2  477   1.872   3.719   2.192
  749SOL     OW  478   1.689   2.784   2.474
  749SOL    HW1  479   1.784   2.755   2.482
  749SOL    HW2  480   1.681   2.849   2.399
  750SOL     OW  481   1.641   2.970   2.294
  750SOL    HW1  482   1.727   2.972   2.242
  750SOL    HW2  483   1.655   3.017   2.382
  753SOL     OW  484   1.293   3.090   3.285
  753SOL    HW1  485   1.330   3.017   3.227
  753SOL    HW2  486   1.345   3.095   3.370
  754SOL     OW  487   0.809   1.866   2.364
  754SOL    HW1  488   0.849   1.957   2.355
  754SOL    HW2  489   0.709   1.874   2.370
  756SOL     OW  490   1.525   2.861   2.052
  756SOL    HW1  491   1.462   2.785   2.065
  756SOL    HW2  492   1.573   2.879   2.138
  759SOL     OW  493   1.466   3.279   2.815
  759SOL    HW1  494   1.407   3.285   2.895
  759SOL    HW2  495   1.451   3.191   2.769
  760SOL     OW  496   1.667   3.576   2.434
  760SOL    HW1  497   1.626   3.553   2.346
  760SOL    HW2  498   1.649   3.502   2.499
  761SOL     OW  499   0.598   2.591   2.132
  761SOL    HW1  500   0.622   2.660   2.064
  761SOL    HW2  501   0.520   2.624   2.186
  762SOL     OW  502   1.281   2.207   2.806
  762SOL    HW1  503   1.195   2.157   2.793
  762SOL    HW2  504   1.343   2.153   2.862
  763SOL     OW  505   1.576   3.524   2.169
  763SOL    HW1  506   1.665   3.570   2.172
  763SOL    HW2  507   1.555   3.500   2.074
  765SOL     OW  508   1.394   2.331   3.536
  765SOL    HW1  509   1.374   2.374   3.624
  765SOL    HW2  510   1.472   2.269   3.545
  767SOL     OW  511   0.991   2.272   3.104
  767SOL    HW1  512   0.914   2.306   3.158
  767SOL    HW2  513   0.957   2.221   3.025
  768SOL     OW  514   1.041   2.563   2.291
  768SOL    HW1  515   1.067   2.559   2.387
  768SOL    HW2  516   0.956   2.512   2.277
  771SOL     OW  517   0.865   2.210   2.057
  771SOL    HW1  518   0.924   2.273   2.008
  771SOL    HW2  519   0.884   2.116   2.028
  772SOL     OW  520   1.719   2.447   3.693
  772SOL    HW1  521   1.693   2.536   3.657
  772SOL    HW2  522   1.717   2.379   3.620
  773SOL     OW  523   1.362   3.006   2.407
  773SOL    HW1  524   1.445   2.977   2.359
  773SOL    HW2  525   1.313   3.073   2.351
  774SOL     OW  526   0.550   2.058   2.747
  774SOL    HW1  527   0.545   2.053   2.847
  774SOL    HW2  528   0.552   2.154   2.718
  775SOL     OW  529   1.008   3.318   2.339
  775SOL    HW1  530   0.962   3.390   2.287
  775SOL    HW2  531   1.004   3.338   2.437
  777SOL     OW  532   1.795   2.928   2.735
  777SOL    HW1  533   1.733   2.913   2.659
  777SOL    HW2  534   1.743   2.939   2.820
  780SOL     OW  535   1.458   2.597   2.590
  780SOL    HW1  536   1.453   2.532   2.665
  780SOL    HW2  537   1.538   2.656   2.603
  784SOL     OW  538   1.632   3.239   1.943
  784SOL    HW1  539   1.600   3.333   1.933
  784SOL    HW2  540   1.556   3.176   1.931
  786SOL     OW  541   1.400   1.969   2.288
  786SOL    HW1  542   1.376   1.932   2.198
  786SOL    HW2  543   1.499   1.985   2.292
  790SOL     OW  544   1.547   2.084   3.591
  790SOL    HW1  545   1.542   2.121   3.683
  790SOL    HW2  546   1.475   2.015   3.579
  791SOL     OW  547   0.614   1.984   1.979
  791SOL    HW1  548   0.712   1.962   1.986
  791SOL    HW2  549   0.583   1.967   1.886
  794SOL     OW  550   1.351   2.452   3.295
  794SOL    HW1  551   1.379   2.409   3.380
  794SOL    HW2  552   1.376   2.548   3.296
  796SOL     OW  553   0.922   2.365   2.761
  796SOL    HW1  554   0.897   2.356   2.665
  796SOL    HW2  555   0.970   2.283   2.792
  797SOL     OW  556   0.539   1.926   2.374
  797SOL    HW1  557   0.458   1.927   2.432
  797SOL    HW2  558   0.542   2.009   2.319
  798SOL     OW  559   1.434   3.050   1.903
  798SOL    HW1  560   1.466   2.974   1.960
  798SOL    HW2  561   1.342   3.077   1.933
  800SOL     OW  562   0.935   2.098   2.342
  800SOL    HW1  563   0.887   2.139   2.264
  800SOL    HW2  564   1.034   2.096   2.323
  801SOL     OW  565   1.076   2.545   3.326
  801SOL    HW1  566   0.996   2.484   3.329
  801SOL    HW2  567   1.157   2.492   3.302
  802SOL     OW  568   1.227   3.432   2.655
  802SOL    HW1  569   1.248   3.506   2.590
  802SOL    HW2  570   1.295   3.432   2.728
  804SOL     OW  571   1.271   3.659   2.453
  804SOL    HW1  572   1.315   3.723   2.389
  804SOL    HW2  573   1.221   3.711   2.523
  805SOL     OW  574   1.032   2.411   1.878
  805SOL    HW1  575   0.991   2.493   1.839
  805SOL    HW2  576   1.096   2.437   1.951
  808SOL     OW  577   0.866   2.316   2.504
  808SOL    HW1  578   0.834   2.388   2.442
  808SOL    HW2  579   0.890   2.235   2.451
  809SOL     OW  580   1.017   1.901   2.615
  809SOL    HW1  581   0.945   1.906   2.546
  809SOL    HW2  582   0.993   1.832   2.684
  810SOL     OW  583   1.429   3.035   2.729
  810SOL    HW1  584   1.374   2.951   2.722
  810SOL    HW2  585   1.455   3.064   2.637
  811SOL     OW  586   1.466   2.452   2.854
  811SOL    HW1  587   1.436   2.357   2.861
  811SOL    HW2  588   1.539   2.468   2.920
  812SOL     OW  589   1.857   2.695   2.239
  812SOL    HW1  590   1.899   2.631   2.303
  812SOL    HW2  591   1.819   2.644   2.161
  814SOL     OW  592   1.664   3.142   2.519
  814SOL    HW1  593   1.763   3.150   2.533
  814SOL    HW2  594   1.619   3.226   2.550
  815SOL     OW  595   1.390   2.437   1.940
  815SOL    HW1  596   1.336   2.416   2.021
  815SOL    HW2  597   1.481   2.396   1.949
  816SOL     OW  598   0.527   2.118   2.190
  816SOL    HW1  599   0.554   2.059   2.115
  816SOL    HW2  600   0.527   2.213   2.159
  817SOL     OW  601   1.754   3.085   3.450
  817SOL    HW1  602   1.845   3.046   3.437
  817SOL    HW2  603   1.762   3.181   3.474
  818SOL     OW  604   1.064   3.209   3.202
  818SOL    HW1  605   0.984   3.186   3.257
  818SOL    HW2  606   1.147   3.183   3.251
  820SOL     OW  607   1.111   3.057   2.962
  820SOL    HW1  608   1.071   3.101   3.043
  820SOL    HW2  609   1.070   3.094   2.879
  821SOL     OW  610   1.638   2.961   2.941
  821SOL    HW1  611   1.643   3.042   3.000
  821SOL    HW2  612   1.552   2.963   2.890
  822SOL     OW  613   0.915   1.951   3.264
  822SOL    HW1  614   0.940   1.931   3.169
  822SOL    HW2  615   0.987   2.007   3.306
  824SOL     OW  616   0.705   2.912   2.230
  824SOL    HW1  617   0.691   2.919   2.329
  824SOL    HW2  618   0.789   2.861   2.212
  826SOL     OW  619   1.274   2.248   3.124
  826SOL    HW1  620   1.295   2.322   3.188
  826SOL    HW2  621   1.185   2.265   3.081
  829SOL     OW  622   0.566   2.399   2.727
  829SOL    HW1  623   0.578   2.465   2.653
  829SOL    HW2  624   0.612   2.433   2.810
  830SOL     OW  625   1.252   3.210   2.250
  830SOL    HW1  626   1.302   3.287   2.290
  830SOL    HW2  627   1.157   3.212   2.282
  831SOL     OW  628   1.272   3.307   3.004
  831SOL    HW1  629   1.319   3.320   3.091
  831SOL    HW2  630   1.206   3.233   3.013
  832SOL     OW  631   1.582   2.501   2.334
  832SOL    HW1  632   1.551   2.562   2.407
  832SOL    HW2  633   1.632   2.553   2.265
  835SOL     OW  634   1.587   2.641   3.532
  835SOL    HW1  635   1.495   2.679   3.527
  835SOL    HW2  636   1.647   2.688   3.467
  839SOL     OW  637   1.360   2.724   2.907
  839SOL    HW1  638   1.285   2.724   2.841
  839SOL    HW2  639   1.397   2.632   2.916
  840SOL     OW  640   1.209   2.387   2.137
  840SOL    HW1  641   1.222   2.303   2.191
  840SOL    HW2  642   1.180   2.461   2.197
  843SOL     OW  643   0.732   2.496   2.926
  843SOL    HW1  644   0.791   2.470   2.850
  843SOL    HW2  645   0.704   2.592   2.915
  844SOL     OW  646   1.728   2.797   3.716
  844SOL    HW1  647   1.682   2.790   3.627
  844SOL    HW2  648   1.666   2.841   3.782
  846SOL     OW  649   1.622   2.229   2.236
  846SOL    HW1  650   1.624   2.153   2.300
  846SOL    HW2  651   1.574   2.306   2.276
  847SOL     OW  652   1.023   2.628   2.828
  847SOL    HW1  653   1.038   2.649   2.924
  847SOL    HW2  654   0.993   2.533   2.819
  849SOL     OW  655   1.859   3.380   3.467
  849SOL    HW1  656   1.873   3.407   3.372
  849SOL    HW2  657   1.942   3.402   3.520
  851SOL     OW  658   1.540   2.136   1.987
  851SOL    HW1  659   1.479   2.061   2.010
  851SOL    HW2  660   1.562   2.188   2.070
  852SOL     OW  661   1.303   2.700   1.904
  852SOL    HW1  662   1.337   2.607   1.919
  852SOL    HW2  663   1.321   2.727   1.809
  853SOL     OW  664   1.068   3.195   2.711
  853SOL    HW1  665   1.075   3.111   2.656
  853SOL    HW2  666   1.130   3.264   2.675
  856SOL     OW  667   1.138   2.242   3.540
  856SOL    HW1  668   1.093   2.305   3.604
  856SOL    HW2  669   1.231   2.273   3.523
  857SOL     OW  670   1.160   2.069   3.339
  857SOL    HW1  671   1.160   2.133   3.416
  857SOL    HW2  672   1.188   2.117   3.256
  861SOL     OW  673   1.002   2.658   3.100
  861SOL    HW1  674   1.043   2.626   3.186
  861SOL    HW2  675   0.906   2.631   3.097
  864SOL     OW  676   1.369   2.812   3.522
  864SOL    HW1  677   1.408   2.901   3.542
  864SOL    HW2  678   1.379   2.792   3.425
  865SOL     OW  679   0.815   2.434   2.187
  865SOL    HW1  680   0.822   2.345   2.141
  865SOL    HW2  681   0.721   2.468   2.179
  866SOL     OW  682   1.657   2.466   3.068
  866SOL    HW1  683   1.619   2.397   3.130
  866SOL    HW2  684   1.739   2.430   3.024
  872SOL     OW  685   1.347   2.921   3.096
  872SOL    HW1  686   1.371   2.858   3.022
  872SOL    HW2  687   1.257   2.961   3.078
  873SOL     OW  688   1.302   2.717   2.171
  873SOL    HW1  689   1.216   2.686   2.213
  873SOL    HW2  690   1.298   2.703   2.072
  874SOL     OW  691   1.759   3.609   3.016
  874SOL    HW1  692   1.820   3.639   2.943
  874SOL    HW2  693   1.721   3.520   2.994
  878SOL     OW  694   1.726   1.997   2.385
  878SOL    HW1  695   1.799   1.980   2.318
  878SOL    HW2  696   1.695   1.910   2.423
  879SOL     OW  697   1.388   3.435   2.339
  879SOL    HW1  698   1.455   3.447   2.265
  879SOL    HW2  699   1.348   3.524   2.362
  881SOL     OW  700   1.280   2.789   2.534
  881SOL    HW1  701   1.340   2.708   2.536
  881SOL    HW2  702   1.320   2.858   2.474
  884SOL     OW  703   1.650   3.582   3.256
  884SOL    HW1  704   1.703   3.592   3.172
  884SOL    HW2  705   1.623   3.672   3.290
  885SOL     OW  706   1.841   2.037   2.825
  885SOL    HW1  707   1.880   1.952   2.789
  885SOL    HW2  708   1.743   2.039   2.806
  887SOL     OW  709   1.194   3.474   1.893
  887SOL    HW1  710   1.200   3.381   1.930
  887SOL    HW2  711   1.135   3.474   1.813
  889SOL     OW  712   0.916   2.772   2.153
  889SOL    HW1  713   0.979   2.810   2.085
  889SOL    HW2  714   0.956   2.689   2.192
  890SOL     OW  715   1.504   3.469   1.906
  890SOL    HW1  716   1.412   3.506   1.913
  890SOL    HW2  717   1.542   3.489   1.816
  892SOL     OW  718   1.614   3.154   3.151
  892SOL    HW1  719   1.674   3.157   3.231
  892SOL    HW2  720   1.539   3.218   3.164
  893SOL     OW  721   1.039   2.960   2.558
  893SOL    HW1  722   0.969   2.913   2.612
  893SOL    HW2  723   1.098   2.892   2.515
  894SOL     OW  724   1.014   2.098   2.833
  894SOL    HW1  725   1.006   2.062   2.740
  894SOL    HW2  726   1.012   2.022   2.898
  896SOL     OW  727   1.709   2.247   3.243
  896SOL    HW1  728   1.782   2.316   3.247
  896SOL    HW2  729   1.737   2.172   3.184
  901SOL     OW  730   1.440   2.718   3.260
  901SOL    HW1  731   1.383   2.770   3.197
  901SOL    HW2  732   1.536   2.730   3.236
  903SOL     OW  733   1.183   3.197   1.981
  903SOL    HW1  734   1.084   3.186   1.983
  903SOL    HW2  735   1.217   3.212   2.074
  905SOL     OW  736   1.493   3.629   2.821
  905SOL    HW1  737   1.526   3.693   2.752
  905SOL    HW2  738   1.559   3.623   2.896
  907SOL     OW  739   1.450   3.082   3.495
  907SOL    HW1  740   1.441   3.072   3.594
  907SOL    HW2  741   1.546   3.075   3.469
  909SOL     OW  742   1.674   2.745   3.116
  909SOL    HW1  743   1.647   2.656   3.079
  909SOL    HW2  744   1.675   2.813   3.043
  910SOL     OW  745   1.225   2.187   2.311
  910SOL    HW1  746   1.290   2.113   2.300
  910SOL    HW2  747   1.245   2.237   2.395
  911SOL     OW  748   0.594   2.607   2.514
  911SOL    HW1  749   0.644   2.692   2.495
  911SOL    HW2  750   0.506   2.609   2.466
  912SOL     OW  751   1.777   2.204   3.504
  912SOL    HW1  752   1.760   2.235   3.410
  912SOL    HW2  753   1.693   2.167   3.542
  913SOL     OW  754   1.730   2.796   3.379
  913SOL    HW1  755   1.768   2.887   3.394
  913SOL    HW2  756   1.722   2.779   3.280
  914SOL     OW  757   0.859   3.236   1.878
  914SOL    HW1  758   0.813   3.251   1.966
  914SOL    HW2  759   0.903   3.321   1.848
  916SOL     OW  760   0.859   2.818   2.723
  916SOL    HW1  761   0.913   2.749   2.771
  916SOL    HW2  762   0.827   2.887   2.789
  917SOL     OW  763   1.083   2.846   1.949
  917SOL    HW1  764   1.060   2.899   1.867
  917SOL    HW2  765   1.164   2.790   1.930
  918SOL     OW  766   1.861   3.431   2.713
  918SOL    HW1  767   1.790   3.419   2.643
  918SOL    HW2  768   1.862   3.352   2.773
  922SOL     OW  769   1.824   2.054   3.089
  922SOL    HW1  770   1.820   1.964   3.133
  922SOL    HW2  771   1.827   2.043   2.990
  924SOL     OW  772   1.705   3.349   2.966
  924SOL    HW1  773   1.612   3.324   2.939
  924SOL    HW2  774   1.731   3.299   3.048
  927SOL     OW  775   1.424   2.076   2.974
  927SOL    HW1  776   1.476   2.011   3.029
  927SOL    HW2  777   1.375   2.139   3.035
  928SOL     OW  778   1.001   1.896   3.016
  928SOL    HW1  779   0.938   1.824   2.985
  928SOL    HW2  780   1.094   1.860   3.016
  929SOL     OW  781   0.770   3.192   2.163
  929SOL    HW1  782   0.724   3.105   2.180
  929SOL    HW2  783   0.861   3.189   2.204
  931SOL     OW  784   1.352   1.914   2.030
  931SOL    HW1  785   1.387   1.873   1.946
  931SOL    HW2  786   1.262   1.876   2.050
  932SOL     OW  787   1.300   2.315   2.553
  932SOL    HW1  788   1.241   2.395   2.557
  932SOL    HW2  789   1.315   2.280   2.646
  933SOL     OW  790   1.593   2.083   2.744
  933SOL    HW1  791   1.509   2.082   2.798
  933SOL    HW2  792   1.595   2.166   2.688
  938SOL     OW  793   1.755   2.469   3.955
  938SOL    HW1  794   1.743   2.456   3.856
  938SOL    HW2  795   1.725   2.388   4.004
  982SOL     OW  796   1.390   2.437   3.802
  982SOL    HW1  797   1.336   2.416   3.883
  982SOL    HW2  798   1.481   2.396   3.811
  991SOL     OW  799   1.540   2.136   3.849
  991SOL    HW1  800   1.479   2.061   3.872
  991SOL    HW2  801   1.562   2.188   3.932
 1141SOL     OW  802   1.400   3.831   2.288
 1141SOL    HW1  803   1.376   3.794   2.198
 1141SOL    HW2  804   1.499   3.847   2.292
 1187SOL     OW  805   1.726   3.859   2.385
 1187SOL    HW1  806   1.799   3.842   2.318
 1187SOL    HW2  807   1.695   3.772   2.423
 1189SOL     OW  808   1.841   3.899   2.825
 1189SOL    HW1  809   1.880   3.814   2.789
 1189SOL    HW2  810   1.743   3.901   2.806
 1209SOL     OW  811   1.352   3.776   2.030
 1209SOL    HW1  812   1.387   3.735   1.946
 1209SOL    HW2  813   1.262   3.738   2.050
 1256SOL     OW  814   2.431   1.275   1.165
 1256SOL    HW1  815   2.338   1.268   1.128
 1256SOL    HW2  816   2.442   1.364   1.209
 1260SOL     OW  817   2.630   1.144   1.023
 1260SOL    HW1  818   2.552   1.161   1.083
 1260SOL    HW2  819   2.664   1.231   0.987
 1261SOL     OW  820   2.712   0.798   1.823
 1261SOL    HW1  821   2.708   0.874   1.888
 1261SOL    HW2  822   2.734   0.834   1.732
 1263SOL     OW  823   2.548   1.161   1.803
 1263SOL    HW1  824   2.608   1.240   1.817
 1263SOL    HW2  825   2.462   1.192   1.762
 1264SOL     OW  826   2.197   1.435   1.061
 1264SOL    HW1  827   2.119   1.404   1.008
 1264SOL    HW2  828   2.255   1.493   1.004
 1265SOL     OW  829   3.322   1.505   1.339
 1265SOL    HW1  830   3.346   1.599   1.365
 1265SOL    HW2  831   3.306   1.451   1.421
 1269SOL     OW  832   2.989   1.341   1.690
 1269SOL    HW1  833   3.036   1.341   1.778
 1269SOL    HW2  834   2.941   1.254   1.679
 1272SOL     OW  835   2.482   1.786   1.439
 1272SOL    HW1  836   2.390   1.769   1.474
 1272SOL    HW2  837   2.510   1.878   1.465
 1280SOL     OW  838   1.975   0.737   1.597
 1280SOL    HW1  839   2.063   0.724   1.642
 1280SOL    HW2  840   1.962   0.834   1.575
 1281SOL     OW  841   2.475   1.365   0.726
 1281SOL    HW1  842   2.426   1.278   0.735
 1281SOL    HW2  843   2.452   1.408   0.639
 1282SOL     OW  844   3.155   1.228   1.423
 1282SOL    HW1  845   3.192   1.155   1.365
 1282SOL    HW2  846   3.207   1.233   1.508
 1284SOL     OW  847   2.059   0.976   1.264
 1284SOL    HW1  848   2.148   0.931   1.250
 1284SOL    HW2  849   1.986   0.911   1.245
 1286SOL     OW  850   3.049   1.792   1.616
 1286SOL    HW1  851   3.073   1.852   1.540
 1286SOL    HW2  852   3.056   1.697   1.586
 1295SOL     OW  853   2.835   0.890   1.572
 1295SOL    HW1  854   2.881   0.806   1.543
 1295SOL    HW2  855   2.779   0.924   1.497
 1299SOL     OW  856   1.992   1.821   1.571
 1299SOL    HW1  857   1.982   1.806   1.670
 1299SOL    HW2  858   1.906   1.857   1.535
 1305SOL     OW  859   2.213   1.801   0.853
 1305SOL    HW1  860   2.263   1.715   0.859
 1305SOL    HW2  861   2.278   1.878   0.850
 1307SOL     OW  862   3.089   1.550   1.506
 1307SOL    HW1  863   3.095   1.473   1.570
 1307SOL    HW2  864   3.037   1.524   1.426
 1310SOL     OW  865   2.323   1.266   1.727
 1310SOL    HW1  866   2.273   1.267   1.641
 1310SOL    HW2  867   2.260   1.248   1.803
 1316SOL     OW  868   2.111   1.785   1.241
 1316SOL    HW1  869   2.168   1.720   1.291
 1316SOL    HW2  870   2.095   1.752   1.148
 1317SOL     OW  871   2.802   1.698   0.904
 1317SOL    HW1  872   2.882   1.641   0.925
 1317SOL    HW2  873   2.753   1.658   0.827
 1322SOL     OW  874   2.750   1.514   1.195
 1322SOL    HW1  875   2.727   1.489   1.101
 1322SOL    HW2  876   2.811   1.445   1.234
 1324SOL     OW  877   2.665   1.402   0.924
 1324SOL    HW1  878   2.755   1.416   0.882
 1324SOL    HW2  879   2.594   1.404   0.853
 1347SOL     OW  880   2.926   1.347   1.340
 1347SOL    HW1  881   2.846   1.324   1.395
 1347SOL    HW2  882   3.009   1.321   1.389
 1348SOL     OW  883   3.454   1.629   1.625
 1348SOL    HW1  884   3.481   1.663   1.535
 1348SOL    HW2  885   3.533   1.591   1.671
 1349SOL     OW  886   2.973   1.195   1.100
 1349SOL    HW1  887   2.933   1.239   1.181
 1349SOL    HW2  888   2.932   1.232   1.017
 1352SOL     OW  889   2.842   1.116   1.719
 1352SOL    HW1  890   2.743   1.122   1.729
 1352SOL    HW2  891   2.865   1.036   1.663
 1354SOL     OW  892   2.272   0.813   1.251
 1354SOL    HW1  893   2.358   0.825   1.301
 1354SOL    HW2  894   2.230   0.726   1.278
 1356SOL     OW  895   1.926   1.564   1.331
 1356SOL    HW1  896   1.880   1.646   1.297
 1356SOL    HW2  897   2.024   1.583   1.340
 1360SOL     OW  898   3.134   1.445   1.142
 1360SOL    HW1  899   3.181   1.458   1.229
 1360SOL    HW2  900   3.068   1.371   1.151
 1362SOL     OW  901   2.216   1.510   1.329
 1362SOL    HW1  902   2.195   1.466   1.242
 1362SOL    HW2  903   2.313   1.536   1.332
 1363SOL     OW  904   2.264   0.751   1.598
 1363SOL    HW1  905   2.332   0.806   1.551
 1363SOL    HW2  906   2.304   0.663   1.625
 1371SOL     OW  907   1.899   1.310   1.282
 1371SOL    HW1  908   1.952   1.261   1.350
 1371SOL    HW2  909   1.921   1.408   1.287
 1377SOL     OW  910   2.842   1.573   1.700
 1377SOL    HW1  911   2.822   1.617   1.612
 1377SOL    HW2  912   2.881   1.482   1.684
 1378SOL     OW  913   3.721   1.518   1.605
 1378SOL    HW1  914   3.735   1.545   1.510
 1378SOL    HW2  915   3.804   1.540   1.658
 1379SOL     OW  916   2.212   0.898   1.804
 1379SOL    HW1  917   2.288   0.942   1.852
 1379SOL    HW2  918   2.247   0.851   1.722
 1388SOL     OW  919   1.950   1.801   0.927
 1388SOL    HW1  920   1.908   1.715   0.900
 1388SOL    HW2  921   2.044   1.804   0.893
 1389SOL     OW  922   2.366   1.568   0.910
 1389SOL    HW1  923   2.432   1.642   0.919
 1389SOL    HW2  924   2.410   1.489   0.868
 1393SOL     OW  925   3.231   0.950   1.660
 1393SOL    HW1  926   3.270   1.039   1.680
 1393SOL    HW2  927   3.241   0.930   1.563
 1396SOL     OW  928   2.114   1.564   1.744
 1396SOL    HW1  929   2.084   1.621   1.820
 1396SOL    HW2  930   2.107   1.467   1.770
 1398SOL     OW  931   2.792   1.678   1.465
 1398SOL    HW1  932   2.768   1.660   1.370
 1398SOL    HW2  933   2.822   1.772   1.475
 1400SOL     OW  934   2.021   1.137   1.466
 1400SOL    HW1  935   2.043   1.076   1.542
 1400SOL    HW2  936   2.031   1.088   1.380
 1404SOL     OW  937   3.114   1.731   1.128
 1404SOL    HW1  938   3.198   1.736   1.074
 1404SOL    HW2  939   3.091   1.635   1.146
 1405SOL     OW  940   1.945   1.258   1.022
 1405SOL    HW1  941   1.940   1.257   1.122
 1405SOL    HW2  942   1.862   1.217   0.984
 1406SOL     OW  943   2.550   1.662   1.716
 1406SOL    HW1  944   2.494   1.743   1.725
 1406SOL    HW2  945   2.602   1.666   1.630
 1410SOL     OW  946   1.992   1.794   1.851
 1410SOL    HW1  947   1.951   1.720   1.904
 1410SOL    HW2  948   2.056   1.845   1.909
 1412SOL     OW  949   2.692   1.273   1.422
 1412SOL    HW1  950   2.687   1.306   1.517
 1412SOL    HW2  951   2.606   1.292   1.376
 1414SOL     OW  952   3.512   1.720   1.394
 1414SOL    HW1  953   3.565   1.730   1.310
 1414SOL    HW2  954   3.485   1.810   1.428
 1418SOL     OW  955   2.684   1.002   1.372
 1418SOL    HW1  956   2.724   1.001   1.280
 1418SOL    HW2  957   2.694   1.094   1.412
 1421SOL     OW  958   2.234   1.288   1.490
 1421SOL    HW1  959   2.221   1.381   1.456
 1421SOL    HW2  960   2.150   1.236   1.477
 1428SOL     OW  961   1.967   1.013   1.726
 1428SOL    HW1  962   1.890   0.980   1.780
 1428SOL    HW2  963   2.052   0.983   1.768
 1434SOL     OW  964   2.475   0.842   1.431
 1434SOL    HW1  965   2.531   0.923   1.414
 1434SOL    HW2  966   2.534   0.762   1.434
 1435SOL     OW  967   3.355   1.767   0.959
 1435SOL    HW1  968   3.388   1.831   0.890
 1435SOL    HW2  969   3.421   1.761   1.034
 1437SOL     OW  970   3.312   1.220   1.633
 1437SOL    HW1  971   3.303   1.210   1.732
 1437SOL    HW2  972   3.408   1.213   1.607
 1438SOL     OW  973   2.252   1.741   1.560
 1438SOL    HW1  974   2.161   1.782   1.558
 1438SOL    HW2  975   2.245   1.647   1.592
 1445SOL     OW  976   2.523   1.790   0.953
 1445SOL    HW1  977   2.477   1.878   0.940
 1445SOL    HW2  978   2.622   1.802   0.946
 1449SOL     OW  979   2.083   1.314   1.844
 1449SOL    HW1  980   2.018   1.241   1.823
 1449SOL    HW2  981   2.087   1.328   1.942
 1451SOL     OW  982   2.534   1.391   1.624
 1451SOL    HW1  983   2.456   1.341   1.662
 1451SOL    HW2  984   2.531   1.486   1.655
 1456SOL     OW  985   2.674   1.586   0.687
 1456SOL    HW1  986   2.706   1.596   0.593
 1456SOL    HW2  987   2.595   1.524   0.689
 1460SOL     OW  988   2.480   1.567   1.284
 1460SOL    HW1  989   2.475   1.649   1.341
 1460SOL    HW2  990   2.569   1.564   1.239
 1466SOL     OW  991   2.092   0.628   1.975
 1466SOL    HW1  992   1.999   0.626   2.012
 1466SOL    HW2  993   2.093   0.589   1.883
 1469SOL     OW  994   2.431   1.275   3.027
 1469SOL    HW1  995   2.338   1.268   2.990
 1469SOL    HW2  996   2.442   1.364   3.071
 1470SOL     OW  997   3.417   1.511   2.565
 1470SOL    HW1  998   3.360   1.495   2.646
 1470SOL    HW2  999   3.358   1.521   2.485
 1471SOL     OW 1000   2.997   0.703   2.579
 1471SOL    HW1 1001   3.054   0.781   2.554
 1471SOL    HW2 1002   2.937   0.729   2.655
 1473SOL     OW 1003   2.630   1.144   2.885
 1473SOL    HW1 1004   2.552   1.161   2.945
 1473SOL    HW2 1005   2.664   1.231   2.849
 1475SOL     OW 1006   2.547   1.012   2.527
 1475SOL    HW1 1007   2.616   0.996   2.597
 1475SOL    HW2 1008   2.474   1.069   2.565
 1477SOL     OW 1009   2.197   1.435   2.923
 1477SOL    HW1 1010   2.119   1.404   2.870
 1477SOL    HW2 1011   2.255   1.493   2.866
 1478SOL     OW 1012   3.322   1.505   3.201
 1478SOL    HW1 1013   3.346   1.599   3.227
 1478SOL    HW2 1014   3.306   1.451   3.283
 1481SOL     OW 1015   2.093   1.713   2.345
 1481SOL    HW1 1016   2.127   1.790   2.399
 1481SOL    HW2 1017   2.137   1.713   2.255
 1482SOL     OW 1018   2.989   1.341   3.552
 1482SOL    HW1 1019   3.036   1.341   3.640
 1482SOL    HW2 1020   2.941   1.254   3.541
 1483SOL     OW 1021   2.092   1.434   2.400
 1483SOL    HW1 1022   2.066   1.530   2.400
 1483SOL    HW2 1023   2.021   1.380   2.445
 1484SOL     OW 1024   2.102   1.091   2.748
 1484SOL    HW1 1025   2.116   1.007   2.800
 1484SOL    HW2 1026   2.047   1.155   2.803
 1485SOL     OW 1027   2.482   1.786   3.301
 1485SOL    HW1 1028   2.390   1.769   3.336
 1485SOL    HW2 1029   2.510   1.878   3.327
 1486SOL     OW 1030   2.468   0.964   1.985
 1486SOL    HW1 1031   2.475   1.048   1.931
 1486SOL    HW2 1032   2.514   0.977   2.073
 1488SOL     OW 1033   1.984   0.643   2.425
 1488SOL    HW1 1034   1.939   0.555   2.442
 1488SOL    HW2 1035   1.983   0.697   2.509
 1489SOL     OW 1036   3.704   1.767   2.221
 1489SOL    HW1 1037   3.758   1.738   2.301
 1489SOL    HW2 1038   3.734   1.857   2.192
 1490SOL     OW 1039   1.889   1.596   1.979
 1490SOL    HW1 1040   1.870   1.500   2.000
 1490SOL    HW2 1041   1.856   1.654   2.054
 1492SOL     OW 1042   3.503   1.108   2.294
 1492SOL    HW1 1043   3.589   1.110   2.242
 1492SOL    HW2 1044   3.517   1.155   2.382
 1494SOL     OW 1045   2.475   1.365   2.588
 1494SOL    HW1 1046   2.426   1.278   2.597
 1494SOL    HW2 1047   2.452   1.408   2.501
 1495SOL     OW 1048   3.155   1.228   3.285
 1495SOL    HW1 1049   3.192   1.155   3.227
 1495SOL    HW2 1050   3.207   1.233   3.370
 1497SOL     OW 1051   2.059   0.976   3.126
 1497SOL    HW1 1052   2.148   0.931   3.112
 1497SOL    HW2 1053   1.986   0.911   3.107
 1498SOL     OW 1054   3.387   0.999   2.052
 1498SOL    HW1 1055   3.324   0.923   2.065
 1498SOL    HW2 1056   3.435   1.017   2.138
 1499SOL     OW 1057   3.049   1.792   3.478
 1499SOL    HW1 1058   3.073   1.852   3.402
 1499SOL    HW2 1059   3.056   1.697   3.448
 1501SOL     OW 1060   3.328   1.417   2.815
 1501SOL    HW1 1061   3.269   1.423   2.895
 1501SOL    HW2 1062   3.313   1.329   2.769
 1502SOL     OW 1063   3.529   1.714   2.434
 1502SOL    HW1 1064   3.488   1.691   2.346
 1502SOL    HW2 1065   3.511   1.640   2.499
 1503SOL     OW 1066   2.460   0.729   2.132
 1503SOL    HW1 1067   2.484   0.798   2.064
 1503SOL    HW2 1068   2.382   0.762   2.186
 1505SOL     OW 1069   3.438   1.662   2.169
 1505SOL    HW1 1070   3.527   1.708   2.172
 1505SOL    HW2 1071   3.417   1.638   2.074
 1510SOL     OW 1072   2.903   0.701   2.291
 1510SOL    HW1 1073   2.929   0.697   2.387
 1510SOL    HW2 1074   2.818   0.650   2.277
 1511SOL     OW 1075   1.938   0.811   2.651
 1511SOL    HW1 1076   2.037   0.799   2.660
 1511SOL    HW2 1077   1.914   0.906   2.672
 1512SOL     OW 1078   1.992   1.821   3.433
 1512SOL    HW1 1079   1.982   1.806   3.532
 1512SOL    HW2 1080   1.906   1.857   3.397
 1515SOL     OW 1081   3.224   1.144   2.407
 1515SOL    HW1 1082   3.307   1.115   2.359
 1515SOL    HW2 1083   3.175   1.211   2.351
 1517SOL     OW 1084   2.870   1.456   2.339
 1517SOL    HW1 1085   2.824   1.528   2.287
 1517SOL    HW2 1086   2.866   1.476   2.437
 1518SOL     OW 1087   2.213   1.801   2.715
 1518SOL    HW1 1088   2.263   1.715   2.721
 1518SOL    HW2 1089   2.278   1.878   2.712
 1520SOL     OW 1090   3.089   1.550   3.368
 1520SOL    HW1 1091   3.095   1.473   3.432
 1520SOL    HW2 1092   3.037   1.524   3.288
 1521SOL     OW 1093   2.183   0.943   2.104
 1521SOL    HW1 1094   2.265   0.982   2.062
 1521SOL    HW2 1095   2.156   0.861   2.055
 1523SOL     OW 1096   2.323   1.266   3.589
 1523SOL    HW1 1097   2.273   1.267   3.503
 1523SOL    HW2 1098   2.260   1.248   3.665
 1524SOL     OW 1099   2.973   1.776   2.099
 1524SOL    HW1 1100   2.913   1.714   2.149
 1524SOL    HW2 1101   3.004   1.732   2.014
 1526SOL     OW 1102   3.494   1.377   1.943
 1526SOL    HW1 1103   3.462   1.471   1.933
 1526SOL    HW2 1104   3.418   1.314   1.931
 1527SOL     OW 1105   2.326   1.743   2.185
 1527SOL    HW1 1106   2.359   1.782   2.271
 1527SOL    HW2 1107   2.402   1.736   2.120
 1529SOL     OW 1108   2.111   1.785   3.103
 1529SOL    HW1 1109   2.168   1.720   3.153
 1529SOL    HW2 1110   2.095   1.752   3.010
 1530SOL     OW 1111   2.802   1.698   2.766
 1530SOL    HW1 1112   2.882   1.641   2.787
 1530SOL    HW2 1113   2.753   1.658   2.689
 1531SOL     OW 1114   2.244   0.700   2.342
 1531SOL    HW1 1115   2.289   0.610   2.339
 1531SOL    HW2 1116   2.150   0.689   2.375
 1535SOL     OW 1117   2.750   1.514   3.057
 1535SOL    HW1 1118   2.727   1.489   2.963
 1535SOL    HW2 1119   2.811   1.445   3.096
 1537SOL     OW 1120   2.665   1.402   2.786
 1537SOL    HW1 1121   2.755   1.416   2.744
 1537SOL    HW2 1122   2.594   1.404   2.715
 1540SOL     OW 1123   3.296   1.188   1.903
 1540SOL    HW1 1124   3.328   1.112   1.960
 1540SOL    HW2 1125   3.204   1.215   1.933
 1544SOL     OW 1126   3.089   1.570   2.655
 1544SOL    HW1 1127   3.110   1.644   2.590
 1544SOL    HW2 1128   3.157   1.570   2.728
 1545SOL     OW 1129   2.321   1.152   2.603
 1545SOL    HW1 1130   2.250   1.125   2.668
 1545SOL    HW2 1131   2.295   1.124   2.510
 1546SOL     OW 1132   3.133   1.797   2.453
 1546SOL    HW1 1133   3.177   1.861   2.389
 1546SOL    HW2 1134   3.083   1.849   2.523
 1552SOL     OW 1135   3.291   1.173   2.729
 1552SOL    HW1 1136   3.236   1.089   2.722
 1552SOL    HW2 1137   3.317   1.202   2.637
 1555SOL     OW 1138   2.350   1.385   2.036
 1555SOL    HW1 1139   2.263   1.370   2.083
 1555SOL    HW2 1140   2.333   1.411   1.941
 1556SOL     OW 1141   3.526   1.280   2.519
 1556SOL    HW1 1142   3.625   1.288   2.533
 1556SOL    HW2 1143   3.481   1.364   2.550
 1560SOL     OW 1144   2.926   1.347   3.202
 1560SOL    HW1 1145   2.846   1.324   3.257
 1560SOL    HW2 1146   3.009   1.321   3.251
 1562SOL     OW 1147   2.973   1.195   2.962
 1562SOL    HW1 1148   2.933   1.239   3.043
 1562SOL    HW2 1149   2.932   1.232   2.879
 1566SOL     OW 1150   2.567   1.050   2.230
 1566SOL    HW1 1151   2.553   1.057   2.329
 1566SOL    HW2 1152   2.651   0.999   2.212
 1567SOL     OW 1153   2.272   0.813   3.113
 1567SOL    HW1 1154   2.358   0.825   3.163
 1567SOL    HW2 1155   2.230   0.726   3.140
 1569SOL     OW 1156   1.926   1.564   3.193
 1569SOL    HW1 1157   1.880   1.646   3.159
 1569SOL    HW2 1158   2.024   1.583   3.202
 1570SOL     OW 1159   2.229   1.100   2.363
 1570SOL    HW1 1160   2.222   1.183   2.307
 1570SOL    HW2 1161   2.233   1.020   2.303
 1571SOL     OW 1162   2.428   0.537   2.727
 1571SOL    HW1 1163   2.440   0.603   2.653
 1571SOL    HW2 1164   2.474   0.571   2.810
 1572SOL     OW 1165   3.114   1.348   2.250
 1572SOL    HW1 1166   3.164   1.425   2.290
 1572SOL    HW2 1167   3.019   1.350   2.282
 1573SOL     OW 1168   3.134   1.445   3.004
 1573SOL    HW1 1169   3.181   1.458   3.091
 1573SOL    HW2 1170   3.068   1.371   3.013
 1575SOL     OW 1171   2.216   1.510   3.191
 1575SOL    HW1 1172   2.195   1.466   3.104
 1575SOL    HW2 1173   2.313   1.536   3.194
 1580SOL     OW 1174   2.435   0.870   2.891
 1580SOL    HW1 1175   2.479   0.959   2.882
 1580SOL    HW2 1176   2.372   0.870   2.968
 1584SOL     OW 1177   1.899   1.310   3.144
 1584SOL    HW1 1178   1.952   1.261   3.212
 1584SOL    HW2 1179   1.921   1.408   3.149
 1585SOL     OW 1180   2.594   0.634   2.926
 1585SOL    HW1 1181   2.653   0.608   2.850
 1585SOL    HW2 1182   2.566   0.730   2.915
 1589SOL     OW 1183   2.885   0.766   2.828
 1589SOL    HW1 1184   2.900   0.787   2.924
 1589SOL    HW2 1185   2.855   0.671   2.819
 1590SOL     OW 1186   2.842   1.573   3.562
 1590SOL    HW1 1187   2.822   1.617   3.474
 1590SOL    HW2 1188   2.881   1.482   3.546
 1594SOL     OW 1189   3.165   0.838   1.904
 1594SOL    HW1 1190   3.199   0.745   1.919
 1594SOL    HW2 1191   3.183   0.865   1.809
 1595SOL     OW 1192   2.930   1.333   2.711
 1595SOL    HW1 1193   2.937   1.249   2.656
 1595SOL    HW2 1194   2.992   1.402   2.675
 1596SOL     OW 1195   2.181   0.810   2.811
 1596SOL    HW1 1196   2.274   0.846   2.816
 1596SOL    HW2 1197   2.175   0.725   2.863
 1600SOL     OW 1198   1.870   1.326   2.062
 1600SOL    HW1 1199   1.777   1.347   2.031
 1600SOL    HW2 1200   1.880   1.227   2.075
 1601SOL     OW 1201   1.950   1.801   2.789
 1601SOL    HW1 1202   1.908   1.715   2.762
 1601SOL    HW2 1203   2.044   1.804   2.755
 1602SOL     OW 1204   2.366   1.568   2.772
 1602SOL    HW1 1205   2.432   1.642   2.781
 1602SOL    HW2 1206   2.410   1.489   2.730
 1603SOL     OW 1207   2.864   0.796   3.100
 1603SOL    HW1 1208   2.905   0.764   3.186
 1603SOL    HW2 1209   2.768   0.769   3.097
 1607SOL     OW 1210   2.677   0.572   2.187
 1607SOL    HW1 1211   2.684   0.483   2.141
 1607SOL    HW2 1212   2.583   0.606   2.179
 1609SOL     OW 1213   2.114   1.564   3.606
 1609SOL    HW1 1214   2.084   1.621   3.682
 1609SOL    HW2 1215   2.107   1.467   3.632
 1611SOL     OW 1216   2.792   1.678   3.327
 1611SOL    HW1 1217   2.768   1.660   3.232
 1611SOL    HW2 1218   2.822   1.772   3.337
 1612SOL     OW 1219   2.335   0.500   2.053
 1612SOL    HW1 1220   2.396   0.580   2.057
 1612SOL    HW2 1221   2.240   0.531   2.060
 1613SOL     OW 1222   2.021   1.137   3.328
 1613SOL    HW1 1223   2.043   1.076   3.404
 1613SOL    HW2 1224   2.031   1.088   3.242
 1614SOL     OW 1225   3.209   1.059   3.096
 1614SOL    HW1 1226   3.233   0.996   3.022
 1614SOL    HW2 1227   3.119   1.099   3.078
 1615SOL     OW 1228   3.164   0.855   2.171
 1615SOL    HW1 1229   3.078   0.824   2.213
 1615SOL    HW2 1230   3.160   0.841   2.072
 1616SOL     OW 1231   3.621   1.747   3.016
 1616SOL    HW1 1232   3.682   1.777   2.943
 1616SOL    HW2 1233   3.583   1.658   2.994
 1617SOL     OW 1234   3.114   1.731   2.990
 1617SOL    HW1 1235   3.198   1.736   2.936
 1617SOL    HW2 1236   3.091   1.635   3.008
 1618SOL     OW 1237   1.945   1.258   2.884
 1618SOL    HW1 1238   1.940   1.257   2.984
 1618SOL    HW2 1239   1.862   1.217   2.846
 1619SOL     OW 1240   2.550   1.662   3.578
 1619SOL    HW1 1241   2.494   1.743   3.587
 1619SOL    HW2 1242   2.602   1.666   3.492
 1621SOL     OW 1243   3.250   1.573   2.339
 1621SOL    HW1 1244   3.317   1.585   2.265
 1621SOL    HW2 1245   3.210   1.662   2.362
 1622SOL     OW 1246   1.992   1.794   3.713
 1622SOL    HW1 1247   1.951   1.720   3.766
 1622SOL    HW2 1248   2.056   1.845   3.771
 1623SOL     OW 1249   3.142   0.927   2.534
 1623SOL    HW1 1250   3.202   0.846   2.536
 1623SOL    HW2 1251   3.182   0.996   2.474
 1624SOL     OW 1252   2.692   1.273   3.284
 1624SOL    HW1 1253   2.687   1.306   3.379
 1624SOL    HW2 1254   2.606   1.292   3.238
 1625SOL     OW 1255   2.534   1.616   2.016
 1625SOL    HW1 1256   2.543   1.626   1.917
 1625SOL    HW2 1257   2.494   1.527   2.037
 1626SOL     OW 1258   3.512   1.720   3.256
 1626SOL    HW1 1259   3.565   1.730   3.172
 1626SOL    HW2 1260   3.485   1.810   3.290
 1629SOL     OW 1261   3.056   1.612   1.893
 1629SOL    HW1 1262   3.062   1.519   1.930
 1629SOL    HW2 1263   2.997   1.612   1.813
 1630SOL     OW 1264   2.684   1.002   3.234
 1630SOL    HW1 1265   2.724   1.001   3.142
 1630SOL    HW2 1266   2.694   1.094   3.274
 1631SOL     OW 1267   2.778   0.910   2.153
 1631SOL    HW1 1268   2.841   0.948   2.085
 1631SOL    HW2 1269   2.818   0.827   2.192
 1632SOL     OW 1270   3.366   1.607   1.906
 1632SOL    HW1 1271   3.274   1.644   1.913
 1632SOL    HW2 1272   3.404   1.627   1.816
 1633SOL     OW 1273   2.234   1.288   3.352
 1633SOL    HW1 1274   2.221   1.381   3.318
 1633SOL    HW2 1275   2.150   1.236   3.339
 1634SOL     OW 1276   3.476   1.292   3.151
 1634SOL    HW1 1277   3.536   1.295   3.231
 1634SOL    HW2 1278   3.401   1.356   3.164
 1635SOL     OW 1279   2.901   1.098   2.558
 1635SOL    HW1 1280   2.831   1.051   2.612
 1635SOL    HW2 1281   2.960   1.030   2.515
 1637SOL     OW 1282   2.452   1.487   2.353
 1637SOL    HW1 1283   2.494   1.429   2.283
 1637SOL    HW2 1284   2.408   1.566   2.309
 1639SOL     OW 1285   2.117   1.348   2.152
 1639SOL    HW1 1286   2.021   1.349   2.125
 1639SOL    HW2 1287   2.129   1.401   2.236
 1645SOL     OW 1288   3.045   1.335   1.981
 1645SOL    HW1 1289   2.946   1.324   1.983
 1645SOL    HW2 1290   3.079   1.350   2.074
 1646SOL     OW 1291   2.475   0.842   3.293
 1646SOL    HW1 1292   2.531   0.923   3.276
 1646SOL    HW2 1293   2.534   0.762   3.296
 1647SOL     OW 1294   3.355   1.767   2.821
 1647SOL    HW1 1295   3.388   1.831   2.752
 1647SOL    HW2 1296   3.421   1.761   2.896
 1650SOL     OW 1297   2.252   1.741   3.422
 1650SOL    HW1 1298   2.161   1.782   3.420
 1650SOL    HW2 1299   2.245   1.647   3.454
 1653SOL     OW 1300   2.456   0.745   2.514
 1653SOL    HW1 1301   2.506   0.830   2.495
 1653SOL    HW2 1302   2.368   0.747   2.466
 1656SOL     OW 1303   2.721   1.374   1.878
 1656SOL    HW1 1304   2.675   1.389   1.966
 1656SOL    HW2 1305   2.765   1.459   1.848
 1657SOL     OW 1306   2.523   1.790   2.815
 1657SOL    HW1 1307   2.477   1.878   2.802
 1657SOL    HW2 1308   2.622   1.802   2.808
 1658SOL     OW 1309   2.721   0.956   2.723
 1658SOL    HW1 1310   2.775   0.887   2.771
 1658SOL    HW2 1311   2.689   1.025   2.789
 1659SOL     OW 1312   2.945   0.984   1.949
 1659SOL    HW1 1313   2.922   1.037   1.867
 1659SOL    HW2 1314   3.026   0.928   1.930
 1660SOL     OW 1315   3.723   1.569   2.713
 1660SOL    HW1 1316   3.652   1.557   2.643
 1660SOL    HW2 1317   3.724   1.490   2.773
 1661SOL     OW 1318   2.083   1.314   3.706
 1661SOL    HW1 1319   2.018   1.241   3.685
 1661SOL    HW2 1320   2.087   1.328   3.804
 1662SOL     OW 1321   1.941   1.240   2.515
 1662SOL    HW1 1322   1.940   1.193   2.603
 1662SOL    HW2 1323   2.023   1.212   2.464
 1663SOL     OW 1324   2.534   1.391   3.486
 1663SOL    HW1 1325   2.456   1.341   3.524
 1663SOL    HW2 1326   2.531   1.486   3.517
 1666SOL     OW 1327   3.567   1.487   2.966
 1666SOL    HW1 1328   3.474   1.462   2.939
 1666SOL    HW2 1329   3.593   1.437   3.048
 1668SOL     OW 1330   2.674   1.586   2.549
 1668SOL    HW1 1331   2.706   1.596   2.455
 1668SOL    HW2 1332   2.595   1.524   2.551
 1671SOL     OW 1333   2.632   1.330   2.163
 1671SOL    HW1 1334   2.586   1.243   2.180
 1671SOL    HW2 1335   2.723   1.327   2.204
 1672SOL     OW 1336   2.480   1.567   3.146
 1672SOL    HW1 1337   2.475   1.649   3.203
 1672SOL    HW2 1338   2.569   1.564   3.101
 1676SOL     OW 1339   1.901   1.077   2.162
 1676SOL    HW1 1340   2.000   1.066   2.153
 1676SOL    HW2 1341   1.861   0.991   2.194
 1677SOL     OW 1342   2.737   1.646   2.199
 1677SOL    HW1 1343   2.660   1.611   2.145
 1677SOL    HW2 1344   2.705   1.717   2.261
 1688SOL     OW 1345   1.889   1.596   3.841
 1688SOL    HW1 1346   1.870   1.500   3.862
 1688SOL    HW2 1347   1.856   1.654   3.916
 1741SOL     OW 1348   2.534   1.616   3.878
 1741SOL    HW1 1349   2.543   1.626   3.779
 1741SOL    HW2 1350   2.494   1.527   3.899
 1752SOL     OW 1351   2.721   1.374   3.740
 1752SOL    HW1 1352   2.675   1.389   3.828
 1752SOL    HW2 1353   2.765   1.459   3.710
 1765SOL     OW 1354   2.087   2.137   0.996
 1765SOL    HW1 1355   2.122   2.120   1.088
 1765SOL    HW2 1356   1.999   2.092   0.984
 1766SOL     OW 1357   1.881   2.230   0.647
 1766SOL    HW1 1358   1.799   2.273   0.686
 1766SOL    HW2 1359   1.853   2.157   0.584
 1767SOL     OW 1360   2.431   3.137   1.165
 1767SOL    HW1 1361   2.338   3.130   1.128
 1767SOL    HW2 1362   2.442   3.226   1.209
 1769SOL     OW 1363   2.997   2.565   0.717
 1769SOL    HW1 1364   3.054   2.643   0.692
 1769SOL    HW2 1365   2.937   2.591   0.793
 1771SOL     OW 1366   2.630   3.006   1.023
 1771SOL    HW1 1367   2.552   3.023   1.083
 1771SOL    HW2 1368   2.664   3.093   0.987
 1772SOL     OW 1369   2.712   2.660   1.823
 1772SOL    HW1 1370   2.708   2.736   1.888
 1772SOL    HW2 1371   2.734   2.696   1.732
 1773SOL     OW 1372   2.547   2.874   0.665
 1773SOL    HW1 1373   2.616   2.858   0.735
 1773SOL    HW2 1374   2.474   2.931   0.703
 1774SOL     OW 1375   2.548   3.023   1.803
 1774SOL    HW1 1376   2.608   3.102   1.817
 1774SOL    HW2 1377   2.462   3.054   1.762
 1775SOL     OW 1378   2.197   3.297   1.061
 1775SOL    HW1 1379   2.119   3.266   1.008
 1775SOL    HW2 1380   2.255   3.355   1.004
 1776SOL     OW 1381   3.322   3.367   1.339
 1776SOL    HW1 1382   3.346   3.461   1.365
 1776SOL    HW2 1383   3.306   3.313   1.421
 1777SOL     OW 1384   2.300   2.254   1.499
 1777SOL    HW1 1385   2.382   2.198   1.508
 1777SOL    HW2 1386   2.219   2.196   1.503
 1780SOL     OW 1387   2.989   3.203   1.690
 1780SOL    HW1 1388   3.036   3.203   1.778
 1780SOL    HW2 1389   2.941   3.116   1.679
 1782SOL     OW 1390   2.102   2.953   0.886
 1782SOL    HW1 1391   2.116   2.869   0.938
 1782SOL    HW2 1392   2.047   3.017   0.941
 1783SOL     OW 1393   2.482   3.648   1.439
 1783SOL    HW1 1394   2.390   3.631   1.474
 1783SOL    HW2 1395   2.510   3.740   1.465
 1785SOL     OW 1396   3.456   1.976   1.480
 1785SOL    HW1 1397   3.438   2.043   1.408
 1785SOL    HW2 1398   3.453   2.022   1.569
 1786SOL     OW 1399   1.984   2.505   0.563
 1786SOL    HW1 1400   1.939   2.417   0.580
 1786SOL    HW2 1401   1.983   2.559   0.647
 1791SOL     OW 1402   1.975   2.599   1.597
 1791SOL    HW1 1403   2.063   2.586   1.642
 1791SOL    HW2 1404   1.962   2.696   1.575
 1793SOL     OW 1405   3.155   3.090   1.423
 1793SOL    HW1 1406   3.192   3.017   1.365
 1793SOL    HW2 1407   3.207   3.095   1.508
 1795SOL     OW 1408   2.059   2.838   1.264
 1795SOL    HW1 1409   2.148   2.793   1.250
 1795SOL    HW2 1410   1.986   2.773   1.245
 1797SOL     OW 1411   3.049   3.654   1.616
 1797SOL    HW1 1412   3.073   3.714   1.540
 1797SOL    HW2 1413   3.056   3.559   1.586
 1798SOL     OW 1414   2.179   2.113   1.801
 1798SOL    HW1 1415   2.250   2.184   1.807
 1798SOL    HW2 1416   2.091   2.152   1.829
 1802SOL     OW 1417   3.143   2.207   0.944
 1802SOL    HW1 1418   3.057   2.157   0.931
 1802SOL    HW2 1419   3.205   2.153   1.000
 1804SOL     OW 1420   2.669   2.467   1.465
 1804SOL    HW1 1421   2.622   2.464   1.554
 1804SOL    HW2 1422   2.618   2.412   1.399
 1805SOL     OW 1423   3.256   2.331   1.674
 1805SOL    HW1 1424   3.236   2.374   1.762
 1805SOL    HW2 1425   3.334   2.269   1.683
 1806SOL     OW 1426   2.835   2.752   1.572
 1806SOL    HW1 1427   2.881   2.668   1.543
 1806SOL    HW2 1428   2.779   2.786   1.497
 1807SOL     OW 1429   2.853   2.272   1.242
 1807SOL    HW1 1430   2.776   2.306   1.296
 1807SOL    HW2 1431   2.819   2.221   1.163
 1809SOL     OW 1432   1.938   2.673   0.789
 1809SOL    HW1 1433   2.037   2.661   0.798
 1809SOL    HW2 1434   1.914   2.768   0.810
 1810SOL     OW 1435   1.992   3.683   1.571
 1810SOL    HW1 1436   1.982   3.668   1.670
 1810SOL    HW2 1437   1.906   3.719   1.535
 1812SOL     OW 1438   3.581   2.447   1.831
 1812SOL    HW1 1439   3.555   2.536   1.795
 1812SOL    HW2 1440   3.579   2.379   1.758
 1814SOL     OW 1441   2.412   2.058   0.885
 1814SOL    HW1 1442   2.407   2.053   0.985
 1814SOL    HW2 1443   2.414   2.154   0.856
 1818SOL     OW 1444   3.089   3.412   1.506
 1818SOL    HW1 1445   3.095   3.335   1.570
 1818SOL    HW2 1446   3.037   3.386   1.426
 1821SOL     OW 1447   2.323   3.128   1.727
 1821SOL    HW1 1448   2.273   3.129   1.641
 1821SOL    HW2 1449   2.260   3.110   1.803
 1823SOL     OW 1450   2.064   2.147   1.498
 1823SOL    HW1 1451   1.984   2.207   1.485
 1823SOL    HW2 1452   2.054   2.098   1.584
 1827SOL     OW 1453   2.111   3.647   1.241
 1827SOL    HW1 1454   2.168   3.582   1.291
 1827SOL    HW2 1455   2.095   3.614   1.148
 1830SOL     OW 1456   3.409   2.084   1.729
 1830SOL    HW1 1457   3.404   2.121   1.821
 1830SOL    HW2 1458   3.337   2.015   1.717
 1831SOL     OW 1459   2.643   2.126   1.749
 1831SOL    HW1 1460   2.710   2.065   1.792
 1831SOL    HW2 1461   2.570   2.145   1.814
 1832SOL     OW 1462   2.750   3.376   1.195
 1832SOL    HW1 1463   2.727   3.351   1.101
 1832SOL    HW2 1464   2.811   3.307   1.234
 1833SOL     OW 1465   3.213   2.452   1.433
 1833SOL    HW1 1466   3.241   2.409   1.518
 1833SOL    HW2 1467   3.238   2.548   1.434
 1834SOL     OW 1468   2.665   3.264   0.924
 1834SOL    HW1 1469   2.755   3.278   0.882
 1834SOL    HW2 1470   2.594   3.266   0.853
 1835SOL     OW 1471   2.784   2.365   0.899
 1835SOL    HW1 1472   2.759   2.356   0.803
 1835SOL    HW2 1473   2.832   2.283   0.930
 1836SOL     OW 1474   2.401   1.926   0.512
 1836SOL    HW1 1475   2.320   1.927   0.570
 1836SOL    HW2 1476   2.404   2.009   0.457
 1839SOL     OW 1477   2.938   2.545   1.464
 1839SOL    HW1 1478   2.858   2.484   1.467
 1839SOL    HW2 1479   3.019   2.492   1.440
 1841SOL     OW 1480   2.321   3.014   0.741
 1841SOL    HW1 1481   2.250   2.987   0.806
 1841SOL    HW2 1482   2.295   2.986   0.648
 1844SOL     OW 1483   1.940   2.418   1.386
 1844SOL    HW1 1484   2.032   2.417   1.345
 1844SOL    HW2 1485   1.934   2.492   1.453
 1845SOL     OW 1486   2.423   2.084   1.147
 1845SOL    HW1 1487   2.461   2.000   1.184
 1845SOL    HW2 1488   2.335   2.103   1.191
 1846SOL     OW 1489   2.728   2.316   0.642
 1846SOL    HW1 1490   2.696   2.388   0.580
 1846SOL    HW2 1491   2.752   2.235   0.589
 1847SOL     OW 1492   2.879   1.901   0.753
 1847SOL    HW1 1493   2.807   1.906   0.684
 1847SOL    HW2 1494   2.855   1.832   0.822
 1849SOL     OW 1495   3.328   2.452   0.992
 1849SOL    HW1 1496   3.298   2.357   0.999
 1849SOL    HW2 1497   3.401   2.468   1.058
 1855SOL     OW 1498   3.616   3.085   1.588
 1855SOL    HW1 1499   3.707   3.046   1.575
 1855SOL    HW2 1500   3.624   3.181   1.612
 1856SOL     OW 1501   2.926   3.209   1.340
 1856SOL    HW1 1502   2.846   3.186   1.395
 1856SOL    HW2 1503   3.009   3.183   1.389
 1858SOL     OW 1504   2.973   3.057   1.100
 1858SOL    HW1 1505   2.933   3.101   1.181
 1858SOL    HW2 1506   2.932   3.094   1.017
 1860SOL     OW 1507   2.777   1.951   1.402
 1860SOL    HW1 1508   2.802   1.931   1.307
 1860SOL    HW2 1509   2.849   2.007   1.444
 1861SOL     OW 1510   2.842   2.978   1.719
 1861SOL    HW1 1511   2.743   2.984   1.729
 1861SOL    HW2 1512   2.865   2.898   1.663
 1863SOL     OW 1513   2.272   2.675   1.251
 1863SOL    HW1 1514   2.358   2.687   1.301
 1863SOL    HW2 1515   2.230   2.588   1.278
 1864SOL     OW 1516   3.136   2.248   1.262
 1864SOL    HW1 1517   3.157   2.322   1.326
 1864SOL    HW2 1518   3.047   2.265   1.219
 1865SOL     OW 1519   1.926   3.426   1.331
 1865SOL    HW1 1520   1.880   3.508   1.297
 1865SOL    HW2 1521   2.024   3.445   1.340
 1867SOL     OW 1522   2.428   2.399   0.865
 1867SOL    HW1 1523   2.440   2.465   0.791
 1867SOL    HW2 1524   2.474   2.433   0.948
 1869SOL     OW 1525   3.134   3.307   1.142
 1869SOL    HW1 1526   3.181   3.320   1.229
 1869SOL    HW2 1527   3.068   3.233   1.151
 1871SOL     OW 1528   2.216   3.372   1.329
 1871SOL    HW1 1529   2.195   3.328   1.242
 1871SOL    HW2 1530   2.313   3.398   1.332
 1872SOL     OW 1531   2.264   2.613   1.598
 1872SOL    HW1 1532   2.332   2.668   1.551
 1872SOL    HW2 1533   2.304   2.525   1.625
 1873SOL     OW 1534   3.449   2.641   1.670
 1873SOL    HW1 1535   3.357   2.679   1.665
 1873SOL    HW2 1536   3.509   2.688   1.605
 1874SOL     OW 1537   2.875   1.967   1.770
 1874SOL    HW1 1538   2.881   2.052   1.718
 1874SOL    HW2 1539   2.907   1.891   1.713
 1875SOL     OW 1540   2.366   1.912   1.740
 1875SOL    HW1 1541   2.324   1.855   1.670
 1875SOL    HW2 1542   2.300   1.981   1.772
 1876SOL     OW 1543   2.435   2.732   1.029
 1876SOL    HW1 1544   2.479   2.821   1.020
 1876SOL    HW2 1545   2.372   2.732   1.106
 1877SOL     OW 1546   3.222   2.724   1.045
 1877SOL    HW1 1547   3.147   2.724   0.979
 1877SOL    HW2 1548   3.259   2.632   1.054
 1879SOL     OW 1549   2.169   2.075   1.231
 1879SOL    HW1 1550   2.146   2.112   1.321
 1879SOL    HW2 1551   2.139   1.980   1.225
 1880SOL     OW 1552   1.899   3.172   1.282
 1880SOL    HW1 1553   1.952   3.123   1.350
 1880SOL    HW2 1554   1.921   3.270   1.287
 1881SOL     OW 1555   2.594   2.496   1.064
 1881SOL    HW1 1556   2.653   2.470   0.988
 1881SOL    HW2 1557   2.566   2.592   1.053
 1882SOL     OW 1558   3.590   2.797   1.854
 1882SOL    HW1 1559   3.544   2.790   1.765
 1882SOL    HW2 1560   3.528   2.841   1.920
 1883SOL     OW 1561   2.169   1.925   0.618
 1883SOL    HW1 1562   2.158   2.019   0.651
 1883SOL    HW2 1563   2.164   1.862   0.695
 1885SOL     OW 1564   2.885   2.628   0.966
 1885SOL    HW1 1565   2.900   2.649   1.062
 1885SOL    HW2 1566   2.855   2.533   0.957
 1886SOL     OW 1567   2.842   3.435   1.700
 1886SOL    HW1 1568   2.822   3.479   1.612
 1886SOL    HW2 1569   2.881   3.344   1.684
 1888SOL     OW 1570   2.212   2.760   1.804
 1888SOL    HW1 1571   2.288   2.804   1.852
 1888SOL    HW2 1572   2.247   2.713   1.722
 1892SOL     OW 1573   2.181   2.672   0.949
 1892SOL    HW1 1574   2.274   2.708   0.954
 1892SOL    HW2 1575   2.175   2.587   1.001
 1893SOL     OW 1576   2.201   2.371   1.006
 1893SOL    HW1 1577   2.149   2.288   0.989
 1893SOL    HW2 1578   2.278   2.376   0.942
 1894SOL     OW 1579   3.000   2.242   1.678
 1894SOL    HW1 1580   2.955   2.305   1.742
 1894SOL    HW2 1581   3.093   2.273   1.661
 1895SOL     OW 1582   3.022   2.069   1.477
 1895SOL    HW1 1583   3.022   2.133   1.554
 1895SOL    HW2 1584   3.050   2.117   1.394
 1898SOL     OW 1585   2.366   3.430   0.910
 1898SOL    HW1 1586   2.432   3.504   0.919
 1898SOL    HW2 1587   2.410   3.351   0.868
 1899SOL     OW 1588   2.864   2.658   1.238
 1899SOL    HW1 1589   2.905   2.626   1.324
 1899SOL    HW2 1590   2.768   2.631   1.235
 1900SOL     OW 1591   1.902   2.406   1.114
 1900SOL    HW1 1592   1.987   2.373   1.073
 1900SOL    HW2 1593   1.915   2.421   1.212
 1901SOL     OW 1594   2.051   2.382   1.722
 1901SOL    HW1 1595   2.110   2.342   1.652
 1901SOL    HW2 1596   1.993   2.453   1.681
 1902SOL     OW 1597   3.231   2.812   1.660
 1902SOL    HW1 1598   3.270   2.901   1.680
 1902SOL    HW2 1599   3.241   2.792   1.563
 1904SOL     OW 1600   3.519   2.466   1.206
 1904SOL    HW1 1601   3.481   2.397   1.268
 1904SOL    HW2 1602   3.601   2.430   1.162
 1905SOL     OW 1603   2.114   3.426   1.744
 1905SOL    HW1 1604   2.084   3.483   1.820
 1905SOL    HW2 1605   2.107   3.329   1.770
 1906SOL     OW 1606   2.533   2.326   1.269
 1906SOL    HW1 1607   2.499   2.237   1.239
 1906SOL    HW2 1608   2.559   2.380   1.189
 1907SOL     OW 1609   2.792   3.540   1.465
 1907SOL    HW1 1610   2.768   3.522   1.370
 1907SOL    HW2 1611   2.822   3.634   1.475
 1909SOL     OW 1612   2.021   2.999   1.466
 1909SOL    HW1 1613   2.043   2.938   1.542
 1909SOL    HW2 1614   2.031   2.950   1.380
 1910SOL     OW 1615   3.209   2.921   1.234
 1910SOL    HW1 1616   3.233   2.858   1.160
 1910SOL    HW2 1617   3.119   2.961   1.216
 1914SOL     OW 1618   1.945   3.120   1.022
 1914SOL    HW1 1619   1.940   3.119   1.122
 1914SOL    HW2 1620   1.862   3.079   0.984
 1915SOL     OW 1621   2.550   3.524   1.716
 1915SOL    HW1 1622   2.494   3.605   1.725
 1915SOL    HW2 1623   2.602   3.528   1.630
 1919SOL     OW 1624   1.992   3.656   1.851
 1919SOL    HW1 1625   1.951   3.582   1.904
 1919SOL    HW2 1626   2.056   3.707   1.909
 1921SOL     OW 1627   2.692   3.135   1.422
 1921SOL    HW1 1628   2.687   3.168   1.517
 1921SOL    HW2 1629   2.606   3.154   1.376
 1925SOL     OW 1630   2.125   2.188   0.720
 1925SOL    HW1 1631   2.046   2.239   0.686
 1925SOL    HW2 1632   2.116   2.173   0.818
 1927SOL     OW 1633   2.684   2.864   1.372
 1927SOL    HW1 1634   2.724   2.863   1.280
 1927SOL    HW2 1635   2.694   2.956   1.412
 1930SOL     OW 1636   2.234   3.150   1.490
 1930SOL    HW1 1637   2.221   3.243   1.456
 1930SOL    HW2 1638   2.150   3.098   1.477
 1931SOL     OW 1639   3.476   3.154   1.289
 1931SOL    HW1 1640   3.536   3.157   1.369
 1931SOL    HW2 1641   3.401   3.218   1.302
 1933SOL     OW 1642   2.876   2.098   0.971
 1933SOL    HW1 1643   2.868   2.062   0.878
 1933SOL    HW2 1644   2.874   2.022   1.036
 1935SOL     OW 1645   3.571   2.247   1.381
 1935SOL    HW1 1646   3.644   2.316   1.385
 1935SOL    HW2 1647   3.599   2.172   1.322
 1937SOL     OW 1648   1.967   2.875   1.726
 1937SOL    HW1 1649   1.890   2.842   1.780
 1937SOL    HW2 1650   2.052   2.845   1.768
 1938SOL     OW 1651   2.534   2.065   1.489
 1938SOL    HW1 1652   2.624   2.049   1.449
 1938SOL    HW2 1653   2.542   2.070   1.588
 1940SOL     OW 1654   3.302   2.718   1.398
 1940SOL    HW1 1655   3.245   2.770   1.335
 1940SOL    HW2 1656   3.398   2.730   1.374
 1943SOL     OW 1657   2.475   2.704   1.431
 1943SOL    HW1 1658   2.531   2.785   1.414
 1943SOL    HW2 1659   2.534   2.624   1.434
 1945SOL     OW 1660   2.578   2.427   1.708
 1945SOL    HW1 1661   2.597   2.492   1.782
 1945SOL    HW2 1662   2.638   2.347   1.717
 1946SOL     OW 1663   3.312   3.082   1.633
 1946SOL    HW1 1664   3.303   3.072   1.732
 1946SOL    HW2 1665   3.408   3.075   1.607
 1947SOL     OW 1666   2.252   3.603   1.560
 1947SOL    HW1 1667   2.161   3.644   1.558
 1947SOL    HW2 1668   2.245   3.509   1.592
 1948SOL     OW 1669   3.536   2.745   1.254
 1948SOL    HW1 1670   3.509   2.656   1.217
 1948SOL    HW2 1671   3.537   2.813   1.181
 1950SOL     OW 1672   2.456   2.607   0.652
 1950SOL    HW1 1673   2.506   2.692   0.633
 1950SOL    HW2 1674   2.368   2.609   0.604
 1951SOL     OW 1675   3.639   2.204   1.642
 1951SOL    HW1 1676   3.622   2.235   1.548
 1951SOL    HW2 1677   3.555   2.167   1.680
 1952SOL     OW 1678   3.592   2.796   1.517
 1952SOL    HW1 1679   3.630   2.887   1.532
 1952SOL    HW2 1680   3.584   2.779   1.418
 1955SOL     OW 1681   2.721   2.818   0.861
 1955SOL    HW1 1682   2.775   2.749   0.909
 1955SOL    HW2 1683   2.689   2.887   0.927
 1958SOL     OW 1684   2.083   3.176   1.844
 1958SOL    HW1 1685   2.018   3.103   1.823
 1958SOL    HW2 1686   2.087   3.190   1.942
 1960SOL     OW 1687   2.534   3.253   1.624
 1960SOL    HW1 1688   2.456   3.203   1.662
 1960SOL    HW2 1689   2.531   3.348   1.655
 1961SOL     OW 1690   3.686   2.054   1.227
 1961SOL    HW1 1691   3.682   1.964   1.271
 1961SOL    HW2 1692   3.689   2.043   1.128
 1962SOL     OW 1693   2.290   2.286   0.520
 1962SOL    HW1 1694   2.320   2.214   0.458
 1962SOL    HW2 1695   2.251   2.246   0.603
 1964SOL     OW 1696   2.179   2.409   1.280
 1964SOL    HW1 1697   2.217   2.350   1.352
 1964SOL    HW2 1698   2.219   2.383   1.192
 1966SOL     OW 1699   3.286   2.076   1.112
 1966SOL    HW1 1700   3.338   2.011   1.167
 1966SOL    HW2 1701   3.237   2.139   1.173
 1967SOL     OW 1702   2.863   1.896   1.154
 1967SOL    HW1 1703   2.800   1.824   1.123
 1967SOL    HW2 1704   2.956   1.860   1.154
 1969SOL     OW 1705   2.480   3.429   1.284
 1969SOL    HW1 1706   2.475   3.511   1.341
 1969SOL    HW2 1707   2.569   3.426   1.239
 1975SOL     OW 1708   2.092   2.490   1.975
 1975SOL    HW1 1709   1.999   2.488   2.012
 1975SOL    HW2 1710   2.093   2.451   1.883
 1976SOL     OW 1711   2.087   2.137   2.858
 1976SOL    HW1 1712   2.122   2.120   2.950
 1976SOL    HW2 1713   1.999   2.092   2.846
 1977SOL     OW 1714   1.881   2.230   2.509
 1977SOL    HW1 1715   1.799   2.273   2.548
 1977SOL    HW2 1716   1.853   2.157   2.446
 1978SOL     OW 1717   2.431   3.137   3.027
 1978SOL    HW1 1718   2.338   3.130   2.990
 1978SOL    HW2 1719   2.442   3.226   3.071
 1979SOL     OW 1720   3.417   3.373   2.565
 1979SOL    HW1 1721   3.360   3.357   2.646
 1979SOL    HW2 1722   3.358   3.383   2.485
 1980SOL     OW 1723   2.997   2.565   2.579
 1980SOL    HW1 1724   3.054   2.643   2.554
 1980SOL    HW2 1725   2.937   2.591   2.655
 1981SOL     OW 1726   3.617   2.469   2.093
 1981SOL    HW1 1727   3.605   2.456   1.994
 1981SOL    HW2 1728   3.587   2.388   2.142
 1982SOL     OW 1729   2.630   3.006   2.885
 1982SOL    HW1 1730   2.552   3.023   2.945
 1982SOL    HW2 1731   2.664   3.093   2.849
 1983SOL     OW 1732   2.712   2.660   3.685
 1983SOL    HW1 1733   2.708   2.736   3.750
 1983SOL    HW2 1734   2.734   2.696   3.594
 1984SOL     OW 1735   2.547   2.874   2.527
 1984SOL    HW1 1736   2.616   2.858   2.597
 1984SOL    HW2 1737   2.474   2.931   2.565
 1985SOL     OW 1738   2.548   3.023   3.665
 1985SOL    HW1 1739   2.608   3.102   3.679
 1985SOL    HW2 1740   2.462   3.054   3.624
 1986SOL     OW 1741   2.197   3.297   2.923
 1986SOL    HW1 1742   2.119   3.266   2.870
 1986SOL    HW2 1743   2.255   3.355   2.866
 1987SOL     OW 1744   3.322   3.367   3.201
 1987SOL    HW1 1745   3.346   3.461   3.227
 1987SOL    HW2 1746   3.306   3.313   3.283
 1988SOL     OW 1747   2.300   2.254   3.361
 1988SOL    HW1 1748   2.382   2.198   3.370
 1988SOL    HW2 1749   2.219   2.196   3.365
 1989SOL     OW 1750   3.465   2.309   2.599
 1989SOL    HW1 1751   3.391   2.355   2.549
 1989SOL    HW2 1752   3.516   2.377   2.652
 1990SOL     OW 1753   2.093   3.575   2.345
 1990SOL    HW1 1754   2.127   3.652   2.399
 1990SOL    HW2 1755   2.137   3.575   2.255
 1991SOL     OW 1756   2.989   3.203   3.552
 1991SOL    HW1 1757   3.036   3.203   3.640
 1991SOL    HW2 1758   2.941   3.116   3.541
 1992SOL     OW 1759   2.092   3.296   2.400
 1992SOL    HW1 1760   2.066   3.392   2.400
 1992SOL    HW2 1761   2.021   3.242   2.445
 1993SOL     OW 1762   2.102   2.953   2.748
 1993SOL    HW1 1763   2.116   2.869   2.800
 1993SOL    HW2 1764   2.047   3.017   2.803
 1994SOL     OW 1765   2.482   3.648   3.301
 1994SOL    HW1 1766   2.390   3.631   3.336
 1994SOL    HW2 1767   2.510   3.740   3.327
 1995SOL     OW 1768   2.468   2.826   1.985
 1995SOL    HW1 1769   2.475   2.910   1.931
 1995SOL    HW2 1770   2.514   2.839   2.073
 1996SOL     OW 1771   3.456   1.976   3.342
 1996SOL    HW1 1772   3.438   2.043   3.270
 1996SOL    HW2 1773   3.453   2.022   3.431
 1997SOL     OW 1774   1.984   2.505   2.425
 1997SOL    HW1 1775   1.939   2.417   2.442
 1997SOL    HW2 1776   1.983   2.559   2.509
 1999SOL     OW 1777   1.889   3.458   1.979
 1999SOL    HW1 1778   1.870   3.362   2.000
 1999SOL    HW2 1779   1.856   3.516   2.054
 2000SOL     OW 1780   3.551   2.784   2.474
 2000SOL    HW1 1781   3.646   2.755   2.482
 2000SOL    HW2 1782   3.543   2.849   2.399
 2001SOL     OW 1783   3.503   2.970   2.294
 2001SOL    HW1 1784   3.589   2.972   2.242
 2001SOL    HW2 1785   3.517   3.017   2.382
 2002SOL     OW 1786   1.975   2.599   3.459
 2002SOL    HW1 1787   2.063   2.586   3.504
 2002SOL    HW2 1788   1.962   2.696   3.437
 2003SOL     OW 1789   2.475   3.227   2.588
 2003SOL    HW1 1790   2.426   3.140   2.597
 2003SOL    HW2 1791   2.452   3.270   2.501
 2004SOL     OW 1792   3.155   3.090   3.285
 2004SOL    HW1 1793   3.192   3.017   3.227
 2004SOL    HW2 1794   3.207   3.095   3.370
 2005SOL     OW 1795   2.671   1.866   2.364
 2005SOL    HW1 1796   2.711   1.957   2.355
 2005SOL    HW2 1797   2.571   1.874   2.370
 2006SOL     OW 1798   2.059   2.838   3.126
 2006SOL    HW1 1799   2.148   2.793   3.112
 2006SOL    HW2 1800   1.986   2.773   3.107
 2007SOL     OW 1801   3.387   2.861   2.052
 2007SOL    HW1 1802   3.324   2.785   2.065
 2007SOL    HW2 1803   3.435   2.879   2.138
 2009SOL     OW 1804   2.179   2.113   3.663
 2009SOL    HW1 1805   2.250   2.184   3.669
 2009SOL    HW2 1806   2.091   2.152   3.691
 2010SOL     OW 1807   3.328   3.279   2.815
 2010SOL    HW1 1808   3.269   3.285   2.895
 2010SOL    HW2 1809   3.313   3.191   2.769
 2012SOL     OW 1810   2.460   2.591   2.132
 2012SOL    HW1 1811   2.484   2.660   2.064
 2012SOL    HW2 1812   2.382   2.624   2.186
 2013SOL     OW 1813   3.143   2.207   2.806
 2013SOL    HW1 1814   3.057   2.157   2.793
 2013SOL    HW2 1815   3.205   2.153   2.862
 2014SOL     OW 1816   3.438   3.524   2.169
 2014SOL    HW1 1817   3.527   3.570   2.172
 2014SOL    HW2 1818   3.417   3.500   2.074
 2015SOL     OW 1819   2.669   2.467   3.327
 2015SOL    HW1 1820   2.622   2.464   3.416
 2015SOL    HW2 1821   2.618   2.412   3.261
 2016SOL     OW 1822   3.256   2.331   3.536
 2016SOL    HW1 1823   3.236   2.374   3.624
 2016SOL    HW2 1824   3.334   2.269   3.545
 2017SOL     OW 1825   2.835   2.752   3.434
 2017SOL    HW1 1826   2.881   2.668   3.405
 2017SOL    HW2 1827   2.779   2.786   3.359
 2018SOL     OW 1828   2.853   2.272   3.104
 2018SOL    HW1 1829   2.776   2.306   3.158
 2018SOL    HW2 1830   2.819   2.221   3.025
 2019SOL     OW 1831   2.903   2.563   2.291
 2019SOL    HW1 1832   2.929   2.559   2.387
 2019SOL    HW2 1833   2.818   2.512   2.277
 2020SOL     OW 1834   1.938   2.673   2.651
 2020SOL    HW1 1835   2.037   2.661   2.660
 2020SOL    HW2 1836   1.914   2.768   2.672
 2022SOL     OW 1837   2.727   2.210   2.057
 2022SOL    HW1 1838   2.786   2.273   2.008
 2022SOL    HW2 1839   2.746   2.116   2.028
 2024SOL     OW 1840   3.224   3.006   2.407
 2024SOL    HW1 1841   3.307   2.977   2.359
 2024SOL    HW2 1842   3.175   3.073   2.351
 2025SOL     OW 1843   2.412   2.058   2.747
 2025SOL    HW1 1844   2.407   2.053   2.847
 2025SOL    HW2 1845   2.414   2.154   2.718
 2026SOL     OW 1846   2.870   3.318   2.339
 2026SOL    HW1 1847   2.824   3.390   2.287
 2026SOL    HW2 1848   2.866   3.338   2.437
 2027SOL     OW 1849   2.213   3.663   2.715
 2027SOL    HW1 1850   2.263   3.577   2.721
 2027SOL    HW2 1851   2.278   3.740   2.712
 2028SOL     OW 1852   3.657   2.928   2.735
 2028SOL    HW1 1853   3.595   2.913   2.659
 2028SOL    HW2 1854   3.605   2.939   2.820
 2029SOL     OW 1855   3.089   3.412   3.368
 2029SOL    HW1 1856   3.095   3.335   3.432
 2029SOL    HW2 1857   3.037   3.386   3.288
 2030SOL     OW 1858   2.183   2.805   2.104
 2030SOL    HW1 1859   2.265   2.844   2.062
 2030SOL    HW2 1860   2.156   2.723   2.055
 2031SOL     OW 1861   3.320   2.597   2.590
 2031SOL    HW1 1862   3.315   2.532   2.665
 2031SOL    HW2 1863   3.400   2.656   2.603
 2032SOL     OW 1864   2.323   3.128   3.589
 2032SOL    HW1 1865   2.273   3.129   3.503
 2032SOL    HW2 1866   2.260   3.110   3.665
 2033SOL     OW 1867   2.973   3.638   2.099
 2033SOL    HW1 1868   2.913   3.576   2.149
 2033SOL    HW2 1869   3.004   3.594   2.014
 2034SOL     OW 1870   2.064   2.147   3.360
 2034SOL    HW1 1871   1.984   2.207   3.347
 2034SOL    HW2 1872   2.054   2.098   3.446
 2035SOL     OW 1873   3.494   3.239   1.943
 2035SOL    HW1 1874   3.462   3.333   1.933
 2035SOL    HW2 1875   3.418   3.176   1.931
 2036SOL     OW 1876   2.326   3.605   2.185
 2036SOL    HW1 1877   2.359   3.644   2.271
 2036SOL    HW2 1878   2.402   3.598   2.120
 2037SOL     OW 1879   3.262   1.969   2.288
 2037SOL    HW1 1880   3.238   1.932   2.198
 2037SOL    HW2 1881   3.361   1.985   2.292
 2038SOL     OW 1882   2.111   3.647   3.103
 2038SOL    HW1 1883   2.168   3.582   3.153
 2038SOL    HW2 1884   2.095   3.614   3.010
 2039SOL     OW 1885   2.802   3.560   2.766
 2039SOL    HW1 1886   2.882   3.503   2.787
 2039SOL    HW2 1887   2.753   3.520   2.689
 2040SOL     OW 1888   3.409   2.084   3.591
 2040SOL    HW1 1889   3.404   2.121   3.683
 2040SOL    HW2 1890   3.337   2.015   3.579
 2041SOL     OW 1891   2.476   1.984   1.979
 2041SOL    HW1 1892   2.574   1.962   1.986
 2041SOL    HW2 1893   2.445   1.967   1.886
 2042SOL     OW 1894   2.643   2.126   3.611
 2042SOL    HW1 1895   2.710   2.065   3.654
 2042SOL    HW2 1896   2.570   2.145   3.676
 2043SOL     OW 1897   2.750   3.376   3.057
 2043SOL    HW1 1898   2.727   3.351   2.963
 2043SOL    HW2 1899   2.811   3.307   3.096
 2044SOL     OW 1900   3.213   2.452   3.295
 2044SOL    HW1 1901   3.241   2.409   3.380
 2044SOL    HW2 1902   3.238   2.548   3.296
 2045SOL     OW 1903   2.665   3.264   2.786
 2045SOL    HW1 1904   2.755   3.278   2.744
 2045SOL    HW2 1905   2.594   3.266   2.715
 2046SOL     OW 1906   2.784   2.365   2.761
 2046SOL    HW1 1907   2.759   2.356   2.665
 2046SOL    HW2 1908   2.832   2.283   2.792
 2047SOL     OW 1909   2.401   1.926   2.374
 2047SOL    HW1 1910   2.320   1.927   2.432
 2047SOL    HW2 1911   2.404   2.009   2.319
 2048SOL     OW 1912   3.296   3.050   1.903
 2048SOL    HW1 1913   3.328   2.974   1.960
 2048SOL    HW2 1914   3.204   3.077   1.933
 2049SOL     OW 1915   2.159   1.897   2.033
 2049SOL    HW1 1916   2.208   1.981   2.012
 2049SOL    HW2 1917   2.221   1.832   2.078
 2050SOL     OW 1918   2.797   2.098   2.342
 2050SOL    HW1 1919   2.749   2.139   2.264
 2050SOL    HW2 1920   2.896   2.096   2.323
 2051SOL     OW 1921   2.938   2.545   3.326
 2051SOL    HW1 1922   2.858   2.484   3.329
 2051SOL    HW2 1923   3.019   2.492   3.302
 2052SOL     OW 1924   3.089   3.432   2.655
 2052SOL    HW1 1925   3.110   3.506   2.590
 2052SOL    HW2 1926   3.157   3.432   2.728
 2053SOL     OW 1927   2.321   3.014   2.603
 2053SOL    HW1 1928   2.250   2.987   2.668
 2053SOL    HW2 1929   2.295   2.986   2.510
 2054SOL     OW 1930   3.133   3.659   2.453
 2054SOL    HW1 1931   3.177   3.723   2.389
 2054SOL    HW2 1932   3.083   3.711   2.523
 2055SOL     OW 1933   2.894   2.411   1.878
 2055SOL    HW1 1934   2.853   2.493   1.839
 2055SOL    HW2 1935   2.958   2.437   1.951
 2056SOL     OW 1936   1.940   2.418   3.248
 2056SOL    HW1 1937   2.032   2.417   3.207
 2056SOL    HW2 1938   1.934   2.492   3.315
 2057SOL     OW 1939   2.423   2.084   3.009
 2057SOL    HW1 1940   2.461   2.000   3.046
 2057SOL    HW2 1941   2.335   2.103   3.053
 2058SOL     OW 1942   2.728   2.316   2.504
 2058SOL    HW1 1943   2.696   2.388   2.442
 2058SOL    HW2 1944   2.752   2.235   2.451
 2059SOL     OW 1945   2.879   1.901   2.615
 2059SOL    HW1 1946   2.807   1.906   2.546
 2059SOL    HW2 1947   2.855   1.832   2.684
 2060SOL     OW 1948   3.291   3.035   2.729
 2060SOL    HW1 1949   3.236   2.951   2.722
 2060SOL    HW2 1950   3.317   3.064   2.637
 2061SOL     OW 1951   3.328   2.452   2.854
 2061SOL    HW1 1952   3.298   2.357   2.861
 2061SOL    HW2 1953   3.401   2.468   2.920
 2062SOL     OW 1954   3.719   2.695   2.239
 2062SOL    HW1 1955   3.761   2.631   2.303
 2062SOL    HW2 1956   3.681   2.644   2.161
 2063SOL     OW 1957   2.350   3.247   2.036
 2063SOL    HW1 1958   2.263   3.232   2.083
 2063SOL    HW2 1959   2.333   3.273   1.941
 2064SOL     OW 1960   3.526   3.142   2.519
 2064SOL    HW1 1961   3.625   3.150   2.533
 2064SOL    HW2 1962   3.481   3.226   2.550
 2065SOL     OW 1963   3.252   2.437   1.940
 2065SOL    HW1 1964   3.198   2.416   2.021
 2065SOL    HW2 1965   3.343   2.396   1.949
 2067SOL     OW 1966   2.926   3.209   3.202
 2067SOL    HW1 1967   2.846   3.186   3.257
 2067SOL    HW2 1968   3.009   3.183   3.251
 2069SOL     OW 1969   2.973   3.057   2.962
 2069SOL    HW1 1970   2.933   3.101   3.043
 2069SOL    HW2 1971   2.932   3.094   2.879
 2070SOL     OW 1972   3.500   2.961   2.941
 2070SOL    HW1 1973   3.505   3.042   3.000
 2070SOL    HW2 1974   3.414   2.963   2.890
 2071SOL     OW 1975   2.777   1.951   3.264
 2071SOL    HW1 1976   2.802   1.931   3.169
 2071SOL    HW2 1977   2.849   2.007   3.306
 2072SOL     OW 1978   2.842   2.978   3.581
 2072SOL    HW1 1979   2.743   2.984   3.591
 2072SOL    HW2 1980   2.865   2.898   3.525
 2073SOL     OW 1981   2.567   2.912   2.230
 2073SOL    HW1 1982   2.553   2.919   2.329
 2073SOL    HW2 1983   2.651   2.861   2.212
 2074SOL     OW 1984   2.272   2.675   3.113
 2074SOL    HW1 1985   2.358   2.687   3.163
 2074SOL    HW2 1986   2.230   2.588   3.140
 2075SOL     OW 1987   3.136   2.248   3.124
 2075SOL    HW1 1988   3.157   2.322   3.188
 2075SOL    HW2 1989   3.047   2.265   3.081
 2076SOL     OW 1990   1.926   3.426   3.193
 2076SOL    HW1 1991   1.880   3.508   3.159
 2076SOL    HW2 1992   2.024   3.445   3.202
 2077SOL     OW 1993   2.229   2.962   2.363
 2077SOL    HW1 1994   2.222   3.045   2.307
 2077SOL    HW2 1995   2.233   2.882   2.303
 2078SOL     OW 1996   2.428   2.399   2.727
 2078SOL    HW1 1997   2.440   2.465   2.653
 2078SOL    HW2 1998   2.474   2.433   2.810
 2079SOL     OW 1999   3.114   3.210   2.250
 2079SOL    HW1 2000   3.164   3.287   2.290
 2079SOL    HW2 2001   3.019   3.212   2.282
 2080SOL     OW 2002   3.134   3.307   3.004
 2080SOL    HW1 2003   3.181   3.320   3.091
 2080SOL    HW2 2004   3.068   3.233   3.013
 2081SOL     OW 2005   3.444   2.501   2.334
 2081SOL    HW1 2006   3.413   2.562   2.407
 2081SOL    HW2 2007   3.494   2.553   2.265
 2082SOL     OW 2008   2.216   3.372   3.191
 2082SOL    HW1 2009   2.195   3.328   3.104
 2082SOL    HW2 2010   2.313   3.398   3.194
 2083SOL     OW 2011   2.264   2.613   3.460
 2083SOL    HW1 2012   2.332   2.668   3.413
 2083SOL    HW2 2013   2.304   2.525   3.487
 2084SOL     OW 2014   3.449   2.641   3.532
 2084SOL    HW1 2015   3.357   2.679   3.527
 2084SOL    HW2 2016   3.509   2.688   3.467
 2085SOL     OW 2017   2.875   1.967   3.632
 2085SOL    HW1 2018   2.881   2.052   3.580
 2085SOL    HW2 2019   2.907   1.891   3.575
 2086SOL     OW 2020   2.366   1.912   3.602
 2086SOL    HW1 2021   2.324   1.855   3.532
 2086SOL    HW2 2022   2.300   1.981   3.634
 2087SOL     OW 2023   2.435   2.732   2.891
 2087SOL    HW1 2024   2.479   2.821   2.882
 2087SOL    HW2 2025   2.372   2.732   2.968
 2088SOL     OW 2026   3.222   2.724   2.907
 2088SOL    HW1 2027   3.147   2.724   2.841
 2088SOL    HW2 2028   3.259   2.632   2.916
 2089SOL     OW 2029   3.071   2.387   2.137
 2089SOL    HW1 2030   3.084   2.303   2.191
 2089SOL    HW2 2031   3.042   2.461   2.197
 2090SOL     OW 2032   2.169   2.075   3.093
 2090SOL    HW1 2033   2.146   2.112   3.183
 2090SOL    HW2 2034   2.139   1.980   3.087
 2091SOL     OW 2035   1.899   3.172   3.144
 2091SOL    HW1 2036   1.952   3.123   3.212
 2091SOL    HW2 2037   1.921   3.270   3.149
 2092SOL     OW 2038   2.594   2.496   2.926
 2092SOL    HW1 2039   2.653   2.470   2.850
 2092SOL    HW2 2040   2.566   2.592   2.915
 2094SOL     OW 2041   2.169   1.925   2.480
 2094SOL    HW1 2042   2.158   2.019   2.513
 2094SOL    HW2 2043   2.164   1.862   2.557
 2095SOL     OW 2044   3.484   2.229   2.236
 2095SOL    HW1 2045   3.486   2.153   2.300
 2095SOL    HW2 2046   3.436   2.306   2.276
 2096SOL     OW 2047   2.885   2.628   2.828
 2096SOL    HW1 2048   2.900   2.649   2.924
 2096SOL    HW2 2049   2.855   2.533   2.819
 2099SOL     OW 2050   2.212   2.760   3.666
 2099SOL    HW1 2051   2.288   2.804   3.714
 2099SOL    HW2 2052   2.247   2.713   3.584
 2100SOL     OW 2053   3.402   2.136   1.987
 2100SOL    HW1 2054   3.341   2.061   2.010
 2100SOL    HW2 2055   3.424   2.188   2.070
 2101SOL     OW 2056   3.165   2.700   1.904
 2101SOL    HW1 2057   3.199   2.607   1.919
 2101SOL    HW2 2058   3.183   2.727   1.809
 2102SOL     OW 2059   2.930   3.195   2.711
 2102SOL    HW1 2060   2.937   3.111   2.656
 2102SOL    HW2 2061   2.992   3.264   2.675
 2103SOL     OW 2062   2.181   2.672   2.811
 2103SOL    HW1 2063   2.274   2.708   2.816
 2103SOL    HW2 2064   2.175   2.587   2.863
 2104SOL     OW 2065   2.201   2.371   2.868
 2104SOL    HW1 2066   2.149   2.288   2.851
 2104SOL    HW2 2067   2.278   2.376   2.804
 2105SOL     OW 2068   3.000   2.242   3.540
 2105SOL    HW1 2069   2.955   2.305   3.604
 2105SOL    HW2 2070   3.093   2.273   3.523
 2106SOL     OW 2071   3.022   2.069   3.339
 2106SOL    HW1 2072   3.022   2.133   3.416
 2106SOL    HW2 2073   3.050   2.117   3.256
 2107SOL     OW 2074   1.870   3.188   2.062
 2107SOL    HW1 2075   1.777   3.209   2.031
 2107SOL    HW2 2076   1.880   3.089   2.075
 2108SOL     OW 2077   1.950   3.663   2.789
 2108SOL    HW1 2078   1.908   3.577   2.762
 2108SOL    HW2 2079   2.044   3.666   2.755
 2109SOL     OW 2080   2.366   3.430   2.772
 2109SOL    HW1 2081   2.432   3.504   2.781
 2109SOL    HW2 2082   2.410   3.351   2.730
 2110SOL     OW 2083   2.864   2.658   3.100
 2110SOL    HW1 2084   2.905   2.626   3.186
 2110SOL    HW2 2085   2.768   2.631   3.097
 2111SOL     OW 2086   1.902   2.406   2.976
 2111SOL    HW1 2087   1.987   2.373   2.935
 2111SOL    HW2 2088   1.915   2.421   3.074
 2112SOL     OW 2089   2.051   2.382   3.584
 2112SOL    HW1 2090   2.110   2.342   3.514
 2112SOL    HW2 2091   1.993   2.453   3.543
 2113SOL     OW 2092   3.231   2.812   3.522
 2113SOL    HW1 2093   3.270   2.901   3.542
 2113SOL    HW2 2094   3.241   2.792   3.425
 2114SOL     OW 2095   2.677   2.434   2.187
 2114SOL    HW1 2096   2.684   2.345   2.141
 2114SOL    HW2 2097   2.583   2.468   2.179
 2115SOL     OW 2098   3.519   2.466   3.068
 2115SOL    HW1 2099   3.481   2.397   3.130
 2115SOL    HW2 2100   3.601   2.430   3.024
 2116SOL     OW 2101   2.114   3.426   3.606
 2116SOL    HW1 2102   2.084   3.483   3.682
 2116SOL    HW2 2103   2.107   3.329   3.632
 2117SOL     OW 2104   2.533   2.326   3.131
 2117SOL    HW1 2105   2.499   2.237   3.101
 2117SOL    HW2 2106   2.559   2.380   3.051
 2118SOL     OW 2107   2.792   3.540   3.327
 2118SOL    HW1 2108   2.768   3.522   3.232
 2118SOL    HW2 2109   2.822   3.634   3.337
 2119SOL     OW 2110   2.335   2.362   2.053
 2119SOL    HW1 2111   2.396   2.442   2.057
 2119SOL    HW2 2112   2.240   2.393   2.060
 2120SOL     OW 2113   2.021   2.999   3.328
 2120SOL    HW1 2114   2.043   2.938   3.404
 2120SOL    HW2 2115   2.031   2.950   3.242
 2121SOL     OW 2116   3.209   2.921   3.096
 2121SOL    HW1 2117   3.233   2.858   3.022
 2121SOL    HW2 2118   3.119   2.961   3.078
 2122SOL     OW 2119   3.164   2.717   2.171
 2122SOL    HW1 2120   3.078   2.686   2.213
 2122SOL    HW2 2121   3.160   2.703   2.072
 2124SOL     OW 2122   3.114   3.593   2.990
 2124SOL    HW1 2123   3.198   3.598   2.936
 2124SOL    HW2 2124   3.091   3.497   3.008
 2125SOL     OW 2125   1.945   3.120   2.884
 2125SOL    HW1 2126   1.940   3.119   2.984
 2125SOL    HW2 2127   1.862   3.079   2.846
 2127SOL     OW 2128   3.588   1.997   2.385
 2127SOL    HW1 2129   3.661   1.980   2.318
 2127SOL    HW2 2130   3.557   1.910   2.423
 2128SOL     OW 2131   3.250   3.435   2.339
 2128SOL    HW1 2132   3.317   3.447   2.265
 2128SOL    HW2 2133   3.210   3.524   2.362
 2130SOL     OW 2134   3.142   2.789   2.534
 2130SOL    HW1 2135   3.202   2.708   2.536
 2130SOL    HW2 2136   3.182   2.858   2.474
 2131SOL     OW 2137   2.692   3.135   3.284
 2131SOL    HW1 2138   2.687   3.168   3.379
 2131SOL    HW2 2139   2.606   3.154   3.238
 2132SOL     OW 2140   2.534   3.478   2.016
 2132SOL    HW1 2141   2.543   3.488   1.917
 2132SOL    HW2 2142   2.494   3.389   2.037
 2134SOL     OW 2143   3.703   2.037   2.825
 2134SOL    HW1 2144   3.742   1.952   2.789
 2134SOL    HW2 2145   3.605   2.039   2.806
 2135SOL     OW 2146   2.125   2.188   2.582
 2135SOL    HW1 2147   2.046   2.239   2.548
 2135SOL    HW2 2148   2.116   2.173   2.680
 2136SOL     OW 2149   3.056   3.474   1.893
 2136SOL    HW1 2150   3.062   3.381   1.930
 2136SOL    HW2 2151   2.997   3.474   1.813
 2137SOL     OW 2152   2.684   2.864   3.234
 2137SOL    HW1 2153   2.724   2.863   3.142
 2137SOL    HW2 2154   2.694   2.956   3.274
 2138SOL     OW 2155   2.778   2.772   2.153
 2138SOL    HW1 2156   2.841   2.810   2.085
 2138SOL    HW2 2157   2.818   2.689   2.192
 2139SOL     OW 2158   3.366   3.469   1.906
 2139SOL    HW1 2159   3.274   3.506   1.913
 2139SOL    HW2 2160   3.404   3.489   1.816
 2140SOL     OW 2161   2.234   3.150   3.352
 2140SOL    HW1 2162   2.221   3.243   3.318
 2140SOL    HW2 2163   2.150   3.098   3.339
 2141SOL     OW 2164   3.476   3.154   3.151
 2141SOL    HW1 2165   3.536   3.157   3.231
 2141SOL    HW2 2166   3.401   3.218   3.164
 2142SOL     OW 2167   2.901   2.960   2.558
 2142SOL    HW1 2168   2.831   2.913   2.612
 2142SOL    HW2 2169   2.960   2.892   2.515
 2143SOL     OW 2170   2.876   2.098   2.833
 2143SOL    HW1 2171   2.868   2.062   2.740
 2143SOL    HW2 2172   2.874   2.022   2.898
 2144SOL     OW 2173   2.452   3.349   2.353
 2144SOL    HW1 2174   2.494   3.291   2.283
 2144SOL    HW2 2175   2.408   3.428   2.309
 2145SOL     OW 2176   3.571   2.247   3.243
 2145SOL    HW1 2177   3.644   2.316   3.247
 2145SOL    HW2 2178   3.599   2.172   3.184
 2146SOL     OW 2179   2.117   3.210   2.152
 2146SOL    HW1 2180   2.021   3.211   2.125
 2146SOL    HW2 2181   2.129   3.263   2.236
 2147SOL     OW 2182   1.967   2.875   3.588
 2147SOL    HW1 2183   1.890   2.842   3.642
 2147SOL    HW2 2184   2.052   2.845   3.630
 2148SOL     OW 2185   2.534   2.065   3.351
 2148SOL    HW1 2186   2.624   2.049   3.311
 2148SOL    HW2 2187   2.542   2.070   3.450
 2149SOL     OW 2188   1.937   2.207   1.895
 2149SOL    HW1 2189   1.845   2.179   1.866
 2149SOL    HW2 2190   1.968   2.284   1.839
 2150SOL     OW 2191   3.302   2.718   3.260
 2150SOL    HW1 2192   3.245   2.770   3.197
 2150SOL    HW2 2193   3.398   2.730   3.236
 2151SOL     OW 2194   1.934   2.028   2.180
 2151SOL    HW1 2195   1.917   2.111   2.126
 2151SOL    HW2 2196   2.024   1.991   2.158
 2152SOL     OW 2197   3.045   3.197   1.981
 2152SOL    HW1 2198   2.946   3.186   1.983
 2152SOL    HW2 2199   3.079   3.212   2.074
 2153SOL     OW 2200   2.475   2.704   3.293
 2153SOL    HW1 2201   2.531   2.785   3.276
 2153SOL    HW2 2202   2.534   2.624   3.296
 2155SOL     OW 2203   2.578   2.427   3.570
 2155SOL    HW1 2204   2.597   2.492   3.644
 2155SOL    HW2 2205   2.638   2.347   3.579
 2157SOL     OW 2206   2.252   3.603   3.422
 2157SOL    HW1 2207   2.161   3.644   3.420
 2157SOL    HW2 2208   2.245   3.509   3.454
 2158SOL     OW 2209   3.536   2.745   3.116
 2158SOL    HW1 2210   3.509   2.656   3.079
 2158SOL    HW2 2211   3.537   2.813   3.043
 2159SOL     OW 2212   3.087   2.187   2.311
 2159SOL    HW1 2213   3.152   2.113   2.300
 2159SOL    HW2 2214   3.107   2.237   2.395
 2160SOL     OW 2215   2.456   2.607   2.514
 2160SOL    HW1 2216   2.506   2.692   2.495
 2160SOL    HW2 2217   2.368   2.609   2.466
 2163SOL     OW 2218   2.721   3.236   1.878
 2163SOL    HW1 2219   2.675   3.251   1.966
 2163SOL    HW2 2220   2.765   3.321   1.848
 2164SOL     OW 2221   2.523   3.652   2.815
 2164SOL    HW1 2222   2.477   3.740   2.802
 2164SOL    HW2 2223   2.622   3.664   2.808
 2165SOL     OW 2224   2.721   2.818   2.723
 2165SOL    HW1 2225   2.775   2.749   2.771
 2165SOL    HW2 2226   2.689   2.887   2.789
 2166SOL     OW 2227   2.945   2.846   1.949
 2166SOL    HW1 2228   2.922   2.899   1.867
 2166SOL    HW2 2229   3.026   2.790   1.930
 2168SOL     OW 2230   2.083   3.176   3.706
 2168SOL    HW1 2231   2.018   3.103   3.685
 2168SOL    HW2 2232   2.087   3.190   3.804
 2169SOL     OW 2233   1.941   3.102   2.515
 2169SOL    HW1 2234   1.940   3.055   2.603
 2169SOL    HW2 2235   2.023   3.074   2.464
 2170SOL     OW 2236   2.534   3.253   3.486
 2170SOL    HW1 2237   2.456   3.203   3.524
 2170SOL    HW2 2238   2.531   3.348   3.517
 2171SOL     OW 2239   3.686   2.054   3.089
 2171SOL    HW1 2240   3.682   1.964   3.133
 2171SOL    HW2 2241   3.689   2.043   2.990
 2173SOL     OW 2242   2.179   2.409   3.142
 2173SOL    HW1 2243   2.217   2.350   3.214
 2173SOL    HW2 2244   2.219   2.383   3.054
 2174SOL     OW 2245   2.674   3.448   2.549
 2174SOL    HW1 2246   2.706   3.458   2.455
 2174SOL    HW2 2247   2.595   3.386   2.551
 2175SOL     OW 2248   3.286   2.076   2.974
 2175SOL    HW1 2249   3.338   2.011   3.029
 2175SOL    HW2 2250   3.237   2.139   3.035
 2176SOL     OW 2251   2.863   1.896   3.016
 2176SOL    HW1 2252   2.800   1.824   2.985
 2176SOL    HW2 2253   2.956   1.860   3.016
 2177SOL     OW 2254   2.632   3.192   2.163
 2177SOL    HW1 2255   2.586   3.105   2.180
 2177SOL    HW2 2256   2.723   3.189   2.204
 2178SOL     OW 2257   2.480   3.429   3.146
 2178SOL    HW1 2258   2.475   3.511   3.203
 2178SOL    HW2 2259   2.569   3.426   3.101
 2179SOL     OW 2260   3.214   1.914   2.030
 2179SOL    HW1 2261   3.249   1.873   1.946
 2179SOL    HW2 2262   3.124   1.876   2.050
 2180SOL     OW 2263   3.162   2.315   2.553
 2180SOL    HW1 2264   3.103   2.395   2.557
 2180SOL    HW2 2265   3.177   2.280   2.646
 2181SOL     OW 2266   3.455   2.083   2.744
 2181SOL    HW1 2267   3.371   2.082   2.798
 2181SOL    HW2 2268   3.457   2.166   2.688
 2182SOL     OW 2269   1.901   2.939   2.162
 2182SOL    HW1 2270   2.000   2.928   2.153
 2182SOL    HW2 2271   1.861   2.853   2.194
 2183SOL     OW 2272   2.737   3.508   2.199
 2183SOL    HW1 2273   2.660   3.473   2.145
 2183SOL    HW2 2274   2.705   3.579   2.261
 2184SOL     OW 2275   2.092   2.490   3.837
 2184SOL    HW1 2276   1.999   2.488   3.874
 2184SOL    HW2 2277   2.093   2.451   3.745
 2191SOL     OW 2278   2.468   2.826   3.847
 2191SOL    HW1 2279   2.475   2.910   3.793
 2191SOL    HW2 2280   2.514   2.839   3.935
 2201SOL     OW 2281   2.460   2.591   3.994
 2201SOL    HW1 2282   2.484   2.660   3.926
 2201SOL    HW2 2283   2.382   2.624   4.048
 2206SOL     OW 2284   2.727   2.210   3.919
 2206SOL    HW1 2285   2.786   2.273   3.870
 2206SOL    HW2 2286   2.746   2.116   3.890
 2211SOL     OW 2287   2.183   2.805   3.966
 2211SOL    HW1 2288   2.265   2.844   3.924
 2211SOL    HW2 2289   2.156   2.723   3.917
 2218SOL     OW 2290   2.476   1.984   3.841
 2218SOL    HW1 2291   2.574   1.962   3.848
 2218SOL    HW2 2292   2.445   1.967   3.748
 2221SOL     OW 2293   2.159   1.897   3.895
 2221SOL    HW1 2294   2.208   1.981   3.874
 2221SOL    HW2 2295   2.221   1.832   3.940
 2225SOL     OW 2296   2.894   2.411   3.740
 2225SOL    HW1 2297   2.853   2.493   3.701
 2225SOL    HW2 2298   2.958   2.437   3.813
 2231SOL     OW 2299   2.389   2.118   4.052
 2231SOL    HW1 2300   2.416   2.059   3.977
 2231SOL    HW2 2301   2.389   2.213   4.021
 2240SOL     OW 2302   3.165   2.700   3.766
 2240SOL    HW1 2303   3.199   2.607   3.781
 2240SOL    HW2 2304   3.183   2.727   3.671
 2243SOL     OW 2305   2.335   2.362   3.915
 2243SOL    HW1 2306   2.396   2.442   3.919
 2243SOL    HW2 2307   2.240   2.393   3.922
 2253SOL     OW 2308   1.937   2.207   3.757
 2253SOL    HW1 2309   1.845   2.179   3.728
 2253SOL    HW2 2310   1.968   2.284   3.701
 2261SOL     OW 2311   2.945   2.846   3.811
 2261SOL    HW1 2312   2.922   2.899   3.729
 2261SOL    HW2 2313   3.026   2.790   3.792
 2282SOL     OW 2314   2.179   3.975   1.801
 2282SOL    HW1 2315   2.250   4.046   1.807
 2282SOL    HW2 2316   2.091   4.014   1.829
 2318SOL     OW 2317   2.875   3.829   1.770
 2318SOL    HW1 2318   2.881   3.914   1.718
 2318SOL    HW2 2319   2.907   3.753   1.713
 2319SOL     OW 2320   2.366   3.774   1.740
 2319SOL    HW1 2321   2.324   3.717   1.670
 2319SOL    HW2 2322   2.300   3.843   1.772
 2374SOL     OW 2323   2.671   3.728   2.364
 2374SOL    HW1 2324   2.711   3.819   2.355
 2374SOL    HW2 2325   2.571   3.736   2.370
 2384SOL     OW 2326   2.412   3.920   2.747
 2384SOL    HW1 2327   2.407   3.915   2.847
 2384SOL    HW2 2328   2.414   4.016   2.718
 2390SOL     OW 2329   2.476   3.846   1.979
 2390SOL    HW1 2330   2.574   3.824   1.986
 2390SOL    HW2 2331   2.445   3.829   1.886
 2394SOL     OW 2332   2.401   3.788   2.374
 2394SOL    HW1 2333   2.320   3.789   2.432
 2394SOL    HW2 2334   2.404   3.871   2.319
 2395SOL     OW 2335   2.159   3.759   2.033
 2395SOL    HW1 2336   2.208   3.843   2.012
 2395SOL    HW2 2337   2.221   3.694   2.078
 2396SOL     OW 2338   2.797   3.960   2.342
 2396SOL    HW1 2339   2.749   4.001   2.264
 2396SOL    HW2 2340   2.896   3.958   2.323
 2402SOL     OW 2341   2.879   3.763   2.615
 2402SOL    HW1 2342   2.807   3.768   2.546
 2402SOL    HW2 2343   2.855   3.694   2.684
 2405SOL     OW 2344   2.389   3.980   2.190
 2405SOL    HW1 2345   2.416   3.921   2.115
 2405SOL    HW2 2346   2.389   4.075   2.159
 2420SOL     OW 2347   2.169   3.787   2.480
 2420SOL    HW1 2348   2.158   3.881   2.513
 2420SOL    HW2 2349   2.164   3.724   2.557
 2443SOL     OW 2350   1.934   3.890   2.180
 2443SOL    HW1 2351   1.917   3.973   2.126
 2443SOL    HW2 2352   2.024   3.853   2.158
 2454SOL     OW 2353   2.863   3.758   3.016
 2454SOL    HW1 2354   2.800   3.686   2.985
 2454SOL    HW2 2355   2.956   3.722   3.016
 2455SOL     OW 2356   3.214   3.776   2.030
 2455SOL    HW1 2357   3.249   3.735   1.946
 2455SOL    HW2 2358   3.124   3.738   2.050
 2522SOL     OW 2359   3.854   1.821   1.571
 2522SOL    HW1 2360   3.844   1.806   1.670
 2522SOL    HW2 2361   3.768   1.857   1.535
 2568SOL     OW 2362   3.854   1.794   1.851
 2568SOL    HW1 2363   3.813   1.720   1.904
 2568SOL    HW2 2364   3.918   1.845   1.909
 2599SOL     OW 2365   3.955   1.713   2.345
 2599SOL    HW1 2366   3.989   1.790   2.399
 2599SOL    HW2 2367   3.999   1.713   2.255
 2605SOL     OW 2368   3.751   1.596   1.979
 2605SOL    HW1 2369   3.732   1.500   2.000
 2605SOL    HW2 2370   3.718   1.654   2.054
 2647SOL     OW 2371   3.732   1.326   2.062
 2647SOL    HW1 2372   3.639   1.347   2.031
 2647SOL    HW2 2373   3.742   1.227   2.075
 2648SOL     OW 2374   3.812   1.801   2.789
 2648SOL    HW1 2375   3.770   1.715   2.762
 2648SOL    HW2 2376   3.906   1.804   2.755
 2736SOL     OW 2377   3.837   2.599   1.597
 2736SOL    HW1 2378   3.925   2.586   1.642
 2736SOL    HW2 2379   3.824   2.696   1.575
 2756SOL     OW 2380   3.802   2.418   1.386
 2756SOL    HW1 2381   3.894   2.417   1.345
 2756SOL    HW2 2382   3.796   2.492   1.453
 2779SOL     OW 2383   3.913   2.382   1.722
 2779SOL    HW1 2384   3.972   2.342   1.652
 2779SOL    HW2 2385   3.855   2.453   1.681
 2793SOL     OW 2386   3.829   2.875   1.726
 2793SOL    HW1 2387   3.752   2.842   1.780
 2793SOL    HW2 2388   3.914   2.845   1.768
 2809SOL     OW 2389   3.954   2.490   1.975
 2809SOL    HW1 2390   3.861   2.488   2.012
 2809SOL    HW2 2391   3.955   2.451   1.883
 2810SOL     OW 2392   3.949   2.137   2.858
 2810SOL    HW1 2393   3.984   2.120   2.950
 2810SOL    HW2 2394   3.861   2.092   2.846
 2811SOL     OW 2395   3.743   2.230   2.509
 2811SOL    HW1 2396   3.661   2.273   2.548
 2811SOL    HW2 2397   3.715   2.157   2.446
 2823SOL     OW 2398   3.846   2.505   2.425
 2823SOL    HW1 2399   3.801   2.417   2.442
 2823SOL    HW2 2400   3.845   2.559   2.509
 2831SOL     OW 2401   3.800   2.673   2.651
 2831SOL    HW1 2402   3.899   2.661   2.660
 2831SOL    HW2 2403   3.776   2.768   2.672
 2866SOL     OW 2404   3.732   3.188   2.062
 2866SOL    HW1 2405   3.639   3.209   2.031
 2866SOL    HW2 2406   3.742   3.089   2.075
 2869SOL     OW 2407   3.764   2.406   2.976
 2869SOL    HW1 2408   3.849   2.373   2.935
 2869SOL    HW2 2409   3.777   2.421   3.074
 2879SOL     OW 2410   3.987   2.188   2.582
 2879SOL    HW1 2411   3.908   2.239   2.548
 2879SOL    HW2 2412   3.978   2.173   2.680
 2886SOL     OW 2413   3.799   2.207   1.895
 2886SOL    HW1 2414   3.707   2.179   1.866
 2886SOL    HW2 2415   3.830   2.284   1.839
 2887SOL     OW 2416   3.796   2.028   2.180
 2887SOL    HW1 2417   3.779   2.111   2.126
 2887SOL    HW2 2418   3.886   1.991   2.158
 2893SOL     OW 2419   3.803   3.102   2.515
 2893SOL    HW1 2420   3.802   3.055   2.603
 2893SOL    HW2 2421   3.885   3.074   2.464
 2899SOL     OW 2422   3.763   2.939   2.162
 2899SOL    HW1 2423   3.862   2.928   2.153
 2899SOL    HW2 2424   3.723   2.853   2.194
   4.53394   4.53394   4.53394
