mobley_3047364_GMX.gro created by acpype (v: 2023.10.27) on Tue May 19 12:41:41 2026
 2396
    1MOL     C1    1   2.459   2.576   2.422
    1MOL     C2    2   2.580   2.599   2.611
    1MOL     C3    3   2.643   2.454   2.453
    1MOL     C4    4   2.237   2.665   2.139
    1MOL     C5    5   2.560   2.483   2.896
    1MOL     C6    6   2.695   2.687   2.951
    1MOL     C7    7   2.887   2.340   2.513
    1MOL     C8    8   2.363   2.612   2.205
    1MOL     C9    9   2.656   2.588   2.841
    1MOL     N1   10   2.475   2.637   2.539
    1MOL     N2   11   2.541   2.484   2.374
    1MOL     N3   12   2.667   2.508   2.572
    1MOL     N4   13   2.347   2.616   2.349
    1MOL     N5   14   2.595   2.663   2.733
    1MOL     S1   15   2.754   2.330   2.391
    1MOL     H1   16   2.150   2.605   2.167
    1MOL     H2   17   2.217   2.768   2.168
    1MOL     H3   18   2.247   2.662   2.030
    1MOL     H4   19   2.466   2.529   2.930
    1MOL     H5   20   2.534   2.408   2.820
    1MOL     H6   21   2.605   2.430   2.981
    1MOL     H7   22   2.607   2.740   2.990
    1MOL     H8   23   2.764   2.762   2.913
    1MOL     H9   24   2.743   2.636   3.035
    1MOL    H10   25   2.966   2.270   2.486
    1MOL    H11   26   2.850   2.313   2.613
    1MOL    H12   27   2.929   2.441   2.516
    1MOL    H13   28   2.448   2.673   2.174
    1MOL    H14   29   2.380   2.509   2.171
    1MOL    H15   30   2.749   2.539   2.808
    1MOL    H16   31   2.318   2.705   2.388
    1MOL    H17   32   2.506   2.708   2.754
   97SOL     OW   33   1.592   1.629   1.625
   97SOL    HW1   34   1.619   1.663   1.535
   97SOL    HW2   35   1.671   1.591   1.671
  127SOL     OW   36   1.859   1.518   1.605
  127SOL    HW1   37   1.873   1.545   1.510
  127SOL    HW2   38   1.942   1.540   1.658
  163SOL     OW   39   1.650   1.720   1.394
  163SOL    HW1   40   1.703   1.730   1.310
  163SOL    HW2   41   1.623   1.810   1.428
  219SOL     OW   42   1.555   1.511   2.565
  219SOL    HW1   43   1.498   1.495   2.646
  219SOL    HW2   44   1.496   1.521   2.485
  227SOL     OW   45   1.460   1.505   3.201
  227SOL    HW1   46   1.484   1.599   3.227
  227SOL    HW2   47   1.444   1.451   3.283
  238SOL     OW   48   1.842   1.767   2.221
  238SOL    HW1   49   1.896   1.738   2.301
  238SOL    HW2   50   1.872   1.857   2.192
  241SOL     OW   51   1.641   1.108   2.294
  241SOL    HW1   52   1.727   1.110   2.242
  241SOL    HW2   53   1.655   1.155   2.382
  250SOL     OW   54   1.466   1.417   2.815
  250SOL    HW1   55   1.407   1.423   2.895
  250SOL    HW2   56   1.451   1.329   2.769
  251SOL     OW   57   1.667   1.714   2.434
  251SOL    HW1   58   1.626   1.691   2.346
  251SOL    HW2   59   1.649   1.640   2.499
  254SOL     OW   60   1.576   1.662   2.169
  254SOL    HW1   61   1.665   1.708   2.172
  254SOL    HW2   62   1.555   1.638   2.074
  268SOL     OW   63   1.795   1.066   2.735
  268SOL    HW1   64   1.733   1.051   2.659
  268SOL    HW2   65   1.743   1.077   2.820
  273SOL     OW   66   1.111   1.776   2.099
  273SOL    HW1   67   1.051   1.714   2.149
  273SOL    HW2   68   1.142   1.732   2.014
  275SOL     OW   69   1.632   1.377   1.943
  275SOL    HW1   70   1.600   1.471   1.933
  275SOL    HW2   71   1.556   1.314   1.931
  293SOL     OW   72   1.227   1.570   2.655
  293SOL    HW1   73   1.248   1.644   2.590
  293SOL    HW2   74   1.295   1.570   2.728
  295SOL     OW   75   1.271   1.797   2.453
  295SOL    HW1   76   1.315   1.861   2.389
  295SOL    HW2   77   1.221   1.849   2.523
  301SOL     OW   78   1.429   1.173   2.729
  301SOL    HW1   79   1.374   1.089   2.722
  301SOL    HW2   80   1.455   1.202   2.637
  305SOL     OW   81   1.664   1.280   2.519
  305SOL    HW1   82   1.763   1.288   2.533
  305SOL    HW2   83   1.619   1.364   2.550
  308SOL     OW   84   1.754   1.223   3.450
  308SOL    HW1   85   1.845   1.184   3.437
  308SOL    HW2   86   1.762   1.319   3.474
  310SOL     OW   87   1.592   1.629   3.487
  310SOL    HW1   88   1.619   1.663   3.397
  310SOL    HW2   89   1.671   1.591   3.533
  312SOL     OW   90   1.638   1.099   2.941
  312SOL    HW1   91   1.643   1.180   3.000
  312SOL    HW2   92   1.552   1.101   2.890
  322SOL     OW   93   1.272   1.445   3.004
  322SOL    HW1   94   1.319   1.458   3.091
  322SOL    HW2   95   1.206   1.371   3.013
  340SOL     OW   96   1.859   1.518   3.467
  340SOL    HW1   97   1.873   1.545   3.372
  340SOL    HW2   98   1.942   1.540   3.520
  365SOL     OW   99   1.759   1.747   3.016
  365SOL    HW1  100   1.820   1.777   2.943
  365SOL    HW2  101   1.721   1.658   2.994
  366SOL     OW  102   1.252   1.731   2.990
  366SOL    HW1  103   1.336   1.736   2.936
  366SOL    HW2  104   1.229   1.635   3.008
  370SOL     OW  105   1.388   1.573   2.339
  370SOL    HW1  106   1.455   1.585   2.265
  370SOL    HW2  107   1.348   1.662   2.362
  375SOL     OW  108   1.650   1.720   3.256
  375SOL    HW1  109   1.703   1.730   3.172
  375SOL    HW2  110   1.623   1.810   3.290
  378SOL     OW  111   1.194   1.612   1.893
  378SOL    HW1  112   1.200   1.519   1.930
  378SOL    HW2  113   1.135   1.612   1.813
  381SOL     OW  114   1.504   1.607   1.906
  381SOL    HW1  115   1.412   1.644   1.913
  381SOL    HW2  116   1.542   1.627   1.816
  383SOL     OW  117   1.614   1.292   3.151
  383SOL    HW1  118   1.674   1.295   3.231
  383SOL    HW2  119   1.539   1.356   3.164
  396SOL     OW  120   1.493   1.767   2.821
  396SOL    HW1  121   1.526   1.831   2.752
  396SOL    HW2  122   1.559   1.761   2.896
  409SOL     OW  123   1.861   1.569   2.713
  409SOL    HW1  124   1.790   1.557   2.643
  409SOL    HW2  125   1.862   1.490   2.773
  415SOL     OW  126   1.705   1.487   2.966
  415SOL    HW1  127   1.612   1.462   2.939
  415SOL    HW2  128   1.731   1.437   3.048
  605SOL     OW  129   1.127   3.203   1.690
  605SOL    HW1  130   1.174   3.203   1.778
  605SOL    HW2  131   1.079   3.116   1.679
  610SOL     OW  132   1.594   1.976   1.480
  610SOL    HW1  133   1.576   2.043   1.408
  610SOL    HW2  134   1.591   2.022   1.569
  618SOL     OW  135   1.293   3.090   1.423
  618SOL    HW1  136   1.330   3.017   1.365
  618SOL    HW2  137   1.345   3.095   1.508
  630SOL     OW  138   1.394   2.331   1.674
  630SOL    HW1  139   1.374   2.374   1.762
  630SOL    HW2  140   1.472   2.269   1.683
  637SOL     OW  141   1.719   2.447   1.831
  637SOL    HW1  142   1.693   2.536   1.795
  637SOL    HW2  143   1.717   2.379   1.758
  655SOL     OW  144   1.547   2.084   1.729
  655SOL    HW1  145   1.542   2.121   1.821
  655SOL    HW2  146   1.475   2.015   1.717
  658SOL     OW  147   1.351   2.452   1.433
  658SOL    HW1  148   1.379   2.409   1.518
  658SOL    HW2  149   1.376   2.548   1.434
  680SOL     OW  150   1.754   3.085   1.588
  680SOL    HW1  151   1.845   3.046   1.575
  680SOL    HW2  152   1.762   3.181   1.612
  682SOL     OW  153   1.592   3.491   1.625
  682SOL    HW1  154   1.619   3.525   1.535
  682SOL    HW2  155   1.671   3.453   1.671
  684SOL     OW  156   1.638   2.961   1.079
  684SOL    HW1  157   1.643   3.042   1.138
  684SOL    HW2  158   1.552   2.963   1.028
  698SOL     OW  159   1.587   2.641   1.670
  698SOL    HW1  160   1.495   2.679   1.665
  698SOL    HW2  161   1.647   2.688   1.605
  707SOL     OW  162   1.728   2.797   1.854
  707SOL    HW1  163   1.682   2.790   1.765
  707SOL    HW2  164   1.666   2.841   1.920
  712SOL     OW  165   1.859   3.380   1.605
  712SOL    HW1  166   1.873   3.407   1.510
  712SOL    HW2  167   1.942   3.402   1.658
  719SOL     OW  168   1.138   2.242   1.678
  719SOL    HW1  169   1.093   2.305   1.742
  719SOL    HW2  170   1.231   2.273   1.661
  727SOL     OW  171   1.369   2.812   1.660
  727SOL    HW1  172   1.408   2.901   1.680
  727SOL    HW2  173   1.379   2.792   1.563
  729SOL     OW  174   1.657   2.466   1.206
  729SOL    HW1  175   1.619   2.397   1.268
  729SOL    HW2  176   1.739   2.430   1.162
  748SOL     OW  177   1.650   3.582   1.394
  748SOL    HW1  178   1.703   3.592   1.310
  748SOL    HW2  179   1.623   3.672   1.428
  756SOL     OW  180   1.614   3.154   1.289
  756SOL    HW1  181   1.674   3.157   1.369
  756SOL    HW2  182   1.539   3.218   1.302
  760SOL     OW  183   1.709   2.247   1.381
  760SOL    HW1  184   1.782   2.316   1.385
  760SOL    HW2  185   1.737   2.172   1.322
  765SOL     OW  186   1.440   2.718   1.398
  765SOL    HW1  187   1.383   2.770   1.335
  765SOL    HW2  188   1.536   2.730   1.374
  771SOL     OW  189   1.450   3.082   1.633
  771SOL    HW1  190   1.441   3.072   1.732
  771SOL    HW2  191   1.546   3.075   1.607
  773SOL     OW  192   1.674   2.745   1.254
  773SOL    HW1  193   1.647   2.656   1.217
  773SOL    HW2  194   1.675   2.813   1.181
  776SOL     OW  195   1.777   2.204   1.642
  776SOL    HW1  196   1.760   2.235   1.548
  776SOL    HW2  197   1.693   2.167   1.680
  777SOL     OW  198   1.730   2.796   1.517
  777SOL    HW1  199   1.768   2.887   1.532
  777SOL    HW2  200   1.722   2.779   1.418
  786SOL     OW  201   1.824   2.054   1.227
  786SOL    HW1  202   1.820   1.964   1.271
  786SOL    HW2  203   1.827   2.043   1.128
  804SOL     OW  204   1.555   3.373   2.565
  804SOL    HW1  205   1.498   3.357   2.646
  804SOL    HW2  206   1.496   3.383   2.485
  805SOL     OW  207   1.135   2.565   2.579
  805SOL    HW1  208   1.192   2.643   2.554
  805SOL    HW2  209   1.075   2.591   2.655
  806SOL     OW  210   1.755   2.469   2.093
  806SOL    HW1  211   1.743   2.456   1.994
  806SOL    HW2  212   1.725   2.388   2.142
  812SOL     OW  213   1.460   3.367   3.201
  812SOL    HW1  214   1.484   3.461   3.227
  812SOL    HW2  215   1.444   3.313   3.283
  814SOL     OW  216   1.603   2.309   2.599
  814SOL    HW1  217   1.529   2.355   2.549
  814SOL    HW2  218   1.654   2.377   2.652
  821SOL     OW  219   1.594   1.976   3.342
  821SOL    HW1  220   1.576   2.043   3.270
  821SOL    HW2  221   1.591   2.022   3.431
  823SOL     OW  222   1.842   3.629   2.221
  823SOL    HW1  223   1.896   3.600   2.301
  823SOL    HW2  224   1.872   3.719   2.192
  825SOL     OW  225   1.689   2.784   2.474
  825SOL    HW1  226   1.784   2.755   2.482
  825SOL    HW2  227   1.681   2.849   2.399
  826SOL     OW  228   1.641   2.970   2.294
  826SOL    HW1  229   1.727   2.972   2.242
  826SOL    HW2  230   1.655   3.017   2.382
  829SOL     OW  231   1.293   3.090   3.285
  829SOL    HW1  232   1.330   3.017   3.227
  829SOL    HW2  233   1.345   3.095   3.370
  832SOL     OW  234   1.525   2.861   2.052
  832SOL    HW1  235   1.462   2.785   2.065
  832SOL    HW2  236   1.573   2.879   2.138
  835SOL     OW  237   1.466   3.279   2.815
  835SOL    HW1  238   1.407   3.285   2.895
  835SOL    HW2  239   1.451   3.191   2.769
  836SOL     OW  240   1.667   3.576   2.434
  836SOL    HW1  241   1.626   3.553   2.346
  836SOL    HW2  242   1.649   3.502   2.499
  838SOL     OW  243   1.281   2.207   2.806
  838SOL    HW1  244   1.195   2.157   2.793
  838SOL    HW2  245   1.343   2.153   2.862
  839SOL     OW  246   1.576   3.524   2.169
  839SOL    HW1  247   1.665   3.570   2.172
  839SOL    HW2  248   1.555   3.500   2.074
  841SOL     OW  249   1.394   2.331   3.536
  841SOL    HW1  250   1.374   2.374   3.624
  841SOL    HW2  251   1.472   2.269   3.545
  843SOL     OW  252   0.991   2.272   3.104
  843SOL    HW1  253   0.914   2.306   3.158
  843SOL    HW2  254   0.957   2.221   3.025
  844SOL     OW  255   1.041   2.563   2.291
  844SOL    HW1  256   1.067   2.559   2.387
  844SOL    HW2  257   0.956   2.512   2.277
  848SOL     OW  258   1.719   2.447   3.693
  848SOL    HW1  259   1.693   2.536   3.657
  848SOL    HW2  260   1.717   2.379   3.620
  849SOL     OW  261   1.362   3.006   2.407
  849SOL    HW1  262   1.445   2.977   2.359
  849SOL    HW2  263   1.313   3.073   2.351
  851SOL     OW  264   1.008   3.318   2.339
  851SOL    HW1  265   0.962   3.390   2.287
  851SOL    HW2  266   1.004   3.338   2.437
  853SOL     OW  267   1.795   2.928   2.735
  853SOL    HW1  268   1.733   2.913   2.659
  853SOL    HW2  269   1.743   2.939   2.820
  854SOL     OW  270   1.227   3.412   3.368
  854SOL    HW1  271   1.233   3.335   3.432
  854SOL    HW2  272   1.175   3.386   3.288
  856SOL     OW  273   1.458   2.597   2.590
  856SOL    HW1  274   1.453   2.532   2.665
  856SOL    HW2  275   1.538   2.656   2.603
  860SOL     OW  276   1.632   3.239   1.943
  860SOL    HW1  277   1.600   3.333   1.933
  860SOL    HW2  278   1.556   3.176   1.931
  862SOL     OW  279   1.400   1.969   2.288
  862SOL    HW1  280   1.376   1.932   2.198
  862SOL    HW2  281   1.499   1.985   2.292
  866SOL     OW  282   1.547   2.084   3.591
  866SOL    HW1  283   1.542   2.121   3.683
  866SOL    HW2  284   1.475   2.015   3.579
  870SOL     OW  285   1.351   2.452   3.295
  870SOL    HW1  286   1.379   2.409   3.380
  870SOL    HW2  287   1.376   2.548   3.296
  872SOL     OW  288   0.922   2.365   2.761
  872SOL    HW1  289   0.897   2.356   2.665
  872SOL    HW2  290   0.970   2.283   2.792
  874SOL     OW  291   1.434   3.050   1.903
  874SOL    HW1  292   1.466   2.974   1.960
  874SOL    HW2  293   1.342   3.077   1.933
  876SOL     OW  294   0.935   2.098   2.342
  876SOL    HW1  295   0.887   2.139   2.264
  876SOL    HW2  296   1.034   2.096   2.323
  877SOL     OW  297   1.076   2.545   3.326
  877SOL    HW1  298   0.996   2.484   3.329
  877SOL    HW2  299   1.157   2.492   3.302
  878SOL     OW  300   1.227   3.432   2.655
  878SOL    HW1  301   1.248   3.506   2.590
  878SOL    HW2  302   1.295   3.432   2.728
  880SOL     OW  303   1.271   3.659   2.453
  880SOL    HW1  304   1.315   3.723   2.389
  880SOL    HW2  305   1.221   3.711   2.523
  881SOL     OW  306   1.032   2.411   1.878
  881SOL    HW1  307   0.991   2.493   1.839
  881SOL    HW2  308   1.096   2.437   1.951
  884SOL     OW  309   0.866   2.316   2.504
  884SOL    HW1  310   0.834   2.388   2.442
  884SOL    HW2  311   0.890   2.235   2.451
  885SOL     OW  312   1.017   1.901   2.615
  885SOL    HW1  313   0.945   1.906   2.546
  885SOL    HW2  314   0.993   1.832   2.684
  886SOL     OW  315   1.429   3.035   2.729
  886SOL    HW1  316   1.374   2.951   2.722
  886SOL    HW2  317   1.455   3.064   2.637
  887SOL     OW  318   1.466   2.452   2.854
  887SOL    HW1  319   1.436   2.357   2.861
  887SOL    HW2  320   1.539   2.468   2.920
  888SOL     OW  321   1.857   2.695   2.239
  888SOL    HW1  322   1.899   2.631   2.303
  888SOL    HW2  323   1.819   2.644   2.161
  890SOL     OW  324   1.664   3.142   2.519
  890SOL    HW1  325   1.763   3.150   2.533
  890SOL    HW2  326   1.619   3.226   2.550
  891SOL     OW  327   1.390   2.437   1.940
  891SOL    HW1  328   1.336   2.416   2.021
  891SOL    HW2  329   1.481   2.396   1.949
  893SOL     OW  330   1.754   3.085   3.450
  893SOL    HW1  331   1.845   3.046   3.437
  893SOL    HW2  332   1.762   3.181   3.474
  894SOL     OW  333   1.064   3.209   3.202
  894SOL    HW1  334   0.984   3.186   3.257
  894SOL    HW2  335   1.147   3.183   3.251
  895SOL     OW  336   1.592   3.491   3.487
  895SOL    HW1  337   1.619   3.525   3.397
  895SOL    HW2  338   1.671   3.453   3.533
  896SOL     OW  339   1.111   3.057   2.962
  896SOL    HW1  340   1.071   3.101   3.043
  896SOL    HW2  341   1.070   3.094   2.879
  897SOL     OW  342   1.638   2.961   2.941
  897SOL    HW1  343   1.643   3.042   3.000
  897SOL    HW2  344   1.552   2.963   2.890
  902SOL     OW  345   1.274   2.248   3.124
  902SOL    HW1  346   1.295   2.322   3.188
  902SOL    HW2  347   1.185   2.265   3.081
  906SOL     OW  348   1.252   3.210   2.250
  906SOL    HW1  349   1.302   3.287   2.290
  906SOL    HW2  350   1.157   3.212   2.282
  907SOL     OW  351   1.272   3.307   3.004
  907SOL    HW1  352   1.319   3.320   3.091
  907SOL    HW2  353   1.206   3.233   3.013
  908SOL     OW  354   1.582   2.501   2.334
  908SOL    HW1  355   1.551   2.562   2.407
  908SOL    HW2  356   1.632   2.553   2.265
  911SOL     OW  357   1.587   2.641   3.532
  911SOL    HW1  358   1.495   2.679   3.527
  911SOL    HW2  359   1.647   2.688   3.467
  915SOL     OW  360   1.360   2.724   2.907
  915SOL    HW1  361   1.285   2.724   2.841
  915SOL    HW2  362   1.397   2.632   2.916
  916SOL     OW  363   1.209   2.387   2.137
  916SOL    HW1  364   1.222   2.303   2.191
  916SOL    HW2  365   1.180   2.461   2.197
  920SOL     OW  366   1.728   2.797   3.716
  920SOL    HW1  367   1.682   2.790   3.627
  920SOL    HW2  368   1.666   2.841   3.782
  922SOL     OW  369   1.622   2.229   2.236
  922SOL    HW1  370   1.624   2.153   2.300
  922SOL    HW2  371   1.574   2.306   2.276
  923SOL     OW  372   1.023   2.628   2.828
  923SOL    HW1  373   1.038   2.649   2.924
  923SOL    HW2  374   0.993   2.533   2.819
  925SOL     OW  375   1.859   3.380   3.467
  925SOL    HW1  376   1.873   3.407   3.372
  925SOL    HW2  377   1.942   3.402   3.520
  927SOL     OW  378   1.540   2.136   1.987
  927SOL    HW1  379   1.479   2.061   2.010
  927SOL    HW2  380   1.562   2.188   2.070
  928SOL     OW  381   1.303   2.700   1.904
  928SOL    HW1  382   1.337   2.607   1.919
  928SOL    HW2  383   1.321   2.727   1.809
  929SOL     OW  384   1.068   3.195   2.711
  929SOL    HW1  385   1.075   3.111   2.656
  929SOL    HW2  386   1.130   3.264   2.675
  932SOL     OW  387   1.138   2.242   3.540
  932SOL    HW1  388   1.093   2.305   3.604
  932SOL    HW2  389   1.231   2.273   3.523
  933SOL     OW  390   1.160   2.069   3.339
  933SOL    HW1  391   1.160   2.133   3.416
  933SOL    HW2  392   1.188   2.117   3.256
  937SOL     OW  393   1.002   2.658   3.100
  937SOL    HW1  394   1.043   2.626   3.186
  937SOL    HW2  395   0.906   2.631   3.097
  940SOL     OW  396   1.369   2.812   3.522
  940SOL    HW1  397   1.408   2.901   3.542
  940SOL    HW2  398   1.379   2.792   3.425
  941SOL     OW  399   0.815   2.434   2.187
  941SOL    HW1  400   0.822   2.345   2.141
  941SOL    HW2  401   0.721   2.468   2.179
  942SOL     OW  402   1.657   2.466   3.068
  942SOL    HW1  403   1.619   2.397   3.130
  942SOL    HW2  404   1.739   2.430   3.024
  948SOL     OW  405   1.347   2.921   3.096
  948SOL    HW1  406   1.371   2.858   3.022
  948SOL    HW2  407   1.257   2.961   3.078
  949SOL     OW  408   1.302   2.717   2.171
  949SOL    HW1  409   1.216   2.686   2.213
  949SOL    HW2  410   1.298   2.703   2.072
  950SOL     OW  411   1.759   3.609   3.016
  950SOL    HW1  412   1.820   3.639   2.943
  950SOL    HW2  413   1.721   3.520   2.994
  951SOL     OW  414   1.252   3.593   2.990
  951SOL    HW1  415   1.336   3.598   2.936
  951SOL    HW2  416   1.229   3.497   3.008
  954SOL     OW  417   1.726   1.997   2.385
  954SOL    HW1  418   1.799   1.980   2.318
  954SOL    HW2  419   1.695   1.910   2.423
  955SOL     OW  420   1.388   3.435   2.339
  955SOL    HW1  421   1.455   3.447   2.265
  955SOL    HW2  422   1.348   3.524   2.362
  957SOL     OW  423   1.280   2.789   2.534
  957SOL    HW1  424   1.340   2.708   2.536
  957SOL    HW2  425   1.320   2.858   2.474
  960SOL     OW  426   1.650   3.582   3.256
  960SOL    HW1  427   1.703   3.592   3.172
  960SOL    HW2  428   1.623   3.672   3.290
  961SOL     OW  429   1.841   2.037   2.825
  961SOL    HW1  430   1.880   1.952   2.789
  961SOL    HW2  431   1.743   2.039   2.806
  963SOL     OW  432   1.194   3.474   1.893
  963SOL    HW1  433   1.200   3.381   1.930
  963SOL    HW2  434   1.135   3.474   1.813
  965SOL     OW  435   0.916   2.772   2.153
  965SOL    HW1  436   0.979   2.810   2.085
  965SOL    HW2  437   0.956   2.689   2.192
  966SOL     OW  438   1.504   3.469   1.906
  966SOL    HW1  439   1.412   3.506   1.913
  966SOL    HW2  440   1.542   3.489   1.816
  968SOL     OW  441   1.614   3.154   3.151
  968SOL    HW1  442   1.674   3.157   3.231
  968SOL    HW2  443   1.539   3.218   3.164
  969SOL     OW  444   1.039   2.960   2.558
  969SOL    HW1  445   0.969   2.913   2.612
  969SOL    HW2  446   1.098   2.892   2.515
  970SOL     OW  447   1.014   2.098   2.833
  970SOL    HW1  448   1.006   2.062   2.740
  970SOL    HW2  449   1.012   2.022   2.898
  972SOL     OW  450   1.709   2.247   3.243
  972SOL    HW1  451   1.782   2.316   3.247
  972SOL    HW2  452   1.737   2.172   3.184
  977SOL     OW  453   1.440   2.718   3.260
  977SOL    HW1  454   1.383   2.770   3.197
  977SOL    HW2  455   1.536   2.730   3.236
  979SOL     OW  456   1.183   3.197   1.981
  979SOL    HW1  457   1.084   3.186   1.983
  979SOL    HW2  458   1.217   3.212   2.074
  981SOL     OW  459   1.493   3.629   2.821
  981SOL    HW1  460   1.526   3.693   2.752
  981SOL    HW2  461   1.559   3.623   2.896
  983SOL     OW  462   1.450   3.082   3.495
  983SOL    HW1  463   1.441   3.072   3.594
  983SOL    HW2  464   1.546   3.075   3.469
  985SOL     OW  465   1.674   2.745   3.116
  985SOL    HW1  466   1.647   2.656   3.079
  985SOL    HW2  467   1.675   2.813   3.043
  986SOL     OW  468   1.225   2.187   2.311
  986SOL    HW1  469   1.290   2.113   2.300
  986SOL    HW2  470   1.245   2.237   2.395
  988SOL     OW  471   1.777   2.204   3.504
  988SOL    HW1  472   1.760   2.235   3.410
  988SOL    HW2  473   1.693   2.167   3.542
  989SOL     OW  474   1.730   2.796   3.379
  989SOL    HW1  475   1.768   2.887   3.394
  989SOL    HW2  476   1.722   2.779   3.280
  992SOL     OW  477   0.859   2.818   2.723
  992SOL    HW1  478   0.913   2.749   2.771
  992SOL    HW2  479   0.827   2.887   2.789
  993SOL     OW  480   1.083   2.846   1.949
  993SOL    HW1  481   1.060   2.899   1.867
  993SOL    HW2  482   1.164   2.790   1.930
  994SOL     OW  483   1.861   3.431   2.713
  994SOL    HW1  484   1.790   3.419   2.643
  994SOL    HW2  485   1.862   3.352   2.773
  998SOL     OW  486   1.824   2.054   3.089
  998SOL    HW1  487   1.820   1.964   3.133
  998SOL    HW2  488   1.827   2.043   2.990
 1000SOL     OW  489   1.705   3.349   2.966
 1000SOL    HW1  490   1.612   3.324   2.939
 1000SOL    HW2  491   1.731   3.299   3.048
 1003SOL     OW  492   1.424   2.076   2.974
 1003SOL    HW1  493   1.476   2.011   3.029
 1003SOL    HW2  494   1.375   2.139   3.035
 1004SOL     OW  495   1.001   1.896   3.016
 1004SOL    HW1  496   0.938   1.824   2.985
 1004SOL    HW2  497   1.094   1.860   3.016
 1007SOL     OW  498   1.352   1.914   2.030
 1007SOL    HW1  499   1.387   1.873   1.946
 1007SOL    HW2  500   1.262   1.876   2.050
 1008SOL     OW  501   1.300   2.315   2.553
 1008SOL    HW1  502   1.241   2.395   2.557
 1008SOL    HW2  503   1.315   2.280   2.646
 1009SOL     OW  504   1.593   2.083   2.744
 1009SOL    HW1  505   1.509   2.082   2.798
 1009SOL    HW2  506   1.595   2.166   2.688
 1018SOL     OW  507   1.755   2.469   3.955
 1018SOL    HW1  508   1.743   2.456   3.856
 1018SOL    HW2  509   1.725   2.388   4.004
 1036SOL     OW  510   1.525   2.861   3.914
 1036SOL    HW1  511   1.462   2.785   3.927
 1036SOL    HW2  512   1.573   2.879   4.000
 1056SOL     OW  513   1.632   3.239   3.805
 1056SOL    HW1  514   1.600   3.333   3.795
 1056SOL    HW2  515   1.556   3.176   3.793
 1067SOL     OW  516   1.434   3.050   3.765
 1067SOL    HW1  517   1.466   2.974   3.822
 1067SOL    HW2  518   1.342   3.077   3.795
 1079SOL     OW  519   1.857   2.695   4.101
 1079SOL    HW1  520   1.899   2.631   4.165
 1079SOL    HW2  521   1.819   2.644   4.023
 1082SOL     OW  522   1.390   2.437   3.802
 1082SOL    HW1  523   1.336   2.416   3.883
 1082SOL    HW2  524   1.481   2.396   3.811
 1107SOL     OW  525   1.540   2.136   3.849
 1107SOL    HW1  526   1.479   2.061   3.872
 1107SOL    HW2  527   1.562   2.188   3.932
 1108SOL     OW  528   1.303   2.700   3.766
 1108SOL    HW1  529   1.337   2.607   3.781
 1108SOL    HW2  530   1.321   2.727   3.671
 1347SOL     OW  531   1.594   3.838   3.342
 1347SOL    HW1  532   1.576   3.905   3.270
 1347SOL    HW2  533   1.591   3.884   3.431
 1375SOL     OW  534   1.400   3.831   2.288
 1375SOL    HW1  535   1.376   3.794   2.198
 1375SOL    HW2  536   1.499   3.847   2.292
 1448SOL     OW  537   1.726   3.859   2.385
 1448SOL    HW1  538   1.799   3.842   2.318
 1448SOL    HW2  539   1.695   3.772   2.423
 1451SOL     OW  540   1.841   3.899   2.825
 1451SOL    HW1  541   1.880   3.814   2.789
 1451SOL    HW2  542   1.743   3.901   2.806
 1479SOL     OW  543   1.824   3.916   3.089
 1479SOL    HW1  544   1.820   3.826   3.133
 1479SOL    HW2  545   1.827   3.905   2.990
 1485SOL     OW  546   1.352   3.776   2.030
 1485SOL    HW1  547   1.387   3.735   1.946
 1485SOL    HW2  548   1.262   3.738   2.050
 1487SOL     OW  549   1.593   3.945   2.744
 1487SOL    HW1  550   1.509   3.944   2.798
 1487SOL    HW2  551   1.595   4.028   2.688
 1621SOL     OW  552   2.548   1.161   1.803
 1621SOL    HW1  553   2.608   1.240   1.817
 1621SOL    HW2  554   2.462   1.192   1.762
 1623SOL     OW  555   3.322   1.505   1.339
 1623SOL    HW1  556   3.346   1.599   1.365
 1623SOL    HW2  557   3.306   1.451   1.421
 1627SOL     OW  558   2.989   1.341   1.690
 1627SOL    HW1  559   3.036   1.341   1.778
 1627SOL    HW2  560   2.941   1.254   1.679
 1630SOL     OW  561   2.482   1.786   1.439
 1630SOL    HW1  562   2.390   1.769   1.474
 1630SOL    HW2  563   2.510   1.878   1.465
 1643SOL     OW  564   3.049   1.792   1.616
 1643SOL    HW1  565   3.073   1.852   1.540
 1643SOL    HW2  566   3.056   1.697   1.586
 1656SOL     OW  567   1.992   1.821   1.571
 1656SOL    HW1  568   1.982   1.806   1.670
 1656SOL    HW2  569   1.906   1.857   1.535
 1664SOL     OW  570   3.089   1.550   1.506
 1664SOL    HW1  571   3.095   1.473   1.570
 1664SOL    HW2  572   3.037   1.524   1.426
 1667SOL     OW  573   2.323   1.266   1.727
 1667SOL    HW1  574   2.273   1.267   1.641
 1667SOL    HW2  575   2.260   1.248   1.803
 1673SOL     OW  576   2.111   1.785   1.241
 1673SOL    HW1  577   2.168   1.720   1.291
 1673SOL    HW2  578   2.095   1.752   1.148
 1679SOL     OW  579   2.750   1.514   1.195
 1679SOL    HW1  580   2.727   1.489   1.101
 1679SOL    HW2  581   2.811   1.445   1.234
 1704SOL     OW  582   2.926   1.347   1.340
 1704SOL    HW1  583   2.846   1.324   1.395
 1704SOL    HW2  584   3.009   1.321   1.389
 1705SOL     OW  585   3.454   1.629   1.625
 1705SOL    HW1  586   3.481   1.663   1.535
 1705SOL    HW2  587   3.533   1.591   1.671
 1709SOL     OW  588   2.842   1.116   1.719
 1709SOL    HW1  589   2.743   1.122   1.729
 1709SOL    HW2  590   2.865   1.036   1.663
 1713SOL     OW  591   1.926   1.564   1.331
 1713SOL    HW1  592   1.880   1.646   1.297
 1713SOL    HW2  593   2.024   1.583   1.340
 1719SOL     OW  594   2.216   1.510   1.329
 1719SOL    HW1  595   2.195   1.466   1.242
 1719SOL    HW2  596   2.313   1.536   1.332
 1734SOL     OW  597   2.842   1.573   1.700
 1734SOL    HW1  598   2.822   1.617   1.612
 1734SOL    HW2  599   2.881   1.482   1.684
 1752SOL     OW  600   2.114   1.564   1.744
 1752SOL    HW1  601   2.084   1.621   1.820
 1752SOL    HW2  602   2.107   1.467   1.770
 1754SOL     OW  603   2.792   1.678   1.465
 1754SOL    HW1  604   2.768   1.660   1.370
 1754SOL    HW2  605   2.822   1.772   1.475
 1760SOL     OW  606   3.114   1.731   1.128
 1760SOL    HW1  607   3.198   1.736   1.074
 1760SOL    HW2  608   3.091   1.635   1.146
 1762SOL     OW  609   2.550   1.662   1.716
 1762SOL    HW1  610   2.494   1.743   1.725
 1762SOL    HW2  611   2.602   1.666   1.630
 1766SOL     OW  612   1.992   1.794   1.851
 1766SOL    HW1  613   1.951   1.720   1.904
 1766SOL    HW2  614   2.056   1.845   1.909
 1768SOL     OW  615   2.692   1.273   1.422
 1768SOL    HW1  616   2.687   1.306   1.517
 1768SOL    HW2  617   2.606   1.292   1.376
 1770SOL     OW  618   3.512   1.720   1.394
 1770SOL    HW1  619   3.565   1.730   1.310
 1770SOL    HW2  620   3.485   1.810   1.428
 1777SOL     OW  621   2.234   1.288   1.490
 1777SOL    HW1  622   2.221   1.381   1.456
 1777SOL    HW2  623   2.150   1.236   1.477
 1792SOL     OW  624   3.312   1.220   1.633
 1792SOL    HW1  625   3.303   1.210   1.732
 1792SOL    HW2  626   3.408   1.213   1.607
 1793SOL     OW  627   2.252   1.741   1.560
 1793SOL    HW1  628   2.161   1.782   1.558
 1793SOL    HW2  629   2.245   1.647   1.592
 1800SOL     OW  630   2.523   1.790   0.953
 1800SOL    HW1  631   2.477   1.878   0.940
 1800SOL    HW2  632   2.622   1.802   0.946
 1804SOL     OW  633   2.083   1.314   1.844
 1804SOL    HW1  634   2.018   1.241   1.823
 1804SOL    HW2  635   2.087   1.328   1.942
 1806SOL     OW  636   2.534   1.391   1.624
 1806SOL    HW1  637   2.456   1.341   1.662
 1806SOL    HW2  638   2.531   1.486   1.655
 1815SOL     OW  639   2.480   1.567   1.284
 1815SOL    HW1  640   2.475   1.649   1.341
 1815SOL    HW2  641   2.569   1.564   1.239
 1824SOL     OW  642   2.431   1.275   3.027
 1824SOL    HW1  643   2.338   1.268   2.990
 1824SOL    HW2  644   2.442   1.364   3.071
 1825SOL     OW  645   3.417   1.511   2.565
 1825SOL    HW1  646   3.360   1.495   2.646
 1825SOL    HW2  647   3.358   1.521   2.485
 1828SOL     OW  648   2.630   1.144   2.885
 1828SOL    HW1  649   2.552   1.161   2.945
 1828SOL    HW2  650   2.664   1.231   2.849
 1830SOL     OW  651   2.547   1.012   2.527
 1830SOL    HW1  652   2.616   0.996   2.597
 1830SOL    HW2  653   2.474   1.069   2.565
 1831SOL     OW  654   2.548   1.161   3.665
 1831SOL    HW1  655   2.608   1.240   3.679
 1831SOL    HW2  656   2.462   1.192   3.624
 1832SOL     OW  657   2.197   1.435   2.923
 1832SOL    HW1  658   2.119   1.404   2.870
 1832SOL    HW2  659   2.255   1.493   2.866
 1833SOL     OW  660   3.322   1.505   3.201
 1833SOL    HW1  661   3.346   1.599   3.227
 1833SOL    HW2  662   3.306   1.451   3.283
 1836SOL     OW  663   2.093   1.713   2.345
 1836SOL    HW1  664   2.127   1.790   2.399
 1836SOL    HW2  665   2.137   1.713   2.255
 1837SOL     OW  666   2.989   1.341   3.552
 1837SOL    HW1  667   3.036   1.341   3.640
 1837SOL    HW2  668   2.941   1.254   3.541
 1838SOL     OW  669   2.092   1.434   2.400
 1838SOL    HW1  670   2.066   1.530   2.400
 1838SOL    HW2  671   2.021   1.380   2.445
 1839SOL     OW  672   2.102   1.091   2.748
 1839SOL    HW1  673   2.116   1.007   2.800
 1839SOL    HW2  674   2.047   1.155   2.803
 1840SOL     OW  675   2.482   1.786   3.301
 1840SOL    HW1  676   2.390   1.769   3.336
 1840SOL    HW2  677   2.510   1.878   3.327
 1841SOL     OW  678   2.468   0.964   1.985
 1841SOL    HW1  679   2.475   1.048   1.931
 1841SOL    HW2  680   2.514   0.977   2.073
 1844SOL     OW  681   3.704   1.767   2.221
 1844SOL    HW1  682   3.758   1.738   2.301
 1844SOL    HW2  683   3.734   1.857   2.192
 1845SOL     OW  684   1.889   1.596   1.979
 1845SOL    HW1  685   1.870   1.500   2.000
 1845SOL    HW2  686   1.856   1.654   2.054
 1847SOL     OW  687   3.503   1.108   2.294
 1847SOL    HW1  688   3.589   1.110   2.242
 1847SOL    HW2  689   3.517   1.155   2.382
 1849SOL     OW  690   2.475   1.365   2.588
 1849SOL    HW1  691   2.426   1.278   2.597
 1849SOL    HW2  692   2.452   1.408   2.501
 1850SOL     OW  693   3.155   1.228   3.285
 1850SOL    HW1  694   3.192   1.155   3.227
 1850SOL    HW2  695   3.207   1.233   3.370
 1852SOL     OW  696   2.059   0.976   3.126
 1852SOL    HW1  697   2.148   0.931   3.112
 1852SOL    HW2  698   1.986   0.911   3.107
 1854SOL     OW  699   3.049   1.792   3.478
 1854SOL    HW1  700   3.073   1.852   3.402
 1854SOL    HW2  701   3.056   1.697   3.448
 1856SOL     OW  702   3.328   1.417   2.815
 1856SOL    HW1  703   3.269   1.423   2.895
 1856SOL    HW2  704   3.313   1.329   2.769
 1857SOL     OW  705   3.529   1.714   2.434
 1857SOL    HW1  706   3.488   1.691   2.346
 1857SOL    HW2  707   3.511   1.640   2.499
 1860SOL     OW  708   3.438   1.662   2.169
 1860SOL    HW1  709   3.527   1.708   2.172
 1860SOL    HW2  710   3.417   1.638   2.074
 1867SOL     OW  711   1.992   1.821   3.433
 1867SOL    HW1  712   1.982   1.806   3.532
 1867SOL    HW2  713   1.906   1.857   3.397
 1870SOL     OW  714   3.224   1.144   2.407
 1870SOL    HW1  715   3.307   1.115   2.359
 1870SOL    HW2  716   3.175   1.211   2.351
 1872SOL     OW  717   2.870   1.456   2.339
 1872SOL    HW1  718   2.824   1.528   2.287
 1872SOL    HW2  719   2.866   1.476   2.437
 1873SOL     OW  720   2.213   1.801   2.715
 1873SOL    HW1  721   2.263   1.715   2.721
 1873SOL    HW2  722   2.278   1.878   2.712
 1875SOL     OW  723   3.089   1.550   3.368
 1875SOL    HW1  724   3.095   1.473   3.432
 1875SOL    HW2  725   3.037   1.524   3.288
 1876SOL     OW  726   2.183   0.943   2.104
 1876SOL    HW1  727   2.265   0.982   2.062
 1876SOL    HW2  728   2.156   0.861   2.055
 1878SOL     OW  729   2.323   1.266   3.589
 1878SOL    HW1  730   2.273   1.267   3.503
 1878SOL    HW2  731   2.260   1.248   3.665
 1879SOL     OW  732   2.973   1.776   2.099
 1879SOL    HW1  733   2.913   1.714   2.149
 1879SOL    HW2  734   3.004   1.732   2.014
 1881SOL     OW  735   3.494   1.377   1.943
 1881SOL    HW1  736   3.462   1.471   1.933
 1881SOL    HW2  737   3.418   1.314   1.931
 1882SOL     OW  738   2.326   1.743   2.185
 1882SOL    HW1  739   2.359   1.782   2.271
 1882SOL    HW2  740   2.402   1.736   2.120
 1884SOL     OW  741   2.111   1.785   3.103
 1884SOL    HW1  742   2.168   1.720   3.153
 1884SOL    HW2  743   2.095   1.752   3.010
 1885SOL     OW  744   2.802   1.698   2.766
 1885SOL    HW1  745   2.882   1.641   2.787
 1885SOL    HW2  746   2.753   1.658   2.689
 1890SOL     OW  747   2.750   1.514   3.057
 1890SOL    HW1  748   2.727   1.489   2.963
 1890SOL    HW2  749   2.811   1.445   3.096
 1892SOL     OW  750   2.665   1.402   2.786
 1892SOL    HW1  751   2.755   1.416   2.744
 1892SOL    HW2  752   2.594   1.404   2.715
 1895SOL     OW  753   3.296   1.188   1.903
 1895SOL    HW1  754   3.328   1.112   1.960
 1895SOL    HW2  755   3.204   1.215   1.933
 1899SOL     OW  756   3.089   1.570   2.655
 1899SOL    HW1  757   3.110   1.644   2.590
 1899SOL    HW2  758   3.157   1.570   2.728
 1900SOL     OW  759   2.321   1.152   2.603
 1900SOL    HW1  760   2.250   1.125   2.668
 1900SOL    HW2  761   2.295   1.124   2.510
 1901SOL     OW  762   3.133   1.797   2.453
 1901SOL    HW1  763   3.177   1.861   2.389
 1901SOL    HW2  764   3.083   1.849   2.523
 1907SOL     OW  765   3.291   1.173   2.729
 1907SOL    HW1  766   3.236   1.089   2.722
 1907SOL    HW2  767   3.317   1.202   2.637
 1910SOL     OW  768   2.350   1.385   2.036
 1910SOL    HW1  769   2.263   1.370   2.083
 1910SOL    HW2  770   2.333   1.411   1.941
 1911SOL     OW  771   3.526   1.280   2.519
 1911SOL    HW1  772   3.625   1.288   2.533
 1911SOL    HW2  773   3.481   1.364   2.550
 1915SOL     OW  774   2.926   1.347   3.202
 1915SOL    HW1  775   2.846   1.324   3.257
 1915SOL    HW2  776   3.009   1.321   3.251
 1916SOL     OW  777   3.454   1.629   3.487
 1916SOL    HW1  778   3.481   1.663   3.397
 1916SOL    HW2  779   3.533   1.591   3.533
 1917SOL     OW  780   2.973   1.195   2.962
 1917SOL    HW1  781   2.933   1.239   3.043
 1917SOL    HW2  782   2.932   1.232   2.879
 1918SOL     OW  783   3.500   1.099   2.941
 1918SOL    HW1  784   3.505   1.180   3.000
 1918SOL    HW2  785   3.414   1.101   2.890
 1920SOL     OW  786   2.842   1.116   3.581
 1920SOL    HW1  787   2.743   1.122   3.591
 1920SOL    HW2  788   2.865   1.036   3.525
 1921SOL     OW  789   2.567   1.050   2.230
 1921SOL    HW1  790   2.553   1.057   2.329
 1921SOL    HW2  791   2.651   0.999   2.212
 1924SOL     OW  792   1.926   1.564   3.193
 1924SOL    HW1  793   1.880   1.646   3.159
 1924SOL    HW2  794   2.024   1.583   3.202
 1925SOL     OW  795   2.229   1.100   2.363
 1925SOL    HW1  796   2.222   1.183   2.307
 1925SOL    HW2  797   2.233   1.020   2.303
 1927SOL     OW  798   3.114   1.348   2.250
 1927SOL    HW1  799   3.164   1.425   2.290
 1927SOL    HW2  800   3.019   1.350   2.282
 1928SOL     OW  801   3.134   1.445   3.004
 1928SOL    HW1  802   3.181   1.458   3.091
 1928SOL    HW2  803   3.068   1.371   3.013
 1930SOL     OW  804   2.216   1.510   3.191
 1930SOL    HW1  805   2.195   1.466   3.104
 1930SOL    HW2  806   2.313   1.536   3.194
 1935SOL     OW  807   2.435   0.870   2.891
 1935SOL    HW1  808   2.479   0.959   2.882
 1935SOL    HW2  809   2.372   0.870   2.968
 1939SOL     OW  810   1.899   1.310   3.144
 1939SOL    HW1  811   1.952   1.261   3.212
 1939SOL    HW2  812   1.921   1.408   3.149
 1945SOL     OW  813   2.842   1.573   3.562
 1945SOL    HW1  814   2.822   1.617   3.474
 1945SOL    HW2  815   2.881   1.482   3.546
 1950SOL     OW  816   2.930   1.333   2.711
 1950SOL    HW1  817   2.937   1.249   2.656
 1950SOL    HW2  818   2.992   1.402   2.675
 1955SOL     OW  819   1.870   1.326   2.062
 1955SOL    HW1  820   1.777   1.347   2.031
 1955SOL    HW2  821   1.880   1.227   2.075
 1956SOL     OW  822   1.950   1.801   2.789
 1956SOL    HW1  823   1.908   1.715   2.762
 1956SOL    HW2  824   2.044   1.804   2.755
 1957SOL     OW  825   2.366   1.568   2.772
 1957SOL    HW1  826   2.432   1.642   2.781
 1957SOL    HW2  827   2.410   1.489   2.730
 1964SOL     OW  828   2.114   1.564   3.606
 1964SOL    HW1  829   2.084   1.621   3.682
 1964SOL    HW2  830   2.107   1.467   3.632
 1966SOL     OW  831   2.792   1.678   3.327
 1966SOL    HW1  832   2.768   1.660   3.232
 1966SOL    HW2  833   2.822   1.772   3.337
 1968SOL     OW  834   2.021   1.137   3.328
 1968SOL    HW1  835   2.043   1.076   3.404
 1968SOL    HW2  836   2.031   1.088   3.242
 1969SOL     OW  837   3.209   1.059   3.096
 1969SOL    HW1  838   3.233   0.996   3.022
 1969SOL    HW2  839   3.119   1.099   3.078
 1971SOL     OW  840   3.621   1.747   3.016
 1971SOL    HW1  841   3.682   1.777   2.943
 1971SOL    HW2  842   3.583   1.658   2.994
 1972SOL     OW  843   3.114   1.731   2.990
 1972SOL    HW1  844   3.198   1.736   2.936
 1972SOL    HW2  845   3.091   1.635   3.008
 1973SOL     OW  846   1.945   1.258   2.884
 1973SOL    HW1  847   1.940   1.257   2.984
 1973SOL    HW2  848   1.862   1.217   2.846
 1974SOL     OW  849   2.550   1.662   3.578
 1974SOL    HW1  850   2.494   1.743   3.587
 1974SOL    HW2  851   2.602   1.666   3.492
 1976SOL     OW  852   3.250   1.573   2.339
 1976SOL    HW1  853   3.317   1.585   2.265
 1976SOL    HW2  854   3.210   1.662   2.362
 1977SOL     OW  855   1.992   1.794   3.713
 1977SOL    HW1  856   1.951   1.720   3.766
 1977SOL    HW2  857   2.056   1.845   3.771
 1978SOL     OW  858   3.142   0.927   2.534
 1978SOL    HW1  859   3.202   0.846   2.536
 1978SOL    HW2  860   3.182   0.996   2.474
 1979SOL     OW  861   2.692   1.273   3.284
 1979SOL    HW1  862   2.687   1.306   3.379
 1979SOL    HW2  863   2.606   1.292   3.238
 1980SOL     OW  864   2.534   1.616   2.016
 1980SOL    HW1  865   2.543   1.626   1.917
 1980SOL    HW2  866   2.494   1.527   2.037
 1981SOL     OW  867   3.512   1.720   3.256
 1981SOL    HW1  868   3.565   1.730   3.172
 1981SOL    HW2  869   3.485   1.810   3.290
 1984SOL     OW  870   3.056   1.612   1.893
 1984SOL    HW1  871   3.062   1.519   1.930
 1984SOL    HW2  872   2.997   1.612   1.813
 1985SOL     OW  873   2.684   1.002   3.234
 1985SOL    HW1  874   2.724   1.001   3.142
 1985SOL    HW2  875   2.694   1.094   3.274
 1986SOL     OW  876   2.778   0.910   2.153
 1986SOL    HW1  877   2.841   0.948   2.085
 1986SOL    HW2  878   2.818   0.827   2.192
 1987SOL     OW  879   3.366   1.607   1.906
 1987SOL    HW1  880   3.274   1.644   1.913
 1987SOL    HW2  881   3.404   1.627   1.816
 1988SOL     OW  882   2.234   1.288   3.352
 1988SOL    HW1  883   2.221   1.381   3.318
 1988SOL    HW2  884   2.150   1.236   3.339
 1989SOL     OW  885   3.476   1.292   3.151
 1989SOL    HW1  886   3.536   1.295   3.231
 1989SOL    HW2  887   3.401   1.356   3.164
 1990SOL     OW  888   2.901   1.098   2.558
 1990SOL    HW1  889   2.831   1.051   2.612
 1990SOL    HW2  890   2.960   1.030   2.515
 1992SOL     OW  891   2.452   1.487   2.353
 1992SOL    HW1  892   2.494   1.429   2.283
 1992SOL    HW2  893   2.408   1.566   2.309
 1994SOL     OW  894   2.117   1.348   2.152
 1994SOL    HW1  895   2.021   1.349   2.125
 1994SOL    HW2  896   2.129   1.401   2.236
 2000SOL     OW  897   3.045   1.335   1.981
 2000SOL    HW1  898   2.946   1.324   1.983
 2000SOL    HW2  899   3.079   1.350   2.074
 2002SOL     OW  900   3.355   1.767   2.821
 2002SOL    HW1  901   3.388   1.831   2.752
 2002SOL    HW2  902   3.421   1.761   2.896
 2004SOL     OW  903   3.312   1.220   3.495
 2004SOL    HW1  904   3.303   1.210   3.594
 2004SOL    HW2  905   3.408   1.213   3.469
 2005SOL     OW  906   2.252   1.741   3.422
 2005SOL    HW1  907   2.161   1.782   3.420
 2005SOL    HW2  908   2.245   1.647   3.454
 2011SOL     OW  909   2.721   1.374   1.878
 2011SOL    HW1  910   2.675   1.389   1.966
 2011SOL    HW2  911   2.765   1.459   1.848
 2012SOL     OW  912   2.523   1.790   2.815
 2012SOL    HW1  913   2.477   1.878   2.802
 2012SOL    HW2  914   2.622   1.802   2.808
 2013SOL     OW  915   2.721   0.956   2.723
 2013SOL    HW1  916   2.775   0.887   2.771
 2013SOL    HW2  917   2.689   1.025   2.789
 2014SOL     OW  918   2.945   0.984   1.949
 2014SOL    HW1  919   2.922   1.037   1.867
 2014SOL    HW2  920   3.026   0.928   1.930
 2015SOL     OW  921   3.723   1.569   2.713
 2015SOL    HW1  922   3.652   1.557   2.643
 2015SOL    HW2  923   3.724   1.490   2.773
 2016SOL     OW  924   2.083   1.314   3.706
 2016SOL    HW1  925   2.018   1.241   3.685
 2016SOL    HW2  926   2.087   1.328   3.804
 2017SOL     OW  927   1.941   1.240   2.515
 2017SOL    HW1  928   1.940   1.193   2.603
 2017SOL    HW2  929   2.023   1.212   2.464
 2018SOL     OW  930   2.534   1.391   3.486
 2018SOL    HW1  931   2.456   1.341   3.524
 2018SOL    HW2  932   2.531   1.486   3.517
 2021SOL     OW  933   3.567   1.487   2.966
 2021SOL    HW1  934   3.474   1.462   2.939
 2021SOL    HW2  935   3.593   1.437   3.048
 2023SOL     OW  936   2.674   1.586   2.549
 2023SOL    HW1  937   2.706   1.596   2.455
 2023SOL    HW2  938   2.595   1.524   2.551
 2026SOL     OW  939   2.632   1.330   2.163
 2026SOL    HW1  940   2.586   1.243   2.180
 2026SOL    HW2  941   2.723   1.327   2.204
 2027SOL     OW  942   2.480   1.567   3.146
 2027SOL    HW1  943   2.475   1.649   3.203
 2027SOL    HW2  944   2.569   1.564   3.101
 2031SOL     OW  945   1.901   1.077   2.162
 2031SOL    HW1  946   2.000   1.066   2.153
 2031SOL    HW2  947   1.861   0.991   2.194
 2032SOL     OW  948   2.737   1.646   2.199
 2032SOL    HW1  949   2.660   1.611   2.145
 2032SOL    HW2  950   2.705   1.717   2.261
 2051SOL     OW  951   1.889   1.596   3.841
 2051SOL    HW1  952   1.870   1.500   3.862
 2051SOL    HW2  953   1.856   1.654   3.916
 2075SOL     OW  954   2.973   1.776   3.961
 2075SOL    HW1  955   2.913   1.714   4.011
 2075SOL    HW2  956   3.004   1.732   3.876
 2078SOL     OW  957   2.326   1.743   4.047
 2078SOL    HW1  958   2.359   1.782   4.133
 2078SOL    HW2  959   2.402   1.736   3.982
 2101SOL     OW  960   2.350   1.385   3.898
 2101SOL    HW1  961   2.263   1.370   3.945
 2101SOL    HW2  962   2.333   1.411   3.803
 2154SOL     OW  963   2.534   1.616   3.878
 2154SOL    HW1  964   2.543   1.626   3.779
 2154SOL    HW2  965   2.494   1.527   3.899
 2157SOL     OW  966   3.056   1.612   3.755
 2157SOL    HW1  967   3.062   1.519   3.792
 2157SOL    HW2  968   2.997   1.612   3.675
 2160SOL     OW  969   3.366   1.607   3.768
 2160SOL    HW1  970   3.274   1.644   3.775
 2160SOL    HW2  971   3.404   1.627   3.678
 2176SOL     OW  972   2.721   1.374   3.740
 2176SOL    HW1  973   2.675   1.389   3.828
 2176SOL    HW2  974   2.765   1.459   3.710
 2194SOL     OW  975   2.737   1.646   4.061
 2194SOL    HW1  976   2.660   1.611   4.007
 2194SOL    HW2  977   2.705   1.717   4.123
 2196SOL     OW  978   2.087   2.137   0.996
 2196SOL    HW1  979   2.122   2.120   1.088
 2196SOL    HW2  980   1.999   2.092   0.984
 2198SOL     OW  981   2.431   3.137   1.165
 2198SOL    HW1  982   2.338   3.130   1.128
 2198SOL    HW2  983   2.442   3.226   1.209
 2202SOL     OW  984   2.630   3.006   1.023
 2202SOL    HW1  985   2.552   3.023   1.083
 2202SOL    HW2  986   2.664   3.093   0.987
 2203SOL     OW  987   2.712   2.660   1.823
 2203SOL    HW1  988   2.708   2.736   1.888
 2203SOL    HW2  989   2.734   2.696   1.732
 2205SOL     OW  990   2.548   3.023   1.803
 2205SOL    HW1  991   2.608   3.102   1.817
 2205SOL    HW2  992   2.462   3.054   1.762
 2206SOL     OW  993   2.197   3.297   1.061
 2206SOL    HW1  994   2.119   3.266   1.008
 2206SOL    HW2  995   2.255   3.355   1.004
 2207SOL     OW  996   3.322   3.367   1.339
 2207SOL    HW1  997   3.346   3.461   1.365
 2207SOL    HW2  998   3.306   3.313   1.421
 2208SOL     OW  999   2.300   2.254   1.499
 2208SOL    HW1 1000   2.382   2.198   1.508
 2208SOL    HW2 1001   2.219   2.196   1.503
 2211SOL     OW 1002   2.989   3.203   1.690
 2211SOL    HW1 1003   3.036   3.203   1.778
 2211SOL    HW2 1004   2.941   3.116   1.679
 2213SOL     OW 1005   2.102   2.953   0.886
 2213SOL    HW1 1006   2.116   2.869   0.938
 2213SOL    HW2 1007   2.047   3.017   0.941
 2214SOL     OW 1008   2.482   3.648   1.439
 2214SOL    HW1 1009   2.390   3.631   1.474
 2214SOL    HW2 1010   2.510   3.740   1.465
 2216SOL     OW 1011   3.456   1.976   1.480
 2216SOL    HW1 1012   3.438   2.043   1.408
 2216SOL    HW2 1013   3.453   2.022   1.569
 2221SOL     OW 1014   1.975   2.599   1.597
 2221SOL    HW1 1015   2.063   2.586   1.642
 2221SOL    HW2 1016   1.962   2.696   1.575
 2223SOL     OW 1017   3.155   3.090   1.423
 2223SOL    HW1 1018   3.192   3.017   1.365
 2223SOL    HW2 1019   3.207   3.095   1.508
 2225SOL     OW 1020   2.059   2.838   1.264
 2225SOL    HW1 1021   2.148   2.793   1.250
 2225SOL    HW2 1022   1.986   2.773   1.245
 2227SOL     OW 1023   3.049   3.654   1.616
 2227SOL    HW1 1024   3.073   3.714   1.540
 2227SOL    HW2 1025   3.056   3.559   1.586
 2228SOL     OW 1026   2.179   2.113   1.801
 2228SOL    HW1 1027   2.250   2.184   1.807
 2228SOL    HW2 1028   2.091   2.152   1.829
 2232SOL     OW 1029   3.143   2.207   0.944
 2232SOL    HW1 1030   3.057   2.157   0.931
 2232SOL    HW2 1031   3.205   2.153   1.000
 2234SOL     OW 1032   2.669   2.467   1.465
 2234SOL    HW1 1033   2.622   2.464   1.554
 2234SOL    HW2 1034   2.618   2.412   1.399
 2235SOL     OW 1035   3.256   2.331   1.674
 2235SOL    HW1 1036   3.236   2.374   1.762
 2235SOL    HW2 1037   3.334   2.269   1.683
 2236SOL     OW 1038   2.835   2.752   1.572
 2236SOL    HW1 1039   2.881   2.668   1.543
 2236SOL    HW2 1040   2.779   2.786   1.497
 2237SOL     OW 1041   2.853   2.272   1.242
 2237SOL    HW1 1042   2.776   2.306   1.296
 2237SOL    HW2 1043   2.819   2.221   1.163
 2240SOL     OW 1044   1.992   3.683   1.571
 2240SOL    HW1 1045   1.982   3.668   1.670
 2240SOL    HW2 1046   1.906   3.719   1.535
 2242SOL     OW 1047   3.581   2.447   1.831
 2242SOL    HW1 1048   3.555   2.536   1.795
 2242SOL    HW2 1049   3.579   2.379   1.758
 2244SOL     OW 1050   2.412   2.058   0.885
 2244SOL    HW1 1051   2.407   2.053   0.985
 2244SOL    HW2 1052   2.414   2.154   0.856
 2248SOL     OW 1053   3.089   3.412   1.506
 2248SOL    HW1 1054   3.095   3.335   1.570
 2248SOL    HW2 1055   3.037   3.386   1.426
 2251SOL     OW 1056   2.323   3.128   1.727
 2251SOL    HW1 1057   2.273   3.129   1.641
 2251SOL    HW2 1058   2.260   3.110   1.803
 2253SOL     OW 1059   2.064   2.147   1.498
 2253SOL    HW1 1060   1.984   2.207   1.485
 2253SOL    HW2 1061   2.054   2.098   1.584
 2257SOL     OW 1062   2.111   3.647   1.241
 2257SOL    HW1 1063   2.168   3.582   1.291
 2257SOL    HW2 1064   2.095   3.614   1.148
 2260SOL     OW 1065   3.409   2.084   1.729
 2260SOL    HW1 1066   3.404   2.121   1.821
 2260SOL    HW2 1067   3.337   2.015   1.717
 2261SOL     OW 1068   2.643   2.126   1.749
 2261SOL    HW1 1069   2.710   2.065   1.792
 2261SOL    HW2 1070   2.570   2.145   1.814
 2262SOL     OW 1071   2.750   3.376   1.195
 2262SOL    HW1 1072   2.727   3.351   1.101
 2262SOL    HW2 1073   2.811   3.307   1.234
 2263SOL     OW 1074   3.213   2.452   1.433
 2263SOL    HW1 1075   3.241   2.409   1.518
 2263SOL    HW2 1076   3.238   2.548   1.434
 2264SOL     OW 1077   2.665   3.264   0.924
 2264SOL    HW1 1078   2.755   3.278   0.882
 2264SOL    HW2 1079   2.594   3.266   0.853
 2265SOL     OW 1080   2.784   2.365   0.899
 2265SOL    HW1 1081   2.759   2.356   0.803
 2265SOL    HW2 1082   2.832   2.283   0.930
 2269SOL     OW 1083   2.938   2.545   1.464
 2269SOL    HW1 1084   2.858   2.484   1.467
 2269SOL    HW2 1085   3.019   2.492   1.440
 2274SOL     OW 1086   1.940   2.418   1.386
 2274SOL    HW1 1087   2.032   2.417   1.345
 2274SOL    HW2 1088   1.934   2.492   1.453
 2275SOL     OW 1089   2.423   2.084   1.147
 2275SOL    HW1 1090   2.461   2.000   1.184
 2275SOL    HW2 1091   2.335   2.103   1.191
 2279SOL     OW 1092   3.328   2.452   0.992
 2279SOL    HW1 1093   3.298   2.357   0.999
 2279SOL    HW2 1094   3.401   2.468   1.058
 2285SOL     OW 1095   3.616   3.085   1.588
 2285SOL    HW1 1096   3.707   3.046   1.575
 2285SOL    HW2 1097   3.624   3.181   1.612
 2286SOL     OW 1098   2.926   3.209   1.340
 2286SOL    HW1 1099   2.846   3.186   1.395
 2286SOL    HW2 1100   3.009   3.183   1.389
 2287SOL     OW 1101   3.454   3.491   1.625
 2287SOL    HW1 1102   3.481   3.525   1.535
 2287SOL    HW2 1103   3.533   3.453   1.671
 2288SOL     OW 1104   2.973   3.057   1.100
 2288SOL    HW1 1105   2.933   3.101   1.181
 2288SOL    HW2 1106   2.932   3.094   1.017
 2289SOL     OW 1107   3.500   2.961   1.079
 2289SOL    HW1 1108   3.505   3.042   1.138
 2289SOL    HW2 1109   3.414   2.963   1.028
 2290SOL     OW 1110   2.777   1.951   1.402
 2290SOL    HW1 1111   2.802   1.931   1.307
 2290SOL    HW2 1112   2.849   2.007   1.444
 2291SOL     OW 1113   2.842   2.978   1.719
 2291SOL    HW1 1114   2.743   2.984   1.729
 2291SOL    HW2 1115   2.865   2.898   1.663
 2293SOL     OW 1116   2.272   2.675   1.251
 2293SOL    HW1 1117   2.358   2.687   1.301
 2293SOL    HW2 1118   2.230   2.588   1.278
 2294SOL     OW 1119   3.136   2.248   1.262
 2294SOL    HW1 1120   3.157   2.322   1.326
 2294SOL    HW2 1121   3.047   2.265   1.219
 2295SOL     OW 1122   1.926   3.426   1.331
 2295SOL    HW1 1123   1.880   3.508   1.297
 2295SOL    HW2 1124   2.024   3.445   1.340
 2297SOL     OW 1125   2.428   2.399   0.865
 2297SOL    HW1 1126   2.440   2.465   0.791
 2297SOL    HW2 1127   2.474   2.433   0.948
 2299SOL     OW 1128   3.134   3.307   1.142
 2299SOL    HW1 1129   3.181   3.320   1.229
 2299SOL    HW2 1130   3.068   3.233   1.151
 2301SOL     OW 1131   2.216   3.372   1.329
 2301SOL    HW1 1132   2.195   3.328   1.242
 2301SOL    HW2 1133   2.313   3.398   1.332
 2302SOL     OW 1134   2.264   2.613   1.598
 2302SOL    HW1 1135   2.332   2.668   1.551
 2302SOL    HW2 1136   2.304   2.525   1.625
 2303SOL     OW 1137   3.449   2.641   1.670
 2303SOL    HW1 1138   3.357   2.679   1.665
 2303SOL    HW2 1139   3.509   2.688   1.605
 2304SOL     OW 1140   2.875   1.967   1.770
 2304SOL    HW1 1141   2.881   2.052   1.718
 2304SOL    HW2 1142   2.907   1.891   1.713
 2305SOL     OW 1143   2.366   1.912   1.740
 2305SOL    HW1 1144   2.324   1.855   1.670
 2305SOL    HW2 1145   2.300   1.981   1.772
 2306SOL     OW 1146   2.435   2.732   1.029
 2306SOL    HW1 1147   2.479   2.821   1.020
 2306SOL    HW2 1148   2.372   2.732   1.106
 2307SOL     OW 1149   3.222   2.724   1.045
 2307SOL    HW1 1150   3.147   2.724   0.979
 2307SOL    HW2 1151   3.259   2.632   1.054
 2309SOL     OW 1152   2.169   2.075   1.231
 2309SOL    HW1 1153   2.146   2.112   1.321
 2309SOL    HW2 1154   2.139   1.980   1.225
 2310SOL     OW 1155   1.899   3.172   1.282
 2310SOL    HW1 1156   1.952   3.123   1.350
 2310SOL    HW2 1157   1.921   3.270   1.287
 2311SOL     OW 1158   2.594   2.496   1.064
 2311SOL    HW1 1159   2.653   2.470   0.988
 2311SOL    HW2 1160   2.566   2.592   1.053
 2312SOL     OW 1161   3.590   2.797   1.854
 2312SOL    HW1 1162   3.544   2.790   1.765
 2312SOL    HW2 1163   3.528   2.841   1.920
 2315SOL     OW 1164   2.885   2.628   0.966
 2315SOL    HW1 1165   2.900   2.649   1.062
 2315SOL    HW2 1166   2.855   2.533   0.957
 2316SOL     OW 1167   2.842   3.435   1.700
 2316SOL    HW1 1168   2.822   3.479   1.612
 2316SOL    HW2 1169   2.881   3.344   1.684
 2317SOL     OW 1170   3.721   3.380   1.605
 2317SOL    HW1 1171   3.735   3.407   1.510
 2317SOL    HW2 1172   3.804   3.402   1.658
 2318SOL     OW 1173   2.212   2.760   1.804
 2318SOL    HW1 1174   2.288   2.804   1.852
 2318SOL    HW2 1175   2.247   2.713   1.722
 2322SOL     OW 1176   2.181   2.672   0.949
 2322SOL    HW1 1177   2.274   2.708   0.954
 2322SOL    HW2 1178   2.175   2.587   1.001
 2323SOL     OW 1179   2.201   2.371   1.006
 2323SOL    HW1 1180   2.149   2.288   0.989
 2323SOL    HW2 1181   2.278   2.376   0.942
 2324SOL     OW 1182   3.000   2.242   1.678
 2324SOL    HW1 1183   2.955   2.305   1.742
 2324SOL    HW2 1184   3.093   2.273   1.661
 2325SOL     OW 1185   3.022   2.069   1.477
 2325SOL    HW1 1186   3.022   2.133   1.554
 2325SOL    HW2 1187   3.050   2.117   1.394
 2328SOL     OW 1188   2.864   2.658   1.238
 2328SOL    HW1 1189   2.905   2.626   1.324
 2328SOL    HW2 1190   2.768   2.631   1.235
 2329SOL     OW 1191   1.902   2.406   1.114
 2329SOL    HW1 1192   1.987   2.373   1.073
 2329SOL    HW2 1193   1.915   2.421   1.212
 2330SOL     OW 1194   2.051   2.382   1.722
 2330SOL    HW1 1195   2.110   2.342   1.652
 2330SOL    HW2 1196   1.993   2.453   1.681
 2331SOL     OW 1197   3.231   2.812   1.660
 2331SOL    HW1 1198   3.270   2.901   1.680
 2331SOL    HW2 1199   3.241   2.792   1.563
 2333SOL     OW 1200   3.519   2.466   1.206
 2333SOL    HW1 1201   3.481   2.397   1.268
 2333SOL    HW2 1202   3.601   2.430   1.162
 2334SOL     OW 1203   2.114   3.426   1.744
 2334SOL    HW1 1204   2.084   3.483   1.820
 2334SOL    HW2 1205   2.107   3.329   1.770
 2335SOL     OW 1206   2.533   2.326   1.269
 2335SOL    HW1 1207   2.499   2.237   1.239
 2335SOL    HW2 1208   2.559   2.380   1.189
 2336SOL     OW 1209   2.792   3.540   1.465
 2336SOL    HW1 1210   2.768   3.522   1.370
 2336SOL    HW2 1211   2.822   3.634   1.475
 2338SOL     OW 1212   2.021   2.999   1.466
 2338SOL    HW1 1213   2.043   2.938   1.542
 2338SOL    HW2 1214   2.031   2.950   1.380
 2339SOL     OW 1215   3.209   2.921   1.234
 2339SOL    HW1 1216   3.233   2.858   1.160
 2339SOL    HW2 1217   3.119   2.961   1.216
 2343SOL     OW 1218   1.945   3.120   1.022
 2343SOL    HW1 1219   1.940   3.119   1.122
 2343SOL    HW2 1220   1.862   3.079   0.984
 2344SOL     OW 1221   2.550   3.524   1.716
 2344SOL    HW1 1222   2.494   3.605   1.725
 2344SOL    HW2 1223   2.602   3.528   1.630
 2348SOL     OW 1224   1.992   3.656   1.851
 2348SOL    HW1 1225   1.951   3.582   1.904
 2348SOL    HW2 1226   2.056   3.707   1.909
 2350SOL     OW 1227   2.692   3.135   1.422
 2350SOL    HW1 1228   2.687   3.168   1.517
 2350SOL    HW2 1229   2.606   3.154   1.376
 2356SOL     OW 1230   2.684   2.864   1.372
 2356SOL    HW1 1231   2.724   2.863   1.280
 2356SOL    HW2 1232   2.694   2.956   1.412
 2359SOL     OW 1233   2.234   3.150   1.490
 2359SOL    HW1 1234   2.221   3.243   1.456
 2359SOL    HW2 1235   2.150   3.098   1.477
 2360SOL     OW 1236   3.476   3.154   1.289
 2360SOL    HW1 1237   3.536   3.157   1.369
 2360SOL    HW2 1238   3.401   3.218   1.302
 2362SOL     OW 1239   2.876   2.098   0.971
 2362SOL    HW1 1240   2.868   2.062   0.878
 2362SOL    HW2 1241   2.874   2.022   1.036
 2364SOL     OW 1242   3.571   2.247   1.381
 2364SOL    HW1 1243   3.644   2.316   1.385
 2364SOL    HW2 1244   3.599   2.172   1.322
 2366SOL     OW 1245   1.967   2.875   1.726
 2366SOL    HW1 1246   1.890   2.842   1.780
 2366SOL    HW2 1247   2.052   2.845   1.768
 2367SOL     OW 1248   2.534   2.065   1.489
 2367SOL    HW1 1249   2.624   2.049   1.449
 2367SOL    HW2 1250   2.542   2.070   1.588
 2368SOL     OW 1251   3.302   2.718   1.398
 2368SOL    HW1 1252   3.245   2.770   1.335
 2368SOL    HW2 1253   3.398   2.730   1.374
 2371SOL     OW 1254   2.475   2.704   1.431
 2371SOL    HW1 1255   2.531   2.785   1.414
 2371SOL    HW2 1256   2.534   2.624   1.434
 2373SOL     OW 1257   2.578   2.427   1.708
 2373SOL    HW1 1258   2.597   2.492   1.782
 2373SOL    HW2 1259   2.638   2.347   1.717
 2374SOL     OW 1260   3.312   3.082   1.633
 2374SOL    HW1 1261   3.303   3.072   1.732
 2374SOL    HW2 1262   3.408   3.075   1.607
 2375SOL     OW 1263   2.252   3.603   1.560
 2375SOL    HW1 1264   2.161   3.644   1.558
 2375SOL    HW2 1265   2.245   3.509   1.592
 2376SOL     OW 1266   3.536   2.745   1.254
 2376SOL    HW1 1267   3.509   2.656   1.217
 2376SOL    HW2 1268   3.537   2.813   1.181
 2379SOL     OW 1269   3.639   2.204   1.642
 2379SOL    HW1 1270   3.622   2.235   1.548
 2379SOL    HW2 1271   3.555   2.167   1.680
 2380SOL     OW 1272   3.592   2.796   1.517
 2380SOL    HW1 1273   3.630   2.887   1.532
 2380SOL    HW2 1274   3.584   2.779   1.418
 2383SOL     OW 1275   2.721   2.818   0.861
 2383SOL    HW1 1276   2.775   2.749   0.909
 2383SOL    HW2 1277   2.689   2.887   0.927
 2386SOL     OW 1278   2.083   3.176   1.844
 2386SOL    HW1 1279   2.018   3.103   1.823
 2386SOL    HW2 1280   2.087   3.190   1.942
 2388SOL     OW 1281   2.534   3.253   1.624
 2388SOL    HW1 1282   2.456   3.203   1.662
 2388SOL    HW2 1283   2.531   3.348   1.655
 2392SOL     OW 1284   2.179   2.409   1.280
 2392SOL    HW1 1285   2.217   2.350   1.352
 2392SOL    HW2 1286   2.219   2.383   1.192
 2394SOL     OW 1287   3.286   2.076   1.112
 2394SOL    HW1 1288   3.338   2.011   1.167
 2394SOL    HW2 1289   3.237   2.139   1.173
 2395SOL     OW 1290   2.863   1.896   1.154
 2395SOL    HW1 1291   2.800   1.824   1.123
 2395SOL    HW2 1292   2.956   1.860   1.154
 2397SOL     OW 1293   2.480   3.429   1.284
 2397SOL    HW1 1294   2.475   3.511   1.341
 2397SOL    HW2 1295   2.569   3.426   1.239
 2403SOL     OW 1296   2.092   2.490   1.975
 2403SOL    HW1 1297   1.999   2.488   2.012
 2403SOL    HW2 1298   2.093   2.451   1.883
 2404SOL     OW 1299   2.087   2.137   2.858
 2404SOL    HW1 1300   2.122   2.120   2.950
 2404SOL    HW2 1301   1.999   2.092   2.846
 2405SOL     OW 1302   1.881   2.230   2.509
 2405SOL    HW1 1303   1.799   2.273   2.548
 2405SOL    HW2 1304   1.853   2.157   2.446
 2406SOL     OW 1305   2.431   3.137   3.027
 2406SOL    HW1 1306   2.338   3.130   2.990
 2406SOL    HW2 1307   2.442   3.226   3.071
 2407SOL     OW 1308   3.417   3.373   2.565
 2407SOL    HW1 1309   3.360   3.357   2.646
 2407SOL    HW2 1310   3.358   3.383   2.485
 2408SOL     OW 1311   3.617   2.469   2.093
 2408SOL    HW1 1312   3.605   2.456   1.994
 2408SOL    HW2 1313   3.587   2.388   2.142
 2409SOL     OW 1314   2.630   3.006   2.885
 2409SOL    HW1 1315   2.552   3.023   2.945
 2409SOL    HW2 1316   2.664   3.093   2.849
 2410SOL     OW 1317   2.712   2.660   3.685
 2410SOL    HW1 1318   2.708   2.736   3.750
 2410SOL    HW2 1319   2.734   2.696   3.594
 2411SOL     OW 1320   2.547   2.874   2.527
 2411SOL    HW1 1321   2.616   2.858   2.597
 2411SOL    HW2 1322   2.474   2.931   2.565
 2412SOL     OW 1323   2.548   3.023   3.665
 2412SOL    HW1 1324   2.608   3.102   3.679
 2412SOL    HW2 1325   2.462   3.054   3.624
 2413SOL     OW 1326   2.197   3.297   2.923
 2413SOL    HW1 1327   2.119   3.266   2.870
 2413SOL    HW2 1328   2.255   3.355   2.866
 2414SOL     OW 1329   3.322   3.367   3.201
 2414SOL    HW1 1330   3.346   3.461   3.227
 2414SOL    HW2 1331   3.306   3.313   3.283
 2415SOL     OW 1332   2.300   2.254   3.361
 2415SOL    HW1 1333   2.382   2.198   3.370
 2415SOL    HW2 1334   2.219   2.196   3.365
 2416SOL     OW 1335   3.465   2.309   2.599
 2416SOL    HW1 1336   3.391   2.355   2.549
 2416SOL    HW2 1337   3.516   2.377   2.652
 2417SOL     OW 1338   2.093   3.575   2.345
 2417SOL    HW1 1339   2.127   3.652   2.399
 2417SOL    HW2 1340   2.137   3.575   2.255
 2418SOL     OW 1341   2.989   3.203   3.552
 2418SOL    HW1 1342   3.036   3.203   3.640
 2418SOL    HW2 1343   2.941   3.116   3.541
 2419SOL     OW 1344   2.092   3.296   2.400
 2419SOL    HW1 1345   2.066   3.392   2.400
 2419SOL    HW2 1346   2.021   3.242   2.445
 2420SOL     OW 1347   2.102   2.953   2.748
 2420SOL    HW1 1348   2.116   2.869   2.800
 2420SOL    HW2 1349   2.047   3.017   2.803
 2421SOL     OW 1350   2.482   3.648   3.301
 2421SOL    HW1 1351   2.390   3.631   3.336
 2421SOL    HW2 1352   2.510   3.740   3.327
 2422SOL     OW 1353   2.468   2.826   1.985
 2422SOL    HW1 1354   2.475   2.910   1.931
 2422SOL    HW2 1355   2.514   2.839   2.073
 2423SOL     OW 1356   3.456   1.976   3.342
 2423SOL    HW1 1357   3.438   2.043   3.270
 2423SOL    HW2 1358   3.453   2.022   3.431
 2424SOL     OW 1359   1.984   2.505   2.425
 2424SOL    HW1 1360   1.939   2.417   2.442
 2424SOL    HW2 1361   1.983   2.559   2.509
 2425SOL     OW 1362   3.704   3.629   2.221
 2425SOL    HW1 1363   3.758   3.600   2.301
 2425SOL    HW2 1364   3.734   3.719   2.192
 2426SOL     OW 1365   1.889   3.458   1.979
 2426SOL    HW1 1366   1.870   3.362   2.000
 2426SOL    HW2 1367   1.856   3.516   2.054
 2427SOL     OW 1368   3.551   2.784   2.474
 2427SOL    HW1 1369   3.646   2.755   2.482
 2427SOL    HW2 1370   3.543   2.849   2.399
 2428SOL     OW 1371   3.503   2.970   2.294
 2428SOL    HW1 1372   3.589   2.972   2.242
 2428SOL    HW2 1373   3.517   3.017   2.382
 2429SOL     OW 1374   1.975   2.599   3.459
 2429SOL    HW1 1375   2.063   2.586   3.504
 2429SOL    HW2 1376   1.962   2.696   3.437
 2430SOL     OW 1377   2.475   3.227   2.588
 2430SOL    HW1 1378   2.426   3.140   2.597
 2430SOL    HW2 1379   2.452   3.270   2.501
 2431SOL     OW 1380   3.155   3.090   3.285
 2431SOL    HW1 1381   3.192   3.017   3.227
 2431SOL    HW2 1382   3.207   3.095   3.370
 2432SOL     OW 1383   2.671   1.866   2.364
 2432SOL    HW1 1384   2.711   1.957   2.355
 2432SOL    HW2 1385   2.571   1.874   2.370
 2433SOL     OW 1386   2.059   2.838   3.126
 2433SOL    HW1 1387   2.148   2.793   3.112
 2433SOL    HW2 1388   1.986   2.773   3.107
 2434SOL     OW 1389   3.387   2.861   2.052
 2434SOL    HW1 1390   3.324   2.785   2.065
 2434SOL    HW2 1391   3.435   2.879   2.138
 2435SOL     OW 1392   3.049   3.654   3.478
 2435SOL    HW1 1393   3.073   3.714   3.402
 2435SOL    HW2 1394   3.056   3.559   3.448
 2436SOL     OW 1395   2.179   2.113   3.663
 2436SOL    HW1 1396   2.250   2.184   3.669
 2436SOL    HW2 1397   2.091   2.152   3.691
 2437SOL     OW 1398   3.328   3.279   2.815
 2437SOL    HW1 1399   3.269   3.285   2.895
 2437SOL    HW2 1400   3.313   3.191   2.769
 2438SOL     OW 1401   3.529   3.576   2.434
 2438SOL    HW1 1402   3.488   3.553   2.346
 2438SOL    HW2 1403   3.511   3.502   2.499
 2439SOL     OW 1404   3.143   2.207   2.806
 2439SOL    HW1 1405   3.057   2.157   2.793
 2439SOL    HW2 1406   3.205   2.153   2.862
 2440SOL     OW 1407   3.438   3.524   2.169
 2440SOL    HW1 1408   3.527   3.570   2.172
 2440SOL    HW2 1409   3.417   3.500   2.074
 2441SOL     OW 1410   2.669   2.467   3.327
 2441SOL    HW1 1411   2.622   2.464   3.416
 2441SOL    HW2 1412   2.618   2.412   3.261
 2442SOL     OW 1413   3.256   2.331   3.536
 2442SOL    HW1 1414   3.236   2.374   3.624
 2442SOL    HW2 1415   3.334   2.269   3.545
 2443SOL     OW 1416   2.835   2.752   3.434
 2443SOL    HW1 1417   2.881   2.668   3.405
 2443SOL    HW2 1418   2.779   2.786   3.359
 2444SOL     OW 1419   2.853   2.272   3.104
 2444SOL    HW1 1420   2.776   2.306   3.158
 2444SOL    HW2 1421   2.819   2.221   3.025
 2445SOL     OW 1422   2.903   2.563   2.291
 2445SOL    HW1 1423   2.929   2.559   2.387
 2445SOL    HW2 1424   2.818   2.512   2.277
 2446SOL     OW 1425   1.938   2.673   2.651
 2446SOL    HW1 1426   2.037   2.661   2.660
 2446SOL    HW2 1427   1.914   2.768   2.672
 2447SOL     OW 1428   1.992   3.683   3.433
 2447SOL    HW1 1429   1.982   3.668   3.532
 2447SOL    HW2 1430   1.906   3.719   3.397
 2448SOL     OW 1431   2.727   2.210   2.057
 2448SOL    HW1 1432   2.786   2.273   2.008
 2448SOL    HW2 1433   2.746   2.116   2.028
 2449SOL     OW 1434   3.581   2.447   3.693
 2449SOL    HW1 1435   3.555   2.536   3.657
 2449SOL    HW2 1436   3.579   2.379   3.620
 2450SOL     OW 1437   3.224   3.006   2.407
 2450SOL    HW1 1438   3.307   2.977   2.359
 2450SOL    HW2 1439   3.175   3.073   2.351
 2451SOL     OW 1440   2.412   2.058   2.747
 2451SOL    HW1 1441   2.407   2.053   2.847
 2451SOL    HW2 1442   2.414   2.154   2.718
 2452SOL     OW 1443   2.870   3.318   2.339
 2452SOL    HW1 1444   2.824   3.390   2.287
 2452SOL    HW2 1445   2.866   3.338   2.437
 2453SOL     OW 1446   2.213   3.663   2.715
 2453SOL    HW1 1447   2.263   3.577   2.721
 2453SOL    HW2 1448   2.278   3.740   2.712
 2454SOL     OW 1449   3.657   2.928   2.735
 2454SOL    HW1 1450   3.595   2.913   2.659
 2454SOL    HW2 1451   3.605   2.939   2.820
 2455SOL     OW 1452   3.089   3.412   3.368
 2455SOL    HW1 1453   3.095   3.335   3.432
 2455SOL    HW2 1454   3.037   3.386   3.288
 2456SOL     OW 1455   3.320   2.597   2.590
 2456SOL    HW1 1456   3.315   2.532   2.665
 2456SOL    HW2 1457   3.400   2.656   2.603
 2457SOL     OW 1458   2.323   3.128   3.589
 2457SOL    HW1 1459   2.273   3.129   3.503
 2457SOL    HW2 1460   2.260   3.110   3.665
 2458SOL     OW 1461   2.973   3.638   2.099
 2458SOL    HW1 1462   2.913   3.576   2.149
 2458SOL    HW2 1463   3.004   3.594   2.014
 2459SOL     OW 1464   2.064   2.147   3.360
 2459SOL    HW1 1465   1.984   2.207   3.347
 2459SOL    HW2 1466   2.054   2.098   3.446
 2460SOL     OW 1467   3.494   3.239   1.943
 2460SOL    HW1 1468   3.462   3.333   1.933
 2460SOL    HW2 1469   3.418   3.176   1.931
 2461SOL     OW 1470   2.326   3.605   2.185
 2461SOL    HW1 1471   2.359   3.644   2.271
 2461SOL    HW2 1472   2.402   3.598   2.120
 2462SOL     OW 1473   3.262   1.969   2.288
 2462SOL    HW1 1474   3.238   1.932   2.198
 2462SOL    HW2 1475   3.361   1.985   2.292
 2463SOL     OW 1476   2.111   3.647   3.103
 2463SOL    HW1 1477   2.168   3.582   3.153
 2463SOL    HW2 1478   2.095   3.614   3.010
 2464SOL     OW 1479   2.802   3.560   2.766
 2464SOL    HW1 1480   2.882   3.503   2.787
 2464SOL    HW2 1481   2.753   3.520   2.689
 2465SOL     OW 1482   3.409   2.084   3.591
 2465SOL    HW1 1483   3.404   2.121   3.683
 2465SOL    HW2 1484   3.337   2.015   3.579
 2466SOL     OW 1485   2.476   1.984   1.979
 2466SOL    HW1 1486   2.574   1.962   1.986
 2466SOL    HW2 1487   2.445   1.967   1.886
 2467SOL     OW 1488   2.643   2.126   3.611
 2467SOL    HW1 1489   2.710   2.065   3.654
 2467SOL    HW2 1490   2.570   2.145   3.676
 2468SOL     OW 1491   2.750   3.376   3.057
 2468SOL    HW1 1492   2.727   3.351   2.963
 2468SOL    HW2 1493   2.811   3.307   3.096
 2469SOL     OW 1494   3.213   2.452   3.295
 2469SOL    HW1 1495   3.241   2.409   3.380
 2469SOL    HW2 1496   3.238   2.548   3.296
 2470SOL     OW 1497   2.665   3.264   2.786
 2470SOL    HW1 1498   2.755   3.278   2.744
 2470SOL    HW2 1499   2.594   3.266   2.715
 2471SOL     OW 1500   2.401   1.926   2.374
 2471SOL    HW1 1501   2.320   1.927   2.432
 2471SOL    HW2 1502   2.404   2.009   2.319
 2472SOL     OW 1503   3.296   3.050   1.903
 2472SOL    HW1 1504   3.328   2.974   1.960
 2472SOL    HW2 1505   3.204   3.077   1.933
 2473SOL     OW 1506   2.159   1.897   2.033
 2473SOL    HW1 1507   2.208   1.981   2.012
 2473SOL    HW2 1508   2.221   1.832   2.078
 2474SOL     OW 1509   2.797   2.098   2.342
 2474SOL    HW1 1510   2.749   2.139   2.264
 2474SOL    HW2 1511   2.896   2.096   2.323
 2475SOL     OW 1512   2.938   2.545   3.326
 2475SOL    HW1 1513   2.858   2.484   3.329
 2475SOL    HW2 1514   3.019   2.492   3.302
 2476SOL     OW 1515   3.089   3.432   2.655
 2476SOL    HW1 1516   3.110   3.506   2.590
 2476SOL    HW2 1517   3.157   3.432   2.728
 2477SOL     OW 1518   2.321   3.014   2.603
 2477SOL    HW1 1519   2.250   2.987   2.668
 2477SOL    HW2 1520   2.295   2.986   2.510
 2478SOL     OW 1521   3.133   3.659   2.453
 2478SOL    HW1 1522   3.177   3.723   2.389
 2478SOL    HW2 1523   3.083   3.711   2.523
 2479SOL     OW 1524   2.894   2.411   1.878
 2479SOL    HW1 1525   2.853   2.493   1.839
 2479SOL    HW2 1526   2.958   2.437   1.951
 2480SOL     OW 1527   1.940   2.418   3.248
 2480SOL    HW1 1528   2.032   2.417   3.207
 2480SOL    HW2 1529   1.934   2.492   3.315
 2481SOL     OW 1530   2.423   2.084   3.009
 2481SOL    HW1 1531   2.461   2.000   3.046
 2481SOL    HW2 1532   2.335   2.103   3.053
 2482SOL     OW 1533   2.879   1.901   2.615
 2482SOL    HW1 1534   2.807   1.906   2.546
 2482SOL    HW2 1535   2.855   1.832   2.684
 2483SOL     OW 1536   3.291   3.035   2.729
 2483SOL    HW1 1537   3.236   2.951   2.722
 2483SOL    HW2 1538   3.317   3.064   2.637
 2484SOL     OW 1539   3.328   2.452   2.854
 2484SOL    HW1 1540   3.298   2.357   2.861
 2484SOL    HW2 1541   3.401   2.468   2.920
 2485SOL     OW 1542   3.719   2.695   2.239
 2485SOL    HW1 1543   3.761   2.631   2.303
 2485SOL    HW2 1544   3.681   2.644   2.161
 2486SOL     OW 1545   2.350   3.247   2.036
 2486SOL    HW1 1546   2.263   3.232   2.083
 2486SOL    HW2 1547   2.333   3.273   1.941
 2487SOL     OW 1548   3.526   3.142   2.519
 2487SOL    HW1 1549   3.625   3.150   2.533
 2487SOL    HW2 1550   3.481   3.226   2.550
 2488SOL     OW 1551   3.252   2.437   1.940
 2488SOL    HW1 1552   3.198   2.416   2.021
 2488SOL    HW2 1553   3.343   2.396   1.949
 2489SOL     OW 1554   2.389   2.118   2.190
 2489SOL    HW1 1555   2.416   2.059   2.115
 2489SOL    HW2 1556   2.389   2.213   2.159
 2490SOL     OW 1557   3.616   3.085   3.450
 2490SOL    HW1 1558   3.707   3.046   3.437
 2490SOL    HW2 1559   3.624   3.181   3.474
 2491SOL     OW 1560   2.926   3.209   3.202
 2491SOL    HW1 1561   2.846   3.186   3.257
 2491SOL    HW2 1562   3.009   3.183   3.251
 2492SOL     OW 1563   3.454   3.491   3.487
 2492SOL    HW1 1564   3.481   3.525   3.397
 2492SOL    HW2 1565   3.533   3.453   3.533
 2493SOL     OW 1566   2.973   3.057   2.962
 2493SOL    HW1 1567   2.933   3.101   3.043
 2493SOL    HW2 1568   2.932   3.094   2.879
 2494SOL     OW 1569   3.500   2.961   2.941
 2494SOL    HW1 1570   3.505   3.042   3.000
 2494SOL    HW2 1571   3.414   2.963   2.890
 2495SOL     OW 1572   2.777   1.951   3.264
 2495SOL    HW1 1573   2.802   1.931   3.169
 2495SOL    HW2 1574   2.849   2.007   3.306
 2496SOL     OW 1575   2.842   2.978   3.581
 2496SOL    HW1 1576   2.743   2.984   3.591
 2496SOL    HW2 1577   2.865   2.898   3.525
 2497SOL     OW 1578   2.567   2.912   2.230
 2497SOL    HW1 1579   2.553   2.919   2.329
 2497SOL    HW2 1580   2.651   2.861   2.212
 2498SOL     OW 1581   2.272   2.675   3.113
 2498SOL    HW1 1582   2.358   2.687   3.163
 2498SOL    HW2 1583   2.230   2.588   3.140
 2499SOL     OW 1584   3.136   2.248   3.124
 2499SOL    HW1 1585   3.157   2.322   3.188
 2499SOL    HW2 1586   3.047   2.265   3.081
 2500SOL     OW 1587   1.926   3.426   3.193
 2500SOL    HW1 1588   1.880   3.508   3.159
 2500SOL    HW2 1589   2.024   3.445   3.202
 2501SOL     OW 1590   2.229   2.962   2.363
 2501SOL    HW1 1591   2.222   3.045   2.307
 2501SOL    HW2 1592   2.233   2.882   2.303
 2502SOL     OW 1593   3.114   3.210   2.250
 2502SOL    HW1 1594   3.164   3.287   2.290
 2502SOL    HW2 1595   3.019   3.212   2.282
 2503SOL     OW 1596   3.134   3.307   3.004
 2503SOL    HW1 1597   3.181   3.320   3.091
 2503SOL    HW2 1598   3.068   3.233   3.013
 2504SOL     OW 1599   3.444   2.501   2.334
 2504SOL    HW1 1600   3.413   2.562   2.407
 2504SOL    HW2 1601   3.494   2.553   2.265
 2505SOL     OW 1602   2.216   3.372   3.191
 2505SOL    HW1 1603   2.195   3.328   3.104
 2505SOL    HW2 1604   2.313   3.398   3.194
 2506SOL     OW 1605   2.264   2.613   3.460
 2506SOL    HW1 1606   2.332   2.668   3.413
 2506SOL    HW2 1607   2.304   2.525   3.487
 2507SOL     OW 1608   3.449   2.641   3.532
 2507SOL    HW1 1609   3.357   2.679   3.527
 2507SOL    HW2 1610   3.509   2.688   3.467
 2508SOL     OW 1611   2.875   1.967   3.632
 2508SOL    HW1 1612   2.881   2.052   3.580
 2508SOL    HW2 1613   2.907   1.891   3.575
 2509SOL     OW 1614   2.366   1.912   3.602
 2509SOL    HW1 1615   2.324   1.855   3.532
 2509SOL    HW2 1616   2.300   1.981   3.634
 2510SOL     OW 1617   2.435   2.732   2.891
 2510SOL    HW1 1618   2.479   2.821   2.882
 2510SOL    HW2 1619   2.372   2.732   2.968
 2511SOL     OW 1620   3.222   2.724   2.907
 2511SOL    HW1 1621   3.147   2.724   2.841
 2511SOL    HW2 1622   3.259   2.632   2.916
 2512SOL     OW 1623   3.071   2.387   2.137
 2512SOL    HW1 1624   3.084   2.303   2.191
 2512SOL    HW2 1625   3.042   2.461   2.197
 2513SOL     OW 1626   2.169   2.075   3.093
 2513SOL    HW1 1627   2.146   2.112   3.183
 2513SOL    HW2 1628   2.139   1.980   3.087
 2514SOL     OW 1629   1.899   3.172   3.144
 2514SOL    HW1 1630   1.952   3.123   3.212
 2514SOL    HW2 1631   1.921   3.270   3.149
 2515SOL     OW 1632   3.590   2.797   3.716
 2515SOL    HW1 1633   3.544   2.790   3.627
 2515SOL    HW2 1634   3.528   2.841   3.782
 2516SOL     OW 1635   2.169   1.925   2.480
 2516SOL    HW1 1636   2.158   2.019   2.513
 2516SOL    HW2 1637   2.164   1.862   2.557
 2517SOL     OW 1638   3.484   2.229   2.236
 2517SOL    HW1 1639   3.486   2.153   2.300
 2517SOL    HW2 1640   3.436   2.306   2.276
 2518SOL     OW 1641   2.842   3.435   3.562
 2518SOL    HW1 1642   2.822   3.479   3.474
 2518SOL    HW2 1643   2.881   3.344   3.546
 2519SOL     OW 1644   3.721   3.380   3.467
 2519SOL    HW1 1645   3.735   3.407   3.372
 2519SOL    HW2 1646   3.804   3.402   3.520
 2520SOL     OW 1647   2.212   2.760   3.666
 2520SOL    HW1 1648   2.288   2.804   3.714
 2520SOL    HW2 1649   2.247   2.713   3.584
 2521SOL     OW 1650   3.402   2.136   1.987
 2521SOL    HW1 1651   3.341   2.061   2.010
 2521SOL    HW2 1652   3.424   2.188   2.070
 2522SOL     OW 1653   3.165   2.700   1.904
 2522SOL    HW1 1654   3.199   2.607   1.919
 2522SOL    HW2 1655   3.183   2.727   1.809
 2523SOL     OW 1656   2.930   3.195   2.711
 2523SOL    HW1 1657   2.937   3.111   2.656
 2523SOL    HW2 1658   2.992   3.264   2.675
 2524SOL     OW 1659   2.181   2.672   2.811
 2524SOL    HW1 1660   2.274   2.708   2.816
 2524SOL    HW2 1661   2.175   2.587   2.863
 2525SOL     OW 1662   2.201   2.371   2.868
 2525SOL    HW1 1663   2.149   2.288   2.851
 2525SOL    HW2 1664   2.278   2.376   2.804
 2526SOL     OW 1665   3.000   2.242   3.540
 2526SOL    HW1 1666   2.955   2.305   3.604
 2526SOL    HW2 1667   3.093   2.273   3.523
 2527SOL     OW 1668   3.022   2.069   3.339
 2527SOL    HW1 1669   3.022   2.133   3.416
 2527SOL    HW2 1670   3.050   2.117   3.256
 2528SOL     OW 1671   1.870   3.188   2.062
 2528SOL    HW1 1672   1.777   3.209   2.031
 2528SOL    HW2 1673   1.880   3.089   2.075
 2529SOL     OW 1674   1.950   3.663   2.789
 2529SOL    HW1 1675   1.908   3.577   2.762
 2529SOL    HW2 1676   2.044   3.666   2.755
 2530SOL     OW 1677   2.366   3.430   2.772
 2530SOL    HW1 1678   2.432   3.504   2.781
 2530SOL    HW2 1679   2.410   3.351   2.730
 2531SOL     OW 1680   1.902   2.406   2.976
 2531SOL    HW1 1681   1.987   2.373   2.935
 2531SOL    HW2 1682   1.915   2.421   3.074
 2532SOL     OW 1683   2.051   2.382   3.584
 2532SOL    HW1 1684   2.110   2.342   3.514
 2532SOL    HW2 1685   1.993   2.453   3.543
 2533SOL     OW 1686   3.231   2.812   3.522
 2533SOL    HW1 1687   3.270   2.901   3.542
 2533SOL    HW2 1688   3.241   2.792   3.425
 2534SOL     OW 1689   2.677   2.434   2.187
 2534SOL    HW1 1690   2.684   2.345   2.141
 2534SOL    HW2 1691   2.583   2.468   2.179
 2535SOL     OW 1692   3.519   2.466   3.068
 2535SOL    HW1 1693   3.481   2.397   3.130
 2535SOL    HW2 1694   3.601   2.430   3.024
 2536SOL     OW 1695   2.114   3.426   3.606
 2536SOL    HW1 1696   2.084   3.483   3.682
 2536SOL    HW2 1697   2.107   3.329   3.632
 2537SOL     OW 1698   2.792   3.540   3.327
 2537SOL    HW1 1699   2.768   3.522   3.232
 2537SOL    HW2 1700   2.822   3.634   3.337
 2538SOL     OW 1701   2.021   2.999   3.328
 2538SOL    HW1 1702   2.043   2.938   3.404
 2538SOL    HW2 1703   2.031   2.950   3.242
 2539SOL     OW 1704   3.209   2.921   3.096
 2539SOL    HW1 1705   3.233   2.858   3.022
 2539SOL    HW2 1706   3.119   2.961   3.078
 2540SOL     OW 1707   3.164   2.717   2.171
 2540SOL    HW1 1708   3.078   2.686   2.213
 2540SOL    HW2 1709   3.160   2.703   2.072
 2541SOL     OW 1710   3.621   3.609   3.016
 2541SOL    HW1 1711   3.682   3.639   2.943
 2541SOL    HW2 1712   3.583   3.520   2.994
 2542SOL     OW 1713   3.114   3.593   2.990
 2542SOL    HW1 1714   3.198   3.598   2.936
 2542SOL    HW2 1715   3.091   3.497   3.008
 2543SOL     OW 1716   1.945   3.120   2.884
 2543SOL    HW1 1717   1.940   3.119   2.984
 2543SOL    HW2 1718   1.862   3.079   2.846
 2544SOL     OW 1719   2.550   3.524   3.578
 2544SOL    HW1 1720   2.494   3.605   3.587
 2544SOL    HW2 1721   2.602   3.528   3.492
 2545SOL     OW 1722   3.588   1.997   2.385
 2545SOL    HW1 1723   3.661   1.980   2.318
 2545SOL    HW2 1724   3.557   1.910   2.423
 2546SOL     OW 1725   3.250   3.435   2.339
 2546SOL    HW1 1726   3.317   3.447   2.265
 2546SOL    HW2 1727   3.210   3.524   2.362
 2547SOL     OW 1728   1.992   3.656   3.713
 2547SOL    HW1 1729   1.951   3.582   3.766
 2547SOL    HW2 1730   2.056   3.707   3.771
 2548SOL     OW 1731   3.142   2.789   2.534
 2548SOL    HW1 1732   3.202   2.708   2.536
 2548SOL    HW2 1733   3.182   2.858   2.474
 2549SOL     OW 1734   2.692   3.135   3.284
 2549SOL    HW1 1735   2.687   3.168   3.379
 2549SOL    HW2 1736   2.606   3.154   3.238
 2550SOL     OW 1737   2.534   3.478   2.016
 2550SOL    HW1 1738   2.543   3.488   1.917
 2550SOL    HW2 1739   2.494   3.389   2.037
 2551SOL     OW 1740   3.512   3.582   3.256
 2551SOL    HW1 1741   3.565   3.592   3.172
 2551SOL    HW2 1742   3.485   3.672   3.290
 2552SOL     OW 1743   3.703   2.037   2.825
 2552SOL    HW1 1744   3.742   1.952   2.789
 2552SOL    HW2 1745   3.605   2.039   2.806
 2553SOL     OW 1746   2.125   2.188   2.582
 2553SOL    HW1 1747   2.046   2.239   2.548
 2553SOL    HW2 1748   2.116   2.173   2.680
 2554SOL     OW 1749   3.056   3.474   1.893
 2554SOL    HW1 1750   3.062   3.381   1.930
 2554SOL    HW2 1751   2.997   3.474   1.813
 2555SOL     OW 1752   2.684   2.864   3.234
 2555SOL    HW1 1753   2.724   2.863   3.142
 2555SOL    HW2 1754   2.694   2.956   3.274
 2556SOL     OW 1755   2.778   2.772   2.153
 2556SOL    HW1 1756   2.841   2.810   2.085
 2556SOL    HW2 1757   2.818   2.689   2.192
 2557SOL     OW 1758   3.366   3.469   1.906
 2557SOL    HW1 1759   3.274   3.506   1.913
 2557SOL    HW2 1760   3.404   3.489   1.816
 2558SOL     OW 1761   2.234   3.150   3.352
 2558SOL    HW1 1762   2.221   3.243   3.318
 2558SOL    HW2 1763   2.150   3.098   3.339
 2559SOL     OW 1764   3.476   3.154   3.151
 2559SOL    HW1 1765   3.536   3.157   3.231
 2559SOL    HW2 1766   3.401   3.218   3.164
 2560SOL     OW 1767   2.901   2.960   2.558
 2560SOL    HW1 1768   2.831   2.913   2.612
 2560SOL    HW2 1769   2.960   2.892   2.515
 2561SOL     OW 1770   2.876   2.098   2.833
 2561SOL    HW1 1771   2.868   2.062   2.740
 2561SOL    HW2 1772   2.874   2.022   2.898
 2562SOL     OW 1773   2.452   3.349   2.353
 2562SOL    HW1 1774   2.494   3.291   2.283
 2562SOL    HW2 1775   2.408   3.428   2.309
 2563SOL     OW 1776   3.571   2.247   3.243
 2563SOL    HW1 1777   3.644   2.316   3.247
 2563SOL    HW2 1778   3.599   2.172   3.184
 2564SOL     OW 1779   2.117   3.210   2.152
 2564SOL    HW1 1780   2.021   3.211   2.125
 2564SOL    HW2 1781   2.129   3.263   2.236
 2565SOL     OW 1782   1.967   2.875   3.588
 2565SOL    HW1 1783   1.890   2.842   3.642
 2565SOL    HW2 1784   2.052   2.845   3.630
 2566SOL     OW 1785   2.534   2.065   3.351
 2566SOL    HW1 1786   2.624   2.049   3.311
 2566SOL    HW2 1787   2.542   2.070   3.450
 2567SOL     OW 1788   1.937   2.207   1.895
 2567SOL    HW1 1789   1.845   2.179   1.866
 2567SOL    HW2 1790   1.968   2.284   1.839
 2568SOL     OW 1791   3.302   2.718   3.260
 2568SOL    HW1 1792   3.245   2.770   3.197
 2568SOL    HW2 1793   3.398   2.730   3.236
 2569SOL     OW 1794   1.934   2.028   2.180
 2569SOL    HW1 1795   1.917   2.111   2.126
 2569SOL    HW2 1796   2.024   1.991   2.158
 2570SOL     OW 1797   3.045   3.197   1.981
 2570SOL    HW1 1798   2.946   3.186   1.983
 2570SOL    HW2 1799   3.079   3.212   2.074
 2571SOL     OW 1800   2.475   2.704   3.293
 2571SOL    HW1 1801   2.531   2.785   3.276
 2571SOL    HW2 1802   2.534   2.624   3.296
 2572SOL     OW 1803   3.355   3.629   2.821
 2572SOL    HW1 1804   3.388   3.693   2.752
 2572SOL    HW2 1805   3.421   3.623   2.896
 2573SOL     OW 1806   2.578   2.427   3.570
 2573SOL    HW1 1807   2.597   2.492   3.644
 2573SOL    HW2 1808   2.638   2.347   3.579
 2574SOL     OW 1809   3.312   3.082   3.495
 2574SOL    HW1 1810   3.303   3.072   3.594
 2574SOL    HW2 1811   3.408   3.075   3.469
 2575SOL     OW 1812   2.252   3.603   3.422
 2575SOL    HW1 1813   2.161   3.644   3.420
 2575SOL    HW2 1814   2.245   3.509   3.454
 2576SOL     OW 1815   3.536   2.745   3.116
 2576SOL    HW1 1816   3.509   2.656   3.079
 2576SOL    HW2 1817   3.537   2.813   3.043
 2577SOL     OW 1818   3.087   2.187   2.311
 2577SOL    HW1 1819   3.152   2.113   2.300
 2577SOL    HW2 1820   3.107   2.237   2.395
 2578SOL     OW 1821   3.639   2.204   3.504
 2578SOL    HW1 1822   3.622   2.235   3.410
 2578SOL    HW2 1823   3.555   2.167   3.542
 2579SOL     OW 1824   3.592   2.796   3.379
 2579SOL    HW1 1825   3.630   2.887   3.394
 2579SOL    HW2 1826   3.584   2.779   3.280
 2580SOL     OW 1827   2.721   3.236   1.878
 2580SOL    HW1 1828   2.675   3.251   1.966
 2580SOL    HW2 1829   2.765   3.321   1.848
 2581SOL     OW 1830   2.523   3.652   2.815
 2581SOL    HW1 1831   2.477   3.740   2.802
 2581SOL    HW2 1832   2.622   3.664   2.808
 2582SOL     OW 1833   2.721   2.818   2.723
 2582SOL    HW1 1834   2.775   2.749   2.771
 2582SOL    HW2 1835   2.689   2.887   2.789
 2583SOL     OW 1836   2.945   2.846   1.949
 2583SOL    HW1 1837   2.922   2.899   1.867
 2583SOL    HW2 1838   3.026   2.790   1.930
 2584SOL     OW 1839   3.723   3.431   2.713
 2584SOL    HW1 1840   3.652   3.419   2.643
 2584SOL    HW2 1841   3.724   3.352   2.773
 2585SOL     OW 1842   2.083   3.176   3.706
 2585SOL    HW1 1843   2.018   3.103   3.685
 2585SOL    HW2 1844   2.087   3.190   3.804
 2586SOL     OW 1845   1.941   3.102   2.515
 2586SOL    HW1 1846   1.940   3.055   2.603
 2586SOL    HW2 1847   2.023   3.074   2.464
 2587SOL     OW 1848   2.534   3.253   3.486
 2587SOL    HW1 1849   2.456   3.203   3.524
 2587SOL    HW2 1850   2.531   3.348   3.517
 2588SOL     OW 1851   3.686   2.054   3.089
 2588SOL    HW1 1852   3.682   1.964   3.133
 2588SOL    HW2 1853   3.689   2.043   2.990
 2589SOL     OW 1854   2.290   2.286   2.382
 2589SOL    HW1 1855   2.320   2.214   2.320
 2589SOL    HW2 1856   2.251   2.246   2.465
 2590SOL     OW 1857   3.567   3.349   2.966
 2590SOL    HW1 1858   3.474   3.324   2.939
 2590SOL    HW2 1859   3.593   3.299   3.048
 2591SOL     OW 1860   2.179   2.409   3.142
 2591SOL    HW1 1861   2.217   2.350   3.214
 2591SOL    HW2 1862   2.219   2.383   3.054
 2592SOL     OW 1863   2.674   3.448   2.549
 2592SOL    HW1 1864   2.706   3.458   2.455
 2592SOL    HW2 1865   2.595   3.386   2.551
 2593SOL     OW 1866   3.286   2.076   2.974
 2593SOL    HW1 1867   3.338   2.011   3.029
 2593SOL    HW2 1868   3.237   2.139   3.035
 2594SOL     OW 1869   2.863   1.896   3.016
 2594SOL    HW1 1870   2.800   1.824   2.985
 2594SOL    HW2 1871   2.956   1.860   3.016
 2595SOL     OW 1872   2.632   3.192   2.163
 2595SOL    HW1 1873   2.586   3.105   2.180
 2595SOL    HW2 1874   2.723   3.189   2.204
 2596SOL     OW 1875   2.480   3.429   3.146
 2596SOL    HW1 1876   2.475   3.511   3.203
 2596SOL    HW2 1877   2.569   3.426   3.101
 2597SOL     OW 1878   3.214   1.914   2.030
 2597SOL    HW1 1879   3.249   1.873   1.946
 2597SOL    HW2 1880   3.124   1.876   2.050
 2598SOL     OW 1881   3.162   2.315   2.553
 2598SOL    HW1 1882   3.103   2.395   2.557
 2598SOL    HW2 1883   3.177   2.280   2.646
 2599SOL     OW 1884   3.455   2.083   2.744
 2599SOL    HW1 1885   3.371   2.082   2.798
 2599SOL    HW2 1886   3.457   2.166   2.688
 2600SOL     OW 1887   1.901   2.939   2.162
 2600SOL    HW1 1888   2.000   2.928   2.153
 2600SOL    HW2 1889   1.861   2.853   2.194
 2601SOL     OW 1890   2.737   3.508   2.199
 2601SOL    HW1 1891   2.660   3.473   2.145
 2601SOL    HW2 1892   2.705   3.579   2.261
 2602SOL     OW 1893   2.092   2.490   3.837
 2602SOL    HW1 1894   1.999   2.488   3.874
 2602SOL    HW2 1895   2.093   2.451   3.745
 2608SOL     OW 1896   3.617   2.469   3.955
 2608SOL    HW1 1897   3.605   2.456   3.856
 2608SOL    HW2 1898   3.587   2.388   4.004
 2617SOL     OW 1899   2.468   2.826   3.847
 2617SOL    HW1 1900   2.475   2.910   3.793
 2617SOL    HW2 1901   2.514   2.839   3.935
 2620SOL     OW 1902   1.889   3.458   3.841
 2620SOL    HW1 1903   1.870   3.362   3.862
 2620SOL    HW2 1904   1.856   3.516   3.916
 2626SOL     OW 1905   3.387   2.861   3.914
 2626SOL    HW1 1906   3.324   2.785   3.927
 2626SOL    HW2 1907   3.435   2.879   4.000
 2629SOL     OW 1908   2.460   2.591   3.994
 2629SOL    HW1 1909   2.484   2.660   3.926
 2629SOL    HW2 1910   2.382   2.624   4.048
 2634SOL     OW 1911   2.903   2.563   4.153
 2634SOL    HW1 1912   2.929   2.559   4.249
 2634SOL    HW2 1913   2.818   2.512   4.139
 2636SOL     OW 1914   2.727   2.210   3.919
 2636SOL    HW1 1915   2.786   2.273   3.870
 2636SOL    HW2 1916   2.746   2.116   3.890
 2642SOL     OW 1917   2.183   2.805   3.966
 2642SOL    HW1 1918   2.265   2.844   3.924
 2642SOL    HW2 1919   2.156   2.723   3.917
 2646SOL     OW 1920   3.494   3.239   3.805
 2646SOL    HW1 1921   3.462   3.333   3.795
 2646SOL    HW2 1922   3.418   3.176   3.793
 2651SOL     OW 1923   2.244   2.562   4.204
 2651SOL    HW1 1924   2.289   2.472   4.201
 2651SOL    HW2 1925   2.150   2.551   4.237
 2652SOL     OW 1926   2.476   1.984   3.841
 2652SOL    HW1 1927   2.574   1.962   3.848
 2652SOL    HW2 1928   2.445   1.967   3.748
 2656SOL     OW 1929   2.401   1.926   4.236
 2656SOL    HW1 1930   2.320   1.927   4.294
 2656SOL    HW2 1931   2.404   2.009   4.181
 2657SOL     OW 1932   3.296   3.050   3.765
 2657SOL    HW1 1933   3.328   2.974   3.822
 2657SOL    HW2 1934   3.204   3.077   3.795
 2658SOL     OW 1935   2.159   1.897   3.895
 2658SOL    HW1 1936   2.208   1.981   3.874
 2658SOL    HW2 1937   2.221   1.832   3.940
 2659SOL     OW 1938   2.797   2.098   4.204
 2659SOL    HW1 1939   2.749   2.139   4.126
 2659SOL    HW2 1940   2.896   2.096   4.185
 2663SOL     OW 1941   2.894   2.411   3.740
 2663SOL    HW1 1942   2.853   2.493   3.701
 2663SOL    HW2 1943   2.958   2.437   3.813
 2670SOL     OW 1944   2.350   3.247   3.898
 2670SOL    HW1 1945   2.263   3.232   3.945
 2670SOL    HW2 1946   2.333   3.273   3.803
 2672SOL     OW 1947   3.252   2.437   3.802
 2672SOL    HW1 1948   3.198   2.416   3.883
 2672SOL    HW2 1949   3.343   2.396   3.811
 2673SOL     OW 1950   2.389   2.118   4.052
 2673SOL    HW1 1951   2.416   2.059   3.977
 2673SOL    HW2 1952   2.389   2.213   4.021
 2677SOL     OW 1953   2.567   2.912   4.092
 2677SOL    HW1 1954   2.553   2.919   4.191
 2677SOL    HW2 1955   2.651   2.861   4.074
 2681SOL     OW 1956   2.229   2.962   4.225
 2681SOL    HW1 1957   2.222   3.045   4.169
 2681SOL    HW2 1958   2.233   2.882   4.165
 2683SOL     OW 1959   3.114   3.210   4.112
 2683SOL    HW1 1960   3.164   3.287   4.152
 2683SOL    HW2 1961   3.019   3.212   4.144
 2689SOL     OW 1962   3.071   2.387   3.999
 2689SOL    HW1 1963   3.084   2.303   4.053
 2689SOL    HW2 1964   3.042   2.461   4.059
 2697SOL     OW 1965   3.402   2.136   3.849
 2697SOL    HW1 1966   3.341   2.061   3.872
 2697SOL    HW2 1967   3.424   2.188   3.932
 2698SOL     OW 1968   3.165   2.700   3.766
 2698SOL    HW1 1969   3.199   2.607   3.781
 2698SOL    HW2 1970   3.183   2.727   3.671
 2703SOL     OW 1971   1.870   3.188   3.924
 2703SOL    HW1 1972   1.777   3.209   3.893
 2703SOL    HW2 1973   1.880   3.089   3.937
 2709SOL     OW 1974   2.677   2.434   4.049
 2709SOL    HW1 1975   2.684   2.345   4.003
 2709SOL    HW2 1976   2.583   2.468   4.041
 2713SOL     OW 1977   2.335   2.362   3.915
 2713SOL    HW1 1978   2.396   2.442   3.919
 2713SOL    HW2 1979   2.240   2.393   3.922
 2716SOL     OW 1980   3.164   2.717   4.033
 2716SOL    HW1 1981   3.078   2.686   4.075
 2716SOL    HW2 1982   3.160   2.703   3.934
 2723SOL     OW 1983   2.534   3.478   3.878
 2723SOL    HW1 1984   2.543   3.488   3.779
 2723SOL    HW2 1985   2.494   3.389   3.899
 2726SOL     OW 1986   3.056   3.474   3.755
 2726SOL    HW1 1987   3.062   3.381   3.792
 2726SOL    HW2 1988   2.997   3.474   3.675
 2728SOL     OW 1989   2.778   2.772   4.015
 2728SOL    HW1 1990   2.841   2.810   3.947
 2728SOL    HW2 1991   2.818   2.689   4.054
 2729SOL     OW 1992   3.366   3.469   3.768
 2729SOL    HW1 1993   3.274   3.506   3.775
 2729SOL    HW2 1994   3.404   3.489   3.678
 2734SOL     OW 1995   2.117   3.210   4.014
 2734SOL    HW1 1996   2.021   3.211   3.987
 2734SOL    HW2 1997   2.129   3.263   4.098
 2736SOL     OW 1998   1.937   2.207   3.757
 2736SOL    HW1 1999   1.845   2.179   3.728
 2736SOL    HW2 2000   1.968   2.284   3.701
 2737SOL     OW 2001   1.934   2.028   4.042
 2737SOL    HW1 2002   1.917   2.111   3.988
 2737SOL    HW2 2003   2.024   1.991   4.020
 2738SOL     OW 2004   3.045   3.197   3.843
 2738SOL    HW1 2005   2.946   3.186   3.845
 2738SOL    HW2 2006   3.079   3.212   3.936
 2743SOL     OW 2007   3.087   2.187   4.173
 2743SOL    HW1 2008   3.152   2.113   4.162
 2743SOL    HW2 2009   3.107   2.237   4.257
 2746SOL     OW 2010   2.721   3.236   3.740
 2746SOL    HW1 2011   2.675   3.251   3.828
 2746SOL    HW2 2012   2.765   3.321   3.710
 2749SOL     OW 2013   2.945   2.846   3.811
 2749SOL    HW1 2014   2.922   2.899   3.729
 2749SOL    HW2 2015   3.026   2.790   3.792
 2753SOL     OW 2016   2.290   2.286   4.244
 2753SOL    HW1 2017   2.320   2.214   4.182
 2753SOL    HW2 2018   2.251   2.246   4.327
 2759SOL     OW 2019   2.632   3.192   4.025
 2759SOL    HW1 2020   2.586   3.105   4.042
 2759SOL    HW2 2021   2.723   3.189   4.066
 2760SOL     OW 2022   3.214   1.914   3.892
 2760SOL    HW1 2023   3.249   1.873   3.808
 2760SOL    HW2 2024   3.124   1.876   3.912
 2763SOL     OW 2025   1.901   2.939   4.024
 2763SOL    HW1 2026   2.000   2.928   4.015
 2763SOL    HW2 2027   1.861   2.853   4.056
 2764SOL     OW 2028   2.737   3.508   4.061
 2764SOL    HW1 2029   2.660   3.473   4.007
 2764SOL    HW2 2030   2.705   3.579   4.123
 2790SOL     OW 2031   2.179   3.975   1.801
 2790SOL    HW1 2032   2.250   4.046   1.807
 2790SOL    HW2 2033   2.091   4.014   1.829
 2812SOL     OW 2034   2.643   3.988   1.749
 2812SOL    HW1 2035   2.710   3.927   1.792
 2812SOL    HW2 2036   2.570   4.007   1.814
 2836SOL     OW 2037   2.777   3.813   1.402
 2836SOL    HW1 2038   2.802   3.793   1.307
 2836SOL    HW2 2039   2.849   3.869   1.444
 2846SOL     OW 2040   2.875   3.829   1.770
 2846SOL    HW1 2041   2.881   3.914   1.718
 2846SOL    HW2 2042   2.907   3.753   1.713
 2847SOL     OW 2043   2.366   3.774   1.740
 2847SOL    HW1 2044   2.324   3.717   1.670
 2847SOL    HW2 2045   2.300   3.843   1.772
 2891SOL     OW 2046   2.534   3.927   1.489
 2891SOL    HW1 2047   2.624   3.911   1.449
 2891SOL    HW2 2048   2.542   3.932   1.588
 2918SOL     OW 2049   2.087   3.999   2.858
 2918SOL    HW1 2050   2.122   3.982   2.950
 2918SOL    HW2 2051   1.999   3.954   2.846
 2919SOL     OW 2052   1.881   4.092   2.509
 2919SOL    HW1 2053   1.799   4.135   2.548
 2919SOL    HW2 2054   1.853   4.019   2.446
 2929SOL     OW 2055   2.300   4.116   3.361
 2929SOL    HW1 2056   2.382   4.060   3.370
 2929SOL    HW2 2057   2.219   4.058   3.365
 2933SOL     OW 2058   3.456   3.838   3.342
 2933SOL    HW1 2059   3.438   3.905   3.270
 2933SOL    HW2 2060   3.453   3.884   3.431
 2939SOL     OW 2061   2.671   3.728   2.364
 2939SOL    HW1 2062   2.711   3.819   2.355
 2939SOL    HW2 2063   2.571   3.736   2.370
 2945SOL     OW 2064   3.143   4.069   2.806
 2945SOL    HW1 2065   3.057   4.019   2.793
 2945SOL    HW2 2066   3.205   4.015   2.862
 2949SOL     OW 2067   2.853   4.134   3.104
 2949SOL    HW1 2068   2.776   4.168   3.158
 2949SOL    HW2 2069   2.819   4.083   3.025
 2952SOL     OW 2070   2.727   4.072   2.057
 2952SOL    HW1 2071   2.786   4.135   2.008
 2952SOL    HW2 2072   2.746   3.978   2.028
 2955SOL     OW 2073   2.412   3.920   2.747
 2955SOL    HW1 2074   2.407   3.915   2.847
 2955SOL    HW2 2075   2.414   4.016   2.718
 2959SOL     OW 2076   2.064   4.009   3.360
 2959SOL    HW1 2077   1.984   4.069   3.347
 2959SOL    HW2 2078   2.054   3.960   3.446
 2961SOL     OW 2079   3.262   3.831   2.288
 2961SOL    HW1 2080   3.238   3.794   2.198
 2961SOL    HW2 2081   3.361   3.847   2.292
 2964SOL     OW 2082   2.476   3.846   1.979
 2964SOL    HW1 2083   2.574   3.824   1.986
 2964SOL    HW2 2084   2.445   3.829   1.886
 2965SOL     OW 2085   2.643   3.988   3.611
 2965SOL    HW1 2086   2.710   3.927   3.654
 2965SOL    HW2 2087   2.570   4.007   3.676
 2967SOL     OW 2088   2.784   4.227   2.761
 2967SOL    HW1 2089   2.759   4.218   2.665
 2967SOL    HW2 2090   2.832   4.145   2.792
 2968SOL     OW 2091   2.401   3.788   2.374
 2968SOL    HW1 2092   2.320   3.789   2.432
 2968SOL    HW2 2093   2.404   3.871   2.319
 2970SOL     OW 2094   2.159   3.759   2.033
 2970SOL    HW1 2095   2.208   3.843   2.012
 2970SOL    HW2 2096   2.221   3.694   2.078
 2971SOL     OW 2097   2.797   3.960   2.342
 2971SOL    HW1 2098   2.749   4.001   2.264
 2971SOL    HW2 2099   2.896   3.958   2.323
 2977SOL     OW 2100   2.423   3.946   3.009
 2977SOL    HW1 2101   2.461   3.862   3.046
 2977SOL    HW2 2102   2.335   3.965   3.053
 2978SOL     OW 2103   2.728   4.178   2.504
 2978SOL    HW1 2104   2.696   4.250   2.442
 2978SOL    HW2 2105   2.752   4.097   2.451
 2979SOL     OW 2106   2.879   3.763   2.615
 2979SOL    HW1 2107   2.807   3.768   2.546
 2979SOL    HW2 2108   2.855   3.694   2.684
 2985SOL     OW 2109   2.389   3.980   2.190
 2985SOL    HW1 2110   2.416   3.921   2.115
 2985SOL    HW2 2111   2.389   4.075   2.159
 2990SOL     OW 2112   2.777   3.813   3.264
 2990SOL    HW1 2113   2.802   3.793   3.169
 2990SOL    HW2 2114   2.849   3.869   3.306
 2994SOL     OW 2115   3.136   4.110   3.124
 2994SOL    HW1 2116   3.157   4.184   3.188
 2994SOL    HW2 2117   3.047   4.127   3.081
 2996SOL     OW 2118   2.428   4.261   2.727
 2996SOL    HW1 2119   2.440   4.327   2.653
 2996SOL    HW2 2120   2.474   4.295   2.810
 3000SOL     OW 2121   2.875   3.829   3.632
 3000SOL    HW1 2122   2.881   3.914   3.580
 3000SOL    HW2 2123   2.907   3.753   3.575
 3001SOL     OW 2124   2.366   3.774   3.602
 3001SOL    HW1 2125   2.324   3.717   3.532
 3001SOL    HW2 2126   2.300   3.843   3.634
 3005SOL     OW 2127   2.169   3.937   3.093
 3005SOL    HW1 2128   2.146   3.974   3.183
 3005SOL    HW2 2129   2.139   3.842   3.087
 3008SOL     OW 2130   2.169   3.787   2.480
 3008SOL    HW1 2131   2.158   3.881   2.513
 3008SOL    HW2 2132   2.164   3.724   2.557
 3013SOL     OW 2133   3.402   3.998   1.987
 3013SOL    HW1 2134   3.341   3.923   2.010
 3013SOL    HW2 2135   3.424   4.050   2.070
 3016SOL     OW 2136   2.201   4.233   2.868
 3016SOL    HW1 2137   2.149   4.150   2.851
 3016SOL    HW2 2138   2.278   4.238   2.804
 3018SOL     OW 2139   3.022   3.931   3.339
 3018SOL    HW1 2140   3.022   3.995   3.416
 3018SOL    HW2 2141   3.050   3.979   3.256
 3024SOL     OW 2142   2.677   4.296   2.187
 3024SOL    HW1 2143   2.684   4.207   2.141
 3024SOL    HW2 2144   2.583   4.330   2.179
 3026SOL     OW 2145   2.533   4.188   3.131
 3026SOL    HW1 2146   2.499   4.099   3.101
 3026SOL    HW2 2147   2.559   4.242   3.051
 3027SOL     OW 2148   2.335   4.224   2.053
 3027SOL    HW1 2149   2.396   4.304   2.057
 3027SOL    HW2 2150   2.240   4.255   2.060
 3032SOL     OW 2151   3.588   3.859   2.385
 3032SOL    HW1 2152   3.661   3.842   2.318
 3032SOL    HW2 2153   3.557   3.772   2.423
 3035SOL     OW 2154   3.703   3.899   2.825
 3035SOL    HW1 2155   3.742   3.814   2.789
 3035SOL    HW2 2156   3.605   3.901   2.806
 3036SOL     OW 2157   2.125   4.050   2.582
 3036SOL    HW1 2158   2.046   4.101   2.548
 3036SOL    HW2 2159   2.116   4.035   2.680
 3043SOL     OW 2160   2.876   3.960   2.833
 3043SOL    HW1 2161   2.868   3.924   2.740
 3043SOL    HW2 2162   2.874   3.884   2.898
 3046SOL     OW 2163   2.534   3.927   3.351
 3046SOL    HW1 2164   2.624   3.911   3.311
 3046SOL    HW2 2165   2.542   3.932   3.450
 3047SOL     OW 2166   1.937   4.069   1.895
 3047SOL    HW1 2167   1.845   4.041   1.866
 3047SOL    HW2 2168   1.968   4.146   1.839
 3049SOL     OW 2169   1.934   3.890   2.180
 3049SOL    HW1 2170   1.917   3.973   2.126
 3049SOL    HW2 2171   2.024   3.853   2.158
 3054SOL     OW 2172   3.087   4.049   2.311
 3054SOL    HW1 2173   3.152   3.975   2.300
 3054SOL    HW2 2174   3.107   4.099   2.395
 3064SOL     OW 2175   2.290   4.148   2.382
 3064SOL    HW1 2176   2.320   4.076   2.320
 3064SOL    HW2 2177   2.251   4.108   2.465
 3066SOL     OW 2178   3.286   3.938   2.974
 3066SOL    HW1 2179   3.338   3.873   3.029
 3066SOL    HW2 2180   3.237   4.001   3.035
 3067SOL     OW 2181   2.863   3.758   3.016
 3067SOL    HW1 2182   2.800   3.686   2.985
 3067SOL    HW2 2183   2.956   3.722   3.016
 3069SOL     OW 2184   3.214   3.776   2.030
 3069SOL    HW1 2185   3.249   3.735   1.946
 3069SOL    HW2 2186   3.124   3.738   2.050
 3070SOL     OW 2187   3.162   4.177   2.553
 3070SOL    HW1 2188   3.103   4.257   2.557
 3070SOL    HW2 2189   3.177   4.142   2.646
 3071SOL     OW 2190   3.455   3.945   2.744
 3071SOL    HW1 2191   3.371   3.944   2.798
 3071SOL    HW2 2192   3.457   4.028   2.688
 3227SOL     OW 2193   3.854   1.821   1.571
 3227SOL    HW1 2194   3.844   1.806   1.670
 3227SOL    HW2 2195   3.768   1.857   1.535
 3312SOL     OW 2196   3.854   1.794   1.851
 3312SOL    HW1 2197   3.813   1.720   1.904
 3312SOL    HW2 2198   3.918   1.845   1.909
 3361SOL     OW 2199   3.955   1.713   2.345
 3361SOL    HW1 2200   3.989   1.790   2.399
 3361SOL    HW2 2201   3.999   1.713   2.255
 3363SOL     OW 2202   3.954   1.434   2.400
 3363SOL    HW1 2203   3.928   1.530   2.400
 3363SOL    HW2 2204   3.883   1.380   2.445
 3368SOL     OW 2205   3.751   1.596   1.979
 3368SOL    HW1 2206   3.732   1.500   2.000
 3368SOL    HW2 2207   3.718   1.654   2.054
 3384SOL     OW 2208   3.854   1.821   3.433
 3384SOL    HW1 2209   3.844   1.806   3.532
 3384SOL    HW2 2210   3.768   1.857   3.397
 3389SOL     OW 2211   4.075   1.801   2.715
 3389SOL    HW1 2212   4.125   1.715   2.721
 3389SOL    HW2 2213   4.140   1.878   2.712
 3396SOL     OW 2214   3.973   1.785   3.103
 3396SOL    HW1 2215   4.030   1.720   3.153
 3396SOL    HW2 2216   3.957   1.752   3.010
 3425SOL     OW 2217   3.788   1.564   3.193
 3425SOL    HW1 2218   3.742   1.646   3.159
 3425SOL    HW2 2219   3.886   1.583   3.202
 3451SOL     OW 2220   3.732   1.326   2.062
 3451SOL    HW1 2221   3.639   1.347   2.031
 3451SOL    HW2 2222   3.742   1.227   2.075
 3452SOL     OW 2223   3.812   1.801   2.789
 3452SOL    HW1 2224   3.770   1.715   2.762
 3452SOL    HW2 2225   3.906   1.804   2.755
 3647SOL     OW 2226   3.837   2.599   1.597
 3647SOL    HW1 2227   3.925   2.586   1.642
 3647SOL    HW2 2228   3.824   2.696   1.575
 3653SOL     OW 2229   4.041   2.113   1.801
 3653SOL    HW1 2230   4.112   2.184   1.807
 3653SOL    HW2 2231   3.953   2.152   1.829
 3672SOL     OW 2232   3.926   2.147   1.498
 3672SOL    HW1 2233   3.846   2.207   1.485
 3672SOL    HW2 2234   3.916   2.098   1.584
 3689SOL     OW 2235   3.802   2.418   1.386
 3689SOL    HW1 2236   3.894   2.417   1.345
 3689SOL    HW2 2237   3.796   2.492   1.453
 3720SOL     OW 2238   4.074   2.760   1.804
 3720SOL    HW1 2239   4.150   2.804   1.852
 3720SOL    HW2 2240   4.109   2.713   1.722
 3731SOL     OW 2241   3.913   2.382   1.722
 3731SOL    HW1 2242   3.972   2.342   1.652
 3731SOL    HW2 2243   3.855   2.453   1.681
 3737SOL     OW 2244   3.883   2.999   1.466
 3737SOL    HW1 2245   3.905   2.938   1.542
 3737SOL    HW2 2246   3.893   2.950   1.380
 3758SOL     OW 2247   3.829   2.875   1.726
 3758SOL    HW1 2248   3.752   2.842   1.780
 3758SOL    HW2 2249   3.914   2.845   1.768
 3772SOL     OW 2250   3.945   3.176   1.844
 3772SOL    HW1 2251   3.880   3.103   1.823
 3772SOL    HW2 2252   3.949   3.190   1.942
 3784SOL     OW 2253   3.954   2.490   1.975
 3784SOL    HW1 2254   3.861   2.488   2.012
 3784SOL    HW2 2255   3.955   2.451   1.883
 3785SOL     OW 2256   3.949   2.137   2.858
 3785SOL    HW1 2257   3.984   2.120   2.950
 3785SOL    HW2 2258   3.861   2.092   2.846
 3786SOL     OW 2259   3.743   2.230   2.509
 3786SOL    HW1 2260   3.661   2.273   2.548
 3786SOL    HW2 2261   3.715   2.157   2.446
 3793SOL     OW 2262   4.059   3.297   2.923
 3793SOL    HW1 2263   3.981   3.266   2.870
 3793SOL    HW2 2264   4.117   3.355   2.866
 3795SOL     OW 2265   3.955   3.575   2.345
 3795SOL    HW1 2266   3.989   3.652   2.399
 3795SOL    HW2 2267   3.999   3.575   2.255
 3797SOL     OW 2268   3.954   3.296   2.400
 3797SOL    HW1 2269   3.928   3.392   2.400
 3797SOL    HW2 2270   3.883   3.242   2.445
 3798SOL     OW 2271   3.964   2.953   2.748
 3798SOL    HW1 2272   3.978   2.869   2.800
 3798SOL    HW2 2273   3.909   3.017   2.803
 3801SOL     OW 2274   3.846   2.505   2.425
 3801SOL    HW1 2275   3.801   2.417   2.442
 3801SOL    HW2 2276   3.845   2.559   2.509
 3802SOL     OW 2277   3.751   3.458   1.979
 3802SOL    HW1 2278   3.732   3.362   2.000
 3802SOL    HW2 2279   3.718   3.516   2.054
 3803SOL     OW 2280   3.837   2.599   3.459
 3803SOL    HW1 2281   3.925   2.586   3.504
 3803SOL    HW2 2282   3.824   2.696   3.437
 3807SOL     OW 2283   3.921   2.838   3.126
 3807SOL    HW1 2284   4.010   2.793   3.112
 3807SOL    HW2 2285   3.848   2.773   3.107
 3817SOL     OW 2286   3.800   2.673   2.651
 3817SOL    HW1 2287   3.899   2.661   2.660
 3817SOL    HW2 2288   3.776   2.768   2.672
 3821SOL     OW 2289   4.274   2.058   2.747
 3821SOL    HW1 2290   4.269   2.053   2.847
 3821SOL    HW2 2291   4.276   2.154   2.718
 3825SOL     OW 2292   4.045   2.805   2.104
 3825SOL    HW1 2293   4.127   2.844   2.062
 3825SOL    HW2 2294   4.018   2.723   2.055
 3828SOL     OW 2295   3.926   2.147   3.360
 3828SOL    HW1 2296   3.846   2.207   3.347
 3828SOL    HW2 2297   3.916   2.098   3.446
 3832SOL     OW 2298   4.106   2.562   2.342
 3832SOL    HW1 2299   4.151   2.472   2.339
 3832SOL    HW2 2300   4.012   2.551   2.375
 3839SOL     OW 2301   4.021   1.897   2.033
 3839SOL    HW1 2302   4.070   1.981   2.012
 3839SOL    HW2 2303   4.083   1.832   2.078
 3843SOL     OW 2304   4.183   3.014   2.603
 3843SOL    HW1 2305   4.112   2.987   2.668
 3843SOL    HW2 2306   4.157   2.986   2.510
 3846SOL     OW 2307   3.802   2.418   3.248
 3846SOL    HW1 2308   3.894   2.417   3.207
 3846SOL    HW2 2309   3.796   2.492   3.315
 3851SOL     OW 2310   4.251   2.118   2.190
 3851SOL    HW1 2311   4.278   2.059   2.115
 3851SOL    HW2 2312   4.251   2.213   2.159
 3857SOL     OW 2313   4.134   2.675   3.113
 3857SOL    HW1 2314   4.220   2.687   3.163
 3857SOL    HW2 2315   4.092   2.588   3.140
 3859SOL     OW 2316   3.788   3.426   3.193
 3859SOL    HW1 2317   3.742   3.508   3.159
 3859SOL    HW2 2318   3.886   3.445   3.202
 3860SOL     OW 2319   4.091   2.962   2.363
 3860SOL    HW1 2320   4.084   3.045   2.307
 3860SOL    HW2 2321   4.095   2.882   2.303
 3861SOL     OW 2322   4.290   2.399   2.727
 3861SOL    HW1 2323   4.302   2.465   2.653
 3861SOL    HW2 2324   4.336   2.433   2.810
 3868SOL     OW 2325   4.297   2.732   2.891
 3868SOL    HW1 2326   4.341   2.821   2.882
 3868SOL    HW2 2327   4.234   2.732   2.968
 3871SOL     OW 2328   4.031   2.075   3.093
 3871SOL    HW1 2329   4.008   2.112   3.183
 3871SOL    HW2 2330   4.001   1.980   3.087
 3872SOL     OW 2331   3.761   3.172   3.144
 3872SOL    HW1 2332   3.814   3.123   3.212
 3872SOL    HW2 2333   3.783   3.270   3.149
 3874SOL     OW 2334   4.031   1.925   2.480
 3874SOL    HW1 2335   4.020   2.019   2.513
 3874SOL    HW2 2336   4.026   1.862   2.557
 3881SOL     OW 2337   4.043   2.672   2.811
 3881SOL    HW1 2338   4.136   2.708   2.816
 3881SOL    HW2 2339   4.037   2.587   2.863
 3882SOL     OW 2340   4.063   2.371   2.868
 3882SOL    HW1 2341   4.011   2.288   2.851
 3882SOL    HW2 2342   4.140   2.376   2.804
 3885SOL     OW 2343   3.732   3.188   2.062
 3885SOL    HW1 2344   3.639   3.209   2.031
 3885SOL    HW2 2345   3.742   3.089   2.075
 3886SOL     OW 2346   3.812   3.663   2.789
 3886SOL    HW1 2347   3.770   3.577   2.762
 3886SOL    HW2 2348   3.906   3.666   2.755
 3889SOL     OW 2349   3.764   2.406   2.976
 3889SOL    HW1 2350   3.849   2.373   2.935
 3889SOL    HW2 2351   3.777   2.421   3.074
 3890SOL     OW 2352   3.913   2.382   3.584
 3890SOL    HW1 2353   3.972   2.342   3.514
 3890SOL    HW2 2354   3.855   2.453   3.543
 3895SOL     OW 2355   4.197   2.362   2.053
 3895SOL    HW1 2356   4.258   2.442   2.057
 3895SOL    HW2 2357   4.102   2.393   2.060
 3896SOL     OW 2358   3.883   2.999   3.328
 3896SOL    HW1 2359   3.905   2.938   3.404
 3896SOL    HW2 2360   3.893   2.950   3.242
 3900SOL     OW 2361   3.807   3.120   2.884
 3900SOL    HW1 2362   3.802   3.119   2.984
 3900SOL    HW2 2363   3.724   3.079   2.846
 3907SOL     OW 2364   3.987   2.188   2.582
 3907SOL    HW1 2365   3.908   2.239   2.548
 3907SOL    HW2 2366   3.978   2.173   2.680
 3915SOL     OW 2367   3.979   3.210   2.152
 3915SOL    HW1 2368   3.883   3.211   2.125
 3915SOL    HW2 2369   3.991   3.263   2.236
 3916SOL     OW 2370   3.829   2.875   3.588
 3916SOL    HW1 2371   3.752   2.842   3.642
 3916SOL    HW2 2372   3.914   2.845   3.630
 3918SOL     OW 2373   3.799   2.207   1.895
 3918SOL    HW1 2374   3.707   2.179   1.866
 3918SOL    HW2 2375   3.830   2.284   1.839
 3920SOL     OW 2376   3.796   2.028   2.180
 3920SOL    HW1 2377   3.779   2.111   2.126
 3920SOL    HW2 2378   3.886   1.991   2.158
 3926SOL     OW 2379   4.318   2.607   2.514
 3926SOL    HW1 2380   4.368   2.692   2.495
 3926SOL    HW2 2381   4.230   2.609   2.466
 3932SOL     OW 2382   3.803   3.102   2.515
 3932SOL    HW1 2383   3.802   3.055   2.603
 3932SOL    HW2 2384   3.885   3.074   2.464
 3934SOL     OW 2385   4.152   2.286   2.382
 3934SOL    HW1 2386   4.182   2.214   2.320
 3934SOL    HW2 2387   4.113   2.246   2.465
 3935SOL     OW 2388   4.041   2.409   3.142
 3935SOL    HW1 2389   4.079   2.350   3.214
 3935SOL    HW2 2390   4.081   2.383   3.054
 3942SOL     OW 2391   3.763   2.939   2.162
 3942SOL    HW1 2392   3.862   2.928   2.153
 3942SOL    HW2 2393   3.723   2.853   2.194
 4048SOL     OW 2394   3.799   2.207   3.757
 4048SOL    HW1 2395   3.707   2.179   3.728
 4048SOL    HW2 2396   3.830   2.284   3.701
   5.12103   5.12103   5.12103
