; mobley_5571660_GMX.itp created by acpype (v: 2023.10.27) on Thu May 21 00:17:27 2026

[ atomtypes ]
;name   bond_type     mass     charge   ptype   sigma         epsilon       Amb
 ca       ca          0.00000  0.00000   A     3.31521e-01   4.13379e-01 ; 1.86  0.0988
 c3       c3          0.00000  0.00000   A     3.39771e-01   4.51035e-01 ; 1.91  0.1078
 nv       nv          0.00000  0.00000   A     3.36813e-01   4.68608e-01 ; 1.89  0.1120
 ha       ha          0.00000  0.00000   A     2.62548e-01   6.73624e-02 ; 1.47  0.0161
 hc       hc          0.00000  0.00000   A     2.60018e-01   8.70272e-02 ; 1.46  0.0208
 hn       hn          0.00000  0.00000   A     1.10650e-01   4.18400e-02 ; 0.62  0.0100

[ moleculetype ]
;name            nrexcl
 mobley_5571660   3

[ atoms ]
;   nr  type  resi  res  atom  cgnr     charge      mass       ; qtot   bond_type
     1   ca     1   MOL    C1    1    -0.167000     12.01000 ; qtot -0.167
     2   ca     1   MOL    C2    2    -0.097000     12.01000 ; qtot -0.264
     3   ca     1   MOL    C3    3    -0.097000     12.01000 ; qtot -0.361
     4   ca     1   MOL    C4    4    -0.135300     12.01000 ; qtot -0.496
     5   ca     1   MOL    C5    5    -0.135300     12.01000 ; qtot -0.632
     6   ca     1   MOL    C6    6     0.138600     12.01000 ; qtot -0.493
     7   c3     1   MOL    C7    7    -0.047800     12.01000 ; qtot -0.541
     8   c3     1   MOL    C8    8    -0.047800     12.01000 ; qtot -0.589
     9   nv     1   MOL    N1    9    -0.815200     14.01000 ; qtot -1.404
    10   ha     1   MOL    H1   10     0.130000      1.00800 ; qtot -1.274
    11   ha     1   MOL    H2   11     0.128000      1.00800 ; qtot -1.146
    12   ha     1   MOL    H3   12     0.128000      1.00800 ; qtot -1.018
    13   hc     1   MOL    H4   13     0.040700      1.00800 ; qtot -0.977
    14   hc     1   MOL    H5   14     0.040700      1.00800 ; qtot -0.936
    15   hc     1   MOL    H6   15     0.040700      1.00800 ; qtot -0.896
    16   hc     1   MOL    H7   16     0.040700      1.00800 ; qtot -0.855
    17   hc     1   MOL    H8   17     0.040700      1.00800 ; qtot -0.814
    18   hc     1   MOL    H9   18     0.040700      1.00800 ; qtot -0.774
    19   hn     1   MOL   H10   19     0.386800      1.00800 ; qtot -0.387
    20   hn     1   MOL   H11   20     0.386800      1.00800 ; qtot -0.000

[ bonds ]
;   ai     aj funct   r             k
     1      2   1    1.3986e-01    2.9644e+05 ;     C1 - C2    
     1      3   1    1.3986e-01    2.9644e+05 ;     C1 - C3    
     1     10   1    1.0860e-01    3.0183e+05 ;     C1 - H1    
     2      4   1    1.3986e-01    2.9644e+05 ;     C2 - C4    
     2     11   1    1.0860e-01    3.0183e+05 ;     C2 - H2    
     3      5   1    1.3986e-01    2.9644e+05 ;     C3 - C5    
     3     12   1    1.0860e-01    3.0183e+05 ;     C3 - H3    
     4      6   1    1.3986e-01    2.9644e+05 ;     C4 - C6    
     4      7   1    1.5147e-01    2.0410e+05 ;     C4 - C7    
     5      6   1    1.3986e-01    2.9644e+05 ;     C5 - C6    
     5      8   1    1.5147e-01    2.0410e+05 ;     C5 - C8    
     6      9   1    1.3744e-01    2.8644e+05 ;     C6 - N1    
     7     13   1    1.0962e-01    2.8891e+05 ;     C7 - H4    
     7     14   1    1.0962e-01    2.8891e+05 ;     C7 - H5    
     7     15   1    1.0962e-01    2.8891e+05 ;     C7 - H6    
     8     16   1    1.0962e-01    2.8891e+05 ;     C8 - H7    
     8     17   1    1.0962e-01    2.8891e+05 ;     C8 - H8    
     8     18   1    1.0962e-01    2.8891e+05 ;     C8 - H9    
     9     19   1    1.0114e-01    3.9961e+05 ;     N1 - H10   
     9     20   1    1.0114e-01    3.9961e+05 ;     N1 - H11   

[ pairs ]
;   ai     aj    funct
     1      6      1 ;     C1 - C6    
     1      7      1 ;     C1 - C7    
     1      8      1 ;     C1 - C8    
     2      5      1 ;     C2 - C5    
     2      9      1 ;     C2 - N1    
     2     12      1 ;     C2 - H3    
     2     13      1 ;     C2 - H4    
     2     14      1 ;     C2 - H5    
     2     15      1 ;     C2 - H6    
     3      4      1 ;     C3 - C4    
     3      9      1 ;     C3 - N1    
     3     11      1 ;     C3 - H2    
     3     16      1 ;     C3 - H7    
     3     17      1 ;     C3 - H8    
     3     18      1 ;     C3 - H9    
     4      8      1 ;     C4 - C8    
     4     19      1 ;     C4 - H10   
     4     20      1 ;     C4 - H11   
     5      7      1 ;     C5 - C7    
     5     19      1 ;     C5 - H10   
     5     20      1 ;     C5 - H11   
     6     11      1 ;     C6 - H2    
     6     12      1 ;     C6 - H3    
     6     13      1 ;     C6 - H4    
     6     14      1 ;     C6 - H5    
     6     15      1 ;     C6 - H6    
     6     16      1 ;     C6 - H7    
     6     17      1 ;     C6 - H8    
     6     18      1 ;     C6 - H9    
     7      9      1 ;     C7 - N1    
     7     11      1 ;     C7 - H2    
     8      9      1 ;     C8 - N1    
     8     12      1 ;     C8 - H3    
    10      4      1 ;     H1 - C4    
    10      5      1 ;     H1 - C5    
    10     11      1 ;     H1 - H2    
    10     12      1 ;     H1 - H3    

[ angles ]
;   ai     aj     ak    funct   theta         cth
     1      2      4      1    1.2002e+02    5.3279e+02 ;     C1 - C2     - C4    
     1      2     11      1    1.1988e+02    3.7572e+02 ;     C1 - C2     - H2    
     1      3      5      1    1.2002e+02    5.3279e+02 ;     C1 - C3     - C5    
     1      3     12      1    1.1988e+02    3.7572e+02 ;     C1 - C3     - H3    
     2      1      3      1    1.2002e+02    5.3279e+02 ;     C2 - C1     - C3    
     2      1     10      1    1.1988e+02    3.7572e+02 ;     C2 - C1     - H1    
     2      4      6      1    1.2002e+02    5.3279e+02 ;     C2 - C4     - C6    
     2      4      7      1    1.2083e+02    5.0827e+02 ;     C2 - C4     - C7    
     3      1     10      1    1.1988e+02    3.7572e+02 ;     C3 - C1     - H1    
     3      5      6      1    1.2002e+02    5.3279e+02 ;     C3 - C5     - C6    
     3      5      8      1    1.2083e+02    5.0827e+02 ;     C3 - C5     - C8    
     4      2     11      1    1.1988e+02    3.7572e+02 ;     C4 - C2     - H2    
     4      6      5      1    1.2002e+02    5.3279e+02 ;     C4 - C6     - C5    
     4      6      9      1    1.2094e+02    5.6827e+02 ;     C4 - C6     - N1    
     4      7     13      1    1.1063e+02    3.6493e+02 ;     C4 - C7     - H4    
     4      7     14      1    1.1063e+02    3.6493e+02 ;     C4 - C7     - H5    
     4      7     15      1    1.1063e+02    3.6493e+02 ;     C4 - C7     - H6    
     5      3     12      1    1.1988e+02    3.7572e+02 ;     C5 - C3     - H3    
     5      6      9      1    1.2094e+02    5.6827e+02 ;     C5 - C6     - N1    
     5      8     16      1    1.1063e+02    3.6493e+02 ;     C5 - C8     - H7    
     5      8     17      1    1.1063e+02    3.6493e+02 ;     C5 - C8     - H8    
     5      8     18      1    1.1063e+02    3.6493e+02 ;     C5 - C8     - H9    
     6      4      7      1    1.2083e+02    5.0827e+02 ;     C6 - C4     - C7    
     6      5      8      1    1.2083e+02    5.0827e+02 ;     C6 - C5     - C8    
     6      9     19      1    1.1673e+02    4.8292e+02 ;     C6 - N1     - H10   
     6      9     20      1    1.1673e+02    4.8292e+02 ;     C6 - N1     - H11   
    13      7     14      1    1.0773e+02    2.9957e+02 ;     H4 - C7     - H5    
    13      7     15      1    1.0773e+02    2.9957e+02 ;     H4 - C7     - H6    
    14      7     15      1    1.0773e+02    2.9957e+02 ;     H5 - C7     - H6    
    16      8     17      1    1.0773e+02    2.9957e+02 ;     H7 - C8     - H8    
    16      8     18      1    1.0773e+02    2.9957e+02 ;     H7 - C8     - H9    
    17      8     18      1    1.0773e+02    2.9957e+02 ;     H8 - C8     - H9    
    19      9     20      1    1.1528e+02    3.8794e+02 ;    H10 - N1     - H11   

[ dihedrals ] ; propers
; for gromacs 4.5 or higher, using funct 9
;    i      j      k      l   func   phase     kd      pn
     1      2      4      6      9   180.00  15.16700   2 ;     C1-    C2-    C4-    C6
     1      2      4      7      9   180.00  15.16700   2 ;     C1-    C2-    C4-    C7
     1      3      5      6      9   180.00  15.16700   2 ;     C1-    C3-    C5-    C6
     1      3      5      8      9   180.00  15.16700   2 ;     C1-    C3-    C5-    C8
     2      1      3      5      9   180.00  15.16700   2 ;     C2-    C1-    C3-    C5
     2      1      3     12      9   180.00  15.16700   2 ;     C2-    C1-    C3-    H3
     2      4      6      5      9   180.00  15.16700   2 ;     C2-    C4-    C6-    C5
     2      4      6      9      9   180.00  15.16700   2 ;     C2-    C4-    C6-    N1
     2      4      7     13      9     0.00   0.00000   0 ;     C2-    C4-    C7-    H4
     2      4      7     14      9     0.00   0.00000   0 ;     C2-    C4-    C7-    H5
     2      4      7     15      9     0.00   0.00000   0 ;     C2-    C4-    C7-    H6
     3      1      2      4      9   180.00  15.16700   2 ;     C3-    C1-    C2-    C4
     3      1      2     11      9   180.00  15.16700   2 ;     C3-    C1-    C2-    H2
     3      5      6      4      9   180.00  15.16700   2 ;     C3-    C5-    C6-    C4
     3      5      6      9      9   180.00  15.16700   2 ;     C3-    C5-    C6-    N1
     3      5      8     16      9     0.00   0.00000   0 ;     C3-    C5-    C8-    H7
     3      5      8     17      9     0.00   0.00000   0 ;     C3-    C5-    C8-    H8
     3      5      8     18      9     0.00   0.00000   0 ;     C3-    C5-    C8-    H9
     4      6      5      8      9   180.00  15.16700   2 ;     C4-    C6-    C5-    C8
     4      6      9     19      9   180.00   4.39320   2 ;     C4-    C6-    N1-   H10
     4      6      9     20      9   180.00   4.39320   2 ;     C4-    C6-    N1-   H11
     5      6      4      7      9   180.00  15.16700   2 ;     C5-    C6-    C4-    C7
     5      6      9     19      9   180.00   4.39320   2 ;     C5-    C6-    N1-   H10
     5      6      9     20      9   180.00   4.39320   2 ;     C5-    C6-    N1-   H11
     6      4      2     11      9   180.00  15.16700   2 ;     C6-    C4-    C2-    H2
     6      4      7     13      9     0.00   0.00000   0 ;     C6-    C4-    C7-    H4
     6      4      7     14      9     0.00   0.00000   0 ;     C6-    C4-    C7-    H5
     6      4      7     15      9     0.00   0.00000   0 ;     C6-    C4-    C7-    H6
     6      5      3     12      9   180.00  15.16700   2 ;     C6-    C5-    C3-    H3
     6      5      8     16      9     0.00   0.00000   0 ;     C6-    C5-    C8-    H7
     6      5      8     17      9     0.00   0.00000   0 ;     C6-    C5-    C8-    H8
     6      5      8     18      9     0.00   0.00000   0 ;     C6-    C5-    C8-    H9
     7      4      2     11      9   180.00  15.16700   2 ;     C7-    C4-    C2-    H2
     7      4      6      9      9   180.00  15.16700   2 ;     C7-    C4-    C6-    N1
     8      5      3     12      9   180.00  15.16700   2 ;     C8-    C5-    C3-    H3
     8      5      6      9      9   180.00  15.16700   2 ;     C8-    C5-    C6-    N1
    10      1      2      4      9   180.00  15.16700   2 ;     H1-    C1-    C2-    C4
    10      1      2     11      9   180.00  15.16700   2 ;     H1-    C1-    C2-    H2
    10      1      3      5      9   180.00  15.16700   2 ;     H1-    C1-    C3-    C5
    10      1      3     12      9   180.00  15.16700   2 ;     H1-    C1-    C3-    H3

[ dihedrals ] ; impropers
; treated as propers in GROMACS to use correct AMBER analytical function
;    i      j      k      l   func   phase     kd      pn
     1      4      2     11      4   180.00   4.60240   2 ;     C1-    C4-    C2-    H2
     1      5      3     12      4   180.00   4.60240   2 ;     C1-    C5-    C3-    H3
     2      6      4      7      4   180.00   4.60240   2 ;     C2-    C6-    C4-    C7
     4      5      6      9      4   180.00   4.60240   2 ;     C4-    C5-    C6-    N1
     6     19      9     20      4   180.00   4.60240   2 ;     C6-   H10-    N1-   H11
     8      3      5      6      4   180.00   4.60240   2 ;     C8-    C3-    C5-    C6
    10      1      3      2      4   180.00   4.60240   2 ;     H1-    C1-    C3-    C2
