; mobley_6309289_GMX.top created by acpype (v: 2023.10.27) on Thu May 21 00:22:12 2026

[ defaults ]
; nbfunc        comb-rule       gen-pairs       fudgeLJ fudgeQQ
1               2               yes             0.5     0.8333333333

; Include mobley_6309289_GMX.itp topology
#include "mobley_6309289_GMX.itp"

; Ligand position restraints
#ifdef POSRES_LIG
#include "posre_mobley_6309289.itp"
#endif


#include "/home/carla/github/Solvation-openMM/DADES/common/SOL.TIP3P.itp"

[ system ]
mobley_6309289 in water

[ molecules ]
; Compound        nmols
 mobley_6309289   1     
SOL 799
