; mobley_1781152_GMX.itp created by acpype (v: 2023.10.27) on Wed May 20 23:43:16 2026

[ atomtypes ]
;name   bond_type     mass     charge   ptype   sigma         epsilon       Amb
 c        c           0.00000  0.00000   A     3.31521e-01   4.13379e-01 ; 1.86  0.0988
 c3       c3          0.00000  0.00000   A     3.39771e-01   4.51035e-01 ; 1.91  0.1078
 o        o           0.00000  0.00000   A     3.04812e-01   6.12119e-01 ; 1.71  0.1463
 os       os          0.00000  0.00000   A     3.15610e-01   3.03758e-01 ; 1.77  0.0726
 hc       hc          0.00000  0.00000   A     2.60018e-01   8.70272e-02 ; 1.46  0.0208
 h1       h1          0.00000  0.00000   A     2.42200e-01   8.70272e-02 ; 1.36  0.0208

[ moleculetype ]
;name            nrexcl
 mobley_1781152   3

[ atoms ]
;   nr  type  resi  res  atom  cgnr     charge      mass       ; qtot   bond_type
     1    c     1   MOL    C1    1     0.630101     12.01000 ; qtot 0.630
     2   c3     1   MOL    C2    2    -0.089100     12.01000 ; qtot 0.541
     3   c3     1   MOL    C3    3    -0.089100     12.01000 ; qtot 0.452
     4   c3     1   MOL    C4    4    -0.089100     12.01000 ; qtot 0.363
     5   c3     1   MOL    C5    5     0.125700     12.01000 ; qtot 0.489
     6   c3     1   MOL    C6    6    -0.088000     12.01000 ; qtot 0.401
     7    o     1   MOL    O1    7    -0.540000     16.00000 ; qtot -0.139
     8   os     1   MOL    O2    8    -0.439900     16.00000 ; qtot -0.579
     9   hc     1   MOL    H1    9     0.047700      1.00800 ; qtot -0.532
    10   hc     1   MOL    H2   10     0.047700      1.00800 ; qtot -0.484
    11   hc     1   MOL    H3   11     0.047700      1.00800 ; qtot -0.436
    12   hc     1   MOL    H4   12     0.047700      1.00800 ; qtot -0.389
    13   hc     1   MOL    H5   13     0.047700      1.00800 ; qtot -0.341
    14   hc     1   MOL    H6   14     0.047700      1.00800 ; qtot -0.293
    15   hc     1   MOL    H7   15     0.047700      1.00800 ; qtot -0.245
    16   hc     1   MOL    H8   16     0.047700      1.00800 ; qtot -0.198
    17   hc     1   MOL    H9   17     0.047700      1.00800 ; qtot -0.150
    18   h1     1   MOL   H10   18     0.050033      1.00800 ; qtot -0.100
    19   h1     1   MOL   H11   19     0.050033      1.00800 ; qtot -0.050
    20   h1     1   MOL   H12   20     0.050033      1.00800 ; qtot -0.000

[ bonds ]
;   ai     aj funct   r             k
     1      6   1    1.5270e-01    1.9652e+05 ;     C1 - C6    
     1      7   1    1.2190e-01    4.9421e+05 ;     C1 - O1    
     1      8   1    1.3621e-01    2.9398e+05 ;     C1 - O2    
     2      6   1    1.5354e-01    1.9154e+05 ;     C2 - C6    
     2      9   1    1.0962e-01    2.8891e+05 ;     C2 - H1    
     2     10   1    1.0962e-01    2.8891e+05 ;     C2 - H2    
     2     11   1    1.0962e-01    2.8891e+05 ;     C2 - H3    
     3      6   1    1.5354e-01    1.9154e+05 ;     C3 - C6    
     3     12   1    1.0962e-01    2.8891e+05 ;     C3 - H4    
     3     13   1    1.0962e-01    2.8891e+05 ;     C3 - H5    
     3     14   1    1.0962e-01    2.8891e+05 ;     C3 - H6    
     4      6   1    1.5354e-01    1.9154e+05 ;     C4 - C6    
     4     15   1    1.0962e-01    2.8891e+05 ;     C4 - H7    
     4     16   1    1.0962e-01    2.8891e+05 ;     C4 - H8    
     4     17   1    1.0962e-01    2.8891e+05 ;     C4 - H9    
     5      8   1    1.4273e-01    2.3620e+05 ;     C5 - O2    
     5     18   1    1.0969e-01    2.8804e+05 ;     C5 - H10   
     5     19   1    1.0969e-01    2.8804e+05 ;     C5 - H11   
     5     20   1    1.0969e-01    2.8804e+05 ;     C5 - H12   

[ pairs ]
;   ai     aj    funct
     1      9      1 ;     C1 - H1    
     1     10      1 ;     C1 - H2    
     1     11      1 ;     C1 - H3    
     1     12      1 ;     C1 - H4    
     1     13      1 ;     C1 - H5    
     1     14      1 ;     C1 - H6    
     1     15      1 ;     C1 - H7    
     1     16      1 ;     C1 - H8    
     1     17      1 ;     C1 - H9    
     1     18      1 ;     C1 - H10   
     1     19      1 ;     C1 - H11   
     1     20      1 ;     C1 - H12   
     2     12      1 ;     C2 - H4    
     2     13      1 ;     C2 - H5    
     2     14      1 ;     C2 - H6    
     2     15      1 ;     C2 - H7    
     2     16      1 ;     C2 - H8    
     2     17      1 ;     C2 - H9    
     3      9      1 ;     C3 - H1    
     3     10      1 ;     C3 - H2    
     3     11      1 ;     C3 - H3    
     3     15      1 ;     C3 - H7    
     3     16      1 ;     C3 - H8    
     3     17      1 ;     C3 - H9    
     4      9      1 ;     C4 - H1    
     4     10      1 ;     C4 - H2    
     4     11      1 ;     C4 - H3    
     4     12      1 ;     C4 - H4    
     4     13      1 ;     C4 - H5    
     4     14      1 ;     C4 - H6    
     6      5      1 ;     C6 - C5    
     7      2      1 ;     O1 - C2    
     7      3      1 ;     O1 - C3    
     7      4      1 ;     O1 - C4    
     7      5      1 ;     O1 - C5    
     8      2      1 ;     O2 - C2    
     8      3      1 ;     O2 - C3    
     8      4      1 ;     O2 - C4    

[ angles ]
;   ai     aj     ak    funct   theta         cth
     1      6      2      1    1.1143e+02    5.0509e+02 ;     C1 - C6     - C2    
     1      6      3      1    1.1143e+02    5.0509e+02 ;     C1 - C6     - C3    
     1      6      4      1    1.1143e+02    5.0509e+02 ;     C1 - C6     - C4    
     1      8      5      1    1.1582e+02    7.4835e+02 ;     C1 - O2     - C5    
     2      6      3      1    1.1263e+02    5.0099e+02 ;     C2 - C6     - C3    
     2      6      4      1    1.1263e+02    5.0099e+02 ;     C2 - C6     - C4    
     3      6      4      1    1.1263e+02    5.0099e+02 ;     C3 - C6     - C4    
     6      1      7      1    1.2290e+02    6.3973e+02 ;     C6 - C1     - O1    
     6      1      8      1    1.1080e+02    6.5245e+02 ;     C6 - C1     - O2    
     6      2      9      1    1.0968e+02    3.6208e+02 ;     C6 - C2     - H1    
     6      2     10      1    1.0968e+02    3.6208e+02 ;     C6 - C2     - H2    
     6      2     11      1    1.0968e+02    3.6208e+02 ;     C6 - C2     - H3    
     6      3     12      1    1.0968e+02    3.6208e+02 ;     C6 - C3     - H4    
     6      3     13      1    1.0968e+02    3.6208e+02 ;     C6 - C3     - H5    
     6      3     14      1    1.0968e+02    3.6208e+02 ;     C6 - C3     - H6    
     6      4     15      1    1.0968e+02    3.6208e+02 ;     C6 - C4     - H7    
     6      4     16      1    1.0968e+02    3.6208e+02 ;     C6 - C4     - H8    
     6      4     17      1    1.0968e+02    3.6208e+02 ;     C6 - C4     - H9    
     7      1      8      1    1.2320e+02    8.4734e+02 ;     O1 - C1     - O2    
     8      5     18      1    1.1034e+02    4.7028e+02 ;     O2 - C5     - H10   
     8      5     19      1    1.1034e+02    4.7028e+02 ;     O2 - C5     - H11   
     8      5     20      1    1.1034e+02    4.7028e+02 ;     O2 - C5     - H12   
     9      2     10      1    1.0773e+02    2.9957e+02 ;     H1 - C2     - H2    
     9      2     11      1    1.0773e+02    2.9957e+02 ;     H1 - C2     - H3    
    10      2     11      1    1.0773e+02    2.9957e+02 ;     H2 - C2     - H3    
    12      3     13      1    1.0773e+02    2.9957e+02 ;     H4 - C3     - H5    
    12      3     14      1    1.0773e+02    2.9957e+02 ;     H4 - C3     - H6    
    13      3     14      1    1.0773e+02    2.9957e+02 ;     H5 - C3     - H6    
    15      4     16      1    1.0773e+02    2.9957e+02 ;     H7 - C4     - H8    
    15      4     17      1    1.0773e+02    2.9957e+02 ;     H7 - C4     - H9    
    16      4     17      1    1.0773e+02    2.9957e+02 ;     H8 - C4     - H9    
    18      5     19      1    1.0855e+02    2.9824e+02 ;    H10 - C5     - H11   
    18      5     20      1    1.0855e+02    2.9824e+02 ;    H10 - C5     - H12   
    19      5     20      1    1.0855e+02    2.9824e+02 ;    H11 - C5     - H12   

[ dihedrals ] ; propers
; for gromacs 4.5 or higher, using funct 9
;    i      j      k      l   func   phase     kd      pn
     1      6      2      9      9     0.00   0.65084   3 ;     C1-    C6-    C2-    H1
     1      6      2     10      9     0.00   0.65084   3 ;     C1-    C6-    C2-    H2
     1      6      2     11      9     0.00   0.65084   3 ;     C1-    C6-    C2-    H3
     1      6      3     12      9     0.00   0.65084   3 ;     C1-    C6-    C3-    H4
     1      6      3     13      9     0.00   0.65084   3 ;     C1-    C6-    C3-    H5
     1      6      3     14      9     0.00   0.65084   3 ;     C1-    C6-    C3-    H6
     1      6      4     15      9     0.00   0.65084   3 ;     C1-    C6-    C4-    H7
     1      6      4     16      9     0.00   0.65084   3 ;     C1-    C6-    C4-    H8
     1      6      4     17      9     0.00   0.65084   3 ;     C1-    C6-    C4-    H9
     1      8      5     18      9     0.00   1.60387   3 ;     C1-    O2-    C5-   H10
     1      8      5     19      9     0.00   1.60387   3 ;     C1-    O2-    C5-   H11
     1      8      5     20      9     0.00   1.60387   3 ;     C1-    O2-    C5-   H12
     2      6      3     12      9     0.00   0.54392   3 ;     C2-    C6-    C3-    H4
     2      6      3     13      9     0.00   0.54392   3 ;     C2-    C6-    C3-    H5
     2      6      3     14      9     0.00   0.54392   3 ;     C2-    C6-    C3-    H6
     2      6      4     15      9     0.00   0.54392   3 ;     C2-    C6-    C4-    H7
     2      6      4     16      9     0.00   0.54392   3 ;     C2-    C6-    C4-    H8
     2      6      4     17      9     0.00   0.54392   3 ;     C2-    C6-    C4-    H9
     3      6      2      9      9     0.00   0.54392   3 ;     C3-    C6-    C2-    H1
     3      6      2     10      9     0.00   0.54392   3 ;     C3-    C6-    C2-    H2
     3      6      2     11      9     0.00   0.54392   3 ;     C3-    C6-    C2-    H3
     3      6      4     15      9     0.00   0.54392   3 ;     C3-    C6-    C4-    H7
     3      6      4     16      9     0.00   0.54392   3 ;     C3-    C6-    C4-    H8
     3      6      4     17      9     0.00   0.54392   3 ;     C3-    C6-    C4-    H9
     4      6      2      9      9     0.00   0.54392   3 ;     C4-    C6-    C2-    H1
     4      6      2     10      9     0.00   0.54392   3 ;     C4-    C6-    C2-    H2
     4      6      2     11      9     0.00   0.54392   3 ;     C4-    C6-    C2-    H3
     4      6      3     12      9     0.00   0.54392   3 ;     C4-    C6-    C3-    H4
     4      6      3     13      9     0.00   0.54392   3 ;     C4-    C6-    C3-    H5
     4      6      3     14      9     0.00   0.54392   3 ;     C4-    C6-    C3-    H6
     6      1      8      5      9     0.00   3.13800   3 ;     C6-    C1-    O2-    C5
     6      1      8      5      9   180.00   7.90776   1 ;     C6-    C1-    O2-    C5
     6      1      8      5      9   180.00  13.76536   2 ;     C6-    C1-    O2-    C5
     7      1      6      2      9     0.00   2.84512   1 ;     O1-    C1-    C6-    C2
     7      1      6      2      9   180.00   0.83680   2 ;     O1-    C1-    C6-    C2
     7      1      6      2      9   180.00   1.84096   3 ;     O1-    C1-    C6-    C2
     7      1      6      3      9     0.00   2.84512   1 ;     O1-    C1-    C6-    C3
     7      1      6      3      9   180.00   0.83680   2 ;     O1-    C1-    C6-    C3
     7      1      6      3      9   180.00   1.84096   3 ;     O1-    C1-    C6-    C3
     7      1      6      4      9     0.00   2.84512   1 ;     O1-    C1-    C6-    C4
     7      1      6      4      9   180.00   0.83680   2 ;     O1-    C1-    C6-    C4
     7      1      6      4      9   180.00   1.84096   3 ;     O1-    C1-    C6-    C4
     7      1      8      5      9   180.00   5.85760   1 ;     O1-    C1-    O2-    C5
     7      1      8      5      9   180.00  11.29680   2 ;     O1-    C1-    O2-    C5
     8      1      6      2      9   180.00   0.00000   2 ;     O2-    C1-    C6-    C2
     8      1      6      3      9   180.00   0.00000   2 ;     O2-    C1-    C6-    C3
     8      1      6      4      9   180.00   0.00000   2 ;     O2-    C1-    C6-    C4

[ dihedrals ] ; impropers
; treated as propers in GROMACS to use correct AMBER analytical function
;    i      j      k      l   func   phase     kd      pn
     8      1      7      6      4   180.00   4.60240   2 ;     O2-    C1-    O1-    C6
