mobley_4936555_GMX.gro created by acpype (v: 2023.10.27) on Tue May 19 12:48:03 2026
 2397
    1MOL     C1    1   2.538   2.786   2.895
    1MOL     C2    2   2.431   2.771   2.807
    1MOL     C3    3   2.420   2.646   2.256
    1MOL     C4    4   2.656   2.714   2.876
    1MOL     C5    5   2.392   2.527   2.189
    1MOL     C6    6   2.442   2.683   2.699
    1MOL     C7    7   2.479   2.644   2.382
    1MOL     C8    8   2.667   2.626   2.768
    1MOL     C9    9   2.423   2.405   2.250
    1MOL    C10   10   2.482   2.402   2.376
    1MOL    C11   11   2.560   2.610   2.680
    1MOL    C12   12   2.510   2.522   2.443
    1MOL    C13   13   2.791   2.552   2.750
    1MOL    C14   14   2.392   2.278   2.176
    1MOL    C15   15   2.515   2.271   2.440
    1MOL     N1   16   2.569   2.522   2.570
    1MOL     O1   17   2.837   2.515   2.642
    1MOL     O2   18   2.854   2.528   2.868
    1MOL     H1   19   2.530   2.855   2.979
    1MOL     H2   20   2.340   2.827   2.822
    1MOL     H3   21   2.396   2.741   2.209
    1MOL     H4   22   2.739   2.727   2.945
    1MOL     H5   23   2.347   2.530   2.091
    1MOL     H6   24   2.358   2.671   2.631
    1MOL     H7   25   2.500   2.738   2.433
    1MOL     H8   26   2.478   2.249   2.115
    1MOL     H9   27   2.370   2.197   2.246
    1MOL    H10   28   2.305   2.290   2.112
    1MOL    H11   29   2.616   2.241   2.413
    1MOL    H12   30   2.508   2.278   2.550
    1MOL    H13   31   2.445   2.193   2.409
    1MOL    H14   32   2.630   2.442   2.587
    1MOL    H15   33   2.938   2.478   2.858
   35SOL     OW   34   1.187   1.792   1.616
   35SOL    HW1   35   1.211   1.852   1.540
   35SOL    HW2   36   1.194   1.697   1.586
   95SOL     OW   37   1.754   1.223   1.588
   95SOL    HW1   38   1.845   1.184   1.575
   95SOL    HW2   39   1.762   1.319   1.612
   97SOL     OW   40   1.592   1.629   1.625
   97SOL    HW1   41   1.619   1.663   1.535
   97SOL    HW2   42   1.671   1.591   1.671
  127SOL     OW   43   1.859   1.518   1.605
  127SOL    HW1   44   1.873   1.545   1.510
  127SOL    HW2   45   1.942   1.540   1.658
  152SOL     OW   46   1.759   1.747   1.154
  152SOL    HW1   47   1.820   1.777   1.081
  152SOL    HW2   48   1.721   1.658   1.132
  163SOL     OW   49   1.650   1.720   1.394
  163SOL    HW1   50   1.703   1.730   1.310
  163SOL    HW2   51   1.623   1.810   1.428
  219SOL     OW   52   1.555   1.511   2.565
  219SOL    HW1   53   1.498   1.495   2.646
  219SOL    HW2   54   1.496   1.521   2.485
  227SOL     OW   55   1.460   1.505   3.201
  227SOL    HW1   56   1.484   1.599   3.227
  227SOL    HW2   57   1.444   1.451   3.283
  238SOL     OW   58   1.842   1.767   2.221
  238SOL    HW1   59   1.896   1.738   2.301
  238SOL    HW2   60   1.872   1.857   2.192
  241SOL     OW   61   1.641   1.108   2.294
  241SOL    HW1   62   1.727   1.110   2.242
  241SOL    HW2   63   1.655   1.155   2.382
  250SOL     OW   64   1.466   1.417   2.815
  250SOL    HW1   65   1.407   1.423   2.895
  250SOL    HW2   66   1.451   1.329   2.769
  251SOL     OW   67   1.667   1.714   2.434
  251SOL    HW1   68   1.626   1.691   2.346
  251SOL    HW2   69   1.649   1.640   2.499
  254SOL     OW   70   1.576   1.662   2.169
  254SOL    HW1   71   1.665   1.708   2.172
  254SOL    HW2   72   1.555   1.638   2.074
  268SOL     OW   73   1.795   1.066   2.735
  268SOL    HW1   74   1.733   1.051   2.659
  268SOL    HW2   75   1.743   1.077   2.820
  273SOL     OW   76   1.111   1.776   2.099
  273SOL    HW1   77   1.051   1.714   2.149
  273SOL    HW2   78   1.142   1.732   2.014
  275SOL     OW   79   1.632   1.377   1.943
  275SOL    HW1   80   1.600   1.471   1.933
  275SOL    HW2   81   1.556   1.314   1.931
  293SOL     OW   82   1.227   1.570   2.655
  293SOL    HW1   83   1.248   1.644   2.590
  293SOL    HW2   84   1.295   1.570   2.728
  295SOL     OW   85   1.271   1.797   2.453
  295SOL    HW1   86   1.315   1.861   2.389
  295SOL    HW2   87   1.221   1.849   2.523
  301SOL     OW   88   1.429   1.173   2.729
  301SOL    HW1   89   1.374   1.089   2.722
  301SOL    HW2   90   1.455   1.202   2.637
  305SOL     OW   91   1.664   1.280   2.519
  305SOL    HW1   92   1.763   1.288   2.533
  305SOL    HW2   93   1.619   1.364   2.550
  308SOL     OW   94   1.754   1.223   3.450
  308SOL    HW1   95   1.845   1.184   3.437
  308SOL    HW2   96   1.762   1.319   3.474
  310SOL     OW   97   1.592   1.629   3.487
  310SOL    HW1   98   1.619   1.663   3.397
  310SOL    HW2   99   1.671   1.591   3.533
  312SOL     OW  100   1.638   1.099   2.941
  312SOL    HW1  101   1.643   1.180   3.000
  312SOL    HW2  102   1.552   1.101   2.890
  321SOL     OW  103   1.252   1.348   2.250
  321SOL    HW1  104   1.302   1.425   2.290
  321SOL    HW2  105   1.157   1.350   2.282
  322SOL     OW  106   1.272   1.445   3.004
  322SOL    HW1  107   1.319   1.458   3.091
  322SOL    HW2  108   1.206   1.371   3.013
  340SOL     OW  109   1.859   1.518   3.467
  340SOL    HW1  110   1.873   1.545   3.372
  340SOL    HW2  111   1.942   1.540   3.520
  365SOL     OW  112   1.759   1.747   3.016
  365SOL    HW1  113   1.820   1.777   2.943
  365SOL    HW2  114   1.721   1.658   2.994
  366SOL     OW  115   1.252   1.731   2.990
  366SOL    HW1  116   1.336   1.736   2.936
  366SOL    HW2  117   1.229   1.635   3.008
  370SOL     OW  118   1.388   1.573   2.339
  370SOL    HW1  119   1.455   1.585   2.265
  370SOL    HW2  120   1.348   1.662   2.362
  375SOL     OW  121   1.650   1.720   3.256
  375SOL    HW1  122   1.703   1.730   3.172
  375SOL    HW2  123   1.623   1.810   3.290
  378SOL     OW  124   1.194   1.612   1.893
  378SOL    HW1  125   1.200   1.519   1.930
  378SOL    HW2  126   1.135   1.612   1.813
  381SOL     OW  127   1.504   1.607   1.906
  381SOL    HW1  128   1.412   1.644   1.913
  381SOL    HW2  129   1.542   1.627   1.816
  383SOL     OW  130   1.614   1.292   3.151
  383SOL    HW1  131   1.674   1.295   3.231
  383SOL    HW2  132   1.539   1.356   3.164
  396SOL     OW  133   1.493   1.767   2.821
  396SOL    HW1  134   1.526   1.831   2.752
  396SOL    HW2  135   1.559   1.761   2.896
  409SOL     OW  136   1.861   1.569   2.713
  409SOL    HW1  137   1.790   1.557   2.643
  409SOL    HW2  138   1.862   1.490   2.773
  415SOL     OW  139   1.705   1.487   2.966
  415SOL    HW1  140   1.612   1.462   2.939
  415SOL    HW2  141   1.731   1.437   3.048
  596SOL     OW  142   1.127   3.203   1.690
  596SOL    HW1  143   1.174   3.203   1.778
  596SOL    HW2  144   1.079   3.116   1.679
  601SOL     OW  145   1.594   1.976   1.480
  601SOL    HW1  146   1.576   2.043   1.408
  601SOL    HW2  147   1.591   2.022   1.569
  609SOL     OW  148   1.293   3.090   1.423
  609SOL    HW1  149   1.330   3.017   1.365
  609SOL    HW2  150   1.345   3.095   1.508
  621SOL     OW  151   1.394   2.331   1.674
  621SOL    HW1  152   1.374   2.374   1.762
  621SOL    HW2  153   1.472   2.269   1.683
  628SOL     OW  154   1.719   2.447   1.831
  628SOL    HW1  155   1.693   2.536   1.795
  628SOL    HW2  156   1.717   2.379   1.758
  646SOL     OW  157   1.547   2.084   1.729
  646SOL    HW1  158   1.542   2.121   1.821
  646SOL    HW2  159   1.475   2.015   1.717
  650SOL     OW  160   1.351   2.452   1.433
  650SOL    HW1  161   1.379   2.409   1.518
  650SOL    HW2  162   1.376   2.548   1.434
  673SOL     OW  163   1.754   3.085   1.588
  673SOL    HW1  164   1.845   3.046   1.575
  673SOL    HW2  165   1.762   3.181   1.612
  675SOL     OW  166   1.592   3.491   1.625
  675SOL    HW1  167   1.619   3.525   1.535
  675SOL    HW2  168   1.671   3.453   1.671
  677SOL     OW  169   1.638   2.961   1.079
  677SOL    HW1  170   1.643   3.042   1.138
  677SOL    HW2  171   1.552   2.963   1.028
  691SOL     OW  172   1.587   2.641   1.670
  691SOL    HW1  173   1.495   2.679   1.665
  691SOL    HW2  174   1.647   2.688   1.605
  692SOL     OW  175   1.013   1.967   1.770
  692SOL    HW1  176   1.019   2.052   1.718
  692SOL    HW2  177   1.045   1.891   1.713
  700SOL     OW  178   1.728   2.797   1.854
  700SOL    HW1  179   1.682   2.790   1.765
  700SOL    HW2  180   1.666   2.841   1.920
  705SOL     OW  181   1.859   3.380   1.605
  705SOL    HW1  182   1.873   3.407   1.510
  705SOL    HW2  183   1.942   3.402   1.658
  712SOL     OW  184   1.138   2.242   1.678
  712SOL    HW1  185   1.093   2.305   1.742
  712SOL    HW2  186   1.231   2.273   1.661
  713SOL     OW  187   1.160   2.069   1.477
  713SOL    HW1  188   1.160   2.133   1.554
  713SOL    HW2  189   1.188   2.117   1.394
  720SOL     OW  190   1.369   2.812   1.660
  720SOL    HW1  191   1.408   2.901   1.680
  720SOL    HW2  192   1.379   2.792   1.563
  722SOL     OW  193   1.657   2.466   1.206
  722SOL    HW1  194   1.619   2.397   1.268
  722SOL    HW2  195   1.739   2.430   1.162
  728SOL     OW  196   1.347   2.921   1.234
  728SOL    HW1  197   1.371   2.858   1.160
  728SOL    HW2  198   1.257   2.961   1.216
  741SOL     OW  199   1.650   3.582   1.394
  741SOL    HW1  200   1.703   3.592   1.310
  741SOL    HW2  201   1.623   3.672   1.428
  742SOL     OW  202   1.841   2.037   0.963
  742SOL    HW1  203   1.880   1.952   0.927
  742SOL    HW2  204   1.743   2.039   0.944
  749SOL     OW  205   1.614   3.154   1.289
  749SOL    HW1  206   1.674   3.157   1.369
  749SOL    HW2  207   1.539   3.218   1.302
  753SOL     OW  208   1.709   2.247   1.381
  753SOL    HW1  209   1.782   2.316   1.385
  753SOL    HW2  210   1.737   2.172   1.322
  758SOL     OW  211   1.440   2.718   1.398
  758SOL    HW1  212   1.383   2.770   1.335
  758SOL    HW2  213   1.536   2.730   1.374
  764SOL     OW  214   1.450   3.082   1.633
  764SOL    HW1  215   1.441   3.072   1.732
  764SOL    HW2  216   1.546   3.075   1.607
  766SOL     OW  217   1.674   2.745   1.254
  766SOL    HW1  218   1.647   2.656   1.217
  766SOL    HW2  219   1.675   2.813   1.181
  769SOL     OW  220   1.777   2.204   1.642
  769SOL    HW1  221   1.760   2.235   1.548
  769SOL    HW2  222   1.693   2.167   1.680
  770SOL     OW  223   1.730   2.796   1.517
  770SOL    HW1  224   1.768   2.887   1.532
  770SOL    HW2  225   1.722   2.779   1.418
  779SOL     OW  226   1.824   2.054   1.227
  779SOL    HW1  227   1.820   1.964   1.271
  779SOL    HW2  228   1.827   2.043   1.128
  797SOL     OW  229   1.555   3.373   2.565
  797SOL    HW1  230   1.498   3.357   2.646
  797SOL    HW2  231   1.496   3.383   2.485
  798SOL     OW  232   1.135   2.565   2.579
  798SOL    HW1  233   1.192   2.643   2.554
  798SOL    HW2  234   1.075   2.591   2.655
  799SOL     OW  235   1.755   2.469   2.093
  799SOL    HW1  236   1.743   2.456   1.994
  799SOL    HW2  237   1.725   2.388   2.142
  805SOL     OW  238   1.460   3.367   3.201
  805SOL    HW1  239   1.484   3.461   3.227
  805SOL    HW2  240   1.444   3.313   3.283
  807SOL     OW  241   1.603   2.309   2.599
  807SOL    HW1  242   1.529   2.355   2.549
  807SOL    HW2  243   1.654   2.377   2.652
  814SOL     OW  244   1.594   1.976   3.342
  814SOL    HW1  245   1.576   2.043   3.270
  814SOL    HW2  246   1.591   2.022   3.431
  816SOL     OW  247   1.842   3.629   2.221
  816SOL    HW1  248   1.896   3.600   2.301
  816SOL    HW2  249   1.872   3.719   2.192
  818SOL     OW  250   1.689   2.784   2.474
  818SOL    HW1  251   1.784   2.755   2.482
  818SOL    HW2  252   1.681   2.849   2.399
  819SOL     OW  253   1.641   2.970   2.294
  819SOL    HW1  254   1.727   2.972   2.242
  819SOL    HW2  255   1.655   3.017   2.382
  822SOL     OW  256   1.293   3.090   3.285
  822SOL    HW1  257   1.330   3.017   3.227
  822SOL    HW2  258   1.345   3.095   3.370
  825SOL     OW  259   1.525   2.861   2.052
  825SOL    HW1  260   1.462   2.785   2.065
  825SOL    HW2  261   1.573   2.879   2.138
  828SOL     OW  262   1.466   3.279   2.815
  828SOL    HW1  263   1.407   3.285   2.895
  828SOL    HW2  264   1.451   3.191   2.769
  829SOL     OW  265   1.667   3.576   2.434
  829SOL    HW1  266   1.626   3.553   2.346
  829SOL    HW2  267   1.649   3.502   2.499
  831SOL     OW  268   1.281   2.207   2.806
  831SOL    HW1  269   1.195   2.157   2.793
  831SOL    HW2  270   1.343   2.153   2.862
  832SOL     OW  271   1.576   3.524   2.169
  832SOL    HW1  272   1.665   3.570   2.172
  832SOL    HW2  273   1.555   3.500   2.074
  834SOL     OW  274   1.394   2.331   3.536
  834SOL    HW1  275   1.374   2.374   3.624
  834SOL    HW2  276   1.472   2.269   3.545
  836SOL     OW  277   0.991   2.272   3.104
  836SOL    HW1  278   0.914   2.306   3.158
  836SOL    HW2  279   0.957   2.221   3.025
  837SOL     OW  280   1.041   2.563   2.291
  837SOL    HW1  281   1.067   2.559   2.387
  837SOL    HW2  282   0.956   2.512   2.277
  840SOL     OW  283   0.865   2.210   2.057
  840SOL    HW1  284   0.924   2.273   2.008
  840SOL    HW2  285   0.884   2.116   2.028
  841SOL     OW  286   1.719   2.447   3.693
  841SOL    HW1  287   1.693   2.536   3.657
  841SOL    HW2  288   1.717   2.379   3.620
  842SOL     OW  289   1.362   3.006   2.407
  842SOL    HW1  290   1.445   2.977   2.359
  842SOL    HW2  291   1.313   3.073   2.351
  844SOL     OW  292   1.008   3.318   2.339
  844SOL    HW1  293   0.962   3.390   2.287
  844SOL    HW2  294   1.004   3.338   2.437
  846SOL     OW  295   1.795   2.928   2.735
  846SOL    HW1  296   1.733   2.913   2.659
  846SOL    HW2  297   1.743   2.939   2.820
  847SOL     OW  298   1.227   3.412   3.368
  847SOL    HW1  299   1.233   3.335   3.432
  847SOL    HW2  300   1.175   3.386   3.288
  849SOL     OW  301   1.458   2.597   2.590
  849SOL    HW1  302   1.453   2.532   2.665
  849SOL    HW2  303   1.538   2.656   2.603
  853SOL     OW  304   1.632   3.239   1.943
  853SOL    HW1  305   1.600   3.333   1.933
  853SOL    HW2  306   1.556   3.176   1.931
  855SOL     OW  307   1.400   1.969   2.288
  855SOL    HW1  308   1.376   1.932   2.198
  855SOL    HW2  309   1.499   1.985   2.292
  859SOL     OW  310   1.547   2.084   3.591
  859SOL    HW1  311   1.542   2.121   3.683
  859SOL    HW2  312   1.475   2.015   3.579
  863SOL     OW  313   1.351   2.452   3.295
  863SOL    HW1  314   1.379   2.409   3.380
  863SOL    HW2  315   1.376   2.548   3.296
  865SOL     OW  316   0.922   2.365   2.761
  865SOL    HW1  317   0.897   2.356   2.665
  865SOL    HW2  318   0.970   2.283   2.792
  867SOL     OW  319   1.434   3.050   1.903
  867SOL    HW1  320   1.466   2.974   1.960
  867SOL    HW2  321   1.342   3.077   1.933
  869SOL     OW  322   0.935   2.098   2.342
  869SOL    HW1  323   0.887   2.139   2.264
  869SOL    HW2  324   1.034   2.096   2.323
  870SOL     OW  325   1.076   2.545   3.326
  870SOL    HW1  326   0.996   2.484   3.329
  870SOL    HW2  327   1.157   2.492   3.302
  871SOL     OW  328   1.227   3.432   2.655
  871SOL    HW1  329   1.248   3.506   2.590
  871SOL    HW2  330   1.295   3.432   2.728
  873SOL     OW  331   1.271   3.659   2.453
  873SOL    HW1  332   1.315   3.723   2.389
  873SOL    HW2  333   1.221   3.711   2.523
  874SOL     OW  334   1.032   2.411   1.878
  874SOL    HW1  335   0.991   2.493   1.839
  874SOL    HW2  336   1.096   2.437   1.951
  877SOL     OW  337   0.866   2.316   2.504
  877SOL    HW1  338   0.834   2.388   2.442
  877SOL    HW2  339   0.890   2.235   2.451
  878SOL     OW  340   1.017   1.901   2.615
  878SOL    HW1  341   0.945   1.906   2.546
  878SOL    HW2  342   0.993   1.832   2.684
  879SOL     OW  343   1.429   3.035   2.729
  879SOL    HW1  344   1.374   2.951   2.722
  879SOL    HW2  345   1.455   3.064   2.637
  880SOL     OW  346   1.466   2.452   2.854
  880SOL    HW1  347   1.436   2.357   2.861
  880SOL    HW2  348   1.539   2.468   2.920
  881SOL     OW  349   1.857   2.695   2.239
  881SOL    HW1  350   1.899   2.631   2.303
  881SOL    HW2  351   1.819   2.644   2.161
  883SOL     OW  352   1.664   3.142   2.519
  883SOL    HW1  353   1.763   3.150   2.533
  883SOL    HW2  354   1.619   3.226   2.550
  884SOL     OW  355   1.390   2.437   1.940
  884SOL    HW1  356   1.336   2.416   2.021
  884SOL    HW2  357   1.481   2.396   1.949
  886SOL     OW  358   1.754   3.085   3.450
  886SOL    HW1  359   1.845   3.046   3.437
  886SOL    HW2  360   1.762   3.181   3.474
  887SOL     OW  361   1.064   3.209   3.202
  887SOL    HW1  362   0.984   3.186   3.257
  887SOL    HW2  363   1.147   3.183   3.251
  888SOL     OW  364   1.592   3.491   3.487
  888SOL    HW1  365   1.619   3.525   3.397
  888SOL    HW2  366   1.671   3.453   3.533
  889SOL     OW  367   1.111   3.057   2.962
  889SOL    HW1  368   1.071   3.101   3.043
  889SOL    HW2  369   1.070   3.094   2.879
  890SOL     OW  370   1.638   2.961   2.941
  890SOL    HW1  371   1.643   3.042   3.000
  890SOL    HW2  372   1.552   2.963   2.890
  895SOL     OW  373   1.274   2.248   3.124
  895SOL    HW1  374   1.295   2.322   3.188
  895SOL    HW2  375   1.185   2.265   3.081
  899SOL     OW  376   1.252   3.210   2.250
  899SOL    HW1  377   1.302   3.287   2.290
  899SOL    HW2  378   1.157   3.212   2.282
  900SOL     OW  379   1.272   3.307   3.004
  900SOL    HW1  380   1.319   3.320   3.091
  900SOL    HW2  381   1.206   3.233   3.013
  901SOL     OW  382   1.582   2.501   2.334
  901SOL    HW1  383   1.551   2.562   2.407
  901SOL    HW2  384   1.632   2.553   2.265
  904SOL     OW  385   1.587   2.641   3.532
  904SOL    HW1  386   1.495   2.679   3.527
  904SOL    HW2  387   1.647   2.688   3.467
  908SOL     OW  388   1.360   2.724   2.907
  908SOL    HW1  389   1.285   2.724   2.841
  908SOL    HW2  390   1.397   2.632   2.916
  909SOL     OW  391   1.209   2.387   2.137
  909SOL    HW1  392   1.222   2.303   2.191
  909SOL    HW2  393   1.180   2.461   2.197
  913SOL     OW  394   1.728   2.797   3.716
  913SOL    HW1  395   1.682   2.790   3.627
  913SOL    HW2  396   1.666   2.841   3.782
  915SOL     OW  397   1.622   2.229   2.236
  915SOL    HW1  398   1.624   2.153   2.300
  915SOL    HW2  399   1.574   2.306   2.276
  916SOL     OW  400   1.023   2.628   2.828
  916SOL    HW1  401   1.038   2.649   2.924
  916SOL    HW2  402   0.993   2.533   2.819
  918SOL     OW  403   1.859   3.380   3.467
  918SOL    HW1  404   1.873   3.407   3.372
  918SOL    HW2  405   1.942   3.402   3.520
  920SOL     OW  406   1.540   2.136   1.987
  920SOL    HW1  407   1.479   2.061   2.010
  920SOL    HW2  408   1.562   2.188   2.070
  921SOL     OW  409   1.303   2.700   1.904
  921SOL    HW1  410   1.337   2.607   1.919
  921SOL    HW2  411   1.321   2.727   1.809
  922SOL     OW  412   1.068   3.195   2.711
  922SOL    HW1  413   1.075   3.111   2.656
  922SOL    HW2  414   1.130   3.264   2.675
  925SOL     OW  415   1.138   2.242   3.540
  925SOL    HW1  416   1.093   2.305   3.604
  925SOL    HW2  417   1.231   2.273   3.523
  926SOL     OW  418   1.160   2.069   3.339
  926SOL    HW1  419   1.160   2.133   3.416
  926SOL    HW2  420   1.188   2.117   3.256
  930SOL     OW  421   1.002   2.658   3.100
  930SOL    HW1  422   1.043   2.626   3.186
  930SOL    HW2  423   0.906   2.631   3.097
  933SOL     OW  424   1.369   2.812   3.522
  933SOL    HW1  425   1.408   2.901   3.542
  933SOL    HW2  426   1.379   2.792   3.425
  934SOL     OW  427   0.815   2.434   2.187
  934SOL    HW1  428   0.822   2.345   2.141
  934SOL    HW2  429   0.721   2.468   2.179
  935SOL     OW  430   1.657   2.466   3.068
  935SOL    HW1  431   1.619   2.397   3.130
  935SOL    HW2  432   1.739   2.430   3.024
  941SOL     OW  433   1.347   2.921   3.096
  941SOL    HW1  434   1.371   2.858   3.022
  941SOL    HW2  435   1.257   2.961   3.078
  942SOL     OW  436   1.302   2.717   2.171
  942SOL    HW1  437   1.216   2.686   2.213
  942SOL    HW2  438   1.298   2.703   2.072
  943SOL     OW  439   1.759   3.609   3.016
  943SOL    HW1  440   1.820   3.639   2.943
  943SOL    HW2  441   1.721   3.520   2.994
  944SOL     OW  442   1.252   3.593   2.990
  944SOL    HW1  443   1.336   3.598   2.936
  944SOL    HW2  444   1.229   3.497   3.008
  947SOL     OW  445   1.726   1.997   2.385
  947SOL    HW1  446   1.799   1.980   2.318
  947SOL    HW2  447   1.695   1.910   2.423
  948SOL     OW  448   1.388   3.435   2.339
  948SOL    HW1  449   1.455   3.447   2.265
  948SOL    HW2  450   1.348   3.524   2.362
  950SOL     OW  451   1.280   2.789   2.534
  950SOL    HW1  452   1.340   2.708   2.536
  950SOL    HW2  453   1.320   2.858   2.474
  953SOL     OW  454   1.650   3.582   3.256
  953SOL    HW1  455   1.703   3.592   3.172
  953SOL    HW2  456   1.623   3.672   3.290
  954SOL     OW  457   1.841   2.037   2.825
  954SOL    HW1  458   1.880   1.952   2.789
  954SOL    HW2  459   1.743   2.039   2.806
  956SOL     OW  460   1.194   3.474   1.893
  956SOL    HW1  461   1.200   3.381   1.930
  956SOL    HW2  462   1.135   3.474   1.813
  958SOL     OW  463   0.916   2.772   2.153
  958SOL    HW1  464   0.979   2.810   2.085
  958SOL    HW2  465   0.956   2.689   2.192
  959SOL     OW  466   1.504   3.469   1.906
  959SOL    HW1  467   1.412   3.506   1.913
  959SOL    HW2  468   1.542   3.489   1.816
  961SOL     OW  469   1.614   3.154   3.151
  961SOL    HW1  470   1.674   3.157   3.231
  961SOL    HW2  471   1.539   3.218   3.164
  962SOL     OW  472   1.039   2.960   2.558
  962SOL    HW1  473   0.969   2.913   2.612
  962SOL    HW2  474   1.098   2.892   2.515
  963SOL     OW  475   1.014   2.098   2.833
  963SOL    HW1  476   1.006   2.062   2.740
  963SOL    HW2  477   1.012   2.022   2.898
  965SOL     OW  478   1.709   2.247   3.243
  965SOL    HW1  479   1.782   2.316   3.247
  965SOL    HW2  480   1.737   2.172   3.184
  970SOL     OW  481   1.440   2.718   3.260
  970SOL    HW1  482   1.383   2.770   3.197
  970SOL    HW2  483   1.536   2.730   3.236
  972SOL     OW  484   1.183   3.197   1.981
  972SOL    HW1  485   1.084   3.186   1.983
  972SOL    HW2  486   1.217   3.212   2.074
  974SOL     OW  487   1.493   3.629   2.821
  974SOL    HW1  488   1.526   3.693   2.752
  974SOL    HW2  489   1.559   3.623   2.896
  976SOL     OW  490   1.450   3.082   3.495
  976SOL    HW1  491   1.441   3.072   3.594
  976SOL    HW2  492   1.546   3.075   3.469
  978SOL     OW  493   1.674   2.745   3.116
  978SOL    HW1  494   1.647   2.656   3.079
  978SOL    HW2  495   1.675   2.813   3.043
  979SOL     OW  496   1.225   2.187   2.311
  979SOL    HW1  497   1.290   2.113   2.300
  979SOL    HW2  498   1.245   2.237   2.395
  981SOL     OW  499   1.777   2.204   3.504
  981SOL    HW1  500   1.760   2.235   3.410
  981SOL    HW2  501   1.693   2.167   3.542
  982SOL     OW  502   1.730   2.796   3.379
  982SOL    HW1  503   1.768   2.887   3.394
  982SOL    HW2  504   1.722   2.779   3.280
  985SOL     OW  505   0.859   2.818   2.723
  985SOL    HW1  506   0.913   2.749   2.771
  985SOL    HW2  507   0.827   2.887   2.789
  986SOL     OW  508   1.083   2.846   1.949
  986SOL    HW1  509   1.060   2.899   1.867
  986SOL    HW2  510   1.164   2.790   1.930
  987SOL     OW  511   1.861   3.431   2.713
  987SOL    HW1  512   1.790   3.419   2.643
  987SOL    HW2  513   1.862   3.352   2.773
  991SOL     OW  514   1.824   2.054   3.089
  991SOL    HW1  515   1.820   1.964   3.133
  991SOL    HW2  516   1.827   2.043   2.990
  993SOL     OW  517   1.705   3.349   2.966
  993SOL    HW1  518   1.612   3.324   2.939
  993SOL    HW2  519   1.731   3.299   3.048
  996SOL     OW  520   1.424   2.076   2.974
  996SOL    HW1  521   1.476   2.011   3.029
  996SOL    HW2  522   1.375   2.139   3.035
  997SOL     OW  523   1.001   1.896   3.016
  997SOL    HW1  524   0.938   1.824   2.985
  997SOL    HW2  525   1.094   1.860   3.016
 1000SOL     OW  526   1.352   1.914   2.030
 1000SOL    HW1  527   1.387   1.873   1.946
 1000SOL    HW2  528   1.262   1.876   2.050
 1001SOL     OW  529   1.300   2.315   2.553
 1001SOL    HW1  530   1.241   2.395   2.557
 1001SOL    HW2  531   1.315   2.280   2.646
 1002SOL     OW  532   1.593   2.083   2.744
 1002SOL    HW1  533   1.509   2.082   2.798
 1002SOL    HW2  534   1.595   2.166   2.688
 1011SOL     OW  535   1.755   2.469   3.955
 1011SOL    HW1  536   1.743   2.456   3.856
 1011SOL    HW2  537   1.725   2.388   4.004
 1029SOL     OW  538   1.525   2.861   3.914
 1029SOL    HW1  539   1.462   2.785   3.927
 1029SOL    HW2  540   1.573   2.879   4.000
 1048SOL     OW  541   1.632   3.239   3.805
 1048SOL    HW1  542   1.600   3.333   3.795
 1048SOL    HW2  543   1.556   3.176   3.793
 1058SOL     OW  544   1.434   3.050   3.765
 1058SOL    HW1  545   1.466   2.974   3.822
 1058SOL    HW2  546   1.342   3.077   3.795
 1070SOL     OW  547   1.857   2.695   4.101
 1070SOL    HW1  548   1.899   2.631   4.165
 1070SOL    HW2  549   1.819   2.644   4.023
 1073SOL     OW  550   1.390   2.437   3.802
 1073SOL    HW1  551   1.336   2.416   3.883
 1073SOL    HW2  552   1.481   2.396   3.811
 1095SOL     OW  553   1.540   2.136   3.849
 1095SOL    HW1  554   1.479   2.061   3.872
 1095SOL    HW2  555   1.562   2.188   3.932
 1096SOL     OW  556   1.303   2.700   3.766
 1096SOL    HW1  557   1.337   2.607   3.781
 1096SOL    HW2  558   1.321   2.727   3.671
 1348SOL     OW  559   1.400   3.831   2.288
 1348SOL    HW1  560   1.376   3.794   2.198
 1348SOL    HW2  561   1.499   3.847   2.292
 1417SOL     OW  562   1.726   3.859   2.385
 1417SOL    HW1  563   1.799   3.842   2.318
 1417SOL    HW2  564   1.695   3.772   2.423
 1420SOL     OW  565   1.841   3.899   2.825
 1420SOL    HW1  566   1.880   3.814   2.789
 1420SOL    HW2  567   1.743   3.901   2.806
 1446SOL     OW  568   1.824   3.916   3.089
 1446SOL    HW1  569   1.820   3.826   3.133
 1446SOL    HW2  570   1.827   3.905   2.990
 1452SOL     OW  571   1.352   3.776   2.030
 1452SOL    HW1  572   1.387   3.735   1.946
 1452SOL    HW2  573   1.262   3.738   2.050
 1454SOL     OW  574   1.593   3.945   2.744
 1454SOL    HW1  575   1.509   3.944   2.798
 1454SOL    HW2  576   1.595   4.028   2.688
 1574SOL     OW  577   2.548   1.161   1.803
 1574SOL    HW1  578   2.608   1.240   1.817
 1574SOL    HW2  579   2.462   1.192   1.762
 1576SOL     OW  580   3.322   1.505   1.339
 1576SOL    HW1  581   3.346   1.599   1.365
 1576SOL    HW2  582   3.306   1.451   1.421
 1580SOL     OW  583   2.989   1.341   1.690
 1580SOL    HW1  584   3.036   1.341   1.778
 1580SOL    HW2  585   2.941   1.254   1.679
 1583SOL     OW  586   2.482   1.786   1.439
 1583SOL    HW1  587   2.390   1.769   1.474
 1583SOL    HW2  588   2.510   1.878   1.465
 1597SOL     OW  589   3.049   1.792   1.616
 1597SOL    HW1  590   3.073   1.852   1.540
 1597SOL    HW2  591   3.056   1.697   1.586
 1610SOL     OW  592   1.992   1.821   1.571
 1610SOL    HW1  593   1.982   1.806   1.670
 1610SOL    HW2  594   1.906   1.857   1.535
 1618SOL     OW  595   3.089   1.550   1.506
 1618SOL    HW1  596   3.095   1.473   1.570
 1618SOL    HW2  597   3.037   1.524   1.426
 1621SOL     OW  598   2.323   1.266   1.727
 1621SOL    HW1  599   2.273   1.267   1.641
 1621SOL    HW2  600   2.260   1.248   1.803
 1627SOL     OW  601   2.111   1.785   1.241
 1627SOL    HW1  602   2.168   1.720   1.291
 1627SOL    HW2  603   2.095   1.752   1.148
 1633SOL     OW  604   2.750   1.514   1.195
 1633SOL    HW1  605   2.727   1.489   1.101
 1633SOL    HW2  606   2.811   1.445   1.234
 1658SOL     OW  607   2.926   1.347   1.340
 1658SOL    HW1  608   2.846   1.324   1.395
 1658SOL    HW2  609   3.009   1.321   1.389
 1659SOL     OW  610   3.454   1.629   1.625
 1659SOL    HW1  611   3.481   1.663   1.535
 1659SOL    HW2  612   3.533   1.591   1.671
 1663SOL     OW  613   2.842   1.116   1.719
 1663SOL    HW1  614   2.743   1.122   1.729
 1663SOL    HW2  615   2.865   1.036   1.663
 1667SOL     OW  616   1.926   1.564   1.331
 1667SOL    HW1  617   1.880   1.646   1.297
 1667SOL    HW2  618   2.024   1.583   1.340
 1673SOL     OW  619   2.216   1.510   1.329
 1673SOL    HW1  620   2.195   1.466   1.242
 1673SOL    HW2  621   2.313   1.536   1.332
 1688SOL     OW  622   2.842   1.573   1.700
 1688SOL    HW1  623   2.822   1.617   1.612
 1688SOL    HW2  624   2.881   1.482   1.684
 1706SOL     OW  625   2.114   1.564   1.744
 1706SOL    HW1  626   2.084   1.621   1.820
 1706SOL    HW2  627   2.107   1.467   1.770
 1708SOL     OW  628   2.792   1.678   1.465
 1708SOL    HW1  629   2.768   1.660   1.370
 1708SOL    HW2  630   2.822   1.772   1.475
 1714SOL     OW  631   3.114   1.731   1.128
 1714SOL    HW1  632   3.198   1.736   1.074
 1714SOL    HW2  633   3.091   1.635   1.146
 1716SOL     OW  634   2.550   1.662   1.716
 1716SOL    HW1  635   2.494   1.743   1.725
 1716SOL    HW2  636   2.602   1.666   1.630
 1720SOL     OW  637   1.992   1.794   1.851
 1720SOL    HW1  638   1.951   1.720   1.904
 1720SOL    HW2  639   2.056   1.845   1.909
 1722SOL     OW  640   2.692   1.273   1.422
 1722SOL    HW1  641   2.687   1.306   1.517
 1722SOL    HW2  642   2.606   1.292   1.376
 1724SOL     OW  643   3.512   1.720   1.394
 1724SOL    HW1  644   3.565   1.730   1.310
 1724SOL    HW2  645   3.485   1.810   1.428
 1731SOL     OW  646   2.234   1.288   1.490
 1731SOL    HW1  647   2.221   1.381   1.456
 1731SOL    HW2  648   2.150   1.236   1.477
 1746SOL     OW  649   3.312   1.220   1.633
 1746SOL    HW1  650   3.303   1.210   1.732
 1746SOL    HW2  651   3.408   1.213   1.607
 1747SOL     OW  652   2.252   1.741   1.560
 1747SOL    HW1  653   2.161   1.782   1.558
 1747SOL    HW2  654   2.245   1.647   1.592
 1754SOL     OW  655   2.523   1.790   0.953
 1754SOL    HW1  656   2.477   1.878   0.940
 1754SOL    HW2  657   2.622   1.802   0.946
 1758SOL     OW  658   2.083   1.314   1.844
 1758SOL    HW1  659   2.018   1.241   1.823
 1758SOL    HW2  660   2.087   1.328   1.942
 1760SOL     OW  661   2.534   1.391   1.624
 1760SOL    HW1  662   2.456   1.341   1.662
 1760SOL    HW2  663   2.531   1.486   1.655
 1769SOL     OW  664   2.480   1.567   1.284
 1769SOL    HW1  665   2.475   1.649   1.341
 1769SOL    HW2  666   2.569   1.564   1.239
 1778SOL     OW  667   2.431   1.275   3.027
 1778SOL    HW1  668   2.338   1.268   2.990
 1778SOL    HW2  669   2.442   1.364   3.071
 1779SOL     OW  670   3.417   1.511   2.565
 1779SOL    HW1  671   3.360   1.495   2.646
 1779SOL    HW2  672   3.358   1.521   2.485
 1782SOL     OW  673   2.630   1.144   2.885
 1782SOL    HW1  674   2.552   1.161   2.945
 1782SOL    HW2  675   2.664   1.231   2.849
 1784SOL     OW  676   2.547   1.012   2.527
 1784SOL    HW1  677   2.616   0.996   2.597
 1784SOL    HW2  678   2.474   1.069   2.565
 1785SOL     OW  679   2.548   1.161   3.665
 1785SOL    HW1  680   2.608   1.240   3.679
 1785SOL    HW2  681   2.462   1.192   3.624
 1786SOL     OW  682   2.197   1.435   2.923
 1786SOL    HW1  683   2.119   1.404   2.870
 1786SOL    HW2  684   2.255   1.493   2.866
 1787SOL     OW  685   3.322   1.505   3.201
 1787SOL    HW1  686   3.346   1.599   3.227
 1787SOL    HW2  687   3.306   1.451   3.283
 1790SOL     OW  688   2.093   1.713   2.345
 1790SOL    HW1  689   2.127   1.790   2.399
 1790SOL    HW2  690   2.137   1.713   2.255
 1791SOL     OW  691   2.989   1.341   3.552
 1791SOL    HW1  692   3.036   1.341   3.640
 1791SOL    HW2  693   2.941   1.254   3.541
 1792SOL     OW  694   2.092   1.434   2.400
 1792SOL    HW1  695   2.066   1.530   2.400
 1792SOL    HW2  696   2.021   1.380   2.445
 1793SOL     OW  697   2.102   1.091   2.748
 1793SOL    HW1  698   2.116   1.007   2.800
 1793SOL    HW2  699   2.047   1.155   2.803
 1794SOL     OW  700   2.482   1.786   3.301
 1794SOL    HW1  701   2.390   1.769   3.336
 1794SOL    HW2  702   2.510   1.878   3.327
 1795SOL     OW  703   2.468   0.964   1.985
 1795SOL    HW1  704   2.475   1.048   1.931
 1795SOL    HW2  705   2.514   0.977   2.073
 1798SOL     OW  706   3.704   1.767   2.221
 1798SOL    HW1  707   3.758   1.738   2.301
 1798SOL    HW2  708   3.734   1.857   2.192
 1799SOL     OW  709   1.889   1.596   1.979
 1799SOL    HW1  710   1.870   1.500   2.000
 1799SOL    HW2  711   1.856   1.654   2.054
 1801SOL     OW  712   3.503   1.108   2.294
 1801SOL    HW1  713   3.589   1.110   2.242
 1801SOL    HW2  714   3.517   1.155   2.382
 1803SOL     OW  715   2.475   1.365   2.588
 1803SOL    HW1  716   2.426   1.278   2.597
 1803SOL    HW2  717   2.452   1.408   2.501
 1804SOL     OW  718   3.155   1.228   3.285
 1804SOL    HW1  719   3.192   1.155   3.227
 1804SOL    HW2  720   3.207   1.233   3.370
 1806SOL     OW  721   2.059   0.976   3.126
 1806SOL    HW1  722   2.148   0.931   3.112
 1806SOL    HW2  723   1.986   0.911   3.107
 1808SOL     OW  724   3.049   1.792   3.478
 1808SOL    HW1  725   3.073   1.852   3.402
 1808SOL    HW2  726   3.056   1.697   3.448
 1810SOL     OW  727   3.328   1.417   2.815
 1810SOL    HW1  728   3.269   1.423   2.895
 1810SOL    HW2  729   3.313   1.329   2.769
 1811SOL     OW  730   3.529   1.714   2.434
 1811SOL    HW1  731   3.488   1.691   2.346
 1811SOL    HW2  732   3.511   1.640   2.499
 1814SOL     OW  733   3.438   1.662   2.169
 1814SOL    HW1  734   3.527   1.708   2.172
 1814SOL    HW2  735   3.417   1.638   2.074
 1821SOL     OW  736   1.992   1.821   3.433
 1821SOL    HW1  737   1.982   1.806   3.532
 1821SOL    HW2  738   1.906   1.857   3.397
 1824SOL     OW  739   3.224   1.144   2.407
 1824SOL    HW1  740   3.307   1.115   2.359
 1824SOL    HW2  741   3.175   1.211   2.351
 1826SOL     OW  742   2.870   1.456   2.339
 1826SOL    HW1  743   2.824   1.528   2.287
 1826SOL    HW2  744   2.866   1.476   2.437
 1827SOL     OW  745   2.213   1.801   2.715
 1827SOL    HW1  746   2.263   1.715   2.721
 1827SOL    HW2  747   2.278   1.878   2.712
 1829SOL     OW  748   3.089   1.550   3.368
 1829SOL    HW1  749   3.095   1.473   3.432
 1829SOL    HW2  750   3.037   1.524   3.288
 1830SOL     OW  751   2.183   0.943   2.104
 1830SOL    HW1  752   2.265   0.982   2.062
 1830SOL    HW2  753   2.156   0.861   2.055
 1832SOL     OW  754   2.323   1.266   3.589
 1832SOL    HW1  755   2.273   1.267   3.503
 1832SOL    HW2  756   2.260   1.248   3.665
 1833SOL     OW  757   2.973   1.776   2.099
 1833SOL    HW1  758   2.913   1.714   2.149
 1833SOL    HW2  759   3.004   1.732   2.014
 1835SOL     OW  760   3.494   1.377   1.943
 1835SOL    HW1  761   3.462   1.471   1.933
 1835SOL    HW2  762   3.418   1.314   1.931
 1836SOL     OW  763   2.326   1.743   2.185
 1836SOL    HW1  764   2.359   1.782   2.271
 1836SOL    HW2  765   2.402   1.736   2.120
 1838SOL     OW  766   2.111   1.785   3.103
 1838SOL    HW1  767   2.168   1.720   3.153
 1838SOL    HW2  768   2.095   1.752   3.010
 1839SOL     OW  769   2.802   1.698   2.766
 1839SOL    HW1  770   2.882   1.641   2.787
 1839SOL    HW2  771   2.753   1.658   2.689
 1844SOL     OW  772   2.750   1.514   3.057
 1844SOL    HW1  773   2.727   1.489   2.963
 1844SOL    HW2  774   2.811   1.445   3.096
 1846SOL     OW  775   2.665   1.402   2.786
 1846SOL    HW1  776   2.755   1.416   2.744
 1846SOL    HW2  777   2.594   1.404   2.715
 1849SOL     OW  778   3.296   1.188   1.903
 1849SOL    HW1  779   3.328   1.112   1.960
 1849SOL    HW2  780   3.204   1.215   1.933
 1853SOL     OW  781   3.089   1.570   2.655
 1853SOL    HW1  782   3.110   1.644   2.590
 1853SOL    HW2  783   3.157   1.570   2.728
 1854SOL     OW  784   2.321   1.152   2.603
 1854SOL    HW1  785   2.250   1.125   2.668
 1854SOL    HW2  786   2.295   1.124   2.510
 1855SOL     OW  787   3.133   1.797   2.453
 1855SOL    HW1  788   3.177   1.861   2.389
 1855SOL    HW2  789   3.083   1.849   2.523
 1861SOL     OW  790   3.291   1.173   2.729
 1861SOL    HW1  791   3.236   1.089   2.722
 1861SOL    HW2  792   3.317   1.202   2.637
 1864SOL     OW  793   2.350   1.385   2.036
 1864SOL    HW1  794   2.263   1.370   2.083
 1864SOL    HW2  795   2.333   1.411   1.941
 1865SOL     OW  796   3.526   1.280   2.519
 1865SOL    HW1  797   3.625   1.288   2.533
 1865SOL    HW2  798   3.481   1.364   2.550
 1869SOL     OW  799   2.926   1.347   3.202
 1869SOL    HW1  800   2.846   1.324   3.257
 1869SOL    HW2  801   3.009   1.321   3.251
 1870SOL     OW  802   3.454   1.629   3.487
 1870SOL    HW1  803   3.481   1.663   3.397
 1870SOL    HW2  804   3.533   1.591   3.533
 1871SOL     OW  805   2.973   1.195   2.962
 1871SOL    HW1  806   2.933   1.239   3.043
 1871SOL    HW2  807   2.932   1.232   2.879
 1872SOL     OW  808   3.500   1.099   2.941
 1872SOL    HW1  809   3.505   1.180   3.000
 1872SOL    HW2  810   3.414   1.101   2.890
 1874SOL     OW  811   2.842   1.116   3.581
 1874SOL    HW1  812   2.743   1.122   3.591
 1874SOL    HW2  813   2.865   1.036   3.525
 1875SOL     OW  814   2.567   1.050   2.230
 1875SOL    HW1  815   2.553   1.057   2.329
 1875SOL    HW2  816   2.651   0.999   2.212
 1878SOL     OW  817   1.926   1.564   3.193
 1878SOL    HW1  818   1.880   1.646   3.159
 1878SOL    HW2  819   2.024   1.583   3.202
 1879SOL     OW  820   2.229   1.100   2.363
 1879SOL    HW1  821   2.222   1.183   2.307
 1879SOL    HW2  822   2.233   1.020   2.303
 1881SOL     OW  823   3.114   1.348   2.250
 1881SOL    HW1  824   3.164   1.425   2.290
 1881SOL    HW2  825   3.019   1.350   2.282
 1882SOL     OW  826   3.134   1.445   3.004
 1882SOL    HW1  827   3.181   1.458   3.091
 1882SOL    HW2  828   3.068   1.371   3.013
 1884SOL     OW  829   2.216   1.510   3.191
 1884SOL    HW1  830   2.195   1.466   3.104
 1884SOL    HW2  831   2.313   1.536   3.194
 1889SOL     OW  832   2.435   0.870   2.891
 1889SOL    HW1  833   2.479   0.959   2.882
 1889SOL    HW2  834   2.372   0.870   2.968
 1893SOL     OW  835   1.899   1.310   3.144
 1893SOL    HW1  836   1.952   1.261   3.212
 1893SOL    HW2  837   1.921   1.408   3.149
 1899SOL     OW  838   2.842   1.573   3.562
 1899SOL    HW1  839   2.822   1.617   3.474
 1899SOL    HW2  840   2.881   1.482   3.546
 1904SOL     OW  841   2.930   1.333   2.711
 1904SOL    HW1  842   2.937   1.249   2.656
 1904SOL    HW2  843   2.992   1.402   2.675
 1905SOL     OW  844   2.181   0.810   2.811
 1905SOL    HW1  845   2.274   0.846   2.816
 1905SOL    HW2  846   2.175   0.725   2.863
 1909SOL     OW  847   1.870   1.326   2.062
 1909SOL    HW1  848   1.777   1.347   2.031
 1909SOL    HW2  849   1.880   1.227   2.075
 1910SOL     OW  850   1.950   1.801   2.789
 1910SOL    HW1  851   1.908   1.715   2.762
 1910SOL    HW2  852   2.044   1.804   2.755
 1911SOL     OW  853   2.366   1.568   2.772
 1911SOL    HW1  854   2.432   1.642   2.781
 1911SOL    HW2  855   2.410   1.489   2.730
 1918SOL     OW  856   2.114   1.564   3.606
 1918SOL    HW1  857   2.084   1.621   3.682
 1918SOL    HW2  858   2.107   1.467   3.632
 1920SOL     OW  859   2.792   1.678   3.327
 1920SOL    HW1  860   2.768   1.660   3.232
 1920SOL    HW2  861   2.822   1.772   3.337
 1922SOL     OW  862   2.021   1.137   3.328
 1922SOL    HW1  863   2.043   1.076   3.404
 1922SOL    HW2  864   2.031   1.088   3.242
 1923SOL     OW  865   3.209   1.059   3.096
 1923SOL    HW1  866   3.233   0.996   3.022
 1923SOL    HW2  867   3.119   1.099   3.078
 1925SOL     OW  868   3.621   1.747   3.016
 1925SOL    HW1  869   3.682   1.777   2.943
 1925SOL    HW2  870   3.583   1.658   2.994
 1926SOL     OW  871   3.114   1.731   2.990
 1926SOL    HW1  872   3.198   1.736   2.936
 1926SOL    HW2  873   3.091   1.635   3.008
 1927SOL     OW  874   1.945   1.258   2.884
 1927SOL    HW1  875   1.940   1.257   2.984
 1927SOL    HW2  876   1.862   1.217   2.846
 1928SOL     OW  877   2.550   1.662   3.578
 1928SOL    HW1  878   2.494   1.743   3.587
 1928SOL    HW2  879   2.602   1.666   3.492
 1930SOL     OW  880   3.250   1.573   2.339
 1930SOL    HW1  881   3.317   1.585   2.265
 1930SOL    HW2  882   3.210   1.662   2.362
 1931SOL     OW  883   1.992   1.794   3.713
 1931SOL    HW1  884   1.951   1.720   3.766
 1931SOL    HW2  885   2.056   1.845   3.771
 1932SOL     OW  886   3.142   0.927   2.534
 1932SOL    HW1  887   3.202   0.846   2.536
 1932SOL    HW2  888   3.182   0.996   2.474
 1933SOL     OW  889   2.692   1.273   3.284
 1933SOL    HW1  890   2.687   1.306   3.379
 1933SOL    HW2  891   2.606   1.292   3.238
 1934SOL     OW  892   2.534   1.616   2.016
 1934SOL    HW1  893   2.543   1.626   1.917
 1934SOL    HW2  894   2.494   1.527   2.037
 1935SOL     OW  895   3.512   1.720   3.256
 1935SOL    HW1  896   3.565   1.730   3.172
 1935SOL    HW2  897   3.485   1.810   3.290
 1938SOL     OW  898   3.056   1.612   1.893
 1938SOL    HW1  899   3.062   1.519   1.930
 1938SOL    HW2  900   2.997   1.612   1.813
 1939SOL     OW  901   2.684   1.002   3.234
 1939SOL    HW1  902   2.724   1.001   3.142
 1939SOL    HW2  903   2.694   1.094   3.274
 1940SOL     OW  904   2.778   0.910   2.153
 1940SOL    HW1  905   2.841   0.948   2.085
 1940SOL    HW2  906   2.818   0.827   2.192
 1941SOL     OW  907   3.366   1.607   1.906
 1941SOL    HW1  908   3.274   1.644   1.913
 1941SOL    HW2  909   3.404   1.627   1.816
 1942SOL     OW  910   2.234   1.288   3.352
 1942SOL    HW1  911   2.221   1.381   3.318
 1942SOL    HW2  912   2.150   1.236   3.339
 1943SOL     OW  913   3.476   1.292   3.151
 1943SOL    HW1  914   3.536   1.295   3.231
 1943SOL    HW2  915   3.401   1.356   3.164
 1944SOL     OW  916   2.901   1.098   2.558
 1944SOL    HW1  917   2.831   1.051   2.612
 1944SOL    HW2  918   2.960   1.030   2.515
 1946SOL     OW  919   2.452   1.487   2.353
 1946SOL    HW1  920   2.494   1.429   2.283
 1946SOL    HW2  921   2.408   1.566   2.309
 1948SOL     OW  922   2.117   1.348   2.152
 1948SOL    HW1  923   2.021   1.349   2.125
 1948SOL    HW2  924   2.129   1.401   2.236
 1954SOL     OW  925   3.045   1.335   1.981
 1954SOL    HW1  926   2.946   1.324   1.983
 1954SOL    HW2  927   3.079   1.350   2.074
 1956SOL     OW  928   3.355   1.767   2.821
 1956SOL    HW1  929   3.388   1.831   2.752
 1956SOL    HW2  930   3.421   1.761   2.896
 1959SOL     OW  931   2.252   1.741   3.422
 1959SOL    HW1  932   2.161   1.782   3.420
 1959SOL    HW2  933   2.245   1.647   3.454
 1962SOL     OW  934   2.456   0.745   2.514
 1962SOL    HW1  935   2.506   0.830   2.495
 1962SOL    HW2  936   2.368   0.747   2.466
 1965SOL     OW  937   2.721   1.374   1.878
 1965SOL    HW1  938   2.675   1.389   1.966
 1965SOL    HW2  939   2.765   1.459   1.848
 1966SOL     OW  940   2.523   1.790   2.815
 1966SOL    HW1  941   2.477   1.878   2.802
 1966SOL    HW2  942   2.622   1.802   2.808
 1967SOL     OW  943   2.721   0.956   2.723
 1967SOL    HW1  944   2.775   0.887   2.771
 1967SOL    HW2  945   2.689   1.025   2.789
 1968SOL     OW  946   2.945   0.984   1.949
 1968SOL    HW1  947   2.922   1.037   1.867
 1968SOL    HW2  948   3.026   0.928   1.930
 1969SOL     OW  949   3.723   1.569   2.713
 1969SOL    HW1  950   3.652   1.557   2.643
 1969SOL    HW2  951   3.724   1.490   2.773
 1970SOL     OW  952   2.083   1.314   3.706
 1970SOL    HW1  953   2.018   1.241   3.685
 1970SOL    HW2  954   2.087   1.328   3.804
 1971SOL     OW  955   1.941   1.240   2.515
 1971SOL    HW1  956   1.940   1.193   2.603
 1971SOL    HW2  957   2.023   1.212   2.464
 1972SOL     OW  958   2.534   1.391   3.486
 1972SOL    HW1  959   2.456   1.341   3.524
 1972SOL    HW2  960   2.531   1.486   3.517
 1975SOL     OW  961   3.567   1.487   2.966
 1975SOL    HW1  962   3.474   1.462   2.939
 1975SOL    HW2  963   3.593   1.437   3.048
 1977SOL     OW  964   2.674   1.586   2.549
 1977SOL    HW1  965   2.706   1.596   2.455
 1977SOL    HW2  966   2.595   1.524   2.551
 1980SOL     OW  967   2.632   1.330   2.163
 1980SOL    HW1  968   2.586   1.243   2.180
 1980SOL    HW2  969   2.723   1.327   2.204
 1981SOL     OW  970   2.480   1.567   3.146
 1981SOL    HW1  971   2.475   1.649   3.203
 1981SOL    HW2  972   2.569   1.564   3.101
 1985SOL     OW  973   1.901   1.077   2.162
 1985SOL    HW1  974   2.000   1.066   2.153
 1985SOL    HW2  975   1.861   0.991   2.194
 1986SOL     OW  976   2.737   1.646   2.199
 1986SOL    HW1  977   2.660   1.611   2.145
 1986SOL    HW2  978   2.705   1.717   2.261
 2004SOL     OW  979   1.889   1.596   3.841
 2004SOL    HW1  980   1.870   1.500   3.862
 2004SOL    HW2  981   1.856   1.654   3.916
 2028SOL     OW  982   2.973   1.776   3.961
 2028SOL    HW1  983   2.913   1.714   4.011
 2028SOL    HW2  984   3.004   1.732   3.876
 2030SOL     OW  985   2.326   1.743   4.047
 2030SOL    HW1  986   2.359   1.782   4.133
 2030SOL    HW2  987   2.402   1.736   3.982
 2052SOL     OW  988   2.350   1.385   3.898
 2052SOL    HW1  989   2.263   1.370   3.945
 2052SOL    HW2  990   2.333   1.411   3.803
 2100SOL     OW  991   2.534   1.616   3.878
 2100SOL    HW1  992   2.543   1.626   3.779
 2100SOL    HW2  993   2.494   1.527   3.899
 2104SOL     OW  994   3.056   1.612   3.755
 2104SOL    HW1  995   3.062   1.519   3.792
 2104SOL    HW2  996   2.997   1.612   3.675
 2107SOL     OW  997   3.366   1.607   3.768
 2107SOL    HW1  998   3.274   1.644   3.775
 2107SOL    HW2  999   3.404   1.627   3.678
 2121SOL     OW 1000   2.721   1.374   3.740
 2121SOL    HW1 1001   2.675   1.389   3.828
 2121SOL    HW2 1002   2.765   1.459   3.710
 2138SOL     OW 1003   2.737   1.646   4.061
 2138SOL    HW1 1004   2.660   1.611   4.007
 2138SOL    HW2 1005   2.705   1.717   4.123
 2140SOL     OW 1006   2.087   2.137   0.996
 2140SOL    HW1 1007   2.122   2.120   1.088
 2140SOL    HW2 1008   1.999   2.092   0.984
 2142SOL     OW 1009   2.431   3.137   1.165
 2142SOL    HW1 1010   2.338   3.130   1.128
 2142SOL    HW2 1011   2.442   3.226   1.209
 2146SOL     OW 1012   2.630   3.006   1.023
 2146SOL    HW1 1013   2.552   3.023   1.083
 2146SOL    HW2 1014   2.664   3.093   0.987
 2147SOL     OW 1015   2.712   2.660   1.823
 2147SOL    HW1 1016   2.708   2.736   1.888
 2147SOL    HW2 1017   2.734   2.696   1.732
 2149SOL     OW 1018   2.548   3.023   1.803
 2149SOL    HW1 1019   2.608   3.102   1.817
 2149SOL    HW2 1020   2.462   3.054   1.762
 2150SOL     OW 1021   2.197   3.297   1.061
 2150SOL    HW1 1022   2.119   3.266   1.008
 2150SOL    HW2 1023   2.255   3.355   1.004
 2151SOL     OW 1024   3.322   3.367   1.339
 2151SOL    HW1 1025   3.346   3.461   1.365
 2151SOL    HW2 1026   3.306   3.313   1.421
 2152SOL     OW 1027   2.300   2.254   1.499
 2152SOL    HW1 1028   2.382   2.198   1.508
 2152SOL    HW2 1029   2.219   2.196   1.503
 2155SOL     OW 1030   2.989   3.203   1.690
 2155SOL    HW1 1031   3.036   3.203   1.778
 2155SOL    HW2 1032   2.941   3.116   1.679
 2157SOL     OW 1033   2.102   2.953   0.886
 2157SOL    HW1 1034   2.116   2.869   0.938
 2157SOL    HW2 1035   2.047   3.017   0.941
 2158SOL     OW 1036   2.482   3.648   1.439
 2158SOL    HW1 1037   2.390   3.631   1.474
 2158SOL    HW2 1038   2.510   3.740   1.465
 2160SOL     OW 1039   3.456   1.976   1.480
 2160SOL    HW1 1040   3.438   2.043   1.408
 2160SOL    HW2 1041   3.453   2.022   1.569
 2166SOL     OW 1042   1.975   2.599   1.597
 2166SOL    HW1 1043   2.063   2.586   1.642
 2166SOL    HW2 1044   1.962   2.696   1.575
 2168SOL     OW 1045   3.155   3.090   1.423
 2168SOL    HW1 1046   3.192   3.017   1.365
 2168SOL    HW2 1047   3.207   3.095   1.508
 2170SOL     OW 1048   2.059   2.838   1.264
 2170SOL    HW1 1049   2.148   2.793   1.250
 2170SOL    HW2 1050   1.986   2.773   1.245
 2172SOL     OW 1051   3.049   3.654   1.616
 2172SOL    HW1 1052   3.073   3.714   1.540
 2172SOL    HW2 1053   3.056   3.559   1.586
 2173SOL     OW 1054   2.179   2.113   1.801
 2173SOL    HW1 1055   2.250   2.184   1.807
 2173SOL    HW2 1056   2.091   2.152   1.829
 2177SOL     OW 1057   3.143   2.207   0.944
 2177SOL    HW1 1058   3.057   2.157   0.931
 2177SOL    HW2 1059   3.205   2.153   1.000
 2179SOL     OW 1060   2.669   2.467   1.465
 2179SOL    HW1 1061   2.622   2.464   1.554
 2179SOL    HW2 1062   2.618   2.412   1.399
 2180SOL     OW 1063   3.256   2.331   1.674
 2180SOL    HW1 1064   3.236   2.374   1.762
 2180SOL    HW2 1065   3.334   2.269   1.683
 2181SOL     OW 1066   2.835   2.752   1.572
 2181SOL    HW1 1067   2.881   2.668   1.543
 2181SOL    HW2 1068   2.779   2.786   1.497
 2182SOL     OW 1069   2.853   2.272   1.242
 2182SOL    HW1 1070   2.776   2.306   1.296
 2182SOL    HW2 1071   2.819   2.221   1.163
 2185SOL     OW 1072   1.992   3.683   1.571
 2185SOL    HW1 1073   1.982   3.668   1.670
 2185SOL    HW2 1074   1.906   3.719   1.535
 2187SOL     OW 1075   3.581   2.447   1.831
 2187SOL    HW1 1076   3.555   2.536   1.795
 2187SOL    HW2 1077   3.579   2.379   1.758
 2189SOL     OW 1078   2.412   2.058   0.885
 2189SOL    HW1 1079   2.407   2.053   0.985
 2189SOL    HW2 1080   2.414   2.154   0.856
 2193SOL     OW 1081   3.089   3.412   1.506
 2193SOL    HW1 1082   3.095   3.335   1.570
 2193SOL    HW2 1083   3.037   3.386   1.426
 2196SOL     OW 1084   2.323   3.128   1.727
 2196SOL    HW1 1085   2.273   3.129   1.641
 2196SOL    HW2 1086   2.260   3.110   1.803
 2198SOL     OW 1087   2.064   2.147   1.498
 2198SOL    HW1 1088   1.984   2.207   1.485
 2198SOL    HW2 1089   2.054   2.098   1.584
 2202SOL     OW 1090   2.111   3.647   1.241
 2202SOL    HW1 1091   2.168   3.582   1.291
 2202SOL    HW2 1092   2.095   3.614   1.148
 2205SOL     OW 1093   3.409   2.084   1.729
 2205SOL    HW1 1094   3.404   2.121   1.821
 2205SOL    HW2 1095   3.337   2.015   1.717
 2207SOL     OW 1096   2.643   2.126   1.749
 2207SOL    HW1 1097   2.710   2.065   1.792
 2207SOL    HW2 1098   2.570   2.145   1.814
 2208SOL     OW 1099   2.750   3.376   1.195
 2208SOL    HW1 1100   2.727   3.351   1.101
 2208SOL    HW2 1101   2.811   3.307   1.234
 2209SOL     OW 1102   3.213   2.452   1.433
 2209SOL    HW1 1103   3.241   2.409   1.518
 2209SOL    HW2 1104   3.238   2.548   1.434
 2210SOL     OW 1105   2.665   3.264   0.924
 2210SOL    HW1 1106   2.755   3.278   0.882
 2210SOL    HW2 1107   2.594   3.266   0.853
 2211SOL     OW 1108   2.784   2.365   0.899
 2211SOL    HW1 1109   2.759   2.356   0.803
 2211SOL    HW2 1110   2.832   2.283   0.930
 2216SOL     OW 1111   2.938   2.545   1.464
 2216SOL    HW1 1112   2.858   2.484   1.467
 2216SOL    HW2 1113   3.019   2.492   1.440
 2221SOL     OW 1114   1.940   2.418   1.386
 2221SOL    HW1 1115   2.032   2.417   1.345
 2221SOL    HW2 1116   1.934   2.492   1.453
 2222SOL     OW 1117   2.423   2.084   1.147
 2222SOL    HW1 1118   2.461   2.000   1.184
 2222SOL    HW2 1119   2.335   2.103   1.191
 2226SOL     OW 1120   3.328   2.452   0.992
 2226SOL    HW1 1121   3.298   2.357   0.999
 2226SOL    HW2 1122   3.401   2.468   1.058
 2232SOL     OW 1123   3.616   3.085   1.588
 2232SOL    HW1 1124   3.707   3.046   1.575
 2232SOL    HW2 1125   3.624   3.181   1.612
 2233SOL     OW 1126   2.926   3.209   1.340
 2233SOL    HW1 1127   2.846   3.186   1.395
 2233SOL    HW2 1128   3.009   3.183   1.389
 2234SOL     OW 1129   3.454   3.491   1.625
 2234SOL    HW1 1130   3.481   3.525   1.535
 2234SOL    HW2 1131   3.533   3.453   1.671
 2235SOL     OW 1132   2.973   3.057   1.100
 2235SOL    HW1 1133   2.933   3.101   1.181
 2235SOL    HW2 1134   2.932   3.094   1.017
 2236SOL     OW 1135   3.500   2.961   1.079
 2236SOL    HW1 1136   3.505   3.042   1.138
 2236SOL    HW2 1137   3.414   2.963   1.028
 2237SOL     OW 1138   2.777   1.951   1.402
 2237SOL    HW1 1139   2.802   1.931   1.307
 2237SOL    HW2 1140   2.849   2.007   1.444
 2238SOL     OW 1141   2.842   2.978   1.719
 2238SOL    HW1 1142   2.743   2.984   1.729
 2238SOL    HW2 1143   2.865   2.898   1.663
 2240SOL     OW 1144   2.272   2.675   1.251
 2240SOL    HW1 1145   2.358   2.687   1.301
 2240SOL    HW2 1146   2.230   2.588   1.278
 2241SOL     OW 1147   3.136   2.248   1.262
 2241SOL    HW1 1148   3.157   2.322   1.326
 2241SOL    HW2 1149   3.047   2.265   1.219
 2242SOL     OW 1150   1.926   3.426   1.331
 2242SOL    HW1 1151   1.880   3.508   1.297
 2242SOL    HW2 1152   2.024   3.445   1.340
 2244SOL     OW 1153   2.428   2.399   0.865
 2244SOL    HW1 1154   2.440   2.465   0.791
 2244SOL    HW2 1155   2.474   2.433   0.948
 2246SOL     OW 1156   3.134   3.307   1.142
 2246SOL    HW1 1157   3.181   3.320   1.229
 2246SOL    HW2 1158   3.068   3.233   1.151
 2248SOL     OW 1159   2.216   3.372   1.329
 2248SOL    HW1 1160   2.195   3.328   1.242
 2248SOL    HW2 1161   2.313   3.398   1.332
 2249SOL     OW 1162   2.264   2.613   1.598
 2249SOL    HW1 1163   2.332   2.668   1.551
 2249SOL    HW2 1164   2.304   2.525   1.625
 2250SOL     OW 1165   3.449   2.641   1.670
 2250SOL    HW1 1166   3.357   2.679   1.665
 2250SOL    HW2 1167   3.509   2.688   1.605
 2251SOL     OW 1168   2.875   1.967   1.770
 2251SOL    HW1 1169   2.881   2.052   1.718
 2251SOL    HW2 1170   2.907   1.891   1.713
 2252SOL     OW 1171   2.366   1.912   1.740
 2252SOL    HW1 1172   2.324   1.855   1.670
 2252SOL    HW2 1173   2.300   1.981   1.772
 2253SOL     OW 1174   2.435   2.732   1.029
 2253SOL    HW1 1175   2.479   2.821   1.020
 2253SOL    HW2 1176   2.372   2.732   1.106
 2254SOL     OW 1177   3.222   2.724   1.045
 2254SOL    HW1 1178   3.147   2.724   0.979
 2254SOL    HW2 1179   3.259   2.632   1.054
 2256SOL     OW 1180   2.169   2.075   1.231
 2256SOL    HW1 1181   2.146   2.112   1.321
 2256SOL    HW2 1182   2.139   1.980   1.225
 2257SOL     OW 1183   1.899   3.172   1.282
 2257SOL    HW1 1184   1.952   3.123   1.350
 2257SOL    HW2 1185   1.921   3.270   1.287
 2258SOL     OW 1186   2.594   2.496   1.064
 2258SOL    HW1 1187   2.653   2.470   0.988
 2258SOL    HW2 1188   2.566   2.592   1.053
 2259SOL     OW 1189   3.590   2.797   1.854
 2259SOL    HW1 1190   3.544   2.790   1.765
 2259SOL    HW2 1191   3.528   2.841   1.920
 2262SOL     OW 1192   2.885   2.628   0.966
 2262SOL    HW1 1193   2.900   2.649   1.062
 2262SOL    HW2 1194   2.855   2.533   0.957
 2263SOL     OW 1195   2.842   3.435   1.700
 2263SOL    HW1 1196   2.822   3.479   1.612
 2263SOL    HW2 1197   2.881   3.344   1.684
 2264SOL     OW 1198   3.721   3.380   1.605
 2264SOL    HW1 1199   3.735   3.407   1.510
 2264SOL    HW2 1200   3.804   3.402   1.658
 2265SOL     OW 1201   2.212   2.760   1.804
 2265SOL    HW1 1202   2.288   2.804   1.852
 2265SOL    HW2 1203   2.247   2.713   1.722
 2269SOL     OW 1204   2.181   2.672   0.949
 2269SOL    HW1 1205   2.274   2.708   0.954
 2269SOL    HW2 1206   2.175   2.587   1.001
 2270SOL     OW 1207   2.201   2.371   1.006
 2270SOL    HW1 1208   2.149   2.288   0.989
 2270SOL    HW2 1209   2.278   2.376   0.942
 2271SOL     OW 1210   3.000   2.242   1.678
 2271SOL    HW1 1211   2.955   2.305   1.742
 2271SOL    HW2 1212   3.093   2.273   1.661
 2272SOL     OW 1213   3.022   2.069   1.477
 2272SOL    HW1 1214   3.022   2.133   1.554
 2272SOL    HW2 1215   3.050   2.117   1.394
 2275SOL     OW 1216   2.864   2.658   1.238
 2275SOL    HW1 1217   2.905   2.626   1.324
 2275SOL    HW2 1218   2.768   2.631   1.235
 2276SOL     OW 1219   1.902   2.406   1.114
 2276SOL    HW1 1220   1.987   2.373   1.073
 2276SOL    HW2 1221   1.915   2.421   1.212
 2277SOL     OW 1222   2.051   2.382   1.722
 2277SOL    HW1 1223   2.110   2.342   1.652
 2277SOL    HW2 1224   1.993   2.453   1.681
 2278SOL     OW 1225   3.231   2.812   1.660
 2278SOL    HW1 1226   3.270   2.901   1.680
 2278SOL    HW2 1227   3.241   2.792   1.563
 2280SOL     OW 1228   3.519   2.466   1.206
 2280SOL    HW1 1229   3.481   2.397   1.268
 2280SOL    HW2 1230   3.601   2.430   1.162
 2281SOL     OW 1231   2.114   3.426   1.744
 2281SOL    HW1 1232   2.084   3.483   1.820
 2281SOL    HW2 1233   2.107   3.329   1.770
 2282SOL     OW 1234   2.533   2.326   1.269
 2282SOL    HW1 1235   2.499   2.237   1.239
 2282SOL    HW2 1236   2.559   2.380   1.189
 2283SOL     OW 1237   2.792   3.540   1.465
 2283SOL    HW1 1238   2.768   3.522   1.370
 2283SOL    HW2 1239   2.822   3.634   1.475
 2285SOL     OW 1240   2.021   2.999   1.466
 2285SOL    HW1 1241   2.043   2.938   1.542
 2285SOL    HW2 1242   2.031   2.950   1.380
 2286SOL     OW 1243   3.209   2.921   1.234
 2286SOL    HW1 1244   3.233   2.858   1.160
 2286SOL    HW2 1245   3.119   2.961   1.216
 2290SOL     OW 1246   1.945   3.120   1.022
 2290SOL    HW1 1247   1.940   3.119   1.122
 2290SOL    HW2 1248   1.862   3.079   0.984
 2291SOL     OW 1249   2.550   3.524   1.716
 2291SOL    HW1 1250   2.494   3.605   1.725
 2291SOL    HW2 1251   2.602   3.528   1.630
 2295SOL     OW 1252   1.992   3.656   1.851
 2295SOL    HW1 1253   1.951   3.582   1.904
 2295SOL    HW2 1254   2.056   3.707   1.909
 2297SOL     OW 1255   2.692   3.135   1.422
 2297SOL    HW1 1256   2.687   3.168   1.517
 2297SOL    HW2 1257   2.606   3.154   1.376
 2303SOL     OW 1258   2.684   2.864   1.372
 2303SOL    HW1 1259   2.724   2.863   1.280
 2303SOL    HW2 1260   2.694   2.956   1.412
 2306SOL     OW 1261   2.234   3.150   1.490
 2306SOL    HW1 1262   2.221   3.243   1.456
 2306SOL    HW2 1263   2.150   3.098   1.477
 2307SOL     OW 1264   3.476   3.154   1.289
 2307SOL    HW1 1265   3.536   3.157   1.369
 2307SOL    HW2 1266   3.401   3.218   1.302
 2309SOL     OW 1267   2.876   2.098   0.971
 2309SOL    HW1 1268   2.868   2.062   0.878
 2309SOL    HW2 1269   2.874   2.022   1.036
 2311SOL     OW 1270   3.571   2.247   1.381
 2311SOL    HW1 1271   3.644   2.316   1.385
 2311SOL    HW2 1272   3.599   2.172   1.322
 2313SOL     OW 1273   1.967   2.875   1.726
 2313SOL    HW1 1274   1.890   2.842   1.780
 2313SOL    HW2 1275   2.052   2.845   1.768
 2314SOL     OW 1276   2.534   2.065   1.489
 2314SOL    HW1 1277   2.624   2.049   1.449
 2314SOL    HW2 1278   2.542   2.070   1.588
 2315SOL     OW 1279   3.302   2.718   1.398
 2315SOL    HW1 1280   3.245   2.770   1.335
 2315SOL    HW2 1281   3.398   2.730   1.374
 2318SOL     OW 1282   2.475   2.704   1.431
 2318SOL    HW1 1283   2.531   2.785   1.414
 2318SOL    HW2 1284   2.534   2.624   1.434
 2320SOL     OW 1285   2.578   2.427   1.708
 2320SOL    HW1 1286   2.597   2.492   1.782
 2320SOL    HW2 1287   2.638   2.347   1.717
 2321SOL     OW 1288   3.312   3.082   1.633
 2321SOL    HW1 1289   3.303   3.072   1.732
 2321SOL    HW2 1290   3.408   3.075   1.607
 2322SOL     OW 1291   2.252   3.603   1.560
 2322SOL    HW1 1292   2.161   3.644   1.558
 2322SOL    HW2 1293   2.245   3.509   1.592
 2323SOL     OW 1294   3.536   2.745   1.254
 2323SOL    HW1 1295   3.509   2.656   1.217
 2323SOL    HW2 1296   3.537   2.813   1.181
 2326SOL     OW 1297   3.639   2.204   1.642
 2326SOL    HW1 1298   3.622   2.235   1.548
 2326SOL    HW2 1299   3.555   2.167   1.680
 2327SOL     OW 1300   3.592   2.796   1.517
 2327SOL    HW1 1301   3.630   2.887   1.532
 2327SOL    HW2 1302   3.584   2.779   1.418
 2330SOL     OW 1303   2.721   2.818   0.861
 2330SOL    HW1 1304   2.775   2.749   0.909
 2330SOL    HW2 1305   2.689   2.887   0.927
 2333SOL     OW 1306   2.083   3.176   1.844
 2333SOL    HW1 1307   2.018   3.103   1.823
 2333SOL    HW2 1308   2.087   3.190   1.942
 2335SOL     OW 1309   2.534   3.253   1.624
 2335SOL    HW1 1310   2.456   3.203   1.662
 2335SOL    HW2 1311   2.531   3.348   1.655
 2339SOL     OW 1312   2.179   2.409   1.280
 2339SOL    HW1 1313   2.217   2.350   1.352
 2339SOL    HW2 1314   2.219   2.383   1.192
 2341SOL     OW 1315   3.286   2.076   1.112
 2341SOL    HW1 1316   3.338   2.011   1.167
 2341SOL    HW2 1317   3.237   2.139   1.173
 2342SOL     OW 1318   2.863   1.896   1.154
 2342SOL    HW1 1319   2.800   1.824   1.123
 2342SOL    HW2 1320   2.956   1.860   1.154
 2344SOL     OW 1321   2.480   3.429   1.284
 2344SOL    HW1 1322   2.475   3.511   1.341
 2344SOL    HW2 1323   2.569   3.426   1.239
 2350SOL     OW 1324   2.092   2.490   1.975
 2350SOL    HW1 1325   1.999   2.488   2.012
 2350SOL    HW2 1326   2.093   2.451   1.883
 2351SOL     OW 1327   2.087   2.137   2.858
 2351SOL    HW1 1328   2.122   2.120   2.950
 2351SOL    HW2 1329   1.999   2.092   2.846
 2352SOL     OW 1330   1.881   2.230   2.509
 2352SOL    HW1 1331   1.799   2.273   2.548
 2352SOL    HW2 1332   1.853   2.157   2.446
 2353SOL     OW 1333   2.431   3.137   3.027
 2353SOL    HW1 1334   2.338   3.130   2.990
 2353SOL    HW2 1335   2.442   3.226   3.071
 2354SOL     OW 1336   3.417   3.373   2.565
 2354SOL    HW1 1337   3.360   3.357   2.646
 2354SOL    HW2 1338   3.358   3.383   2.485
 2355SOL     OW 1339   3.617   2.469   2.093
 2355SOL    HW1 1340   3.605   2.456   1.994
 2355SOL    HW2 1341   3.587   2.388   2.142
 2356SOL     OW 1342   2.630   3.006   2.885
 2356SOL    HW1 1343   2.552   3.023   2.945
 2356SOL    HW2 1344   2.664   3.093   2.849
 2357SOL     OW 1345   2.712   2.660   3.685
 2357SOL    HW1 1346   2.708   2.736   3.750
 2357SOL    HW2 1347   2.734   2.696   3.594
 2358SOL     OW 1348   2.547   2.874   2.527
 2358SOL    HW1 1349   2.616   2.858   2.597
 2358SOL    HW2 1350   2.474   2.931   2.565
 2359SOL     OW 1351   2.548   3.023   3.665
 2359SOL    HW1 1352   2.608   3.102   3.679
 2359SOL    HW2 1353   2.462   3.054   3.624
 2360SOL     OW 1354   2.197   3.297   2.923
 2360SOL    HW1 1355   2.119   3.266   2.870
 2360SOL    HW2 1356   2.255   3.355   2.866
 2361SOL     OW 1357   3.322   3.367   3.201
 2361SOL    HW1 1358   3.346   3.461   3.227
 2361SOL    HW2 1359   3.306   3.313   3.283
 2362SOL     OW 1360   2.300   2.254   3.361
 2362SOL    HW1 1361   2.382   2.198   3.370
 2362SOL    HW2 1362   2.219   2.196   3.365
 2363SOL     OW 1363   3.465   2.309   2.599
 2363SOL    HW1 1364   3.391   2.355   2.549
 2363SOL    HW2 1365   3.516   2.377   2.652
 2364SOL     OW 1366   2.093   3.575   2.345
 2364SOL    HW1 1367   2.127   3.652   2.399
 2364SOL    HW2 1368   2.137   3.575   2.255
 2365SOL     OW 1369   2.989   3.203   3.552
 2365SOL    HW1 1370   3.036   3.203   3.640
 2365SOL    HW2 1371   2.941   3.116   3.541
 2366SOL     OW 1372   2.092   3.296   2.400
 2366SOL    HW1 1373   2.066   3.392   2.400
 2366SOL    HW2 1374   2.021   3.242   2.445
 2367SOL     OW 1375   2.102   2.953   2.748
 2367SOL    HW1 1376   2.116   2.869   2.800
 2367SOL    HW2 1377   2.047   3.017   2.803
 2368SOL     OW 1378   2.482   3.648   3.301
 2368SOL    HW1 1379   2.390   3.631   3.336
 2368SOL    HW2 1380   2.510   3.740   3.327
 2369SOL     OW 1381   2.468   2.826   1.985
 2369SOL    HW1 1382   2.475   2.910   1.931
 2369SOL    HW2 1383   2.514   2.839   2.073
 2370SOL     OW 1384   3.456   1.976   3.342
 2370SOL    HW1 1385   3.438   2.043   3.270
 2370SOL    HW2 1386   3.453   2.022   3.431
 2371SOL     OW 1387   1.984   2.505   2.425
 2371SOL    HW1 1388   1.939   2.417   2.442
 2371SOL    HW2 1389   1.983   2.559   2.509
 2372SOL     OW 1390   3.704   3.629   2.221
 2372SOL    HW1 1391   3.758   3.600   2.301
 2372SOL    HW2 1392   3.734   3.719   2.192
 2373SOL     OW 1393   1.889   3.458   1.979
 2373SOL    HW1 1394   1.870   3.362   2.000
 2373SOL    HW2 1395   1.856   3.516   2.054
 2374SOL     OW 1396   3.551   2.784   2.474
 2374SOL    HW1 1397   3.646   2.755   2.482
 2374SOL    HW2 1398   3.543   2.849   2.399
 2375SOL     OW 1399   3.503   2.970   2.294
 2375SOL    HW1 1400   3.589   2.972   2.242
 2375SOL    HW2 1401   3.517   3.017   2.382
 2376SOL     OW 1402   1.975   2.599   3.459
 2376SOL    HW1 1403   2.063   2.586   3.504
 2376SOL    HW2 1404   1.962   2.696   3.437
 2377SOL     OW 1405   2.475   3.227   2.588
 2377SOL    HW1 1406   2.426   3.140   2.597
 2377SOL    HW2 1407   2.452   3.270   2.501
 2378SOL     OW 1408   3.155   3.090   3.285
 2378SOL    HW1 1409   3.192   3.017   3.227
 2378SOL    HW2 1410   3.207   3.095   3.370
 2379SOL     OW 1411   2.671   1.866   2.364
 2379SOL    HW1 1412   2.711   1.957   2.355
 2379SOL    HW2 1413   2.571   1.874   2.370
 2380SOL     OW 1414   2.059   2.838   3.126
 2380SOL    HW1 1415   2.148   2.793   3.112
 2380SOL    HW2 1416   1.986   2.773   3.107
 2381SOL     OW 1417   3.387   2.861   2.052
 2381SOL    HW1 1418   3.324   2.785   2.065
 2381SOL    HW2 1419   3.435   2.879   2.138
 2382SOL     OW 1420   3.049   3.654   3.478
 2382SOL    HW1 1421   3.073   3.714   3.402
 2382SOL    HW2 1422   3.056   3.559   3.448
 2383SOL     OW 1423   2.179   2.113   3.663
 2383SOL    HW1 1424   2.250   2.184   3.669
 2383SOL    HW2 1425   2.091   2.152   3.691
 2384SOL     OW 1426   3.328   3.279   2.815
 2384SOL    HW1 1427   3.269   3.285   2.895
 2384SOL    HW2 1428   3.313   3.191   2.769
 2385SOL     OW 1429   3.529   3.576   2.434
 2385SOL    HW1 1430   3.488   3.553   2.346
 2385SOL    HW2 1431   3.511   3.502   2.499
 2386SOL     OW 1432   3.143   2.207   2.806
 2386SOL    HW1 1433   3.057   2.157   2.793
 2386SOL    HW2 1434   3.205   2.153   2.862
 2387SOL     OW 1435   3.438   3.524   2.169
 2387SOL    HW1 1436   3.527   3.570   2.172
 2387SOL    HW2 1437   3.417   3.500   2.074
 2388SOL     OW 1438   2.669   2.467   3.327
 2388SOL    HW1 1439   2.622   2.464   3.416
 2388SOL    HW2 1440   2.618   2.412   3.261
 2389SOL     OW 1441   3.256   2.331   3.536
 2389SOL    HW1 1442   3.236   2.374   3.624
 2389SOL    HW2 1443   3.334   2.269   3.545
 2390SOL     OW 1444   2.835   2.752   3.434
 2390SOL    HW1 1445   2.881   2.668   3.405
 2390SOL    HW2 1446   2.779   2.786   3.359
 2391SOL     OW 1447   2.853   2.272   3.104
 2391SOL    HW1 1448   2.776   2.306   3.158
 2391SOL    HW2 1449   2.819   2.221   3.025
 2392SOL     OW 1450   2.903   2.563   2.291
 2392SOL    HW1 1451   2.929   2.559   2.387
 2392SOL    HW2 1452   2.818   2.512   2.277
 2393SOL     OW 1453   1.938   2.673   2.651
 2393SOL    HW1 1454   2.037   2.661   2.660
 2393SOL    HW2 1455   1.914   2.768   2.672
 2394SOL     OW 1456   1.992   3.683   3.433
 2394SOL    HW1 1457   1.982   3.668   3.532
 2394SOL    HW2 1458   1.906   3.719   3.397
 2395SOL     OW 1459   2.727   2.210   2.057
 2395SOL    HW1 1460   2.786   2.273   2.008
 2395SOL    HW2 1461   2.746   2.116   2.028
 2396SOL     OW 1462   3.581   2.447   3.693
 2396SOL    HW1 1463   3.555   2.536   3.657
 2396SOL    HW2 1464   3.579   2.379   3.620
 2397SOL     OW 1465   3.224   3.006   2.407
 2397SOL    HW1 1466   3.307   2.977   2.359
 2397SOL    HW2 1467   3.175   3.073   2.351
 2398SOL     OW 1468   2.412   2.058   2.747
 2398SOL    HW1 1469   2.407   2.053   2.847
 2398SOL    HW2 1470   2.414   2.154   2.718
 2399SOL     OW 1471   2.870   3.318   2.339
 2399SOL    HW1 1472   2.824   3.390   2.287
 2399SOL    HW2 1473   2.866   3.338   2.437
 2400SOL     OW 1474   2.213   3.663   2.715
 2400SOL    HW1 1475   2.263   3.577   2.721
 2400SOL    HW2 1476   2.278   3.740   2.712
 2401SOL     OW 1477   3.657   2.928   2.735
 2401SOL    HW1 1478   3.595   2.913   2.659
 2401SOL    HW2 1479   3.605   2.939   2.820
 2402SOL     OW 1480   3.089   3.412   3.368
 2402SOL    HW1 1481   3.095   3.335   3.432
 2402SOL    HW2 1482   3.037   3.386   3.288
 2403SOL     OW 1483   2.183   2.805   2.104
 2403SOL    HW1 1484   2.265   2.844   2.062
 2403SOL    HW2 1485   2.156   2.723   2.055
 2404SOL     OW 1486   3.320   2.597   2.590
 2404SOL    HW1 1487   3.315   2.532   2.665
 2404SOL    HW2 1488   3.400   2.656   2.603
 2405SOL     OW 1489   2.323   3.128   3.589
 2405SOL    HW1 1490   2.273   3.129   3.503
 2405SOL    HW2 1491   2.260   3.110   3.665
 2406SOL     OW 1492   2.973   3.638   2.099
 2406SOL    HW1 1493   2.913   3.576   2.149
 2406SOL    HW2 1494   3.004   3.594   2.014
 2407SOL     OW 1495   2.064   2.147   3.360
 2407SOL    HW1 1496   1.984   2.207   3.347
 2407SOL    HW2 1497   2.054   2.098   3.446
 2408SOL     OW 1498   3.494   3.239   1.943
 2408SOL    HW1 1499   3.462   3.333   1.933
 2408SOL    HW2 1500   3.418   3.176   1.931
 2409SOL     OW 1501   2.326   3.605   2.185
 2409SOL    HW1 1502   2.359   3.644   2.271
 2409SOL    HW2 1503   2.402   3.598   2.120
 2410SOL     OW 1504   3.262   1.969   2.288
 2410SOL    HW1 1505   3.238   1.932   2.198
 2410SOL    HW2 1506   3.361   1.985   2.292
 2411SOL     OW 1507   2.111   3.647   3.103
 2411SOL    HW1 1508   2.168   3.582   3.153
 2411SOL    HW2 1509   2.095   3.614   3.010
 2412SOL     OW 1510   2.802   3.560   2.766
 2412SOL    HW1 1511   2.882   3.503   2.787
 2412SOL    HW2 1512   2.753   3.520   2.689
 2413SOL     OW 1513   2.244   2.562   2.342
 2413SOL    HW1 1514   2.289   2.472   2.339
 2413SOL    HW2 1515   2.150   2.551   2.375
 2414SOL     OW 1516   3.409   2.084   3.591
 2414SOL    HW1 1517   3.404   2.121   3.683
 2414SOL    HW2 1518   3.337   2.015   3.579
 2415SOL     OW 1519   2.476   1.984   1.979
 2415SOL    HW1 1520   2.574   1.962   1.986
 2415SOL    HW2 1521   2.445   1.967   1.886
 2416SOL     OW 1522   2.643   2.126   3.611
 2416SOL    HW1 1523   2.710   2.065   3.654
 2416SOL    HW2 1524   2.570   2.145   3.676
 2417SOL     OW 1525   2.750   3.376   3.057
 2417SOL    HW1 1526   2.727   3.351   2.963
 2417SOL    HW2 1527   2.811   3.307   3.096
 2418SOL     OW 1528   3.213   2.452   3.295
 2418SOL    HW1 1529   3.241   2.409   3.380
 2418SOL    HW2 1530   3.238   2.548   3.296
 2419SOL     OW 1531   2.665   3.264   2.786
 2419SOL    HW1 1532   2.755   3.278   2.744
 2419SOL    HW2 1533   2.594   3.266   2.715
 2420SOL     OW 1534   2.784   2.365   2.761
 2420SOL    HW1 1535   2.759   2.356   2.665
 2420SOL    HW2 1536   2.832   2.283   2.792
 2421SOL     OW 1537   2.401   1.926   2.374
 2421SOL    HW1 1538   2.320   1.927   2.432
 2421SOL    HW2 1539   2.404   2.009   2.319
 2422SOL     OW 1540   3.296   3.050   1.903
 2422SOL    HW1 1541   3.328   2.974   1.960
 2422SOL    HW2 1542   3.204   3.077   1.933
 2423SOL     OW 1543   2.159   1.897   2.033
 2423SOL    HW1 1544   2.208   1.981   2.012
 2423SOL    HW2 1545   2.221   1.832   2.078
 2424SOL     OW 1546   2.797   2.098   2.342
 2424SOL    HW1 1547   2.749   2.139   2.264
 2424SOL    HW2 1548   2.896   2.096   2.323
 2425SOL     OW 1549   2.938   2.545   3.326
 2425SOL    HW1 1550   2.858   2.484   3.329
 2425SOL    HW2 1551   3.019   2.492   3.302
 2426SOL     OW 1552   3.089   3.432   2.655
 2426SOL    HW1 1553   3.110   3.506   2.590
 2426SOL    HW2 1554   3.157   3.432   2.728
 2427SOL     OW 1555   2.321   3.014   2.603
 2427SOL    HW1 1556   2.250   2.987   2.668
 2427SOL    HW2 1557   2.295   2.986   2.510
 2428SOL     OW 1558   3.133   3.659   2.453
 2428SOL    HW1 1559   3.177   3.723   2.389
 2428SOL    HW2 1560   3.083   3.711   2.523
 2429SOL     OW 1561   2.894   2.411   1.878
 2429SOL    HW1 1562   2.853   2.493   1.839
 2429SOL    HW2 1563   2.958   2.437   1.951
 2430SOL     OW 1564   1.940   2.418   3.248
 2430SOL    HW1 1565   2.032   2.417   3.207
 2430SOL    HW2 1566   1.934   2.492   3.315
 2431SOL     OW 1567   2.423   2.084   3.009
 2431SOL    HW1 1568   2.461   2.000   3.046
 2431SOL    HW2 1569   2.335   2.103   3.053
 2432SOL     OW 1570   2.728   2.316   2.504
 2432SOL    HW1 1571   2.696   2.388   2.442
 2432SOL    HW2 1572   2.752   2.235   2.451
 2433SOL     OW 1573   2.879   1.901   2.615
 2433SOL    HW1 1574   2.807   1.906   2.546
 2433SOL    HW2 1575   2.855   1.832   2.684
 2434SOL     OW 1576   3.291   3.035   2.729
 2434SOL    HW1 1577   3.236   2.951   2.722
 2434SOL    HW2 1578   3.317   3.064   2.637
 2435SOL     OW 1579   3.328   2.452   2.854
 2435SOL    HW1 1580   3.298   2.357   2.861
 2435SOL    HW2 1581   3.401   2.468   2.920
 2436SOL     OW 1582   3.719   2.695   2.239
 2436SOL    HW1 1583   3.761   2.631   2.303
 2436SOL    HW2 1584   3.681   2.644   2.161
 2437SOL     OW 1585   2.350   3.247   2.036
 2437SOL    HW1 1586   2.263   3.232   2.083
 2437SOL    HW2 1587   2.333   3.273   1.941
 2438SOL     OW 1588   3.526   3.142   2.519
 2438SOL    HW1 1589   3.625   3.150   2.533
 2438SOL    HW2 1590   3.481   3.226   2.550
 2439SOL     OW 1591   3.252   2.437   1.940
 2439SOL    HW1 1592   3.198   2.416   2.021
 2439SOL    HW2 1593   3.343   2.396   1.949
 2440SOL     OW 1594   3.616   3.085   3.450
 2440SOL    HW1 1595   3.707   3.046   3.437
 2440SOL    HW2 1596   3.624   3.181   3.474
 2441SOL     OW 1597   2.926   3.209   3.202
 2441SOL    HW1 1598   2.846   3.186   3.257
 2441SOL    HW2 1599   3.009   3.183   3.251
 2442SOL     OW 1600   3.454   3.491   3.487
 2442SOL    HW1 1601   3.481   3.525   3.397
 2442SOL    HW2 1602   3.533   3.453   3.533
 2443SOL     OW 1603   2.973   3.057   2.962
 2443SOL    HW1 1604   2.933   3.101   3.043
 2443SOL    HW2 1605   2.932   3.094   2.879
 2444SOL     OW 1606   3.500   2.961   2.941
 2444SOL    HW1 1607   3.505   3.042   3.000
 2444SOL    HW2 1608   3.414   2.963   2.890
 2445SOL     OW 1609   2.777   1.951   3.264
 2445SOL    HW1 1610   2.802   1.931   3.169
 2445SOL    HW2 1611   2.849   2.007   3.306
 2446SOL     OW 1612   2.842   2.978   3.581
 2446SOL    HW1 1613   2.743   2.984   3.591
 2446SOL    HW2 1614   2.865   2.898   3.525
 2447SOL     OW 1615   2.567   2.912   2.230
 2447SOL    HW1 1616   2.553   2.919   2.329
 2447SOL    HW2 1617   2.651   2.861   2.212
 2448SOL     OW 1618   2.272   2.675   3.113
 2448SOL    HW1 1619   2.358   2.687   3.163
 2448SOL    HW2 1620   2.230   2.588   3.140
 2449SOL     OW 1621   3.136   2.248   3.124
 2449SOL    HW1 1622   3.157   2.322   3.188
 2449SOL    HW2 1623   3.047   2.265   3.081
 2450SOL     OW 1624   1.926   3.426   3.193
 2450SOL    HW1 1625   1.880   3.508   3.159
 2450SOL    HW2 1626   2.024   3.445   3.202
 2451SOL     OW 1627   2.229   2.962   2.363
 2451SOL    HW1 1628   2.222   3.045   2.307
 2451SOL    HW2 1629   2.233   2.882   2.303
 2452SOL     OW 1630   2.428   2.399   2.727
 2452SOL    HW1 1631   2.440   2.465   2.653
 2452SOL    HW2 1632   2.474   2.433   2.810
 2453SOL     OW 1633   3.114   3.210   2.250
 2453SOL    HW1 1634   3.164   3.287   2.290
 2453SOL    HW2 1635   3.019   3.212   2.282
 2454SOL     OW 1636   3.134   3.307   3.004
 2454SOL    HW1 1637   3.181   3.320   3.091
 2454SOL    HW2 1638   3.068   3.233   3.013
 2455SOL     OW 1639   3.444   2.501   2.334
 2455SOL    HW1 1640   3.413   2.562   2.407
 2455SOL    HW2 1641   3.494   2.553   2.265
 2456SOL     OW 1642   2.216   3.372   3.191
 2456SOL    HW1 1643   2.195   3.328   3.104
 2456SOL    HW2 1644   2.313   3.398   3.194
 2457SOL     OW 1645   2.264   2.613   3.460
 2457SOL    HW1 1646   2.332   2.668   3.413
 2457SOL    HW2 1647   2.304   2.525   3.487
 2458SOL     OW 1648   3.449   2.641   3.532
 2458SOL    HW1 1649   3.357   2.679   3.527
 2458SOL    HW2 1650   3.509   2.688   3.467
 2459SOL     OW 1651   2.875   1.967   3.632
 2459SOL    HW1 1652   2.881   2.052   3.580
 2459SOL    HW2 1653   2.907   1.891   3.575
 2460SOL     OW 1654   2.366   1.912   3.602
 2460SOL    HW1 1655   2.324   1.855   3.532
 2460SOL    HW2 1656   2.300   1.981   3.634
 2461SOL     OW 1657   3.222   2.724   2.907
 2461SOL    HW1 1658   3.147   2.724   2.841
 2461SOL    HW2 1659   3.259   2.632   2.916
 2462SOL     OW 1660   3.071   2.387   2.137
 2462SOL    HW1 1661   3.084   2.303   2.191
 2462SOL    HW2 1662   3.042   2.461   2.197
 2463SOL     OW 1663   2.169   2.075   3.093
 2463SOL    HW1 1664   2.146   2.112   3.183
 2463SOL    HW2 1665   2.139   1.980   3.087
 2464SOL     OW 1666   1.899   3.172   3.144
 2464SOL    HW1 1667   1.952   3.123   3.212
 2464SOL    HW2 1668   1.921   3.270   3.149
 2465SOL     OW 1669   3.590   2.797   3.716
 2465SOL    HW1 1670   3.544   2.790   3.627
 2465SOL    HW2 1671   3.528   2.841   3.782
 2466SOL     OW 1672   2.169   1.925   2.480
 2466SOL    HW1 1673   2.158   2.019   2.513
 2466SOL    HW2 1674   2.164   1.862   2.557
 2467SOL     OW 1675   3.484   2.229   2.236
 2467SOL    HW1 1676   3.486   2.153   2.300
 2467SOL    HW2 1677   3.436   2.306   2.276
 2468SOL     OW 1678   2.842   3.435   3.562
 2468SOL    HW1 1679   2.822   3.479   3.474
 2468SOL    HW2 1680   2.881   3.344   3.546
 2469SOL     OW 1681   3.721   3.380   3.467
 2469SOL    HW1 1682   3.735   3.407   3.372
 2469SOL    HW2 1683   3.804   3.402   3.520
 2470SOL     OW 1684   2.212   2.760   3.666
 2470SOL    HW1 1685   2.288   2.804   3.714
 2470SOL    HW2 1686   2.247   2.713   3.584
 2471SOL     OW 1687   3.402   2.136   1.987
 2471SOL    HW1 1688   3.341   2.061   2.010
 2471SOL    HW2 1689   3.424   2.188   2.070
 2472SOL     OW 1690   3.165   2.700   1.904
 2472SOL    HW1 1691   3.199   2.607   1.919
 2472SOL    HW2 1692   3.183   2.727   1.809
 2473SOL     OW 1693   2.930   3.195   2.711
 2473SOL    HW1 1694   2.937   3.111   2.656
 2473SOL    HW2 1695   2.992   3.264   2.675
 2474SOL     OW 1696   2.201   2.371   2.868
 2474SOL    HW1 1697   2.149   2.288   2.851
 2474SOL    HW2 1698   2.278   2.376   2.804
 2475SOL     OW 1699   3.000   2.242   3.540
 2475SOL    HW1 1700   2.955   2.305   3.604
 2475SOL    HW2 1701   3.093   2.273   3.523
 2476SOL     OW 1702   3.022   2.069   3.339
 2476SOL    HW1 1703   3.022   2.133   3.416
 2476SOL    HW2 1704   3.050   2.117   3.256
 2477SOL     OW 1705   1.870   3.188   2.062
 2477SOL    HW1 1706   1.777   3.209   2.031
 2477SOL    HW2 1707   1.880   3.089   2.075
 2478SOL     OW 1708   1.950   3.663   2.789
 2478SOL    HW1 1709   1.908   3.577   2.762
 2478SOL    HW2 1710   2.044   3.666   2.755
 2479SOL     OW 1711   2.366   3.430   2.772
 2479SOL    HW1 1712   2.432   3.504   2.781
 2479SOL    HW2 1713   2.410   3.351   2.730
 2480SOL     OW 1714   2.864   2.658   3.100
 2480SOL    HW1 1715   2.905   2.626   3.186
 2480SOL    HW2 1716   2.768   2.631   3.097
 2481SOL     OW 1717   1.902   2.406   2.976
 2481SOL    HW1 1718   1.987   2.373   2.935
 2481SOL    HW2 1719   1.915   2.421   3.074
 2482SOL     OW 1720   2.051   2.382   3.584
 2482SOL    HW1 1721   2.110   2.342   3.514
 2482SOL    HW2 1722   1.993   2.453   3.543
 2483SOL     OW 1723   3.231   2.812   3.522
 2483SOL    HW1 1724   3.270   2.901   3.542
 2483SOL    HW2 1725   3.241   2.792   3.425
 2484SOL     OW 1726   2.677   2.434   2.187
 2484SOL    HW1 1727   2.684   2.345   2.141
 2484SOL    HW2 1728   2.583   2.468   2.179
 2485SOL     OW 1729   3.519   2.466   3.068
 2485SOL    HW1 1730   3.481   2.397   3.130
 2485SOL    HW2 1731   3.601   2.430   3.024
 2486SOL     OW 1732   2.114   3.426   3.606
 2486SOL    HW1 1733   2.084   3.483   3.682
 2486SOL    HW2 1734   2.107   3.329   3.632
 2487SOL     OW 1735   2.533   2.326   3.131
 2487SOL    HW1 1736   2.499   2.237   3.101
 2487SOL    HW2 1737   2.559   2.380   3.051
 2488SOL     OW 1738   2.792   3.540   3.327
 2488SOL    HW1 1739   2.768   3.522   3.232
 2488SOL    HW2 1740   2.822   3.634   3.337
 2489SOL     OW 1741   2.021   2.999   3.328
 2489SOL    HW1 1742   2.043   2.938   3.404
 2489SOL    HW2 1743   2.031   2.950   3.242
 2490SOL     OW 1744   3.209   2.921   3.096
 2490SOL    HW1 1745   3.233   2.858   3.022
 2490SOL    HW2 1746   3.119   2.961   3.078
 2491SOL     OW 1747   3.164   2.717   2.171
 2491SOL    HW1 1748   3.078   2.686   2.213
 2491SOL    HW2 1749   3.160   2.703   2.072
 2492SOL     OW 1750   3.621   3.609   3.016
 2492SOL    HW1 1751   3.682   3.639   2.943
 2492SOL    HW2 1752   3.583   3.520   2.994
 2493SOL     OW 1753   3.114   3.593   2.990
 2493SOL    HW1 1754   3.198   3.598   2.936
 2493SOL    HW2 1755   3.091   3.497   3.008
 2494SOL     OW 1756   1.945   3.120   2.884
 2494SOL    HW1 1757   1.940   3.119   2.984
 2494SOL    HW2 1758   1.862   3.079   2.846
 2495SOL     OW 1759   2.550   3.524   3.578
 2495SOL    HW1 1760   2.494   3.605   3.587
 2495SOL    HW2 1761   2.602   3.528   3.492
 2496SOL     OW 1762   3.588   1.997   2.385
 2496SOL    HW1 1763   3.661   1.980   2.318
 2496SOL    HW2 1764   3.557   1.910   2.423
 2497SOL     OW 1765   3.250   3.435   2.339
 2497SOL    HW1 1766   3.317   3.447   2.265
 2497SOL    HW2 1767   3.210   3.524   2.362
 2498SOL     OW 1768   1.992   3.656   3.713
 2498SOL    HW1 1769   1.951   3.582   3.766
 2498SOL    HW2 1770   2.056   3.707   3.771
 2499SOL     OW 1771   3.142   2.789   2.534
 2499SOL    HW1 1772   3.202   2.708   2.536
 2499SOL    HW2 1773   3.182   2.858   2.474
 2500SOL     OW 1774   2.692   3.135   3.284
 2500SOL    HW1 1775   2.687   3.168   3.379
 2500SOL    HW2 1776   2.606   3.154   3.238
 2501SOL     OW 1777   2.534   3.478   2.016
 2501SOL    HW1 1778   2.543   3.488   1.917
 2501SOL    HW2 1779   2.494   3.389   2.037
 2502SOL     OW 1780   3.512   3.582   3.256
 2502SOL    HW1 1781   3.565   3.592   3.172
 2502SOL    HW2 1782   3.485   3.672   3.290
 2503SOL     OW 1783   3.703   2.037   2.825
 2503SOL    HW1 1784   3.742   1.952   2.789
 2503SOL    HW2 1785   3.605   2.039   2.806
 2504SOL     OW 1786   2.125   2.188   2.582
 2504SOL    HW1 1787   2.046   2.239   2.548
 2504SOL    HW2 1788   2.116   2.173   2.680
 2505SOL     OW 1789   3.056   3.474   1.893
 2505SOL    HW1 1790   3.062   3.381   1.930
 2505SOL    HW2 1791   2.997   3.474   1.813
 2506SOL     OW 1792   2.684   2.864   3.234
 2506SOL    HW1 1793   2.724   2.863   3.142
 2506SOL    HW2 1794   2.694   2.956   3.274
 2507SOL     OW 1795   2.778   2.772   2.153
 2507SOL    HW1 1796   2.841   2.810   2.085
 2507SOL    HW2 1797   2.818   2.689   2.192
 2508SOL     OW 1798   3.366   3.469   1.906
 2508SOL    HW1 1799   3.274   3.506   1.913
 2508SOL    HW2 1800   3.404   3.489   1.816
 2509SOL     OW 1801   2.234   3.150   3.352
 2509SOL    HW1 1802   2.221   3.243   3.318
 2509SOL    HW2 1803   2.150   3.098   3.339
 2510SOL     OW 1804   3.476   3.154   3.151
 2510SOL    HW1 1805   3.536   3.157   3.231
 2510SOL    HW2 1806   3.401   3.218   3.164
 2511SOL     OW 1807   2.901   2.960   2.558
 2511SOL    HW1 1808   2.831   2.913   2.612
 2511SOL    HW2 1809   2.960   2.892   2.515
 2512SOL     OW 1810   2.876   2.098   2.833
 2512SOL    HW1 1811   2.868   2.062   2.740
 2512SOL    HW2 1812   2.874   2.022   2.898
 2513SOL     OW 1813   2.452   3.349   2.353
 2513SOL    HW1 1814   2.494   3.291   2.283
 2513SOL    HW2 1815   2.408   3.428   2.309
 2514SOL     OW 1816   3.571   2.247   3.243
 2514SOL    HW1 1817   3.644   2.316   3.247
 2514SOL    HW2 1818   3.599   2.172   3.184
 2515SOL     OW 1819   2.117   3.210   2.152
 2515SOL    HW1 1820   2.021   3.211   2.125
 2515SOL    HW2 1821   2.129   3.263   2.236
 2516SOL     OW 1822   1.967   2.875   3.588
 2516SOL    HW1 1823   1.890   2.842   3.642
 2516SOL    HW2 1824   2.052   2.845   3.630
 2517SOL     OW 1825   2.534   2.065   3.351
 2517SOL    HW1 1826   2.624   2.049   3.311
 2517SOL    HW2 1827   2.542   2.070   3.450
 2518SOL     OW 1828   1.937   2.207   1.895
 2518SOL    HW1 1829   1.845   2.179   1.866
 2518SOL    HW2 1830   1.968   2.284   1.839
 2519SOL     OW 1831   3.302   2.718   3.260
 2519SOL    HW1 1832   3.245   2.770   3.197
 2519SOL    HW2 1833   3.398   2.730   3.236
 2520SOL     OW 1834   1.934   2.028   2.180
 2520SOL    HW1 1835   1.917   2.111   2.126
 2520SOL    HW2 1836   2.024   1.991   2.158
 2521SOL     OW 1837   3.045   3.197   1.981
 2521SOL    HW1 1838   2.946   3.186   1.983
 2521SOL    HW2 1839   3.079   3.212   2.074
 2522SOL     OW 1840   2.475   2.704   3.293
 2522SOL    HW1 1841   2.531   2.785   3.276
 2522SOL    HW2 1842   2.534   2.624   3.296
 2523SOL     OW 1843   3.355   3.629   2.821
 2523SOL    HW1 1844   3.388   3.693   2.752
 2523SOL    HW2 1845   3.421   3.623   2.896
 2524SOL     OW 1846   2.578   2.427   3.570
 2524SOL    HW1 1847   2.597   2.492   3.644
 2524SOL    HW2 1848   2.638   2.347   3.579
 2525SOL     OW 1849   3.312   3.082   3.495
 2525SOL    HW1 1850   3.303   3.072   3.594
 2525SOL    HW2 1851   3.408   3.075   3.469
 2526SOL     OW 1852   2.252   3.603   3.422
 2526SOL    HW1 1853   2.161   3.644   3.420
 2526SOL    HW2 1854   2.245   3.509   3.454
 2527SOL     OW 1855   3.536   2.745   3.116
 2527SOL    HW1 1856   3.509   2.656   3.079
 2527SOL    HW2 1857   3.537   2.813   3.043
 2528SOL     OW 1858   3.087   2.187   2.311
 2528SOL    HW1 1859   3.152   2.113   2.300
 2528SOL    HW2 1860   3.107   2.237   2.395
 2529SOL     OW 1861   3.639   2.204   3.504
 2529SOL    HW1 1862   3.622   2.235   3.410
 2529SOL    HW2 1863   3.555   2.167   3.542
 2530SOL     OW 1864   3.592   2.796   3.379
 2530SOL    HW1 1865   3.630   2.887   3.394
 2530SOL    HW2 1866   3.584   2.779   3.280
 2531SOL     OW 1867   2.721   3.236   1.878
 2531SOL    HW1 1868   2.675   3.251   1.966
 2531SOL    HW2 1869   2.765   3.321   1.848
 2532SOL     OW 1870   2.523   3.652   2.815
 2532SOL    HW1 1871   2.477   3.740   2.802
 2532SOL    HW2 1872   2.622   3.664   2.808
 2533SOL     OW 1873   2.945   2.846   1.949
 2533SOL    HW1 1874   2.922   2.899   1.867
 2533SOL    HW2 1875   3.026   2.790   1.930
 2534SOL     OW 1876   3.723   3.431   2.713
 2534SOL    HW1 1877   3.652   3.419   2.643
 2534SOL    HW2 1878   3.724   3.352   2.773
 2535SOL     OW 1879   2.083   3.176   3.706
 2535SOL    HW1 1880   2.018   3.103   3.685
 2535SOL    HW2 1881   2.087   3.190   3.804
 2536SOL     OW 1882   1.941   3.102   2.515
 2536SOL    HW1 1883   1.940   3.055   2.603
 2536SOL    HW2 1884   2.023   3.074   2.464
 2537SOL     OW 1885   2.534   3.253   3.486
 2537SOL    HW1 1886   2.456   3.203   3.524
 2537SOL    HW2 1887   2.531   3.348   3.517
 2538SOL     OW 1888   3.686   2.054   3.089
 2538SOL    HW1 1889   3.682   1.964   3.133
 2538SOL    HW2 1890   3.689   2.043   2.990
 2539SOL     OW 1891   3.567   3.349   2.966
 2539SOL    HW1 1892   3.474   3.324   2.939
 2539SOL    HW2 1893   3.593   3.299   3.048
 2540SOL     OW 1894   2.179   2.409   3.142
 2540SOL    HW1 1895   2.217   2.350   3.214
 2540SOL    HW2 1896   2.219   2.383   3.054
 2541SOL     OW 1897   2.674   3.448   2.549
 2541SOL    HW1 1898   2.706   3.458   2.455
 2541SOL    HW2 1899   2.595   3.386   2.551
 2542SOL     OW 1900   3.286   2.076   2.974
 2542SOL    HW1 1901   3.338   2.011   3.029
 2542SOL    HW2 1902   3.237   2.139   3.035
 2543SOL     OW 1903   2.863   1.896   3.016
 2543SOL    HW1 1904   2.800   1.824   2.985
 2543SOL    HW2 1905   2.956   1.860   3.016
 2544SOL     OW 1906   2.632   3.192   2.163
 2544SOL    HW1 1907   2.586   3.105   2.180
 2544SOL    HW2 1908   2.723   3.189   2.204
 2545SOL     OW 1909   2.480   3.429   3.146
 2545SOL    HW1 1910   2.475   3.511   3.203
 2545SOL    HW2 1911   2.569   3.426   3.101
 2546SOL     OW 1912   3.214   1.914   2.030
 2546SOL    HW1 1913   3.249   1.873   1.946
 2546SOL    HW2 1914   3.124   1.876   2.050
 2547SOL     OW 1915   3.162   2.315   2.553
 2547SOL    HW1 1916   3.103   2.395   2.557
 2547SOL    HW2 1917   3.177   2.280   2.646
 2548SOL     OW 1918   3.455   2.083   2.744
 2548SOL    HW1 1919   3.371   2.082   2.798
 2548SOL    HW2 1920   3.457   2.166   2.688
 2549SOL     OW 1921   1.901   2.939   2.162
 2549SOL    HW1 1922   2.000   2.928   2.153
 2549SOL    HW2 1923   1.861   2.853   2.194
 2550SOL     OW 1924   2.737   3.508   2.199
 2550SOL    HW1 1925   2.660   3.473   2.145
 2550SOL    HW2 1926   2.705   3.579   2.261
 2551SOL     OW 1927   2.092   2.490   3.837
 2551SOL    HW1 1928   1.999   2.488   3.874
 2551SOL    HW2 1929   2.093   2.451   3.745
 2557SOL     OW 1930   3.617   2.469   3.955
 2557SOL    HW1 1931   3.605   2.456   3.856
 2557SOL    HW2 1932   3.587   2.388   4.004
 2565SOL     OW 1933   2.468   2.826   3.847
 2565SOL    HW1 1934   2.475   2.910   3.793
 2565SOL    HW2 1935   2.514   2.839   3.935
 2568SOL     OW 1936   1.889   3.458   3.841
 2568SOL    HW1 1937   1.870   3.362   3.862
 2568SOL    HW2 1938   1.856   3.516   3.916
 2575SOL     OW 1939   3.387   2.861   3.914
 2575SOL    HW1 1940   3.324   2.785   3.927
 2575SOL    HW2 1941   3.435   2.879   4.000
 2578SOL     OW 1942   2.460   2.591   3.994
 2578SOL    HW1 1943   2.484   2.660   3.926
 2578SOL    HW2 1944   2.382   2.624   4.048
 2582SOL     OW 1945   2.903   2.563   4.153
 2582SOL    HW1 1946   2.929   2.559   4.249
 2582SOL    HW2 1947   2.818   2.512   4.139
 2584SOL     OW 1948   2.727   2.210   3.919
 2584SOL    HW1 1949   2.786   2.273   3.870
 2584SOL    HW2 1950   2.746   2.116   3.890
 2590SOL     OW 1951   2.183   2.805   3.966
 2590SOL    HW1 1952   2.265   2.844   3.924
 2590SOL    HW2 1953   2.156   2.723   3.917
 2593SOL     OW 1954   3.494   3.239   3.805
 2593SOL    HW1 1955   3.462   3.333   3.795
 2593SOL    HW2 1956   3.418   3.176   3.793
 2598SOL     OW 1957   2.244   2.562   4.204
 2598SOL    HW1 1958   2.289   2.472   4.201
 2598SOL    HW2 1959   2.150   2.551   4.237
 2599SOL     OW 1960   2.476   1.984   3.841
 2599SOL    HW1 1961   2.574   1.962   3.848
 2599SOL    HW2 1962   2.445   1.967   3.748
 2603SOL     OW 1963   3.296   3.050   3.765
 2603SOL    HW1 1964   3.328   2.974   3.822
 2603SOL    HW2 1965   3.204   3.077   3.795
 2604SOL     OW 1966   2.159   1.897   3.895
 2604SOL    HW1 1967   2.208   1.981   3.874
 2604SOL    HW2 1968   2.221   1.832   3.940
 2605SOL     OW 1969   2.797   2.098   4.204
 2605SOL    HW1 1970   2.749   2.139   4.126
 2605SOL    HW2 1971   2.896   2.096   4.185
 2609SOL     OW 1972   2.894   2.411   3.740
 2609SOL    HW1 1973   2.853   2.493   3.701
 2609SOL    HW2 1974   2.958   2.437   3.813
 2616SOL     OW 1975   2.350   3.247   3.898
 2616SOL    HW1 1976   2.263   3.232   3.945
 2616SOL    HW2 1977   2.333   3.273   3.803
 2618SOL     OW 1978   3.252   2.437   3.802
 2618SOL    HW1 1979   3.198   2.416   3.883
 2618SOL    HW2 1980   3.343   2.396   3.811
 2619SOL     OW 1981   2.389   2.118   4.052
 2619SOL    HW1 1982   2.416   2.059   3.977
 2619SOL    HW2 1983   2.389   2.213   4.021
 2622SOL     OW 1984   2.567   2.912   4.092
 2622SOL    HW1 1985   2.553   2.919   4.191
 2622SOL    HW2 1986   2.651   2.861   4.074
 2625SOL     OW 1987   2.229   2.962   4.225
 2625SOL    HW1 1988   2.222   3.045   4.169
 2625SOL    HW2 1989   2.233   2.882   4.165
 2633SOL     OW 1990   3.071   2.387   3.999
 2633SOL    HW1 1991   3.084   2.303   4.053
 2633SOL    HW2 1992   3.042   2.461   4.059
 2640SOL     OW 1993   3.402   2.136   3.849
 2640SOL    HW1 1994   3.341   2.061   3.872
 2640SOL    HW2 1995   3.424   2.188   3.932
 2641SOL     OW 1996   3.165   2.700   3.766
 2641SOL    HW1 1997   3.199   2.607   3.781
 2641SOL    HW2 1998   3.183   2.727   3.671
 2646SOL     OW 1999   1.870   3.188   3.924
 2646SOL    HW1 2000   1.777   3.209   3.893
 2646SOL    HW2 2001   1.880   3.089   3.937
 2651SOL     OW 2002   2.677   2.434   4.049
 2651SOL    HW1 2003   2.684   2.345   4.003
 2651SOL    HW2 2004   2.583   2.468   4.041
 2655SOL     OW 2005   2.335   2.362   3.915
 2655SOL    HW1 2006   2.396   2.442   3.919
 2655SOL    HW2 2007   2.240   2.393   3.922
 2657SOL     OW 2008   3.164   2.717   4.033
 2657SOL    HW1 2009   3.078   2.686   4.075
 2657SOL    HW2 2010   3.160   2.703   3.934
 2664SOL     OW 2011   2.534   3.478   3.878
 2664SOL    HW1 2012   2.543   3.488   3.779
 2664SOL    HW2 2013   2.494   3.389   3.899
 2668SOL     OW 2014   3.056   3.474   3.755
 2668SOL    HW1 2015   3.062   3.381   3.792
 2668SOL    HW2 2016   2.997   3.474   3.675
 2670SOL     OW 2017   2.778   2.772   4.015
 2670SOL    HW1 2018   2.841   2.810   3.947
 2670SOL    HW2 2019   2.818   2.689   4.054
 2671SOL     OW 2020   3.366   3.469   3.768
 2671SOL    HW1 2021   3.274   3.506   3.775
 2671SOL    HW2 2022   3.404   3.489   3.678
 2676SOL     OW 2023   2.117   3.210   4.014
 2676SOL    HW1 2024   2.021   3.211   3.987
 2676SOL    HW2 2025   2.129   3.263   4.098
 2677SOL     OW 2026   1.937   2.207   3.757
 2677SOL    HW1 2027   1.845   2.179   3.728
 2677SOL    HW2 2028   1.968   2.284   3.701
 2678SOL     OW 2029   1.934   2.028   4.042
 2678SOL    HW1 2030   1.917   2.111   3.988
 2678SOL    HW2 2031   2.024   1.991   4.020
 2679SOL     OW 2032   3.045   3.197   3.843
 2679SOL    HW1 2033   2.946   3.186   3.845
 2679SOL    HW2 2034   3.079   3.212   3.936
 2682SOL     OW 2035   3.087   2.187   4.173
 2682SOL    HW1 2036   3.152   2.113   4.162
 2682SOL    HW2 2037   3.107   2.237   4.257
 2685SOL     OW 2038   2.721   3.236   3.740
 2685SOL    HW1 2039   2.675   3.251   3.828
 2685SOL    HW2 2040   2.765   3.321   3.710
 2688SOL     OW 2041   2.945   2.846   3.811
 2688SOL    HW1 2042   2.922   2.899   3.729
 2688SOL    HW2 2043   3.026   2.790   3.792
 2692SOL     OW 2044   2.290   2.286   4.244
 2692SOL    HW1 2045   2.320   2.214   4.182
 2692SOL    HW2 2046   2.251   2.246   4.327
 2697SOL     OW 2047   2.632   3.192   4.025
 2697SOL    HW1 2048   2.586   3.105   4.042
 2697SOL    HW2 2049   2.723   3.189   4.066
 2698SOL     OW 2050   3.214   1.914   3.892
 2698SOL    HW1 2051   3.249   1.873   3.808
 2698SOL    HW2 2052   3.124   1.876   3.912
 2701SOL     OW 2053   1.901   2.939   4.024
 2701SOL    HW1 2054   2.000   2.928   4.015
 2701SOL    HW2 2055   1.861   2.853   4.056
 2726SOL     OW 2056   2.179   3.975   1.801
 2726SOL    HW1 2057   2.250   4.046   1.807
 2726SOL    HW2 2058   2.091   4.014   1.829
 2748SOL     OW 2059   2.643   3.988   1.749
 2748SOL    HW1 2060   2.710   3.927   1.792
 2748SOL    HW2 2061   2.570   4.007   1.814
 2770SOL     OW 2062   2.777   3.813   1.402
 2770SOL    HW1 2063   2.802   3.793   1.307
 2770SOL    HW2 2064   2.849   3.869   1.444
 2780SOL     OW 2065   2.875   3.829   1.770
 2780SOL    HW1 2066   2.881   3.914   1.718
 2780SOL    HW2 2067   2.907   3.753   1.713
 2781SOL     OW 2068   2.366   3.774   1.740
 2781SOL    HW1 2069   2.324   3.717   1.670
 2781SOL    HW2 2070   2.300   3.843   1.772
 2825SOL     OW 2071   2.534   3.927   1.489
 2825SOL    HW1 2072   2.624   3.911   1.449
 2825SOL    HW2 2073   2.542   3.932   1.588
 2850SOL     OW 2074   2.087   3.999   2.858
 2850SOL    HW1 2075   2.122   3.982   2.950
 2850SOL    HW2 2076   1.999   3.954   2.846
 2851SOL     OW 2077   1.881   4.092   2.509
 2851SOL    HW1 2078   1.799   4.135   2.548
 2851SOL    HW2 2079   1.853   4.019   2.446
 2863SOL     OW 2080   3.456   3.838   3.342
 2863SOL    HW1 2081   3.438   3.905   3.270
 2863SOL    HW2 2082   3.453   3.884   3.431
 2869SOL     OW 2083   2.671   3.728   2.364
 2869SOL    HW1 2084   2.711   3.819   2.355
 2869SOL    HW2 2085   2.571   3.736   2.370
 2874SOL     OW 2086   3.143   4.069   2.806
 2874SOL    HW1 2087   3.057   4.019   2.793
 2874SOL    HW2 2088   3.205   4.015   2.862
 2878SOL     OW 2089   2.853   4.134   3.104
 2878SOL    HW1 2090   2.776   4.168   3.158
 2878SOL    HW2 2091   2.819   4.083   3.025
 2881SOL     OW 2092   2.727   4.072   2.057
 2881SOL    HW1 2093   2.786   4.135   2.008
 2881SOL    HW2 2094   2.746   3.978   2.028
 2884SOL     OW 2095   2.412   3.920   2.747
 2884SOL    HW1 2096   2.407   3.915   2.847
 2884SOL    HW2 2097   2.414   4.016   2.718
 2888SOL     OW 2098   2.064   4.009   3.360
 2888SOL    HW1 2099   1.984   4.069   3.347
 2888SOL    HW2 2100   2.054   3.960   3.446
 2890SOL     OW 2101   3.262   3.831   2.288
 2890SOL    HW1 2102   3.238   3.794   2.198
 2890SOL    HW2 2103   3.361   3.847   2.292
 2893SOL     OW 2104   2.476   3.846   1.979
 2893SOL    HW1 2105   2.574   3.824   1.986
 2893SOL    HW2 2106   2.445   3.829   1.886
 2897SOL     OW 2107   2.784   4.227   2.761
 2897SOL    HW1 2108   2.759   4.218   2.665
 2897SOL    HW2 2109   2.832   4.145   2.792
 2898SOL     OW 2110   2.401   3.788   2.374
 2898SOL    HW1 2111   2.320   3.789   2.432
 2898SOL    HW2 2112   2.404   3.871   2.319
 2900SOL     OW 2113   2.159   3.759   2.033
 2900SOL    HW1 2114   2.208   3.843   2.012
 2900SOL    HW2 2115   2.221   3.694   2.078
 2901SOL     OW 2116   2.797   3.960   2.342
 2901SOL    HW1 2117   2.749   4.001   2.264
 2901SOL    HW2 2118   2.896   3.958   2.323
 2906SOL     OW 2119   2.423   3.946   3.009
 2906SOL    HW1 2120   2.461   3.862   3.046
 2906SOL    HW2 2121   2.335   3.965   3.053
 2907SOL     OW 2122   2.728   4.178   2.504
 2907SOL    HW1 2123   2.696   4.250   2.442
 2907SOL    HW2 2124   2.752   4.097   2.451
 2908SOL     OW 2125   2.879   3.763   2.615
 2908SOL    HW1 2126   2.807   3.768   2.546
 2908SOL    HW2 2127   2.855   3.694   2.684
 2913SOL     OW 2128   2.389   3.980   2.190
 2913SOL    HW1 2129   2.416   3.921   2.115
 2913SOL    HW2 2130   2.389   4.075   2.159
 2916SOL     OW 2131   2.777   3.813   3.264
 2916SOL    HW1 2132   2.802   3.793   3.169
 2916SOL    HW2 2133   2.849   3.869   3.306
 2920SOL     OW 2134   3.136   4.110   3.124
 2920SOL    HW1 2135   3.157   4.184   3.188
 2920SOL    HW2 2136   3.047   4.127   3.081
 2922SOL     OW 2137   2.428   4.261   2.727
 2922SOL    HW1 2138   2.440   4.327   2.653
 2922SOL    HW2 2139   2.474   4.295   2.810
 2926SOL     OW 2140   2.875   3.829   3.632
 2926SOL    HW1 2141   2.881   3.914   3.580
 2926SOL    HW2 2142   2.907   3.753   3.575
 2927SOL     OW 2143   2.366   3.774   3.602
 2927SOL    HW1 2144   2.324   3.717   3.532
 2927SOL    HW2 2145   2.300   3.843   3.634
 2931SOL     OW 2146   2.169   3.937   3.093
 2931SOL    HW1 2147   2.146   3.974   3.183
 2931SOL    HW2 2148   2.139   3.842   3.087
 2934SOL     OW 2149   2.169   3.787   2.480
 2934SOL    HW1 2150   2.158   3.881   2.513
 2934SOL    HW2 2151   2.164   3.724   2.557
 2939SOL     OW 2152   3.402   3.998   1.987
 2939SOL    HW1 2153   3.341   3.923   2.010
 2939SOL    HW2 2154   3.424   4.050   2.070
 2942SOL     OW 2155   2.201   4.233   2.868
 2942SOL    HW1 2156   2.149   4.150   2.851
 2942SOL    HW2 2157   2.278   4.238   2.804
 2944SOL     OW 2158   3.022   3.931   3.339
 2944SOL    HW1 2159   3.022   3.995   3.416
 2944SOL    HW2 2160   3.050   3.979   3.256
 2952SOL     OW 2161   2.533   4.188   3.131
 2952SOL    HW1 2162   2.499   4.099   3.101
 2952SOL    HW2 2163   2.559   4.242   3.051
 2953SOL     OW 2164   2.335   4.224   2.053
 2953SOL    HW1 2165   2.396   4.304   2.057
 2953SOL    HW2 2166   2.240   4.255   2.060
 2958SOL     OW 2167   3.588   3.859   2.385
 2958SOL    HW1 2168   3.661   3.842   2.318
 2958SOL    HW2 2169   3.557   3.772   2.423
 2962SOL     OW 2170   2.125   4.050   2.582
 2962SOL    HW1 2171   2.046   4.101   2.548
 2962SOL    HW2 2172   2.116   4.035   2.680
 2969SOL     OW 2173   2.876   3.960   2.833
 2969SOL    HW1 2174   2.868   3.924   2.740
 2969SOL    HW2 2175   2.874   3.884   2.898
 2972SOL     OW 2176   2.534   3.927   3.351
 2972SOL    HW1 2177   2.624   3.911   3.311
 2972SOL    HW2 2178   2.542   3.932   3.450
 2973SOL     OW 2179   1.937   4.069   1.895
 2973SOL    HW1 2180   1.845   4.041   1.866
 2973SOL    HW2 2181   1.968   4.146   1.839
 2975SOL     OW 2182   1.934   3.890   2.180
 2975SOL    HW1 2183   1.917   3.973   2.126
 2975SOL    HW2 2184   2.024   3.853   2.158
 2980SOL     OW 2185   3.087   4.049   2.311
 2980SOL    HW1 2186   3.152   3.975   2.300
 2980SOL    HW2 2187   3.107   4.099   2.395
 2988SOL     OW 2188   2.290   4.148   2.382
 2988SOL    HW1 2189   2.320   4.076   2.320
 2988SOL    HW2 2190   2.251   4.108   2.465
 2990SOL     OW 2191   3.286   3.938   2.974
 2990SOL    HW1 2192   3.338   3.873   3.029
 2990SOL    HW2 2193   3.237   4.001   3.035
 2991SOL     OW 2194   2.863   3.758   3.016
 2991SOL    HW1 2195   2.800   3.686   2.985
 2991SOL    HW2 2196   2.956   3.722   3.016
 2993SOL     OW 2197   3.214   3.776   2.030
 2993SOL    HW1 2198   3.249   3.735   1.946
 2993SOL    HW2 2199   3.124   3.738   2.050
 2994SOL     OW 2200   3.162   4.177   2.553
 2994SOL    HW1 2201   3.103   4.257   2.557
 2994SOL    HW2 2202   3.177   4.142   2.646
 2995SOL     OW 2203   3.455   3.945   2.744
 2995SOL    HW1 2204   3.371   3.944   2.798
 2995SOL    HW2 2205   3.457   4.028   2.688
 3136SOL     OW 2206   3.854   1.821   1.571
 3136SOL    HW1 2207   3.844   1.806   1.670
 3136SOL    HW2 2208   3.768   1.857   1.535
 3219SOL     OW 2209   3.854   1.794   1.851
 3219SOL    HW1 2210   3.813   1.720   1.904
 3219SOL    HW2 2211   3.918   1.845   1.909
 3264SOL     OW 2212   3.955   1.713   2.345
 3264SOL    HW1 2213   3.989   1.790   2.399
 3264SOL    HW2 2214   3.999   1.713   2.255
 3271SOL     OW 2215   3.751   1.596   1.979
 3271SOL    HW1 2216   3.732   1.500   2.000
 3271SOL    HW2 2217   3.718   1.654   2.054
 3285SOL     OW 2218   3.854   1.821   3.433
 3285SOL    HW1 2219   3.844   1.806   3.532
 3285SOL    HW2 2220   3.768   1.857   3.397
 3289SOL     OW 2221   4.075   1.801   2.715
 3289SOL    HW1 2222   4.125   1.715   2.721
 3289SOL    HW2 2223   4.140   1.878   2.712
 3296SOL     OW 2224   3.973   1.785   3.103
 3296SOL    HW1 2225   4.030   1.720   3.153
 3296SOL    HW2 2226   3.957   1.752   3.010
 3325SOL     OW 2227   3.788   1.564   3.193
 3325SOL    HW1 2228   3.742   1.646   3.159
 3325SOL    HW2 2229   3.886   1.583   3.202
 3350SOL     OW 2230   3.732   1.326   2.062
 3350SOL    HW1 2231   3.639   1.347   2.031
 3350SOL    HW2 2232   3.742   1.227   2.075
 3351SOL     OW 2233   3.812   1.801   2.789
 3351SOL    HW1 2234   3.770   1.715   2.762
 3351SOL    HW2 2235   3.906   1.804   2.755
 3527SOL     OW 2236   3.837   2.599   1.597
 3527SOL    HW1 2237   3.925   2.586   1.642
 3527SOL    HW2 2238   3.824   2.696   1.575
 3532SOL     OW 2239   4.041   2.113   1.801
 3532SOL    HW1 2240   4.112   2.184   1.807
 3532SOL    HW2 2241   3.953   2.152   1.829
 3549SOL     OW 2242   3.926   2.147   1.498
 3549SOL    HW1 2243   3.846   2.207   1.485
 3549SOL    HW2 2244   3.916   2.098   1.584
 3567SOL     OW 2245   3.802   2.418   1.386
 3567SOL    HW1 2246   3.894   2.417   1.345
 3567SOL    HW2 2247   3.796   2.492   1.453
 3598SOL     OW 2248   4.074   2.760   1.804
 3598SOL    HW1 2249   4.150   2.804   1.852
 3598SOL    HW2 2250   4.109   2.713   1.722
 3610SOL     OW 2251   3.913   2.382   1.722
 3610SOL    HW1 2252   3.972   2.342   1.652
 3610SOL    HW2 2253   3.855   2.453   1.681
 3616SOL     OW 2254   3.883   2.999   1.466
 3616SOL    HW1 2255   3.905   2.938   1.542
 3616SOL    HW2 2256   3.893   2.950   1.380
 3635SOL     OW 2257   3.829   2.875   1.726
 3635SOL    HW1 2258   3.752   2.842   1.780
 3635SOL    HW2 2259   3.914   2.845   1.768
 3646SOL     OW 2260   3.945   3.176   1.844
 3646SOL    HW1 2261   3.880   3.103   1.823
 3646SOL    HW2 2262   3.949   3.190   1.942
 3657SOL     OW 2263   3.954   2.490   1.975
 3657SOL    HW1 2264   3.861   2.488   2.012
 3657SOL    HW2 2265   3.955   2.451   1.883
 3658SOL     OW 2266   3.949   2.137   2.858
 3658SOL    HW1 2267   3.984   2.120   2.950
 3658SOL    HW2 2268   3.861   2.092   2.846
 3659SOL     OW 2269   3.743   2.230   2.509
 3659SOL    HW1 2270   3.661   2.273   2.548
 3659SOL    HW2 2271   3.715   2.157   2.446
 3666SOL     OW 2272   4.059   3.297   2.923
 3666SOL    HW1 2273   3.981   3.266   2.870
 3666SOL    HW2 2274   4.117   3.355   2.866
 3668SOL     OW 2275   3.955   3.575   2.345
 3668SOL    HW1 2276   3.989   3.652   2.399
 3668SOL    HW2 2277   3.999   3.575   2.255
 3670SOL     OW 2278   3.954   3.296   2.400
 3670SOL    HW1 2279   3.928   3.392   2.400
 3670SOL    HW2 2280   3.883   3.242   2.445
 3671SOL     OW 2281   3.964   2.953   2.748
 3671SOL    HW1 2282   3.978   2.869   2.800
 3671SOL    HW2 2283   3.909   3.017   2.803
 3674SOL     OW 2284   3.846   2.505   2.425
 3674SOL    HW1 2285   3.801   2.417   2.442
 3674SOL    HW2 2286   3.845   2.559   2.509
 3675SOL     OW 2287   3.751   3.458   1.979
 3675SOL    HW1 2288   3.732   3.362   2.000
 3675SOL    HW2 2289   3.718   3.516   2.054
 3676SOL     OW 2290   3.837   2.599   3.459
 3676SOL    HW1 2291   3.925   2.586   3.504
 3676SOL    HW2 2292   3.824   2.696   3.437
 3679SOL     OW 2293   3.921   2.838   3.126
 3679SOL    HW1 2294   4.010   2.793   3.112
 3679SOL    HW2 2295   3.848   2.773   3.107
 3688SOL     OW 2296   3.800   2.673   2.651
 3688SOL    HW1 2297   3.899   2.661   2.660
 3688SOL    HW2 2298   3.776   2.768   2.672
 3695SOL     OW 2299   4.045   2.805   2.104
 3695SOL    HW1 2300   4.127   2.844   2.062
 3695SOL    HW2 2301   4.018   2.723   2.055
 3698SOL     OW 2302   3.926   2.147   3.360
 3698SOL    HW1 2303   3.846   2.207   3.347
 3698SOL    HW2 2304   3.916   2.098   3.446
 3702SOL     OW 2305   4.106   2.562   2.342
 3702SOL    HW1 2306   4.151   2.472   2.339
 3702SOL    HW2 2307   4.012   2.551   2.375
 3709SOL     OW 2308   4.021   1.897   2.033
 3709SOL    HW1 2309   4.070   1.981   2.012
 3709SOL    HW2 2310   4.083   1.832   2.078
 3713SOL     OW 2311   4.183   3.014   2.603
 3713SOL    HW1 2312   4.112   2.987   2.668
 3713SOL    HW2 2313   4.157   2.986   2.510
 3716SOL     OW 2314   3.802   2.418   3.248
 3716SOL    HW1 2315   3.894   2.417   3.207
 3716SOL    HW2 2316   3.796   2.492   3.315
 3727SOL     OW 2317   4.134   2.675   3.113
 3727SOL    HW1 2318   4.220   2.687   3.163
 3727SOL    HW2 2319   4.092   2.588   3.140
 3729SOL     OW 2320   3.788   3.426   3.193
 3729SOL    HW1 2321   3.742   3.508   3.159
 3729SOL    HW2 2322   3.886   3.445   3.202
 3730SOL     OW 2323   4.091   2.962   2.363
 3730SOL    HW1 2324   4.084   3.045   2.307
 3730SOL    HW2 2325   4.095   2.882   2.303
 3731SOL     OW 2326   4.290   2.399   2.727
 3731SOL    HW1 2327   4.302   2.465   2.653
 3731SOL    HW2 2328   4.336   2.433   2.810
 3740SOL     OW 2329   4.031   2.075   3.093
 3740SOL    HW1 2330   4.008   2.112   3.183
 3740SOL    HW2 2331   4.001   1.980   3.087
 3741SOL     OW 2332   3.761   3.172   3.144
 3741SOL    HW1 2333   3.814   3.123   3.212
 3741SOL    HW2 2334   3.783   3.270   3.149
 3743SOL     OW 2335   4.031   1.925   2.480
 3743SOL    HW1 2336   4.020   2.019   2.513
 3743SOL    HW2 2337   4.026   1.862   2.557
 3750SOL     OW 2338   4.043   2.672   2.811
 3750SOL    HW1 2339   4.136   2.708   2.816
 3750SOL    HW2 2340   4.037   2.587   2.863
 3751SOL     OW 2341   4.063   2.371   2.868
 3751SOL    HW1 2342   4.011   2.288   2.851
 3751SOL    HW2 2343   4.140   2.376   2.804
 3754SOL     OW 2344   3.732   3.188   2.062
 3754SOL    HW1 2345   3.639   3.209   2.031
 3754SOL    HW2 2346   3.742   3.089   2.075
 3755SOL     OW 2347   3.812   3.663   2.789
 3755SOL    HW1 2348   3.770   3.577   2.762
 3755SOL    HW2 2349   3.906   3.666   2.755
 3758SOL     OW 2350   3.764   2.406   2.976
 3758SOL    HW1 2351   3.849   2.373   2.935
 3758SOL    HW2 2352   3.777   2.421   3.074
 3759SOL     OW 2353   3.913   2.382   3.584
 3759SOL    HW1 2354   3.972   2.342   3.514
 3759SOL    HW2 2355   3.855   2.453   3.543
 3764SOL     OW 2356   4.197   2.362   2.053
 3764SOL    HW1 2357   4.258   2.442   2.057
 3764SOL    HW2 2358   4.102   2.393   2.060
 3765SOL     OW 2359   3.883   2.999   3.328
 3765SOL    HW1 2360   3.905   2.938   3.404
 3765SOL    HW2 2361   3.893   2.950   3.242
 3768SOL     OW 2362   3.807   3.120   2.884
 3768SOL    HW1 2363   3.802   3.119   2.984
 3768SOL    HW2 2364   3.724   3.079   2.846
 3774SOL     OW 2365   3.987   2.188   2.582
 3774SOL    HW1 2366   3.908   2.239   2.548
 3774SOL    HW2 2367   3.978   2.173   2.680
 3782SOL     OW 2368   3.979   3.210   2.152
 3782SOL    HW1 2369   3.883   3.211   2.125
 3782SOL    HW2 2370   3.991   3.263   2.236
 3783SOL     OW 2371   3.829   2.875   3.588
 3783SOL    HW1 2372   3.752   2.842   3.642
 3783SOL    HW2 2373   3.914   2.845   3.630
 3785SOL     OW 2374   3.799   2.207   1.895
 3785SOL    HW1 2375   3.707   2.179   1.866
 3785SOL    HW2 2376   3.830   2.284   1.839
 3786SOL     OW 2377   3.796   2.028   2.180
 3786SOL    HW1 2378   3.779   2.111   2.126
 3786SOL    HW2 2379   3.886   1.991   2.158
 3790SOL     OW 2380   4.318   2.607   2.514
 3790SOL    HW1 2381   4.368   2.692   2.495
 3790SOL    HW2 2382   4.230   2.609   2.466
 3796SOL     OW 2383   3.803   3.102   2.515
 3796SOL    HW1 2384   3.802   3.055   2.603
 3796SOL    HW2 2385   3.885   3.074   2.464
 3798SOL     OW 2386   4.152   2.286   2.382
 3798SOL    HW1 2387   4.182   2.214   2.320
 3798SOL    HW2 2388   4.113   2.246   2.465
 3799SOL     OW 2389   4.041   2.409   3.142
 3799SOL    HW1 2390   4.079   2.350   3.214
 3799SOL    HW2 2391   4.081   2.383   3.054
 3804SOL     OW 2392   3.763   2.939   2.162
 3804SOL    HW1 2393   3.862   2.928   2.153
 3804SOL    HW2 2394   3.723   2.853   2.194
 3898SOL     OW 2395   3.799   2.207   3.757
 3898SOL    HW1 2396   3.707   2.179   3.728
 3898SOL    HW2 2397   3.830   2.284   3.701
   5.05903   5.05903   5.05903
