; mobley_1896013_GMX.itp created by acpype (v: 2023.10.27) on Thu May 21 00:09:23 2026

[ atomtypes ]
;name   bond_type     mass     charge   ptype   sigma         epsilon       Amb
 c6       c6          0.00000  0.00000   A     3.39771e-01   4.51035e-01 ; 1.91  0.1078
 os       os          0.00000  0.00000   A     3.15610e-01   3.03758e-01 ; 1.77  0.0726
 oh       oh          0.00000  0.00000   A     3.24287e-01   3.89112e-01 ; 1.82  0.0930
 h1       h1          0.00000  0.00000   A     2.42200e-01   8.70272e-02 ; 1.36  0.0208
 h2       h2          0.00000  0.00000   A     2.24382e-01   8.70272e-02 ; 1.26  0.0208
 ho       ho          0.00000  0.00000   A     5.37925e-02   1.96648e-02 ; 0.30  0.0047

[ moleculetype ]
;name            nrexcl
 mobley_1896013   3

[ atoms ]
;   nr  type  resi  res  atom  cgnr     charge      mass       ; qtot   bond_type
     1   c6     1   MOL    C1    1     0.096400     12.01000 ; qtot 0.096
     2   c6     1   MOL    C2    2     0.079100     12.01000 ; qtot 0.175
     3   c6     1   MOL    C3    3     0.116100     12.01000 ; qtot 0.292
     4   c6     1   MOL    C4    4     0.100100     12.01000 ; qtot 0.392
     5   c6     1   MOL    C5    5     0.295900     12.01000 ; qtot 0.688
     6   os     1   MOL    O1    6    -0.440600     16.00000 ; qtot 0.247
     7   oh     1   MOL    O2    7    -0.573800     16.00000 ; qtot -0.327
     8   oh     1   MOL    O3    8    -0.561800     16.00000 ; qtot -0.889
     9   oh     1   MOL    O4    9    -0.574800     16.00000 ; qtot -1.463
    10   oh     1   MOL    O5   10    -0.627800     16.00000 ; qtot -2.091
    11   h1     1   MOL    H1   11     0.063700      1.00800 ; qtot -2.027
    12   h1     1   MOL    H2   12     0.063700      1.00800 ; qtot -1.964
    13   h1     1   MOL    H3   13     0.041700      1.00800 ; qtot -1.922
    14   h1     1   MOL    H4   14     0.107700      1.00800 ; qtot -1.814
    15   h1     1   MOL    H5   15     0.085700      1.00800 ; qtot -1.729
    16   h2     1   MOL    H6   16     0.085700      1.00800 ; qtot -1.643
    17   ho     1   MOL    H7   17     0.401000      1.00800 ; qtot -1.242
    18   ho     1   MOL    H8   18     0.397000      1.00800 ; qtot -0.845
    19   ho     1   MOL    H9   19     0.421000      1.00800 ; qtot -0.424
    20   ho     1   MOL   H10   20     0.424000      1.00800 ; qtot 0.000

[ bonds ]
;   ai     aj funct   r             k
     1      2   1    1.5384e-01    1.8979e+05 ;     C1 - C2    
     1      6   1    1.4300e-01    2.3412e+05 ;     C1 - O1    
     1     11   1    1.0984e-01    2.8620e+05 ;     C1 - H1    
     1     12   1    1.0984e-01    2.8620e+05 ;     C1 - H2    
     2      3   1    1.5384e-01    1.8979e+05 ;     C2 - C3    
     2      7   1    1.4241e-01    2.3870e+05 ;     C2 - O2    
     2     13   1    1.0984e-01    2.8620e+05 ;     C2 - H3    
     3      4   1    1.5384e-01    1.8979e+05 ;     C3 - C4    
     3      8   1    1.4241e-01    2.3870e+05 ;     C3 - O3    
     3     14   1    1.0984e-01    2.8620e+05 ;     C3 - H4    
     4      5   1    1.5384e-01    1.8979e+05 ;     C4 - C5    
     4      9   1    1.4241e-01    2.3870e+05 ;     C4 - O4    
     4     15   1    1.0984e-01    2.8620e+05 ;     C4 - H5    
     5      6   1    1.4300e-01    2.3412e+05 ;     C5 - O1    
     5     10   1    1.4241e-01    2.3870e+05 ;     C5 - O5    
     5     16   1    1.0985e-01    2.8609e+05 ;     C5 - H6    
     7     17   1    9.7250e-02    4.4811e+05 ;     O2 - H7    
     8     18   1    9.7250e-02    4.4811e+05 ;     O3 - H8    
     9     19   1    9.7250e-02    4.4811e+05 ;     O4 - H9    
    10     20   1    9.7250e-02    4.4811e+05 ;     O5 - H10   

[ pairs ]
;   ai     aj    funct
     1      4      1 ;     C1 - C4    
     1      8      1 ;     C1 - O3    
     1     10      1 ;     C1 - O5    
     1     14      1 ;     C1 - H4    
     1     16      1 ;     C1 - H6    
     1     17      1 ;     C1 - H7    
     2      5      1 ;     C2 - C5    
     2      9      1 ;     C2 - O4    
     2     15      1 ;     C2 - H5    
     2     18      1 ;     C2 - H8    
     3     10      1 ;     C3 - O5    
     3     16      1 ;     C3 - H6    
     3     17      1 ;     C3 - H7    
     3     19      1 ;     C3 - H9    
     4      7      1 ;     C4 - O2    
     4     13      1 ;     C4 - H3    
     4     18      1 ;     C4 - H8    
     4     20      1 ;     C4 - H10   
     5      8      1 ;     C5 - O3    
     5     14      1 ;     C5 - H4    
     5     19      1 ;     C5 - H9    
     6      3      1 ;     O1 - C3    
     6      7      1 ;     O1 - O2    
     6      9      1 ;     O1 - O4    
     6     13      1 ;     O1 - H3    
     6     15      1 ;     O1 - H5    
     6     20      1 ;     O1 - H10   
     7      8      1 ;     O2 - O3    
     7     14      1 ;     O2 - H4    
     8      9      1 ;     O3 - O4    
     8     13      1 ;     O3 - H3    
     8     15      1 ;     O3 - H5    
     9     10      1 ;     O4 - O5    
     9     14      1 ;     O4 - H4    
     9     16      1 ;     O4 - H6    
    10     15      1 ;     O5 - H5    
    11      3      1 ;     H1 - C3    
    11      5      1 ;     H1 - C5    
    11      7      1 ;     H1 - O2    
    11     13      1 ;     H1 - H3    
    12      3      1 ;     H2 - C3    
    12      5      1 ;     H2 - C5    
    12      7      1 ;     H2 - O2    
    12     13      1 ;     H2 - H3    
    13     14      1 ;     H3 - H4    
    13     17      1 ;     H3 - H7    
    14     15      1 ;     H4 - H5    
    14     18      1 ;     H4 - H8    
    15     16      1 ;     H5 - H6    
    15     19      1 ;     H5 - H9    
    16     20      1 ;     H6 - H10   

[ angles ]
;   ai     aj     ak    funct   theta         cth
     1      2      3      1    1.1106e+02    5.0359e+02 ;     C1 - C2     - C3    
     1      2      7      1    1.1005e+02    6.4065e+02 ;     C1 - C2     - O2    
     1      2     13      1    1.0918e+02    3.6217e+02 ;     C1 - C2     - H3    
     1      6      5      1    1.1330e+02    7.3873e+02 ;     C1 - O1     - C5    
     2      1      6      1    1.1009e+02    6.3948e+02 ;     C2 - C1     - O1    
     2      1     11      1    1.0918e+02    3.6217e+02 ;     C2 - C1     - H1    
     2      1     12      1    1.0918e+02    3.6217e+02 ;     C2 - C1     - H2    
     2      3      4      1    1.1106e+02    5.0359e+02 ;     C2 - C3     - C4    
     2      3      8      1    1.1005e+02    6.4065e+02 ;     C2 - C3     - O3    
     2      3     14      1    1.0918e+02    3.6217e+02 ;     C2 - C3     - H4    
     2      7     17      1    1.0707e+02    5.4584e+02 ;     C2 - O2     - H7    
     3      2      7      1    1.1005e+02    6.4065e+02 ;     C3 - C2     - O2    
     3      2     13      1    1.0918e+02    3.6217e+02 ;     C3 - C2     - H3    
     3      4      5      1    1.1106e+02    5.0359e+02 ;     C3 - C4     - C5    
     3      4      9      1    1.1005e+02    6.4065e+02 ;     C3 - C4     - O4    
     3      4     15      1    1.0918e+02    3.6217e+02 ;     C3 - C4     - H5    
     3      8     18      1    1.0707e+02    5.4584e+02 ;     C3 - O3     - H8    
     4      3      8      1    1.1005e+02    6.4065e+02 ;     C4 - C3     - O3    
     4      3     14      1    1.0918e+02    3.6217e+02 ;     C4 - C3     - H4    
     4      5      6      1    1.1009e+02    6.3948e+02 ;     C4 - C5     - O1    
     4      5     10      1    1.1005e+02    6.4065e+02 ;     C4 - C5     - O5    
     4      5     16      1    1.0998e+02    3.6083e+02 ;     C4 - C5     - H6    
     4      9     19      1    1.0707e+02    5.4584e+02 ;     C4 - O4     - H9    
     5      4      9      1    1.1005e+02    6.4065e+02 ;     C5 - C4     - O4    
     5      4     15      1    1.0918e+02    3.6217e+02 ;     C5 - C4     - H5    
     5     10     20      1    1.0707e+02    5.4584e+02 ;     C5 - O5     - H10   
     6      1     11      1    1.0808e+02    4.7430e+02 ;     O1 - C1     - H1    
     6      1     12      1    1.0808e+02    4.7430e+02 ;     O1 - C1     - H2    
     6      5     10      1    1.0868e+02    8.2090e+02 ;     O1 - C5     - O5    
     6      5     16      1    1.0944e+02    4.7137e+02 ;     O1 - C5     - H6    
     7      2     13      1    1.0996e+02    4.7187e+02 ;     O2 - C2     - H3    
     8      3     14      1    1.0996e+02    4.7187e+02 ;     O3 - C3     - H4    
     9      4     15      1    1.0996e+02    4.7187e+02 ;     O4 - C4     - H5    
    10      5     16      1    1.0971e+02    4.7237e+02 ;     O5 - C5     - H6    
    11      1     12      1    1.0750e+02    2.9932e+02 ;     H1 - C1     - H2    

[ dihedrals ] ; propers
; for gromacs 4.5 or higher, using funct 9
;    i      j      k      l   func   phase     kd      pn
     1      2      3      4      9     0.00   2.17568   3 ;     C1-    C2-    C3-    C4
     1      2      3      8      9     0.00   0.75312   3 ;     C1-    C2-    C3-    O3
     1      2      3     14      9     0.00   0.65084   3 ;     C1-    C2-    C3-    H4
     1      2      7     17      9     0.00   0.25104   3 ;     C1-    C2-    O2-    H7
     1      6      5      4      9     0.00   4.85344   3 ;     C1-    O1-    C5-    C4
     1      6      5      4      9     0.00   5.77392   2 ;     C1-    O1-    C5-    C4
     1      6      5      4      9   180.00   1.46440   1 ;     C1-    O1-    C5-    C4
     1      6      5     10      9     0.00   2.66381   3 ;     C1-    O1-    C5-    O5
     1      6      5     10      9     0.00   3.59824   2 ;     C1-    O1-    C5-    O5
     1      6      5     10      9   180.00   6.52704   1 ;     C1-    O1-    C5-    O5
     1      6      5     16      9     0.00   1.60387   3 ;     C1-    O1-    C5-    H6
     2      1      6      5      9     0.00   4.85344   3 ;     C2-    C1-    O1-    C5
     2      1      6      5      9     0.00   5.77392   2 ;     C2-    C1-    O1-    C5
     2      1      6      5      9   180.00   1.46440   1 ;     C2-    C1-    O1-    C5
     2      3      4      5      9     0.00   2.17568   3 ;     C2-    C3-    C4-    C5
     2      3      4      9      9     0.00   0.75312   3 ;     C2-    C3-    C4-    O4
     2      3      4     15      9     0.00   0.65084   3 ;     C2-    C3-    C4-    H5
     2      3      8     18      9     0.00   0.25104   3 ;     C2-    C3-    O3-    H8
     3      2      7     17      9     0.00   0.25104   3 ;     C3-    C2-    O2-    H7
     3      4      5      6      9     0.00   0.65084   3 ;     C3-    C4-    C5-    O1
     3      4      5     10      9     0.00   0.75312   3 ;     C3-    C4-    C5-    O5
     3      4      5     16      9     0.00   0.65084   3 ;     C3-    C4-    C5-    H6
     3      4      9     19      9     0.00   0.25104   3 ;     C3-    C4-    O4-    H9
     4      3      2      7      9     0.00   0.75312   3 ;     C4-    C3-    C2-    O2
     4      3      2     13      9     0.00   0.65084   3 ;     C4-    C3-    C2-    H3
     4      3      8     18      9     0.00   0.25104   3 ;     C4-    C3-    O3-    H8
     4      5     10     20      9     0.00   0.25104   3 ;     C4-    C5-    O5-   H10
     5      4      3      8      9     0.00   0.75312   3 ;     C5-    C4-    C3-    O3
     5      4      3     14      9     0.00   0.65084   3 ;     C5-    C4-    C3-    H4
     5      4      9     19      9     0.00   0.25104   3 ;     C5-    C4-    O4-    H9
     6      1      2      3      9     0.00   0.65084   3 ;     O1-    C1-    C2-    C3
     6      1      2      7      9     0.00   4.47688   3 ;     O1-    C1-    C2-    O2
     6      1      2      7      9   180.00   2.80328   1 ;     O1-    C1-    C2-    O2
     6      1      2      7      9   180.00   3.05432   2 ;     O1-    C1-    C2-    O2
     6      1      2     13      9     0.00   0.00000   0 ;     O1-    C1-    C2-    H3
     6      1      2     13      9     0.00   1.04600   1 ;     O1-    C1-    C2-    H3
     6      5      4      9      9     0.00   4.47688   3 ;     O1-    C5-    C4-    O4
     6      5      4      9      9   180.00   2.80328   1 ;     O1-    C5-    C4-    O4
     6      5      4      9      9   180.00   3.05432   2 ;     O1-    C5-    C4-    O4
     6      5      4     15      9     0.00   0.00000   0 ;     O1-    C5-    C4-    H5
     6      5      4     15      9     0.00   1.04600   1 ;     O1-    C5-    C4-    H5
     6      5     10     20      9     0.00   0.69733   3 ;     O1-    C5-    O5-   H10
     7      2      3      8      9     0.00   4.18400   1 ;     O2-    C2-    C3-    O3
     7      2      3      8      9     0.00   6.02496   3 ;     O2-    C2-    C3-    O3
     7      2      3     14      9     0.00   0.00000   0 ;     O2-    C2-    C3-    H4
     7      2      3     14      9     0.00   1.04600   1 ;     O2-    C2-    C3-    H4
     8      3      2     13      9     0.00   0.00000   0 ;     O3-    C3-    C2-    H3
     8      3      2     13      9     0.00   1.04600   1 ;     O3-    C3-    C2-    H3
     8      3      4      9      9     0.00   4.18400   1 ;     O3-    C3-    C4-    O4
     8      3      4      9      9     0.00   6.02496   3 ;     O3-    C3-    C4-    O4
     8      3      4     15      9     0.00   0.00000   0 ;     O3-    C3-    C4-    H5
     8      3      4     15      9     0.00   1.04600   1 ;     O3-    C3-    C4-    H5
     9      4      3     14      9     0.00   0.00000   0 ;     O4-    C4-    C3-    H4
     9      4      3     14      9     0.00   1.04600   1 ;     O4-    C4-    C3-    H4
     9      4      5     10      9     0.00   4.18400   1 ;     O4-    C4-    C5-    O5
     9      4      5     10      9     0.00   6.02496   3 ;     O4-    C4-    C5-    O5
     9      4      5     16      9     0.00   0.65084   3 ;     O4-    C4-    C5-    H6
    10      5      4     15      9     0.00   0.00000   0 ;     O5-    C5-    C4-    H5
    10      5      4     15      9     0.00   1.04600   1 ;     O5-    C5-    C4-    H5
    11      1      2      3      9     0.00   0.65084   3 ;     H1-    C1-    C2-    C3
    11      1      2      7      9     0.00   0.00000   0 ;     H1-    C1-    C2-    O2
    11      1      2      7      9     0.00   1.04600   1 ;     H1-    C1-    C2-    O2
    11      1      2     13      9     0.00   0.65084   3 ;     H1-    C1-    C2-    H3
    11      1      6      5      9     0.00   1.41001   3 ;     H1-    C1-    O1-    C5
    12      1      2      3      9     0.00   0.65084   3 ;     H2-    C1-    C2-    C3
    12      1      2      7      9     0.00   0.00000   0 ;     H2-    C1-    C2-    O2
    12      1      2      7      9     0.00   1.04600   1 ;     H2-    C1-    C2-    O2
    12      1      2     13      9     0.00   0.65084   3 ;     H2-    C1-    C2-    H3
    12      1      6      5      9     0.00   1.41001   3 ;     H2-    C1-    O1-    C5
    13      2      3     14      9     0.00   0.65084   3 ;     H3-    C2-    C3-    H4
    13      2      7     17      9     0.00   0.51463   3 ;     H3-    C2-    O2-    H7
    14      3      4     15      9     0.00   0.65084   3 ;     H4-    C3-    C4-    H5
    14      3      8     18      9     0.00   0.51463   3 ;     H4-    C3-    O3-    H8
    15      4      5     16      9     0.00   0.65084   3 ;     H5-    C4-    C5-    H6
    15      4      9     19      9     0.00   0.51463   3 ;     H5-    C4-    O4-    H9
    16      5     10     20      9     0.00   0.69733   3 ;     H6-    C5-    O5-   H10
