; mobley_6812653_GMX.itp created by acpype (v: 2023.10.27) on Wed May 20 23:43:21 2026

[ atomtypes ]
;name   bond_type     mass     charge   ptype   sigma         epsilon       Amb
 c3       c3          0.00000  0.00000   A     3.39771e-01   4.51035e-01 ; 1.91  0.1078
 hc       hc          0.00000  0.00000   A     2.60018e-01   8.70272e-02 ; 1.46  0.0208

[ moleculetype ]
;name            nrexcl
 mobley_6812653   3

[ atoms ]
;   nr  type  resi  res  atom  cgnr     charge      mass       ; qtot   bond_type
     1   c3     1   MOL    C1    1    -0.093100     12.01000 ; qtot -0.093
     2   c3     1   MOL    C2    2    -0.093100     12.01000 ; qtot -0.186
     3   c3     1   MOL    C3    3    -0.080400     12.01000 ; qtot -0.267
     4   c3     1   MOL    C4    4    -0.080400     12.01000 ; qtot -0.347
     5   c3     1   MOL    C5    5    -0.079400     12.01000 ; qtot -0.426
     6   c3     1   MOL    C6    6    -0.079400     12.01000 ; qtot -0.506
     7   hc     1   MOL    H1    7     0.032700      1.00800 ; qtot -0.473
     8   hc     1   MOL    H2    8     0.032700      1.00800 ; qtot -0.440
     9   hc     1   MOL    H3    9     0.032700      1.00800 ; qtot -0.408
    10   hc     1   MOL    H4   10     0.032700      1.00800 ; qtot -0.375
    11   hc     1   MOL    H5   11     0.032700      1.00800 ; qtot -0.342
    12   hc     1   MOL    H6   12     0.032700      1.00800 ; qtot -0.310
    13   hc     1   MOL    H7   13     0.038700      1.00800 ; qtot -0.271
    14   hc     1   MOL    H8   14     0.038700      1.00800 ; qtot -0.232
    15   hc     1   MOL    H9   15     0.038700      1.00800 ; qtot -0.193
    16   hc     1   MOL   H10   16     0.038700      1.00800 ; qtot -0.155
    17   hc     1   MOL   H11   17     0.038700      1.00800 ; qtot -0.116
    18   hc     1   MOL   H12   18     0.038700      1.00800 ; qtot -0.077
    19   hc     1   MOL   H13   19     0.038700      1.00800 ; qtot -0.039
    20   hc     1   MOL   H14   20     0.038700      1.00800 ; qtot 0.000

[ bonds ]
;   ai     aj funct   r             k
     1      3   1    1.5354e-01    1.9154e+05 ;     C1 - C3    
     1      7   1    1.0962e-01    2.8891e+05 ;     C1 - H1    
     1      8   1    1.0962e-01    2.8891e+05 ;     C1 - H2    
     1      9   1    1.0962e-01    2.8891e+05 ;     C1 - H3    
     2      4   1    1.5354e-01    1.9154e+05 ;     C2 - C4    
     2     10   1    1.0962e-01    2.8891e+05 ;     C2 - H4    
     2     11   1    1.0962e-01    2.8891e+05 ;     C2 - H5    
     2     12   1    1.0962e-01    2.8891e+05 ;     C2 - H6    
     3      5   1    1.5354e-01    1.9154e+05 ;     C3 - C5    
     3     13   1    1.0962e-01    2.8891e+05 ;     C3 - H7    
     3     14   1    1.0962e-01    2.8891e+05 ;     C3 - H8    
     4      6   1    1.5354e-01    1.9154e+05 ;     C4 - C6    
     4     15   1    1.0962e-01    2.8891e+05 ;     C4 - H9    
     4     16   1    1.0962e-01    2.8891e+05 ;     C4 - H10   
     5      6   1    1.5354e-01    1.9154e+05 ;     C5 - C6    
     5     17   1    1.0962e-01    2.8891e+05 ;     C5 - H11   
     5     18   1    1.0962e-01    2.8891e+05 ;     C5 - H12   
     6     19   1    1.0962e-01    2.8891e+05 ;     C6 - H13   
     6     20   1    1.0962e-01    2.8891e+05 ;     C6 - H14   

[ pairs ]
;   ai     aj    funct
     1      6      1 ;     C1 - C6    
     1     17      1 ;     C1 - H11   
     1     18      1 ;     C1 - H12   
     2      5      1 ;     C2 - C5    
     2     19      1 ;     C2 - H13   
     2     20      1 ;     C2 - H14   
     3      4      1 ;     C3 - C4    
     3     19      1 ;     C3 - H13   
     3     20      1 ;     C3 - H14   
     4     17      1 ;     C4 - H11   
     4     18      1 ;     C4 - H12   
     5     15      1 ;     C5 - H9    
     5     16      1 ;     C5 - H10   
     6     10      1 ;     C6 - H4    
     6     11      1 ;     C6 - H5    
     6     12      1 ;     C6 - H6    
     6     13      1 ;     C6 - H7    
     6     14      1 ;     C6 - H8    
     7      5      1 ;     H1 - C5    
     7     13      1 ;     H1 - H7    
     7     14      1 ;     H1 - H8    
     8      5      1 ;     H2 - C5    
     8     13      1 ;     H2 - H7    
     8     14      1 ;     H2 - H8    
     9      5      1 ;     H3 - C5    
     9     13      1 ;     H3 - H7    
     9     14      1 ;     H3 - H8    
    10     15      1 ;     H4 - H9    
    10     16      1 ;     H4 - H10   
    11     15      1 ;     H5 - H9    
    11     16      1 ;     H5 - H10   
    12     15      1 ;     H6 - H9    
    12     16      1 ;     H6 - H10   
    13     17      1 ;     H7 - H11   
    13     18      1 ;     H7 - H12   
    14     17      1 ;     H8 - H11   
    14     18      1 ;     H8 - H12   
    15     19      1 ;     H9 - H13   
    15     20      1 ;     H9 - H14   
    16     19      1 ;    H10 - H13   
    16     20      1 ;    H10 - H14   
    17     19      1 ;    H11 - H13   
    17     20      1 ;    H11 - H14   
    18     19      1 ;    H12 - H13   
    18     20      1 ;    H12 - H14   

[ angles ]
;   ai     aj     ak    funct   theta         cth
     1      3      5      1    1.1263e+02    5.0099e+02 ;     C1 - C3     - C5    
     1      3     13      1    1.0968e+02    3.6208e+02 ;     C1 - C3     - H7    
     1      3     14      1    1.0968e+02    3.6208e+02 ;     C1 - C3     - H8    
     2      4      6      1    1.1263e+02    5.0099e+02 ;     C2 - C4     - C6    
     2      4     15      1    1.0968e+02    3.6208e+02 ;     C2 - C4     - H9    
     2      4     16      1    1.0968e+02    3.6208e+02 ;     C2 - C4     - H10   
     3      1      7      1    1.0968e+02    3.6208e+02 ;     C3 - C1     - H1    
     3      1      8      1    1.0968e+02    3.6208e+02 ;     C3 - C1     - H2    
     3      1      9      1    1.0968e+02    3.6208e+02 ;     C3 - C1     - H3    
     3      5      6      1    1.1263e+02    5.0099e+02 ;     C3 - C5     - C6    
     3      5     17      1    1.0968e+02    3.6208e+02 ;     C3 - C5     - H11   
     3      5     18      1    1.0968e+02    3.6208e+02 ;     C3 - C5     - H12   
     4      2     10      1    1.0968e+02    3.6208e+02 ;     C4 - C2     - H4    
     4      2     11      1    1.0968e+02    3.6208e+02 ;     C4 - C2     - H5    
     4      2     12      1    1.0968e+02    3.6208e+02 ;     C4 - C2     - H6    
     4      6      5      1    1.1263e+02    5.0099e+02 ;     C4 - C6     - C5    
     4      6     19      1    1.0968e+02    3.6208e+02 ;     C4 - C6     - H13   
     4      6     20      1    1.0968e+02    3.6208e+02 ;     C4 - C6     - H14   
     5      3     13      1    1.0968e+02    3.6208e+02 ;     C5 - C3     - H7    
     5      3     14      1    1.0968e+02    3.6208e+02 ;     C5 - C3     - H8    
     5      6     19      1    1.0968e+02    3.6208e+02 ;     C5 - C6     - H13   
     5      6     20      1    1.0968e+02    3.6208e+02 ;     C5 - C6     - H14   
     6      4     15      1    1.0968e+02    3.6208e+02 ;     C6 - C4     - H9    
     6      4     16      1    1.0968e+02    3.6208e+02 ;     C6 - C4     - H10   
     6      5     17      1    1.0968e+02    3.6208e+02 ;     C6 - C5     - H11   
     6      5     18      1    1.0968e+02    3.6208e+02 ;     C6 - C5     - H12   
     7      1      8      1    1.0773e+02    2.9957e+02 ;     H1 - C1     - H2    
     7      1      9      1    1.0773e+02    2.9957e+02 ;     H1 - C1     - H3    
     8      1      9      1    1.0773e+02    2.9957e+02 ;     H2 - C1     - H3    
    10      2     11      1    1.0773e+02    2.9957e+02 ;     H4 - C2     - H5    
    10      2     12      1    1.0773e+02    2.9957e+02 ;     H4 - C2     - H6    
    11      2     12      1    1.0773e+02    2.9957e+02 ;     H5 - C2     - H6    
    13      3     14      1    1.0773e+02    2.9957e+02 ;     H7 - C3     - H8    
    15      4     16      1    1.0773e+02    2.9957e+02 ;     H9 - C4     - H10   
    17      5     18      1    1.0773e+02    2.9957e+02 ;    H11 - C5     - H12   
    19      6     20      1    1.0773e+02    2.9957e+02 ;    H13 - C6     - H14   

[ dihedrals ] ; propers
; for gromacs 4.5 or higher, using funct 9
;    i      j      k      l   func   phase     kd      pn
     1      3      5      6      9     0.00   2.17568   3 ;     C1-    C3-    C5-    C6
     1      3      5     17      9     0.00   0.54392   3 ;     C1-    C3-    C5-   H11
     1      3      5     18      9     0.00   0.54392   3 ;     C1-    C3-    C5-   H12
     2      4      6      5      9     0.00   2.17568   3 ;     C2-    C4-    C6-    C5
     2      4      6     19      9     0.00   0.54392   3 ;     C2-    C4-    C6-   H13
     2      4      6     20      9     0.00   0.54392   3 ;     C2-    C4-    C6-   H14
     3      5      6      4      9     0.00   2.17568   3 ;     C3-    C5-    C6-    C4
     3      5      6     19      9     0.00   0.54392   3 ;     C3-    C5-    C6-   H13
     3      5      6     20      9     0.00   0.54392   3 ;     C3-    C5-    C6-   H14
     4      6      5     17      9     0.00   0.54392   3 ;     C4-    C6-    C5-   H11
     4      6      5     18      9     0.00   0.54392   3 ;     C4-    C6-    C5-   H12
     5      6      4     15      9     0.00   0.54392   3 ;     C5-    C6-    C4-    H9
     5      6      4     16      9     0.00   0.54392   3 ;     C5-    C6-    C4-   H10
     6      4      2     10      9     0.00   0.54392   3 ;     C6-    C4-    C2-    H4
     6      4      2     11      9     0.00   0.54392   3 ;     C6-    C4-    C2-    H5
     6      4      2     12      9     0.00   0.54392   3 ;     C6-    C4-    C2-    H6
     6      5      3     13      9     0.00   0.54392   3 ;     C6-    C5-    C3-    H7
     6      5      3     14      9     0.00   0.54392   3 ;     C6-    C5-    C3-    H8
     7      1      3      5      9     0.00   0.54392   3 ;     H1-    C1-    C3-    C5
     7      1      3     13      9     0.00   0.50208   3 ;     H1-    C1-    C3-    H7
     7      1      3     14      9     0.00   0.50208   3 ;     H1-    C1-    C3-    H8
     8      1      3      5      9     0.00   0.54392   3 ;     H2-    C1-    C3-    C5
     8      1      3     13      9     0.00   0.50208   3 ;     H2-    C1-    C3-    H7
     8      1      3     14      9     0.00   0.50208   3 ;     H2-    C1-    C3-    H8
     9      1      3      5      9     0.00   0.54392   3 ;     H3-    C1-    C3-    C5
     9      1      3     13      9     0.00   0.50208   3 ;     H3-    C1-    C3-    H7
     9      1      3     14      9     0.00   0.50208   3 ;     H3-    C1-    C3-    H8
    10      2      4     15      9     0.00   0.50208   3 ;     H4-    C2-    C4-    H9
    10      2      4     16      9     0.00   0.50208   3 ;     H4-    C2-    C4-   H10
    11      2      4     15      9     0.00   0.50208   3 ;     H5-    C2-    C4-    H9
    11      2      4     16      9     0.00   0.50208   3 ;     H5-    C2-    C4-   H10
    12      2      4     15      9     0.00   0.50208   3 ;     H6-    C2-    C4-    H9
    12      2      4     16      9     0.00   0.50208   3 ;     H6-    C2-    C4-   H10
    13      3      5     17      9     0.00   0.50208   3 ;     H7-    C3-    C5-   H11
    13      3      5     18      9     0.00   0.50208   3 ;     H7-    C3-    C5-   H12
    14      3      5     17      9     0.00   0.50208   3 ;     H8-    C3-    C5-   H11
    14      3      5     18      9     0.00   0.50208   3 ;     H8-    C3-    C5-   H12
    15      4      6     19      9     0.00   0.50208   3 ;     H9-    C4-    C6-   H13
    15      4      6     20      9     0.00   0.50208   3 ;     H9-    C4-    C6-   H14
    16      4      6     19      9     0.00   0.50208   3 ;    H10-    C4-    C6-   H13
    16      4      6     20      9     0.00   0.50208   3 ;    H10-    C4-    C6-   H14
    17      5      6     19      9     0.00   0.50208   3 ;    H11-    C5-    C6-   H13
    17      5      6     20      9     0.00   0.50208   3 ;    H11-    C5-    C6-   H14
    18      5      6     19      9     0.00   0.50208   3 ;    H12-    C5-    C6-   H13
    18      5      6     20      9     0.00   0.50208   3 ;    H12-    C5-    C6-   H14
