mobley_9942801_GMX.gro created by acpype (v: 2023.10.27) on Thu May 21 00:21:23 2026
 2403
    1MOL     C1    1   2.291   2.439   2.283
    1MOL     C2    2   2.503   2.323   2.289
    1MOL     C3    3   2.289   2.442   2.423
    1MOL     C4    4   2.501   2.326   2.428
    1MOL     C5    5   2.398   2.380   2.216
    1MOL     C6    6   2.394   2.386   2.495
    1MOL     C7    7   2.400   2.376   2.067
    1MOL     C8    8   2.459   2.515   2.701
    1MOL     C9    9   2.392   2.390   2.644
    1MOL     H1   10   2.208   2.483   2.228
    1MOL     H2   11   2.586   2.277   2.238
    1MOL     H3   12   2.205   2.489   2.474
    1MOL     H4   13   2.583   2.282   2.484
    1MOL     H5   14   2.419   2.274   2.032
    1MOL     H6   15   2.304   2.410   2.025
    1MOL     H7   16   2.477   2.442   2.027
    1MOL     H8   17   2.564   2.521   2.669
    1MOL     H9   18   2.456   2.515   2.810
    1MOL    H10   19   2.409   2.606   2.665
    1MOL    H11   20   2.288   2.385   2.682
    1MOL    H12   21   2.442   2.301   2.686
   14SOL     OW   22   1.460   1.505   1.339
   14SOL    HW1   23   1.484   1.599   1.365
   14SOL    HW2   24   1.444   1.451   1.421
   35SOL     OW   25   1.187   1.792   1.616
   35SOL    HW1   26   1.211   1.852   1.540
   35SOL    HW2   27   1.194   1.697   1.586
   56SOL     OW   28   1.227   1.550   1.506
   56SOL    HW1   29   1.233   1.473   1.570
   56SOL    HW2   30   1.175   1.524   1.426
   95SOL     OW   31   1.754   1.223   1.588
   95SOL    HW1   32   1.845   1.184   1.575
   95SOL    HW2   33   1.762   1.319   1.612
   97SOL     OW   34   1.592   1.629   1.625
   97SOL    HW1   35   1.619   1.663   1.535
   97SOL    HW2   36   1.671   1.591   1.671
  122SOL     OW   37   1.728   0.935   1.854
  122SOL    HW1   38   1.682   0.928   1.765
  122SOL    HW2   39   1.666   0.979   1.920
  126SOL     OW   40   0.980   1.573   1.700
  126SOL    HW1   41   0.960   1.617   1.612
  126SOL    HW2   42   1.019   1.482   1.684
  127SOL     OW   43   1.859   1.518   1.605
  127SOL    HW1   44   1.873   1.545   1.510
  127SOL    HW2   45   1.942   1.540   1.658
  152SOL     OW   46   1.759   1.747   1.154
  152SOL    HW1   47   1.820   1.777   1.081
  152SOL    HW2   48   1.721   1.658   1.132
  163SOL     OW   49   1.650   1.720   1.394
  163SOL    HW1   50   1.703   1.730   1.310
  163SOL    HW2   51   1.623   1.810   1.428
  171SOL     OW   52   1.614   1.292   1.289
  171SOL    HW1   53   1.674   1.295   1.369
  171SOL    HW2   54   1.539   1.356   1.302
  186SOL     OW   55   1.450   1.220   1.633
  186SOL    HW1   56   1.441   1.210   1.732
  186SOL    HW2   57   1.546   1.213   1.607
  203SOL     OW   58   1.705   1.487   1.104
  203SOL    HW1   59   1.612   1.462   1.077
  203SOL    HW2   60   1.731   1.437   1.186
  219SOL     OW   61   1.555   1.511   2.565
  219SOL    HW1   62   1.498   1.495   2.646
  219SOL    HW2   63   1.496   1.521   2.485
  227SOL     OW   64   1.460   1.505   3.201
  227SOL    HW1   65   1.484   1.599   3.227
  227SOL    HW2   66   1.444   1.451   3.283
  238SOL     OW   67   1.842   1.767   2.221
  238SOL    HW1   68   1.896   1.738   2.301
  238SOL    HW2   69   1.872   1.857   2.192
  240SOL     OW   70   1.689   0.922   2.474
  240SOL    HW1   71   1.784   0.893   2.482
  240SOL    HW2   72   1.681   0.987   2.399
  241SOL     OW   73   1.641   1.108   2.294
  241SOL    HW1   74   1.727   1.110   2.242
  241SOL    HW2   75   1.655   1.155   2.382
  247SOL     OW   76   1.525   0.999   2.052
  247SOL    HW1   77   1.462   0.923   2.065
  247SOL    HW2   78   1.573   1.017   2.138
  248SOL     OW   79   1.187   1.792   3.478
  248SOL    HW1   80   1.211   1.852   3.402
  248SOL    HW2   81   1.194   1.697   3.448
  250SOL     OW   82   1.466   1.417   2.815
  250SOL    HW1   83   1.407   1.423   2.895
  250SOL    HW2   84   1.451   1.329   2.769
  251SOL     OW   85   1.667   1.714   2.434
  251SOL    HW1   86   1.626   1.691   2.346
  251SOL    HW2   87   1.649   1.640   2.499
  254SOL     OW   88   1.576   1.662   2.169
  254SOL    HW1   89   1.665   1.708   2.172
  254SOL    HW2   90   1.555   1.638   2.074
  264SOL     OW   91   1.362   1.144   2.407
  264SOL    HW1   92   1.445   1.115   2.359
  264SOL    HW2   93   1.313   1.211   2.351
  266SOL     OW   94   1.008   1.456   2.339
  266SOL    HW1   95   0.962   1.528   2.287
  266SOL    HW2   96   1.004   1.476   2.437
  268SOL     OW   97   1.795   1.066   2.735
  268SOL    HW1   98   1.733   1.051   2.659
  268SOL    HW2   99   1.743   1.077   2.820
  269SOL     OW  100   1.227   1.550   3.368
  269SOL    HW1  101   1.233   1.473   3.432
  269SOL    HW2  102   1.175   1.524   3.288
  273SOL     OW  103   1.111   1.776   2.099
  273SOL    HW1  104   1.051   1.714   2.149
  273SOL    HW2  105   1.142   1.732   2.014
  275SOL     OW  106   1.632   1.377   1.943
  275SOL    HW1  107   1.600   1.471   1.933
  275SOL    HW2  108   1.556   1.314   1.931
  279SOL     OW  109   0.940   1.698   2.766
  279SOL    HW1  110   1.020   1.641   2.787
  279SOL    HW2  111   0.891   1.658   2.689
  289SOL     OW  112   1.434   1.188   1.903
  289SOL    HW1  113   1.466   1.112   1.960
  289SOL    HW2  114   1.342   1.215   1.933
  293SOL     OW  115   1.227   1.570   2.655
  293SOL    HW1  116   1.248   1.644   2.590
  293SOL    HW2  117   1.295   1.570   2.728
  295SOL     OW  118   1.271   1.797   2.453
  295SOL    HW1  119   1.315   1.861   2.389
  295SOL    HW2  120   1.221   1.849   2.523
  301SOL     OW  121   1.429   1.173   2.729
  301SOL    HW1  122   1.374   1.089   2.722
  301SOL    HW2  123   1.455   1.202   2.637
  303SOL     OW  124   1.857   0.833   2.239
  303SOL    HW1  125   1.899   0.769   2.303
  303SOL    HW2  126   1.819   0.782   2.161
  305SOL     OW  127   1.664   1.280   2.519
  305SOL    HW1  128   1.763   1.288   2.533
  305SOL    HW2  129   1.619   1.364   2.550
  308SOL     OW  130   1.754   1.223   3.450
  308SOL    HW1  131   1.845   1.184   3.437
  308SOL    HW2  132   1.762   1.319   3.474
  310SOL     OW  133   1.592   1.629   3.487
  310SOL    HW1  134   1.619   1.663   3.397
  310SOL    HW2  135   1.671   1.591   3.533
  312SOL     OW  136   1.638   1.099   2.941
  312SOL    HW1  137   1.643   1.180   3.000
  312SOL    HW2  138   1.552   1.101   2.890
  321SOL     OW  139   1.252   1.348   2.250
  321SOL    HW1  140   1.302   1.425   2.290
  321SOL    HW2  141   1.157   1.350   2.282
  322SOL     OW  142   1.272   1.445   3.004
  322SOL    HW1  143   1.319   1.458   3.091
  322SOL    HW2  144   1.206   1.371   3.013
  340SOL     OW  145   1.859   1.518   3.467
  340SOL    HW1  146   1.873   1.545   3.372
  340SOL    HW2  147   1.942   1.540   3.520
  344SOL     OW  148   1.068   1.333   2.711
  344SOL    HW1  149   1.075   1.249   2.656
  344SOL    HW2  150   1.130   1.402   2.675
  365SOL     OW  151   1.759   1.747   3.016
  365SOL    HW1  152   1.820   1.777   2.943
  365SOL    HW2  153   1.721   1.658   2.994
  366SOL     OW  154   1.252   1.731   2.990
  366SOL    HW1  155   1.336   1.736   2.936
  366SOL    HW2  156   1.229   1.635   3.008
  370SOL     OW  157   1.388   1.573   2.339
  370SOL    HW1  158   1.455   1.585   2.265
  370SOL    HW2  159   1.348   1.662   2.362
  375SOL     OW  160   1.650   1.720   3.256
  375SOL    HW1  161   1.703   1.730   3.172
  375SOL    HW2  162   1.623   1.810   3.290
  378SOL     OW  163   1.194   1.612   1.893
  378SOL    HW1  164   1.200   1.519   1.930
  378SOL    HW2  165   1.135   1.612   1.813
  381SOL     OW  166   1.504   1.607   1.906
  381SOL    HW1  167   1.412   1.644   1.913
  381SOL    HW2  168   1.542   1.627   1.816
  383SOL     OW  169   1.614   1.292   3.151
  383SOL    HW1  170   1.674   1.295   3.231
  383SOL    HW2  171   1.539   1.356   3.164
  394SOL     OW  172   1.183   1.335   1.981
  394SOL    HW1  173   1.084   1.324   1.983
  394SOL    HW2  174   1.217   1.350   2.074
  396SOL     OW  175   1.493   1.767   2.821
  396SOL    HW1  176   1.526   1.831   2.752
  396SOL    HW2  177   1.559   1.761   2.896
  409SOL     OW  178   1.861   1.569   2.713
  409SOL    HW1  179   1.790   1.557   2.643
  409SOL    HW2  180   1.862   1.490   2.773
  415SOL     OW  181   1.705   1.487   2.966
  415SOL    HW1  182   1.612   1.462   2.939
  415SOL    HW2  183   1.731   1.437   3.048
  426SOL     OW  184   0.875   1.646   2.199
  426SOL    HW1  185   0.798   1.611   2.145
  426SOL    HW2  186   0.843   1.717   2.261
  559SOL     OW  187   0.850   2.660   1.823
  559SOL    HW1  188   0.846   2.736   1.888
  559SOL    HW2  189   0.872   2.696   1.732
  563SOL     OW  190   1.460   3.367   1.339
  563SOL    HW1  191   1.484   3.461   1.365
  563SOL    HW2  192   1.444   3.313   1.421
  567SOL     OW  193   1.127   3.203   1.690
  567SOL    HW1  194   1.174   3.203   1.778
  567SOL    HW2  195   1.079   3.116   1.679
  572SOL     OW  196   1.594   1.976   1.480
  572SOL    HW1  197   1.576   2.043   1.408
  572SOL    HW2  198   1.591   2.022   1.569
  580SOL     OW  199   1.293   3.090   1.423
  580SOL    HW1  200   1.330   3.017   1.365
  580SOL    HW2  201   1.345   3.095   1.508
  592SOL     OW  202   1.394   2.331   1.674
  592SOL    HW1  203   1.374   2.374   1.762
  592SOL    HW2  204   1.472   2.269   1.683
  593SOL     OW  205   0.973   2.752   1.572
  593SOL    HW1  206   1.019   2.668   1.543
  593SOL    HW2  207   0.917   2.786   1.497
  599SOL     OW  208   1.719   2.447   1.831
  599SOL    HW1  209   1.693   2.536   1.795
  599SOL    HW2  210   1.717   2.379   1.758
  604SOL     OW  211   1.795   2.928   0.873
  604SOL    HW1  212   1.733   2.913   0.797
  604SOL    HW2  213   1.743   2.939   0.958
  605SOL     OW  214   1.227   3.412   1.506
  605SOL    HW1  215   1.233   3.335   1.570
  605SOL    HW2  216   1.175   3.386   1.426
  617SOL     OW  217   1.547   2.084   1.729
  617SOL    HW1  218   1.542   2.121   1.821
  617SOL    HW2  219   1.475   2.015   1.717
  619SOL     OW  220   0.781   2.126   1.749
  619SOL    HW1  221   0.848   2.065   1.792
  619SOL    HW2  222   0.708   2.145   1.814
  621SOL     OW  223   1.351   2.452   1.433
  621SOL    HW1  224   1.379   2.409   1.518
  621SOL    HW2  225   1.376   2.548   1.434
  627SOL     OW  226   1.076   2.545   1.464
  627SOL    HW1  227   0.996   2.484   1.467
  627SOL    HW2  228   1.157   2.492   1.440
  637SOL     OW  229   1.466   2.452   0.992
  637SOL    HW1  230   1.436   2.357   0.999
  637SOL    HW2  231   1.539   2.468   1.058
  643SOL     OW  232   1.754   3.085   1.588
  643SOL    HW1  233   1.845   3.046   1.575
  643SOL    HW2  234   1.762   3.181   1.612
  645SOL     OW  235   1.592   3.491   1.625
  645SOL    HW1  236   1.619   3.525   1.535
  645SOL    HW2  237   1.671   3.453   1.671
  647SOL     OW  238   1.638   2.961   1.079
  647SOL    HW1  239   1.643   3.042   1.138
  647SOL    HW2  240   1.552   2.963   1.028
  649SOL     OW  241   0.980   2.978   1.719
  649SOL    HW1  242   0.881   2.984   1.729
  649SOL    HW2  243   1.003   2.898   1.663
  652SOL     OW  244   1.274   2.248   1.262
  652SOL    HW1  245   1.295   2.322   1.326
  652SOL    HW2  246   1.185   2.265   1.219
  661SOL     OW  247   1.587   2.641   1.670
  661SOL    HW1  248   1.495   2.679   1.665
  661SOL    HW2  249   1.647   2.688   1.605
  662SOL     OW  250   1.013   1.967   1.770
  662SOL    HW1  251   1.019   2.052   1.718
  662SOL    HW2  252   1.045   1.891   1.713
  665SOL     OW  253   1.360   2.724   1.045
  665SOL    HW1  254   1.285   2.724   0.979
  665SOL    HW2  255   1.397   2.632   1.054
  670SOL     OW  256   1.728   2.797   1.854
  670SOL    HW1  257   1.682   2.790   1.765
  670SOL    HW2  258   1.666   2.841   1.920
  675SOL     OW  259   1.859   3.380   1.605
  675SOL    HW1  260   1.873   3.407   1.510
  675SOL    HW2  261   1.942   3.402   1.658
  682SOL     OW  262   1.138   2.242   1.678
  682SOL    HW1  263   1.093   2.305   1.742
  682SOL    HW2  264   1.231   2.273   1.661
  683SOL     OW  265   1.160   2.069   1.477
  683SOL    HW1  266   1.160   2.133   1.554
  683SOL    HW2  267   1.188   2.117   1.394
  690SOL     OW  268   1.369   2.812   1.660
  690SOL    HW1  269   1.408   2.901   1.680
  690SOL    HW2  270   1.379   2.792   1.563
  692SOL     OW  271   1.657   2.466   1.206
  692SOL    HW1  272   1.619   2.397   1.268
  692SOL    HW2  273   1.739   2.430   1.162
  698SOL     OW  274   1.347   2.921   1.234
  698SOL    HW1  275   1.371   2.858   1.160
  698SOL    HW2  276   1.257   2.961   1.216
  711SOL     OW  277   1.650   3.582   1.394
  711SOL    HW1  278   1.703   3.592   1.310
  711SOL    HW2  279   1.623   3.672   1.428
  712SOL     OW  280   1.841   2.037   0.963
  712SOL    HW1  281   1.880   1.952   0.927
  712SOL    HW2  282   1.743   2.039   0.944
  719SOL     OW  283   1.614   3.154   1.289
  719SOL    HW1  284   1.674   3.157   1.369
  719SOL    HW2  285   1.539   3.218   1.302
  723SOL     OW  286   1.709   2.247   1.381
  723SOL    HW1  287   1.782   2.316   1.385
  723SOL    HW2  288   1.737   2.172   1.322
  728SOL     OW  289   1.440   2.718   1.398
  728SOL    HW1  290   1.383   2.770   1.335
  728SOL    HW2  291   1.536   2.730   1.374
  734SOL     OW  292   1.450   3.082   1.633
  734SOL    HW1  293   1.441   3.072   1.732
  734SOL    HW2  294   1.546   3.075   1.607
  736SOL     OW  295   1.674   2.745   1.254
  736SOL    HW1  296   1.647   2.656   1.217
  736SOL    HW2  297   1.675   2.813   1.181
  739SOL     OW  298   1.777   2.204   1.642
  739SOL    HW1  299   1.760   2.235   1.548
  739SOL    HW2  300   1.693   2.167   1.680
  740SOL     OW  301   1.730   2.796   1.517
  740SOL    HW1  302   1.768   2.887   1.532
  740SOL    HW2  303   1.722   2.779   1.418
  749SOL     OW  304   1.824   2.054   1.227
  749SOL    HW1  305   1.820   1.964   1.271
  749SOL    HW2  306   1.827   2.043   1.128
  751SOL     OW  307   1.705   3.349   1.104
  751SOL    HW1  308   1.612   3.324   1.077
  751SOL    HW2  309   1.731   3.299   1.186
  754SOL     OW  310   1.424   2.076   1.112
  754SOL    HW1  311   1.476   2.011   1.167
  754SOL    HW2  312   1.375   2.139   1.173
  760SOL     OW  313   1.593   2.083   0.882
  760SOL    HW1  314   1.509   2.082   0.936
  760SOL    HW2  315   1.595   2.166   0.826
  767SOL     OW  316   1.555   3.373   2.565
  767SOL    HW1  317   1.498   3.357   2.646
  767SOL    HW2  318   1.496   3.383   2.485
  768SOL     OW  319   1.135   2.565   2.579
  768SOL    HW1  320   1.192   2.643   2.554
  768SOL    HW2  321   1.075   2.591   2.655
  769SOL     OW  322   1.755   2.469   2.093
  769SOL    HW1  323   1.743   2.456   1.994
  769SOL    HW2  324   1.725   2.388   2.142
  772SOL     OW  325   0.685   2.874   2.527
  772SOL    HW1  326   0.754   2.858   2.597
  772SOL    HW2  327   0.612   2.931   2.565
  775SOL     OW  328   1.460   3.367   3.201
  775SOL    HW1  329   1.484   3.461   3.227
  775SOL    HW2  330   1.444   3.313   3.283
  777SOL     OW  331   1.603   2.309   2.599
  777SOL    HW1  332   1.529   2.355   2.549
  777SOL    HW2  333   1.654   2.377   2.652
  784SOL     OW  334   1.594   1.976   3.342
  784SOL    HW1  335   1.576   2.043   3.270
  784SOL    HW2  336   1.591   2.022   3.431
  786SOL     OW  337   1.842   3.629   2.221
  786SOL    HW1  338   1.896   3.600   2.301
  786SOL    HW2  339   1.872   3.719   2.192
  788SOL     OW  340   1.689   2.784   2.474
  788SOL    HW1  341   1.784   2.755   2.482
  788SOL    HW2  342   1.681   2.849   2.399
  789SOL     OW  343   1.641   2.970   2.294
  789SOL    HW1  344   1.727   2.972   2.242
  789SOL    HW2  345   1.655   3.017   2.382
  792SOL     OW  346   1.293   3.090   3.285
  792SOL    HW1  347   1.330   3.017   3.227
  792SOL    HW2  348   1.345   3.095   3.370
  793SOL     OW  349   0.809   1.866   2.364
  793SOL    HW1  350   0.849   1.957   2.355
  793SOL    HW2  351   0.709   1.874   2.370
  795SOL     OW  352   1.525   2.861   2.052
  795SOL    HW1  353   1.462   2.785   2.065
  795SOL    HW2  354   1.573   2.879   2.138
  798SOL     OW  355   1.466   3.279   2.815
  798SOL    HW1  356   1.407   3.285   2.895
  798SOL    HW2  357   1.451   3.191   2.769
  799SOL     OW  358   1.667   3.576   2.434
  799SOL    HW1  359   1.626   3.553   2.346
  799SOL    HW2  360   1.649   3.502   2.499
  801SOL     OW  361   1.281   2.207   2.806
  801SOL    HW1  362   1.195   2.157   2.793
  801SOL    HW2  363   1.343   2.153   2.862
  802SOL     OW  364   1.576   3.524   2.169
  802SOL    HW1  365   1.665   3.570   2.172
  802SOL    HW2  366   1.555   3.500   2.074
  804SOL     OW  367   1.394   2.331   3.536
  804SOL    HW1  368   1.374   2.374   3.624
  804SOL    HW2  369   1.472   2.269   3.545
  805SOL     OW  370   0.973   2.752   3.434
  805SOL    HW1  371   1.019   2.668   3.405
  805SOL    HW2  372   0.917   2.786   3.359
  806SOL     OW  373   0.991   2.272   3.104
  806SOL    HW1  374   0.914   2.306   3.158
  806SOL    HW2  375   0.957   2.221   3.025
  807SOL     OW  376   1.041   2.563   2.291
  807SOL    HW1  377   1.067   2.559   2.387
  807SOL    HW2  378   0.956   2.512   2.277
  810SOL     OW  379   0.865   2.210   2.057
  810SOL    HW1  380   0.924   2.273   2.008
  810SOL    HW2  381   0.884   2.116   2.028
  811SOL     OW  382   1.719   2.447   3.693
  811SOL    HW1  383   1.693   2.536   3.657
  811SOL    HW2  384   1.717   2.379   3.620
  812SOL     OW  385   1.362   3.006   2.407
  812SOL    HW1  386   1.445   2.977   2.359
  812SOL    HW2  387   1.313   3.073   2.351
  814SOL     OW  388   1.008   3.318   2.339
  814SOL    HW1  389   0.962   3.390   2.287
  814SOL    HW2  390   1.004   3.338   2.437
  816SOL     OW  391   1.795   2.928   2.735
  816SOL    HW1  392   1.733   2.913   2.659
  816SOL    HW2  393   1.743   2.939   2.820
  819SOL     OW  394   1.458   2.597   2.590
  819SOL    HW1  395   1.453   2.532   2.665
  819SOL    HW2  396   1.538   2.656   2.603
  823SOL     OW  397   1.632   3.239   1.943
  823SOL    HW1  398   1.600   3.333   1.933
  823SOL    HW2  399   1.556   3.176   1.931
  825SOL     OW  400   1.400   1.969   2.288
  825SOL    HW1  401   1.376   1.932   2.198
  825SOL    HW2  402   1.499   1.985   2.292
  829SOL     OW  403   1.547   2.084   3.591
  829SOL    HW1  404   1.542   2.121   3.683
  829SOL    HW2  405   1.475   2.015   3.579
  833SOL     OW  406   1.351   2.452   3.295
  833SOL    HW1  407   1.379   2.409   3.380
  833SOL    HW2  408   1.376   2.548   3.296
  835SOL     OW  409   0.922   2.365   2.761
  835SOL    HW1  410   0.897   2.356   2.665
  835SOL    HW2  411   0.970   2.283   2.792
  837SOL     OW  412   1.434   3.050   1.903
  837SOL    HW1  413   1.466   2.974   1.960
  837SOL    HW2  414   1.342   3.077   1.933
  839SOL     OW  415   0.935   2.098   2.342
  839SOL    HW1  416   0.887   2.139   2.264
  839SOL    HW2  417   1.034   2.096   2.323
  840SOL     OW  418   1.076   2.545   3.326
  840SOL    HW1  419   0.996   2.484   3.329
  840SOL    HW2  420   1.157   2.492   3.302
  841SOL     OW  421   1.227   3.432   2.655
  841SOL    HW1  422   1.248   3.506   2.590
  841SOL    HW2  423   1.295   3.432   2.728
  843SOL     OW  424   1.271   3.659   2.453
  843SOL    HW1  425   1.315   3.723   2.389
  843SOL    HW2  426   1.221   3.711   2.523
  844SOL     OW  427   1.032   2.411   1.878
  844SOL    HW1  428   0.991   2.493   1.839
  844SOL    HW2  429   1.096   2.437   1.951
  847SOL     OW  430   0.866   2.316   2.504
  847SOL    HW1  431   0.834   2.388   2.442
  847SOL    HW2  432   0.890   2.235   2.451
  848SOL     OW  433   1.017   1.901   2.615
  848SOL    HW1  434   0.945   1.906   2.546
  848SOL    HW2  435   0.993   1.832   2.684
  849SOL     OW  436   1.429   3.035   2.729
  849SOL    HW1  437   1.374   2.951   2.722
  849SOL    HW2  438   1.455   3.064   2.637
  850SOL     OW  439   1.466   2.452   2.854
  850SOL    HW1  440   1.436   2.357   2.861
  850SOL    HW2  441   1.539   2.468   2.920
  851SOL     OW  442   1.857   2.695   2.239
  851SOL    HW1  443   1.899   2.631   2.303
  851SOL    HW2  444   1.819   2.644   2.161
  853SOL     OW  445   1.664   3.142   2.519
  853SOL    HW1  446   1.763   3.150   2.533
  853SOL    HW2  447   1.619   3.226   2.550
  854SOL     OW  448   1.390   2.437   1.940
  854SOL    HW1  449   1.336   2.416   2.021
  854SOL    HW2  450   1.481   2.396   1.949
  856SOL     OW  451   1.754   3.085   3.450
  856SOL    HW1  452   1.845   3.046   3.437
  856SOL    HW2  453   1.762   3.181   3.474
  857SOL     OW  454   1.064   3.209   3.202
  857SOL    HW1  455   0.984   3.186   3.257
  857SOL    HW2  456   1.147   3.183   3.251
  858SOL     OW  457   1.592   3.491   3.487
  858SOL    HW1  458   1.619   3.525   3.397
  858SOL    HW2  459   1.671   3.453   3.533
  859SOL     OW  460   1.111   3.057   2.962
  859SOL    HW1  461   1.071   3.101   3.043
  859SOL    HW2  462   1.070   3.094   2.879
  860SOL     OW  463   1.638   2.961   2.941
  860SOL    HW1  464   1.643   3.042   3.000
  860SOL    HW2  465   1.552   2.963   2.890
  861SOL     OW  466   0.915   1.951   3.264
  861SOL    HW1  467   0.940   1.931   3.169
  861SOL    HW2  468   0.987   2.007   3.306
  863SOL     OW  469   0.705   2.912   2.230
  863SOL    HW1  470   0.691   2.919   2.329
  863SOL    HW2  471   0.789   2.861   2.212
  865SOL     OW  472   1.274   2.248   3.124
  865SOL    HW1  473   1.295   2.322   3.188
  865SOL    HW2  474   1.185   2.265   3.081
  869SOL     OW  475   1.252   3.210   2.250
  869SOL    HW1  476   1.302   3.287   2.290
  869SOL    HW2  477   1.157   3.212   2.282
  870SOL     OW  478   1.272   3.307   3.004
  870SOL    HW1  479   1.319   3.320   3.091
  870SOL    HW2  480   1.206   3.233   3.013
  871SOL     OW  481   1.582   2.501   2.334
  871SOL    HW1  482   1.551   2.562   2.407
  871SOL    HW2  483   1.632   2.553   2.265
  874SOL     OW  484   1.587   2.641   3.532
  874SOL    HW1  485   1.495   2.679   3.527
  874SOL    HW2  486   1.647   2.688   3.467
  878SOL     OW  487   1.360   2.724   2.907
  878SOL    HW1  488   1.285   2.724   2.841
  878SOL    HW2  489   1.397   2.632   2.916
  879SOL     OW  490   1.209   2.387   2.137
  879SOL    HW1  491   1.222   2.303   2.191
  879SOL    HW2  492   1.180   2.461   2.197
  882SOL     OW  493   0.732   2.496   2.926
  882SOL    HW1  494   0.791   2.470   2.850
  882SOL    HW2  495   0.704   2.592   2.915
  883SOL     OW  496   1.728   2.797   3.716
  883SOL    HW1  497   1.682   2.790   3.627
  883SOL    HW2  498   1.666   2.841   3.782
  885SOL     OW  499   1.622   2.229   2.236
  885SOL    HW1  500   1.624   2.153   2.300
  885SOL    HW2  501   1.574   2.306   2.276
  886SOL     OW  502   1.023   2.628   2.828
  886SOL    HW1  503   1.038   2.649   2.924
  886SOL    HW2  504   0.993   2.533   2.819
  888SOL     OW  505   1.859   3.380   3.467
  888SOL    HW1  506   1.873   3.407   3.372
  888SOL    HW2  507   1.942   3.402   3.520
  890SOL     OW  508   1.540   2.136   1.987
  890SOL    HW1  509   1.479   2.061   2.010
  890SOL    HW2  510   1.562   2.188   2.070
  891SOL     OW  511   1.303   2.700   1.904
  891SOL    HW1  512   1.337   2.607   1.919
  891SOL    HW2  513   1.321   2.727   1.809
  892SOL     OW  514   1.068   3.195   2.711
  892SOL    HW1  515   1.075   3.111   2.656
  892SOL    HW2  516   1.130   3.264   2.675
  895SOL     OW  517   1.138   2.242   3.540
  895SOL    HW1  518   1.093   2.305   3.604
  895SOL    HW2  519   1.231   2.273   3.523
  896SOL     OW  520   1.160   2.069   3.339
  896SOL    HW1  521   1.160   2.133   3.416
  896SOL    HW2  522   1.188   2.117   3.256
  900SOL     OW  523   1.002   2.658   3.100
  900SOL    HW1  524   1.043   2.626   3.186
  900SOL    HW2  525   0.906   2.631   3.097
  903SOL     OW  526   1.369   2.812   3.522
  903SOL    HW1  527   1.408   2.901   3.542
  903SOL    HW2  528   1.379   2.792   3.425
  904SOL     OW  529   0.815   2.434   2.187
  904SOL    HW1  530   0.822   2.345   2.141
  904SOL    HW2  531   0.721   2.468   2.179
  905SOL     OW  532   1.657   2.466   3.068
  905SOL    HW1  533   1.619   2.397   3.130
  905SOL    HW2  534   1.739   2.430   3.024
  911SOL     OW  535   1.347   2.921   3.096
  911SOL    HW1  536   1.371   2.858   3.022
  911SOL    HW2  537   1.257   2.961   3.078
  912SOL     OW  538   1.302   2.717   2.171
  912SOL    HW1  539   1.216   2.686   2.213
  912SOL    HW2  540   1.298   2.703   2.072
  913SOL     OW  541   1.759   3.609   3.016
  913SOL    HW1  542   1.820   3.639   2.943
  913SOL    HW2  543   1.721   3.520   2.994
  914SOL     OW  544   1.252   3.593   2.990
  914SOL    HW1  545   1.336   3.598   2.936
  914SOL    HW2  546   1.229   3.497   3.008
  917SOL     OW  547   1.726   1.997   2.385
  917SOL    HW1  548   1.799   1.980   2.318
  917SOL    HW2  549   1.695   1.910   2.423
  918SOL     OW  550   1.388   3.435   2.339
  918SOL    HW1  551   1.455   3.447   2.265
  918SOL    HW2  552   1.348   3.524   2.362
  920SOL     OW  553   1.280   2.789   2.534
  920SOL    HW1  554   1.340   2.708   2.536
  920SOL    HW2  555   1.320   2.858   2.474
  923SOL     OW  556   1.650   3.582   3.256
  923SOL    HW1  557   1.703   3.592   3.172
  923SOL    HW2  558   1.623   3.672   3.290
  924SOL     OW  559   1.841   2.037   2.825
  924SOL    HW1  560   1.880   1.952   2.789
  924SOL    HW2  561   1.743   2.039   2.806
  926SOL     OW  562   1.194   3.474   1.893
  926SOL    HW1  563   1.200   3.381   1.930
  926SOL    HW2  564   1.135   3.474   1.813
  928SOL     OW  565   0.916   2.772   2.153
  928SOL    HW1  566   0.979   2.810   2.085
  928SOL    HW2  567   0.956   2.689   2.192
  929SOL     OW  568   1.504   3.469   1.906
  929SOL    HW1  569   1.412   3.506   1.913
  929SOL    HW2  570   1.542   3.489   1.816
  931SOL     OW  571   1.614   3.154   3.151
  931SOL    HW1  572   1.674   3.157   3.231
  931SOL    HW2  573   1.539   3.218   3.164
  932SOL     OW  574   1.039   2.960   2.558
  932SOL    HW1  575   0.969   2.913   2.612
  932SOL    HW2  576   1.098   2.892   2.515
  933SOL     OW  577   1.014   2.098   2.833
  933SOL    HW1  578   1.006   2.062   2.740
  933SOL    HW2  579   1.012   2.022   2.898
  935SOL     OW  580   1.709   2.247   3.243
  935SOL    HW1  581   1.782   2.316   3.247
  935SOL    HW2  582   1.737   2.172   3.184
  940SOL     OW  583   1.440   2.718   3.260
  940SOL    HW1  584   1.383   2.770   3.197
  940SOL    HW2  585   1.536   2.730   3.236
  942SOL     OW  586   1.183   3.197   1.981
  942SOL    HW1  587   1.084   3.186   1.983
  942SOL    HW2  588   1.217   3.212   2.074
  944SOL     OW  589   1.493   3.629   2.821
  944SOL    HW1  590   1.526   3.693   2.752
  944SOL    HW2  591   1.559   3.623   2.896
  946SOL     OW  592   1.450   3.082   3.495
  946SOL    HW1  593   1.441   3.072   3.594
  946SOL    HW2  594   1.546   3.075   3.469
  948SOL     OW  595   1.674   2.745   3.116
  948SOL    HW1  596   1.647   2.656   3.079
  948SOL    HW2  597   1.675   2.813   3.043
  949SOL     OW  598   1.225   2.187   2.311
  949SOL    HW1  599   1.290   2.113   2.300
  949SOL    HW2  600   1.245   2.237   2.395
  951SOL     OW  601   1.777   2.204   3.504
  951SOL    HW1  602   1.760   2.235   3.410
  951SOL    HW2  603   1.693   2.167   3.542
  952SOL     OW  604   1.730   2.796   3.379
  952SOL    HW1  605   1.768   2.887   3.394
  952SOL    HW2  606   1.722   2.779   3.280
  955SOL     OW  607   0.859   2.818   2.723
  955SOL    HW1  608   0.913   2.749   2.771
  955SOL    HW2  609   0.827   2.887   2.789
  956SOL     OW  610   1.083   2.846   1.949
  956SOL    HW1  611   1.060   2.899   1.867
  956SOL    HW2  612   1.164   2.790   1.930
  957SOL     OW  613   1.861   3.431   2.713
  957SOL    HW1  614   1.790   3.419   2.643
  957SOL    HW2  615   1.862   3.352   2.773
  961SOL     OW  616   1.824   2.054   3.089
  961SOL    HW1  617   1.820   1.964   3.133
  961SOL    HW2  618   1.827   2.043   2.990
  963SOL     OW  619   1.705   3.349   2.966
  963SOL    HW1  620   1.612   3.324   2.939
  963SOL    HW2  621   1.731   3.299   3.048
  966SOL     OW  622   1.424   2.076   2.974
  966SOL    HW1  623   1.476   2.011   3.029
  966SOL    HW2  624   1.375   2.139   3.035
  967SOL     OW  625   1.001   1.896   3.016
  967SOL    HW1  626   0.938   1.824   2.985
  967SOL    HW2  627   1.094   1.860   3.016
  970SOL     OW  628   1.352   1.914   2.030
  970SOL    HW1  629   1.387   1.873   1.946
  970SOL    HW2  630   1.262   1.876   2.050
  971SOL     OW  631   1.300   2.315   2.553
  971SOL    HW1  632   1.241   2.395   2.557
  971SOL    HW2  633   1.315   2.280   2.646
  972SOL     OW  634   1.593   2.083   2.744
  972SOL    HW1  635   1.509   2.082   2.798
  972SOL    HW2  636   1.595   2.166   2.688
  980SOL     OW  637   1.755   2.469   3.955
  980SOL    HW1  638   1.743   2.456   3.856
  980SOL    HW2  639   1.725   2.388   4.004
 1023SOL     OW  640   1.434   3.050   3.765
 1023SOL    HW1  641   1.466   2.974   3.822
 1023SOL    HW2  642   1.342   3.077   3.795
 1037SOL     OW  643   1.390   2.437   3.802
 1037SOL    HW1  644   1.336   2.416   3.883
 1037SOL    HW2  645   1.481   2.396   3.811
 1051SOL     OW  646   1.540   2.136   3.849
 1051SOL    HW1  647   1.479   2.061   3.872
 1051SOL    HW2  648   1.562   2.188   3.932
 1052SOL     OW  649   1.303   2.700   3.766
 1052SOL    HW1  650   1.337   2.607   3.781
 1052SOL    HW2  651   1.321   2.727   3.671
 1257SOL     OW  652   1.400   3.831   2.288
 1257SOL    HW1  653   1.376   3.794   2.198
 1257SOL    HW2  654   1.499   3.847   2.292
 1316SOL     OW  655   1.726   3.859   2.385
 1316SOL    HW1  656   1.799   3.842   2.318
 1316SOL    HW2  657   1.695   3.772   2.423
 1318SOL     OW  658   1.841   3.899   2.825
 1318SOL    HW1  659   1.880   3.814   2.789
 1318SOL    HW2  660   1.743   3.901   2.806
 1339SOL     OW  661   1.824   3.916   3.089
 1339SOL    HW1  662   1.820   3.826   3.133
 1339SOL    HW2  663   1.827   3.905   2.990
 1344SOL     OW  664   1.352   3.776   2.030
 1344SOL    HW1  665   1.387   3.735   1.946
 1344SOL    HW2  666   1.262   3.738   2.050
 1346SOL     OW  667   1.593   3.945   2.744
 1346SOL    HW1  668   1.509   3.944   2.798
 1346SOL    HW2  669   1.595   4.028   2.688
 1426SOL     OW  670   2.431   1.275   1.165
 1426SOL    HW1  671   2.338   1.268   1.128
 1426SOL    HW2  672   2.442   1.364   1.209
 1431SOL     OW  673   2.712   0.798   1.823
 1431SOL    HW1  674   2.708   0.874   1.888
 1431SOL    HW2  675   2.734   0.834   1.732
 1433SOL     OW  676   2.548   1.161   1.803
 1433SOL    HW1  677   2.608   1.240   1.817
 1433SOL    HW2  678   2.462   1.192   1.762
 1434SOL     OW  679   2.197   1.435   1.061
 1434SOL    HW1  680   2.119   1.404   1.008
 1434SOL    HW2  681   2.255   1.493   1.004
 1435SOL     OW  682   3.322   1.505   1.339
 1435SOL    HW1  683   3.346   1.599   1.365
 1435SOL    HW2  684   3.306   1.451   1.421
 1439SOL     OW  685   2.989   1.341   1.690
 1439SOL    HW1  686   3.036   1.341   1.778
 1439SOL    HW2  687   2.941   1.254   1.679
 1442SOL     OW  688   2.482   1.786   1.439
 1442SOL    HW1  689   2.390   1.769   1.474
 1442SOL    HW2  690   2.510   1.878   1.465
 1452SOL     OW  691   3.155   1.228   1.423
 1452SOL    HW1  692   3.192   1.155   1.365
 1452SOL    HW2  693   3.207   1.233   1.508
 1456SOL     OW  694   3.049   1.792   1.616
 1456SOL    HW1  695   3.073   1.852   1.540
 1456SOL    HW2  696   3.056   1.697   1.586
 1465SOL     OW  697   2.835   0.890   1.572
 1465SOL    HW1  698   2.881   0.806   1.543
 1465SOL    HW2  699   2.779   0.924   1.497
 1469SOL     OW  700   1.992   1.821   1.571
 1469SOL    HW1  701   1.982   1.806   1.670
 1469SOL    HW2  702   1.906   1.857   1.535
 1475SOL     OW  703   2.213   1.801   0.853
 1475SOL    HW1  704   2.263   1.715   0.859
 1475SOL    HW2  705   2.278   1.878   0.850
 1477SOL     OW  706   3.089   1.550   1.506
 1477SOL    HW1  707   3.095   1.473   1.570
 1477SOL    HW2  708   3.037   1.524   1.426
 1480SOL     OW  709   2.323   1.266   1.727
 1480SOL    HW1  710   2.273   1.267   1.641
 1480SOL    HW2  711   2.260   1.248   1.803
 1486SOL     OW  712   2.111   1.785   1.241
 1486SOL    HW1  713   2.168   1.720   1.291
 1486SOL    HW2  714   2.095   1.752   1.148
 1487SOL     OW  715   2.802   1.698   0.904
 1487SOL    HW1  716   2.882   1.641   0.925
 1487SOL    HW2  717   2.753   1.658   0.827
 1492SOL     OW  718   2.750   1.514   1.195
 1492SOL    HW1  719   2.727   1.489   1.101
 1492SOL    HW2  720   2.811   1.445   1.234
 1517SOL     OW  721   2.926   1.347   1.340
 1517SOL    HW1  722   2.846   1.324   1.395
 1517SOL    HW2  723   3.009   1.321   1.389
 1518SOL     OW  724   3.454   1.629   1.625
 1518SOL    HW1  725   3.481   1.663   1.535
 1518SOL    HW2  726   3.533   1.591   1.671
 1522SOL     OW  727   2.842   1.116   1.719
 1522SOL    HW1  728   2.743   1.122   1.729
 1522SOL    HW2  729   2.865   1.036   1.663
 1526SOL     OW  730   1.926   1.564   1.331
 1526SOL    HW1  731   1.880   1.646   1.297
 1526SOL    HW2  732   2.024   1.583   1.340
 1530SOL     OW  733   3.134   1.445   1.142
 1530SOL    HW1  734   3.181   1.458   1.229
 1530SOL    HW2  735   3.068   1.371   1.151
 1532SOL     OW  736   2.216   1.510   1.329
 1532SOL    HW1  737   2.195   1.466   1.242
 1532SOL    HW2  738   2.313   1.536   1.332
 1541SOL     OW  739   1.899   1.310   1.282
 1541SOL    HW1  740   1.952   1.261   1.350
 1541SOL    HW2  741   1.921   1.408   1.287
 1547SOL     OW  742   2.842   1.573   1.700
 1547SOL    HW1  743   2.822   1.617   1.612
 1547SOL    HW2  744   2.881   1.482   1.684
 1548SOL     OW  745   3.721   1.518   1.605
 1548SOL    HW1  746   3.735   1.545   1.510
 1548SOL    HW2  747   3.804   1.540   1.658
 1549SOL     OW  748   2.212   0.898   1.804
 1549SOL    HW1  749   2.288   0.942   1.852
 1549SOL    HW2  750   2.247   0.851   1.722
 1558SOL     OW  751   1.950   1.801   0.927
 1558SOL    HW1  752   1.908   1.715   0.900
 1558SOL    HW2  753   2.044   1.804   0.893
 1559SOL     OW  754   2.366   1.568   0.910
 1559SOL    HW1  755   2.432   1.642   0.919
 1559SOL    HW2  756   2.410   1.489   0.868
 1566SOL     OW  757   2.114   1.564   1.744
 1566SOL    HW1  758   2.084   1.621   1.820
 1566SOL    HW2  759   2.107   1.467   1.770
 1568SOL     OW  760   2.792   1.678   1.465
 1568SOL    HW1  761   2.768   1.660   1.370
 1568SOL    HW2  762   2.822   1.772   1.475
 1570SOL     OW  763   2.021   1.137   1.466
 1570SOL    HW1  764   2.043   1.076   1.542
 1570SOL    HW2  765   2.031   1.088   1.380
 1574SOL     OW  766   3.114   1.731   1.128
 1574SOL    HW1  767   3.198   1.736   1.074
 1574SOL    HW2  768   3.091   1.635   1.146
 1576SOL     OW  769   2.550   1.662   1.716
 1576SOL    HW1  770   2.494   1.743   1.725
 1576SOL    HW2  771   2.602   1.666   1.630
 1580SOL     OW  772   1.992   1.794   1.851
 1580SOL    HW1  773   1.951   1.720   1.904
 1580SOL    HW2  774   2.056   1.845   1.909
 1582SOL     OW  775   2.692   1.273   1.422
 1582SOL    HW1  776   2.687   1.306   1.517
 1582SOL    HW2  777   2.606   1.292   1.376
 1584SOL     OW  778   3.512   1.720   1.394
 1584SOL    HW1  779   3.565   1.730   1.310
 1584SOL    HW2  780   3.485   1.810   1.428
 1588SOL     OW  781   2.684   1.002   1.372
 1588SOL    HW1  782   2.724   1.001   1.280
 1588SOL    HW2  783   2.694   1.094   1.412
 1591SOL     OW  784   2.234   1.288   1.490
 1591SOL    HW1  785   2.221   1.381   1.456
 1591SOL    HW2  786   2.150   1.236   1.477
 1598SOL     OW  787   1.967   1.013   1.726
 1598SOL    HW1  788   1.890   0.980   1.780
 1598SOL    HW2  789   2.052   0.983   1.768
 1607SOL     OW  790   3.312   1.220   1.633
 1607SOL    HW1  791   3.303   1.210   1.732
 1607SOL    HW2  792   3.408   1.213   1.607
 1608SOL     OW  793   2.252   1.741   1.560
 1608SOL    HW1  794   2.161   1.782   1.558
 1608SOL    HW2  795   2.245   1.647   1.592
 1615SOL     OW  796   2.523   1.790   0.953
 1615SOL    HW1  797   2.477   1.878   0.940
 1615SOL    HW2  798   2.622   1.802   0.946
 1619SOL     OW  799   2.083   1.314   1.844
 1619SOL    HW1  800   2.018   1.241   1.823
 1619SOL    HW2  801   2.087   1.328   1.942
 1621SOL     OW  802   2.534   1.391   1.624
 1621SOL    HW1  803   2.456   1.341   1.662
 1621SOL    HW2  804   2.531   1.486   1.655
 1630SOL     OW  805   2.480   1.567   1.284
 1630SOL    HW1  806   2.475   1.649   1.341
 1630SOL    HW2  807   2.569   1.564   1.239
 1639SOL     OW  808   2.431   1.275   3.027
 1639SOL    HW1  809   2.338   1.268   2.990
 1639SOL    HW2  810   2.442   1.364   3.071
 1640SOL     OW  811   3.417   1.511   2.565
 1640SOL    HW1  812   3.360   1.495   2.646
 1640SOL    HW2  813   3.358   1.521   2.485
 1643SOL     OW  814   2.630   1.144   2.885
 1643SOL    HW1  815   2.552   1.161   2.945
 1643SOL    HW2  816   2.664   1.231   2.849
 1645SOL     OW  817   2.547   1.012   2.527
 1645SOL    HW1  818   2.616   0.996   2.597
 1645SOL    HW2  819   2.474   1.069   2.565
 1646SOL     OW  820   2.548   1.161   3.665
 1646SOL    HW1  821   2.608   1.240   3.679
 1646SOL    HW2  822   2.462   1.192   3.624
 1647SOL     OW  823   2.197   1.435   2.923
 1647SOL    HW1  824   2.119   1.404   2.870
 1647SOL    HW2  825   2.255   1.493   2.866
 1648SOL     OW  826   3.322   1.505   3.201
 1648SOL    HW1  827   3.346   1.599   3.227
 1648SOL    HW2  828   3.306   1.451   3.283
 1651SOL     OW  829   2.093   1.713   2.345
 1651SOL    HW1  830   2.127   1.790   2.399
 1651SOL    HW2  831   2.137   1.713   2.255
 1652SOL     OW  832   2.989   1.341   3.552
 1652SOL    HW1  833   3.036   1.341   3.640
 1652SOL    HW2  834   2.941   1.254   3.541
 1653SOL     OW  835   2.092   1.434   2.400
 1653SOL    HW1  836   2.066   1.530   2.400
 1653SOL    HW2  837   2.021   1.380   2.445
 1654SOL     OW  838   2.102   1.091   2.748
 1654SOL    HW1  839   2.116   1.007   2.800
 1654SOL    HW2  840   2.047   1.155   2.803
 1655SOL     OW  841   2.482   1.786   3.301
 1655SOL    HW1  842   2.390   1.769   3.336
 1655SOL    HW2  843   2.510   1.878   3.327
 1656SOL     OW  844   2.468   0.964   1.985
 1656SOL    HW1  845   2.475   1.048   1.931
 1656SOL    HW2  846   2.514   0.977   2.073
 1659SOL     OW  847   3.704   1.767   2.221
 1659SOL    HW1  848   3.758   1.738   2.301
 1659SOL    HW2  849   3.734   1.857   2.192
 1660SOL     OW  850   1.889   1.596   1.979
 1660SOL    HW1  851   1.870   1.500   2.000
 1660SOL    HW2  852   1.856   1.654   2.054
 1662SOL     OW  853   3.503   1.108   2.294
 1662SOL    HW1  854   3.589   1.110   2.242
 1662SOL    HW2  855   3.517   1.155   2.382
 1664SOL     OW  856   2.475   1.365   2.588
 1664SOL    HW1  857   2.426   1.278   2.597
 1664SOL    HW2  858   2.452   1.408   2.501
 1665SOL     OW  859   3.155   1.228   3.285
 1665SOL    HW1  860   3.192   1.155   3.227
 1665SOL    HW2  861   3.207   1.233   3.370
 1667SOL     OW  862   2.059   0.976   3.126
 1667SOL    HW1  863   2.148   0.931   3.112
 1667SOL    HW2  864   1.986   0.911   3.107
 1668SOL     OW  865   3.387   0.999   2.052
 1668SOL    HW1  866   3.324   0.923   2.065
 1668SOL    HW2  867   3.435   1.017   2.138
 1669SOL     OW  868   3.049   1.792   3.478
 1669SOL    HW1  869   3.073   1.852   3.402
 1669SOL    HW2  870   3.056   1.697   3.448
 1671SOL     OW  871   3.328   1.417   2.815
 1671SOL    HW1  872   3.269   1.423   2.895
 1671SOL    HW2  873   3.313   1.329   2.769
 1672SOL     OW  874   3.529   1.714   2.434
 1672SOL    HW1  875   3.488   1.691   2.346
 1672SOL    HW2  876   3.511   1.640   2.499
 1673SOL     OW  877   2.460   0.729   2.132
 1673SOL    HW1  878   2.484   0.798   2.064
 1673SOL    HW2  879   2.382   0.762   2.186
 1675SOL     OW  880   3.438   1.662   2.169
 1675SOL    HW1  881   3.527   1.708   2.172
 1675SOL    HW2  882   3.417   1.638   2.074
 1680SOL     OW  883   2.903   0.701   2.291
 1680SOL    HW1  884   2.929   0.697   2.387
 1680SOL    HW2  885   2.818   0.650   2.277
 1681SOL     OW  886   1.938   0.811   2.651
 1681SOL    HW1  887   2.037   0.799   2.660
 1681SOL    HW2  888   1.914   0.906   2.672
 1682SOL     OW  889   1.992   1.821   3.433
 1682SOL    HW1  890   1.982   1.806   3.532
 1682SOL    HW2  891   1.906   1.857   3.397
 1685SOL     OW  892   3.224   1.144   2.407
 1685SOL    HW1  893   3.307   1.115   2.359
 1685SOL    HW2  894   3.175   1.211   2.351
 1687SOL     OW  895   2.870   1.456   2.339
 1687SOL    HW1  896   2.824   1.528   2.287
 1687SOL    HW2  897   2.866   1.476   2.437
 1688SOL     OW  898   2.213   1.801   2.715
 1688SOL    HW1  899   2.263   1.715   2.721
 1688SOL    HW2  900   2.278   1.878   2.712
 1690SOL     OW  901   3.089   1.550   3.368
 1690SOL    HW1  902   3.095   1.473   3.432
 1690SOL    HW2  903   3.037   1.524   3.288
 1691SOL     OW  904   2.183   0.943   2.104
 1691SOL    HW1  905   2.265   0.982   2.062
 1691SOL    HW2  906   2.156   0.861   2.055
 1693SOL     OW  907   2.323   1.266   3.589
 1693SOL    HW1  908   2.273   1.267   3.503
 1693SOL    HW2  909   2.260   1.248   3.665
 1694SOL     OW  910   2.973   1.776   2.099
 1694SOL    HW1  911   2.913   1.714   2.149
 1694SOL    HW2  912   3.004   1.732   2.014
 1696SOL     OW  913   3.494   1.377   1.943
 1696SOL    HW1  914   3.462   1.471   1.933
 1696SOL    HW2  915   3.418   1.314   1.931
 1697SOL     OW  916   2.326   1.743   2.185
 1697SOL    HW1  917   2.359   1.782   2.271
 1697SOL    HW2  918   2.402   1.736   2.120
 1699SOL     OW  919   2.111   1.785   3.103
 1699SOL    HW1  920   2.168   1.720   3.153
 1699SOL    HW2  921   2.095   1.752   3.010
 1700SOL     OW  922   2.802   1.698   2.766
 1700SOL    HW1  923   2.882   1.641   2.787
 1700SOL    HW2  924   2.753   1.658   2.689
 1701SOL     OW  925   2.244   0.700   2.342
 1701SOL    HW1  926   2.289   0.610   2.339
 1701SOL    HW2  927   2.150   0.689   2.375
 1705SOL     OW  928   2.750   1.514   3.057
 1705SOL    HW1  929   2.727   1.489   2.963
 1705SOL    HW2  930   2.811   1.445   3.096
 1707SOL     OW  931   2.665   1.402   2.786
 1707SOL    HW1  932   2.755   1.416   2.744
 1707SOL    HW2  933   2.594   1.404   2.715
 1710SOL     OW  934   3.296   1.188   1.903
 1710SOL    HW1  935   3.328   1.112   1.960
 1710SOL    HW2  936   3.204   1.215   1.933
 1714SOL     OW  937   3.089   1.570   2.655
 1714SOL    HW1  938   3.110   1.644   2.590
 1714SOL    HW2  939   3.157   1.570   2.728
 1715SOL     OW  940   2.321   1.152   2.603
 1715SOL    HW1  941   2.250   1.125   2.668
 1715SOL    HW2  942   2.295   1.124   2.510
 1716SOL     OW  943   3.133   1.797   2.453
 1716SOL    HW1  944   3.177   1.861   2.389
 1716SOL    HW2  945   3.083   1.849   2.523
 1722SOL     OW  946   3.291   1.173   2.729
 1722SOL    HW1  947   3.236   1.089   2.722
 1722SOL    HW2  948   3.317   1.202   2.637
 1725SOL     OW  949   2.350   1.385   2.036
 1725SOL    HW1  950   2.263   1.370   2.083
 1725SOL    HW2  951   2.333   1.411   1.941
 1726SOL     OW  952   3.526   1.280   2.519
 1726SOL    HW1  953   3.625   1.288   2.533
 1726SOL    HW2  954   3.481   1.364   2.550
 1730SOL     OW  955   2.926   1.347   3.202
 1730SOL    HW1  956   2.846   1.324   3.257
 1730SOL    HW2  957   3.009   1.321   3.251
 1731SOL     OW  958   3.454   1.629   3.487
 1731SOL    HW1  959   3.481   1.663   3.397
 1731SOL    HW2  960   3.533   1.591   3.533
 1732SOL     OW  961   2.973   1.195   2.962
 1732SOL    HW1  962   2.933   1.239   3.043
 1732SOL    HW2  963   2.932   1.232   2.879
 1733SOL     OW  964   3.500   1.099   2.941
 1733SOL    HW1  965   3.505   1.180   3.000
 1733SOL    HW2  966   3.414   1.101   2.890
 1735SOL     OW  967   2.842   1.116   3.581
 1735SOL    HW1  968   2.743   1.122   3.591
 1735SOL    HW2  969   2.865   1.036   3.525
 1736SOL     OW  970   2.567   1.050   2.230
 1736SOL    HW1  971   2.553   1.057   2.329
 1736SOL    HW2  972   2.651   0.999   2.212
 1737SOL     OW  973   2.272   0.813   3.113
 1737SOL    HW1  974   2.358   0.825   3.163
 1737SOL    HW2  975   2.230   0.726   3.140
 1739SOL     OW  976   1.926   1.564   3.193
 1739SOL    HW1  977   1.880   1.646   3.159
 1739SOL    HW2  978   2.024   1.583   3.202
 1740SOL     OW  979   2.229   1.100   2.363
 1740SOL    HW1  980   2.222   1.183   2.307
 1740SOL    HW2  981   2.233   1.020   2.303
 1742SOL     OW  982   3.114   1.348   2.250
 1742SOL    HW1  983   3.164   1.425   2.290
 1742SOL    HW2  984   3.019   1.350   2.282
 1743SOL     OW  985   3.134   1.445   3.004
 1743SOL    HW1  986   3.181   1.458   3.091
 1743SOL    HW2  987   3.068   1.371   3.013
 1745SOL     OW  988   2.216   1.510   3.191
 1745SOL    HW1  989   2.195   1.466   3.104
 1745SOL    HW2  990   2.313   1.536   3.194
 1750SOL     OW  991   2.435   0.870   2.891
 1750SOL    HW1  992   2.479   0.959   2.882
 1750SOL    HW2  993   2.372   0.870   2.968
 1754SOL     OW  994   1.899   1.310   3.144
 1754SOL    HW1  995   1.952   1.261   3.212
 1754SOL    HW2  996   1.921   1.408   3.149
 1759SOL     OW  997   2.885   0.766   2.828
 1759SOL    HW1  998   2.900   0.787   2.924
 1759SOL    HW2  999   2.855   0.671   2.819
 1760SOL     OW 1000   2.842   1.573   3.562
 1760SOL    HW1 1001   2.822   1.617   3.474
 1760SOL    HW2 1002   2.881   1.482   3.546
 1765SOL     OW 1003   2.930   1.333   2.711
 1765SOL    HW1 1004   2.937   1.249   2.656
 1765SOL    HW2 1005   2.992   1.402   2.675
 1766SOL     OW 1006   2.181   0.810   2.811
 1766SOL    HW1 1007   2.274   0.846   2.816
 1766SOL    HW2 1008   2.175   0.725   2.863
 1770SOL     OW 1009   1.870   1.326   2.062
 1770SOL    HW1 1010   1.777   1.347   2.031
 1770SOL    HW2 1011   1.880   1.227   2.075
 1771SOL     OW 1012   1.950   1.801   2.789
 1771SOL    HW1 1013   1.908   1.715   2.762
 1771SOL    HW2 1014   2.044   1.804   2.755
 1772SOL     OW 1015   2.366   1.568   2.772
 1772SOL    HW1 1016   2.432   1.642   2.781
 1772SOL    HW2 1017   2.410   1.489   2.730
 1779SOL     OW 1018   2.114   1.564   3.606
 1779SOL    HW1 1019   2.084   1.621   3.682
 1779SOL    HW2 1020   2.107   1.467   3.632
 1781SOL     OW 1021   2.792   1.678   3.327
 1781SOL    HW1 1022   2.768   1.660   3.232
 1781SOL    HW2 1023   2.822   1.772   3.337
 1783SOL     OW 1024   2.021   1.137   3.328
 1783SOL    HW1 1025   2.043   1.076   3.404
 1783SOL    HW2 1026   2.031   1.088   3.242
 1784SOL     OW 1027   3.209   1.059   3.096
 1784SOL    HW1 1028   3.233   0.996   3.022
 1784SOL    HW2 1029   3.119   1.099   3.078
 1785SOL     OW 1030   3.164   0.855   2.171
 1785SOL    HW1 1031   3.078   0.824   2.213
 1785SOL    HW2 1032   3.160   0.841   2.072
 1786SOL     OW 1033   3.621   1.747   3.016
 1786SOL    HW1 1034   3.682   1.777   2.943
 1786SOL    HW2 1035   3.583   1.658   2.994
 1787SOL     OW 1036   3.114   1.731   2.990
 1787SOL    HW1 1037   3.198   1.736   2.936
 1787SOL    HW2 1038   3.091   1.635   3.008
 1788SOL     OW 1039   1.945   1.258   2.884
 1788SOL    HW1 1040   1.940   1.257   2.984
 1788SOL    HW2 1041   1.862   1.217   2.846
 1789SOL     OW 1042   2.550   1.662   3.578
 1789SOL    HW1 1043   2.494   1.743   3.587
 1789SOL    HW2 1044   2.602   1.666   3.492
 1791SOL     OW 1045   3.250   1.573   2.339
 1791SOL    HW1 1046   3.317   1.585   2.265
 1791SOL    HW2 1047   3.210   1.662   2.362
 1792SOL     OW 1048   1.992   1.794   3.713
 1792SOL    HW1 1049   1.951   1.720   3.766
 1792SOL    HW2 1050   2.056   1.845   3.771
 1793SOL     OW 1051   3.142   0.927   2.534
 1793SOL    HW1 1052   3.202   0.846   2.536
 1793SOL    HW2 1053   3.182   0.996   2.474
 1794SOL     OW 1054   2.692   1.273   3.284
 1794SOL    HW1 1055   2.687   1.306   3.379
 1794SOL    HW2 1056   2.606   1.292   3.238
 1795SOL     OW 1057   2.534   1.616   2.016
 1795SOL    HW1 1058   2.543   1.626   1.917
 1795SOL    HW2 1059   2.494   1.527   2.037
 1796SOL     OW 1060   3.512   1.720   3.256
 1796SOL    HW1 1061   3.565   1.730   3.172
 1796SOL    HW2 1062   3.485   1.810   3.290
 1799SOL     OW 1063   3.056   1.612   1.893
 1799SOL    HW1 1064   3.062   1.519   1.930
 1799SOL    HW2 1065   2.997   1.612   1.813
 1800SOL     OW 1066   2.684   1.002   3.234
 1800SOL    HW1 1067   2.724   1.001   3.142
 1800SOL    HW2 1068   2.694   1.094   3.274
 1801SOL     OW 1069   2.778   0.910   2.153
 1801SOL    HW1 1070   2.841   0.948   2.085
 1801SOL    HW2 1071   2.818   0.827   2.192
 1802SOL     OW 1072   3.366   1.607   1.906
 1802SOL    HW1 1073   3.274   1.644   1.913
 1802SOL    HW2 1074   3.404   1.627   1.816
 1803SOL     OW 1075   2.234   1.288   3.352
 1803SOL    HW1 1076   2.221   1.381   3.318
 1803SOL    HW2 1077   2.150   1.236   3.339
 1804SOL     OW 1078   3.476   1.292   3.151
 1804SOL    HW1 1079   3.536   1.295   3.231
 1804SOL    HW2 1080   3.401   1.356   3.164
 1805SOL     OW 1081   2.901   1.098   2.558
 1805SOL    HW1 1082   2.831   1.051   2.612
 1805SOL    HW2 1083   2.960   1.030   2.515
 1807SOL     OW 1084   2.452   1.487   2.353
 1807SOL    HW1 1085   2.494   1.429   2.283
 1807SOL    HW2 1086   2.408   1.566   2.309
 1809SOL     OW 1087   2.117   1.348   2.152
 1809SOL    HW1 1088   2.021   1.349   2.125
 1809SOL    HW2 1089   2.129   1.401   2.236
 1815SOL     OW 1090   3.045   1.335   1.981
 1815SOL    HW1 1091   2.946   1.324   1.983
 1815SOL    HW2 1092   3.079   1.350   2.074
 1816SOL     OW 1093   2.475   0.842   3.293
 1816SOL    HW1 1094   2.531   0.923   3.276
 1816SOL    HW2 1095   2.534   0.762   3.296
 1817SOL     OW 1096   3.355   1.767   2.821
 1817SOL    HW1 1097   3.388   1.831   2.752
 1817SOL    HW2 1098   3.421   1.761   2.896
 1820SOL     OW 1099   2.252   1.741   3.422
 1820SOL    HW1 1100   2.161   1.782   3.420
 1820SOL    HW2 1101   2.245   1.647   3.454
 1823SOL     OW 1102   2.456   0.745   2.514
 1823SOL    HW1 1103   2.506   0.830   2.495
 1823SOL    HW2 1104   2.368   0.747   2.466
 1826SOL     OW 1105   2.721   1.374   1.878
 1826SOL    HW1 1106   2.675   1.389   1.966
 1826SOL    HW2 1107   2.765   1.459   1.848
 1827SOL     OW 1108   2.523   1.790   2.815
 1827SOL    HW1 1109   2.477   1.878   2.802
 1827SOL    HW2 1110   2.622   1.802   2.808
 1828SOL     OW 1111   2.721   0.956   2.723
 1828SOL    HW1 1112   2.775   0.887   2.771
 1828SOL    HW2 1113   2.689   1.025   2.789
 1829SOL     OW 1114   2.945   0.984   1.949
 1829SOL    HW1 1115   2.922   1.037   1.867
 1829SOL    HW2 1116   3.026   0.928   1.930
 1830SOL     OW 1117   3.723   1.569   2.713
 1830SOL    HW1 1118   3.652   1.557   2.643
 1830SOL    HW2 1119   3.724   1.490   2.773
 1831SOL     OW 1120   2.083   1.314   3.706
 1831SOL    HW1 1121   2.018   1.241   3.685
 1831SOL    HW2 1122   2.087   1.328   3.804
 1832SOL     OW 1123   1.941   1.240   2.515
 1832SOL    HW1 1124   1.940   1.193   2.603
 1832SOL    HW2 1125   2.023   1.212   2.464
 1833SOL     OW 1126   2.534   1.391   3.486
 1833SOL    HW1 1127   2.456   1.341   3.524
 1833SOL    HW2 1128   2.531   1.486   3.517
 1836SOL     OW 1129   3.567   1.487   2.966
 1836SOL    HW1 1130   3.474   1.462   2.939
 1836SOL    HW2 1131   3.593   1.437   3.048
 1838SOL     OW 1132   2.674   1.586   2.549
 1838SOL    HW1 1133   2.706   1.596   2.455
 1838SOL    HW2 1134   2.595   1.524   2.551
 1841SOL     OW 1135   2.632   1.330   2.163
 1841SOL    HW1 1136   2.586   1.243   2.180
 1841SOL    HW2 1137   2.723   1.327   2.204
 1842SOL     OW 1138   2.480   1.567   3.146
 1842SOL    HW1 1139   2.475   1.649   3.203
 1842SOL    HW2 1140   2.569   1.564   3.101
 1846SOL     OW 1141   1.901   1.077   2.162
 1846SOL    HW1 1142   2.000   1.066   2.153
 1846SOL    HW2 1143   1.861   0.991   2.194
 1847SOL     OW 1144   2.737   1.646   2.199
 1847SOL    HW1 1145   2.660   1.611   2.145
 1847SOL    HW2 1146   2.705   1.717   2.261
 1864SOL     OW 1147   1.889   1.596   3.841
 1864SOL    HW1 1148   1.870   1.500   3.862
 1864SOL    HW2 1149   1.856   1.654   3.916
 1885SOL     OW 1150   2.973   1.776   3.961
 1885SOL    HW1 1151   2.913   1.714   4.011
 1885SOL    HW2 1152   3.004   1.732   3.876
 1887SOL     OW 1153   2.326   1.743   4.047
 1887SOL    HW1 1154   2.359   1.782   4.133
 1887SOL    HW2 1155   2.402   1.736   3.982
 1941SOL     OW 1156   2.534   1.616   3.878
 1941SOL    HW1 1157   2.543   1.626   3.779
 1941SOL    HW2 1158   2.494   1.527   3.899
 1944SOL     OW 1159   3.056   1.612   3.755
 1944SOL    HW1 1160   3.062   1.519   3.792
 1944SOL    HW2 1161   2.997   1.612   3.675
 1957SOL     OW 1162   2.721   1.374   3.740
 1957SOL    HW1 1163   2.675   1.389   3.828
 1957SOL    HW2 1164   2.765   1.459   3.710
 1973SOL     OW 1165   2.087   2.137   0.996
 1973SOL    HW1 1166   2.122   2.120   1.088
 1973SOL    HW2 1167   1.999   2.092   0.984
 1975SOL     OW 1168   2.431   3.137   1.165
 1975SOL    HW1 1169   2.338   3.130   1.128
 1975SOL    HW2 1170   2.442   3.226   1.209
 1977SOL     OW 1171   2.997   2.565   0.717
 1977SOL    HW1 1172   3.054   2.643   0.692
 1977SOL    HW2 1173   2.937   2.591   0.793
 1979SOL     OW 1174   2.630   3.006   1.023
 1979SOL    HW1 1175   2.552   3.023   1.083
 1979SOL    HW2 1176   2.664   3.093   0.987
 1980SOL     OW 1177   2.712   2.660   1.823
 1980SOL    HW1 1178   2.708   2.736   1.888
 1980SOL    HW2 1179   2.734   2.696   1.732
 1982SOL     OW 1180   2.548   3.023   1.803
 1982SOL    HW1 1181   2.608   3.102   1.817
 1982SOL    HW2 1182   2.462   3.054   1.762
 1983SOL     OW 1183   2.197   3.297   1.061
 1983SOL    HW1 1184   2.119   3.266   1.008
 1983SOL    HW2 1185   2.255   3.355   1.004
 1984SOL     OW 1186   3.322   3.367   1.339
 1984SOL    HW1 1187   3.346   3.461   1.365
 1984SOL    HW2 1188   3.306   3.313   1.421
 1985SOL     OW 1189   2.300   2.254   1.499
 1985SOL    HW1 1190   2.382   2.198   1.508
 1985SOL    HW2 1191   2.219   2.196   1.503
 1988SOL     OW 1192   2.989   3.203   1.690
 1988SOL    HW1 1193   3.036   3.203   1.778
 1988SOL    HW2 1194   2.941   3.116   1.679
 1990SOL     OW 1195   2.102   2.953   0.886
 1990SOL    HW1 1196   2.116   2.869   0.938
 1990SOL    HW2 1197   2.047   3.017   0.941
 1991SOL     OW 1198   2.482   3.648   1.439
 1991SOL    HW1 1199   2.390   3.631   1.474
 1991SOL    HW2 1200   2.510   3.740   1.465
 1993SOL     OW 1201   3.456   1.976   1.480
 1993SOL    HW1 1202   3.438   2.043   1.408
 1993SOL    HW2 1203   3.453   2.022   1.569
 1999SOL     OW 1204   1.975   2.599   1.597
 1999SOL    HW1 1205   2.063   2.586   1.642
 1999SOL    HW2 1206   1.962   2.696   1.575
 2001SOL     OW 1207   3.155   3.090   1.423
 2001SOL    HW1 1208   3.192   3.017   1.365
 2001SOL    HW2 1209   3.207   3.095   1.508
 2003SOL     OW 1210   2.059   2.838   1.264
 2003SOL    HW1 1211   2.148   2.793   1.250
 2003SOL    HW2 1212   1.986   2.773   1.245
 2005SOL     OW 1213   3.049   3.654   1.616
 2005SOL    HW1 1214   3.073   3.714   1.540
 2005SOL    HW2 1215   3.056   3.559   1.586
 2006SOL     OW 1216   2.179   2.113   1.801
 2006SOL    HW1 1217   2.250   2.184   1.807
 2006SOL    HW2 1218   2.091   2.152   1.829
 2010SOL     OW 1219   3.143   2.207   0.944
 2010SOL    HW1 1220   3.057   2.157   0.931
 2010SOL    HW2 1221   3.205   2.153   1.000
 2012SOL     OW 1222   2.669   2.467   1.465
 2012SOL    HW1 1223   2.622   2.464   1.554
 2012SOL    HW2 1224   2.618   2.412   1.399
 2013SOL     OW 1225   3.256   2.331   1.674
 2013SOL    HW1 1226   3.236   2.374   1.762
 2013SOL    HW2 1227   3.334   2.269   1.683
 2014SOL     OW 1228   2.835   2.752   1.572
 2014SOL    HW1 1229   2.881   2.668   1.543
 2014SOL    HW2 1230   2.779   2.786   1.497
 2015SOL     OW 1231   2.853   2.272   1.242
 2015SOL    HW1 1232   2.776   2.306   1.296
 2015SOL    HW2 1233   2.819   2.221   1.163
 2017SOL     OW 1234   1.938   2.673   0.789
 2017SOL    HW1 1235   2.037   2.661   0.798
 2017SOL    HW2 1236   1.914   2.768   0.810
 2018SOL     OW 1237   1.992   3.683   1.571
 2018SOL    HW1 1238   1.982   3.668   1.670
 2018SOL    HW2 1239   1.906   3.719   1.535
 2020SOL     OW 1240   3.581   2.447   1.831
 2020SOL    HW1 1241   3.555   2.536   1.795
 2020SOL    HW2 1242   3.579   2.379   1.758
 2022SOL     OW 1243   2.412   2.058   0.885
 2022SOL    HW1 1244   2.407   2.053   0.985
 2022SOL    HW2 1245   2.414   2.154   0.856
 2026SOL     OW 1246   3.089   3.412   1.506
 2026SOL    HW1 1247   3.095   3.335   1.570
 2026SOL    HW2 1248   3.037   3.386   1.426
 2029SOL     OW 1249   2.323   3.128   1.727
 2029SOL    HW1 1250   2.273   3.129   1.641
 2029SOL    HW2 1251   2.260   3.110   1.803
 2031SOL     OW 1252   2.064   2.147   1.498
 2031SOL    HW1 1253   1.984   2.207   1.485
 2031SOL    HW2 1254   2.054   2.098   1.584
 2035SOL     OW 1255   2.111   3.647   1.241
 2035SOL    HW1 1256   2.168   3.582   1.291
 2035SOL    HW2 1257   2.095   3.614   1.148
 2038SOL     OW 1258   3.409   2.084   1.729
 2038SOL    HW1 1259   3.404   2.121   1.821
 2038SOL    HW2 1260   3.337   2.015   1.717
 2040SOL     OW 1261   2.643   2.126   1.749
 2040SOL    HW1 1262   2.710   2.065   1.792
 2040SOL    HW2 1263   2.570   2.145   1.814
 2041SOL     OW 1264   2.750   3.376   1.195
 2041SOL    HW1 1265   2.727   3.351   1.101
 2041SOL    HW2 1266   2.811   3.307   1.234
 2042SOL     OW 1267   3.213   2.452   1.433
 2042SOL    HW1 1268   3.241   2.409   1.518
 2042SOL    HW2 1269   3.238   2.548   1.434
 2043SOL     OW 1270   2.665   3.264   0.924
 2043SOL    HW1 1271   2.755   3.278   0.882
 2043SOL    HW2 1272   2.594   3.266   0.853
 2044SOL     OW 1273   2.784   2.365   0.899
 2044SOL    HW1 1274   2.759   2.356   0.803
 2044SOL    HW2 1275   2.832   2.283   0.930
 2048SOL     OW 1276   2.938   2.545   1.464
 2048SOL    HW1 1277   2.858   2.484   1.467
 2048SOL    HW2 1278   3.019   2.492   1.440
 2050SOL     OW 1279   2.321   3.014   0.741
 2050SOL    HW1 1280   2.250   2.987   0.806
 2050SOL    HW2 1281   2.295   2.986   0.648
 2053SOL     OW 1282   1.940   2.418   1.386
 2053SOL    HW1 1283   2.032   2.417   1.345
 2053SOL    HW2 1284   1.934   2.492   1.453
 2054SOL     OW 1285   2.423   2.084   1.147
 2054SOL    HW1 1286   2.461   2.000   1.184
 2054SOL    HW2 1287   2.335   2.103   1.191
 2055SOL     OW 1288   2.728   2.316   0.642
 2055SOL    HW1 1289   2.696   2.388   0.580
 2055SOL    HW2 1290   2.752   2.235   0.589
 2056SOL     OW 1291   2.879   1.901   0.753
 2056SOL    HW1 1292   2.807   1.906   0.684
 2056SOL    HW2 1293   2.855   1.832   0.822
 2058SOL     OW 1294   3.328   2.452   0.992
 2058SOL    HW1 1295   3.298   2.357   0.999
 2058SOL    HW2 1296   3.401   2.468   1.058
 2064SOL     OW 1297   3.616   3.085   1.588
 2064SOL    HW1 1298   3.707   3.046   1.575
 2064SOL    HW2 1299   3.624   3.181   1.612
 2065SOL     OW 1300   2.926   3.209   1.340
 2065SOL    HW1 1301   2.846   3.186   1.395
 2065SOL    HW2 1302   3.009   3.183   1.389
 2066SOL     OW 1303   3.454   3.491   1.625
 2066SOL    HW1 1304   3.481   3.525   1.535
 2066SOL    HW2 1305   3.533   3.453   1.671
 2067SOL     OW 1306   2.973   3.057   1.100
 2067SOL    HW1 1307   2.933   3.101   1.181
 2067SOL    HW2 1308   2.932   3.094   1.017
 2069SOL     OW 1309   2.777   1.951   1.402
 2069SOL    HW1 1310   2.802   1.931   1.307
 2069SOL    HW2 1311   2.849   2.007   1.444
 2070SOL     OW 1312   2.842   2.978   1.719
 2070SOL    HW1 1313   2.743   2.984   1.729
 2070SOL    HW2 1314   2.865   2.898   1.663
 2072SOL     OW 1315   2.272   2.675   1.251
 2072SOL    HW1 1316   2.358   2.687   1.301
 2072SOL    HW2 1317   2.230   2.588   1.278
 2073SOL     OW 1318   3.136   2.248   1.262
 2073SOL    HW1 1319   3.157   2.322   1.326
 2073SOL    HW2 1320   3.047   2.265   1.219
 2074SOL     OW 1321   1.926   3.426   1.331
 2074SOL    HW1 1322   1.880   3.508   1.297
 2074SOL    HW2 1323   2.024   3.445   1.340
 2076SOL     OW 1324   2.428   2.399   0.865
 2076SOL    HW1 1325   2.440   2.465   0.791
 2076SOL    HW2 1326   2.474   2.433   0.948
 2078SOL     OW 1327   3.134   3.307   1.142
 2078SOL    HW1 1328   3.181   3.320   1.229
 2078SOL    HW2 1329   3.068   3.233   1.151
 2080SOL     OW 1330   2.216   3.372   1.329
 2080SOL    HW1 1331   2.195   3.328   1.242
 2080SOL    HW2 1332   2.313   3.398   1.332
 2081SOL     OW 1333   2.264   2.613   1.598
 2081SOL    HW1 1334   2.332   2.668   1.551
 2081SOL    HW2 1335   2.304   2.525   1.625
 2082SOL     OW 1336   3.449   2.641   1.670
 2082SOL    HW1 1337   3.357   2.679   1.665
 2082SOL    HW2 1338   3.509   2.688   1.605
 2083SOL     OW 1339   2.875   1.967   1.770
 2083SOL    HW1 1340   2.881   2.052   1.718
 2083SOL    HW2 1341   2.907   1.891   1.713
 2084SOL     OW 1342   2.366   1.912   1.740
 2084SOL    HW1 1343   2.324   1.855   1.670
 2084SOL    HW2 1344   2.300   1.981   1.772
 2085SOL     OW 1345   2.435   2.732   1.029
 2085SOL    HW1 1346   2.479   2.821   1.020
 2085SOL    HW2 1347   2.372   2.732   1.106
 2086SOL     OW 1348   3.222   2.724   1.045
 2086SOL    HW1 1349   3.147   2.724   0.979
 2086SOL    HW2 1350   3.259   2.632   1.054
 2088SOL     OW 1351   2.169   2.075   1.231
 2088SOL    HW1 1352   2.146   2.112   1.321
 2088SOL    HW2 1353   2.139   1.980   1.225
 2089SOL     OW 1354   1.899   3.172   1.282
 2089SOL    HW1 1355   1.952   3.123   1.350
 2089SOL    HW2 1356   1.921   3.270   1.287
 2090SOL     OW 1357   2.594   2.496   1.064
 2090SOL    HW1 1358   2.653   2.470   0.988
 2090SOL    HW2 1359   2.566   2.592   1.053
 2091SOL     OW 1360   3.590   2.797   1.854
 2091SOL    HW1 1361   3.544   2.790   1.765
 2091SOL    HW2 1362   3.528   2.841   1.920
 2094SOL     OW 1363   2.885   2.628   0.966
 2094SOL    HW1 1364   2.900   2.649   1.062
 2094SOL    HW2 1365   2.855   2.533   0.957
 2095SOL     OW 1366   2.842   3.435   1.700
 2095SOL    HW1 1367   2.822   3.479   1.612
 2095SOL    HW2 1368   2.881   3.344   1.684
 2097SOL     OW 1369   2.212   2.760   1.804
 2097SOL    HW1 1370   2.288   2.804   1.852
 2097SOL    HW2 1371   2.247   2.713   1.722
 2101SOL     OW 1372   2.181   2.672   0.949
 2101SOL    HW1 1373   2.274   2.708   0.954
 2101SOL    HW2 1374   2.175   2.587   1.001
 2102SOL     OW 1375   2.201   2.371   1.006
 2102SOL    HW1 1376   2.149   2.288   0.989
 2102SOL    HW2 1377   2.278   2.376   0.942
 2103SOL     OW 1378   3.000   2.242   1.678
 2103SOL    HW1 1379   2.955   2.305   1.742
 2103SOL    HW2 1380   3.093   2.273   1.661
 2104SOL     OW 1381   3.022   2.069   1.477
 2104SOL    HW1 1382   3.022   2.133   1.554
 2104SOL    HW2 1383   3.050   2.117   1.394
 2108SOL     OW 1384   2.864   2.658   1.238
 2108SOL    HW1 1385   2.905   2.626   1.324
 2108SOL    HW2 1386   2.768   2.631   1.235
 2109SOL     OW 1387   1.902   2.406   1.114
 2109SOL    HW1 1388   1.987   2.373   1.073
 2109SOL    HW2 1389   1.915   2.421   1.212
 2110SOL     OW 1390   2.051   2.382   1.722
 2110SOL    HW1 1391   2.110   2.342   1.652
 2110SOL    HW2 1392   1.993   2.453   1.681
 2111SOL     OW 1393   3.231   2.812   1.660
 2111SOL    HW1 1394   3.270   2.901   1.680
 2111SOL    HW2 1395   3.241   2.792   1.563
 2113SOL     OW 1396   3.519   2.466   1.206
 2113SOL    HW1 1397   3.481   2.397   1.268
 2113SOL    HW2 1398   3.601   2.430   1.162
 2114SOL     OW 1399   2.114   3.426   1.744
 2114SOL    HW1 1400   2.084   3.483   1.820
 2114SOL    HW2 1401   2.107   3.329   1.770
 2115SOL     OW 1402   2.533   2.326   1.269
 2115SOL    HW1 1403   2.499   2.237   1.239
 2115SOL    HW2 1404   2.559   2.380   1.189
 2116SOL     OW 1405   2.792   3.540   1.465
 2116SOL    HW1 1406   2.768   3.522   1.370
 2116SOL    HW2 1407   2.822   3.634   1.475
 2118SOL     OW 1408   2.021   2.999   1.466
 2118SOL    HW1 1409   2.043   2.938   1.542
 2118SOL    HW2 1410   2.031   2.950   1.380
 2119SOL     OW 1411   3.209   2.921   1.234
 2119SOL    HW1 1412   3.233   2.858   1.160
 2119SOL    HW2 1413   3.119   2.961   1.216
 2123SOL     OW 1414   1.945   3.120   1.022
 2123SOL    HW1 1415   1.940   3.119   1.122
 2123SOL    HW2 1416   1.862   3.079   0.984
 2124SOL     OW 1417   2.550   3.524   1.716
 2124SOL    HW1 1418   2.494   3.605   1.725
 2124SOL    HW2 1419   2.602   3.528   1.630
 2128SOL     OW 1420   1.992   3.656   1.851
 2128SOL    HW1 1421   1.951   3.582   1.904
 2128SOL    HW2 1422   2.056   3.707   1.909
 2130SOL     OW 1423   2.692   3.135   1.422
 2130SOL    HW1 1424   2.687   3.168   1.517
 2130SOL    HW2 1425   2.606   3.154   1.376
 2134SOL     OW 1426   2.125   2.188   0.720
 2134SOL    HW1 1427   2.046   2.239   0.686
 2134SOL    HW2 1428   2.116   2.173   0.818
 2136SOL     OW 1429   2.684   2.864   1.372
 2136SOL    HW1 1430   2.724   2.863   1.280
 2136SOL    HW2 1431   2.694   2.956   1.412
 2139SOL     OW 1432   2.234   3.150   1.490
 2139SOL    HW1 1433   2.221   3.243   1.456
 2139SOL    HW2 1434   2.150   3.098   1.477
 2140SOL     OW 1435   3.476   3.154   1.289
 2140SOL    HW1 1436   3.536   3.157   1.369
 2140SOL    HW2 1437   3.401   3.218   1.302
 2142SOL     OW 1438   2.876   2.098   0.971
 2142SOL    HW1 1439   2.868   2.062   0.878
 2142SOL    HW2 1440   2.874   2.022   1.036
 2144SOL     OW 1441   3.571   2.247   1.381
 2144SOL    HW1 1442   3.644   2.316   1.385
 2144SOL    HW2 1443   3.599   2.172   1.322
 2146SOL     OW 1444   1.967   2.875   1.726
 2146SOL    HW1 1445   1.890   2.842   1.780
 2146SOL    HW2 1446   2.052   2.845   1.768
 2147SOL     OW 1447   2.534   2.065   1.489
 2147SOL    HW1 1448   2.624   2.049   1.449
 2147SOL    HW2 1449   2.542   2.070   1.588
 2149SOL     OW 1450   3.302   2.718   1.398
 2149SOL    HW1 1451   3.245   2.770   1.335
 2149SOL    HW2 1452   3.398   2.730   1.374
 2152SOL     OW 1453   2.475   2.704   1.431
 2152SOL    HW1 1454   2.531   2.785   1.414
 2152SOL    HW2 1455   2.534   2.624   1.434
 2154SOL     OW 1456   2.578   2.427   1.708
 2154SOL    HW1 1457   2.597   2.492   1.782
 2154SOL    HW2 1458   2.638   2.347   1.717
 2155SOL     OW 1459   3.312   3.082   1.633
 2155SOL    HW1 1460   3.303   3.072   1.732
 2155SOL    HW2 1461   3.408   3.075   1.607
 2156SOL     OW 1462   2.252   3.603   1.560
 2156SOL    HW1 1463   2.161   3.644   1.558
 2156SOL    HW2 1464   2.245   3.509   1.592
 2157SOL     OW 1465   3.536   2.745   1.254
 2157SOL    HW1 1466   3.509   2.656   1.217
 2157SOL    HW2 1467   3.537   2.813   1.181
 2159SOL     OW 1468   2.456   2.607   0.652
 2159SOL    HW1 1469   2.506   2.692   0.633
 2159SOL    HW2 1470   2.368   2.609   0.604
 2160SOL     OW 1471   3.639   2.204   1.642
 2160SOL    HW1 1472   3.622   2.235   1.548
 2160SOL    HW2 1473   3.555   2.167   1.680
 2161SOL     OW 1474   3.592   2.796   1.517
 2161SOL    HW1 1475   3.630   2.887   1.532
 2161SOL    HW2 1476   3.584   2.779   1.418
 2164SOL     OW 1477   2.721   2.818   0.861
 2164SOL    HW1 1478   2.775   2.749   0.909
 2164SOL    HW2 1479   2.689   2.887   0.927
 2167SOL     OW 1480   2.083   3.176   1.844
 2167SOL    HW1 1481   2.018   3.103   1.823
 2167SOL    HW2 1482   2.087   3.190   1.942
 2169SOL     OW 1483   2.534   3.253   1.624
 2169SOL    HW1 1484   2.456   3.203   1.662
 2169SOL    HW2 1485   2.531   3.348   1.655
 2170SOL     OW 1486   3.686   2.054   1.227
 2170SOL    HW1 1487   3.682   1.964   1.271
 2170SOL    HW2 1488   3.689   2.043   1.128
 2173SOL     OW 1489   2.179   2.409   1.280
 2173SOL    HW1 1490   2.217   2.350   1.352
 2173SOL    HW2 1491   2.219   2.383   1.192
 2175SOL     OW 1492   3.286   2.076   1.112
 2175SOL    HW1 1493   3.338   2.011   1.167
 2175SOL    HW2 1494   3.237   2.139   1.173
 2176SOL     OW 1495   2.863   1.896   1.154
 2176SOL    HW1 1496   2.800   1.824   1.123
 2176SOL    HW2 1497   2.956   1.860   1.154
 2178SOL     OW 1498   2.480   3.429   1.284
 2178SOL    HW1 1499   2.475   3.511   1.341
 2178SOL    HW2 1500   2.569   3.426   1.239
 2184SOL     OW 1501   2.092   2.490   1.975
 2184SOL    HW1 1502   1.999   2.488   2.012
 2184SOL    HW2 1503   2.093   2.451   1.883
 2185SOL     OW 1504   2.087   2.137   2.858
 2185SOL    HW1 1505   2.122   2.120   2.950
 2185SOL    HW2 1506   1.999   2.092   2.846
 2186SOL     OW 1507   1.881   2.230   2.509
 2186SOL    HW1 1508   1.799   2.273   2.548
 2186SOL    HW2 1509   1.853   2.157   2.446
 2187SOL     OW 1510   2.431   3.137   3.027
 2187SOL    HW1 1511   2.338   3.130   2.990
 2187SOL    HW2 1512   2.442   3.226   3.071
 2188SOL     OW 1513   3.417   3.373   2.565
 2188SOL    HW1 1514   3.360   3.357   2.646
 2188SOL    HW2 1515   3.358   3.383   2.485
 2189SOL     OW 1516   2.997   2.565   2.579
 2189SOL    HW1 1517   3.054   2.643   2.554
 2189SOL    HW2 1518   2.937   2.591   2.655
 2190SOL     OW 1519   3.617   2.469   2.093
 2190SOL    HW1 1520   3.605   2.456   1.994
 2190SOL    HW2 1521   3.587   2.388   2.142
 2191SOL     OW 1522   2.630   3.006   2.885
 2191SOL    HW1 1523   2.552   3.023   2.945
 2191SOL    HW2 1524   2.664   3.093   2.849
 2192SOL     OW 1525   2.712   2.660   3.685
 2192SOL    HW1 1526   2.708   2.736   3.750
 2192SOL    HW2 1527   2.734   2.696   3.594
 2193SOL     OW 1528   2.547   2.874   2.527
 2193SOL    HW1 1529   2.616   2.858   2.597
 2193SOL    HW2 1530   2.474   2.931   2.565
 2194SOL     OW 1531   2.548   3.023   3.665
 2194SOL    HW1 1532   2.608   3.102   3.679
 2194SOL    HW2 1533   2.462   3.054   3.624
 2195SOL     OW 1534   2.197   3.297   2.923
 2195SOL    HW1 1535   2.119   3.266   2.870
 2195SOL    HW2 1536   2.255   3.355   2.866
 2196SOL     OW 1537   3.322   3.367   3.201
 2196SOL    HW1 1538   3.346   3.461   3.227
 2196SOL    HW2 1539   3.306   3.313   3.283
 2197SOL     OW 1540   2.300   2.254   3.361
 2197SOL    HW1 1541   2.382   2.198   3.370
 2197SOL    HW2 1542   2.219   2.196   3.365
 2198SOL     OW 1543   3.465   2.309   2.599
 2198SOL    HW1 1544   3.391   2.355   2.549
 2198SOL    HW2 1545   3.516   2.377   2.652
 2199SOL     OW 1546   2.093   3.575   2.345
 2199SOL    HW1 1547   2.127   3.652   2.399
 2199SOL    HW2 1548   2.137   3.575   2.255
 2200SOL     OW 1549   2.989   3.203   3.552
 2200SOL    HW1 1550   3.036   3.203   3.640
 2200SOL    HW2 1551   2.941   3.116   3.541
 2201SOL     OW 1552   2.092   3.296   2.400
 2201SOL    HW1 1553   2.066   3.392   2.400
 2201SOL    HW2 1554   2.021   3.242   2.445
 2202SOL     OW 1555   2.102   2.953   2.748
 2202SOL    HW1 1556   2.116   2.869   2.800
 2202SOL    HW2 1557   2.047   3.017   2.803
 2203SOL     OW 1558   2.482   3.648   3.301
 2203SOL    HW1 1559   2.390   3.631   3.336
 2203SOL    HW2 1560   2.510   3.740   3.327
 2204SOL     OW 1561   2.468   2.826   1.985
 2204SOL    HW1 1562   2.475   2.910   1.931
 2204SOL    HW2 1563   2.514   2.839   2.073
 2205SOL     OW 1564   3.456   1.976   3.342
 2205SOL    HW1 1565   3.438   2.043   3.270
 2205SOL    HW2 1566   3.453   2.022   3.431
 2206SOL     OW 1567   1.984   2.505   2.425
 2206SOL    HW1 1568   1.939   2.417   2.442
 2206SOL    HW2 1569   1.983   2.559   2.509
 2207SOL     OW 1570   3.704   3.629   2.221
 2207SOL    HW1 1571   3.758   3.600   2.301
 2207SOL    HW2 1572   3.734   3.719   2.192
 2208SOL     OW 1573   1.889   3.458   1.979
 2208SOL    HW1 1574   1.870   3.362   2.000
 2208SOL    HW2 1575   1.856   3.516   2.054
 2209SOL     OW 1576   3.551   2.784   2.474
 2209SOL    HW1 1577   3.646   2.755   2.482
 2209SOL    HW2 1578   3.543   2.849   2.399
 2210SOL     OW 1579   3.503   2.970   2.294
 2210SOL    HW1 1580   3.589   2.972   2.242
 2210SOL    HW2 1581   3.517   3.017   2.382
 2211SOL     OW 1582   1.975   2.599   3.459
 2211SOL    HW1 1583   2.063   2.586   3.504
 2211SOL    HW2 1584   1.962   2.696   3.437
 2212SOL     OW 1585   2.475   3.227   2.588
 2212SOL    HW1 1586   2.426   3.140   2.597
 2212SOL    HW2 1587   2.452   3.270   2.501
 2213SOL     OW 1588   3.155   3.090   3.285
 2213SOL    HW1 1589   3.192   3.017   3.227
 2213SOL    HW2 1590   3.207   3.095   3.370
 2214SOL     OW 1591   2.671   1.866   2.364
 2214SOL    HW1 1592   2.711   1.957   2.355
 2214SOL    HW2 1593   2.571   1.874   2.370
 2215SOL     OW 1594   2.059   2.838   3.126
 2215SOL    HW1 1595   2.148   2.793   3.112
 2215SOL    HW2 1596   1.986   2.773   3.107
 2216SOL     OW 1597   3.387   2.861   2.052
 2216SOL    HW1 1598   3.324   2.785   2.065
 2216SOL    HW2 1599   3.435   2.879   2.138
 2217SOL     OW 1600   3.049   3.654   3.478
 2217SOL    HW1 1601   3.073   3.714   3.402
 2217SOL    HW2 1602   3.056   3.559   3.448
 2218SOL     OW 1603   2.179   2.113   3.663
 2218SOL    HW1 1604   2.250   2.184   3.669
 2218SOL    HW2 1605   2.091   2.152   3.691
 2219SOL     OW 1606   3.328   3.279   2.815
 2219SOL    HW1 1607   3.269   3.285   2.895
 2219SOL    HW2 1608   3.313   3.191   2.769
 2220SOL     OW 1609   3.529   3.576   2.434
 2220SOL    HW1 1610   3.488   3.553   2.346
 2220SOL    HW2 1611   3.511   3.502   2.499
 2221SOL     OW 1612   2.460   2.591   2.132
 2221SOL    HW1 1613   2.484   2.660   2.064
 2221SOL    HW2 1614   2.382   2.624   2.186
 2222SOL     OW 1615   3.143   2.207   2.806
 2222SOL    HW1 1616   3.057   2.157   2.793
 2222SOL    HW2 1617   3.205   2.153   2.862
 2223SOL     OW 1618   3.438   3.524   2.169
 2223SOL    HW1 1619   3.527   3.570   2.172
 2223SOL    HW2 1620   3.417   3.500   2.074
 2224SOL     OW 1621   2.669   2.467   3.327
 2224SOL    HW1 1622   2.622   2.464   3.416
 2224SOL    HW2 1623   2.618   2.412   3.261
 2225SOL     OW 1624   3.256   2.331   3.536
 2225SOL    HW1 1625   3.236   2.374   3.624
 2225SOL    HW2 1626   3.334   2.269   3.545
 2226SOL     OW 1627   2.835   2.752   3.434
 2226SOL    HW1 1628   2.881   2.668   3.405
 2226SOL    HW2 1629   2.779   2.786   3.359
 2227SOL     OW 1630   2.853   2.272   3.104
 2227SOL    HW1 1631   2.776   2.306   3.158
 2227SOL    HW2 1632   2.819   2.221   3.025
 2228SOL     OW 1633   2.903   2.563   2.291
 2228SOL    HW1 1634   2.929   2.559   2.387
 2228SOL    HW2 1635   2.818   2.512   2.277
 2229SOL     OW 1636   1.938   2.673   2.651
 2229SOL    HW1 1637   2.037   2.661   2.660
 2229SOL    HW2 1638   1.914   2.768   2.672
 2230SOL     OW 1639   1.992   3.683   3.433
 2230SOL    HW1 1640   1.982   3.668   3.532
 2230SOL    HW2 1641   1.906   3.719   3.397
 2231SOL     OW 1642   2.727   2.210   2.057
 2231SOL    HW1 1643   2.786   2.273   2.008
 2231SOL    HW2 1644   2.746   2.116   2.028
 2232SOL     OW 1645   3.581   2.447   3.693
 2232SOL    HW1 1646   3.555   2.536   3.657
 2232SOL    HW2 1647   3.579   2.379   3.620
 2233SOL     OW 1648   3.224   3.006   2.407
 2233SOL    HW1 1649   3.307   2.977   2.359
 2233SOL    HW2 1650   3.175   3.073   2.351
 2234SOL     OW 1651   2.412   2.058   2.747
 2234SOL    HW1 1652   2.407   2.053   2.847
 2234SOL    HW2 1653   2.414   2.154   2.718
 2235SOL     OW 1654   2.870   3.318   2.339
 2235SOL    HW1 1655   2.824   3.390   2.287
 2235SOL    HW2 1656   2.866   3.338   2.437
 2236SOL     OW 1657   2.213   3.663   2.715
 2236SOL    HW1 1658   2.263   3.577   2.721
 2236SOL    HW2 1659   2.278   3.740   2.712
 2237SOL     OW 1660   3.657   2.928   2.735
 2237SOL    HW1 1661   3.595   2.913   2.659
 2237SOL    HW2 1662   3.605   2.939   2.820
 2238SOL     OW 1663   3.089   3.412   3.368
 2238SOL    HW1 1664   3.095   3.335   3.432
 2238SOL    HW2 1665   3.037   3.386   3.288
 2239SOL     OW 1666   2.183   2.805   2.104
 2239SOL    HW1 1667   2.265   2.844   2.062
 2239SOL    HW2 1668   2.156   2.723   2.055
 2240SOL     OW 1669   3.320   2.597   2.590
 2240SOL    HW1 1670   3.315   2.532   2.665
 2240SOL    HW2 1671   3.400   2.656   2.603
 2241SOL     OW 1672   2.323   3.128   3.589
 2241SOL    HW1 1673   2.273   3.129   3.503
 2241SOL    HW2 1674   2.260   3.110   3.665
 2242SOL     OW 1675   2.973   3.638   2.099
 2242SOL    HW1 1676   2.913   3.576   2.149
 2242SOL    HW2 1677   3.004   3.594   2.014
 2243SOL     OW 1678   2.064   2.147   3.360
 2243SOL    HW1 1679   1.984   2.207   3.347
 2243SOL    HW2 1680   2.054   2.098   3.446
 2244SOL     OW 1681   3.494   3.239   1.943
 2244SOL    HW1 1682   3.462   3.333   1.933
 2244SOL    HW2 1683   3.418   3.176   1.931
 2245SOL     OW 1684   2.326   3.605   2.185
 2245SOL    HW1 1685   2.359   3.644   2.271
 2245SOL    HW2 1686   2.402   3.598   2.120
 2246SOL     OW 1687   3.262   1.969   2.288
 2246SOL    HW1 1688   3.238   1.932   2.198
 2246SOL    HW2 1689   3.361   1.985   2.292
 2247SOL     OW 1690   2.111   3.647   3.103
 2247SOL    HW1 1691   2.168   3.582   3.153
 2247SOL    HW2 1692   2.095   3.614   3.010
 2248SOL     OW 1693   2.802   3.560   2.766
 2248SOL    HW1 1694   2.882   3.503   2.787
 2248SOL    HW2 1695   2.753   3.520   2.689
 2249SOL     OW 1696   3.409   2.084   3.591
 2249SOL    HW1 1697   3.404   2.121   3.683
 2249SOL    HW2 1698   3.337   2.015   3.579
 2250SOL     OW 1699   2.476   1.984   1.979
 2250SOL    HW1 1700   2.574   1.962   1.986
 2250SOL    HW2 1701   2.445   1.967   1.886
 2251SOL     OW 1702   2.643   2.126   3.611
 2251SOL    HW1 1703   2.710   2.065   3.654
 2251SOL    HW2 1704   2.570   2.145   3.676
 2252SOL     OW 1705   2.750   3.376   3.057
 2252SOL    HW1 1706   2.727   3.351   2.963
 2252SOL    HW2 1707   2.811   3.307   3.096
 2253SOL     OW 1708   3.213   2.452   3.295
 2253SOL    HW1 1709   3.241   2.409   3.380
 2253SOL    HW2 1710   3.238   2.548   3.296
 2254SOL     OW 1711   2.665   3.264   2.786
 2254SOL    HW1 1712   2.755   3.278   2.744
 2254SOL    HW2 1713   2.594   3.266   2.715
 2255SOL     OW 1714   2.784   2.365   2.761
 2255SOL    HW1 1715   2.759   2.356   2.665
 2255SOL    HW2 1716   2.832   2.283   2.792
 2256SOL     OW 1717   2.401   1.926   2.374
 2256SOL    HW1 1718   2.320   1.927   2.432
 2256SOL    HW2 1719   2.404   2.009   2.319
 2257SOL     OW 1720   3.296   3.050   1.903
 2257SOL    HW1 1721   3.328   2.974   1.960
 2257SOL    HW2 1722   3.204   3.077   1.933
 2258SOL     OW 1723   2.159   1.897   2.033
 2258SOL    HW1 1724   2.208   1.981   2.012
 2258SOL    HW2 1725   2.221   1.832   2.078
 2259SOL     OW 1726   2.797   2.098   2.342
 2259SOL    HW1 1727   2.749   2.139   2.264
 2259SOL    HW2 1728   2.896   2.096   2.323
 2260SOL     OW 1729   2.938   2.545   3.326
 2260SOL    HW1 1730   2.858   2.484   3.329
 2260SOL    HW2 1731   3.019   2.492   3.302
 2261SOL     OW 1732   3.089   3.432   2.655
 2261SOL    HW1 1733   3.110   3.506   2.590
 2261SOL    HW2 1734   3.157   3.432   2.728
 2262SOL     OW 1735   2.321   3.014   2.603
 2262SOL    HW1 1736   2.250   2.987   2.668
 2262SOL    HW2 1737   2.295   2.986   2.510
 2263SOL     OW 1738   3.133   3.659   2.453
 2263SOL    HW1 1739   3.177   3.723   2.389
 2263SOL    HW2 1740   3.083   3.711   2.523
 2264SOL     OW 1741   2.894   2.411   1.878
 2264SOL    HW1 1742   2.853   2.493   1.839
 2264SOL    HW2 1743   2.958   2.437   1.951
 2265SOL     OW 1744   1.940   2.418   3.248
 2265SOL    HW1 1745   2.032   2.417   3.207
 2265SOL    HW2 1746   1.934   2.492   3.315
 2266SOL     OW 1747   2.423   2.084   3.009
 2266SOL    HW1 1748   2.461   2.000   3.046
 2266SOL    HW2 1749   2.335   2.103   3.053
 2267SOL     OW 1750   2.879   1.901   2.615
 2267SOL    HW1 1751   2.807   1.906   2.546
 2267SOL    HW2 1752   2.855   1.832   2.684
 2268SOL     OW 1753   3.291   3.035   2.729
 2268SOL    HW1 1754   3.236   2.951   2.722
 2268SOL    HW2 1755   3.317   3.064   2.637
 2269SOL     OW 1756   3.328   2.452   2.854
 2269SOL    HW1 1757   3.298   2.357   2.861
 2269SOL    HW2 1758   3.401   2.468   2.920
 2270SOL     OW 1759   3.719   2.695   2.239
 2270SOL    HW1 1760   3.761   2.631   2.303
 2270SOL    HW2 1761   3.681   2.644   2.161
 2271SOL     OW 1762   2.350   3.247   2.036
 2271SOL    HW1 1763   2.263   3.232   2.083
 2271SOL    HW2 1764   2.333   3.273   1.941
 2272SOL     OW 1765   3.526   3.142   2.519
 2272SOL    HW1 1766   3.625   3.150   2.533
 2272SOL    HW2 1767   3.481   3.226   2.550
 2273SOL     OW 1768   3.252   2.437   1.940
 2273SOL    HW1 1769   3.198   2.416   2.021
 2273SOL    HW2 1770   3.343   2.396   1.949
 2274SOL     OW 1771   2.389   2.118   2.190
 2274SOL    HW1 1772   2.416   2.059   2.115
 2274SOL    HW2 1773   2.389   2.213   2.159
 2275SOL     OW 1774   3.616   3.085   3.450
 2275SOL    HW1 1775   3.707   3.046   3.437
 2275SOL    HW2 1776   3.624   3.181   3.474
 2276SOL     OW 1777   2.926   3.209   3.202
 2276SOL    HW1 1778   2.846   3.186   3.257
 2276SOL    HW2 1779   3.009   3.183   3.251
 2278SOL     OW 1780   2.973   3.057   2.962
 2278SOL    HW1 1781   2.933   3.101   3.043
 2278SOL    HW2 1782   2.932   3.094   2.879
 2279SOL     OW 1783   3.500   2.961   2.941
 2279SOL    HW1 1784   3.505   3.042   3.000
 2279SOL    HW2 1785   3.414   2.963   2.890
 2280SOL     OW 1786   2.777   1.951   3.264
 2280SOL    HW1 1787   2.802   1.931   3.169
 2280SOL    HW2 1788   2.849   2.007   3.306
 2281SOL     OW 1789   2.842   2.978   3.581
 2281SOL    HW1 1790   2.743   2.984   3.591
 2281SOL    HW2 1791   2.865   2.898   3.525
 2282SOL     OW 1792   2.567   2.912   2.230
 2282SOL    HW1 1793   2.553   2.919   2.329
 2282SOL    HW2 1794   2.651   2.861   2.212
 2283SOL     OW 1795   2.272   2.675   3.113
 2283SOL    HW1 1796   2.358   2.687   3.163
 2283SOL    HW2 1797   2.230   2.588   3.140
 2284SOL     OW 1798   3.136   2.248   3.124
 2284SOL    HW1 1799   3.157   2.322   3.188
 2284SOL    HW2 1800   3.047   2.265   3.081
 2285SOL     OW 1801   1.926   3.426   3.193
 2285SOL    HW1 1802   1.880   3.508   3.159
 2285SOL    HW2 1803   2.024   3.445   3.202
 2286SOL     OW 1804   2.229   2.962   2.363
 2286SOL    HW1 1805   2.222   3.045   2.307
 2286SOL    HW2 1806   2.233   2.882   2.303
 2287SOL     OW 1807   3.114   3.210   2.250
 2287SOL    HW1 1808   3.164   3.287   2.290
 2287SOL    HW2 1809   3.019   3.212   2.282
 2288SOL     OW 1810   3.134   3.307   3.004
 2288SOL    HW1 1811   3.181   3.320   3.091
 2288SOL    HW2 1812   3.068   3.233   3.013
 2289SOL     OW 1813   3.444   2.501   2.334
 2289SOL    HW1 1814   3.413   2.562   2.407
 2289SOL    HW2 1815   3.494   2.553   2.265
 2290SOL     OW 1816   2.216   3.372   3.191
 2290SOL    HW1 1817   2.195   3.328   3.104
 2290SOL    HW2 1818   2.313   3.398   3.194
 2291SOL     OW 1819   2.264   2.613   3.460
 2291SOL    HW1 1820   2.332   2.668   3.413
 2291SOL    HW2 1821   2.304   2.525   3.487
 2292SOL     OW 1822   3.449   2.641   3.532
 2292SOL    HW1 1823   3.357   2.679   3.527
 2292SOL    HW2 1824   3.509   2.688   3.467
 2293SOL     OW 1825   2.875   1.967   3.632
 2293SOL    HW1 1826   2.881   2.052   3.580
 2293SOL    HW2 1827   2.907   1.891   3.575
 2294SOL     OW 1828   2.366   1.912   3.602
 2294SOL    HW1 1829   2.324   1.855   3.532
 2294SOL    HW2 1830   2.300   1.981   3.634
 2295SOL     OW 1831   2.435   2.732   2.891
 2295SOL    HW1 1832   2.479   2.821   2.882
 2295SOL    HW2 1833   2.372   2.732   2.968
 2296SOL     OW 1834   3.222   2.724   2.907
 2296SOL    HW1 1835   3.147   2.724   2.841
 2296SOL    HW2 1836   3.259   2.632   2.916
 2297SOL     OW 1837   3.071   2.387   2.137
 2297SOL    HW1 1838   3.084   2.303   2.191
 2297SOL    HW2 1839   3.042   2.461   2.197
 2298SOL     OW 1840   2.169   2.075   3.093
 2298SOL    HW1 1841   2.146   2.112   3.183
 2298SOL    HW2 1842   2.139   1.980   3.087
 2299SOL     OW 1843   1.899   3.172   3.144
 2299SOL    HW1 1844   1.952   3.123   3.212
 2299SOL    HW2 1845   1.921   3.270   3.149
 2300SOL     OW 1846   2.594   2.496   2.926
 2300SOL    HW1 1847   2.653   2.470   2.850
 2300SOL    HW2 1848   2.566   2.592   2.915
 2302SOL     OW 1849   2.169   1.925   2.480
 2302SOL    HW1 1850   2.158   2.019   2.513
 2302SOL    HW2 1851   2.164   1.862   2.557
 2303SOL     OW 1852   3.484   2.229   2.236
 2303SOL    HW1 1853   3.486   2.153   2.300
 2303SOL    HW2 1854   3.436   2.306   2.276
 2304SOL     OW 1855   2.885   2.628   2.828
 2304SOL    HW1 1856   2.900   2.649   2.924
 2304SOL    HW2 1857   2.855   2.533   2.819
 2305SOL     OW 1858   2.842   3.435   3.562
 2305SOL    HW1 1859   2.822   3.479   3.474
 2305SOL    HW2 1860   2.881   3.344   3.546
 2307SOL     OW 1861   2.212   2.760   3.666
 2307SOL    HW1 1862   2.288   2.804   3.714
 2307SOL    HW2 1863   2.247   2.713   3.584
 2308SOL     OW 1864   3.402   2.136   1.987
 2308SOL    HW1 1865   3.341   2.061   2.010
 2308SOL    HW2 1866   3.424   2.188   2.070
 2309SOL     OW 1867   3.165   2.700   1.904
 2309SOL    HW1 1868   3.199   2.607   1.919
 2309SOL    HW2 1869   3.183   2.727   1.809
 2310SOL     OW 1870   2.930   3.195   2.711
 2310SOL    HW1 1871   2.937   3.111   2.656
 2310SOL    HW2 1872   2.992   3.264   2.675
 2311SOL     OW 1873   2.181   2.672   2.811
 2311SOL    HW1 1874   2.274   2.708   2.816
 2311SOL    HW2 1875   2.175   2.587   2.863
 2312SOL     OW 1876   3.000   2.242   3.540
 2312SOL    HW1 1877   2.955   2.305   3.604
 2312SOL    HW2 1878   3.093   2.273   3.523
 2313SOL     OW 1879   3.022   2.069   3.339
 2313SOL    HW1 1880   3.022   2.133   3.416
 2313SOL    HW2 1881   3.050   2.117   3.256
 2314SOL     OW 1882   1.870   3.188   2.062
 2314SOL    HW1 1883   1.777   3.209   2.031
 2314SOL    HW2 1884   1.880   3.089   2.075
 2315SOL     OW 1885   1.950   3.663   2.789
 2315SOL    HW1 1886   1.908   3.577   2.762
 2315SOL    HW2 1887   2.044   3.666   2.755
 2316SOL     OW 1888   2.366   3.430   2.772
 2316SOL    HW1 1889   2.432   3.504   2.781
 2316SOL    HW2 1890   2.410   3.351   2.730
 2317SOL     OW 1891   2.864   2.658   3.100
 2317SOL    HW1 1892   2.905   2.626   3.186
 2317SOL    HW2 1893   2.768   2.631   3.097
 2318SOL     OW 1894   1.902   2.406   2.976
 2318SOL    HW1 1895   1.987   2.373   2.935
 2318SOL    HW2 1896   1.915   2.421   3.074
 2319SOL     OW 1897   2.051   2.382   3.584
 2319SOL    HW1 1898   2.110   2.342   3.514
 2319SOL    HW2 1899   1.993   2.453   3.543
 2320SOL     OW 1900   3.231   2.812   3.522
 2320SOL    HW1 1901   3.270   2.901   3.542
 2320SOL    HW2 1902   3.241   2.792   3.425
 2321SOL     OW 1903   2.677   2.434   2.187
 2321SOL    HW1 1904   2.684   2.345   2.141
 2321SOL    HW2 1905   2.583   2.468   2.179
 2322SOL     OW 1906   3.519   2.466   3.068
 2322SOL    HW1 1907   3.481   2.397   3.130
 2322SOL    HW2 1908   3.601   2.430   3.024
 2323SOL     OW 1909   2.114   3.426   3.606
 2323SOL    HW1 1910   2.084   3.483   3.682
 2323SOL    HW2 1911   2.107   3.329   3.632
 2324SOL     OW 1912   2.533   2.326   3.131
 2324SOL    HW1 1913   2.499   2.237   3.101
 2324SOL    HW2 1914   2.559   2.380   3.051
 2325SOL     OW 1915   2.792   3.540   3.327
 2325SOL    HW1 1916   2.768   3.522   3.232
 2325SOL    HW2 1917   2.822   3.634   3.337
 2326SOL     OW 1918   2.021   2.999   3.328
 2326SOL    HW1 1919   2.043   2.938   3.404
 2326SOL    HW2 1920   2.031   2.950   3.242
 2327SOL     OW 1921   3.209   2.921   3.096
 2327SOL    HW1 1922   3.233   2.858   3.022
 2327SOL    HW2 1923   3.119   2.961   3.078
 2328SOL     OW 1924   3.164   2.717   2.171
 2328SOL    HW1 1925   3.078   2.686   2.213
 2328SOL    HW2 1926   3.160   2.703   2.072
 2330SOL     OW 1927   3.114   3.593   2.990
 2330SOL    HW1 1928   3.198   3.598   2.936
 2330SOL    HW2 1929   3.091   3.497   3.008
 2331SOL     OW 1930   1.945   3.120   2.884
 2331SOL    HW1 1931   1.940   3.119   2.984
 2331SOL    HW2 1932   1.862   3.079   2.846
 2332SOL     OW 1933   2.550   3.524   3.578
 2332SOL    HW1 1934   2.494   3.605   3.587
 2332SOL    HW2 1935   2.602   3.528   3.492
 2333SOL     OW 1936   3.588   1.997   2.385
 2333SOL    HW1 1937   3.661   1.980   2.318
 2333SOL    HW2 1938   3.557   1.910   2.423
 2334SOL     OW 1939   3.250   3.435   2.339
 2334SOL    HW1 1940   3.317   3.447   2.265
 2334SOL    HW2 1941   3.210   3.524   2.362
 2336SOL     OW 1942   3.142   2.789   2.534
 2336SOL    HW1 1943   3.202   2.708   2.536
 2336SOL    HW2 1944   3.182   2.858   2.474
 2337SOL     OW 1945   2.692   3.135   3.284
 2337SOL    HW1 1946   2.687   3.168   3.379
 2337SOL    HW2 1947   2.606   3.154   3.238
 2338SOL     OW 1948   2.534   3.478   2.016
 2338SOL    HW1 1949   2.543   3.488   1.917
 2338SOL    HW2 1950   2.494   3.389   2.037
 2340SOL     OW 1951   3.703   2.037   2.825
 2340SOL    HW1 1952   3.742   1.952   2.789
 2340SOL    HW2 1953   3.605   2.039   2.806
 2341SOL     OW 1954   2.125   2.188   2.582
 2341SOL    HW1 1955   2.046   2.239   2.548
 2341SOL    HW2 1956   2.116   2.173   2.680
 2342SOL     OW 1957   3.056   3.474   1.893
 2342SOL    HW1 1958   3.062   3.381   1.930
 2342SOL    HW2 1959   2.997   3.474   1.813
 2343SOL     OW 1960   2.684   2.864   3.234
 2343SOL    HW1 1961   2.724   2.863   3.142
 2343SOL    HW2 1962   2.694   2.956   3.274
 2344SOL     OW 1963   2.778   2.772   2.153
 2344SOL    HW1 1964   2.841   2.810   2.085
 2344SOL    HW2 1965   2.818   2.689   2.192
 2345SOL     OW 1966   3.366   3.469   1.906
 2345SOL    HW1 1967   3.274   3.506   1.913
 2345SOL    HW2 1968   3.404   3.489   1.816
 2346SOL     OW 1969   2.234   3.150   3.352
 2346SOL    HW1 1970   2.221   3.243   3.318
 2346SOL    HW2 1971   2.150   3.098   3.339
 2347SOL     OW 1972   3.476   3.154   3.151
 2347SOL    HW1 1973   3.536   3.157   3.231
 2347SOL    HW2 1974   3.401   3.218   3.164
 2348SOL     OW 1975   2.901   2.960   2.558
 2348SOL    HW1 1976   2.831   2.913   2.612
 2348SOL    HW2 1977   2.960   2.892   2.515
 2349SOL     OW 1978   2.876   2.098   2.833
 2349SOL    HW1 1979   2.868   2.062   2.740
 2349SOL    HW2 1980   2.874   2.022   2.898
 2350SOL     OW 1981   2.452   3.349   2.353
 2350SOL    HW1 1982   2.494   3.291   2.283
 2350SOL    HW2 1983   2.408   3.428   2.309
 2351SOL     OW 1984   3.571   2.247   3.243
 2351SOL    HW1 1985   3.644   2.316   3.247
 2351SOL    HW2 1986   3.599   2.172   3.184
 2352SOL     OW 1987   2.117   3.210   2.152
 2352SOL    HW1 1988   2.021   3.211   2.125
 2352SOL    HW2 1989   2.129   3.263   2.236
 2353SOL     OW 1990   1.967   2.875   3.588
 2353SOL    HW1 1991   1.890   2.842   3.642
 2353SOL    HW2 1992   2.052   2.845   3.630
 2354SOL     OW 1993   2.534   2.065   3.351
 2354SOL    HW1 1994   2.624   2.049   3.311
 2354SOL    HW2 1995   2.542   2.070   3.450
 2355SOL     OW 1996   1.937   2.207   1.895
 2355SOL    HW1 1997   1.845   2.179   1.866
 2355SOL    HW2 1998   1.968   2.284   1.839
 2356SOL     OW 1999   3.302   2.718   3.260
 2356SOL    HW1 2000   3.245   2.770   3.197
 2356SOL    HW2 2001   3.398   2.730   3.236
 2357SOL     OW 2002   1.934   2.028   2.180
 2357SOL    HW1 2003   1.917   2.111   2.126
 2357SOL    HW2 2004   2.024   1.991   2.158
 2358SOL     OW 2005   3.045   3.197   1.981
 2358SOL    HW1 2006   2.946   3.186   1.983
 2358SOL    HW2 2007   3.079   3.212   2.074
 2359SOL     OW 2008   2.475   2.704   3.293
 2359SOL    HW1 2009   2.531   2.785   3.276
 2359SOL    HW2 2010   2.534   2.624   3.296
 2360SOL     OW 2011   3.355   3.629   2.821
 2360SOL    HW1 2012   3.388   3.693   2.752
 2360SOL    HW2 2013   3.421   3.623   2.896
 2361SOL     OW 2014   2.578   2.427   3.570
 2361SOL    HW1 2015   2.597   2.492   3.644
 2361SOL    HW2 2016   2.638   2.347   3.579
 2362SOL     OW 2017   3.312   3.082   3.495
 2362SOL    HW1 2018   3.303   3.072   3.594
 2362SOL    HW2 2019   3.408   3.075   3.469
 2363SOL     OW 2020   2.252   3.603   3.422
 2363SOL    HW1 2021   2.161   3.644   3.420
 2363SOL    HW2 2022   2.245   3.509   3.454
 2364SOL     OW 2023   3.536   2.745   3.116
 2364SOL    HW1 2024   3.509   2.656   3.079
 2364SOL    HW2 2025   3.537   2.813   3.043
 2365SOL     OW 2026   3.087   2.187   2.311
 2365SOL    HW1 2027   3.152   2.113   2.300
 2365SOL    HW2 2028   3.107   2.237   2.395
 2366SOL     OW 2029   2.456   2.607   2.514
 2366SOL    HW1 2030   2.506   2.692   2.495
 2366SOL    HW2 2031   2.368   2.609   2.466
 2367SOL     OW 2032   3.639   2.204   3.504
 2367SOL    HW1 2033   3.622   2.235   3.410
 2367SOL    HW2 2034   3.555   2.167   3.542
 2368SOL     OW 2035   3.592   2.796   3.379
 2368SOL    HW1 2036   3.630   2.887   3.394
 2368SOL    HW2 2037   3.584   2.779   3.280
 2369SOL     OW 2038   2.721   3.236   1.878
 2369SOL    HW1 2039   2.675   3.251   1.966
 2369SOL    HW2 2040   2.765   3.321   1.848
 2370SOL     OW 2041   2.523   3.652   2.815
 2370SOL    HW1 2042   2.477   3.740   2.802
 2370SOL    HW2 2043   2.622   3.664   2.808
 2371SOL     OW 2044   2.721   2.818   2.723
 2371SOL    HW1 2045   2.775   2.749   2.771
 2371SOL    HW2 2046   2.689   2.887   2.789
 2372SOL     OW 2047   2.945   2.846   1.949
 2372SOL    HW1 2048   2.922   2.899   1.867
 2372SOL    HW2 2049   3.026   2.790   1.930
 2373SOL     OW 2050   3.723   3.431   2.713
 2373SOL    HW1 2051   3.652   3.419   2.643
 2373SOL    HW2 2052   3.724   3.352   2.773
 2374SOL     OW 2053   2.083   3.176   3.706
 2374SOL    HW1 2054   2.018   3.103   3.685
 2374SOL    HW2 2055   2.087   3.190   3.804
 2375SOL     OW 2056   1.941   3.102   2.515
 2375SOL    HW1 2057   1.940   3.055   2.603
 2375SOL    HW2 2058   2.023   3.074   2.464
 2376SOL     OW 2059   2.534   3.253   3.486
 2376SOL    HW1 2060   2.456   3.203   3.524
 2376SOL    HW2 2061   2.531   3.348   3.517
 2377SOL     OW 2062   3.686   2.054   3.089
 2377SOL    HW1 2063   3.682   1.964   3.133
 2377SOL    HW2 2064   3.689   2.043   2.990
 2378SOL     OW 2065   3.567   3.349   2.966
 2378SOL    HW1 2066   3.474   3.324   2.939
 2378SOL    HW2 2067   3.593   3.299   3.048
 2379SOL     OW 2068   2.179   2.409   3.142
 2379SOL    HW1 2069   2.217   2.350   3.214
 2379SOL    HW2 2070   2.219   2.383   3.054
 2380SOL     OW 2071   2.674   3.448   2.549
 2380SOL    HW1 2072   2.706   3.458   2.455
 2380SOL    HW2 2073   2.595   3.386   2.551
 2381SOL     OW 2074   3.286   2.076   2.974
 2381SOL    HW1 2075   3.338   2.011   3.029
 2381SOL    HW2 2076   3.237   2.139   3.035
 2382SOL     OW 2077   2.863   1.896   3.016
 2382SOL    HW1 2078   2.800   1.824   2.985
 2382SOL    HW2 2079   2.956   1.860   3.016
 2383SOL     OW 2080   2.632   3.192   2.163
 2383SOL    HW1 2081   2.586   3.105   2.180
 2383SOL    HW2 2082   2.723   3.189   2.204
 2384SOL     OW 2083   2.480   3.429   3.146
 2384SOL    HW1 2084   2.475   3.511   3.203
 2384SOL    HW2 2085   2.569   3.426   3.101
 2385SOL     OW 2086   3.214   1.914   2.030
 2385SOL    HW1 2087   3.249   1.873   1.946
 2385SOL    HW2 2088   3.124   1.876   2.050
 2386SOL     OW 2089   3.162   2.315   2.553
 2386SOL    HW1 2090   3.103   2.395   2.557
 2386SOL    HW2 2091   3.177   2.280   2.646
 2387SOL     OW 2092   3.455   2.083   2.744
 2387SOL    HW1 2093   3.371   2.082   2.798
 2387SOL    HW2 2094   3.457   2.166   2.688
 2388SOL     OW 2095   1.901   2.939   2.162
 2388SOL    HW1 2096   2.000   2.928   2.153
 2388SOL    HW2 2097   1.861   2.853   2.194
 2389SOL     OW 2098   2.737   3.508   2.199
 2389SOL    HW1 2099   2.660   3.473   2.145
 2389SOL    HW2 2100   2.705   3.579   2.261
 2390SOL     OW 2101   2.092   2.490   3.837
 2390SOL    HW1 2102   1.999   2.488   3.874
 2390SOL    HW2 2103   2.093   2.451   3.745
 2403SOL     OW 2104   2.468   2.826   3.847
 2403SOL    HW1 2105   2.475   2.910   3.793
 2403SOL    HW2 2106   2.514   2.839   3.935
 2414SOL     OW 2107   2.460   2.591   3.994
 2414SOL    HW1 2108   2.484   2.660   3.926
 2414SOL    HW2 2109   2.382   2.624   4.048
 2419SOL     OW 2110   2.727   2.210   3.919
 2419SOL    HW1 2111   2.786   2.273   3.870
 2419SOL    HW2 2112   2.746   2.116   3.890
 2425SOL     OW 2113   2.183   2.805   3.966
 2425SOL    HW1 2114   2.265   2.844   3.924
 2425SOL    HW2 2115   2.156   2.723   3.917
 2434SOL     OW 2116   2.476   1.984   3.841
 2434SOL    HW1 2117   2.574   1.962   3.848
 2434SOL    HW2 2118   2.445   1.967   3.748
 2438SOL     OW 2119   3.296   3.050   3.765
 2438SOL    HW1 2120   3.328   2.974   3.822
 2438SOL    HW2 2121   3.204   3.077   3.795
 2439SOL     OW 2122   2.159   1.897   3.895
 2439SOL    HW1 2123   2.208   1.981   3.874
 2439SOL    HW2 2124   2.221   1.832   3.940
 2444SOL     OW 2125   2.894   2.411   3.740
 2444SOL    HW1 2126   2.853   2.493   3.701
 2444SOL    HW2 2127   2.958   2.437   3.813
 2450SOL     OW 2128   2.350   3.247   3.898
 2450SOL    HW1 2129   2.263   3.232   3.945
 2450SOL    HW2 2130   2.333   3.273   3.803
 2452SOL     OW 2131   3.252   2.437   3.802
 2452SOL    HW1 2132   3.198   2.416   3.883
 2452SOL    HW2 2133   3.343   2.396   3.811
 2453SOL     OW 2134   2.389   2.118   4.052
 2453SOL    HW1 2135   2.416   2.059   3.977
 2453SOL    HW2 2136   2.389   2.213   4.021
 2455SOL     OW 2137   2.567   2.912   4.092
 2455SOL    HW1 2138   2.553   2.919   4.191
 2455SOL    HW2 2139   2.651   2.861   4.074
 2461SOL     OW 2140   3.071   2.387   3.999
 2461SOL    HW1 2141   3.084   2.303   4.053
 2461SOL    HW2 2142   3.042   2.461   4.059
 2466SOL     OW 2143   3.402   2.136   3.849
 2466SOL    HW1 2144   3.341   2.061   3.872
 2466SOL    HW2 2145   3.424   2.188   3.932
 2467SOL     OW 2146   3.165   2.700   3.766
 2467SOL    HW1 2147   3.199   2.607   3.781
 2467SOL    HW2 2148   3.183   2.727   3.671
 2471SOL     OW 2149   1.870   3.188   3.924
 2471SOL    HW1 2150   1.777   3.209   3.893
 2471SOL    HW2 2151   1.880   3.089   3.937
 2475SOL     OW 2152   2.677   2.434   4.049
 2475SOL    HW1 2153   2.684   2.345   4.003
 2475SOL    HW2 2154   2.583   2.468   4.041
 2477SOL     OW 2155   2.335   2.362   3.915
 2477SOL    HW1 2156   2.396   2.442   3.919
 2477SOL    HW2 2157   2.240   2.393   3.922
 2488SOL     OW 2158   2.778   2.772   4.015
 2488SOL    HW1 2159   2.841   2.810   3.947
 2488SOL    HW2 2160   2.818   2.689   4.054
 2494SOL     OW 2161   1.937   2.207   3.757
 2494SOL    HW1 2162   1.845   2.179   3.728
 2494SOL    HW2 2163   1.968   2.284   3.701
 2495SOL     OW 2164   1.934   2.028   4.042
 2495SOL    HW1 2165   1.917   2.111   3.988
 2495SOL    HW2 2166   2.024   1.991   4.020
 2496SOL     OW 2167   3.045   3.197   3.843
 2496SOL    HW1 2168   2.946   3.186   3.845
 2496SOL    HW2 2169   3.079   3.212   3.936
 2500SOL     OW 2170   2.721   3.236   3.740
 2500SOL    HW1 2171   2.675   3.251   3.828
 2500SOL    HW2 2172   2.765   3.321   3.710
 2503SOL     OW 2173   2.945   2.846   3.811
 2503SOL    HW1 2174   2.922   2.899   3.729
 2503SOL    HW2 2175   3.026   2.790   3.792
 2510SOL     OW 2176   3.214   1.914   3.892
 2510SOL    HW1 2177   3.249   1.873   3.808
 2510SOL    HW2 2178   3.124   1.876   3.912
 2513SOL     OW 2179   1.901   2.939   4.024
 2513SOL    HW1 2180   2.000   2.928   4.015
 2513SOL    HW2 2181   1.861   2.853   4.056
 2534SOL     OW 2182   2.179   3.975   1.801
 2534SOL    HW1 2183   2.250   4.046   1.807
 2534SOL    HW2 2184   2.091   4.014   1.829
 2552SOL     OW 2185   2.643   3.988   1.749
 2552SOL    HW1 2186   2.710   3.927   1.792
 2552SOL    HW2 2187   2.570   4.007   1.814
 2569SOL     OW 2188   2.777   3.813   1.402
 2569SOL    HW1 2189   2.802   3.793   1.307
 2569SOL    HW2 2190   2.849   3.869   1.444
 2576SOL     OW 2191   2.875   3.829   1.770
 2576SOL    HW1 2192   2.881   3.914   1.718
 2576SOL    HW2 2193   2.907   3.753   1.713
 2577SOL     OW 2194   2.366   3.774   1.740
 2577SOL    HW1 2195   2.324   3.717   1.670
 2577SOL    HW2 2196   2.300   3.843   1.772
 2614SOL     OW 2197   2.534   3.927   1.489
 2614SOL    HW1 2198   2.624   3.911   1.449
 2614SOL    HW2 2199   2.542   3.932   1.588
 2639SOL     OW 2200   2.087   3.999   2.858
 2639SOL    HW1 2201   2.122   3.982   2.950
 2639SOL    HW2 2202   1.999   3.954   2.846
 2640SOL     OW 2203   1.881   4.092   2.509
 2640SOL    HW1 2204   1.799   4.135   2.548
 2640SOL    HW2 2205   1.853   4.019   2.446
 2654SOL     OW 2206   2.671   3.728   2.364
 2654SOL    HW1 2207   2.711   3.819   2.355
 2654SOL    HW2 2208   2.571   3.736   2.370
 2666SOL     OW 2209   2.727   4.072   2.057
 2666SOL    HW1 2210   2.786   4.135   2.008
 2666SOL    HW2 2211   2.746   3.978   2.028
 2668SOL     OW 2212   2.412   3.920   2.747
 2668SOL    HW1 2213   2.407   3.915   2.847
 2668SOL    HW2 2214   2.414   4.016   2.718
 2671SOL     OW 2215   3.262   3.831   2.288
 2671SOL    HW1 2216   3.238   3.794   2.198
 2671SOL    HW2 2217   3.361   3.847   2.292
 2674SOL     OW 2218   2.476   3.846   1.979
 2674SOL    HW1 2219   2.574   3.824   1.986
 2674SOL    HW2 2220   2.445   3.829   1.886
 2678SOL     OW 2221   2.401   3.788   2.374
 2678SOL    HW1 2222   2.320   3.789   2.432
 2678SOL    HW2 2223   2.404   3.871   2.319
 2679SOL     OW 2224   2.159   3.759   2.033
 2679SOL    HW1 2225   2.208   3.843   2.012
 2679SOL    HW2 2226   2.221   3.694   2.078
 2680SOL     OW 2227   2.797   3.960   2.342
 2680SOL    HW1 2228   2.749   4.001   2.264
 2680SOL    HW2 2229   2.896   3.958   2.323
 2684SOL     OW 2230   2.423   3.946   3.009
 2684SOL    HW1 2231   2.461   3.862   3.046
 2684SOL    HW2 2232   2.335   3.965   3.053
 2686SOL     OW 2233   2.879   3.763   2.615
 2686SOL    HW1 2234   2.807   3.768   2.546
 2686SOL    HW2 2235   2.855   3.694   2.684
 2691SOL     OW 2236   2.389   3.980   2.190
 2691SOL    HW1 2237   2.416   3.921   2.115
 2691SOL    HW2 2238   2.389   4.075   2.159
 2693SOL     OW 2239   2.777   3.813   3.264
 2693SOL    HW1 2240   2.802   3.793   3.169
 2693SOL    HW2 2241   2.849   3.869   3.306
 2705SOL     OW 2242   2.169   3.937   3.093
 2705SOL    HW1 2243   2.146   3.974   3.183
 2705SOL    HW2 2244   2.139   3.842   3.087
 2708SOL     OW 2245   2.169   3.787   2.480
 2708SOL    HW1 2246   2.158   3.881   2.513
 2708SOL    HW2 2247   2.164   3.724   2.557
 2732SOL     OW 2248   2.125   4.050   2.582
 2732SOL    HW1 2249   2.046   4.101   2.548
 2732SOL    HW2 2250   2.116   4.035   2.680
 2734SOL     OW 2251   2.876   3.960   2.833
 2734SOL    HW1 2252   2.868   3.924   2.740
 2734SOL    HW2 2253   2.874   3.884   2.898
 2737SOL     OW 2254   2.534   3.927   3.351
 2737SOL    HW1 2255   2.624   3.911   3.311
 2737SOL    HW2 2256   2.542   3.932   3.450
 2740SOL     OW 2257   1.934   3.890   2.180
 2740SOL    HW1 2258   1.917   3.973   2.126
 2740SOL    HW2 2259   2.024   3.853   2.158
 2745SOL     OW 2260   3.087   4.049   2.311
 2745SOL    HW1 2261   3.152   3.975   2.300
 2745SOL    HW2 2262   3.107   4.099   2.395
 2753SOL     OW 2263   2.290   4.148   2.382
 2753SOL    HW1 2264   2.320   4.076   2.320
 2753SOL    HW2 2265   2.251   4.108   2.465
 2756SOL     OW 2266   2.863   3.758   3.016
 2756SOL    HW1 2267   2.800   3.686   2.985
 2756SOL    HW2 2268   2.956   3.722   3.016
 2757SOL     OW 2269   3.214   3.776   2.030
 2757SOL    HW1 2270   3.249   3.735   1.946
 2757SOL    HW2 2271   3.124   3.738   2.050
 2864SOL     OW 2272   3.854   1.821   1.571
 2864SOL    HW1 2273   3.844   1.806   1.670
 2864SOL    HW2 2274   3.768   1.857   1.535
 2931SOL     OW 2275   3.854   1.794   1.851
 2931SOL    HW1 2276   3.813   1.720   1.904
 2931SOL    HW2 2277   3.918   1.845   1.909
 2977SOL     OW 2278   3.955   1.713   2.345
 2977SOL    HW1 2279   3.989   1.790   2.399
 2977SOL    HW2 2280   3.999   1.713   2.255
 2983SOL     OW 2281   3.751   1.596   1.979
 2983SOL    HW1 2282   3.732   1.500   2.000
 2983SOL    HW2 2283   3.718   1.654   2.054
 3028SOL     OW 2284   3.788   1.564   3.193
 3028SOL    HW1 2285   3.742   1.646   3.159
 3028SOL    HW2 2286   3.886   1.583   3.202
 3046SOL     OW 2287   3.732   1.326   2.062
 3046SOL    HW1 2288   3.639   1.347   2.031
 3046SOL    HW2 2289   3.742   1.227   2.075
 3047SOL     OW 2290   3.812   1.801   2.789
 3047SOL    HW1 2291   3.770   1.715   2.762
 3047SOL    HW2 2292   3.906   1.804   2.755
 3189SOL     OW 2293   3.837   2.599   1.597
 3189SOL    HW1 2294   3.925   2.586   1.642
 3189SOL    HW2 2295   3.824   2.696   1.575
 3193SOL     OW 2296   4.041   2.113   1.801
 3193SOL    HW1 2297   4.112   2.184   1.807
 3193SOL    HW2 2298   3.953   2.152   1.829
 3207SOL     OW 2299   3.926   2.147   1.498
 3207SOL    HW1 2300   3.846   2.207   1.485
 3207SOL    HW2 2301   3.916   2.098   1.584
 3223SOL     OW 2302   3.802   2.418   1.386
 3223SOL    HW1 2303   3.894   2.417   1.345
 3223SOL    HW2 2304   3.796   2.492   1.453
 3256SOL     OW 2305   3.913   2.382   1.722
 3256SOL    HW1 2306   3.972   2.342   1.652
 3256SOL    HW2 2307   3.855   2.453   1.681
 3278SOL     OW 2308   3.829   2.875   1.726
 3278SOL    HW1 2309   3.752   2.842   1.780
 3278SOL    HW2 2310   3.914   2.845   1.768
 3302SOL     OW 2311   3.954   2.490   1.975
 3302SOL    HW1 2312   3.861   2.488   2.012
 3302SOL    HW2 2313   3.955   2.451   1.883
 3303SOL     OW 2314   3.949   2.137   2.858
 3303SOL    HW1 2315   3.984   2.120   2.950
 3303SOL    HW2 2316   3.861   2.092   2.846
 3304SOL     OW 2317   3.743   2.230   2.509
 3304SOL    HW1 2318   3.661   2.273   2.548
 3304SOL    HW2 2319   3.715   2.157   2.446
 3313SOL     OW 2320   3.954   3.296   2.400
 3313SOL    HW1 2321   3.928   3.392   2.400
 3313SOL    HW2 2322   3.883   3.242   2.445
 3314SOL     OW 2323   3.964   2.953   2.748
 3314SOL    HW1 2324   3.978   2.869   2.800
 3314SOL    HW2 2325   3.909   3.017   2.803
 3317SOL     OW 2326   3.846   2.505   2.425
 3317SOL    HW1 2327   3.801   2.417   2.442
 3317SOL    HW2 2328   3.845   2.559   2.509
 3318SOL     OW 2329   3.751   3.458   1.979
 3318SOL    HW1 2330   3.732   3.362   2.000
 3318SOL    HW2 2331   3.718   3.516   2.054
 3319SOL     OW 2332   3.837   2.599   3.459
 3319SOL    HW1 2333   3.925   2.586   3.504
 3319SOL    HW2 2334   3.824   2.696   3.437
 3322SOL     OW 2335   3.921   2.838   3.126
 3322SOL    HW1 2336   4.010   2.793   3.112
 3322SOL    HW2 2337   3.848   2.773   3.107
 3329SOL     OW 2338   3.800   2.673   2.651
 3329SOL    HW1 2339   3.899   2.661   2.660
 3329SOL    HW2 2340   3.776   2.768   2.672
 3335SOL     OW 2341   4.045   2.805   2.104
 3335SOL    HW1 2342   4.127   2.844   2.062
 3335SOL    HW2 2343   4.018   2.723   2.055
 3341SOL     OW 2344   4.106   2.562   2.342
 3341SOL    HW1 2345   4.151   2.472   2.339
 3341SOL    HW2 2346   4.012   2.551   2.375
 3348SOL     OW 2347   4.021   1.897   2.033
 3348SOL    HW1 2348   4.070   1.981   2.012
 3348SOL    HW2 2349   4.083   1.832   2.078
 3353SOL     OW 2350   3.802   2.418   3.248
 3353SOL    HW1 2351   3.894   2.417   3.207
 3353SOL    HW2 2352   3.796   2.492   3.315
 3364SOL     OW 2353   4.091   2.962   2.363
 3364SOL    HW1 2354   4.084   3.045   2.307
 3364SOL    HW2 2355   4.095   2.882   2.303
 3372SOL     OW 2356   4.031   2.075   3.093
 3372SOL    HW1 2357   4.008   2.112   3.183
 3372SOL    HW2 2358   4.001   1.980   3.087
 3373SOL     OW 2359   3.761   3.172   3.144
 3373SOL    HW1 2360   3.814   3.123   3.212
 3373SOL    HW2 2361   3.783   3.270   3.149
 3375SOL     OW 2362   4.031   1.925   2.480
 3375SOL    HW1 2363   4.020   2.019   2.513
 3375SOL    HW2 2364   4.026   1.862   2.557
 3379SOL     OW 2365   4.043   2.672   2.811
 3379SOL    HW1 2366   4.136   2.708   2.816
 3379SOL    HW2 2367   4.037   2.587   2.863
 3380SOL     OW 2368   4.063   2.371   2.868
 3380SOL    HW1 2369   4.011   2.288   2.851
 3380SOL    HW2 2370   4.140   2.376   2.804
 3381SOL     OW 2371   3.732   3.188   2.062
 3381SOL    HW1 2372   3.639   3.209   2.031
 3381SOL    HW2 2373   3.742   3.089   2.075
 3385SOL     OW 2374   3.764   2.406   2.976
 3385SOL    HW1 2375   3.849   2.373   2.935
 3385SOL    HW2 2376   3.777   2.421   3.074
 3393SOL     OW 2377   3.807   3.120   2.884
 3393SOL    HW1 2378   3.802   3.119   2.984
 3393SOL    HW2 2379   3.724   3.079   2.846
 3399SOL     OW 2380   3.987   2.188   2.582
 3399SOL    HW1 2381   3.908   2.239   2.548
 3399SOL    HW2 2382   3.978   2.173   2.680
 3406SOL     OW 2383   3.979   3.210   2.152
 3406SOL    HW1 2384   3.883   3.211   2.125
 3406SOL    HW2 2385   3.991   3.263   2.236
 3409SOL     OW 2386   3.799   2.207   1.895
 3409SOL    HW1 2387   3.707   2.179   1.866
 3409SOL    HW2 2388   3.830   2.284   1.839
 3410SOL     OW 2389   3.796   2.028   2.180
 3410SOL    HW1 2390   3.779   2.111   2.126
 3410SOL    HW2 2391   3.886   1.991   2.158
 3420SOL     OW 2392   3.803   3.102   2.515
 3420SOL    HW1 2393   3.802   3.055   2.603
 3420SOL    HW2 2394   3.885   3.074   2.464
 3422SOL     OW 2395   4.152   2.286   2.382
 3422SOL    HW1 2396   4.182   2.214   2.320
 3422SOL    HW2 2397   4.113   2.246   2.465
 3423SOL     OW 2398   4.041   2.409   3.142
 3423SOL    HW1 2399   4.079   2.350   3.214
 3423SOL    HW2 2400   4.081   2.383   3.054
 3428SOL     OW 2401   3.763   2.939   2.162
 3428SOL    HW1 2402   3.862   2.928   2.153
 3428SOL    HW2 2403   3.723   2.853   2.194
   4.81531   4.81531   4.81531
