mobley_9139060_GMX.gro created by acpype (v: 2023.10.27) on Thu May 21 00:14:58 2026
 2409
    1MOL     C1    1   2.363   2.340   2.218
    1MOL     C2    2   2.464   2.435   2.282
    1MOL     C3    3   2.263   2.292   2.445
    1MOL     C4    4   2.363   2.387   2.509
    1MOL     C5    5   2.318   2.230   2.315
    1MOL     C6    6   2.408   2.497   2.411
    1MOL     C7    7   2.214   2.139   2.250
    1MOL     C8    8   2.512   2.587   2.477
    1MOL     H1    9   2.276   2.397   2.183
    1MOL     H2   10   2.408   2.294   2.129
    1MOL     H3   11   2.556   2.381   2.303
    1MOL     H4   12   2.489   2.515   2.211
    1MOL     H5   13   2.237   2.212   2.516
    1MOL     H6   14   2.170   2.346   2.423
    1MOL     H7   15   2.318   2.433   2.598
    1MOL     H8   16   2.451   2.330   2.543
    1MOL     H9   17   2.405   2.168   2.340
    1MOL    H10   18   2.321   2.559   2.386
    1MOL    H11   19   2.142   2.103   2.325
    1MOL    H12   20   2.159   2.193   2.173
    1MOL    H13   21   2.262   2.053   2.204
    1MOL    H14   22   2.608   2.580   2.424
    1MOL    H15   23   2.480   2.692   2.473
    1MOL    H16   24   2.528   2.559   2.581
   14SOL     OW   25   1.460   1.505   1.339
   14SOL    HW1   26   1.484   1.599   1.365
   14SOL    HW2   27   1.444   1.451   1.421
   18SOL     OW   28   1.127   1.341   1.690
   18SOL    HW1   29   1.174   1.341   1.778
   18SOL    HW2   30   1.079   1.254   1.679
   35SOL     OW   31   1.187   1.792   1.616
   35SOL    HW1   32   1.211   1.852   1.540
   35SOL    HW2   33   1.194   1.697   1.586
   56SOL     OW   34   1.227   1.550   1.506
   56SOL    HW1   35   1.233   1.473   1.570
   56SOL    HW2   36   1.175   1.524   1.426
   95SOL     OW   37   1.754   1.223   1.588
   95SOL    HW1   38   1.845   1.184   1.575
   95SOL    HW2   39   1.762   1.319   1.612
   97SOL     OW   40   1.592   1.629   1.625
   97SOL    HW1   41   1.619   1.663   1.535
   97SOL    HW2   42   1.671   1.591   1.671
  122SOL     OW   43   1.728   0.935   1.854
  122SOL    HW1   44   1.682   0.928   1.765
  122SOL    HW2   45   1.666   0.979   1.920
  126SOL     OW   46   0.980   1.573   1.700
  126SOL    HW1   47   0.960   1.617   1.612
  126SOL    HW2   48   1.019   1.482   1.684
  127SOL     OW   49   1.859   1.518   1.605
  127SOL    HW1   50   1.873   1.545   1.510
  127SOL    HW2   51   1.942   1.540   1.658
  152SOL     OW   52   1.759   1.747   1.154
  152SOL    HW1   53   1.820   1.777   1.081
  152SOL    HW2   54   1.721   1.658   1.132
  153SOL     OW   55   1.252   1.731   1.128
  153SOL    HW1   56   1.336   1.736   1.074
  153SOL    HW2   57   1.229   1.635   1.146
  163SOL     OW   58   1.650   1.720   1.394
  163SOL    HW1   59   1.703   1.730   1.310
  163SOL    HW2   60   1.623   1.810   1.428
  171SOL     OW   61   1.614   1.292   1.289
  171SOL    HW1   62   1.674   1.295   1.369
  171SOL    HW2   63   1.539   1.356   1.302
  184SOL     OW   64   1.493   1.767   0.959
  184SOL    HW1   65   1.526   1.831   0.890
  184SOL    HW2   66   1.559   1.761   1.034
  186SOL     OW   67   1.450   1.220   1.633
  186SOL    HW1   68   1.441   1.210   1.732
  186SOL    HW2   69   1.546   1.213   1.607
  192SOL     OW   70   1.730   0.934   1.517
  192SOL    HW1   71   1.768   1.025   1.532
  192SOL    HW2   72   1.722   0.917   1.418
  197SOL     OW   73   1.861   1.569   0.851
  197SOL    HW1   74   1.790   1.557   0.781
  197SOL    HW2   75   1.862   1.490   0.911
  203SOL     OW   76   1.705   1.487   1.104
  203SOL    HW1   77   1.612   1.462   1.077
  203SOL    HW2   78   1.731   1.437   1.186
  219SOL     OW   79   1.555   1.511   2.565
  219SOL    HW1   80   1.498   1.495   2.646
  219SOL    HW2   81   1.496   1.521   2.485
  227SOL     OW   82   1.460   1.505   3.201
  227SOL    HW1   83   1.484   1.599   3.227
  227SOL    HW2   84   1.444   1.451   3.283
  238SOL     OW   85   1.842   1.767   2.221
  238SOL    HW1   86   1.896   1.738   2.301
  238SOL    HW2   87   1.872   1.857   2.192
  240SOL     OW   88   1.689   0.922   2.474
  240SOL    HW1   89   1.784   0.893   2.482
  240SOL    HW2   90   1.681   0.987   2.399
  241SOL     OW   91   1.641   1.108   2.294
  241SOL    HW1   92   1.727   1.110   2.242
  241SOL    HW2   93   1.655   1.155   2.382
  247SOL     OW   94   1.525   0.999   2.052
  247SOL    HW1   95   1.462   0.923   2.065
  247SOL    HW2   96   1.573   1.017   2.138
  248SOL     OW   97   1.187   1.792   3.478
  248SOL    HW1   98   1.211   1.852   3.402
  248SOL    HW2   99   1.194   1.697   3.448
  250SOL     OW  100   1.466   1.417   2.815
  250SOL    HW1  101   1.407   1.423   2.895
  250SOL    HW2  102   1.451   1.329   2.769
  251SOL     OW  103   1.667   1.714   2.434
  251SOL    HW1  104   1.626   1.691   2.346
  251SOL    HW2  105   1.649   1.640   2.499
  254SOL     OW  106   1.576   1.662   2.169
  254SOL    HW1  107   1.665   1.708   2.172
  254SOL    HW2  108   1.555   1.638   2.074
  264SOL     OW  109   1.362   1.144   2.407
  264SOL    HW1  110   1.445   1.115   2.359
  264SOL    HW2  111   1.313   1.211   2.351
  266SOL     OW  112   1.008   1.456   2.339
  266SOL    HW1  113   0.962   1.528   2.287
  266SOL    HW2  114   1.004   1.476   2.437
  268SOL     OW  115   1.795   1.066   2.735
  268SOL    HW1  116   1.733   1.051   2.659
  268SOL    HW2  117   1.743   1.077   2.820
  269SOL     OW  118   1.227   1.550   3.368
  269SOL    HW1  119   1.233   1.473   3.432
  269SOL    HW2  120   1.175   1.524   3.288
  273SOL     OW  121   1.111   1.776   2.099
  273SOL    HW1  122   1.051   1.714   2.149
  273SOL    HW2  123   1.142   1.732   2.014
  275SOL     OW  124   1.632   1.377   1.943
  275SOL    HW1  125   1.600   1.471   1.933
  275SOL    HW2  126   1.556   1.314   1.931
  279SOL     OW  127   0.940   1.698   2.766
  279SOL    HW1  128   1.020   1.641   2.787
  279SOL    HW2  129   0.891   1.658   2.689
  289SOL     OW  130   1.434   1.188   1.903
  289SOL    HW1  131   1.466   1.112   1.960
  289SOL    HW2  132   1.342   1.215   1.933
  293SOL     OW  133   1.227   1.570   2.655
  293SOL    HW1  134   1.248   1.644   2.590
  293SOL    HW2  135   1.295   1.570   2.728
  295SOL     OW  136   1.271   1.797   2.453
  295SOL    HW1  137   1.315   1.861   2.389
  295SOL    HW2  138   1.221   1.849   2.523
  301SOL     OW  139   1.429   1.173   2.729
  301SOL    HW1  140   1.374   1.089   2.722
  301SOL    HW2  141   1.455   1.202   2.637
  303SOL     OW  142   1.857   0.833   2.239
  303SOL    HW1  143   1.899   0.769   2.303
  303SOL    HW2  144   1.819   0.782   2.161
  305SOL     OW  145   1.664   1.280   2.519
  305SOL    HW1  146   1.763   1.288   2.533
  305SOL    HW2  147   1.619   1.364   2.550
  308SOL     OW  148   1.754   1.223   3.450
  308SOL    HW1  149   1.845   1.184   3.437
  308SOL    HW2  150   1.762   1.319   3.474
  310SOL     OW  151   1.592   1.629   3.487
  310SOL    HW1  152   1.619   1.663   3.397
  310SOL    HW2  153   1.671   1.591   3.533
  312SOL     OW  154   1.638   1.099   2.941
  312SOL    HW1  155   1.643   1.180   3.000
  312SOL    HW2  156   1.552   1.101   2.890
  321SOL     OW  157   1.252   1.348   2.250
  321SOL    HW1  158   1.302   1.425   2.290
  321SOL    HW2  159   1.157   1.350   2.282
  322SOL     OW  160   1.272   1.445   3.004
  322SOL    HW1  161   1.319   1.458   3.091
  322SOL    HW2  162   1.206   1.371   3.013
  340SOL     OW  163   1.859   1.518   3.467
  340SOL    HW1  164   1.873   1.545   3.372
  340SOL    HW2  165   1.942   1.540   3.520
  344SOL     OW  166   1.068   1.333   2.711
  344SOL    HW1  167   1.075   1.249   2.656
  344SOL    HW2  168   1.130   1.402   2.675
  365SOL     OW  169   1.759   1.747   3.016
  365SOL    HW1  170   1.820   1.777   2.943
  365SOL    HW2  171   1.721   1.658   2.994
  366SOL     OW  172   1.252   1.731   2.990
  366SOL    HW1  173   1.336   1.736   2.936
  366SOL    HW2  174   1.229   1.635   3.008
  370SOL     OW  175   1.388   1.573   2.339
  370SOL    HW1  176   1.455   1.585   2.265
  370SOL    HW2  177   1.348   1.662   2.362
  375SOL     OW  178   1.650   1.720   3.256
  375SOL    HW1  179   1.703   1.730   3.172
  375SOL    HW2  180   1.623   1.810   3.290
  378SOL     OW  181   1.194   1.612   1.893
  378SOL    HW1  182   1.200   1.519   1.930
  378SOL    HW2  183   1.135   1.612   1.813
  381SOL     OW  184   1.504   1.607   1.906
  381SOL    HW1  185   1.412   1.644   1.913
  381SOL    HW2  186   1.542   1.627   1.816
  383SOL     OW  187   1.614   1.292   3.151
  383SOL    HW1  188   1.674   1.295   3.231
  383SOL    HW2  189   1.539   1.356   3.164
  394SOL     OW  190   1.183   1.335   1.981
  394SOL    HW1  191   1.084   1.324   1.983
  394SOL    HW2  192   1.217   1.350   2.074
  396SOL     OW  193   1.493   1.767   2.821
  396SOL    HW1  194   1.526   1.831   2.752
  396SOL    HW2  195   1.559   1.761   2.896
  400SOL     OW  196   1.674   0.883   3.116
  400SOL    HW1  197   1.647   0.794   3.079
  400SOL    HW2  198   1.675   0.951   3.043
  409SOL     OW  199   1.861   1.569   2.713
  409SOL    HW1  200   1.790   1.557   2.643
  409SOL    HW2  201   1.862   1.490   2.773
  415SOL     OW  202   1.705   1.487   2.966
  415SOL    HW1  203   1.612   1.462   2.939
  415SOL    HW2  204   1.731   1.437   3.048
  417SOL     OW  205   0.812   1.586   2.549
  417SOL    HW1  206   0.844   1.596   2.455
  417SOL    HW2  207   0.733   1.524   2.551
  426SOL     OW  208   0.875   1.646   2.199
  426SOL    HW1  209   0.798   1.611   2.145
  426SOL    HW2  210   0.843   1.717   2.261
  544SOL     OW  211   0.850   2.660   1.823
  544SOL    HW1  212   0.846   2.736   1.888
  544SOL    HW2  213   0.872   2.696   1.732
  548SOL     OW  214   1.460   3.367   1.339
  548SOL    HW1  215   1.484   3.461   1.365
  548SOL    HW2  216   1.444   3.313   1.421
  550SOL     OW  217   1.603   2.309   0.737
  550SOL    HW1  218   1.529   2.355   0.687
  550SOL    HW2  219   1.654   2.377   0.790
  552SOL     OW  220   1.127   3.203   1.690
  552SOL    HW1  221   1.174   3.203   1.778
  552SOL    HW2  222   1.079   3.116   1.679
  557SOL     OW  223   1.594   1.976   1.480
  557SOL    HW1  224   1.576   2.043   1.408
  557SOL    HW2  225   1.591   2.022   1.569
  565SOL     OW  226   1.293   3.090   1.423
  565SOL    HW1  227   1.330   3.017   1.365
  565SOL    HW2  228   1.345   3.095   1.508
  574SOL     OW  229   1.281   2.207   0.944
  574SOL    HW1  230   1.195   2.157   0.931
  574SOL    HW2  231   1.343   2.153   1.000
  576SOL     OW  232   0.807   2.467   1.465
  576SOL    HW1  233   0.760   2.464   1.554
  576SOL    HW2  234   0.756   2.412   1.399
  577SOL     OW  235   1.394   2.331   1.674
  577SOL    HW1  236   1.374   2.374   1.762
  577SOL    HW2  237   1.472   2.269   1.683
  578SOL     OW  238   0.973   2.752   1.572
  578SOL    HW1  239   1.019   2.668   1.543
  578SOL    HW2  240   0.917   2.786   1.497
  579SOL     OW  241   0.991   2.272   1.242
  579SOL    HW1  242   0.914   2.306   1.296
  579SOL    HW2  243   0.957   2.221   1.163
  584SOL     OW  244   1.719   2.447   1.831
  584SOL    HW1  245   1.693   2.536   1.795
  584SOL    HW2  246   1.717   2.379   1.758
  589SOL     OW  247   1.795   2.928   0.873
  589SOL    HW1  248   1.733   2.913   0.797
  589SOL    HW2  249   1.743   2.939   0.958
  590SOL     OW  250   1.227   3.412   1.506
  590SOL    HW1  251   1.233   3.335   1.570
  590SOL    HW2  252   1.175   3.386   1.426
  602SOL     OW  253   1.547   2.084   1.729
  602SOL    HW1  254   1.542   2.121   1.821
  602SOL    HW2  255   1.475   2.015   1.717
  603SOL     OW  256   0.781   2.126   1.749
  603SOL    HW1  257   0.848   2.065   1.792
  603SOL    HW2  258   0.708   2.145   1.814
  605SOL     OW  259   1.351   2.452   1.433
  605SOL    HW1  260   1.379   2.409   1.518
  605SOL    HW2  261   1.376   2.548   1.434
  612SOL     OW  262   1.076   2.545   1.464
  612SOL    HW1  263   0.996   2.484   1.467
  612SOL    HW2  264   1.157   2.492   1.440
  622SOL     OW  265   1.466   2.452   0.992
  622SOL    HW1  266   1.436   2.357   0.999
  622SOL    HW2  267   1.539   2.468   1.058
  628SOL     OW  268   1.754   3.085   1.588
  628SOL    HW1  269   1.845   3.046   1.575
  628SOL    HW2  270   1.762   3.181   1.612
  630SOL     OW  271   1.592   3.491   1.625
  630SOL    HW1  272   1.619   3.525   1.535
  630SOL    HW2  273   1.671   3.453   1.671
  632SOL     OW  274   1.638   2.961   1.079
  632SOL    HW1  275   1.643   3.042   1.138
  632SOL    HW2  276   1.552   2.963   1.028
  633SOL     OW  277   0.915   1.951   1.402
  633SOL    HW1  278   0.940   1.931   1.307
  633SOL    HW2  279   0.987   2.007   1.444
  634SOL     OW  280   0.980   2.978   1.719
  634SOL    HW1  281   0.881   2.984   1.729
  634SOL    HW2  282   1.003   2.898   1.663
  637SOL     OW  283   1.274   2.248   1.262
  637SOL    HW1  284   1.295   2.322   1.326
  637SOL    HW2  285   1.185   2.265   1.219
  646SOL     OW  286   1.587   2.641   1.670
  646SOL    HW1  287   1.495   2.679   1.665
  646SOL    HW2  288   1.647   2.688   1.605
  647SOL     OW  289   1.013   1.967   1.770
  647SOL    HW1  290   1.019   2.052   1.718
  647SOL    HW2  291   1.045   1.891   1.713
  650SOL     OW  292   1.360   2.724   1.045
  650SOL    HW1  293   1.285   2.724   0.979
  650SOL    HW2  294   1.397   2.632   1.054
  655SOL     OW  295   1.728   2.797   1.854
  655SOL    HW1  296   1.682   2.790   1.765
  655SOL    HW2  297   1.666   2.841   1.920
  660SOL     OW  298   1.859   3.380   1.605
  660SOL    HW1  299   1.873   3.407   1.510
  660SOL    HW2  300   1.942   3.402   1.658
  667SOL     OW  301   1.138   2.242   1.678
  667SOL    HW1  302   1.093   2.305   1.742
  667SOL    HW2  303   1.231   2.273   1.661
  668SOL     OW  304   1.160   2.069   1.477
  668SOL    HW1  305   1.160   2.133   1.554
  668SOL    HW2  306   1.188   2.117   1.394
  672SOL     OW  307   1.002   2.658   1.238
  672SOL    HW1  308   1.043   2.626   1.324
  672SOL    HW2  309   0.906   2.631   1.235
  675SOL     OW  310   1.369   2.812   1.660
  675SOL    HW1  311   1.408   2.901   1.680
  675SOL    HW2  312   1.379   2.792   1.563
  677SOL     OW  313   1.657   2.466   1.206
  677SOL    HW1  314   1.619   2.397   1.268
  677SOL    HW2  315   1.739   2.430   1.162
  683SOL     OW  316   1.347   2.921   1.234
  683SOL    HW1  317   1.371   2.858   1.160
  683SOL    HW2  318   1.257   2.961   1.216
  696SOL     OW  319   1.650   3.582   1.394
  696SOL    HW1  320   1.703   3.592   1.310
  696SOL    HW2  321   1.623   3.672   1.428
  697SOL     OW  322   1.841   2.037   0.963
  697SOL    HW1  323   1.880   1.952   0.927
  697SOL    HW2  324   1.743   2.039   0.944
  704SOL     OW  325   1.614   3.154   1.289
  704SOL    HW1  326   1.674   3.157   1.369
  704SOL    HW2  327   1.539   3.218   1.302
  708SOL     OW  328   1.709   2.247   1.381
  708SOL    HW1  329   1.782   2.316   1.385
  708SOL    HW2  330   1.737   2.172   1.322
  713SOL     OW  331   1.440   2.718   1.398
  713SOL    HW1  332   1.383   2.770   1.335
  713SOL    HW2  333   1.536   2.730   1.374
  718SOL     OW  334   0.716   2.427   1.708
  718SOL    HW1  335   0.735   2.492   1.782
  718SOL    HW2  336   0.776   2.347   1.717
  719SOL     OW  337   1.450   3.082   1.633
  719SOL    HW1  338   1.441   3.072   1.732
  719SOL    HW2  339   1.546   3.075   1.607
  721SOL     OW  340   1.674   2.745   1.254
  721SOL    HW1  341   1.647   2.656   1.217
  721SOL    HW2  342   1.675   2.813   1.181
  724SOL     OW  343   1.777   2.204   1.642
  724SOL    HW1  344   1.760   2.235   1.548
  724SOL    HW2  345   1.693   2.167   1.680
  725SOL     OW  346   1.730   2.796   1.517
  725SOL    HW1  347   1.768   2.887   1.532
  725SOL    HW2  348   1.722   2.779   1.418
  734SOL     OW  349   1.824   2.054   1.227
  734SOL    HW1  350   1.820   1.964   1.271
  734SOL    HW2  351   1.827   2.043   1.128
  736SOL     OW  352   1.705   3.349   1.104
  736SOL    HW1  353   1.612   3.324   1.077
  736SOL    HW2  354   1.731   3.299   1.186
  739SOL     OW  355   1.424   2.076   1.112
  739SOL    HW1  356   1.476   2.011   1.167
  739SOL    HW2  357   1.375   2.139   1.173
  745SOL     OW  358   1.593   2.083   0.882
  745SOL    HW1  359   1.509   2.082   0.936
  745SOL    HW2  360   1.595   2.166   0.826
  752SOL     OW  361   1.555   3.373   2.565
  752SOL    HW1  362   1.498   3.357   2.646
  752SOL    HW2  363   1.496   3.383   2.485
  753SOL     OW  364   1.135   2.565   2.579
  753SOL    HW1  365   1.192   2.643   2.554
  753SOL    HW2  366   1.075   2.591   2.655
  754SOL     OW  367   1.755   2.469   2.093
  754SOL    HW1  368   1.743   2.456   1.994
  754SOL    HW2  369   1.725   2.388   2.142
  755SOL     OW  370   0.768   3.006   2.885
  755SOL    HW1  371   0.690   3.023   2.945
  755SOL    HW2  372   0.802   3.093   2.849
  757SOL     OW  373   0.685   2.874   2.527
  757SOL    HW1  374   0.754   2.858   2.597
  757SOL    HW2  375   0.612   2.931   2.565
  760SOL     OW  376   1.460   3.367   3.201
  760SOL    HW1  377   1.484   3.461   3.227
  760SOL    HW2  378   1.444   3.313   3.283
  762SOL     OW  379   1.603   2.309   2.599
  762SOL    HW1  380   1.529   2.355   2.549
  762SOL    HW2  381   1.654   2.377   2.652
  769SOL     OW  382   1.594   1.976   3.342
  769SOL    HW1  383   1.576   2.043   3.270
  769SOL    HW2  384   1.591   2.022   3.431
  771SOL     OW  385   1.842   3.629   2.221
  771SOL    HW1  386   1.896   3.600   2.301
  771SOL    HW2  387   1.872   3.719   2.192
  773SOL     OW  388   1.689   2.784   2.474
  773SOL    HW1  389   1.784   2.755   2.482
  773SOL    HW2  390   1.681   2.849   2.399
  774SOL     OW  391   1.641   2.970   2.294
  774SOL    HW1  392   1.727   2.972   2.242
  774SOL    HW2  393   1.655   3.017   2.382
  777SOL     OW  394   1.293   3.090   3.285
  777SOL    HW1  395   1.330   3.017   3.227
  777SOL    HW2  396   1.345   3.095   3.370
  778SOL     OW  397   0.809   1.866   2.364
  778SOL    HW1  398   0.849   1.957   2.355
  778SOL    HW2  399   0.709   1.874   2.370
  780SOL     OW  400   1.525   2.861   2.052
  780SOL    HW1  401   1.462   2.785   2.065
  780SOL    HW2  402   1.573   2.879   2.138
  783SOL     OW  403   1.466   3.279   2.815
  783SOL    HW1  404   1.407   3.285   2.895
  783SOL    HW2  405   1.451   3.191   2.769
  784SOL     OW  406   1.667   3.576   2.434
  784SOL    HW1  407   1.626   3.553   2.346
  784SOL    HW2  408   1.649   3.502   2.499
  785SOL     OW  409   0.598   2.591   2.132
  785SOL    HW1  410   0.622   2.660   2.064
  785SOL    HW2  411   0.520   2.624   2.186
  786SOL     OW  412   1.281   2.207   2.806
  786SOL    HW1  413   1.195   2.157   2.793
  786SOL    HW2  414   1.343   2.153   2.862
  787SOL     OW  415   1.576   3.524   2.169
  787SOL    HW1  416   1.665   3.570   2.172
  787SOL    HW2  417   1.555   3.500   2.074
  789SOL     OW  418   1.394   2.331   3.536
  789SOL    HW1  419   1.374   2.374   3.624
  789SOL    HW2  420   1.472   2.269   3.545
  790SOL     OW  421   0.973   2.752   3.434
  790SOL    HW1  422   1.019   2.668   3.405
  790SOL    HW2  423   0.917   2.786   3.359
  791SOL     OW  424   0.991   2.272   3.104
  791SOL    HW1  425   0.914   2.306   3.158
  791SOL    HW2  426   0.957   2.221   3.025
  792SOL     OW  427   1.041   2.563   2.291
  792SOL    HW1  428   1.067   2.559   2.387
  792SOL    HW2  429   0.956   2.512   2.277
  795SOL     OW  430   0.865   2.210   2.057
  795SOL    HW1  431   0.924   2.273   2.008
  795SOL    HW2  432   0.884   2.116   2.028
  796SOL     OW  433   1.719   2.447   3.693
  796SOL    HW1  434   1.693   2.536   3.657
  796SOL    HW2  435   1.717   2.379   3.620
  797SOL     OW  436   1.362   3.006   2.407
  797SOL    HW1  437   1.445   2.977   2.359
  797SOL    HW2  438   1.313   3.073   2.351
  799SOL     OW  439   1.008   3.318   2.339
  799SOL    HW1  440   0.962   3.390   2.287
  799SOL    HW2  441   1.004   3.338   2.437
  801SOL     OW  442   1.795   2.928   2.735
  801SOL    HW1  443   1.733   2.913   2.659
  801SOL    HW2  444   1.743   2.939   2.820
  804SOL     OW  445   1.458   2.597   2.590
  804SOL    HW1  446   1.453   2.532   2.665
  804SOL    HW2  447   1.538   2.656   2.603
  808SOL     OW  448   1.632   3.239   1.943
  808SOL    HW1  449   1.600   3.333   1.933
  808SOL    HW2  450   1.556   3.176   1.931
  810SOL     OW  451   1.400   1.969   2.288
  810SOL    HW1  452   1.376   1.932   2.198
  810SOL    HW2  453   1.499   1.985   2.292
  814SOL     OW  454   1.547   2.084   3.591
  814SOL    HW1  455   1.542   2.121   3.683
  814SOL    HW2  456   1.475   2.015   3.579
  818SOL     OW  457   1.351   2.452   3.295
  818SOL    HW1  458   1.379   2.409   3.380
  818SOL    HW2  459   1.376   2.548   3.296
  820SOL     OW  460   0.922   2.365   2.761
  820SOL    HW1  461   0.897   2.356   2.665
  820SOL    HW2  462   0.970   2.283   2.792
  822SOL     OW  463   1.434   3.050   1.903
  822SOL    HW1  464   1.466   2.974   1.960
  822SOL    HW2  465   1.342   3.077   1.933
  824SOL     OW  466   0.935   2.098   2.342
  824SOL    HW1  467   0.887   2.139   2.264
  824SOL    HW2  468   1.034   2.096   2.323
  825SOL     OW  469   1.076   2.545   3.326
  825SOL    HW1  470   0.996   2.484   3.329
  825SOL    HW2  471   1.157   2.492   3.302
  826SOL     OW  472   1.227   3.432   2.655
  826SOL    HW1  473   1.248   3.506   2.590
  826SOL    HW2  474   1.295   3.432   2.728
  828SOL     OW  475   1.271   3.659   2.453
  828SOL    HW1  476   1.315   3.723   2.389
  828SOL    HW2  477   1.221   3.711   2.523
  829SOL     OW  478   1.032   2.411   1.878
  829SOL    HW1  479   0.991   2.493   1.839
  829SOL    HW2  480   1.096   2.437   1.951
  832SOL     OW  481   0.866   2.316   2.504
  832SOL    HW1  482   0.834   2.388   2.442
  832SOL    HW2  483   0.890   2.235   2.451
  833SOL     OW  484   1.017   1.901   2.615
  833SOL    HW1  485   0.945   1.906   2.546
  833SOL    HW2  486   0.993   1.832   2.684
  834SOL     OW  487   1.429   3.035   2.729
  834SOL    HW1  488   1.374   2.951   2.722
  834SOL    HW2  489   1.455   3.064   2.637
  835SOL     OW  490   1.466   2.452   2.854
  835SOL    HW1  491   1.436   2.357   2.861
  835SOL    HW2  492   1.539   2.468   2.920
  836SOL     OW  493   1.857   2.695   2.239
  836SOL    HW1  494   1.899   2.631   2.303
  836SOL    HW2  495   1.819   2.644   2.161
  838SOL     OW  496   1.664   3.142   2.519
  838SOL    HW1  497   1.763   3.150   2.533
  838SOL    HW2  498   1.619   3.226   2.550
  839SOL     OW  499   1.390   2.437   1.940
  839SOL    HW1  500   1.336   2.416   2.021
  839SOL    HW2  501   1.481   2.396   1.949
  841SOL     OW  502   1.754   3.085   3.450
  841SOL    HW1  503   1.845   3.046   3.437
  841SOL    HW2  504   1.762   3.181   3.474
  842SOL     OW  505   1.064   3.209   3.202
  842SOL    HW1  506   0.984   3.186   3.257
  842SOL    HW2  507   1.147   3.183   3.251
  843SOL     OW  508   1.592   3.491   3.487
  843SOL    HW1  509   1.619   3.525   3.397
  843SOL    HW2  510   1.671   3.453   3.533
  844SOL     OW  511   1.111   3.057   2.962
  844SOL    HW1  512   1.071   3.101   3.043
  844SOL    HW2  513   1.070   3.094   2.879
  845SOL     OW  514   1.638   2.961   2.941
  845SOL    HW1  515   1.643   3.042   3.000
  845SOL    HW2  516   1.552   2.963   2.890
  846SOL     OW  517   0.915   1.951   3.264
  846SOL    HW1  518   0.940   1.931   3.169
  846SOL    HW2  519   0.987   2.007   3.306
  848SOL     OW  520   0.705   2.912   2.230
  848SOL    HW1  521   0.691   2.919   2.329
  848SOL    HW2  522   0.789   2.861   2.212
  850SOL     OW  523   1.274   2.248   3.124
  850SOL    HW1  524   1.295   2.322   3.188
  850SOL    HW2  525   1.185   2.265   3.081
  854SOL     OW  526   1.252   3.210   2.250
  854SOL    HW1  527   1.302   3.287   2.290
  854SOL    HW2  528   1.157   3.212   2.282
  855SOL     OW  529   1.272   3.307   3.004
  855SOL    HW1  530   1.319   3.320   3.091
  855SOL    HW2  531   1.206   3.233   3.013
  856SOL     OW  532   1.582   2.501   2.334
  856SOL    HW1  533   1.551   2.562   2.407
  856SOL    HW2  534   1.632   2.553   2.265
  859SOL     OW  535   1.587   2.641   3.532
  859SOL    HW1  536   1.495   2.679   3.527
  859SOL    HW2  537   1.647   2.688   3.467
  863SOL     OW  538   1.360   2.724   2.907
  863SOL    HW1  539   1.285   2.724   2.841
  863SOL    HW2  540   1.397   2.632   2.916
  864SOL     OW  541   1.209   2.387   2.137
  864SOL    HW1  542   1.222   2.303   2.191
  864SOL    HW2  543   1.180   2.461   2.197
  867SOL     OW  544   0.732   2.496   2.926
  867SOL    HW1  545   0.791   2.470   2.850
  867SOL    HW2  546   0.704   2.592   2.915
  868SOL     OW  547   1.728   2.797   3.716
  868SOL    HW1  548   1.682   2.790   3.627
  868SOL    HW2  549   1.666   2.841   3.782
  870SOL     OW  550   1.622   2.229   2.236
  870SOL    HW1  551   1.624   2.153   2.300
  870SOL    HW2  552   1.574   2.306   2.276
  871SOL     OW  553   1.023   2.628   2.828
  871SOL    HW1  554   1.038   2.649   2.924
  871SOL    HW2  555   0.993   2.533   2.819
  873SOL     OW  556   1.859   3.380   3.467
  873SOL    HW1  557   1.873   3.407   3.372
  873SOL    HW2  558   1.942   3.402   3.520
  875SOL     OW  559   1.540   2.136   1.987
  875SOL    HW1  560   1.479   2.061   2.010
  875SOL    HW2  561   1.562   2.188   2.070
  876SOL     OW  562   1.303   2.700   1.904
  876SOL    HW1  563   1.337   2.607   1.919
  876SOL    HW2  564   1.321   2.727   1.809
  877SOL     OW  565   1.068   3.195   2.711
  877SOL    HW1  566   1.075   3.111   2.656
  877SOL    HW2  567   1.130   3.264   2.675
  880SOL     OW  568   1.138   2.242   3.540
  880SOL    HW1  569   1.093   2.305   3.604
  880SOL    HW2  570   1.231   2.273   3.523
  881SOL     OW  571   1.160   2.069   3.339
  881SOL    HW1  572   1.160   2.133   3.416
  881SOL    HW2  573   1.188   2.117   3.256
  885SOL     OW  574   1.002   2.658   3.100
  885SOL    HW1  575   1.043   2.626   3.186
  885SOL    HW2  576   0.906   2.631   3.097
  888SOL     OW  577   1.369   2.812   3.522
  888SOL    HW1  578   1.408   2.901   3.542
  888SOL    HW2  579   1.379   2.792   3.425
  889SOL     OW  580   0.815   2.434   2.187
  889SOL    HW1  581   0.822   2.345   2.141
  889SOL    HW2  582   0.721   2.468   2.179
  890SOL     OW  583   1.657   2.466   3.068
  890SOL    HW1  584   1.619   2.397   3.130
  890SOL    HW2  585   1.739   2.430   3.024
  896SOL     OW  586   1.347   2.921   3.096
  896SOL    HW1  587   1.371   2.858   3.022
  896SOL    HW2  588   1.257   2.961   3.078
  897SOL     OW  589   1.302   2.717   2.171
  897SOL    HW1  590   1.216   2.686   2.213
  897SOL    HW2  591   1.298   2.703   2.072
  898SOL     OW  592   1.759   3.609   3.016
  898SOL    HW1  593   1.820   3.639   2.943
  898SOL    HW2  594   1.721   3.520   2.994
  899SOL     OW  595   1.252   3.593   2.990
  899SOL    HW1  596   1.336   3.598   2.936
  899SOL    HW2  597   1.229   3.497   3.008
  902SOL     OW  598   1.726   1.997   2.385
  902SOL    HW1  599   1.799   1.980   2.318
  902SOL    HW2  600   1.695   1.910   2.423
  903SOL     OW  601   1.388   3.435   2.339
  903SOL    HW1  602   1.455   3.447   2.265
  903SOL    HW2  603   1.348   3.524   2.362
  905SOL     OW  604   1.280   2.789   2.534
  905SOL    HW1  605   1.340   2.708   2.536
  905SOL    HW2  606   1.320   2.858   2.474
  908SOL     OW  607   1.650   3.582   3.256
  908SOL    HW1  608   1.703   3.592   3.172
  908SOL    HW2  609   1.623   3.672   3.290
  909SOL     OW  610   1.841   2.037   2.825
  909SOL    HW1  611   1.880   1.952   2.789
  909SOL    HW2  612   1.743   2.039   2.806
  911SOL     OW  613   1.194   3.474   1.893
  911SOL    HW1  614   1.200   3.381   1.930
  911SOL    HW2  615   1.135   3.474   1.813
  913SOL     OW  616   0.916   2.772   2.153
  913SOL    HW1  617   0.979   2.810   2.085
  913SOL    HW2  618   0.956   2.689   2.192
  914SOL     OW  619   1.504   3.469   1.906
  914SOL    HW1  620   1.412   3.506   1.913
  914SOL    HW2  621   1.542   3.489   1.816
  916SOL     OW  622   1.614   3.154   3.151
  916SOL    HW1  623   1.674   3.157   3.231
  916SOL    HW2  624   1.539   3.218   3.164
  917SOL     OW  625   1.039   2.960   2.558
  917SOL    HW1  626   0.969   2.913   2.612
  917SOL    HW2  627   1.098   2.892   2.515
  918SOL     OW  628   1.014   2.098   2.833
  918SOL    HW1  629   1.006   2.062   2.740
  918SOL    HW2  630   1.012   2.022   2.898
  920SOL     OW  631   1.709   2.247   3.243
  920SOL    HW1  632   1.782   2.316   3.247
  920SOL    HW2  633   1.737   2.172   3.184
  925SOL     OW  634   1.440   2.718   3.260
  925SOL    HW1  635   1.383   2.770   3.197
  925SOL    HW2  636   1.536   2.730   3.236
  927SOL     OW  637   1.183   3.197   1.981
  927SOL    HW1  638   1.084   3.186   1.983
  927SOL    HW2  639   1.217   3.212   2.074
  929SOL     OW  640   1.493   3.629   2.821
  929SOL    HW1  641   1.526   3.693   2.752
  929SOL    HW2  642   1.559   3.623   2.896
  931SOL     OW  643   1.450   3.082   3.495
  931SOL    HW1  644   1.441   3.072   3.594
  931SOL    HW2  645   1.546   3.075   3.469
  933SOL     OW  646   1.674   2.745   3.116
  933SOL    HW1  647   1.647   2.656   3.079
  933SOL    HW2  648   1.675   2.813   3.043
  934SOL     OW  649   1.225   2.187   2.311
  934SOL    HW1  650   1.290   2.113   2.300
  934SOL    HW2  651   1.245   2.237   2.395
  935SOL     OW  652   0.594   2.607   2.514
  935SOL    HW1  653   0.644   2.692   2.495
  935SOL    HW2  654   0.506   2.609   2.466
  936SOL     OW  655   1.777   2.204   3.504
  936SOL    HW1  656   1.760   2.235   3.410
  936SOL    HW2  657   1.693   2.167   3.542
  937SOL     OW  658   1.730   2.796   3.379
  937SOL    HW1  659   1.768   2.887   3.394
  937SOL    HW2  660   1.722   2.779   3.280
  940SOL     OW  661   0.859   2.818   2.723
  940SOL    HW1  662   0.913   2.749   2.771
  940SOL    HW2  663   0.827   2.887   2.789
  941SOL     OW  664   1.083   2.846   1.949
  941SOL    HW1  665   1.060   2.899   1.867
  941SOL    HW2  666   1.164   2.790   1.930
  942SOL     OW  667   1.861   3.431   2.713
  942SOL    HW1  668   1.790   3.419   2.643
  942SOL    HW2  669   1.862   3.352   2.773
  946SOL     OW  670   1.824   2.054   3.089
  946SOL    HW1  671   1.820   1.964   3.133
  946SOL    HW2  672   1.827   2.043   2.990
  948SOL     OW  673   1.705   3.349   2.966
  948SOL    HW1  674   1.612   3.324   2.939
  948SOL    HW2  675   1.731   3.299   3.048
  951SOL     OW  676   1.424   2.076   2.974
  951SOL    HW1  677   1.476   2.011   3.029
  951SOL    HW2  678   1.375   2.139   3.035
  952SOL     OW  679   1.001   1.896   3.016
  952SOL    HW1  680   0.938   1.824   2.985
  952SOL    HW2  681   1.094   1.860   3.016
  955SOL     OW  682   1.352   1.914   2.030
  955SOL    HW1  683   1.387   1.873   1.946
  955SOL    HW2  684   1.262   1.876   2.050
  956SOL     OW  685   1.300   2.315   2.553
  956SOL    HW1  686   1.241   2.395   2.557
  956SOL    HW2  687   1.315   2.280   2.646
  957SOL     OW  688   1.593   2.083   2.744
  957SOL    HW1  689   1.509   2.082   2.798
  957SOL    HW2  690   1.595   2.166   2.688
  964SOL     OW  691   1.755   2.469   3.955
  964SOL    HW1  692   1.743   2.456   3.856
  964SOL    HW2  693   1.725   2.388   4.004
 1015SOL     OW  694   1.390   2.437   3.802
 1015SOL    HW1  695   1.336   2.416   3.883
 1015SOL    HW2  696   1.481   2.396   3.811
 1026SOL     OW  697   1.540   2.136   3.849
 1026SOL    HW1  698   1.479   2.061   3.872
 1026SOL    HW2  699   1.562   2.188   3.932
 1027SOL     OW  700   1.303   2.700   3.766
 1027SOL    HW1  701   1.337   2.607   3.781
 1027SOL    HW2  702   1.321   2.727   3.671
 1212SOL     OW  703   1.400   3.831   2.288
 1212SOL    HW1  704   1.376   3.794   2.198
 1212SOL    HW2  705   1.499   3.847   2.292
 1269SOL     OW  706   1.726   3.859   2.385
 1269SOL    HW1  707   1.799   3.842   2.318
 1269SOL    HW2  708   1.695   3.772   2.423
 1271SOL     OW  709   1.841   3.899   2.825
 1271SOL    HW1  710   1.880   3.814   2.789
 1271SOL    HW2  711   1.743   3.901   2.806
 1288SOL     OW  712   1.824   3.916   3.089
 1288SOL    HW1  713   1.820   3.826   3.133
 1288SOL    HW2  714   1.827   3.905   2.990
 1293SOL     OW  715   1.352   3.776   2.030
 1293SOL    HW1  716   1.387   3.735   1.946
 1293SOL    HW2  717   1.262   3.738   2.050
 1295SOL     OW  718   1.593   3.945   2.744
 1295SOL    HW1  719   1.509   3.944   2.798
 1295SOL    HW2  720   1.595   4.028   2.688
 1357SOL     OW  721   2.431   1.275   1.165
 1357SOL    HW1  722   2.338   1.268   1.128
 1357SOL    HW2  723   2.442   1.364   1.209
 1362SOL     OW  724   2.712   0.798   1.823
 1362SOL    HW1  725   2.708   0.874   1.888
 1362SOL    HW2  726   2.734   0.834   1.732
 1364SOL     OW  727   2.548   1.161   1.803
 1364SOL    HW1  728   2.608   1.240   1.817
 1364SOL    HW2  729   2.462   1.192   1.762
 1365SOL     OW  730   2.197   1.435   1.061
 1365SOL    HW1  731   2.119   1.404   1.008
 1365SOL    HW2  732   2.255   1.493   1.004
 1366SOL     OW  733   3.322   1.505   1.339
 1366SOL    HW1  734   3.346   1.599   1.365
 1366SOL    HW2  735   3.306   1.451   1.421
 1370SOL     OW  736   2.989   1.341   1.690
 1370SOL    HW1  737   3.036   1.341   1.778
 1370SOL    HW2  738   2.941   1.254   1.679
 1373SOL     OW  739   2.482   1.786   1.439
 1373SOL    HW1  740   2.390   1.769   1.474
 1373SOL    HW2  741   2.510   1.878   1.465
 1382SOL     OW  742   3.155   1.228   1.423
 1382SOL    HW1  743   3.192   1.155   1.365
 1382SOL    HW2  744   3.207   1.233   1.508
 1384SOL     OW  745   2.059   0.976   1.264
 1384SOL    HW1  746   2.148   0.931   1.250
 1384SOL    HW2  747   1.986   0.911   1.245
 1386SOL     OW  748   3.049   1.792   1.616
 1386SOL    HW1  749   3.073   1.852   1.540
 1386SOL    HW2  750   3.056   1.697   1.586
 1395SOL     OW  751   2.835   0.890   1.572
 1395SOL    HW1  752   2.881   0.806   1.543
 1395SOL    HW2  753   2.779   0.924   1.497
 1399SOL     OW  754   1.992   1.821   1.571
 1399SOL    HW1  755   1.982   1.806   1.670
 1399SOL    HW2  756   1.906   1.857   1.535
 1405SOL     OW  757   2.213   1.801   0.853
 1405SOL    HW1  758   2.263   1.715   0.859
 1405SOL    HW2  759   2.278   1.878   0.850
 1407SOL     OW  760   3.089   1.550   1.506
 1407SOL    HW1  761   3.095   1.473   1.570
 1407SOL    HW2  762   3.037   1.524   1.426
 1410SOL     OW  763   2.323   1.266   1.727
 1410SOL    HW1  764   2.273   1.267   1.641
 1410SOL    HW2  765   2.260   1.248   1.803
 1416SOL     OW  766   2.111   1.785   1.241
 1416SOL    HW1  767   2.168   1.720   1.291
 1416SOL    HW2  768   2.095   1.752   1.148
 1417SOL     OW  769   2.802   1.698   0.904
 1417SOL    HW1  770   2.882   1.641   0.925
 1417SOL    HW2  771   2.753   1.658   0.827
 1422SOL     OW  772   2.750   1.514   1.195
 1422SOL    HW1  773   2.727   1.489   1.101
 1422SOL    HW2  774   2.811   1.445   1.234
 1424SOL     OW  775   2.665   1.402   0.924
 1424SOL    HW1  776   2.755   1.416   0.882
 1424SOL    HW2  777   2.594   1.404   0.853
 1447SOL     OW  778   2.926   1.347   1.340
 1447SOL    HW1  779   2.846   1.324   1.395
 1447SOL    HW2  780   3.009   1.321   1.389
 1448SOL     OW  781   3.454   1.629   1.625
 1448SOL    HW1  782   3.481   1.663   1.535
 1448SOL    HW2  783   3.533   1.591   1.671
 1452SOL     OW  784   2.842   1.116   1.719
 1452SOL    HW1  785   2.743   1.122   1.729
 1452SOL    HW2  786   2.865   1.036   1.663
 1456SOL     OW  787   1.926   1.564   1.331
 1456SOL    HW1  788   1.880   1.646   1.297
 1456SOL    HW2  789   2.024   1.583   1.340
 1460SOL     OW  790   3.134   1.445   1.142
 1460SOL    HW1  791   3.181   1.458   1.229
 1460SOL    HW2  792   3.068   1.371   1.151
 1462SOL     OW  793   2.216   1.510   1.329
 1462SOL    HW1  794   2.195   1.466   1.242
 1462SOL    HW2  795   2.313   1.536   1.332
 1463SOL     OW  796   2.264   0.751   1.598
 1463SOL    HW1  797   2.332   0.806   1.551
 1463SOL    HW2  798   2.304   0.663   1.625
 1471SOL     OW  799   1.899   1.310   1.282
 1471SOL    HW1  800   1.952   1.261   1.350
 1471SOL    HW2  801   1.921   1.408   1.287
 1477SOL     OW  802   2.842   1.573   1.700
 1477SOL    HW1  803   2.822   1.617   1.612
 1477SOL    HW2  804   2.881   1.482   1.684
 1478SOL     OW  805   3.721   1.518   1.605
 1478SOL    HW1  806   3.735   1.545   1.510
 1478SOL    HW2  807   3.804   1.540   1.658
 1479SOL     OW  808   2.212   0.898   1.804
 1479SOL    HW1  809   2.288   0.942   1.852
 1479SOL    HW2  810   2.247   0.851   1.722
 1488SOL     OW  811   1.950   1.801   0.927
 1488SOL    HW1  812   1.908   1.715   0.900
 1488SOL    HW2  813   2.044   1.804   0.893
 1489SOL     OW  814   2.366   1.568   0.910
 1489SOL    HW1  815   2.432   1.642   0.919
 1489SOL    HW2  816   2.410   1.489   0.868
 1496SOL     OW  817   2.114   1.564   1.744
 1496SOL    HW1  818   2.084   1.621   1.820
 1496SOL    HW2  819   2.107   1.467   1.770
 1498SOL     OW  820   2.792   1.678   1.465
 1498SOL    HW1  821   2.768   1.660   1.370
 1498SOL    HW2  822   2.822   1.772   1.475
 1500SOL     OW  823   2.021   1.137   1.466
 1500SOL    HW1  824   2.043   1.076   1.542
 1500SOL    HW2  825   2.031   1.088   1.380
 1504SOL     OW  826   3.114   1.731   1.128
 1504SOL    HW1  827   3.198   1.736   1.074
 1504SOL    HW2  828   3.091   1.635   1.146
 1505SOL     OW  829   1.945   1.258   1.022
 1505SOL    HW1  830   1.940   1.257   1.122
 1505SOL    HW2  831   1.862   1.217   0.984
 1506SOL     OW  832   2.550   1.662   1.716
 1506SOL    HW1  833   2.494   1.743   1.725
 1506SOL    HW2  834   2.602   1.666   1.630
 1510SOL     OW  835   1.992   1.794   1.851
 1510SOL    HW1  836   1.951   1.720   1.904
 1510SOL    HW2  837   2.056   1.845   1.909
 1512SOL     OW  838   2.692   1.273   1.422
 1512SOL    HW1  839   2.687   1.306   1.517
 1512SOL    HW2  840   2.606   1.292   1.376
 1514SOL     OW  841   3.512   1.720   1.394
 1514SOL    HW1  842   3.565   1.730   1.310
 1514SOL    HW2  843   3.485   1.810   1.428
 1518SOL     OW  844   2.684   1.002   1.372
 1518SOL    HW1  845   2.724   1.001   1.280
 1518SOL    HW2  846   2.694   1.094   1.412
 1521SOL     OW  847   2.234   1.288   1.490
 1521SOL    HW1  848   2.221   1.381   1.456
 1521SOL    HW2  849   2.150   1.236   1.477
 1528SOL     OW  850   1.967   1.013   1.726
 1528SOL    HW1  851   1.890   0.980   1.780
 1528SOL    HW2  852   2.052   0.983   1.768
 1532SOL     OW  853   2.475   0.842   1.431
 1532SOL    HW1  854   2.531   0.923   1.414
 1532SOL    HW2  855   2.534   0.762   1.434
 1535SOL     OW  856   3.312   1.220   1.633
 1535SOL    HW1  857   3.303   1.210   1.732
 1535SOL    HW2  858   3.408   1.213   1.607
 1536SOL     OW  859   2.252   1.741   1.560
 1536SOL    HW1  860   2.161   1.782   1.558
 1536SOL    HW2  861   2.245   1.647   1.592
 1543SOL     OW  862   2.523   1.790   0.953
 1543SOL    HW1  863   2.477   1.878   0.940
 1543SOL    HW2  864   2.622   1.802   0.946
 1547SOL     OW  865   2.083   1.314   1.844
 1547SOL    HW1  866   2.018   1.241   1.823
 1547SOL    HW2  867   2.087   1.328   1.942
 1549SOL     OW  868   2.534   1.391   1.624
 1549SOL    HW1  869   2.456   1.341   1.662
 1549SOL    HW2  870   2.531   1.486   1.655
 1558SOL     OW  871   2.480   1.567   1.284
 1558SOL    HW1  872   2.475   1.649   1.341
 1558SOL    HW2  873   2.569   1.564   1.239
 1564SOL     OW  874   2.092   0.628   1.975
 1564SOL    HW1  875   1.999   0.626   2.012
 1564SOL    HW2  876   2.093   0.589   1.883
 1567SOL     OW  877   2.431   1.275   3.027
 1567SOL    HW1  878   2.338   1.268   2.990
 1567SOL    HW2  879   2.442   1.364   3.071
 1568SOL     OW  880   3.417   1.511   2.565
 1568SOL    HW1  881   3.360   1.495   2.646
 1568SOL    HW2  882   3.358   1.521   2.485
 1569SOL     OW  883   2.997   0.703   2.579
 1569SOL    HW1  884   3.054   0.781   2.554
 1569SOL    HW2  885   2.937   0.729   2.655
 1571SOL     OW  886   2.630   1.144   2.885
 1571SOL    HW1  887   2.552   1.161   2.945
 1571SOL    HW2  888   2.664   1.231   2.849
 1573SOL     OW  889   2.547   1.012   2.527
 1573SOL    HW1  890   2.616   0.996   2.597
 1573SOL    HW2  891   2.474   1.069   2.565
 1574SOL     OW  892   2.548   1.161   3.665
 1574SOL    HW1  893   2.608   1.240   3.679
 1574SOL    HW2  894   2.462   1.192   3.624
 1575SOL     OW  895   2.197   1.435   2.923
 1575SOL    HW1  896   2.119   1.404   2.870
 1575SOL    HW2  897   2.255   1.493   2.866
 1576SOL     OW  898   3.322   1.505   3.201
 1576SOL    HW1  899   3.346   1.599   3.227
 1576SOL    HW2  900   3.306   1.451   3.283
 1579SOL     OW  901   2.093   1.713   2.345
 1579SOL    HW1  902   2.127   1.790   2.399
 1579SOL    HW2  903   2.137   1.713   2.255
 1580SOL     OW  904   2.989   1.341   3.552
 1580SOL    HW1  905   3.036   1.341   3.640
 1580SOL    HW2  906   2.941   1.254   3.541
 1581SOL     OW  907   2.092   1.434   2.400
 1581SOL    HW1  908   2.066   1.530   2.400
 1581SOL    HW2  909   2.021   1.380   2.445
 1582SOL     OW  910   2.102   1.091   2.748
 1582SOL    HW1  911   2.116   1.007   2.800
 1582SOL    HW2  912   2.047   1.155   2.803
 1583SOL     OW  913   2.482   1.786   3.301
 1583SOL    HW1  914   2.390   1.769   3.336
 1583SOL    HW2  915   2.510   1.878   3.327
 1584SOL     OW  916   2.468   0.964   1.985
 1584SOL    HW1  917   2.475   1.048   1.931
 1584SOL    HW2  918   2.514   0.977   2.073
 1586SOL     OW  919   1.984   0.643   2.425
 1586SOL    HW1  920   1.939   0.555   2.442
 1586SOL    HW2  921   1.983   0.697   2.509
 1587SOL     OW  922   3.704   1.767   2.221
 1587SOL    HW1  923   3.758   1.738   2.301
 1587SOL    HW2  924   3.734   1.857   2.192
 1588SOL     OW  925   1.889   1.596   1.979
 1588SOL    HW1  926   1.870   1.500   2.000
 1588SOL    HW2  927   1.856   1.654   2.054
 1590SOL     OW  928   3.503   1.108   2.294
 1590SOL    HW1  929   3.589   1.110   2.242
 1590SOL    HW2  930   3.517   1.155   2.382
 1592SOL     OW  931   2.475   1.365   2.588
 1592SOL    HW1  932   2.426   1.278   2.597
 1592SOL    HW2  933   2.452   1.408   2.501
 1593SOL     OW  934   3.155   1.228   3.285
 1593SOL    HW1  935   3.192   1.155   3.227
 1593SOL    HW2  936   3.207   1.233   3.370
 1595SOL     OW  937   2.059   0.976   3.126
 1595SOL    HW1  938   2.148   0.931   3.112
 1595SOL    HW2  939   1.986   0.911   3.107
 1596SOL     OW  940   3.387   0.999   2.052
 1596SOL    HW1  941   3.324   0.923   2.065
 1596SOL    HW2  942   3.435   1.017   2.138
 1597SOL     OW  943   3.049   1.792   3.478
 1597SOL    HW1  944   3.073   1.852   3.402
 1597SOL    HW2  945   3.056   1.697   3.448
 1599SOL     OW  946   3.328   1.417   2.815
 1599SOL    HW1  947   3.269   1.423   2.895
 1599SOL    HW2  948   3.313   1.329   2.769
 1600SOL     OW  949   3.529   1.714   2.434
 1600SOL    HW1  950   3.488   1.691   2.346
 1600SOL    HW2  951   3.511   1.640   2.499
 1601SOL     OW  952   2.460   0.729   2.132
 1601SOL    HW1  953   2.484   0.798   2.064
 1601SOL    HW2  954   2.382   0.762   2.186
 1603SOL     OW  955   3.438   1.662   2.169
 1603SOL    HW1  956   3.527   1.708   2.172
 1603SOL    HW2  957   3.417   1.638   2.074
 1608SOL     OW  958   2.903   0.701   2.291
 1608SOL    HW1  959   2.929   0.697   2.387
 1608SOL    HW2  960   2.818   0.650   2.277
 1609SOL     OW  961   1.938   0.811   2.651
 1609SOL    HW1  962   2.037   0.799   2.660
 1609SOL    HW2  963   1.914   0.906   2.672
 1610SOL     OW  964   1.992   1.821   3.433
 1610SOL    HW1  965   1.982   1.806   3.532
 1610SOL    HW2  966   1.906   1.857   3.397
 1613SOL     OW  967   3.224   1.144   2.407
 1613SOL    HW1  968   3.307   1.115   2.359
 1613SOL    HW2  969   3.175   1.211   2.351
 1615SOL     OW  970   2.870   1.456   2.339
 1615SOL    HW1  971   2.824   1.528   2.287
 1615SOL    HW2  972   2.866   1.476   2.437
 1616SOL     OW  973   2.213   1.801   2.715
 1616SOL    HW1  974   2.263   1.715   2.721
 1616SOL    HW2  975   2.278   1.878   2.712
 1618SOL     OW  976   3.089   1.550   3.368
 1618SOL    HW1  977   3.095   1.473   3.432
 1618SOL    HW2  978   3.037   1.524   3.288
 1619SOL     OW  979   2.183   0.943   2.104
 1619SOL    HW1  980   2.265   0.982   2.062
 1619SOL    HW2  981   2.156   0.861   2.055
 1621SOL     OW  982   2.323   1.266   3.589
 1621SOL    HW1  983   2.273   1.267   3.503
 1621SOL    HW2  984   2.260   1.248   3.665
 1622SOL     OW  985   2.973   1.776   2.099
 1622SOL    HW1  986   2.913   1.714   2.149
 1622SOL    HW2  987   3.004   1.732   2.014
 1624SOL     OW  988   3.494   1.377   1.943
 1624SOL    HW1  989   3.462   1.471   1.933
 1624SOL    HW2  990   3.418   1.314   1.931
 1625SOL     OW  991   2.326   1.743   2.185
 1625SOL    HW1  992   2.359   1.782   2.271
 1625SOL    HW2  993   2.402   1.736   2.120
 1627SOL     OW  994   2.111   1.785   3.103
 1627SOL    HW1  995   2.168   1.720   3.153
 1627SOL    HW2  996   2.095   1.752   3.010
 1628SOL     OW  997   2.802   1.698   2.766
 1628SOL    HW1  998   2.882   1.641   2.787
 1628SOL    HW2  999   2.753   1.658   2.689
 1629SOL     OW 1000   2.244   0.700   2.342
 1629SOL    HW1 1001   2.289   0.610   2.339
 1629SOL    HW2 1002   2.150   0.689   2.375
 1633SOL     OW 1003   2.750   1.514   3.057
 1633SOL    HW1 1004   2.727   1.489   2.963
 1633SOL    HW2 1005   2.811   1.445   3.096
 1635SOL     OW 1006   2.665   1.402   2.786
 1635SOL    HW1 1007   2.755   1.416   2.744
 1635SOL    HW2 1008   2.594   1.404   2.715
 1638SOL     OW 1009   3.296   1.188   1.903
 1638SOL    HW1 1010   3.328   1.112   1.960
 1638SOL    HW2 1011   3.204   1.215   1.933
 1642SOL     OW 1012   3.089   1.570   2.655
 1642SOL    HW1 1013   3.110   1.644   2.590
 1642SOL    HW2 1014   3.157   1.570   2.728
 1643SOL     OW 1015   2.321   1.152   2.603
 1643SOL    HW1 1016   2.250   1.125   2.668
 1643SOL    HW2 1017   2.295   1.124   2.510
 1644SOL     OW 1018   3.133   1.797   2.453
 1644SOL    HW1 1019   3.177   1.861   2.389
 1644SOL    HW2 1020   3.083   1.849   2.523
 1650SOL     OW 1021   3.291   1.173   2.729
 1650SOL    HW1 1022   3.236   1.089   2.722
 1650SOL    HW2 1023   3.317   1.202   2.637
 1653SOL     OW 1024   2.350   1.385   2.036
 1653SOL    HW1 1025   2.263   1.370   2.083
 1653SOL    HW2 1026   2.333   1.411   1.941
 1654SOL     OW 1027   3.526   1.280   2.519
 1654SOL    HW1 1028   3.625   1.288   2.533
 1654SOL    HW2 1029   3.481   1.364   2.550
 1658SOL     OW 1030   2.926   1.347   3.202
 1658SOL    HW1 1031   2.846   1.324   3.257
 1658SOL    HW2 1032   3.009   1.321   3.251
 1659SOL     OW 1033   3.454   1.629   3.487
 1659SOL    HW1 1034   3.481   1.663   3.397
 1659SOL    HW2 1035   3.533   1.591   3.533
 1660SOL     OW 1036   2.973   1.195   2.962
 1660SOL    HW1 1037   2.933   1.239   3.043
 1660SOL    HW2 1038   2.932   1.232   2.879
 1661SOL     OW 1039   3.500   1.099   2.941
 1661SOL    HW1 1040   3.505   1.180   3.000
 1661SOL    HW2 1041   3.414   1.101   2.890
 1664SOL     OW 1042   2.567   1.050   2.230
 1664SOL    HW1 1043   2.553   1.057   2.329
 1664SOL    HW2 1044   2.651   0.999   2.212
 1665SOL     OW 1045   2.272   0.813   3.113
 1665SOL    HW1 1046   2.358   0.825   3.163
 1665SOL    HW2 1047   2.230   0.726   3.140
 1667SOL     OW 1048   1.926   1.564   3.193
 1667SOL    HW1 1049   1.880   1.646   3.159
 1667SOL    HW2 1050   2.024   1.583   3.202
 1668SOL     OW 1051   2.229   1.100   2.363
 1668SOL    HW1 1052   2.222   1.183   2.307
 1668SOL    HW2 1053   2.233   1.020   2.303
 1670SOL     OW 1054   3.114   1.348   2.250
 1670SOL    HW1 1055   3.164   1.425   2.290
 1670SOL    HW2 1056   3.019   1.350   2.282
 1671SOL     OW 1057   3.134   1.445   3.004
 1671SOL    HW1 1058   3.181   1.458   3.091
 1671SOL    HW2 1059   3.068   1.371   3.013
 1673SOL     OW 1060   2.216   1.510   3.191
 1673SOL    HW1 1061   2.195   1.466   3.104
 1673SOL    HW2 1062   2.313   1.536   3.194
 1678SOL     OW 1063   2.435   0.870   2.891
 1678SOL    HW1 1064   2.479   0.959   2.882
 1678SOL    HW2 1065   2.372   0.870   2.968
 1682SOL     OW 1066   1.899   1.310   3.144
 1682SOL    HW1 1067   1.952   1.261   3.212
 1682SOL    HW2 1068   1.921   1.408   3.149
 1687SOL     OW 1069   2.885   0.766   2.828
 1687SOL    HW1 1070   2.900   0.787   2.924
 1687SOL    HW2 1071   2.855   0.671   2.819
 1688SOL     OW 1072   2.842   1.573   3.562
 1688SOL    HW1 1073   2.822   1.617   3.474
 1688SOL    HW2 1074   2.881   1.482   3.546
 1692SOL     OW 1075   3.165   0.838   1.904
 1692SOL    HW1 1076   3.199   0.745   1.919
 1692SOL    HW2 1077   3.183   0.865   1.809
 1693SOL     OW 1078   2.930   1.333   2.711
 1693SOL    HW1 1079   2.937   1.249   2.656
 1693SOL    HW2 1080   2.992   1.402   2.675
 1694SOL     OW 1081   2.181   0.810   2.811
 1694SOL    HW1 1082   2.274   0.846   2.816
 1694SOL    HW2 1083   2.175   0.725   2.863
 1698SOL     OW 1084   1.870   1.326   2.062
 1698SOL    HW1 1085   1.777   1.347   2.031
 1698SOL    HW2 1086   1.880   1.227   2.075
 1699SOL     OW 1087   1.950   1.801   2.789
 1699SOL    HW1 1088   1.908   1.715   2.762
 1699SOL    HW2 1089   2.044   1.804   2.755
 1700SOL     OW 1090   2.366   1.568   2.772
 1700SOL    HW1 1091   2.432   1.642   2.781
 1700SOL    HW2 1092   2.410   1.489   2.730
 1707SOL     OW 1093   2.114   1.564   3.606
 1707SOL    HW1 1094   2.084   1.621   3.682
 1707SOL    HW2 1095   2.107   1.467   3.632
 1709SOL     OW 1096   2.792   1.678   3.327
 1709SOL    HW1 1097   2.768   1.660   3.232
 1709SOL    HW2 1098   2.822   1.772   3.337
 1711SOL     OW 1099   2.021   1.137   3.328
 1711SOL    HW1 1100   2.043   1.076   3.404
 1711SOL    HW2 1101   2.031   1.088   3.242
 1712SOL     OW 1102   3.209   1.059   3.096
 1712SOL    HW1 1103   3.233   0.996   3.022
 1712SOL    HW2 1104   3.119   1.099   3.078
 1713SOL     OW 1105   3.164   0.855   2.171
 1713SOL    HW1 1106   3.078   0.824   2.213
 1713SOL    HW2 1107   3.160   0.841   2.072
 1714SOL     OW 1108   3.621   1.747   3.016
 1714SOL    HW1 1109   3.682   1.777   2.943
 1714SOL    HW2 1110   3.583   1.658   2.994
 1715SOL     OW 1111   3.114   1.731   2.990
 1715SOL    HW1 1112   3.198   1.736   2.936
 1715SOL    HW2 1113   3.091   1.635   3.008
 1716SOL     OW 1114   1.945   1.258   2.884
 1716SOL    HW1 1115   1.940   1.257   2.984
 1716SOL    HW2 1116   1.862   1.217   2.846
 1717SOL     OW 1117   2.550   1.662   3.578
 1717SOL    HW1 1118   2.494   1.743   3.587
 1717SOL    HW2 1119   2.602   1.666   3.492
 1719SOL     OW 1120   3.250   1.573   2.339
 1719SOL    HW1 1121   3.317   1.585   2.265
 1719SOL    HW2 1122   3.210   1.662   2.362
 1720SOL     OW 1123   1.992   1.794   3.713
 1720SOL    HW1 1124   1.951   1.720   3.766
 1720SOL    HW2 1125   2.056   1.845   3.771
 1721SOL     OW 1126   3.142   0.927   2.534
 1721SOL    HW1 1127   3.202   0.846   2.536
 1721SOL    HW2 1128   3.182   0.996   2.474
 1722SOL     OW 1129   2.692   1.273   3.284
 1722SOL    HW1 1130   2.687   1.306   3.379
 1722SOL    HW2 1131   2.606   1.292   3.238
 1723SOL     OW 1132   2.534   1.616   2.016
 1723SOL    HW1 1133   2.543   1.626   1.917
 1723SOL    HW2 1134   2.494   1.527   2.037
 1724SOL     OW 1135   3.512   1.720   3.256
 1724SOL    HW1 1136   3.565   1.730   3.172
 1724SOL    HW2 1137   3.485   1.810   3.290
 1727SOL     OW 1138   3.056   1.612   1.893
 1727SOL    HW1 1139   3.062   1.519   1.930
 1727SOL    HW2 1140   2.997   1.612   1.813
 1728SOL     OW 1141   2.684   1.002   3.234
 1728SOL    HW1 1142   2.724   1.001   3.142
 1728SOL    HW2 1143   2.694   1.094   3.274
 1729SOL     OW 1144   2.778   0.910   2.153
 1729SOL    HW1 1145   2.841   0.948   2.085
 1729SOL    HW2 1146   2.818   0.827   2.192
 1730SOL     OW 1147   3.366   1.607   1.906
 1730SOL    HW1 1148   3.274   1.644   1.913
 1730SOL    HW2 1149   3.404   1.627   1.816
 1731SOL     OW 1150   2.234   1.288   3.352
 1731SOL    HW1 1151   2.221   1.381   3.318
 1731SOL    HW2 1152   2.150   1.236   3.339
 1732SOL     OW 1153   3.476   1.292   3.151
 1732SOL    HW1 1154   3.536   1.295   3.231
 1732SOL    HW2 1155   3.401   1.356   3.164
 1733SOL     OW 1156   2.901   1.098   2.558
 1733SOL    HW1 1157   2.831   1.051   2.612
 1733SOL    HW2 1158   2.960   1.030   2.515
 1735SOL     OW 1159   2.452   1.487   2.353
 1735SOL    HW1 1160   2.494   1.429   2.283
 1735SOL    HW2 1161   2.408   1.566   2.309
 1737SOL     OW 1162   2.117   1.348   2.152
 1737SOL    HW1 1163   2.021   1.349   2.125
 1737SOL    HW2 1164   2.129   1.401   2.236
 1743SOL     OW 1165   3.045   1.335   1.981
 1743SOL    HW1 1166   2.946   1.324   1.983
 1743SOL    HW2 1167   3.079   1.350   2.074
 1744SOL     OW 1168   2.475   0.842   3.293
 1744SOL    HW1 1169   2.531   0.923   3.276
 1744SOL    HW2 1170   2.534   0.762   3.296
 1745SOL     OW 1171   3.355   1.767   2.821
 1745SOL    HW1 1172   3.388   1.831   2.752
 1745SOL    HW2 1173   3.421   1.761   2.896
 1748SOL     OW 1174   2.252   1.741   3.422
 1748SOL    HW1 1175   2.161   1.782   3.420
 1748SOL    HW2 1176   2.245   1.647   3.454
 1751SOL     OW 1177   2.456   0.745   2.514
 1751SOL    HW1 1178   2.506   0.830   2.495
 1751SOL    HW2 1179   2.368   0.747   2.466
 1754SOL     OW 1180   2.721   1.374   1.878
 1754SOL    HW1 1181   2.675   1.389   1.966
 1754SOL    HW2 1182   2.765   1.459   1.848
 1755SOL     OW 1183   2.523   1.790   2.815
 1755SOL    HW1 1184   2.477   1.878   2.802
 1755SOL    HW2 1185   2.622   1.802   2.808
 1756SOL     OW 1186   2.721   0.956   2.723
 1756SOL    HW1 1187   2.775   0.887   2.771
 1756SOL    HW2 1188   2.689   1.025   2.789
 1757SOL     OW 1189   2.945   0.984   1.949
 1757SOL    HW1 1190   2.922   1.037   1.867
 1757SOL    HW2 1191   3.026   0.928   1.930
 1758SOL     OW 1192   3.723   1.569   2.713
 1758SOL    HW1 1193   3.652   1.557   2.643
 1758SOL    HW2 1194   3.724   1.490   2.773
 1759SOL     OW 1195   2.083   1.314   3.706
 1759SOL    HW1 1196   2.018   1.241   3.685
 1759SOL    HW2 1197   2.087   1.328   3.804
 1760SOL     OW 1198   1.941   1.240   2.515
 1760SOL    HW1 1199   1.940   1.193   2.603
 1760SOL    HW2 1200   2.023   1.212   2.464
 1761SOL     OW 1201   2.534   1.391   3.486
 1761SOL    HW1 1202   2.456   1.341   3.524
 1761SOL    HW2 1203   2.531   1.486   3.517
 1764SOL     OW 1204   3.567   1.487   2.966
 1764SOL    HW1 1205   3.474   1.462   2.939
 1764SOL    HW2 1206   3.593   1.437   3.048
 1766SOL     OW 1207   2.674   1.586   2.549
 1766SOL    HW1 1208   2.706   1.596   2.455
 1766SOL    HW2 1209   2.595   1.524   2.551
 1769SOL     OW 1210   2.632   1.330   2.163
 1769SOL    HW1 1211   2.586   1.243   2.180
 1769SOL    HW2 1212   2.723   1.327   2.204
 1770SOL     OW 1213   2.480   1.567   3.146
 1770SOL    HW1 1214   2.475   1.649   3.203
 1770SOL    HW2 1215   2.569   1.564   3.101
 1774SOL     OW 1216   1.901   1.077   2.162
 1774SOL    HW1 1217   2.000   1.066   2.153
 1774SOL    HW2 1218   1.861   0.991   2.194
 1775SOL     OW 1219   2.737   1.646   2.199
 1775SOL    HW1 1220   2.660   1.611   2.145
 1775SOL    HW2 1221   2.705   1.717   2.261
 1791SOL     OW 1222   1.889   1.596   3.841
 1791SOL    HW1 1223   1.870   1.500   3.862
 1791SOL    HW2 1224   1.856   1.654   3.916
 1813SOL     OW 1225   2.326   1.743   4.047
 1813SOL    HW1 1226   2.359   1.782   4.133
 1813SOL    HW2 1227   2.402   1.736   3.982
 1856SOL     OW 1228   2.534   1.616   3.878
 1856SOL    HW1 1229   2.543   1.626   3.779
 1856SOL    HW2 1230   2.494   1.527   3.899
 1859SOL     OW 1231   3.056   1.612   3.755
 1859SOL    HW1 1232   3.062   1.519   3.792
 1859SOL    HW2 1233   2.997   1.612   3.675
 1871SOL     OW 1234   2.721   1.374   3.740
 1871SOL    HW1 1235   2.675   1.389   3.828
 1871SOL    HW2 1236   2.765   1.459   3.710
 1887SOL     OW 1237   2.087   2.137   0.996
 1887SOL    HW1 1238   2.122   2.120   1.088
 1887SOL    HW2 1239   1.999   2.092   0.984
 1888SOL     OW 1240   1.881   2.230   0.647
 1888SOL    HW1 1241   1.799   2.273   0.686
 1888SOL    HW2 1242   1.853   2.157   0.584
 1889SOL     OW 1243   2.431   3.137   1.165
 1889SOL    HW1 1244   2.338   3.130   1.128
 1889SOL    HW2 1245   2.442   3.226   1.209
 1891SOL     OW 1246   2.997   2.565   0.717
 1891SOL    HW1 1247   3.054   2.643   0.692
 1891SOL    HW2 1248   2.937   2.591   0.793
 1893SOL     OW 1249   2.630   3.006   1.023
 1893SOL    HW1 1250   2.552   3.023   1.083
 1893SOL    HW2 1251   2.664   3.093   0.987
 1894SOL     OW 1252   2.712   2.660   1.823
 1894SOL    HW1 1253   2.708   2.736   1.888
 1894SOL    HW2 1254   2.734   2.696   1.732
 1895SOL     OW 1255   2.547   2.874   0.665
 1895SOL    HW1 1256   2.616   2.858   0.735
 1895SOL    HW2 1257   2.474   2.931   0.703
 1896SOL     OW 1258   2.548   3.023   1.803
 1896SOL    HW1 1259   2.608   3.102   1.817
 1896SOL    HW2 1260   2.462   3.054   1.762
 1897SOL     OW 1261   2.197   3.297   1.061
 1897SOL    HW1 1262   2.119   3.266   1.008
 1897SOL    HW2 1263   2.255   3.355   1.004
 1898SOL     OW 1264   3.322   3.367   1.339
 1898SOL    HW1 1265   3.346   3.461   1.365
 1898SOL    HW2 1266   3.306   3.313   1.421
 1899SOL     OW 1267   2.300   2.254   1.499
 1899SOL    HW1 1268   2.382   2.198   1.508
 1899SOL    HW2 1269   2.219   2.196   1.503
 1902SOL     OW 1270   2.989   3.203   1.690
 1902SOL    HW1 1271   3.036   3.203   1.778
 1902SOL    HW2 1272   2.941   3.116   1.679
 1904SOL     OW 1273   2.102   2.953   0.886
 1904SOL    HW1 1274   2.116   2.869   0.938
 1904SOL    HW2 1275   2.047   3.017   0.941
 1905SOL     OW 1276   2.482   3.648   1.439
 1905SOL    HW1 1277   2.390   3.631   1.474
 1905SOL    HW2 1278   2.510   3.740   1.465
 1907SOL     OW 1279   3.456   1.976   1.480
 1907SOL    HW1 1280   3.438   2.043   1.408
 1907SOL    HW2 1281   3.453   2.022   1.569
 1912SOL     OW 1282   1.975   2.599   1.597
 1912SOL    HW1 1283   2.063   2.586   1.642
 1912SOL    HW2 1284   1.962   2.696   1.575
 1914SOL     OW 1285   3.155   3.090   1.423
 1914SOL    HW1 1286   3.192   3.017   1.365
 1914SOL    HW2 1287   3.207   3.095   1.508
 1916SOL     OW 1288   2.059   2.838   1.264
 1916SOL    HW1 1289   2.148   2.793   1.250
 1916SOL    HW2 1290   1.986   2.773   1.245
 1918SOL     OW 1291   3.049   3.654   1.616
 1918SOL    HW1 1292   3.073   3.714   1.540
 1918SOL    HW2 1293   3.056   3.559   1.586
 1919SOL     OW 1294   2.179   2.113   1.801
 1919SOL    HW1 1295   2.250   2.184   1.807
 1919SOL    HW2 1296   2.091   2.152   1.829
 1923SOL     OW 1297   3.143   2.207   0.944
 1923SOL    HW1 1298   3.057   2.157   0.931
 1923SOL    HW2 1299   3.205   2.153   1.000
 1925SOL     OW 1300   2.669   2.467   1.465
 1925SOL    HW1 1301   2.622   2.464   1.554
 1925SOL    HW2 1302   2.618   2.412   1.399
 1926SOL     OW 1303   3.256   2.331   1.674
 1926SOL    HW1 1304   3.236   2.374   1.762
 1926SOL    HW2 1305   3.334   2.269   1.683
 1927SOL     OW 1306   2.835   2.752   1.572
 1927SOL    HW1 1307   2.881   2.668   1.543
 1927SOL    HW2 1308   2.779   2.786   1.497
 1928SOL     OW 1309   2.853   2.272   1.242
 1928SOL    HW1 1310   2.776   2.306   1.296
 1928SOL    HW2 1311   2.819   2.221   1.163
 1930SOL     OW 1312   1.938   2.673   0.789
 1930SOL    HW1 1313   2.037   2.661   0.798
 1930SOL    HW2 1314   1.914   2.768   0.810
 1931SOL     OW 1315   1.992   3.683   1.571
 1931SOL    HW1 1316   1.982   3.668   1.670
 1931SOL    HW2 1317   1.906   3.719   1.535
 1933SOL     OW 1318   3.581   2.447   1.831
 1933SOL    HW1 1319   3.555   2.536   1.795
 1933SOL    HW2 1320   3.579   2.379   1.758
 1935SOL     OW 1321   2.412   2.058   0.885
 1935SOL    HW1 1322   2.407   2.053   0.985
 1935SOL    HW2 1323   2.414   2.154   0.856
 1939SOL     OW 1324   3.089   3.412   1.506
 1939SOL    HW1 1325   3.095   3.335   1.570
 1939SOL    HW2 1326   3.037   3.386   1.426
 1942SOL     OW 1327   2.323   3.128   1.727
 1942SOL    HW1 1328   2.273   3.129   1.641
 1942SOL    HW2 1329   2.260   3.110   1.803
 1944SOL     OW 1330   2.064   2.147   1.498
 1944SOL    HW1 1331   1.984   2.207   1.485
 1944SOL    HW2 1332   2.054   2.098   1.584
 1948SOL     OW 1333   2.111   3.647   1.241
 1948SOL    HW1 1334   2.168   3.582   1.291
 1948SOL    HW2 1335   2.095   3.614   1.148
 1951SOL     OW 1336   3.409   2.084   1.729
 1951SOL    HW1 1337   3.404   2.121   1.821
 1951SOL    HW2 1338   3.337   2.015   1.717
 1952SOL     OW 1339   2.643   2.126   1.749
 1952SOL    HW1 1340   2.710   2.065   1.792
 1952SOL    HW2 1341   2.570   2.145   1.814
 1953SOL     OW 1342   2.750   3.376   1.195
 1953SOL    HW1 1343   2.727   3.351   1.101
 1953SOL    HW2 1344   2.811   3.307   1.234
 1954SOL     OW 1345   3.213   2.452   1.433
 1954SOL    HW1 1346   3.241   2.409   1.518
 1954SOL    HW2 1347   3.238   2.548   1.434
 1955SOL     OW 1348   2.665   3.264   0.924
 1955SOL    HW1 1349   2.755   3.278   0.882
 1955SOL    HW2 1350   2.594   3.266   0.853
 1956SOL     OW 1351   2.784   2.365   0.899
 1956SOL    HW1 1352   2.759   2.356   0.803
 1956SOL    HW2 1353   2.832   2.283   0.930
 1961SOL     OW 1354   2.938   2.545   1.464
 1961SOL    HW1 1355   2.858   2.484   1.467
 1961SOL    HW2 1356   3.019   2.492   1.440
 1963SOL     OW 1357   2.321   3.014   0.741
 1963SOL    HW1 1358   2.250   2.987   0.806
 1963SOL    HW2 1359   2.295   2.986   0.648
 1966SOL     OW 1360   1.940   2.418   1.386
 1966SOL    HW1 1361   2.032   2.417   1.345
 1966SOL    HW2 1362   1.934   2.492   1.453
 1967SOL     OW 1363   2.423   2.084   1.147
 1967SOL    HW1 1364   2.461   2.000   1.184
 1967SOL    HW2 1365   2.335   2.103   1.191
 1968SOL     OW 1366   2.728   2.316   0.642
 1968SOL    HW1 1367   2.696   2.388   0.580
 1968SOL    HW2 1368   2.752   2.235   0.589
 1969SOL     OW 1369   2.879   1.901   0.753
 1969SOL    HW1 1370   2.807   1.906   0.684
 1969SOL    HW2 1371   2.855   1.832   0.822
 1971SOL     OW 1372   3.328   2.452   0.992
 1971SOL    HW1 1373   3.298   2.357   0.999
 1971SOL    HW2 1374   3.401   2.468   1.058
 1977SOL     OW 1375   3.616   3.085   1.588
 1977SOL    HW1 1376   3.707   3.046   1.575
 1977SOL    HW2 1377   3.624   3.181   1.612
 1978SOL     OW 1378   2.926   3.209   1.340
 1978SOL    HW1 1379   2.846   3.186   1.395
 1978SOL    HW2 1380   3.009   3.183   1.389
 1979SOL     OW 1381   3.454   3.491   1.625
 1979SOL    HW1 1382   3.481   3.525   1.535
 1979SOL    HW2 1383   3.533   3.453   1.671
 1980SOL     OW 1384   2.973   3.057   1.100
 1980SOL    HW1 1385   2.933   3.101   1.181
 1980SOL    HW2 1386   2.932   3.094   1.017
 1982SOL     OW 1387   2.777   1.951   1.402
 1982SOL    HW1 1388   2.802   1.931   1.307
 1982SOL    HW2 1389   2.849   2.007   1.444
 1983SOL     OW 1390   2.842   2.978   1.719
 1983SOL    HW1 1391   2.743   2.984   1.729
 1983SOL    HW2 1392   2.865   2.898   1.663
 1985SOL     OW 1393   2.272   2.675   1.251
 1985SOL    HW1 1394   2.358   2.687   1.301
 1985SOL    HW2 1395   2.230   2.588   1.278
 1986SOL     OW 1396   3.136   2.248   1.262
 1986SOL    HW1 1397   3.157   2.322   1.326
 1986SOL    HW2 1398   3.047   2.265   1.219
 1987SOL     OW 1399   1.926   3.426   1.331
 1987SOL    HW1 1400   1.880   3.508   1.297
 1987SOL    HW2 1401   2.024   3.445   1.340
 1989SOL     OW 1402   2.428   2.399   0.865
 1989SOL    HW1 1403   2.440   2.465   0.791
 1989SOL    HW2 1404   2.474   2.433   0.948
 1991SOL     OW 1405   3.134   3.307   1.142
 1991SOL    HW1 1406   3.181   3.320   1.229
 1991SOL    HW2 1407   3.068   3.233   1.151
 1993SOL     OW 1408   2.216   3.372   1.329
 1993SOL    HW1 1409   2.195   3.328   1.242
 1993SOL    HW2 1410   2.313   3.398   1.332
 1994SOL     OW 1411   2.264   2.613   1.598
 1994SOL    HW1 1412   2.332   2.668   1.551
 1994SOL    HW2 1413   2.304   2.525   1.625
 1995SOL     OW 1414   3.449   2.641   1.670
 1995SOL    HW1 1415   3.357   2.679   1.665
 1995SOL    HW2 1416   3.509   2.688   1.605
 1996SOL     OW 1417   2.875   1.967   1.770
 1996SOL    HW1 1418   2.881   2.052   1.718
 1996SOL    HW2 1419   2.907   1.891   1.713
 1997SOL     OW 1420   2.366   1.912   1.740
 1997SOL    HW1 1421   2.324   1.855   1.670
 1997SOL    HW2 1422   2.300   1.981   1.772
 1998SOL     OW 1423   2.435   2.732   1.029
 1998SOL    HW1 1424   2.479   2.821   1.020
 1998SOL    HW2 1425   2.372   2.732   1.106
 1999SOL     OW 1426   3.222   2.724   1.045
 1999SOL    HW1 1427   3.147   2.724   0.979
 1999SOL    HW2 1428   3.259   2.632   1.054
 2001SOL     OW 1429   2.169   2.075   1.231
 2001SOL    HW1 1430   2.146   2.112   1.321
 2001SOL    HW2 1431   2.139   1.980   1.225
 2002SOL     OW 1432   1.899   3.172   1.282
 2002SOL    HW1 1433   1.952   3.123   1.350
 2002SOL    HW2 1434   1.921   3.270   1.287
 2003SOL     OW 1435   2.594   2.496   1.064
 2003SOL    HW1 1436   2.653   2.470   0.988
 2003SOL    HW2 1437   2.566   2.592   1.053
 2004SOL     OW 1438   3.590   2.797   1.854
 2004SOL    HW1 1439   3.544   2.790   1.765
 2004SOL    HW2 1440   3.528   2.841   1.920
 2007SOL     OW 1441   2.885   2.628   0.966
 2007SOL    HW1 1442   2.900   2.649   1.062
 2007SOL    HW2 1443   2.855   2.533   0.957
 2008SOL     OW 1444   2.842   3.435   1.700
 2008SOL    HW1 1445   2.822   3.479   1.612
 2008SOL    HW2 1446   2.881   3.344   1.684
 2010SOL     OW 1447   2.212   2.760   1.804
 2010SOL    HW1 1448   2.288   2.804   1.852
 2010SOL    HW2 1449   2.247   2.713   1.722
 2014SOL     OW 1450   2.181   2.672   0.949
 2014SOL    HW1 1451   2.274   2.708   0.954
 2014SOL    HW2 1452   2.175   2.587   1.001
 2015SOL     OW 1453   2.201   2.371   1.006
 2015SOL    HW1 1454   2.149   2.288   0.989
 2015SOL    HW2 1455   2.278   2.376   0.942
 2016SOL     OW 1456   3.000   2.242   1.678
 2016SOL    HW1 1457   2.955   2.305   1.742
 2016SOL    HW2 1458   3.093   2.273   1.661
 2017SOL     OW 1459   3.022   2.069   1.477
 2017SOL    HW1 1460   3.022   2.133   1.554
 2017SOL    HW2 1461   3.050   2.117   1.394
 2021SOL     OW 1462   2.864   2.658   1.238
 2021SOL    HW1 1463   2.905   2.626   1.324
 2021SOL    HW2 1464   2.768   2.631   1.235
 2022SOL     OW 1465   1.902   2.406   1.114
 2022SOL    HW1 1466   1.987   2.373   1.073
 2022SOL    HW2 1467   1.915   2.421   1.212
 2023SOL     OW 1468   2.051   2.382   1.722
 2023SOL    HW1 1469   2.110   2.342   1.652
 2023SOL    HW2 1470   1.993   2.453   1.681
 2024SOL     OW 1471   3.231   2.812   1.660
 2024SOL    HW1 1472   3.270   2.901   1.680
 2024SOL    HW2 1473   3.241   2.792   1.563
 2026SOL     OW 1474   3.519   2.466   1.206
 2026SOL    HW1 1475   3.481   2.397   1.268
 2026SOL    HW2 1476   3.601   2.430   1.162
 2027SOL     OW 1477   2.114   3.426   1.744
 2027SOL    HW1 1478   2.084   3.483   1.820
 2027SOL    HW2 1479   2.107   3.329   1.770
 2028SOL     OW 1480   2.533   2.326   1.269
 2028SOL    HW1 1481   2.499   2.237   1.239
 2028SOL    HW2 1482   2.559   2.380   1.189
 2029SOL     OW 1483   2.792   3.540   1.465
 2029SOL    HW1 1484   2.768   3.522   1.370
 2029SOL    HW2 1485   2.822   3.634   1.475
 2031SOL     OW 1486   2.021   2.999   1.466
 2031SOL    HW1 1487   2.043   2.938   1.542
 2031SOL    HW2 1488   2.031   2.950   1.380
 2032SOL     OW 1489   3.209   2.921   1.234
 2032SOL    HW1 1490   3.233   2.858   1.160
 2032SOL    HW2 1491   3.119   2.961   1.216
 2036SOL     OW 1492   1.945   3.120   1.022
 2036SOL    HW1 1493   1.940   3.119   1.122
 2036SOL    HW2 1494   1.862   3.079   0.984
 2037SOL     OW 1495   2.550   3.524   1.716
 2037SOL    HW1 1496   2.494   3.605   1.725
 2037SOL    HW2 1497   2.602   3.528   1.630
 2041SOL     OW 1498   1.992   3.656   1.851
 2041SOL    HW1 1499   1.951   3.582   1.904
 2041SOL    HW2 1500   2.056   3.707   1.909
 2043SOL     OW 1501   2.692   3.135   1.422
 2043SOL    HW1 1502   2.687   3.168   1.517
 2043SOL    HW2 1503   2.606   3.154   1.376
 2047SOL     OW 1504   2.125   2.188   0.720
 2047SOL    HW1 1505   2.046   2.239   0.686
 2047SOL    HW2 1506   2.116   2.173   0.818
 2049SOL     OW 1507   2.684   2.864   1.372
 2049SOL    HW1 1508   2.724   2.863   1.280
 2049SOL    HW2 1509   2.694   2.956   1.412
 2052SOL     OW 1510   2.234   3.150   1.490
 2052SOL    HW1 1511   2.221   3.243   1.456
 2052SOL    HW2 1512   2.150   3.098   1.477
 2053SOL     OW 1513   3.476   3.154   1.289
 2053SOL    HW1 1514   3.536   3.157   1.369
 2053SOL    HW2 1515   3.401   3.218   1.302
 2055SOL     OW 1516   2.876   2.098   0.971
 2055SOL    HW1 1517   2.868   2.062   0.878
 2055SOL    HW2 1518   2.874   2.022   1.036
 2057SOL     OW 1519   3.571   2.247   1.381
 2057SOL    HW1 1520   3.644   2.316   1.385
 2057SOL    HW2 1521   3.599   2.172   1.322
 2059SOL     OW 1522   1.967   2.875   1.726
 2059SOL    HW1 1523   1.890   2.842   1.780
 2059SOL    HW2 1524   2.052   2.845   1.768
 2060SOL     OW 1525   2.534   2.065   1.489
 2060SOL    HW1 1526   2.624   2.049   1.449
 2060SOL    HW2 1527   2.542   2.070   1.588
 2061SOL     OW 1528   3.302   2.718   1.398
 2061SOL    HW1 1529   3.245   2.770   1.335
 2061SOL    HW2 1530   3.398   2.730   1.374
 2064SOL     OW 1531   2.475   2.704   1.431
 2064SOL    HW1 1532   2.531   2.785   1.414
 2064SOL    HW2 1533   2.534   2.624   1.434
 2066SOL     OW 1534   2.578   2.427   1.708
 2066SOL    HW1 1535   2.597   2.492   1.782
 2066SOL    HW2 1536   2.638   2.347   1.717
 2067SOL     OW 1537   3.312   3.082   1.633
 2067SOL    HW1 1538   3.303   3.072   1.732
 2067SOL    HW2 1539   3.408   3.075   1.607
 2068SOL     OW 1540   2.252   3.603   1.560
 2068SOL    HW1 1541   2.161   3.644   1.558
 2068SOL    HW2 1542   2.245   3.509   1.592
 2069SOL     OW 1543   3.536   2.745   1.254
 2069SOL    HW1 1544   3.509   2.656   1.217
 2069SOL    HW2 1545   3.537   2.813   1.181
 2071SOL     OW 1546   2.456   2.607   0.652
 2071SOL    HW1 1547   2.506   2.692   0.633
 2071SOL    HW2 1548   2.368   2.609   0.604
 2072SOL     OW 1549   3.639   2.204   1.642
 2072SOL    HW1 1550   3.622   2.235   1.548
 2072SOL    HW2 1551   3.555   2.167   1.680
 2073SOL     OW 1552   3.592   2.796   1.517
 2073SOL    HW1 1553   3.630   2.887   1.532
 2073SOL    HW2 1554   3.584   2.779   1.418
 2076SOL     OW 1555   2.721   2.818   0.861
 2076SOL    HW1 1556   2.775   2.749   0.909
 2076SOL    HW2 1557   2.689   2.887   0.927
 2079SOL     OW 1558   2.083   3.176   1.844
 2079SOL    HW1 1559   2.018   3.103   1.823
 2079SOL    HW2 1560   2.087   3.190   1.942
 2081SOL     OW 1561   2.534   3.253   1.624
 2081SOL    HW1 1562   2.456   3.203   1.662
 2081SOL    HW2 1563   2.531   3.348   1.655
 2082SOL     OW 1564   3.686   2.054   1.227
 2082SOL    HW1 1565   3.682   1.964   1.271
 2082SOL    HW2 1566   3.689   2.043   1.128
 2085SOL     OW 1567   2.179   2.409   1.280
 2085SOL    HW1 1568   2.217   2.350   1.352
 2085SOL    HW2 1569   2.219   2.383   1.192
 2087SOL     OW 1570   3.286   2.076   1.112
 2087SOL    HW1 1571   3.338   2.011   1.167
 2087SOL    HW2 1572   3.237   2.139   1.173
 2088SOL     OW 1573   2.863   1.896   1.154
 2088SOL    HW1 1574   2.800   1.824   1.123
 2088SOL    HW2 1575   2.956   1.860   1.154
 2090SOL     OW 1576   2.480   3.429   1.284
 2090SOL    HW1 1577   2.475   3.511   1.341
 2090SOL    HW2 1578   2.569   3.426   1.239
 2096SOL     OW 1579   2.092   2.490   1.975
 2096SOL    HW1 1580   1.999   2.488   2.012
 2096SOL    HW2 1581   2.093   2.451   1.883
 2097SOL     OW 1582   2.087   2.137   2.858
 2097SOL    HW1 1583   2.122   2.120   2.950
 2097SOL    HW2 1584   1.999   2.092   2.846
 2098SOL     OW 1585   1.881   2.230   2.509
 2098SOL    HW1 1586   1.799   2.273   2.548
 2098SOL    HW2 1587   1.853   2.157   2.446
 2099SOL     OW 1588   2.431   3.137   3.027
 2099SOL    HW1 1589   2.338   3.130   2.990
 2099SOL    HW2 1590   2.442   3.226   3.071
 2100SOL     OW 1591   3.417   3.373   2.565
 2100SOL    HW1 1592   3.360   3.357   2.646
 2100SOL    HW2 1593   3.358   3.383   2.485
 2101SOL     OW 1594   2.997   2.565   2.579
 2101SOL    HW1 1595   3.054   2.643   2.554
 2101SOL    HW2 1596   2.937   2.591   2.655
 2102SOL     OW 1597   3.617   2.469   2.093
 2102SOL    HW1 1598   3.605   2.456   1.994
 2102SOL    HW2 1599   3.587   2.388   2.142
 2103SOL     OW 1600   2.630   3.006   2.885
 2103SOL    HW1 1601   2.552   3.023   2.945
 2103SOL    HW2 1602   2.664   3.093   2.849
 2104SOL     OW 1603   2.712   2.660   3.685
 2104SOL    HW1 1604   2.708   2.736   3.750
 2104SOL    HW2 1605   2.734   2.696   3.594
 2105SOL     OW 1606   2.547   2.874   2.527
 2105SOL    HW1 1607   2.616   2.858   2.597
 2105SOL    HW2 1608   2.474   2.931   2.565
 2106SOL     OW 1609   2.548   3.023   3.665
 2106SOL    HW1 1610   2.608   3.102   3.679
 2106SOL    HW2 1611   2.462   3.054   3.624
 2107SOL     OW 1612   2.197   3.297   2.923
 2107SOL    HW1 1613   2.119   3.266   2.870
 2107SOL    HW2 1614   2.255   3.355   2.866
 2108SOL     OW 1615   3.322   3.367   3.201
 2108SOL    HW1 1616   3.346   3.461   3.227
 2108SOL    HW2 1617   3.306   3.313   3.283
 2109SOL     OW 1618   2.300   2.254   3.361
 2109SOL    HW1 1619   2.382   2.198   3.370
 2109SOL    HW2 1620   2.219   2.196   3.365
 2110SOL     OW 1621   3.465   2.309   2.599
 2110SOL    HW1 1622   3.391   2.355   2.549
 2110SOL    HW2 1623   3.516   2.377   2.652
 2111SOL     OW 1624   2.093   3.575   2.345
 2111SOL    HW1 1625   2.127   3.652   2.399
 2111SOL    HW2 1626   2.137   3.575   2.255
 2112SOL     OW 1627   2.989   3.203   3.552
 2112SOL    HW1 1628   3.036   3.203   3.640
 2112SOL    HW2 1629   2.941   3.116   3.541
 2113SOL     OW 1630   2.092   3.296   2.400
 2113SOL    HW1 1631   2.066   3.392   2.400
 2113SOL    HW2 1632   2.021   3.242   2.445
 2114SOL     OW 1633   2.102   2.953   2.748
 2114SOL    HW1 1634   2.116   2.869   2.800
 2114SOL    HW2 1635   2.047   3.017   2.803
 2115SOL     OW 1636   2.482   3.648   3.301
 2115SOL    HW1 1637   2.390   3.631   3.336
 2115SOL    HW2 1638   2.510   3.740   3.327
 2116SOL     OW 1639   2.468   2.826   1.985
 2116SOL    HW1 1640   2.475   2.910   1.931
 2116SOL    HW2 1641   2.514   2.839   2.073
 2117SOL     OW 1642   3.456   1.976   3.342
 2117SOL    HW1 1643   3.438   2.043   3.270
 2117SOL    HW2 1644   3.453   2.022   3.431
 2118SOL     OW 1645   1.984   2.505   2.425
 2118SOL    HW1 1646   1.939   2.417   2.442
 2118SOL    HW2 1647   1.983   2.559   2.509
 2120SOL     OW 1648   1.889   3.458   1.979
 2120SOL    HW1 1649   1.870   3.362   2.000
 2120SOL    HW2 1650   1.856   3.516   2.054
 2121SOL     OW 1651   3.551   2.784   2.474
 2121SOL    HW1 1652   3.646   2.755   2.482
 2121SOL    HW2 1653   3.543   2.849   2.399
 2122SOL     OW 1654   3.503   2.970   2.294
 2122SOL    HW1 1655   3.589   2.972   2.242
 2122SOL    HW2 1656   3.517   3.017   2.382
 2123SOL     OW 1657   1.975   2.599   3.459
 2123SOL    HW1 1658   2.063   2.586   3.504
 2123SOL    HW2 1659   1.962   2.696   3.437
 2124SOL     OW 1660   2.475   3.227   2.588
 2124SOL    HW1 1661   2.426   3.140   2.597
 2124SOL    HW2 1662   2.452   3.270   2.501
 2125SOL     OW 1663   3.155   3.090   3.285
 2125SOL    HW1 1664   3.192   3.017   3.227
 2125SOL    HW2 1665   3.207   3.095   3.370
 2126SOL     OW 1666   2.671   1.866   2.364
 2126SOL    HW1 1667   2.711   1.957   2.355
 2126SOL    HW2 1668   2.571   1.874   2.370
 2127SOL     OW 1669   2.059   2.838   3.126
 2127SOL    HW1 1670   2.148   2.793   3.112
 2127SOL    HW2 1671   1.986   2.773   3.107
 2128SOL     OW 1672   3.387   2.861   2.052
 2128SOL    HW1 1673   3.324   2.785   2.065
 2128SOL    HW2 1674   3.435   2.879   2.138
 2130SOL     OW 1675   2.179   2.113   3.663
 2130SOL    HW1 1676   2.250   2.184   3.669
 2130SOL    HW2 1677   2.091   2.152   3.691
 2131SOL     OW 1678   3.328   3.279   2.815
 2131SOL    HW1 1679   3.269   3.285   2.895
 2131SOL    HW2 1680   3.313   3.191   2.769
 2132SOL     OW 1681   3.529   3.576   2.434
 2132SOL    HW1 1682   3.488   3.553   2.346
 2132SOL    HW2 1683   3.511   3.502   2.499
 2133SOL     OW 1684   3.143   2.207   2.806
 2133SOL    HW1 1685   3.057   2.157   2.793
 2133SOL    HW2 1686   3.205   2.153   2.862
 2134SOL     OW 1687   3.438   3.524   2.169
 2134SOL    HW1 1688   3.527   3.570   2.172
 2134SOL    HW2 1689   3.417   3.500   2.074
 2135SOL     OW 1690   2.669   2.467   3.327
 2135SOL    HW1 1691   2.622   2.464   3.416
 2135SOL    HW2 1692   2.618   2.412   3.261
 2136SOL     OW 1693   3.256   2.331   3.536
 2136SOL    HW1 1694   3.236   2.374   3.624
 2136SOL    HW2 1695   3.334   2.269   3.545
 2137SOL     OW 1696   2.835   2.752   3.434
 2137SOL    HW1 1697   2.881   2.668   3.405
 2137SOL    HW2 1698   2.779   2.786   3.359
 2138SOL     OW 1699   2.853   2.272   3.104
 2138SOL    HW1 1700   2.776   2.306   3.158
 2138SOL    HW2 1701   2.819   2.221   3.025
 2139SOL     OW 1702   2.903   2.563   2.291
 2139SOL    HW1 1703   2.929   2.559   2.387
 2139SOL    HW2 1704   2.818   2.512   2.277
 2140SOL     OW 1705   1.938   2.673   2.651
 2140SOL    HW1 1706   2.037   2.661   2.660
 2140SOL    HW2 1707   1.914   2.768   2.672
 2141SOL     OW 1708   1.992   3.683   3.433
 2141SOL    HW1 1709   1.982   3.668   3.532
 2141SOL    HW2 1710   1.906   3.719   3.397
 2142SOL     OW 1711   2.727   2.210   2.057
 2142SOL    HW1 1712   2.786   2.273   2.008
 2142SOL    HW2 1713   2.746   2.116   2.028
 2144SOL     OW 1714   3.224   3.006   2.407
 2144SOL    HW1 1715   3.307   2.977   2.359
 2144SOL    HW2 1716   3.175   3.073   2.351
 2145SOL     OW 1717   2.412   2.058   2.747
 2145SOL    HW1 1718   2.407   2.053   2.847
 2145SOL    HW2 1719   2.414   2.154   2.718
 2146SOL     OW 1720   2.870   3.318   2.339
 2146SOL    HW1 1721   2.824   3.390   2.287
 2146SOL    HW2 1722   2.866   3.338   2.437
 2147SOL     OW 1723   2.213   3.663   2.715
 2147SOL    HW1 1724   2.263   3.577   2.721
 2147SOL    HW2 1725   2.278   3.740   2.712
 2148SOL     OW 1726   3.657   2.928   2.735
 2148SOL    HW1 1727   3.595   2.913   2.659
 2148SOL    HW2 1728   3.605   2.939   2.820
 2149SOL     OW 1729   3.089   3.412   3.368
 2149SOL    HW1 1730   3.095   3.335   3.432
 2149SOL    HW2 1731   3.037   3.386   3.288
 2150SOL     OW 1732   2.183   2.805   2.104
 2150SOL    HW1 1733   2.265   2.844   2.062
 2150SOL    HW2 1734   2.156   2.723   2.055
 2151SOL     OW 1735   3.320   2.597   2.590
 2151SOL    HW1 1736   3.315   2.532   2.665
 2151SOL    HW2 1737   3.400   2.656   2.603
 2152SOL     OW 1738   2.323   3.128   3.589
 2152SOL    HW1 1739   2.273   3.129   3.503
 2152SOL    HW2 1740   2.260   3.110   3.665
 2153SOL     OW 1741   2.973   3.638   2.099
 2153SOL    HW1 1742   2.913   3.576   2.149
 2153SOL    HW2 1743   3.004   3.594   2.014
 2154SOL     OW 1744   2.064   2.147   3.360
 2154SOL    HW1 1745   1.984   2.207   3.347
 2154SOL    HW2 1746   2.054   2.098   3.446
 2155SOL     OW 1747   3.494   3.239   1.943
 2155SOL    HW1 1748   3.462   3.333   1.933
 2155SOL    HW2 1749   3.418   3.176   1.931
 2156SOL     OW 1750   2.326   3.605   2.185
 2156SOL    HW1 1751   2.359   3.644   2.271
 2156SOL    HW2 1752   2.402   3.598   2.120
 2157SOL     OW 1753   3.262   1.969   2.288
 2157SOL    HW1 1754   3.238   1.932   2.198
 2157SOL    HW2 1755   3.361   1.985   2.292
 2158SOL     OW 1756   2.111   3.647   3.103
 2158SOL    HW1 1757   2.168   3.582   3.153
 2158SOL    HW2 1758   2.095   3.614   3.010
 2159SOL     OW 1759   2.802   3.560   2.766
 2159SOL    HW1 1760   2.882   3.503   2.787
 2159SOL    HW2 1761   2.753   3.520   2.689
 2160SOL     OW 1762   3.409   2.084   3.591
 2160SOL    HW1 1763   3.404   2.121   3.683
 2160SOL    HW2 1764   3.337   2.015   3.579
 2161SOL     OW 1765   2.476   1.984   1.979
 2161SOL    HW1 1766   2.574   1.962   1.986
 2161SOL    HW2 1767   2.445   1.967   1.886
 2162SOL     OW 1768   2.643   2.126   3.611
 2162SOL    HW1 1769   2.710   2.065   3.654
 2162SOL    HW2 1770   2.570   2.145   3.676
 2163SOL     OW 1771   2.750   3.376   3.057
 2163SOL    HW1 1772   2.727   3.351   2.963
 2163SOL    HW2 1773   2.811   3.307   3.096
 2164SOL     OW 1774   3.213   2.452   3.295
 2164SOL    HW1 1775   3.241   2.409   3.380
 2164SOL    HW2 1776   3.238   2.548   3.296
 2165SOL     OW 1777   2.665   3.264   2.786
 2165SOL    HW1 1778   2.755   3.278   2.744
 2165SOL    HW2 1779   2.594   3.266   2.715
 2166SOL     OW 1780   2.784   2.365   2.761
 2166SOL    HW1 1781   2.759   2.356   2.665
 2166SOL    HW2 1782   2.832   2.283   2.792
 2167SOL     OW 1783   2.401   1.926   2.374
 2167SOL    HW1 1784   2.320   1.927   2.432
 2167SOL    HW2 1785   2.404   2.009   2.319
 2168SOL     OW 1786   3.296   3.050   1.903
 2168SOL    HW1 1787   3.328   2.974   1.960
 2168SOL    HW2 1788   3.204   3.077   1.933
 2169SOL     OW 1789   2.159   1.897   2.033
 2169SOL    HW1 1790   2.208   1.981   2.012
 2169SOL    HW2 1791   2.221   1.832   2.078
 2170SOL     OW 1792   2.797   2.098   2.342
 2170SOL    HW1 1793   2.749   2.139   2.264
 2170SOL    HW2 1794   2.896   2.096   2.323
 2171SOL     OW 1795   2.938   2.545   3.326
 2171SOL    HW1 1796   2.858   2.484   3.329
 2171SOL    HW2 1797   3.019   2.492   3.302
 2172SOL     OW 1798   3.089   3.432   2.655
 2172SOL    HW1 1799   3.110   3.506   2.590
 2172SOL    HW2 1800   3.157   3.432   2.728
 2173SOL     OW 1801   2.321   3.014   2.603
 2173SOL    HW1 1802   2.250   2.987   2.668
 2173SOL    HW2 1803   2.295   2.986   2.510
 2174SOL     OW 1804   3.133   3.659   2.453
 2174SOL    HW1 1805   3.177   3.723   2.389
 2174SOL    HW2 1806   3.083   3.711   2.523
 2175SOL     OW 1807   2.894   2.411   1.878
 2175SOL    HW1 1808   2.853   2.493   1.839
 2175SOL    HW2 1809   2.958   2.437   1.951
 2176SOL     OW 1810   1.940   2.418   3.248
 2176SOL    HW1 1811   2.032   2.417   3.207
 2176SOL    HW2 1812   1.934   2.492   3.315
 2177SOL     OW 1813   2.423   2.084   3.009
 2177SOL    HW1 1814   2.461   2.000   3.046
 2177SOL    HW2 1815   2.335   2.103   3.053
 2178SOL     OW 1816   2.728   2.316   2.504
 2178SOL    HW1 1817   2.696   2.388   2.442
 2178SOL    HW2 1818   2.752   2.235   2.451
 2179SOL     OW 1819   2.879   1.901   2.615
 2179SOL    HW1 1820   2.807   1.906   2.546
 2179SOL    HW2 1821   2.855   1.832   2.684
 2180SOL     OW 1822   3.291   3.035   2.729
 2180SOL    HW1 1823   3.236   2.951   2.722
 2180SOL    HW2 1824   3.317   3.064   2.637
 2181SOL     OW 1825   3.328   2.452   2.854
 2181SOL    HW1 1826   3.298   2.357   2.861
 2181SOL    HW2 1827   3.401   2.468   2.920
 2182SOL     OW 1828   3.719   2.695   2.239
 2182SOL    HW1 1829   3.761   2.631   2.303
 2182SOL    HW2 1830   3.681   2.644   2.161
 2183SOL     OW 1831   2.350   3.247   2.036
 2183SOL    HW1 1832   2.263   3.232   2.083
 2183SOL    HW2 1833   2.333   3.273   1.941
 2184SOL     OW 1834   3.526   3.142   2.519
 2184SOL    HW1 1835   3.625   3.150   2.533
 2184SOL    HW2 1836   3.481   3.226   2.550
 2185SOL     OW 1837   3.252   2.437   1.940
 2185SOL    HW1 1838   3.198   2.416   2.021
 2185SOL    HW2 1839   3.343   2.396   1.949
 2187SOL     OW 1840   2.926   3.209   3.202
 2187SOL    HW1 1841   2.846   3.186   3.257
 2187SOL    HW2 1842   3.009   3.183   3.251
 2189SOL     OW 1843   2.973   3.057   2.962
 2189SOL    HW1 1844   2.933   3.101   3.043
 2189SOL    HW2 1845   2.932   3.094   2.879
 2190SOL     OW 1846   3.500   2.961   2.941
 2190SOL    HW1 1847   3.505   3.042   3.000
 2190SOL    HW2 1848   3.414   2.963   2.890
 2191SOL     OW 1849   2.777   1.951   3.264
 2191SOL    HW1 1850   2.802   1.931   3.169
 2191SOL    HW2 1851   2.849   2.007   3.306
 2192SOL     OW 1852   2.842   2.978   3.581
 2192SOL    HW1 1853   2.743   2.984   3.591
 2192SOL    HW2 1854   2.865   2.898   3.525
 2193SOL     OW 1855   2.567   2.912   2.230
 2193SOL    HW1 1856   2.553   2.919   2.329
 2193SOL    HW2 1857   2.651   2.861   2.212
 2194SOL     OW 1858   2.272   2.675   3.113
 2194SOL    HW1 1859   2.358   2.687   3.163
 2194SOL    HW2 1860   2.230   2.588   3.140
 2195SOL     OW 1861   3.136   2.248   3.124
 2195SOL    HW1 1862   3.157   2.322   3.188
 2195SOL    HW2 1863   3.047   2.265   3.081
 2196SOL     OW 1864   1.926   3.426   3.193
 2196SOL    HW1 1865   1.880   3.508   3.159
 2196SOL    HW2 1866   2.024   3.445   3.202
 2197SOL     OW 1867   2.229   2.962   2.363
 2197SOL    HW1 1868   2.222   3.045   2.307
 2197SOL    HW2 1869   2.233   2.882   2.303
 2198SOL     OW 1870   2.428   2.399   2.727
 2198SOL    HW1 1871   2.440   2.465   2.653
 2198SOL    HW2 1872   2.474   2.433   2.810
 2199SOL     OW 1873   3.114   3.210   2.250
 2199SOL    HW1 1874   3.164   3.287   2.290
 2199SOL    HW2 1875   3.019   3.212   2.282
 2200SOL     OW 1876   3.134   3.307   3.004
 2200SOL    HW1 1877   3.181   3.320   3.091
 2200SOL    HW2 1878   3.068   3.233   3.013
 2201SOL     OW 1879   3.444   2.501   2.334
 2201SOL    HW1 1880   3.413   2.562   2.407
 2201SOL    HW2 1881   3.494   2.553   2.265
 2202SOL     OW 1882   2.216   3.372   3.191
 2202SOL    HW1 1883   2.195   3.328   3.104
 2202SOL    HW2 1884   2.313   3.398   3.194
 2203SOL     OW 1885   2.264   2.613   3.460
 2203SOL    HW1 1886   2.332   2.668   3.413
 2203SOL    HW2 1887   2.304   2.525   3.487
 2204SOL     OW 1888   3.449   2.641   3.532
 2204SOL    HW1 1889   3.357   2.679   3.527
 2204SOL    HW2 1890   3.509   2.688   3.467
 2205SOL     OW 1891   2.875   1.967   3.632
 2205SOL    HW1 1892   2.881   2.052   3.580
 2205SOL    HW2 1893   2.907   1.891   3.575
 2206SOL     OW 1894   2.366   1.912   3.602
 2206SOL    HW1 1895   2.324   1.855   3.532
 2206SOL    HW2 1896   2.300   1.981   3.634
 2207SOL     OW 1897   2.435   2.732   2.891
 2207SOL    HW1 1898   2.479   2.821   2.882
 2207SOL    HW2 1899   2.372   2.732   2.968
 2208SOL     OW 1900   3.222   2.724   2.907
 2208SOL    HW1 1901   3.147   2.724   2.841
 2208SOL    HW2 1902   3.259   2.632   2.916
 2209SOL     OW 1903   3.071   2.387   2.137
 2209SOL    HW1 1904   3.084   2.303   2.191
 2209SOL    HW2 1905   3.042   2.461   2.197
 2210SOL     OW 1906   2.169   2.075   3.093
 2210SOL    HW1 1907   2.146   2.112   3.183
 2210SOL    HW2 1908   2.139   1.980   3.087
 2211SOL     OW 1909   1.899   3.172   3.144
 2211SOL    HW1 1910   1.952   3.123   3.212
 2211SOL    HW2 1911   1.921   3.270   3.149
 2212SOL     OW 1912   2.594   2.496   2.926
 2212SOL    HW1 1913   2.653   2.470   2.850
 2212SOL    HW2 1914   2.566   2.592   2.915
 2214SOL     OW 1915   2.169   1.925   2.480
 2214SOL    HW1 1916   2.158   2.019   2.513
 2214SOL    HW2 1917   2.164   1.862   2.557
 2215SOL     OW 1918   3.484   2.229   2.236
 2215SOL    HW1 1919   3.486   2.153   2.300
 2215SOL    HW2 1920   3.436   2.306   2.276
 2216SOL     OW 1921   2.885   2.628   2.828
 2216SOL    HW1 1922   2.900   2.649   2.924
 2216SOL    HW2 1923   2.855   2.533   2.819
 2217SOL     OW 1924   2.842   3.435   3.562
 2217SOL    HW1 1925   2.822   3.479   3.474
 2217SOL    HW2 1926   2.881   3.344   3.546
 2219SOL     OW 1927   2.212   2.760   3.666
 2219SOL    HW1 1928   2.288   2.804   3.714
 2219SOL    HW2 1929   2.247   2.713   3.584
 2220SOL     OW 1930   3.402   2.136   1.987
 2220SOL    HW1 1931   3.341   2.061   2.010
 2220SOL    HW2 1932   3.424   2.188   2.070
 2221SOL     OW 1933   3.165   2.700   1.904
 2221SOL    HW1 1934   3.199   2.607   1.919
 2221SOL    HW2 1935   3.183   2.727   1.809
 2222SOL     OW 1936   2.930   3.195   2.711
 2222SOL    HW1 1937   2.937   3.111   2.656
 2222SOL    HW2 1938   2.992   3.264   2.675
 2223SOL     OW 1939   2.181   2.672   2.811
 2223SOL    HW1 1940   2.274   2.708   2.816
 2223SOL    HW2 1941   2.175   2.587   2.863
 2224SOL     OW 1942   2.201   2.371   2.868
 2224SOL    HW1 1943   2.149   2.288   2.851
 2224SOL    HW2 1944   2.278   2.376   2.804
 2225SOL     OW 1945   3.000   2.242   3.540
 2225SOL    HW1 1946   2.955   2.305   3.604
 2225SOL    HW2 1947   3.093   2.273   3.523
 2226SOL     OW 1948   3.022   2.069   3.339
 2226SOL    HW1 1949   3.022   2.133   3.416
 2226SOL    HW2 1950   3.050   2.117   3.256
 2227SOL     OW 1951   1.870   3.188   2.062
 2227SOL    HW1 1952   1.777   3.209   2.031
 2227SOL    HW2 1953   1.880   3.089   2.075
 2228SOL     OW 1954   1.950   3.663   2.789
 2228SOL    HW1 1955   1.908   3.577   2.762
 2228SOL    HW2 1956   2.044   3.666   2.755
 2229SOL     OW 1957   2.366   3.430   2.772
 2229SOL    HW1 1958   2.432   3.504   2.781
 2229SOL    HW2 1959   2.410   3.351   2.730
 2230SOL     OW 1960   2.864   2.658   3.100
 2230SOL    HW1 1961   2.905   2.626   3.186
 2230SOL    HW2 1962   2.768   2.631   3.097
 2231SOL     OW 1963   1.902   2.406   2.976
 2231SOL    HW1 1964   1.987   2.373   2.935
 2231SOL    HW2 1965   1.915   2.421   3.074
 2232SOL     OW 1966   2.051   2.382   3.584
 2232SOL    HW1 1967   2.110   2.342   3.514
 2232SOL    HW2 1968   1.993   2.453   3.543
 2233SOL     OW 1969   3.231   2.812   3.522
 2233SOL    HW1 1970   3.270   2.901   3.542
 2233SOL    HW2 1971   3.241   2.792   3.425
 2234SOL     OW 1972   3.519   2.466   3.068
 2234SOL    HW1 1973   3.481   2.397   3.130
 2234SOL    HW2 1974   3.601   2.430   3.024
 2235SOL     OW 1975   2.114   3.426   3.606
 2235SOL    HW1 1976   2.084   3.483   3.682
 2235SOL    HW2 1977   2.107   3.329   3.632
 2236SOL     OW 1978   2.533   2.326   3.131
 2236SOL    HW1 1979   2.499   2.237   3.101
 2236SOL    HW2 1980   2.559   2.380   3.051
 2237SOL     OW 1981   2.792   3.540   3.327
 2237SOL    HW1 1982   2.768   3.522   3.232
 2237SOL    HW2 1983   2.822   3.634   3.337
 2238SOL     OW 1984   2.021   2.999   3.328
 2238SOL    HW1 1985   2.043   2.938   3.404
 2238SOL    HW2 1986   2.031   2.950   3.242
 2239SOL     OW 1987   3.209   2.921   3.096
 2239SOL    HW1 1988   3.233   2.858   3.022
 2239SOL    HW2 1989   3.119   2.961   3.078
 2240SOL     OW 1990   3.164   2.717   2.171
 2240SOL    HW1 1991   3.078   2.686   2.213
 2240SOL    HW2 1992   3.160   2.703   2.072
 2242SOL     OW 1993   3.114   3.593   2.990
 2242SOL    HW1 1994   3.198   3.598   2.936
 2242SOL    HW2 1995   3.091   3.497   3.008
 2243SOL     OW 1996   1.945   3.120   2.884
 2243SOL    HW1 1997   1.940   3.119   2.984
 2243SOL    HW2 1998   1.862   3.079   2.846
 2244SOL     OW 1999   2.550   3.524   3.578
 2244SOL    HW1 2000   2.494   3.605   3.587
 2244SOL    HW2 2001   2.602   3.528   3.492
 2245SOL     OW 2002   3.588   1.997   2.385
 2245SOL    HW1 2003   3.661   1.980   2.318
 2245SOL    HW2 2004   3.557   1.910   2.423
 2246SOL     OW 2005   3.250   3.435   2.339
 2246SOL    HW1 2006   3.317   3.447   2.265
 2246SOL    HW2 2007   3.210   3.524   2.362
 2248SOL     OW 2008   3.142   2.789   2.534
 2248SOL    HW1 2009   3.202   2.708   2.536
 2248SOL    HW2 2010   3.182   2.858   2.474
 2249SOL     OW 2011   2.692   3.135   3.284
 2249SOL    HW1 2012   2.687   3.168   3.379
 2249SOL    HW2 2013   2.606   3.154   3.238
 2250SOL     OW 2014   2.534   3.478   2.016
 2250SOL    HW1 2015   2.543   3.488   1.917
 2250SOL    HW2 2016   2.494   3.389   2.037
 2252SOL     OW 2017   3.703   2.037   2.825
 2252SOL    HW1 2018   3.742   1.952   2.789
 2252SOL    HW2 2019   3.605   2.039   2.806
 2253SOL     OW 2020   3.056   3.474   1.893
 2253SOL    HW1 2021   3.062   3.381   1.930
 2253SOL    HW2 2022   2.997   3.474   1.813
 2254SOL     OW 2023   2.684   2.864   3.234
 2254SOL    HW1 2024   2.724   2.863   3.142
 2254SOL    HW2 2025   2.694   2.956   3.274
 2255SOL     OW 2026   2.778   2.772   2.153
 2255SOL    HW1 2027   2.841   2.810   2.085
 2255SOL    HW2 2028   2.818   2.689   2.192
 2256SOL     OW 2029   3.366   3.469   1.906
 2256SOL    HW1 2030   3.274   3.506   1.913
 2256SOL    HW2 2031   3.404   3.489   1.816
 2257SOL     OW 2032   2.234   3.150   3.352
 2257SOL    HW1 2033   2.221   3.243   3.318
 2257SOL    HW2 2034   2.150   3.098   3.339
 2258SOL     OW 2035   3.476   3.154   3.151
 2258SOL    HW1 2036   3.536   3.157   3.231
 2258SOL    HW2 2037   3.401   3.218   3.164
 2259SOL     OW 2038   2.901   2.960   2.558
 2259SOL    HW1 2039   2.831   2.913   2.612
 2259SOL    HW2 2040   2.960   2.892   2.515
 2260SOL     OW 2041   2.876   2.098   2.833
 2260SOL    HW1 2042   2.868   2.062   2.740
 2260SOL    HW2 2043   2.874   2.022   2.898
 2261SOL     OW 2044   2.452   3.349   2.353
 2261SOL    HW1 2045   2.494   3.291   2.283
 2261SOL    HW2 2046   2.408   3.428   2.309
 2262SOL     OW 2047   3.571   2.247   3.243
 2262SOL    HW1 2048   3.644   2.316   3.247
 2262SOL    HW2 2049   3.599   2.172   3.184
 2263SOL     OW 2050   2.117   3.210   2.152
 2263SOL    HW1 2051   2.021   3.211   2.125
 2263SOL    HW2 2052   2.129   3.263   2.236
 2264SOL     OW 2053   1.967   2.875   3.588
 2264SOL    HW1 2054   1.890   2.842   3.642
 2264SOL    HW2 2055   2.052   2.845   3.630
 2265SOL     OW 2056   2.534   2.065   3.351
 2265SOL    HW1 2057   2.624   2.049   3.311
 2265SOL    HW2 2058   2.542   2.070   3.450
 2266SOL     OW 2059   1.937   2.207   1.895
 2266SOL    HW1 2060   1.845   2.179   1.866
 2266SOL    HW2 2061   1.968   2.284   1.839
 2267SOL     OW 2062   3.302   2.718   3.260
 2267SOL    HW1 2063   3.245   2.770   3.197
 2267SOL    HW2 2064   3.398   2.730   3.236
 2268SOL     OW 2065   1.934   2.028   2.180
 2268SOL    HW1 2066   1.917   2.111   2.126
 2268SOL    HW2 2067   2.024   1.991   2.158
 2269SOL     OW 2068   3.045   3.197   1.981
 2269SOL    HW1 2069   2.946   3.186   1.983
 2269SOL    HW2 2070   3.079   3.212   2.074
 2270SOL     OW 2071   2.475   2.704   3.293
 2270SOL    HW1 2072   2.531   2.785   3.276
 2270SOL    HW2 2073   2.534   2.624   3.296
 2271SOL     OW 2074   3.355   3.629   2.821
 2271SOL    HW1 2075   3.388   3.693   2.752
 2271SOL    HW2 2076   3.421   3.623   2.896
 2272SOL     OW 2077   2.578   2.427   3.570
 2272SOL    HW1 2078   2.597   2.492   3.644
 2272SOL    HW2 2079   2.638   2.347   3.579
 2273SOL     OW 2080   3.312   3.082   3.495
 2273SOL    HW1 2081   3.303   3.072   3.594
 2273SOL    HW2 2082   3.408   3.075   3.469
 2274SOL     OW 2083   2.252   3.603   3.422
 2274SOL    HW1 2084   2.161   3.644   3.420
 2274SOL    HW2 2085   2.245   3.509   3.454
 2275SOL     OW 2086   3.536   2.745   3.116
 2275SOL    HW1 2087   3.509   2.656   3.079
 2275SOL    HW2 2088   3.537   2.813   3.043
 2276SOL     OW 2089   3.087   2.187   2.311
 2276SOL    HW1 2090   3.152   2.113   2.300
 2276SOL    HW2 2091   3.107   2.237   2.395
 2277SOL     OW 2092   3.639   2.204   3.504
 2277SOL    HW1 2093   3.622   2.235   3.410
 2277SOL    HW2 2094   3.555   2.167   3.542
 2278SOL     OW 2095   3.592   2.796   3.379
 2278SOL    HW1 2096   3.630   2.887   3.394
 2278SOL    HW2 2097   3.584   2.779   3.280
 2279SOL     OW 2098   2.721   3.236   1.878
 2279SOL    HW1 2099   2.675   3.251   1.966
 2279SOL    HW2 2100   2.765   3.321   1.848
 2280SOL     OW 2101   2.523   3.652   2.815
 2280SOL    HW1 2102   2.477   3.740   2.802
 2280SOL    HW2 2103   2.622   3.664   2.808
 2281SOL     OW 2104   2.721   2.818   2.723
 2281SOL    HW1 2105   2.775   2.749   2.771
 2281SOL    HW2 2106   2.689   2.887   2.789
 2282SOL     OW 2107   2.945   2.846   1.949
 2282SOL    HW1 2108   2.922   2.899   1.867
 2282SOL    HW2 2109   3.026   2.790   1.930
 2283SOL     OW 2110   3.723   3.431   2.713
 2283SOL    HW1 2111   3.652   3.419   2.643
 2283SOL    HW2 2112   3.724   3.352   2.773
 2284SOL     OW 2113   2.083   3.176   3.706
 2284SOL    HW1 2114   2.018   3.103   3.685
 2284SOL    HW2 2115   2.087   3.190   3.804
 2285SOL     OW 2116   1.941   3.102   2.515
 2285SOL    HW1 2117   1.940   3.055   2.603
 2285SOL    HW2 2118   2.023   3.074   2.464
 2286SOL     OW 2119   2.534   3.253   3.486
 2286SOL    HW1 2120   2.456   3.203   3.524
 2286SOL    HW2 2121   2.531   3.348   3.517
 2287SOL     OW 2122   3.686   2.054   3.089
 2287SOL    HW1 2123   3.682   1.964   3.133
 2287SOL    HW2 2124   3.689   2.043   2.990
 2288SOL     OW 2125   3.567   3.349   2.966
 2288SOL    HW1 2126   3.474   3.324   2.939
 2288SOL    HW2 2127   3.593   3.299   3.048
 2289SOL     OW 2128   2.179   2.409   3.142
 2289SOL    HW1 2129   2.217   2.350   3.214
 2289SOL    HW2 2130   2.219   2.383   3.054
 2290SOL     OW 2131   2.674   3.448   2.549
 2290SOL    HW1 2132   2.706   3.458   2.455
 2290SOL    HW2 2133   2.595   3.386   2.551
 2291SOL     OW 2134   3.286   2.076   2.974
 2291SOL    HW1 2135   3.338   2.011   3.029
 2291SOL    HW2 2136   3.237   2.139   3.035
 2292SOL     OW 2137   2.863   1.896   3.016
 2292SOL    HW1 2138   2.800   1.824   2.985
 2292SOL    HW2 2139   2.956   1.860   3.016
 2293SOL     OW 2140   2.632   3.192   2.163
 2293SOL    HW1 2141   2.586   3.105   2.180
 2293SOL    HW2 2142   2.723   3.189   2.204
 2294SOL     OW 2143   2.480   3.429   3.146
 2294SOL    HW1 2144   2.475   3.511   3.203
 2294SOL    HW2 2145   2.569   3.426   3.101
 2295SOL     OW 2146   3.214   1.914   2.030
 2295SOL    HW1 2147   3.249   1.873   1.946
 2295SOL    HW2 2148   3.124   1.876   2.050
 2296SOL     OW 2149   3.162   2.315   2.553
 2296SOL    HW1 2150   3.103   2.395   2.557
 2296SOL    HW2 2151   3.177   2.280   2.646
 2297SOL     OW 2152   3.455   2.083   2.744
 2297SOL    HW1 2153   3.371   2.082   2.798
 2297SOL    HW2 2154   3.457   2.166   2.688
 2298SOL     OW 2155   1.901   2.939   2.162
 2298SOL    HW1 2156   2.000   2.928   2.153
 2298SOL    HW2 2157   1.861   2.853   2.194
 2299SOL     OW 2158   2.737   3.508   2.199
 2299SOL    HW1 2159   2.660   3.473   2.145
 2299SOL    HW2 2160   2.705   3.579   2.261
 2300SOL     OW 2161   2.092   2.490   3.837
 2300SOL    HW1 2162   1.999   2.488   3.874
 2300SOL    HW2 2163   2.093   2.451   3.745
 2312SOL     OW 2164   2.468   2.826   3.847
 2312SOL    HW1 2165   2.475   2.910   3.793
 2312SOL    HW2 2166   2.514   2.839   3.935
 2323SOL     OW 2167   2.460   2.591   3.994
 2323SOL    HW1 2168   2.484   2.660   3.926
 2323SOL    HW2 2169   2.382   2.624   4.048
 2328SOL     OW 2170   2.727   2.210   3.919
 2328SOL    HW1 2171   2.786   2.273   3.870
 2328SOL    HW2 2172   2.746   2.116   3.890
 2334SOL     OW 2173   2.183   2.805   3.966
 2334SOL    HW1 2174   2.265   2.844   3.924
 2334SOL    HW2 2175   2.156   2.723   3.917
 2341SOL     OW 2176   2.476   1.984   3.841
 2341SOL    HW1 2177   2.574   1.962   3.848
 2341SOL    HW2 2178   2.445   1.967   3.748
 2344SOL     OW 2179   2.159   1.897   3.895
 2344SOL    HW1 2180   2.208   1.981   3.874
 2344SOL    HW2 2181   2.221   1.832   3.940
 2349SOL     OW 2182   2.894   2.411   3.740
 2349SOL    HW1 2183   2.853   2.493   3.701
 2349SOL    HW2 2184   2.958   2.437   3.813
 2354SOL     OW 2185   2.350   3.247   3.898
 2354SOL    HW1 2186   2.263   3.232   3.945
 2354SOL    HW2 2187   2.333   3.273   3.803
 2356SOL     OW 2188   3.252   2.437   3.802
 2356SOL    HW1 2189   3.198   2.416   3.883
 2356SOL    HW2 2190   3.343   2.396   3.811
 2357SOL     OW 2191   2.389   2.118   4.052
 2357SOL    HW1 2192   2.416   2.059   3.977
 2357SOL    HW2 2193   2.389   2.213   4.021
 2363SOL     OW 2194   3.071   2.387   3.999
 2363SOL    HW1 2195   3.084   2.303   4.053
 2363SOL    HW2 2196   3.042   2.461   4.059
 2368SOL     OW 2197   3.165   2.700   3.766
 2368SOL    HW1 2198   3.199   2.607   3.781
 2368SOL    HW2 2199   3.183   2.727   3.671
 2374SOL     OW 2200   2.677   2.434   4.049
 2374SOL    HW1 2201   2.684   2.345   4.003
 2374SOL    HW2 2202   2.583   2.468   4.041
 2375SOL     OW 2203   2.335   2.362   3.915
 2375SOL    HW1 2204   2.396   2.442   3.919
 2375SOL    HW2 2205   2.240   2.393   3.922
 2385SOL     OW 2206   2.778   2.772   4.015
 2385SOL    HW1 2207   2.841   2.810   3.947
 2385SOL    HW2 2208   2.818   2.689   4.054
 2390SOL     OW 2209   1.937   2.207   3.757
 2390SOL    HW1 2210   1.845   2.179   3.728
 2390SOL    HW2 2211   1.968   2.284   3.701
 2391SOL     OW 2212   1.934   2.028   4.042
 2391SOL    HW1 2213   1.917   2.111   3.988
 2391SOL    HW2 2214   2.024   1.991   4.020
 2396SOL     OW 2215   2.721   3.236   3.740
 2396SOL    HW1 2216   2.675   3.251   3.828
 2396SOL    HW2 2217   2.765   3.321   3.710
 2399SOL     OW 2218   2.945   2.846   3.811
 2399SOL    HW1 2219   2.922   2.899   3.729
 2399SOL    HW2 2220   3.026   2.790   3.792
 2426SOL     OW 2221   2.179   3.975   1.801
 2426SOL    HW1 2222   2.250   4.046   1.807
 2426SOL    HW2 2223   2.091   4.014   1.829
 2443SOL     OW 2224   2.643   3.988   1.749
 2443SOL    HW1 2225   2.710   3.927   1.792
 2443SOL    HW2 2226   2.570   4.007   1.814
 2460SOL     OW 2227   2.777   3.813   1.402
 2460SOL    HW1 2228   2.802   3.793   1.307
 2460SOL    HW2 2229   2.849   3.869   1.444
 2467SOL     OW 2230   2.875   3.829   1.770
 2467SOL    HW1 2231   2.881   3.914   1.718
 2467SOL    HW2 2232   2.907   3.753   1.713
 2468SOL     OW 2233   2.366   3.774   1.740
 2468SOL    HW1 2234   2.324   3.717   1.670
 2468SOL    HW2 2235   2.300   3.843   1.772
 2503SOL     OW 2236   2.534   3.927   1.489
 2503SOL    HW1 2237   2.624   3.911   1.449
 2503SOL    HW2 2238   2.542   3.932   1.588
 2522SOL     OW 2239   2.087   3.999   2.858
 2522SOL    HW1 2240   2.122   3.982   2.950
 2522SOL    HW2 2241   1.999   3.954   2.846
 2534SOL     OW 2242   2.671   3.728   2.364
 2534SOL    HW1 2243   2.711   3.819   2.355
 2534SOL    HW2 2244   2.571   3.736   2.370
 2546SOL     OW 2245   2.727   4.072   2.057
 2546SOL    HW1 2246   2.786   4.135   2.008
 2546SOL    HW2 2247   2.746   3.978   2.028
 2548SOL     OW 2248   2.412   3.920   2.747
 2548SOL    HW1 2249   2.407   3.915   2.847
 2548SOL    HW2 2250   2.414   4.016   2.718
 2551SOL     OW 2251   3.262   3.831   2.288
 2551SOL    HW1 2252   3.238   3.794   2.198
 2551SOL    HW2 2253   3.361   3.847   2.292
 2554SOL     OW 2254   2.476   3.846   1.979
 2554SOL    HW1 2255   2.574   3.824   1.986
 2554SOL    HW2 2256   2.445   3.829   1.886
 2558SOL     OW 2257   2.401   3.788   2.374
 2558SOL    HW1 2258   2.320   3.789   2.432
 2558SOL    HW2 2259   2.404   3.871   2.319
 2559SOL     OW 2260   2.159   3.759   2.033
 2559SOL    HW1 2261   2.208   3.843   2.012
 2559SOL    HW2 2262   2.221   3.694   2.078
 2560SOL     OW 2263   2.797   3.960   2.342
 2560SOL    HW1 2264   2.749   4.001   2.264
 2560SOL    HW2 2265   2.896   3.958   2.323
 2564SOL     OW 2266   2.423   3.946   3.009
 2564SOL    HW1 2267   2.461   3.862   3.046
 2564SOL    HW2 2268   2.335   3.965   3.053
 2566SOL     OW 2269   2.879   3.763   2.615
 2566SOL    HW1 2270   2.807   3.768   2.546
 2566SOL    HW2 2271   2.855   3.694   2.684
 2570SOL     OW 2272   2.389   3.980   2.190
 2570SOL    HW1 2273   2.416   3.921   2.115
 2570SOL    HW2 2274   2.389   4.075   2.159
 2572SOL     OW 2275   2.777   3.813   3.264
 2572SOL    HW1 2276   2.802   3.793   3.169
 2572SOL    HW2 2277   2.849   3.869   3.306
 2584SOL     OW 2278   2.169   3.937   3.093
 2584SOL    HW1 2279   2.146   3.974   3.183
 2584SOL    HW2 2280   2.139   3.842   3.087
 2587SOL     OW 2281   2.169   3.787   2.480
 2587SOL    HW1 2282   2.158   3.881   2.513
 2587SOL    HW2 2283   2.164   3.724   2.557
 2610SOL     OW 2284   2.125   4.050   2.582
 2610SOL    HW1 2285   2.046   4.101   2.548
 2610SOL    HW2 2286   2.116   4.035   2.680
 2612SOL     OW 2287   2.876   3.960   2.833
 2612SOL    HW1 2288   2.868   3.924   2.740
 2612SOL    HW2 2289   2.874   3.884   2.898
 2618SOL     OW 2290   1.934   3.890   2.180
 2618SOL    HW1 2291   1.917   3.973   2.126
 2618SOL    HW2 2292   2.024   3.853   2.158
 2627SOL     OW 2293   2.290   4.148   2.382
 2627SOL    HW1 2294   2.320   4.076   2.320
 2627SOL    HW2 2295   2.251   4.108   2.465
 2630SOL     OW 2296   2.863   3.758   3.016
 2630SOL    HW1 2297   2.800   3.686   2.985
 2630SOL    HW2 2298   2.956   3.722   3.016
 2631SOL     OW 2299   3.214   3.776   2.030
 2631SOL    HW1 2300   3.249   3.735   1.946
 2631SOL    HW2 2301   3.124   3.738   2.050
 2716SOL     OW 2302   3.854   1.821   1.571
 2716SOL    HW1 2303   3.844   1.806   1.670
 2716SOL    HW2 2304   3.768   1.857   1.535
 2773SOL     OW 2305   3.854   1.794   1.851
 2773SOL    HW1 2306   3.813   1.720   1.904
 2773SOL    HW2 2307   3.918   1.845   1.909
 2812SOL     OW 2308   3.955   1.713   2.345
 2812SOL    HW1 2309   3.989   1.790   2.399
 2812SOL    HW2 2310   3.999   1.713   2.255
 2818SOL     OW 2311   3.751   1.596   1.979
 2818SOL    HW1 2312   3.732   1.500   2.000
 2818SOL    HW2 2313   3.718   1.654   2.054
 2870SOL     OW 2314   3.732   1.326   2.062
 2870SOL    HW1 2315   3.639   1.347   2.031
 2870SOL    HW2 2316   3.742   1.227   2.075
 2871SOL     OW 2317   3.812   1.801   2.789
 2871SOL    HW1 2318   3.770   1.715   2.762
 2871SOL    HW2 2319   3.906   1.804   2.755
 2989SOL     OW 2320   3.837   2.599   1.597
 2989SOL    HW1 2321   3.925   2.586   1.642
 2989SOL    HW2 2322   3.824   2.696   1.575
 2993SOL     OW 2323   4.041   2.113   1.801
 2993SOL    HW1 2324   4.112   2.184   1.807
 2993SOL    HW2 2325   3.953   2.152   1.829
 3005SOL     OW 2326   3.926   2.147   1.498
 3005SOL    HW1 2327   3.846   2.207   1.485
 3005SOL    HW2 2328   3.916   2.098   1.584
 3016SOL     OW 2329   3.802   2.418   1.386
 3016SOL    HW1 2330   3.894   2.417   1.345
 3016SOL    HW2 2331   3.796   2.492   1.453
 3045SOL     OW 2332   3.913   2.382   1.722
 3045SOL    HW1 2333   3.972   2.342   1.652
 3045SOL    HW2 2334   3.855   2.453   1.681
 3063SOL     OW 2335   3.829   2.875   1.726
 3063SOL    HW1 2336   3.752   2.842   1.780
 3063SOL    HW2 2337   3.914   2.845   1.768
 3085SOL     OW 2338   3.954   2.490   1.975
 3085SOL    HW1 2339   3.861   2.488   2.012
 3085SOL    HW2 2340   3.955   2.451   1.883
 3086SOL     OW 2341   3.949   2.137   2.858
 3086SOL    HW1 2342   3.984   2.120   2.950
 3086SOL    HW2 2343   3.861   2.092   2.846
 3087SOL     OW 2344   3.743   2.230   2.509
 3087SOL    HW1 2345   3.661   2.273   2.548
 3087SOL    HW2 2346   3.715   2.157   2.446
 3097SOL     OW 2347   3.964   2.953   2.748
 3097SOL    HW1 2348   3.978   2.869   2.800
 3097SOL    HW2 2349   3.909   3.017   2.803
 3100SOL     OW 2350   3.846   2.505   2.425
 3100SOL    HW1 2351   3.801   2.417   2.442
 3100SOL    HW2 2352   3.845   2.559   2.509
 3105SOL     OW 2353   3.921   2.838   3.126
 3105SOL    HW1 2354   4.010   2.793   3.112
 3105SOL    HW2 2355   3.848   2.773   3.107
 3110SOL     OW 2356   3.800   2.673   2.651
 3110SOL    HW1 2357   3.899   2.661   2.660
 3110SOL    HW2 2358   3.776   2.768   2.672
 3116SOL     OW 2359   4.045   2.805   2.104
 3116SOL    HW1 2360   4.127   2.844   2.062
 3116SOL    HW2 2361   4.018   2.723   2.055
 3121SOL     OW 2362   4.106   2.562   2.342
 3121SOL    HW1 2363   4.151   2.472   2.339
 3121SOL    HW2 2364   4.012   2.551   2.375
 3127SOL     OW 2365   4.021   1.897   2.033
 3127SOL    HW1 2366   4.070   1.981   2.012
 3127SOL    HW2 2367   4.083   1.832   2.078
 3130SOL     OW 2368   3.802   2.418   3.248
 3130SOL    HW1 2369   3.894   2.417   3.207
 3130SOL    HW2 2370   3.796   2.492   3.315
 3146SOL     OW 2371   3.761   3.172   3.144
 3146SOL    HW1 2372   3.814   3.123   3.212
 3146SOL    HW2 2373   3.783   3.270   3.149
 3148SOL     OW 2374   4.031   1.925   2.480
 3148SOL    HW1 2375   4.020   2.019   2.513
 3148SOL    HW2 2376   4.026   1.862   2.557
 3152SOL     OW 2377   4.043   2.672   2.811
 3152SOL    HW1 2378   4.136   2.708   2.816
 3152SOL    HW2 2379   4.037   2.587   2.863
 3153SOL     OW 2380   4.063   2.371   2.868
 3153SOL    HW1 2381   4.011   2.288   2.851
 3153SOL    HW2 2382   4.140   2.376   2.804
 3154SOL     OW 2383   3.732   3.188   2.062
 3154SOL    HW1 2384   3.639   3.209   2.031
 3154SOL    HW2 2385   3.742   3.089   2.075
 3158SOL     OW 2386   3.764   2.406   2.976
 3158SOL    HW1 2387   3.849   2.373   2.935
 3158SOL    HW2 2388   3.777   2.421   3.074
 3165SOL     OW 2389   3.807   3.120   2.884
 3165SOL    HW1 2390   3.802   3.119   2.984
 3165SOL    HW2 2391   3.724   3.079   2.846
 3171SOL     OW 2392   3.987   2.188   2.582
 3171SOL    HW1 2393   3.908   2.239   2.548
 3171SOL    HW2 2394   3.978   2.173   2.680
 3178SOL     OW 2395   3.799   2.207   1.895
 3178SOL    HW1 2396   3.707   2.179   1.866
 3178SOL    HW2 2397   3.830   2.284   1.839
 3179SOL     OW 2398   3.796   2.028   2.180
 3179SOL    HW1 2399   3.779   2.111   2.126
 3179SOL    HW2 2400   3.886   1.991   2.158
 3188SOL     OW 2401   3.803   3.102   2.515
 3188SOL    HW1 2402   3.802   3.055   2.603
 3188SOL    HW2 2403   3.885   3.074   2.464
 3190SOL     OW 2404   4.152   2.286   2.382
 3190SOL    HW1 2405   4.182   2.214   2.320
 3190SOL    HW2 2406   4.113   2.246   2.465
 3196SOL     OW 2407   3.763   2.939   2.162
 3196SOL    HW1 2408   3.862   2.928   2.153
 3196SOL    HW2 2409   3.723   2.853   2.194
   4.72678   4.72678   4.72678
