; mobley_1944394_GMX.itp created by acpype (v: 2023.10.27) on Thu May 21 00:08:37 2026

[ atomtypes ]
;name   bond_type     mass     charge   ptype   sigma         epsilon       Amb
 ca       ca          0.00000  0.00000   A     3.31521e-01   4.13379e-01 ; 1.86  0.0988
 c3       c3          0.00000  0.00000   A     3.39771e-01   4.51035e-01 ; 1.91  0.1078
 n3       n3          0.00000  0.00000   A     3.36510e-01   3.58987e-01 ; 1.89  0.0858
 os       os          0.00000  0.00000   A     3.15610e-01   3.03758e-01 ; 1.77  0.0726
 ha       ha          0.00000  0.00000   A     2.62548e-01   6.73624e-02 ; 1.47  0.0161
 h1       h1          0.00000  0.00000   A     2.42200e-01   8.70272e-02 ; 1.36  0.0208

[ moleculetype ]
;name            nrexcl
 mobley_1944394   3

[ atoms ]
;   nr  type  resi  res  atom  cgnr     charge      mass       ; qtot   bond_type
     1   ca     1   MOL    C1    1    -0.126000     12.01000 ; qtot -0.126
     2   ca     1   MOL    C2    2    -0.126000     12.01000 ; qtot -0.252
     3   ca     1   MOL    C3    3    -0.132750     12.01000 ; qtot -0.385
     4   ca     1   MOL    C4    4    -0.132750     12.01000 ; qtot -0.518
     5   ca     1   MOL    C5    5    -0.132750     12.01000 ; qtot -0.650
     6   ca     1   MOL    C6    6    -0.132750     12.01000 ; qtot -0.783
     7   ca     1   MOL    C7    7    -0.111750     12.01000 ; qtot -0.895
     8   ca     1   MOL    C8    8    -0.111750     12.01000 ; qtot -1.007
     9   ca     1   MOL    C9    9    -0.111750     12.01000 ; qtot -1.118
    10   ca     1   MOL   C10   10    -0.111750     12.01000 ; qtot -1.230
    11   ca     1   MOL   C11   11    -0.096300     12.01000 ; qtot -1.326
    12   ca     1   MOL   C12   12    -0.096300     12.01000 ; qtot -1.423
    13   c3     1   MOL   C13   13     0.157600     12.01000 ; qtot -1.265
    14   c3     1   MOL   C14   14     0.157600     12.01000 ; qtot -1.107
    15   c3     1   MOL   C15   15     0.165800     12.01000 ; qtot -0.942
    16   c3     1   MOL   C16   16     0.126400     12.01000 ; qtot -0.815
    17   c3     1   MOL   C17   17     0.237700     12.01000 ; qtot -0.578
    18   n3     1   MOL    N1   18    -0.739600     14.01000 ; qtot -1.317
    19   os     1   MOL    O1   19    -0.423600     16.00000 ; qtot -1.741
    20   ha     1   MOL    H1   20     0.130500      1.00800 ; qtot -1.610
    21   ha     1   MOL    H2   21     0.130500      1.00800 ; qtot -1.480
    22   ha     1   MOL    H3   22     0.131000      1.00800 ; qtot -1.349
    23   ha     1   MOL    H4   23     0.131000      1.00800 ; qtot -1.218
    24   ha     1   MOL    H5   24     0.131000      1.00800 ; qtot -1.087
    25   ha     1   MOL    H6   25     0.131000      1.00800 ; qtot -0.956
    26   ha     1   MOL    H7   26     0.136750      1.00800 ; qtot -0.819
    27   ha     1   MOL    H8   27     0.136750      1.00800 ; qtot -0.682
    28   ha     1   MOL    H9   28     0.136750      1.00800 ; qtot -0.545
    29   ha     1   MOL   H10   29     0.136750      1.00800 ; qtot -0.409
    30   h1     1   MOL   H11   30     0.031700      1.00800 ; qtot -0.377
    31   h1     1   MOL   H12   31     0.031700      1.00800 ; qtot -0.345
    32   h1     1   MOL   H13   32     0.031700      1.00800 ; qtot -0.314
    33   h1     1   MOL   H14   33     0.031700      1.00800 ; qtot -0.282
    34   h1     1   MOL   H15   34     0.031700      1.00800 ; qtot -0.250
    35   h1     1   MOL   H16   35     0.031700      1.00800 ; qtot -0.219
    36   h1     1   MOL   H17   36     0.044200      1.00800 ; qtot -0.174
    37   h1     1   MOL   H18   37     0.044200      1.00800 ; qtot -0.130
    38   h1     1   MOL   H19   38     0.039700      1.00800 ; qtot -0.090
    39   h1     1   MOL   H20   39     0.039700      1.00800 ; qtot -0.051
    40   h1     1   MOL   H21   40     0.050700      1.00800 ; qtot -0.000

[ bonds ]
;   ai     aj funct   r             k
     1      3   1    1.3986e-01    2.9644e+05 ;     C1 - C3    
     1      4   1    1.3986e-01    2.9644e+05 ;     C1 - C4    
     1     20   1    1.0860e-01    3.0183e+05 ;     C1 - H1    
     2      5   1    1.3986e-01    2.9644e+05 ;     C2 - C5    
     2      6   1    1.3986e-01    2.9644e+05 ;     C2 - C6    
     2     21   1    1.0860e-01    3.0183e+05 ;     C2 - H2    
     3      7   1    1.3986e-01    2.9644e+05 ;     C3 - C7    
     3     22   1    1.0860e-01    3.0183e+05 ;     C3 - H3    
     4      8   1    1.3986e-01    2.9644e+05 ;     C4 - C8    
     4     23   1    1.0860e-01    3.0183e+05 ;     C4 - H4    
     5      9   1    1.3986e-01    2.9644e+05 ;     C5 - C9    
     5     24   1    1.0860e-01    3.0183e+05 ;     C5 - H5    
     6     10   1    1.3986e-01    2.9644e+05 ;     C6 - C10   
     6     25   1    1.0860e-01    3.0183e+05 ;     C6 - H6    
     7     11   1    1.3986e-01    2.9644e+05 ;     C7 - C11   
     7     26   1    1.0860e-01    3.0183e+05 ;     C7 - H7    
     8     11   1    1.3986e-01    2.9644e+05 ;     C8 - C11   
     8     27   1    1.0860e-01    3.0183e+05 ;     C8 - H8    
     9     12   1    1.3986e-01    2.9644e+05 ;     C9 - C12   
     9     28   1    1.0860e-01    3.0183e+05 ;     C9 - H9    
    10     12   1    1.3986e-01    2.9644e+05 ;    C10 - C12   
    10     29   1    1.0860e-01    3.0183e+05 ;    C10 - H10   
    11     17   1    1.5147e-01    2.0410e+05 ;    C11 - C17   
    12     17   1    1.5147e-01    2.0410e+05 ;    C12 - C17   
    13     18   1    1.4626e-01    2.1410e+05 ;    C13 - N1    
    13     30   1    1.0969e-01    2.8804e+05 ;    C13 - H11   
    13     31   1    1.0969e-01    2.8804e+05 ;    C13 - H12   
    13     32   1    1.0969e-01    2.8804e+05 ;    C13 - H13   
    14     18   1    1.4626e-01    2.1410e+05 ;    C14 - N1    
    14     33   1    1.0969e-01    2.8804e+05 ;    C14 - H14   
    14     34   1    1.0969e-01    2.8804e+05 ;    C14 - H15   
    14     35   1    1.0969e-01    2.8804e+05 ;    C14 - H16   
    15     16   1    1.5354e-01    1.9154e+05 ;    C15 - C16   
    15     18   1    1.4626e-01    2.1410e+05 ;    C15 - N1    
    15     36   1    1.0969e-01    2.8804e+05 ;    C15 - H17   
    15     37   1    1.0969e-01    2.8804e+05 ;    C15 - H18   
    16     19   1    1.4273e-01    2.3620e+05 ;    C16 - O1    
    16     38   1    1.0969e-01    2.8804e+05 ;    C16 - H19   
    16     39   1    1.0969e-01    2.8804e+05 ;    C16 - H20   
    17     19   1    1.4273e-01    2.3620e+05 ;    C17 - O1    
    17     40   1    1.0969e-01    2.8804e+05 ;    C17 - H21   

[ pairs ]
;   ai     aj    funct
     1     11      1 ;     C1 - C11   
     1     26      1 ;     C1 - H7    
     1     27      1 ;     C1 - H8    
     2     12      1 ;     C2 - C12   
     2     28      1 ;     C2 - H9    
     2     29      1 ;     C2 - H10   
     3      8      1 ;     C3 - C8    
     3     17      1 ;     C3 - C17   
     3     23      1 ;     C3 - H4    
     4      7      1 ;     C4 - C7    
     4     17      1 ;     C4 - C17   
     4     22      1 ;     C4 - H3    
     5     10      1 ;     C5 - C10   
     5     17      1 ;     C5 - C17   
     5     25      1 ;     C5 - H6    
     6      9      1 ;     C6 - C9    
     6     17      1 ;     C6 - C17   
     6     24      1 ;     C6 - H5    
     7     12      1 ;     C7 - C12   
     7     19      1 ;     C7 - O1    
     7     27      1 ;     C7 - H8    
     7     40      1 ;     C7 - H21   
     8     12      1 ;     C8 - C12   
     8     19      1 ;     C8 - O1    
     8     26      1 ;     C8 - H7    
     8     40      1 ;     C8 - H21   
     9     11      1 ;     C9 - C11   
     9     19      1 ;     C9 - O1    
     9     21      1 ;     C9 - H2    
     9     29      1 ;     C9 - H10   
     9     40      1 ;     C9 - H21   
    10     11      1 ;    C10 - C11   
    10     19      1 ;    C10 - O1    
    10     21      1 ;    C10 - H2    
    10     28      1 ;    C10 - H9    
    10     40      1 ;    C10 - H21   
    11     16      1 ;    C11 - C16   
    11     22      1 ;    C11 - H3    
    11     23      1 ;    C11 - H4    
    12     16      1 ;    C12 - C16   
    12     24      1 ;    C12 - H5    
    12     25      1 ;    C12 - H6    
    13     16      1 ;    C13 - C16   
    13     33      1 ;    C13 - H14   
    13     34      1 ;    C13 - H15   
    13     35      1 ;    C13 - H16   
    13     36      1 ;    C13 - H17   
    13     37      1 ;    C13 - H18   
    14     16      1 ;    C14 - C16   
    14     30      1 ;    C14 - H11   
    14     31      1 ;    C14 - H12   
    14     32      1 ;    C14 - H13   
    14     36      1 ;    C14 - H17   
    14     37      1 ;    C14 - H18   
    15     17      1 ;    C15 - C17   
    15     30      1 ;    C15 - H11   
    15     31      1 ;    C15 - H12   
    15     32      1 ;    C15 - H13   
    15     33      1 ;    C15 - H14   
    15     34      1 ;    C15 - H15   
    15     35      1 ;    C15 - H16   
    16     40      1 ;    C16 - H21   
    17     26      1 ;    C17 - H7    
    17     27      1 ;    C17 - H8    
    17     28      1 ;    C17 - H9    
    17     29      1 ;    C17 - H10   
    17     38      1 ;    C17 - H19   
    17     39      1 ;    C17 - H20   
    18     19      1 ;     N1 - O1    
    18     38      1 ;     N1 - H19   
    18     39      1 ;     N1 - H20   
    19     36      1 ;     O1 - H17   
    19     37      1 ;     O1 - H18   
    20      7      1 ;     H1 - C7    
    20      8      1 ;     H1 - C8    
    20     22      1 ;     H1 - H3    
    20     23      1 ;     H1 - H4    
    21     24      1 ;     H2 - H5    
    21     25      1 ;     H2 - H6    
    22     26      1 ;     H3 - H7    
    23     27      1 ;     H4 - H8    
    24     28      1 ;     H5 - H9    
    25     29      1 ;     H6 - H10   
    36     38      1 ;    H17 - H19   
    36     39      1 ;    H17 - H20   
    37     38      1 ;    H18 - H19   
    37     39      1 ;    H18 - H20   

[ angles ]
;   ai     aj     ak    funct   theta         cth
     1      3      7      1    1.2002e+02    5.3279e+02 ;     C1 - C3     - C7    
     1      3     22      1    1.1988e+02    3.7572e+02 ;     C1 - C3     - H3    
     1      4      8      1    1.2002e+02    5.3279e+02 ;     C1 - C4     - C8    
     1      4     23      1    1.1988e+02    3.7572e+02 ;     C1 - C4     - H4    
     2      5      9      1    1.2002e+02    5.3279e+02 ;     C2 - C5     - C9    
     2      5     24      1    1.1988e+02    3.7572e+02 ;     C2 - C5     - H5    
     2      6     10      1    1.2002e+02    5.3279e+02 ;     C2 - C6     - C10   
     2      6     25      1    1.1988e+02    3.7572e+02 ;     C2 - C6     - H6    
     3      1      4      1    1.2002e+02    5.3279e+02 ;     C3 - C1     - C4    
     3      1     20      1    1.1988e+02    3.7572e+02 ;     C3 - C1     - H1    
     3      7     11      1    1.2002e+02    5.3279e+02 ;     C3 - C7     - C11   
     3      7     26      1    1.1988e+02    3.7572e+02 ;     C3 - C7     - H7    
     4      1     20      1    1.1988e+02    3.7572e+02 ;     C4 - C1     - H1    
     4      8     11      1    1.2002e+02    5.3279e+02 ;     C4 - C8     - C11   
     4      8     27      1    1.1988e+02    3.7572e+02 ;     C4 - C8     - H8    
     5      2      6      1    1.2002e+02    5.3279e+02 ;     C5 - C2     - C6    
     5      2     21      1    1.1988e+02    3.7572e+02 ;     C5 - C2     - H2    
     5      9     12      1    1.2002e+02    5.3279e+02 ;     C5 - C9     - C12   
     5      9     28      1    1.1988e+02    3.7572e+02 ;     C5 - C9     - H9    
     6      2     21      1    1.1988e+02    3.7572e+02 ;     C6 - C2     - H2    
     6     10     12      1    1.2002e+02    5.3279e+02 ;     C6 - C10    - C12   
     6     10     29      1    1.1988e+02    3.7572e+02 ;     C6 - C10    - H10   
     7      3     22      1    1.1988e+02    3.7572e+02 ;     C7 - C3     - H3    
     7     11      8      1    1.2002e+02    5.3279e+02 ;     C7 - C11    - C8    
     7     11     17      1    1.2083e+02    5.0827e+02 ;     C7 - C11    - C17   
     8      4     23      1    1.1988e+02    3.7572e+02 ;     C8 - C4     - H4    
     8     11     17      1    1.2083e+02    5.0827e+02 ;     C8 - C11    - C17   
     9      5     24      1    1.1988e+02    3.7572e+02 ;     C9 - C5     - H5    
     9     12     10      1    1.2002e+02    5.3279e+02 ;     C9 - C12    - C10   
     9     12     17      1    1.2083e+02    5.0827e+02 ;     C9 - C12    - C17   
    10      6     25      1    1.1988e+02    3.7572e+02 ;    C10 - C6     - H6    
    10     12     17      1    1.2083e+02    5.0827e+02 ;    C10 - C12    - C17   
    11      7     26      1    1.1988e+02    3.7572e+02 ;    C11 - C7     - H7    
    11      8     27      1    1.1988e+02    3.7572e+02 ;    C11 - C8     - H8    
    11     17     12      1    1.1231e+02    5.0861e+02 ;    C11 - C17    - C12   
    11     17     19      1    1.0888e+02    6.4936e+02 ;    C11 - C17    - O1    
    11     17     40      1    1.0960e+02    3.6660e+02 ;    C11 - C17    - H21   
    12      9     28      1    1.1988e+02    3.7572e+02 ;    C12 - C9     - H9    
    12     10     29      1    1.1988e+02    3.7572e+02 ;    C12 - C10    - H10   
    12     17     19      1    1.0888e+02    6.4936e+02 ;    C12 - C17    - O1    
    12     17     40      1    1.0960e+02    3.6660e+02 ;    C12 - C17    - H21   
    13     18     14      1    1.1242e+02    6.5061e+02 ;    C13 - N1     - C14   
    13     18     15      1    1.1242e+02    6.5061e+02 ;    C13 - N1     - C15   
    14     18     15      1    1.1242e+02    6.5061e+02 ;    C14 - N1     - C15   
    15     16     19      1    1.0762e+02    6.4802e+02 ;    C15 - C16    - O1    
    15     16     38      1    1.0959e+02    3.6217e+02 ;    C15 - C16    - H19   
    15     16     39      1    1.0959e+02    3.6217e+02 ;    C15 - C16    - H20   
    16     15     18      1    1.1308e+02    5.4308e+02 ;    C16 - C15    - N1    
    16     15     36      1    1.0959e+02    3.6217e+02 ;    C16 - C15    - H17   
    16     15     37      1    1.0959e+02    3.6217e+02 ;    C16 - C15    - H18   
    16     19     17      1    1.1360e+02    7.3915e+02 ;    C16 - O1     - C17   
    18     13     30      1    1.1009e+02    4.0033e+02 ;     N1 - C13    - H11   
    18     13     31      1    1.1009e+02    4.0033e+02 ;     N1 - C13    - H12   
    18     13     32      1    1.1009e+02    4.0033e+02 ;     N1 - C13    - H13   
    18     14     33      1    1.1009e+02    4.0033e+02 ;     N1 - C14    - H14   
    18     14     34      1    1.1009e+02    4.0033e+02 ;     N1 - C14    - H15   
    18     14     35      1    1.1009e+02    4.0033e+02 ;     N1 - C14    - H16   
    18     15     36      1    1.1009e+02    4.0033e+02 ;     N1 - C15    - H17   
    18     15     37      1    1.1009e+02    4.0033e+02 ;     N1 - C15    - H18   
    19     16     38      1    1.1034e+02    4.7028e+02 ;     O1 - C16    - H19   
    19     16     39      1    1.1034e+02    4.7028e+02 ;     O1 - C16    - H20   
    19     17     40      1    1.1034e+02    4.7028e+02 ;     O1 - C17    - H21   
    30     13     31      1    1.0855e+02    2.9824e+02 ;    H11 - C13    - H12   
    30     13     32      1    1.0855e+02    2.9824e+02 ;    H11 - C13    - H13   
    31     13     32      1    1.0855e+02    2.9824e+02 ;    H12 - C13    - H13   
    33     14     34      1    1.0855e+02    2.9824e+02 ;    H14 - C14    - H15   
    33     14     35      1    1.0855e+02    2.9824e+02 ;    H14 - C14    - H16   
    34     14     35      1    1.0855e+02    2.9824e+02 ;    H15 - C14    - H16   
    36     15     37      1    1.0855e+02    2.9824e+02 ;    H17 - C15    - H18   
    38     16     39      1    1.0855e+02    2.9824e+02 ;    H19 - C16    - H20   

[ dihedrals ] ; propers
; for gromacs 4.5 or higher, using funct 9
;    i      j      k      l   func   phase     kd      pn
     1      3      7     11      9   180.00  15.16700   2 ;     C1-    C3-    C7-   C11
     1      3      7     26      9   180.00  15.16700   2 ;     C1-    C3-    C7-    H7
     1      4      8     11      9   180.00  15.16700   2 ;     C1-    C4-    C8-   C11
     1      4      8     27      9   180.00  15.16700   2 ;     C1-    C4-    C8-    H8
     2      5      9     12      9   180.00  15.16700   2 ;     C2-    C5-    C9-   C12
     2      5      9     28      9   180.00  15.16700   2 ;     C2-    C5-    C9-    H9
     2      6     10     12      9   180.00  15.16700   2 ;     C2-    C6-   C10-   C12
     2      6     10     29      9   180.00  15.16700   2 ;     C2-    C6-   C10-   H10
     3      1      4      8      9   180.00  15.16700   2 ;     C3-    C1-    C4-    C8
     3      1      4     23      9   180.00  15.16700   2 ;     C3-    C1-    C4-    H4
     3      7     11      8      9   180.00  15.16700   2 ;     C3-    C7-   C11-    C8
     3      7     11     17      9   180.00  15.16700   2 ;     C3-    C7-   C11-   C17
     4      1      3      7      9   180.00  15.16700   2 ;     C4-    C1-    C3-    C7
     4      1      3     22      9   180.00  15.16700   2 ;     C4-    C1-    C3-    H3
     4      8     11      7      9   180.00  15.16700   2 ;     C4-    C8-   C11-    C7
     4      8     11     17      9   180.00  15.16700   2 ;     C4-    C8-   C11-   C17
     5      2      6     10      9   180.00  15.16700   2 ;     C5-    C2-    C6-   C10
     5      2      6     25      9   180.00  15.16700   2 ;     C5-    C2-    C6-    H6
     5      9     12     10      9   180.00  15.16700   2 ;     C5-    C9-   C12-   C10
     5      9     12     17      9   180.00  15.16700   2 ;     C5-    C9-   C12-   C17
     6      2      5      9      9   180.00  15.16700   2 ;     C6-    C2-    C5-    C9
     6      2      5     24      9   180.00  15.16700   2 ;     C6-    C2-    C5-    H5
     6     10     12      9      9   180.00  15.16700   2 ;     C6-   C10-   C12-    C9
     6     10     12     17      9   180.00  15.16700   2 ;     C6-   C10-   C12-   C17
     7     11      8     27      9   180.00  15.16700   2 ;     C7-   C11-    C8-    H8
     7     11     17     12      9   180.00   0.00000   2 ;     C7-   C11-   C17-   C12
     7     11     17     19      9     0.00   0.00000   0 ;     C7-   C11-   C17-    O1
     7     11     17     40      9     0.00   0.00000   0 ;     C7-   C11-   C17-   H21
     8     11      7     26      9   180.00  15.16700   2 ;     C8-   C11-    C7-    H7
     8     11     17     12      9   180.00   0.00000   2 ;     C8-   C11-   C17-   C12
     8     11     17     19      9     0.00   0.00000   0 ;     C8-   C11-   C17-    O1
     8     11     17     40      9     0.00   0.00000   0 ;     C8-   C11-   C17-   H21
     9      5      2     21      9   180.00  15.16700   2 ;     C9-    C5-    C2-    H2
     9     12     10     29      9   180.00  15.16700   2 ;     C9-   C12-   C10-   H10
     9     12     17     11      9   180.00   0.00000   2 ;     C9-   C12-   C17-   C11
     9     12     17     19      9     0.00   0.00000   0 ;     C9-   C12-   C17-    O1
     9     12     17     40      9     0.00   0.00000   0 ;     C9-   C12-   C17-   H21
    10      6      2     21      9   180.00  15.16700   2 ;    C10-    C6-    C2-    H2
    10     12      9     28      9   180.00  15.16700   2 ;    C10-   C12-    C9-    H9
    10     12     17     11      9   180.00   0.00000   2 ;    C10-   C12-   C17-   C11
    10     12     17     19      9     0.00   0.00000   0 ;    C10-   C12-   C17-    O1
    10     12     17     40      9     0.00   0.00000   0 ;    C10-   C12-   C17-   H21
    11      7      3     22      9   180.00  15.16700   2 ;    C11-    C7-    C3-    H3
    11      8      4     23      9   180.00  15.16700   2 ;    C11-    C8-    C4-    H4
    11     17     19     16      9     0.00   1.60387   3 ;    C11-   C17-    O1-   C16
    12      9      5     24      9   180.00  15.16700   2 ;    C12-    C9-    C5-    H5
    12     10      6     25      9   180.00  15.16700   2 ;    C12-   C10-    C6-    H6
    12     17     19     16      9     0.00   1.60387   3 ;    C12-   C17-    O1-   C16
    13     18     14     33      9     0.00   0.94140   3 ;    C13-    N1-   C14-   H14
    13     18     14     34      9     0.00   0.94140   3 ;    C13-    N1-   C14-   H15
    13     18     14     35      9     0.00   0.94140   3 ;    C13-    N1-   C14-   H16
    13     18     15     16      9     0.00   3.05432   3 ;    C13-    N1-   C15-   C16
    13     18     15     36      9     0.00   0.94140   3 ;    C13-    N1-   C15-   H17
    13     18     15     37      9     0.00   0.94140   3 ;    C13-    N1-   C15-   H18
    14     18     13     30      9     0.00   0.94140   3 ;    C14-    N1-   C13-   H11
    14     18     13     31      9     0.00   0.94140   3 ;    C14-    N1-   C13-   H12
    14     18     13     32      9     0.00   0.94140   3 ;    C14-    N1-   C13-   H13
    14     18     15     16      9     0.00   3.05432   3 ;    C14-    N1-   C15-   C16
    14     18     15     36      9     0.00   0.94140   3 ;    C14-    N1-   C15-   H17
    14     18     15     37      9     0.00   0.94140   3 ;    C14-    N1-   C15-   H18
    15     16     19     17      9     0.00   0.33472   2 ;    C15-   C16-    O1-   C17
    15     16     19     17      9     0.00   3.13800   3 ;    C15-   C16-    O1-   C17
    15     16     19     17      9   180.00   3.68192   1 ;    C15-   C16-    O1-   C17
    15     18     13     30      9     0.00   0.94140   3 ;    C15-    N1-   C13-   H11
    15     18     13     31      9     0.00   0.94140   3 ;    C15-    N1-   C13-   H12
    15     18     13     32      9     0.00   0.94140   3 ;    C15-    N1-   C13-   H13
    15     18     14     33      9     0.00   0.94140   3 ;    C15-    N1-   C14-   H14
    15     18     14     34      9     0.00   0.94140   3 ;    C15-    N1-   C14-   H15
    15     18     14     35      9     0.00   0.94140   3 ;    C15-    N1-   C14-   H16
    16     19     17     40      9     0.00   1.41001   3 ;    C16-    O1-   C17-   H21
    17     11      7     26      9   180.00  15.16700   2 ;    C17-   C11-    C7-    H7
    17     11      8     27      9   180.00  15.16700   2 ;    C17-   C11-    C8-    H8
    17     12      9     28      9   180.00  15.16700   2 ;    C17-   C12-    C9-    H9
    17     12     10     29      9   180.00  15.16700   2 ;    C17-   C12-   C10-   H10
    17     19     16     38      9     0.00   1.41001   3 ;    C17-    O1-   C16-   H19
    17     19     16     39      9     0.00   1.41001   3 ;    C17-    O1-   C16-   H20
    18     15     16     19      9     0.00   0.65084   3 ;     N1-   C15-   C16-    O1
    18     15     16     38      9     0.00   0.65084   3 ;     N1-   C15-   C16-   H19
    18     15     16     39      9     0.00   0.65084   3 ;     N1-   C15-   C16-   H20
    19     16     15     36      9     0.00   0.00000   0 ;     O1-   C16-   C15-   H17
    19     16     15     36      9     0.00   1.04600   1 ;     O1-   C16-   C15-   H17
    19     16     15     37      9     0.00   0.00000   0 ;     O1-   C16-   C15-   H18
    19     16     15     37      9     0.00   1.04600   1 ;     O1-   C16-   C15-   H18
    20      1      3      7      9   180.00  15.16700   2 ;     H1-    C1-    C3-    C7
    20      1      3     22      9   180.00  15.16700   2 ;     H1-    C1-    C3-    H3
    20      1      4      8      9   180.00  15.16700   2 ;     H1-    C1-    C4-    C8
    20      1      4     23      9   180.00  15.16700   2 ;     H1-    C1-    C4-    H4
    21      2      5     24      9   180.00  15.16700   2 ;     H2-    C2-    C5-    H5
    21      2      6     25      9   180.00  15.16700   2 ;     H2-    C2-    C6-    H6
    22      3      7     26      9   180.00  15.16700   2 ;     H3-    C3-    C7-    H7
    23      4      8     27      9   180.00  15.16700   2 ;     H4-    C4-    C8-    H8
    24      5      9     28      9   180.00  15.16700   2 ;     H5-    C5-    C9-    H9
    25      6     10     29      9   180.00  15.16700   2 ;     H6-    C6-   C10-   H10
    36     15     16     38      9     0.00   0.65084   3 ;    H17-   C15-   C16-   H19
    36     15     16     39      9     0.00   0.65084   3 ;    H17-   C15-   C16-   H20
    37     15     16     38      9     0.00   0.65084   3 ;    H18-   C15-   C16-   H19
    37     15     16     39      9     0.00   0.65084   3 ;    H18-   C15-   C16-   H20

[ dihedrals ] ; impropers
; treated as propers in GROMACS to use correct AMBER analytical function
;    i      j      k      l   func   phase     kd      pn
     1      7      3     22      4   180.00   4.60240   2 ;     C1-    C7-    C3-    H3
     1      8      4     23      4   180.00   4.60240   2 ;     C1-    C8-    C4-    H4
     2      9      5     24      4   180.00   4.60240   2 ;     C2-    C9-    C5-    H5
     2     10      6     25      4   180.00   4.60240   2 ;     C2-   C10-    C6-    H6
     3     11      7     26      4   180.00   4.60240   2 ;     C3-   C11-    C7-    H7
     4     11      8     27      4   180.00   4.60240   2 ;     C4-   C11-    C8-    H8
     5      6      2     21      4   180.00   4.60240   2 ;     C5-    C6-    C2-    H2
     5     12      9     28      4   180.00   4.60240   2 ;     C5-   C12-    C9-    H9
     6     12     10     29      4   180.00   4.60240   2 ;     C6-   C12-   C10-   H10
     7      8     11     17      4   180.00   4.60240   2 ;     C7-    C8-   C11-   C17
    17      9     12     10      4   180.00   4.60240   2 ;    C17-    C9-   C12-   C10
    20      1      4      3      4   180.00   4.60240   2 ;     H1-    C1-    C4-    C3
