; mobley_6430250_GMX.top created by acpype (v: 2023.10.27) on Wed May 20 23:46:04 2026

[ defaults ]
; nbfunc        comb-rule       gen-pairs       fudgeLJ fudgeQQ
1               2               yes             0.5     0.8333333333

; Include mobley_6430250_GMX.itp topology
#include "mobley_6430250_GMX.itp"

; Ligand position restraints
#ifdef POSRES_LIG
#include "posre_mobley_6430250.itp"
#endif


#include "/home/carla/github/Solvation-openMM/DADES/common/SOL.TIP3P.itp"

[ system ]
mobley_6430250 in water

[ molecules ]
; Compound        nmols
 mobley_6430250   1     
SOL 794
