mobley_6727159_GMX.gro created by acpype (v: 2023.10.27) on Tue May 19 12:57:05 2026
 2424
    1MOL     C1    1   2.421   2.305   2.326
    1MOL     C2    2   2.296   2.240   2.267
    1MOL     N1    3   2.060   2.259   2.267
    1MOL     O1    4   1.962   2.319   2.310
    1MOL     O2    5   2.067   2.163   2.190
    1MOL     O3    6   2.439   2.434   2.269
    1MOL     O4    7   2.182   2.309   2.319
    1MOL     H1    8   2.509   2.245   2.302
    1MOL     H2    9   2.412   2.316   2.434
    1MOL     H3   10   2.293   2.135   2.298
    1MOL     H4   11   2.298   2.249   2.158
    1MOL     H5   12   2.516   2.475   2.313
   14SOL     OW   13   1.460   1.505   1.339
   14SOL    HW1   14   1.484   1.599   1.365
   14SOL    HW2   15   1.444   1.451   1.421
   18SOL     OW   16   1.127   1.341   1.690
   18SOL    HW1   17   1.174   1.341   1.778
   18SOL    HW2   18   1.079   1.254   1.679
   31SOL     OW   19   1.293   1.228   1.423
   31SOL    HW1   20   1.330   1.155   1.365
   31SOL    HW2   21   1.345   1.233   1.508
   35SOL     OW   22   1.187   1.792   1.616
   35SOL    HW1   23   1.211   1.852   1.540
   35SOL    HW2   24   1.194   1.697   1.586
   37SOL     OW   25   1.466   1.417   0.953
   37SOL    HW1   26   1.407   1.423   1.033
   37SOL    HW2   27   1.451   1.329   0.907
   56SOL     OW   28   1.227   1.550   1.506
   56SOL    HW1   29   1.233   1.473   1.570
   56SOL    HW2   30   1.175   1.524   1.426
   95SOL     OW   31   1.754   1.223   1.588
   95SOL    HW1   32   1.845   1.184   1.575
   95SOL    HW2   33   1.762   1.319   1.612
   97SOL     OW   34   1.592   1.629   1.625
   97SOL    HW1   35   1.619   1.663   1.535
   97SOL    HW2   36   1.671   1.591   1.671
  109SOL     OW   37   1.272   1.445   1.142
  109SOL    HW1   38   1.319   1.458   1.229
  109SOL    HW2   39   1.206   1.371   1.151
  113SOL     OW   40   1.587   0.779   1.670
  113SOL    HW1   41   1.495   0.817   1.665
  113SOL    HW2   42   1.647   0.826   1.605
  122SOL     OW   43   1.728   0.935   1.854
  122SOL    HW1   44   1.682   0.928   1.765
  122SOL    HW2   45   1.666   0.979   1.920
  126SOL     OW   46   0.980   1.573   1.700
  126SOL    HW1   47   0.960   1.617   1.612
  126SOL    HW2   48   1.019   1.482   1.684
  127SOL     OW   49   1.859   1.518   1.605
  127SOL    HW1   50   1.873   1.545   1.510
  127SOL    HW2   51   1.942   1.540   1.658
  142SOL     OW   52   1.369   0.950   1.660
  142SOL    HW1   53   1.408   1.039   1.680
  142SOL    HW2   54   1.379   0.930   1.563
  147SOL     OW   55   0.930   1.678   1.465
  147SOL    HW1   56   0.906   1.660   1.370
  147SOL    HW2   57   0.960   1.772   1.475
  152SOL     OW   58   1.759   1.747   1.154
  152SOL    HW1   59   1.820   1.777   1.081
  152SOL    HW2   60   1.721   1.658   1.132
  153SOL     OW   61   1.252   1.731   1.128
  153SOL    HW1   62   1.336   1.736   1.074
  153SOL    HW2   63   1.229   1.635   1.146
  163SOL     OW   64   1.650   1.720   1.394
  163SOL    HW1   65   1.703   1.730   1.310
  163SOL    HW2   66   1.623   1.810   1.428
  171SOL     OW   67   1.614   1.292   1.289
  171SOL    HW1   68   1.674   1.295   1.369
  171SOL    HW2   69   1.539   1.356   1.302
  184SOL     OW   70   1.493   1.767   0.959
  184SOL    HW1   71   1.526   1.831   0.890
  184SOL    HW2   72   1.559   1.761   1.034
  186SOL     OW   73   1.450   1.220   1.633
  186SOL    HW1   74   1.441   1.210   1.732
  186SOL    HW2   75   1.546   1.213   1.607
  192SOL     OW   76   1.730   0.934   1.517
  192SOL    HW1   77   1.768   1.025   1.532
  192SOL    HW2   78   1.722   0.917   1.418
  197SOL     OW   79   1.861   1.569   0.851
  197SOL    HW1   80   1.790   1.557   0.781
  197SOL    HW2   81   1.862   1.490   0.911
  203SOL     OW   82   1.705   1.487   1.104
  203SOL    HW1   83   1.612   1.462   1.077
  203SOL    HW2   84   1.731   1.437   1.186
  219SOL     OW   85   1.555   1.511   2.565
  219SOL    HW1   86   1.498   1.495   2.646
  219SOL    HW2   87   1.496   1.521   2.485
  221SOL     OW   88   1.755   0.607   2.093
  221SOL    HW1   89   1.743   0.594   1.994
  221SOL    HW2   90   1.725   0.526   2.142
  227SOL     OW   91   1.460   1.505   3.201
  227SOL    HW1   92   1.484   1.599   3.227
  227SOL    HW2   93   1.444   1.451   3.283
  238SOL     OW   94   1.842   1.767   2.221
  238SOL    HW1   95   1.896   1.738   2.301
  238SOL    HW2   96   1.872   1.857   2.192
  240SOL     OW   97   1.689   0.922   2.474
  240SOL    HW1   98   1.784   0.893   2.482
  240SOL    HW2   99   1.681   0.987   2.399
  241SOL     OW  100   1.641   1.108   2.294
  241SOL    HW1  101   1.727   1.110   2.242
  241SOL    HW2  102   1.655   1.155   2.382
  244SOL     OW  103   1.293   1.228   3.285
  244SOL    HW1  104   1.330   1.155   3.227
  244SOL    HW2  105   1.345   1.233   3.370
  247SOL     OW  106   1.525   0.999   2.052
  247SOL    HW1  107   1.462   0.923   2.065
  247SOL    HW2  108   1.573   1.017   2.138
  248SOL     OW  109   1.187   1.792   3.478
  248SOL    HW1  110   1.211   1.852   3.402
  248SOL    HW2  111   1.194   1.697   3.448
  250SOL     OW  112   1.466   1.417   2.815
  250SOL    HW1  113   1.407   1.423   2.895
  250SOL    HW2  114   1.451   1.329   2.769
  251SOL     OW  115   1.667   1.714   2.434
  251SOL    HW1  116   1.626   1.691   2.346
  251SOL    HW2  117   1.649   1.640   2.499
  254SOL     OW  118   1.576   1.662   2.169
  254SOL    HW1  119   1.665   1.708   2.172
  254SOL    HW2  120   1.555   1.638   2.074
  264SOL     OW  121   1.362   1.144   2.407
  264SOL    HW1  122   1.445   1.115   2.359
  264SOL    HW2  123   1.313   1.211   2.351
  266SOL     OW  124   1.008   1.456   2.339
  266SOL    HW1  125   0.962   1.528   2.287
  266SOL    HW2  126   1.004   1.476   2.437
  268SOL     OW  127   1.795   1.066   2.735
  268SOL    HW1  128   1.733   1.051   2.659
  268SOL    HW2  129   1.743   1.077   2.820
  269SOL     OW  130   1.227   1.550   3.368
  269SOL    HW1  131   1.233   1.473   3.432
  269SOL    HW2  132   1.175   1.524   3.288
  271SOL     OW  133   1.458   0.735   2.590
  271SOL    HW1  134   1.453   0.670   2.665
  271SOL    HW2  135   1.538   0.794   2.603
  273SOL     OW  136   1.111   1.776   2.099
  273SOL    HW1  137   1.051   1.714   2.149
  273SOL    HW2  138   1.142   1.732   2.014
  275SOL     OW  139   1.632   1.377   1.943
  275SOL    HW1  140   1.600   1.471   1.933
  275SOL    HW2  141   1.556   1.314   1.931
  279SOL     OW  142   0.940   1.698   2.766
  279SOL    HW1  143   1.020   1.641   2.787
  279SOL    HW2  144   0.891   1.658   2.689
  284SOL     OW  145   0.888   1.514   3.057
  284SOL    HW1  146   0.865   1.489   2.963
  284SOL    HW2  147   0.949   1.445   3.096
  286SOL     OW  148   0.803   1.402   2.786
  286SOL    HW1  149   0.893   1.416   2.744
  286SOL    HW2  150   0.732   1.404   2.715
  289SOL     OW  151   1.434   1.188   1.903
  289SOL    HW1  152   1.466   1.112   1.960
  289SOL    HW2  153   1.342   1.215   1.933
  293SOL     OW  154   1.227   1.570   2.655
  293SOL    HW1  155   1.248   1.644   2.590
  293SOL    HW2  156   1.295   1.570   2.728
  295SOL     OW  157   1.271   1.797   2.453
  295SOL    HW1  158   1.315   1.861   2.389
  295SOL    HW2  159   1.221   1.849   2.523
  301SOL     OW  160   1.429   1.173   2.729
  301SOL    HW1  161   1.374   1.089   2.722
  301SOL    HW2  162   1.455   1.202   2.637
  303SOL     OW  163   1.857   0.833   2.239
  303SOL    HW1  164   1.899   0.769   2.303
  303SOL    HW2  165   1.819   0.782   2.161
  305SOL     OW  166   1.664   1.280   2.519
  305SOL    HW1  167   1.763   1.288   2.533
  305SOL    HW2  168   1.619   1.364   2.550
  308SOL     OW  169   1.754   1.223   3.450
  308SOL    HW1  170   1.845   1.184   3.437
  308SOL    HW2  171   1.762   1.319   3.474
  309SOL     OW  172   1.064   1.347   3.202
  309SOL    HW1  173   0.984   1.324   3.257
  309SOL    HW2  174   1.147   1.321   3.251
  310SOL     OW  175   1.592   1.629   3.487
  310SOL    HW1  176   1.619   1.663   3.397
  310SOL    HW2  177   1.671   1.591   3.533
  311SOL     OW  178   1.111   1.195   2.962
  311SOL    HW1  179   1.071   1.239   3.043
  311SOL    HW2  180   1.070   1.232   2.879
  312SOL     OW  181   1.638   1.099   2.941
  312SOL    HW1  182   1.643   1.180   3.000
  312SOL    HW2  183   1.552   1.101   2.890
  321SOL     OW  184   1.252   1.348   2.250
  321SOL    HW1  185   1.302   1.425   2.290
  321SOL    HW2  186   1.157   1.350   2.282
  322SOL     OW  187   1.272   1.445   3.004
  322SOL    HW1  188   1.319   1.458   3.091
  322SOL    HW2  189   1.206   1.371   3.013
  323SOL     OW  190   1.582   0.639   2.334
  323SOL    HW1  191   1.551   0.700   2.407
  323SOL    HW2  192   1.632   0.691   2.265
  340SOL     OW  193   1.859   1.518   3.467
  340SOL    HW1  194   1.873   1.545   3.372
  340SOL    HW2  195   1.942   1.540   3.520
  343SOL     OW  196   1.303   0.838   1.904
  343SOL    HW1  197   1.337   0.745   1.919
  343SOL    HW2  198   1.321   0.865   1.809
  344SOL     OW  199   1.068   1.333   2.711
  344SOL    HW1  200   1.075   1.249   2.656
  344SOL    HW2  201   1.130   1.402   2.675
  363SOL     OW  202   1.347   1.059   3.096
  363SOL    HW1  203   1.371   0.996   3.022
  363SOL    HW2  204   1.257   1.099   3.078
  364SOL     OW  205   1.302   0.855   2.171
  364SOL    HW1  206   1.216   0.824   2.213
  364SOL    HW2  207   1.298   0.841   2.072
  365SOL     OW  208   1.759   1.747   3.016
  365SOL    HW1  209   1.820   1.777   2.943
  365SOL    HW2  210   1.721   1.658   2.994
  366SOL     OW  211   1.252   1.731   2.990
  366SOL    HW1  212   1.336   1.736   2.936
  366SOL    HW2  213   1.229   1.635   3.008
  370SOL     OW  214   1.388   1.573   2.339
  370SOL    HW1  215   1.455   1.585   2.265
  370SOL    HW2  216   1.348   1.662   2.362
  372SOL     OW  217   1.280   0.927   2.534
  372SOL    HW1  218   1.340   0.846   2.536
  372SOL    HW2  219   1.320   0.996   2.474
  374SOL     OW  220   0.672   1.616   2.016
  374SOL    HW1  221   0.681   1.626   1.917
  374SOL    HW2  222   0.632   1.527   2.037
  375SOL     OW  223   1.650   1.720   3.256
  375SOL    HW1  224   1.703   1.730   3.172
  375SOL    HW2  225   1.623   1.810   3.290
  378SOL     OW  226   1.194   1.612   1.893
  378SOL    HW1  227   1.200   1.519   1.930
  378SOL    HW2  228   1.135   1.612   1.813
  381SOL     OW  229   1.504   1.607   1.906
  381SOL    HW1  230   1.412   1.644   1.913
  381SOL    HW2  231   1.542   1.627   1.816
  383SOL     OW  232   1.614   1.292   3.151
  383SOL    HW1  233   1.674   1.295   3.231
  383SOL    HW2  234   1.539   1.356   3.164
  384SOL     OW  235   1.039   1.098   2.558
  384SOL    HW1  236   0.969   1.051   2.612
  384SOL    HW2  237   1.098   1.030   2.515
  394SOL     OW  238   1.183   1.335   1.981
  394SOL    HW1  239   1.084   1.324   1.983
  394SOL    HW2  240   1.217   1.350   2.074
  396SOL     OW  241   1.493   1.767   2.821
  396SOL    HW1  242   1.526   1.831   2.752
  396SOL    HW2  243   1.559   1.761   2.896
  400SOL     OW  244   1.674   0.883   3.116
  400SOL    HW1  245   1.647   0.794   3.079
  400SOL    HW2  246   1.675   0.951   3.043
  405SOL     OW  247   0.859   1.374   1.878
  405SOL    HW1  248   0.813   1.389   1.966
  405SOL    HW2  249   0.903   1.459   1.848
  406SOL     OW  250   0.661   1.790   2.815
  406SOL    HW1  251   0.615   1.878   2.802
  406SOL    HW2  252   0.760   1.802   2.808
  409SOL     OW  253   1.861   1.569   2.713
  409SOL    HW1  254   1.790   1.557   2.643
  409SOL    HW2  255   1.862   1.490   2.773
  415SOL     OW  256   1.705   1.487   2.966
  415SOL    HW1  257   1.612   1.462   2.939
  415SOL    HW2  258   1.731   1.437   3.048
  417SOL     OW  259   0.812   1.586   2.549
  417SOL    HW1  260   0.844   1.596   2.455
  417SOL    HW2  261   0.733   1.524   2.551
  420SOL     OW  262   0.770   1.330   2.163
  420SOL    HW1  263   0.724   1.243   2.180
  420SOL    HW2  264   0.861   1.327   2.204
  426SOL     OW  265   0.875   1.646   2.199
  426SOL    HW1  266   0.798   1.611   2.145
  426SOL    HW2  267   0.843   1.717   2.261
  530SOL     OW  268   0.850   2.660   1.823
  530SOL    HW1  269   0.846   2.736   1.888
  530SOL    HW2  270   0.872   2.696   1.732
  534SOL     OW  271   1.460   3.367   1.339
  534SOL    HW1  272   1.484   3.461   1.365
  534SOL    HW2  273   1.444   3.313   1.421
  536SOL     OW  274   1.603   2.309   0.737
  536SOL    HW1  275   1.529   2.355   0.687
  536SOL    HW2  276   1.654   2.377   0.790
  538SOL     OW  277   1.127   3.203   1.690
  538SOL    HW1  278   1.174   3.203   1.778
  538SOL    HW2  279   1.079   3.116   1.679
  543SOL     OW  280   1.594   1.976   1.480
  543SOL    HW1  281   1.576   2.043   1.408
  543SOL    HW2  282   1.591   2.022   1.569
  551SOL     OW  283   1.293   3.090   1.423
  551SOL    HW1  284   1.330   3.017   1.365
  551SOL    HW2  285   1.345   3.095   1.508
  560SOL     OW  286   1.281   2.207   0.944
  560SOL    HW1  287   1.195   2.157   0.931
  560SOL    HW2  288   1.343   2.153   1.000
  562SOL     OW  289   0.807   2.467   1.465
  562SOL    HW1  290   0.760   2.464   1.554
  562SOL    HW2  291   0.756   2.412   1.399
  563SOL     OW  292   1.394   2.331   1.674
  563SOL    HW1  293   1.374   2.374   1.762
  563SOL    HW2  294   1.472   2.269   1.683
  564SOL     OW  295   0.973   2.752   1.572
  564SOL    HW1  296   1.019   2.668   1.543
  564SOL    HW2  297   0.917   2.786   1.497
  565SOL     OW  298   0.991   2.272   1.242
  565SOL    HW1  299   0.914   2.306   1.296
  565SOL    HW2  300   0.957   2.221   1.163
  570SOL     OW  301   1.719   2.447   1.831
  570SOL    HW1  302   1.693   2.536   1.795
  570SOL    HW2  303   1.717   2.379   1.758
  575SOL     OW  304   1.795   2.928   0.873
  575SOL    HW1  305   1.733   2.913   0.797
  575SOL    HW2  306   1.743   2.939   0.958
  576SOL     OW  307   1.227   3.412   1.506
  576SOL    HW1  308   1.233   3.335   1.570
  576SOL    HW2  309   1.175   3.386   1.426
  578SOL     OW  310   1.458   2.597   0.728
  578SOL    HW1  311   1.453   2.532   0.803
  578SOL    HW2  312   1.538   2.656   0.741
  588SOL     OW  313   1.547   2.084   1.729
  588SOL    HW1  314   1.542   2.121   1.821
  588SOL    HW2  315   1.475   2.015   1.717
  589SOL     OW  316   0.781   2.126   1.749
  589SOL    HW1  317   0.848   2.065   1.792
  589SOL    HW2  318   0.708   2.145   1.814
  591SOL     OW  319   1.351   2.452   1.433
  591SOL    HW1  320   1.379   2.409   1.518
  591SOL    HW2  321   1.376   2.548   1.434
  598SOL     OW  322   1.076   2.545   1.464
  598SOL    HW1  323   0.996   2.484   1.467
  598SOL    HW2  324   1.157   2.492   1.440
  608SOL     OW  325   1.466   2.452   0.992
  608SOL    HW1  326   1.436   2.357   0.999
  608SOL    HW2  327   1.539   2.468   1.058
  614SOL     OW  328   1.754   3.085   1.588
  614SOL    HW1  329   1.845   3.046   1.575
  614SOL    HW2  330   1.762   3.181   1.612
  616SOL     OW  331   1.592   3.491   1.625
  616SOL    HW1  332   1.619   3.525   1.535
  616SOL    HW2  333   1.671   3.453   1.671
  618SOL     OW  334   1.638   2.961   1.079
  618SOL    HW1  335   1.643   3.042   1.138
  618SOL    HW2  336   1.552   2.963   1.028
  619SOL     OW  337   0.915   1.951   1.402
  619SOL    HW1  338   0.940   1.931   1.307
  619SOL    HW2  339   0.987   2.007   1.444
  620SOL     OW  340   0.980   2.978   1.719
  620SOL    HW1  341   0.881   2.984   1.729
  620SOL    HW2  342   1.003   2.898   1.663
  623SOL     OW  343   1.274   2.248   1.262
  623SOL    HW1  344   1.295   2.322   1.326
  623SOL    HW2  345   1.185   2.265   1.219
  632SOL     OW  346   1.587   2.641   1.670
  632SOL    HW1  347   1.495   2.679   1.665
  632SOL    HW2  348   1.647   2.688   1.605
  633SOL     OW  349   1.013   1.967   1.770
  633SOL    HW1  350   1.019   2.052   1.718
  633SOL    HW2  351   1.045   1.891   1.713
  636SOL     OW  352   1.360   2.724   1.045
  636SOL    HW1  353   1.285   2.724   0.979
  636SOL    HW2  354   1.397   2.632   1.054
  641SOL     OW  355   1.728   2.797   1.854
  641SOL    HW1  356   1.682   2.790   1.765
  641SOL    HW2  357   1.666   2.841   1.920
  646SOL     OW  358   1.859   3.380   1.605
  646SOL    HW1  359   1.873   3.407   1.510
  646SOL    HW2  360   1.942   3.402   1.658
  653SOL     OW  361   1.138   2.242   1.678
  653SOL    HW1  362   1.093   2.305   1.742
  653SOL    HW2  363   1.231   2.273   1.661
  654SOL     OW  364   1.160   2.069   1.477
  654SOL    HW1  365   1.160   2.133   1.554
  654SOL    HW2  366   1.188   2.117   1.394
  658SOL     OW  367   1.002   2.658   1.238
  658SOL    HW1  368   1.043   2.626   1.324
  658SOL    HW2  369   0.906   2.631   1.235
  661SOL     OW  370   1.369   2.812   1.660
  661SOL    HW1  371   1.408   2.901   1.680
  661SOL    HW2  372   1.379   2.792   1.563
  663SOL     OW  373   1.657   2.466   1.206
  663SOL    HW1  374   1.619   2.397   1.268
  663SOL    HW2  375   1.739   2.430   1.162
  669SOL     OW  376   1.347   2.921   1.234
  669SOL    HW1  377   1.371   2.858   1.160
  669SOL    HW2  378   1.257   2.961   1.216
  682SOL     OW  379   1.650   3.582   1.394
  682SOL    HW1  380   1.703   3.592   1.310
  682SOL    HW2  381   1.623   3.672   1.428
  683SOL     OW  382   1.841   2.037   0.963
  683SOL    HW1  383   1.880   1.952   0.927
  683SOL    HW2  384   1.743   2.039   0.944
  690SOL     OW  385   1.614   3.154   1.289
  690SOL    HW1  386   1.674   3.157   1.369
  690SOL    HW2  387   1.539   3.218   1.302
  694SOL     OW  388   1.709   2.247   1.381
  694SOL    HW1  389   1.782   2.316   1.385
  694SOL    HW2  390   1.737   2.172   1.322
  699SOL     OW  391   1.440   2.718   1.398
  699SOL    HW1  392   1.383   2.770   1.335
  699SOL    HW2  393   1.536   2.730   1.374
  704SOL     OW  394   0.716   2.427   1.708
  704SOL    HW1  395   0.735   2.492   1.782
  704SOL    HW2  396   0.776   2.347   1.717
  705SOL     OW  397   1.450   3.082   1.633
  705SOL    HW1  398   1.441   3.072   1.732
  705SOL    HW2  399   1.546   3.075   1.607
  707SOL     OW  400   1.674   2.745   1.254
  707SOL    HW1  401   1.647   2.656   1.217
  707SOL    HW2  402   1.675   2.813   1.181
  710SOL     OW  403   1.777   2.204   1.642
  710SOL    HW1  404   1.760   2.235   1.548
  710SOL    HW2  405   1.693   2.167   1.680
  711SOL     OW  406   1.730   2.796   1.517
  711SOL    HW1  407   1.768   2.887   1.532
  711SOL    HW2  408   1.722   2.779   1.418
  720SOL     OW  409   1.824   2.054   1.227
  720SOL    HW1  410   1.820   1.964   1.271
  720SOL    HW2  411   1.827   2.043   1.128
  722SOL     OW  412   1.705   3.349   1.104
  722SOL    HW1  413   1.612   3.324   1.077
  722SOL    HW2  414   1.731   3.299   1.186
  725SOL     OW  415   1.424   2.076   1.112
  725SOL    HW1  416   1.476   2.011   1.167
  725SOL    HW2  417   1.375   2.139   1.173
  726SOL     OW  418   1.001   1.896   1.154
  726SOL    HW1  419   0.938   1.824   1.123
  726SOL    HW2  420   1.094   1.860   1.154
  731SOL     OW  421   1.593   2.083   0.882
  731SOL    HW1  422   1.509   2.082   0.936
  731SOL    HW2  423   1.595   2.166   0.826
  738SOL     OW  424   1.555   3.373   2.565
  738SOL    HW1  425   1.498   3.357   2.646
  738SOL    HW2  426   1.496   3.383   2.485
  739SOL     OW  427   1.135   2.565   2.579
  739SOL    HW1  428   1.192   2.643   2.554
  739SOL    HW2  429   1.075   2.591   2.655
  740SOL     OW  430   1.755   2.469   2.093
  740SOL    HW1  431   1.743   2.456   1.994
  740SOL    HW2  432   1.725   2.388   2.142
  741SOL     OW  433   0.768   3.006   2.885
  741SOL    HW1  434   0.690   3.023   2.945
  741SOL    HW2  435   0.802   3.093   2.849
  743SOL     OW  436   0.685   2.874   2.527
  743SOL    HW1  437   0.754   2.858   2.597
  743SOL    HW2  438   0.612   2.931   2.565
  746SOL     OW  439   1.460   3.367   3.201
  746SOL    HW1  440   1.484   3.461   3.227
  746SOL    HW2  441   1.444   3.313   3.283
  748SOL     OW  442   1.603   2.309   2.599
  748SOL    HW1  443   1.529   2.355   2.549
  748SOL    HW2  444   1.654   2.377   2.652
  754SOL     OW  445   0.606   2.826   1.985
  754SOL    HW1  446   0.613   2.910   1.931
  754SOL    HW2  447   0.652   2.839   2.073
  755SOL     OW  448   1.594   1.976   3.342
  755SOL    HW1  449   1.576   2.043   3.270
  755SOL    HW2  450   1.591   2.022   3.431
  757SOL     OW  451   1.842   3.629   2.221
  757SOL    HW1  452   1.896   3.600   2.301
  757SOL    HW2  453   1.872   3.719   2.192
  759SOL     OW  454   1.689   2.784   2.474
  759SOL    HW1  455   1.784   2.755   2.482
  759SOL    HW2  456   1.681   2.849   2.399
  760SOL     OW  457   1.641   2.970   2.294
  760SOL    HW1  458   1.727   2.972   2.242
  760SOL    HW2  459   1.655   3.017   2.382
  763SOL     OW  460   1.293   3.090   3.285
  763SOL    HW1  461   1.330   3.017   3.227
  763SOL    HW2  462   1.345   3.095   3.370
  764SOL     OW  463   0.809   1.866   2.364
  764SOL    HW1  464   0.849   1.957   2.355
  764SOL    HW2  465   0.709   1.874   2.370
  766SOL     OW  466   1.525   2.861   2.052
  766SOL    HW1  467   1.462   2.785   2.065
  766SOL    HW2  468   1.573   2.879   2.138
  769SOL     OW  469   1.466   3.279   2.815
  769SOL    HW1  470   1.407   3.285   2.895
  769SOL    HW2  471   1.451   3.191   2.769
  770SOL     OW  472   1.667   3.576   2.434
  770SOL    HW1  473   1.626   3.553   2.346
  770SOL    HW2  474   1.649   3.502   2.499
  771SOL     OW  475   0.598   2.591   2.132
  771SOL    HW1  476   0.622   2.660   2.064
  771SOL    HW2  477   0.520   2.624   2.186
  772SOL     OW  478   1.281   2.207   2.806
  772SOL    HW1  479   1.195   2.157   2.793
  772SOL    HW2  480   1.343   2.153   2.862
  773SOL     OW  481   1.576   3.524   2.169
  773SOL    HW1  482   1.665   3.570   2.172
  773SOL    HW2  483   1.555   3.500   2.074
  775SOL     OW  484   1.394   2.331   3.536
  775SOL    HW1  485   1.374   2.374   3.624
  775SOL    HW2  486   1.472   2.269   3.545
  777SOL     OW  487   0.991   2.272   3.104
  777SOL    HW1  488   0.914   2.306   3.158
  777SOL    HW2  489   0.957   2.221   3.025
  778SOL     OW  490   1.041   2.563   2.291
  778SOL    HW1  491   1.067   2.559   2.387
  778SOL    HW2  492   0.956   2.512   2.277
  781SOL     OW  493   0.865   2.210   2.057
  781SOL    HW1  494   0.924   2.273   2.008
  781SOL    HW2  495   0.884   2.116   2.028
  782SOL     OW  496   1.719   2.447   3.693
  782SOL    HW1  497   1.693   2.536   3.657
  782SOL    HW2  498   1.717   2.379   3.620
  783SOL     OW  499   1.362   3.006   2.407
  783SOL    HW1  500   1.445   2.977   2.359
  783SOL    HW2  501   1.313   3.073   2.351
  785SOL     OW  502   1.008   3.318   2.339
  785SOL    HW1  503   0.962   3.390   2.287
  785SOL    HW2  504   1.004   3.338   2.437
  787SOL     OW  505   1.795   2.928   2.735
  787SOL    HW1  506   1.733   2.913   2.659
  787SOL    HW2  507   1.743   2.939   2.820
  790SOL     OW  508   1.458   2.597   2.590
  790SOL    HW1  509   1.453   2.532   2.665
  790SOL    HW2  510   1.538   2.656   2.603
  794SOL     OW  511   1.632   3.239   1.943
  794SOL    HW1  512   1.600   3.333   1.933
  794SOL    HW2  513   1.556   3.176   1.931
  796SOL     OW  514   1.400   1.969   2.288
  796SOL    HW1  515   1.376   1.932   2.198
  796SOL    HW2  516   1.499   1.985   2.292
  800SOL     OW  517   1.547   2.084   3.591
  800SOL    HW1  518   1.542   2.121   3.683
  800SOL    HW2  519   1.475   2.015   3.579
  801SOL     OW  520   0.614   1.984   1.979
  801SOL    HW1  521   0.712   1.962   1.986
  801SOL    HW2  522   0.583   1.967   1.886
  804SOL     OW  523   1.351   2.452   3.295
  804SOL    HW1  524   1.379   2.409   3.380
  804SOL    HW2  525   1.376   2.548   3.296
  806SOL     OW  526   0.922   2.365   2.761
  806SOL    HW1  527   0.897   2.356   2.665
  806SOL    HW2  528   0.970   2.283   2.792
  807SOL     OW  529   0.539   1.926   2.374
  807SOL    HW1  530   0.458   1.927   2.432
  807SOL    HW2  531   0.542   2.009   2.319
  808SOL     OW  532   1.434   3.050   1.903
  808SOL    HW1  533   1.466   2.974   1.960
  808SOL    HW2  534   1.342   3.077   1.933
  810SOL     OW  535   0.935   2.098   2.342
  810SOL    HW1  536   0.887   2.139   2.264
  810SOL    HW2  537   1.034   2.096   2.323
  811SOL     OW  538   1.076   2.545   3.326
  811SOL    HW1  539   0.996   2.484   3.329
  811SOL    HW2  540   1.157   2.492   3.302
  812SOL     OW  541   1.227   3.432   2.655
  812SOL    HW1  542   1.248   3.506   2.590
  812SOL    HW2  543   1.295   3.432   2.728
  814SOL     OW  544   1.271   3.659   2.453
  814SOL    HW1  545   1.315   3.723   2.389
  814SOL    HW2  546   1.221   3.711   2.523
  815SOL     OW  547   1.032   2.411   1.878
  815SOL    HW1  548   0.991   2.493   1.839
  815SOL    HW2  549   1.096   2.437   1.951
  818SOL     OW  550   0.866   2.316   2.504
  818SOL    HW1  551   0.834   2.388   2.442
  818SOL    HW2  552   0.890   2.235   2.451
  819SOL     OW  553   1.017   1.901   2.615
  819SOL    HW1  554   0.945   1.906   2.546
  819SOL    HW2  555   0.993   1.832   2.684
  820SOL     OW  556   1.429   3.035   2.729
  820SOL    HW1  557   1.374   2.951   2.722
  820SOL    HW2  558   1.455   3.064   2.637
  821SOL     OW  559   1.466   2.452   2.854
  821SOL    HW1  560   1.436   2.357   2.861
  821SOL    HW2  561   1.539   2.468   2.920
  822SOL     OW  562   1.857   2.695   2.239
  822SOL    HW1  563   1.899   2.631   2.303
  822SOL    HW2  564   1.819   2.644   2.161
  824SOL     OW  565   1.664   3.142   2.519
  824SOL    HW1  566   1.763   3.150   2.533
  824SOL    HW2  567   1.619   3.226   2.550
  825SOL     OW  568   1.390   2.437   1.940
  825SOL    HW1  569   1.336   2.416   2.021
  825SOL    HW2  570   1.481   2.396   1.949
  826SOL     OW  571   0.527   2.118   2.190
  826SOL    HW1  572   0.554   2.059   2.115
  826SOL    HW2  573   0.527   2.213   2.159
  827SOL     OW  574   1.754   3.085   3.450
  827SOL    HW1  575   1.845   3.046   3.437
  827SOL    HW2  576   1.762   3.181   3.474
  828SOL     OW  577   1.064   3.209   3.202
  828SOL    HW1  578   0.984   3.186   3.257
  828SOL    HW2  579   1.147   3.183   3.251
  830SOL     OW  580   1.111   3.057   2.962
  830SOL    HW1  581   1.071   3.101   3.043
  830SOL    HW2  582   1.070   3.094   2.879
  831SOL     OW  583   1.638   2.961   2.941
  831SOL    HW1  584   1.643   3.042   3.000
  831SOL    HW2  585   1.552   2.963   2.890
  832SOL     OW  586   0.915   1.951   3.264
  832SOL    HW1  587   0.940   1.931   3.169
  832SOL    HW2  588   0.987   2.007   3.306
  834SOL     OW  589   0.705   2.912   2.230
  834SOL    HW1  590   0.691   2.919   2.329
  834SOL    HW2  591   0.789   2.861   2.212
  836SOL     OW  592   1.274   2.248   3.124
  836SOL    HW1  593   1.295   2.322   3.188
  836SOL    HW2  594   1.185   2.265   3.081
  839SOL     OW  595   0.566   2.399   2.727
  839SOL    HW1  596   0.578   2.465   2.653
  839SOL    HW2  597   0.612   2.433   2.810
  840SOL     OW  598   1.252   3.210   2.250
  840SOL    HW1  599   1.302   3.287   2.290
  840SOL    HW2  600   1.157   3.212   2.282
  841SOL     OW  601   1.272   3.307   3.004
  841SOL    HW1  602   1.319   3.320   3.091
  841SOL    HW2  603   1.206   3.233   3.013
  842SOL     OW  604   1.582   2.501   2.334
  842SOL    HW1  605   1.551   2.562   2.407
  842SOL    HW2  606   1.632   2.553   2.265
  845SOL     OW  607   1.587   2.641   3.532
  845SOL    HW1  608   1.495   2.679   3.527
  845SOL    HW2  609   1.647   2.688   3.467
  849SOL     OW  610   1.360   2.724   2.907
  849SOL    HW1  611   1.285   2.724   2.841
  849SOL    HW2  612   1.397   2.632   2.916
  850SOL     OW  613   1.209   2.387   2.137
  850SOL    HW1  614   1.222   2.303   2.191
  850SOL    HW2  615   1.180   2.461   2.197
  853SOL     OW  616   0.732   2.496   2.926
  853SOL    HW1  617   0.791   2.470   2.850
  853SOL    HW2  618   0.704   2.592   2.915
  854SOL     OW  619   1.728   2.797   3.716
  854SOL    HW1  620   1.682   2.790   3.627
  854SOL    HW2  621   1.666   2.841   3.782
  856SOL     OW  622   1.622   2.229   2.236
  856SOL    HW1  623   1.624   2.153   2.300
  856SOL    HW2  624   1.574   2.306   2.276
  857SOL     OW  625   1.023   2.628   2.828
  857SOL    HW1  626   1.038   2.649   2.924
  857SOL    HW2  627   0.993   2.533   2.819
  859SOL     OW  628   1.859   3.380   3.467
  859SOL    HW1  629   1.873   3.407   3.372
  859SOL    HW2  630   1.942   3.402   3.520
  861SOL     OW  631   1.540   2.136   1.987
  861SOL    HW1  632   1.479   2.061   2.010
  861SOL    HW2  633   1.562   2.188   2.070
  862SOL     OW  634   1.303   2.700   1.904
  862SOL    HW1  635   1.337   2.607   1.919
  862SOL    HW2  636   1.321   2.727   1.809
  863SOL     OW  637   1.068   3.195   2.711
  863SOL    HW1  638   1.075   3.111   2.656
  863SOL    HW2  639   1.130   3.264   2.675
  866SOL     OW  640   1.138   2.242   3.540
  866SOL    HW1  641   1.093   2.305   3.604
  866SOL    HW2  642   1.231   2.273   3.523
  867SOL     OW  643   1.160   2.069   3.339
  867SOL    HW1  644   1.160   2.133   3.416
  867SOL    HW2  645   1.188   2.117   3.256
  871SOL     OW  646   1.002   2.658   3.100
  871SOL    HW1  647   1.043   2.626   3.186
  871SOL    HW2  648   0.906   2.631   3.097
  874SOL     OW  649   1.369   2.812   3.522
  874SOL    HW1  650   1.408   2.901   3.542
  874SOL    HW2  651   1.379   2.792   3.425
  875SOL     OW  652   0.815   2.434   2.187
  875SOL    HW1  653   0.822   2.345   2.141
  875SOL    HW2  654   0.721   2.468   2.179
  876SOL     OW  655   1.657   2.466   3.068
  876SOL    HW1  656   1.619   2.397   3.130
  876SOL    HW2  657   1.739   2.430   3.024
  882SOL     OW  658   1.347   2.921   3.096
  882SOL    HW1  659   1.371   2.858   3.022
  882SOL    HW2  660   1.257   2.961   3.078
  883SOL     OW  661   1.302   2.717   2.171
  883SOL    HW1  662   1.216   2.686   2.213
  883SOL    HW2  663   1.298   2.703   2.072
  884SOL     OW  664   1.759   3.609   3.016
  884SOL    HW1  665   1.820   3.639   2.943
  884SOL    HW2  666   1.721   3.520   2.994
  888SOL     OW  667   1.726   1.997   2.385
  888SOL    HW1  668   1.799   1.980   2.318
  888SOL    HW2  669   1.695   1.910   2.423
  889SOL     OW  670   1.388   3.435   2.339
  889SOL    HW1  671   1.455   3.447   2.265
  889SOL    HW2  672   1.348   3.524   2.362
  891SOL     OW  673   1.280   2.789   2.534
  891SOL    HW1  674   1.340   2.708   2.536
  891SOL    HW2  675   1.320   2.858   2.474
  894SOL     OW  676   1.650   3.582   3.256
  894SOL    HW1  677   1.703   3.592   3.172
  894SOL    HW2  678   1.623   3.672   3.290
  895SOL     OW  679   1.841   2.037   2.825
  895SOL    HW1  680   1.880   1.952   2.789
  895SOL    HW2  681   1.743   2.039   2.806
  897SOL     OW  682   1.194   3.474   1.893
  897SOL    HW1  683   1.200   3.381   1.930
  897SOL    HW2  684   1.135   3.474   1.813
  899SOL     OW  685   0.916   2.772   2.153
  899SOL    HW1  686   0.979   2.810   2.085
  899SOL    HW2  687   0.956   2.689   2.192
  900SOL     OW  688   1.504   3.469   1.906
  900SOL    HW1  689   1.412   3.506   1.913
  900SOL    HW2  690   1.542   3.489   1.816
  902SOL     OW  691   1.614   3.154   3.151
  902SOL    HW1  692   1.674   3.157   3.231
  902SOL    HW2  693   1.539   3.218   3.164
  903SOL     OW  694   1.039   2.960   2.558
  903SOL    HW1  695   0.969   2.913   2.612
  903SOL    HW2  696   1.098   2.892   2.515
  904SOL     OW  697   1.014   2.098   2.833
  904SOL    HW1  698   1.006   2.062   2.740
  904SOL    HW2  699   1.012   2.022   2.898
  906SOL     OW  700   1.709   2.247   3.243
  906SOL    HW1  701   1.782   2.316   3.247
  906SOL    HW2  702   1.737   2.172   3.184
  911SOL     OW  703   1.440   2.718   3.260
  911SOL    HW1  704   1.383   2.770   3.197
  911SOL    HW2  705   1.536   2.730   3.236
  913SOL     OW  706   1.183   3.197   1.981
  913SOL    HW1  707   1.084   3.186   1.983
  913SOL    HW2  708   1.217   3.212   2.074
  915SOL     OW  709   1.493   3.629   2.821
  915SOL    HW1  710   1.526   3.693   2.752
  915SOL    HW2  711   1.559   3.623   2.896
  917SOL     OW  712   1.450   3.082   3.495
  917SOL    HW1  713   1.441   3.072   3.594
  917SOL    HW2  714   1.546   3.075   3.469
  919SOL     OW  715   1.674   2.745   3.116
  919SOL    HW1  716   1.647   2.656   3.079
  919SOL    HW2  717   1.675   2.813   3.043
  920SOL     OW  718   1.225   2.187   2.311
  920SOL    HW1  719   1.290   2.113   2.300
  920SOL    HW2  720   1.245   2.237   2.395
  921SOL     OW  721   0.594   2.607   2.514
  921SOL    HW1  722   0.644   2.692   2.495
  921SOL    HW2  723   0.506   2.609   2.466
  922SOL     OW  724   1.777   2.204   3.504
  922SOL    HW1  725   1.760   2.235   3.410
  922SOL    HW2  726   1.693   2.167   3.542
  923SOL     OW  727   1.730   2.796   3.379
  923SOL    HW1  728   1.768   2.887   3.394
  923SOL    HW2  729   1.722   2.779   3.280
  924SOL     OW  730   0.859   3.236   1.878
  924SOL    HW1  731   0.813   3.251   1.966
  924SOL    HW2  732   0.903   3.321   1.848
  926SOL     OW  733   0.859   2.818   2.723
  926SOL    HW1  734   0.913   2.749   2.771
  926SOL    HW2  735   0.827   2.887   2.789
  927SOL     OW  736   1.083   2.846   1.949
  927SOL    HW1  737   1.060   2.899   1.867
  927SOL    HW2  738   1.164   2.790   1.930
  928SOL     OW  739   1.861   3.431   2.713
  928SOL    HW1  740   1.790   3.419   2.643
  928SOL    HW2  741   1.862   3.352   2.773
  932SOL     OW  742   1.824   2.054   3.089
  932SOL    HW1  743   1.820   1.964   3.133
  932SOL    HW2  744   1.827   2.043   2.990
  934SOL     OW  745   1.705   3.349   2.966
  934SOL    HW1  746   1.612   3.324   2.939
  934SOL    HW2  747   1.731   3.299   3.048
  937SOL     OW  748   1.424   2.076   2.974
  937SOL    HW1  749   1.476   2.011   3.029
  937SOL    HW2  750   1.375   2.139   3.035
  938SOL     OW  751   1.001   1.896   3.016
  938SOL    HW1  752   0.938   1.824   2.985
  938SOL    HW2  753   1.094   1.860   3.016
  939SOL     OW  754   0.770   3.192   2.163
  939SOL    HW1  755   0.724   3.105   2.180
  939SOL    HW2  756   0.861   3.189   2.204
  941SOL     OW  757   1.352   1.914   2.030
  941SOL    HW1  758   1.387   1.873   1.946
  941SOL    HW2  759   1.262   1.876   2.050
  942SOL     OW  760   1.300   2.315   2.553
  942SOL    HW1  761   1.241   2.395   2.557
  942SOL    HW2  762   1.315   2.280   2.646
  943SOL     OW  763   1.593   2.083   2.744
  943SOL    HW1  764   1.509   2.082   2.798
  943SOL    HW2  765   1.595   2.166   2.688
  950SOL     OW  766   1.755   2.469   3.955
  950SOL    HW1  767   1.743   2.456   3.856
  950SOL    HW2  768   1.725   2.388   4.004
  997SOL     OW  769   1.390   2.437   3.802
  997SOL    HW1  770   1.336   2.416   3.883
  997SOL    HW2  771   1.481   2.396   3.811
 1006SOL     OW  772   1.540   2.136   3.849
 1006SOL    HW1  773   1.479   2.061   3.872
 1006SOL    HW2  774   1.562   2.188   3.932
 1162SOL     OW  775   1.400   3.831   2.288
 1162SOL    HW1  776   1.376   3.794   2.198
 1162SOL    HW2  777   1.499   3.847   2.292
 1209SOL     OW  778   1.726   3.859   2.385
 1209SOL    HW1  779   1.799   3.842   2.318
 1209SOL    HW2  780   1.695   3.772   2.423
 1211SOL     OW  781   1.841   3.899   2.825
 1211SOL    HW1  782   1.880   3.814   2.789
 1211SOL    HW2  783   1.743   3.901   2.806
 1231SOL     OW  784   1.352   3.776   2.030
 1231SOL    HW1  785   1.387   3.735   1.946
 1231SOL    HW2  786   1.262   3.738   2.050
 1284SOL     OW  787   2.431   1.275   1.165
 1284SOL    HW1  788   2.338   1.268   1.128
 1284SOL    HW2  789   2.442   1.364   1.209
 1288SOL     OW  790   2.630   1.144   1.023
 1288SOL    HW1  791   2.552   1.161   1.083
 1288SOL    HW2  792   2.664   1.231   0.987
 1289SOL     OW  793   2.712   0.798   1.823
 1289SOL    HW1  794   2.708   0.874   1.888
 1289SOL    HW2  795   2.734   0.834   1.732
 1291SOL     OW  796   2.548   1.161   1.803
 1291SOL    HW1  797   2.608   1.240   1.817
 1291SOL    HW2  798   2.462   1.192   1.762
 1292SOL     OW  799   2.197   1.435   1.061
 1292SOL    HW1  800   2.119   1.404   1.008
 1292SOL    HW2  801   2.255   1.493   1.004
 1293SOL     OW  802   3.322   1.505   1.339
 1293SOL    HW1  803   3.346   1.599   1.365
 1293SOL    HW2  804   3.306   1.451   1.421
 1297SOL     OW  805   2.989   1.341   1.690
 1297SOL    HW1  806   3.036   1.341   1.778
 1297SOL    HW2  807   2.941   1.254   1.679
 1300SOL     OW  808   2.482   1.786   1.439
 1300SOL    HW1  809   2.390   1.769   1.474
 1300SOL    HW2  810   2.510   1.878   1.465
 1308SOL     OW  811   1.975   0.737   1.597
 1308SOL    HW1  812   2.063   0.724   1.642
 1308SOL    HW2  813   1.962   0.834   1.575
 1310SOL     OW  814   3.155   1.228   1.423
 1310SOL    HW1  815   3.192   1.155   1.365
 1310SOL    HW2  816   3.207   1.233   1.508
 1312SOL     OW  817   2.059   0.976   1.264
 1312SOL    HW1  818   2.148   0.931   1.250
 1312SOL    HW2  819   1.986   0.911   1.245
 1314SOL     OW  820   3.049   1.792   1.616
 1314SOL    HW1  821   3.073   1.852   1.540
 1314SOL    HW2  822   3.056   1.697   1.586
 1323SOL     OW  823   2.835   0.890   1.572
 1323SOL    HW1  824   2.881   0.806   1.543
 1323SOL    HW2  825   2.779   0.924   1.497
 1327SOL     OW  826   1.992   1.821   1.571
 1327SOL    HW1  827   1.982   1.806   1.670
 1327SOL    HW2  828   1.906   1.857   1.535
 1333SOL     OW  829   2.213   1.801   0.853
 1333SOL    HW1  830   2.263   1.715   0.859
 1333SOL    HW2  831   2.278   1.878   0.850
 1335SOL     OW  832   3.089   1.550   1.506
 1335SOL    HW1  833   3.095   1.473   1.570
 1335SOL    HW2  834   3.037   1.524   1.426
 1338SOL     OW  835   2.323   1.266   1.727
 1338SOL    HW1  836   2.273   1.267   1.641
 1338SOL    HW2  837   2.260   1.248   1.803
 1344SOL     OW  838   2.111   1.785   1.241
 1344SOL    HW1  839   2.168   1.720   1.291
 1344SOL    HW2  840   2.095   1.752   1.148
 1345SOL     OW  841   2.802   1.698   0.904
 1345SOL    HW1  842   2.882   1.641   0.925
 1345SOL    HW2  843   2.753   1.658   0.827
 1350SOL     OW  844   2.750   1.514   1.195
 1350SOL    HW1  845   2.727   1.489   1.101
 1350SOL    HW2  846   2.811   1.445   1.234
 1352SOL     OW  847   2.665   1.402   0.924
 1352SOL    HW1  848   2.755   1.416   0.882
 1352SOL    HW2  849   2.594   1.404   0.853
 1375SOL     OW  850   2.926   1.347   1.340
 1375SOL    HW1  851   2.846   1.324   1.395
 1375SOL    HW2  852   3.009   1.321   1.389
 1376SOL     OW  853   3.454   1.629   1.625
 1376SOL    HW1  854   3.481   1.663   1.535
 1376SOL    HW2  855   3.533   1.591   1.671
 1377SOL     OW  856   2.973   1.195   1.100
 1377SOL    HW1  857   2.933   1.239   1.181
 1377SOL    HW2  858   2.932   1.232   1.017
 1380SOL     OW  859   2.842   1.116   1.719
 1380SOL    HW1  860   2.743   1.122   1.729
 1380SOL    HW2  861   2.865   1.036   1.663
 1384SOL     OW  862   1.926   1.564   1.331
 1384SOL    HW1  863   1.880   1.646   1.297
 1384SOL    HW2  864   2.024   1.583   1.340
 1388SOL     OW  865   3.134   1.445   1.142
 1388SOL    HW1  866   3.181   1.458   1.229
 1388SOL    HW2  867   3.068   1.371   1.151
 1390SOL     OW  868   2.216   1.510   1.329
 1390SOL    HW1  869   2.195   1.466   1.242
 1390SOL    HW2  870   2.313   1.536   1.332
 1391SOL     OW  871   2.264   0.751   1.598
 1391SOL    HW1  872   2.332   0.806   1.551
 1391SOL    HW2  873   2.304   0.663   1.625
 1399SOL     OW  874   1.899   1.310   1.282
 1399SOL    HW1  875   1.952   1.261   1.350
 1399SOL    HW2  876   1.921   1.408   1.287
 1405SOL     OW  877   2.842   1.573   1.700
 1405SOL    HW1  878   2.822   1.617   1.612
 1405SOL    HW2  879   2.881   1.482   1.684
 1406SOL     OW  880   3.721   1.518   1.605
 1406SOL    HW1  881   3.735   1.545   1.510
 1406SOL    HW2  882   3.804   1.540   1.658
 1407SOL     OW  883   2.212   0.898   1.804
 1407SOL    HW1  884   2.288   0.942   1.852
 1407SOL    HW2  885   2.247   0.851   1.722
 1416SOL     OW  886   1.950   1.801   0.927
 1416SOL    HW1  887   1.908   1.715   0.900
 1416SOL    HW2  888   2.044   1.804   0.893
 1417SOL     OW  889   2.366   1.568   0.910
 1417SOL    HW1  890   2.432   1.642   0.919
 1417SOL    HW2  891   2.410   1.489   0.868
 1421SOL     OW  892   3.231   0.950   1.660
 1421SOL    HW1  893   3.270   1.039   1.680
 1421SOL    HW2  894   3.241   0.930   1.563
 1424SOL     OW  895   2.114   1.564   1.744
 1424SOL    HW1  896   2.084   1.621   1.820
 1424SOL    HW2  897   2.107   1.467   1.770
 1426SOL     OW  898   2.792   1.678   1.465
 1426SOL    HW1  899   2.768   1.660   1.370
 1426SOL    HW2  900   2.822   1.772   1.475
 1428SOL     OW  901   2.021   1.137   1.466
 1428SOL    HW1  902   2.043   1.076   1.542
 1428SOL    HW2  903   2.031   1.088   1.380
 1432SOL     OW  904   3.114   1.731   1.128
 1432SOL    HW1  905   3.198   1.736   1.074
 1432SOL    HW2  906   3.091   1.635   1.146
 1433SOL     OW  907   1.945   1.258   1.022
 1433SOL    HW1  908   1.940   1.257   1.122
 1433SOL    HW2  909   1.862   1.217   0.984
 1434SOL     OW  910   2.550   1.662   1.716
 1434SOL    HW1  911   2.494   1.743   1.725
 1434SOL    HW2  912   2.602   1.666   1.630
 1438SOL     OW  913   1.992   1.794   1.851
 1438SOL    HW1  914   1.951   1.720   1.904
 1438SOL    HW2  915   2.056   1.845   1.909
 1440SOL     OW  916   2.692   1.273   1.422
 1440SOL    HW1  917   2.687   1.306   1.517
 1440SOL    HW2  918   2.606   1.292   1.376
 1442SOL     OW  919   3.512   1.720   1.394
 1442SOL    HW1  920   3.565   1.730   1.310
 1442SOL    HW2  921   3.485   1.810   1.428
 1446SOL     OW  922   2.684   1.002   1.372
 1446SOL    HW1  923   2.724   1.001   1.280
 1446SOL    HW2  924   2.694   1.094   1.412
 1449SOL     OW  925   2.234   1.288   1.490
 1449SOL    HW1  926   2.221   1.381   1.456
 1449SOL    HW2  927   2.150   1.236   1.477
 1456SOL     OW  928   1.967   1.013   1.726
 1456SOL    HW1  929   1.890   0.980   1.780
 1456SOL    HW2  930   2.052   0.983   1.768
 1462SOL     OW  931   2.475   0.842   1.431
 1462SOL    HW1  932   2.531   0.923   1.414
 1462SOL    HW2  933   2.534   0.762   1.434
 1463SOL     OW  934   3.355   1.767   0.959
 1463SOL    HW1  935   3.388   1.831   0.890
 1463SOL    HW2  936   3.421   1.761   1.034
 1465SOL     OW  937   3.312   1.220   1.633
 1465SOL    HW1  938   3.303   1.210   1.732
 1465SOL    HW2  939   3.408   1.213   1.607
 1466SOL     OW  940   2.252   1.741   1.560
 1466SOL    HW1  941   2.161   1.782   1.558
 1466SOL    HW2  942   2.245   1.647   1.592
 1473SOL     OW  943   2.523   1.790   0.953
 1473SOL    HW1  944   2.477   1.878   0.940
 1473SOL    HW2  945   2.622   1.802   0.946
 1477SOL     OW  946   2.083   1.314   1.844
 1477SOL    HW1  947   2.018   1.241   1.823
 1477SOL    HW2  948   2.087   1.328   1.942
 1479SOL     OW  949   2.534   1.391   1.624
 1479SOL    HW1  950   2.456   1.341   1.662
 1479SOL    HW2  951   2.531   1.486   1.655
 1484SOL     OW  952   2.674   1.586   0.687
 1484SOL    HW1  953   2.706   1.596   0.593
 1484SOL    HW2  954   2.595   1.524   0.689
 1488SOL     OW  955   2.480   1.567   1.284
 1488SOL    HW1  956   2.475   1.649   1.341
 1488SOL    HW2  957   2.569   1.564   1.239
 1494SOL     OW  958   2.092   0.628   1.975
 1494SOL    HW1  959   1.999   0.626   2.012
 1494SOL    HW2  960   2.093   0.589   1.883
 1497SOL     OW  961   2.431   1.275   3.027
 1497SOL    HW1  962   2.338   1.268   2.990
 1497SOL    HW2  963   2.442   1.364   3.071
 1498SOL     OW  964   3.417   1.511   2.565
 1498SOL    HW1  965   3.360   1.495   2.646
 1498SOL    HW2  966   3.358   1.521   2.485
 1499SOL     OW  967   2.997   0.703   2.579
 1499SOL    HW1  968   3.054   0.781   2.554
 1499SOL    HW2  969   2.937   0.729   2.655
 1501SOL     OW  970   2.630   1.144   2.885
 1501SOL    HW1  971   2.552   1.161   2.945
 1501SOL    HW2  972   2.664   1.231   2.849
 1503SOL     OW  973   2.547   1.012   2.527
 1503SOL    HW1  974   2.616   0.996   2.597
 1503SOL    HW2  975   2.474   1.069   2.565
 1504SOL     OW  976   2.548   1.161   3.665
 1504SOL    HW1  977   2.608   1.240   3.679
 1504SOL    HW2  978   2.462   1.192   3.624
 1505SOL     OW  979   2.197   1.435   2.923
 1505SOL    HW1  980   2.119   1.404   2.870
 1505SOL    HW2  981   2.255   1.493   2.866
 1506SOL     OW  982   3.322   1.505   3.201
 1506SOL    HW1  983   3.346   1.599   3.227
 1506SOL    HW2  984   3.306   1.451   3.283
 1509SOL     OW  985   2.093   1.713   2.345
 1509SOL    HW1  986   2.127   1.790   2.399
 1509SOL    HW2  987   2.137   1.713   2.255
 1510SOL     OW  988   2.989   1.341   3.552
 1510SOL    HW1  989   3.036   1.341   3.640
 1510SOL    HW2  990   2.941   1.254   3.541
 1511SOL     OW  991   2.092   1.434   2.400
 1511SOL    HW1  992   2.066   1.530   2.400
 1511SOL    HW2  993   2.021   1.380   2.445
 1512SOL     OW  994   2.102   1.091   2.748
 1512SOL    HW1  995   2.116   1.007   2.800
 1512SOL    HW2  996   2.047   1.155   2.803
 1513SOL     OW  997   2.482   1.786   3.301
 1513SOL    HW1  998   2.390   1.769   3.336
 1513SOL    HW2  999   2.510   1.878   3.327
 1514SOL     OW 1000   2.468   0.964   1.985
 1514SOL    HW1 1001   2.475   1.048   1.931
 1514SOL    HW2 1002   2.514   0.977   2.073
 1516SOL     OW 1003   1.984   0.643   2.425
 1516SOL    HW1 1004   1.939   0.555   2.442
 1516SOL    HW2 1005   1.983   0.697   2.509
 1517SOL     OW 1006   3.704   1.767   2.221
 1517SOL    HW1 1007   3.758   1.738   2.301
 1517SOL    HW2 1008   3.734   1.857   2.192
 1518SOL     OW 1009   1.889   1.596   1.979
 1518SOL    HW1 1010   1.870   1.500   2.000
 1518SOL    HW2 1011   1.856   1.654   2.054
 1520SOL     OW 1012   3.503   1.108   2.294
 1520SOL    HW1 1013   3.589   1.110   2.242
 1520SOL    HW2 1014   3.517   1.155   2.382
 1522SOL     OW 1015   2.475   1.365   2.588
 1522SOL    HW1 1016   2.426   1.278   2.597
 1522SOL    HW2 1017   2.452   1.408   2.501
 1523SOL     OW 1018   3.155   1.228   3.285
 1523SOL    HW1 1019   3.192   1.155   3.227
 1523SOL    HW2 1020   3.207   1.233   3.370
 1525SOL     OW 1021   2.059   0.976   3.126
 1525SOL    HW1 1022   2.148   0.931   3.112
 1525SOL    HW2 1023   1.986   0.911   3.107
 1526SOL     OW 1024   3.387   0.999   2.052
 1526SOL    HW1 1025   3.324   0.923   2.065
 1526SOL    HW2 1026   3.435   1.017   2.138
 1527SOL     OW 1027   3.049   1.792   3.478
 1527SOL    HW1 1028   3.073   1.852   3.402
 1527SOL    HW2 1029   3.056   1.697   3.448
 1529SOL     OW 1030   3.328   1.417   2.815
 1529SOL    HW1 1031   3.269   1.423   2.895
 1529SOL    HW2 1032   3.313   1.329   2.769
 1530SOL     OW 1033   3.529   1.714   2.434
 1530SOL    HW1 1034   3.488   1.691   2.346
 1530SOL    HW2 1035   3.511   1.640   2.499
 1531SOL     OW 1036   2.460   0.729   2.132
 1531SOL    HW1 1037   2.484   0.798   2.064
 1531SOL    HW2 1038   2.382   0.762   2.186
 1533SOL     OW 1039   3.438   1.662   2.169
 1533SOL    HW1 1040   3.527   1.708   2.172
 1533SOL    HW2 1041   3.417   1.638   2.074
 1538SOL     OW 1042   2.903   0.701   2.291
 1538SOL    HW1 1043   2.929   0.697   2.387
 1538SOL    HW2 1044   2.818   0.650   2.277
 1539SOL     OW 1045   1.938   0.811   2.651
 1539SOL    HW1 1046   2.037   0.799   2.660
 1539SOL    HW2 1047   1.914   0.906   2.672
 1540SOL     OW 1048   1.992   1.821   3.433
 1540SOL    HW1 1049   1.982   1.806   3.532
 1540SOL    HW2 1050   1.906   1.857   3.397
 1543SOL     OW 1051   3.224   1.144   2.407
 1543SOL    HW1 1052   3.307   1.115   2.359
 1543SOL    HW2 1053   3.175   1.211   2.351
 1545SOL     OW 1054   2.870   1.456   2.339
 1545SOL    HW1 1055   2.824   1.528   2.287
 1545SOL    HW2 1056   2.866   1.476   2.437
 1546SOL     OW 1057   2.213   1.801   2.715
 1546SOL    HW1 1058   2.263   1.715   2.721
 1546SOL    HW2 1059   2.278   1.878   2.712
 1548SOL     OW 1060   3.089   1.550   3.368
 1548SOL    HW1 1061   3.095   1.473   3.432
 1548SOL    HW2 1062   3.037   1.524   3.288
 1549SOL     OW 1063   2.183   0.943   2.104
 1549SOL    HW1 1064   2.265   0.982   2.062
 1549SOL    HW2 1065   2.156   0.861   2.055
 1551SOL     OW 1066   2.323   1.266   3.589
 1551SOL    HW1 1067   2.273   1.267   3.503
 1551SOL    HW2 1068   2.260   1.248   3.665
 1552SOL     OW 1069   2.973   1.776   2.099
 1552SOL    HW1 1070   2.913   1.714   2.149
 1552SOL    HW2 1071   3.004   1.732   2.014
 1554SOL     OW 1072   3.494   1.377   1.943
 1554SOL    HW1 1073   3.462   1.471   1.933
 1554SOL    HW2 1074   3.418   1.314   1.931
 1555SOL     OW 1075   2.326   1.743   2.185
 1555SOL    HW1 1076   2.359   1.782   2.271
 1555SOL    HW2 1077   2.402   1.736   2.120
 1557SOL     OW 1078   2.111   1.785   3.103
 1557SOL    HW1 1079   2.168   1.720   3.153
 1557SOL    HW2 1080   2.095   1.752   3.010
 1558SOL     OW 1081   2.802   1.698   2.766
 1558SOL    HW1 1082   2.882   1.641   2.787
 1558SOL    HW2 1083   2.753   1.658   2.689
 1559SOL     OW 1084   2.244   0.700   2.342
 1559SOL    HW1 1085   2.289   0.610   2.339
 1559SOL    HW2 1086   2.150   0.689   2.375
 1563SOL     OW 1087   2.750   1.514   3.057
 1563SOL    HW1 1088   2.727   1.489   2.963
 1563SOL    HW2 1089   2.811   1.445   3.096
 1565SOL     OW 1090   2.665   1.402   2.786
 1565SOL    HW1 1091   2.755   1.416   2.744
 1565SOL    HW2 1092   2.594   1.404   2.715
 1568SOL     OW 1093   3.296   1.188   1.903
 1568SOL    HW1 1094   3.328   1.112   1.960
 1568SOL    HW2 1095   3.204   1.215   1.933
 1572SOL     OW 1096   3.089   1.570   2.655
 1572SOL    HW1 1097   3.110   1.644   2.590
 1572SOL    HW2 1098   3.157   1.570   2.728
 1573SOL     OW 1099   2.321   1.152   2.603
 1573SOL    HW1 1100   2.250   1.125   2.668
 1573SOL    HW2 1101   2.295   1.124   2.510
 1574SOL     OW 1102   3.133   1.797   2.453
 1574SOL    HW1 1103   3.177   1.861   2.389
 1574SOL    HW2 1104   3.083   1.849   2.523
 1580SOL     OW 1105   3.291   1.173   2.729
 1580SOL    HW1 1106   3.236   1.089   2.722
 1580SOL    HW2 1107   3.317   1.202   2.637
 1583SOL     OW 1108   2.350   1.385   2.036
 1583SOL    HW1 1109   2.263   1.370   2.083
 1583SOL    HW2 1110   2.333   1.411   1.941
 1584SOL     OW 1111   3.526   1.280   2.519
 1584SOL    HW1 1112   3.625   1.288   2.533
 1584SOL    HW2 1113   3.481   1.364   2.550
 1588SOL     OW 1114   2.926   1.347   3.202
 1588SOL    HW1 1115   2.846   1.324   3.257
 1588SOL    HW2 1116   3.009   1.321   3.251
 1589SOL     OW 1117   3.454   1.629   3.487
 1589SOL    HW1 1118   3.481   1.663   3.397
 1589SOL    HW2 1119   3.533   1.591   3.533
 1590SOL     OW 1120   2.973   1.195   2.962
 1590SOL    HW1 1121   2.933   1.239   3.043
 1590SOL    HW2 1122   2.932   1.232   2.879
 1594SOL     OW 1123   2.567   1.050   2.230
 1594SOL    HW1 1124   2.553   1.057   2.329
 1594SOL    HW2 1125   2.651   0.999   2.212
 1595SOL     OW 1126   2.272   0.813   3.113
 1595SOL    HW1 1127   2.358   0.825   3.163
 1595SOL    HW2 1128   2.230   0.726   3.140
 1597SOL     OW 1129   1.926   1.564   3.193
 1597SOL    HW1 1130   1.880   1.646   3.159
 1597SOL    HW2 1131   2.024   1.583   3.202
 1598SOL     OW 1132   2.229   1.100   2.363
 1598SOL    HW1 1133   2.222   1.183   2.307
 1598SOL    HW2 1134   2.233   1.020   2.303
 1600SOL     OW 1135   3.114   1.348   2.250
 1600SOL    HW1 1136   3.164   1.425   2.290
 1600SOL    HW2 1137   3.019   1.350   2.282
 1601SOL     OW 1138   3.134   1.445   3.004
 1601SOL    HW1 1139   3.181   1.458   3.091
 1601SOL    HW2 1140   3.068   1.371   3.013
 1603SOL     OW 1141   2.216   1.510   3.191
 1603SOL    HW1 1142   2.195   1.466   3.104
 1603SOL    HW2 1143   2.313   1.536   3.194
 1608SOL     OW 1144   2.435   0.870   2.891
 1608SOL    HW1 1145   2.479   0.959   2.882
 1608SOL    HW2 1146   2.372   0.870   2.968
 1612SOL     OW 1147   1.899   1.310   3.144
 1612SOL    HW1 1148   1.952   1.261   3.212
 1612SOL    HW2 1149   1.921   1.408   3.149
 1613SOL     OW 1150   2.594   0.634   2.926
 1613SOL    HW1 1151   2.653   0.608   2.850
 1613SOL    HW2 1152   2.566   0.730   2.915
 1617SOL     OW 1153   2.885   0.766   2.828
 1617SOL    HW1 1154   2.900   0.787   2.924
 1617SOL    HW2 1155   2.855   0.671   2.819
 1618SOL     OW 1156   2.842   1.573   3.562
 1618SOL    HW1 1157   2.822   1.617   3.474
 1618SOL    HW2 1158   2.881   1.482   3.546
 1622SOL     OW 1159   3.165   0.838   1.904
 1622SOL    HW1 1160   3.199   0.745   1.919
 1622SOL    HW2 1161   3.183   0.865   1.809
 1623SOL     OW 1162   2.930   1.333   2.711
 1623SOL    HW1 1163   2.937   1.249   2.656
 1623SOL    HW2 1164   2.992   1.402   2.675
 1624SOL     OW 1165   2.181   0.810   2.811
 1624SOL    HW1 1166   2.274   0.846   2.816
 1624SOL    HW2 1167   2.175   0.725   2.863
 1628SOL     OW 1168   1.870   1.326   2.062
 1628SOL    HW1 1169   1.777   1.347   2.031
 1628SOL    HW2 1170   1.880   1.227   2.075
 1629SOL     OW 1171   1.950   1.801   2.789
 1629SOL    HW1 1172   1.908   1.715   2.762
 1629SOL    HW2 1173   2.044   1.804   2.755
 1630SOL     OW 1174   2.366   1.568   2.772
 1630SOL    HW1 1175   2.432   1.642   2.781
 1630SOL    HW2 1176   2.410   1.489   2.730
 1631SOL     OW 1177   2.864   0.796   3.100
 1631SOL    HW1 1178   2.905   0.764   3.186
 1631SOL    HW2 1179   2.768   0.769   3.097
 1635SOL     OW 1180   2.677   0.572   2.187
 1635SOL    HW1 1181   2.684   0.483   2.141
 1635SOL    HW2 1182   2.583   0.606   2.179
 1637SOL     OW 1183   2.114   1.564   3.606
 1637SOL    HW1 1184   2.084   1.621   3.682
 1637SOL    HW2 1185   2.107   1.467   3.632
 1639SOL     OW 1186   2.792   1.678   3.327
 1639SOL    HW1 1187   2.768   1.660   3.232
 1639SOL    HW2 1188   2.822   1.772   3.337
 1641SOL     OW 1189   2.021   1.137   3.328
 1641SOL    HW1 1190   2.043   1.076   3.404
 1641SOL    HW2 1191   2.031   1.088   3.242
 1642SOL     OW 1192   3.209   1.059   3.096
 1642SOL    HW1 1193   3.233   0.996   3.022
 1642SOL    HW2 1194   3.119   1.099   3.078
 1643SOL     OW 1195   3.164   0.855   2.171
 1643SOL    HW1 1196   3.078   0.824   2.213
 1643SOL    HW2 1197   3.160   0.841   2.072
 1644SOL     OW 1198   3.621   1.747   3.016
 1644SOL    HW1 1199   3.682   1.777   2.943
 1644SOL    HW2 1200   3.583   1.658   2.994
 1645SOL     OW 1201   3.114   1.731   2.990
 1645SOL    HW1 1202   3.198   1.736   2.936
 1645SOL    HW2 1203   3.091   1.635   3.008
 1646SOL     OW 1204   1.945   1.258   2.884
 1646SOL    HW1 1205   1.940   1.257   2.984
 1646SOL    HW2 1206   1.862   1.217   2.846
 1647SOL     OW 1207   2.550   1.662   3.578
 1647SOL    HW1 1208   2.494   1.743   3.587
 1647SOL    HW2 1209   2.602   1.666   3.492
 1649SOL     OW 1210   3.250   1.573   2.339
 1649SOL    HW1 1211   3.317   1.585   2.265
 1649SOL    HW2 1212   3.210   1.662   2.362
 1650SOL     OW 1213   1.992   1.794   3.713
 1650SOL    HW1 1214   1.951   1.720   3.766
 1650SOL    HW2 1215   2.056   1.845   3.771
 1651SOL     OW 1216   3.142   0.927   2.534
 1651SOL    HW1 1217   3.202   0.846   2.536
 1651SOL    HW2 1218   3.182   0.996   2.474
 1652SOL     OW 1219   2.692   1.273   3.284
 1652SOL    HW1 1220   2.687   1.306   3.379
 1652SOL    HW2 1221   2.606   1.292   3.238
 1653SOL     OW 1222   2.534   1.616   2.016
 1653SOL    HW1 1223   2.543   1.626   1.917
 1653SOL    HW2 1224   2.494   1.527   2.037
 1654SOL     OW 1225   3.512   1.720   3.256
 1654SOL    HW1 1226   3.565   1.730   3.172
 1654SOL    HW2 1227   3.485   1.810   3.290
 1657SOL     OW 1228   3.056   1.612   1.893
 1657SOL    HW1 1229   3.062   1.519   1.930
 1657SOL    HW2 1230   2.997   1.612   1.813
 1658SOL     OW 1231   2.684   1.002   3.234
 1658SOL    HW1 1232   2.724   1.001   3.142
 1658SOL    HW2 1233   2.694   1.094   3.274
 1659SOL     OW 1234   2.778   0.910   2.153
 1659SOL    HW1 1235   2.841   0.948   2.085
 1659SOL    HW2 1236   2.818   0.827   2.192
 1660SOL     OW 1237   3.366   1.607   1.906
 1660SOL    HW1 1238   3.274   1.644   1.913
 1660SOL    HW2 1239   3.404   1.627   1.816
 1661SOL     OW 1240   2.234   1.288   3.352
 1661SOL    HW1 1241   2.221   1.381   3.318
 1661SOL    HW2 1242   2.150   1.236   3.339
 1662SOL     OW 1243   3.476   1.292   3.151
 1662SOL    HW1 1244   3.536   1.295   3.231
 1662SOL    HW2 1245   3.401   1.356   3.164
 1663SOL     OW 1246   2.901   1.098   2.558
 1663SOL    HW1 1247   2.831   1.051   2.612
 1663SOL    HW2 1248   2.960   1.030   2.515
 1665SOL     OW 1249   2.452   1.487   2.353
 1665SOL    HW1 1250   2.494   1.429   2.283
 1665SOL    HW2 1251   2.408   1.566   2.309
 1667SOL     OW 1252   2.117   1.348   2.152
 1667SOL    HW1 1253   2.021   1.349   2.125
 1667SOL    HW2 1254   2.129   1.401   2.236
 1673SOL     OW 1255   3.045   1.335   1.981
 1673SOL    HW1 1256   2.946   1.324   1.983
 1673SOL    HW2 1257   3.079   1.350   2.074
 1674SOL     OW 1258   2.475   0.842   3.293
 1674SOL    HW1 1259   2.531   0.923   3.276
 1674SOL    HW2 1260   2.534   0.762   3.296
 1675SOL     OW 1261   3.355   1.767   2.821
 1675SOL    HW1 1262   3.388   1.831   2.752
 1675SOL    HW2 1263   3.421   1.761   2.896
 1678SOL     OW 1264   2.252   1.741   3.422
 1678SOL    HW1 1265   2.161   1.782   3.420
 1678SOL    HW2 1266   2.245   1.647   3.454
 1681SOL     OW 1267   2.456   0.745   2.514
 1681SOL    HW1 1268   2.506   0.830   2.495
 1681SOL    HW2 1269   2.368   0.747   2.466
 1684SOL     OW 1270   2.721   1.374   1.878
 1684SOL    HW1 1271   2.675   1.389   1.966
 1684SOL    HW2 1272   2.765   1.459   1.848
 1685SOL     OW 1273   2.523   1.790   2.815
 1685SOL    HW1 1274   2.477   1.878   2.802
 1685SOL    HW2 1275   2.622   1.802   2.808
 1686SOL     OW 1276   2.721   0.956   2.723
 1686SOL    HW1 1277   2.775   0.887   2.771
 1686SOL    HW2 1278   2.689   1.025   2.789
 1687SOL     OW 1279   2.945   0.984   1.949
 1687SOL    HW1 1280   2.922   1.037   1.867
 1687SOL    HW2 1281   3.026   0.928   1.930
 1688SOL     OW 1282   3.723   1.569   2.713
 1688SOL    HW1 1283   3.652   1.557   2.643
 1688SOL    HW2 1284   3.724   1.490   2.773
 1689SOL     OW 1285   2.083   1.314   3.706
 1689SOL    HW1 1286   2.018   1.241   3.685
 1689SOL    HW2 1287   2.087   1.328   3.804
 1690SOL     OW 1288   1.941   1.240   2.515
 1690SOL    HW1 1289   1.940   1.193   2.603
 1690SOL    HW2 1290   2.023   1.212   2.464
 1691SOL     OW 1291   2.534   1.391   3.486
 1691SOL    HW1 1292   2.456   1.341   3.524
 1691SOL    HW2 1293   2.531   1.486   3.517
 1694SOL     OW 1294   3.567   1.487   2.966
 1694SOL    HW1 1295   3.474   1.462   2.939
 1694SOL    HW2 1296   3.593   1.437   3.048
 1696SOL     OW 1297   2.674   1.586   2.549
 1696SOL    HW1 1298   2.706   1.596   2.455
 1696SOL    HW2 1299   2.595   1.524   2.551
 1699SOL     OW 1300   2.632   1.330   2.163
 1699SOL    HW1 1301   2.586   1.243   2.180
 1699SOL    HW2 1302   2.723   1.327   2.204
 1700SOL     OW 1303   2.480   1.567   3.146
 1700SOL    HW1 1304   2.475   1.649   3.203
 1700SOL    HW2 1305   2.569   1.564   3.101
 1704SOL     OW 1306   1.901   1.077   2.162
 1704SOL    HW1 1307   2.000   1.066   2.153
 1704SOL    HW2 1308   1.861   0.991   2.194
 1705SOL     OW 1309   2.737   1.646   2.199
 1705SOL    HW1 1310   2.660   1.611   2.145
 1705SOL    HW2 1311   2.705   1.717   2.261
 1719SOL     OW 1312   1.889   1.596   3.841
 1719SOL    HW1 1313   1.870   1.500   3.862
 1719SOL    HW2 1314   1.856   1.654   3.916
 1774SOL     OW 1315   2.534   1.616   3.878
 1774SOL    HW1 1316   2.543   1.626   3.779
 1774SOL    HW2 1317   2.494   1.527   3.899
 1777SOL     OW 1318   3.056   1.612   3.755
 1777SOL    HW1 1319   3.062   1.519   3.792
 1777SOL    HW2 1320   2.997   1.612   3.675
 1788SOL     OW 1321   2.721   1.374   3.740
 1788SOL    HW1 1322   2.675   1.389   3.828
 1788SOL    HW2 1323   2.765   1.459   3.710
 1802SOL     OW 1324   2.087   2.137   0.996
 1802SOL    HW1 1325   2.122   2.120   1.088
 1802SOL    HW2 1326   1.999   2.092   0.984
 1803SOL     OW 1327   1.881   2.230   0.647
 1803SOL    HW1 1328   1.799   2.273   0.686
 1803SOL    HW2 1329   1.853   2.157   0.584
 1804SOL     OW 1330   2.431   3.137   1.165
 1804SOL    HW1 1331   2.338   3.130   1.128
 1804SOL    HW2 1332   2.442   3.226   1.209
 1806SOL     OW 1333   2.997   2.565   0.717
 1806SOL    HW1 1334   3.054   2.643   0.692
 1806SOL    HW2 1335   2.937   2.591   0.793
 1808SOL     OW 1336   2.630   3.006   1.023
 1808SOL    HW1 1337   2.552   3.023   1.083
 1808SOL    HW2 1338   2.664   3.093   0.987
 1809SOL     OW 1339   2.712   2.660   1.823
 1809SOL    HW1 1340   2.708   2.736   1.888
 1809SOL    HW2 1341   2.734   2.696   1.732
 1810SOL     OW 1342   2.547   2.874   0.665
 1810SOL    HW1 1343   2.616   2.858   0.735
 1810SOL    HW2 1344   2.474   2.931   0.703
 1811SOL     OW 1345   2.548   3.023   1.803
 1811SOL    HW1 1346   2.608   3.102   1.817
 1811SOL    HW2 1347   2.462   3.054   1.762
 1812SOL     OW 1348   2.197   3.297   1.061
 1812SOL    HW1 1349   2.119   3.266   1.008
 1812SOL    HW2 1350   2.255   3.355   1.004
 1813SOL     OW 1351   3.322   3.367   1.339
 1813SOL    HW1 1352   3.346   3.461   1.365
 1813SOL    HW2 1353   3.306   3.313   1.421
 1814SOL     OW 1354   2.300   2.254   1.499
 1814SOL    HW1 1355   2.382   2.198   1.508
 1814SOL    HW2 1356   2.219   2.196   1.503
 1817SOL     OW 1357   2.989   3.203   1.690
 1817SOL    HW1 1358   3.036   3.203   1.778
 1817SOL    HW2 1359   2.941   3.116   1.679
 1819SOL     OW 1360   2.102   2.953   0.886
 1819SOL    HW1 1361   2.116   2.869   0.938
 1819SOL    HW2 1362   2.047   3.017   0.941
 1820SOL     OW 1363   2.482   3.648   1.439
 1820SOL    HW1 1364   2.390   3.631   1.474
 1820SOL    HW2 1365   2.510   3.740   1.465
 1822SOL     OW 1366   3.456   1.976   1.480
 1822SOL    HW1 1367   3.438   2.043   1.408
 1822SOL    HW2 1368   3.453   2.022   1.569
 1823SOL     OW 1369   1.984   2.505   0.563
 1823SOL    HW1 1370   1.939   2.417   0.580
 1823SOL    HW2 1371   1.983   2.559   0.647
 1828SOL     OW 1372   1.975   2.599   1.597
 1828SOL    HW1 1373   2.063   2.586   1.642
 1828SOL    HW2 1374   1.962   2.696   1.575
 1830SOL     OW 1375   3.155   3.090   1.423
 1830SOL    HW1 1376   3.192   3.017   1.365
 1830SOL    HW2 1377   3.207   3.095   1.508
 1832SOL     OW 1378   2.059   2.838   1.264
 1832SOL    HW1 1379   2.148   2.793   1.250
 1832SOL    HW2 1380   1.986   2.773   1.245
 1834SOL     OW 1381   3.049   3.654   1.616
 1834SOL    HW1 1382   3.073   3.714   1.540
 1834SOL    HW2 1383   3.056   3.559   1.586
 1835SOL     OW 1384   2.179   2.113   1.801
 1835SOL    HW1 1385   2.250   2.184   1.807
 1835SOL    HW2 1386   2.091   2.152   1.829
 1839SOL     OW 1387   3.143   2.207   0.944
 1839SOL    HW1 1388   3.057   2.157   0.931
 1839SOL    HW2 1389   3.205   2.153   1.000
 1841SOL     OW 1390   2.669   2.467   1.465
 1841SOL    HW1 1391   2.622   2.464   1.554
 1841SOL    HW2 1392   2.618   2.412   1.399
 1842SOL     OW 1393   3.256   2.331   1.674
 1842SOL    HW1 1394   3.236   2.374   1.762
 1842SOL    HW2 1395   3.334   2.269   1.683
 1843SOL     OW 1396   2.835   2.752   1.572
 1843SOL    HW1 1397   2.881   2.668   1.543
 1843SOL    HW2 1398   2.779   2.786   1.497
 1844SOL     OW 1399   2.853   2.272   1.242
 1844SOL    HW1 1400   2.776   2.306   1.296
 1844SOL    HW2 1401   2.819   2.221   1.163
 1846SOL     OW 1402   1.938   2.673   0.789
 1846SOL    HW1 1403   2.037   2.661   0.798
 1846SOL    HW2 1404   1.914   2.768   0.810
 1847SOL     OW 1405   1.992   3.683   1.571
 1847SOL    HW1 1406   1.982   3.668   1.670
 1847SOL    HW2 1407   1.906   3.719   1.535
 1849SOL     OW 1408   3.581   2.447   1.831
 1849SOL    HW1 1409   3.555   2.536   1.795
 1849SOL    HW2 1410   3.579   2.379   1.758
 1851SOL     OW 1411   2.412   2.058   0.885
 1851SOL    HW1 1412   2.407   2.053   0.985
 1851SOL    HW2 1413   2.414   2.154   0.856
 1855SOL     OW 1414   3.089   3.412   1.506
 1855SOL    HW1 1415   3.095   3.335   1.570
 1855SOL    HW2 1416   3.037   3.386   1.426
 1858SOL     OW 1417   2.323   3.128   1.727
 1858SOL    HW1 1418   2.273   3.129   1.641
 1858SOL    HW2 1419   2.260   3.110   1.803
 1860SOL     OW 1420   2.064   2.147   1.498
 1860SOL    HW1 1421   1.984   2.207   1.485
 1860SOL    HW2 1422   2.054   2.098   1.584
 1864SOL     OW 1423   2.111   3.647   1.241
 1864SOL    HW1 1424   2.168   3.582   1.291
 1864SOL    HW2 1425   2.095   3.614   1.148
 1867SOL     OW 1426   3.409   2.084   1.729
 1867SOL    HW1 1427   3.404   2.121   1.821
 1867SOL    HW2 1428   3.337   2.015   1.717
 1868SOL     OW 1429   2.643   2.126   1.749
 1868SOL    HW1 1430   2.710   2.065   1.792
 1868SOL    HW2 1431   2.570   2.145   1.814
 1869SOL     OW 1432   2.750   3.376   1.195
 1869SOL    HW1 1433   2.727   3.351   1.101
 1869SOL    HW2 1434   2.811   3.307   1.234
 1870SOL     OW 1435   3.213   2.452   1.433
 1870SOL    HW1 1436   3.241   2.409   1.518
 1870SOL    HW2 1437   3.238   2.548   1.434
 1871SOL     OW 1438   2.665   3.264   0.924
 1871SOL    HW1 1439   2.755   3.278   0.882
 1871SOL    HW2 1440   2.594   3.266   0.853
 1872SOL     OW 1441   2.784   2.365   0.899
 1872SOL    HW1 1442   2.759   2.356   0.803
 1872SOL    HW2 1443   2.832   2.283   0.930
 1877SOL     OW 1444   2.938   2.545   1.464
 1877SOL    HW1 1445   2.858   2.484   1.467
 1877SOL    HW2 1446   3.019   2.492   1.440
 1879SOL     OW 1447   2.321   3.014   0.741
 1879SOL    HW1 1448   2.250   2.987   0.806
 1879SOL    HW2 1449   2.295   2.986   0.648
 1882SOL     OW 1450   1.940   2.418   1.386
 1882SOL    HW1 1451   2.032   2.417   1.345
 1882SOL    HW2 1452   1.934   2.492   1.453
 1883SOL     OW 1453   2.423   2.084   1.147
 1883SOL    HW1 1454   2.461   2.000   1.184
 1883SOL    HW2 1455   2.335   2.103   1.191
 1884SOL     OW 1456   2.728   2.316   0.642
 1884SOL    HW1 1457   2.696   2.388   0.580
 1884SOL    HW2 1458   2.752   2.235   0.589
 1885SOL     OW 1459   2.879   1.901   0.753
 1885SOL    HW1 1460   2.807   1.906   0.684
 1885SOL    HW2 1461   2.855   1.832   0.822
 1887SOL     OW 1462   3.328   2.452   0.992
 1887SOL    HW1 1463   3.298   2.357   0.999
 1887SOL    HW2 1464   3.401   2.468   1.058
 1893SOL     OW 1465   3.616   3.085   1.588
 1893SOL    HW1 1466   3.707   3.046   1.575
 1893SOL    HW2 1467   3.624   3.181   1.612
 1894SOL     OW 1468   2.926   3.209   1.340
 1894SOL    HW1 1469   2.846   3.186   1.395
 1894SOL    HW2 1470   3.009   3.183   1.389
 1896SOL     OW 1471   2.973   3.057   1.100
 1896SOL    HW1 1472   2.933   3.101   1.181
 1896SOL    HW2 1473   2.932   3.094   1.017
 1898SOL     OW 1474   2.777   1.951   1.402
 1898SOL    HW1 1475   2.802   1.931   1.307
 1898SOL    HW2 1476   2.849   2.007   1.444
 1899SOL     OW 1477   2.842   2.978   1.719
 1899SOL    HW1 1478   2.743   2.984   1.729
 1899SOL    HW2 1479   2.865   2.898   1.663
 1901SOL     OW 1480   2.272   2.675   1.251
 1901SOL    HW1 1481   2.358   2.687   1.301
 1901SOL    HW2 1482   2.230   2.588   1.278
 1902SOL     OW 1483   3.136   2.248   1.262
 1902SOL    HW1 1484   3.157   2.322   1.326
 1902SOL    HW2 1485   3.047   2.265   1.219
 1903SOL     OW 1486   1.926   3.426   1.331
 1903SOL    HW1 1487   1.880   3.508   1.297
 1903SOL    HW2 1488   2.024   3.445   1.340
 1905SOL     OW 1489   2.428   2.399   0.865
 1905SOL    HW1 1490   2.440   2.465   0.791
 1905SOL    HW2 1491   2.474   2.433   0.948
 1907SOL     OW 1492   3.134   3.307   1.142
 1907SOL    HW1 1493   3.181   3.320   1.229
 1907SOL    HW2 1494   3.068   3.233   1.151
 1909SOL     OW 1495   2.216   3.372   1.329
 1909SOL    HW1 1496   2.195   3.328   1.242
 1909SOL    HW2 1497   2.313   3.398   1.332
 1910SOL     OW 1498   2.264   2.613   1.598
 1910SOL    HW1 1499   2.332   2.668   1.551
 1910SOL    HW2 1500   2.304   2.525   1.625
 1911SOL     OW 1501   3.449   2.641   1.670
 1911SOL    HW1 1502   3.357   2.679   1.665
 1911SOL    HW2 1503   3.509   2.688   1.605
 1912SOL     OW 1504   2.875   1.967   1.770
 1912SOL    HW1 1505   2.881   2.052   1.718
 1912SOL    HW2 1506   2.907   1.891   1.713
 1913SOL     OW 1507   2.366   1.912   1.740
 1913SOL    HW1 1508   2.324   1.855   1.670
 1913SOL    HW2 1509   2.300   1.981   1.772
 1914SOL     OW 1510   2.435   2.732   1.029
 1914SOL    HW1 1511   2.479   2.821   1.020
 1914SOL    HW2 1512   2.372   2.732   1.106
 1915SOL     OW 1513   3.222   2.724   1.045
 1915SOL    HW1 1514   3.147   2.724   0.979
 1915SOL    HW2 1515   3.259   2.632   1.054
 1917SOL     OW 1516   2.169   2.075   1.231
 1917SOL    HW1 1517   2.146   2.112   1.321
 1917SOL    HW2 1518   2.139   1.980   1.225
 1918SOL     OW 1519   1.899   3.172   1.282
 1918SOL    HW1 1520   1.952   3.123   1.350
 1918SOL    HW2 1521   1.921   3.270   1.287
 1919SOL     OW 1522   2.594   2.496   1.064
 1919SOL    HW1 1523   2.653   2.470   0.988
 1919SOL    HW2 1524   2.566   2.592   1.053
 1920SOL     OW 1525   3.590   2.797   1.854
 1920SOL    HW1 1526   3.544   2.790   1.765
 1920SOL    HW2 1527   3.528   2.841   1.920
 1921SOL     OW 1528   2.169   1.925   0.618
 1921SOL    HW1 1529   2.158   2.019   0.651
 1921SOL    HW2 1530   2.164   1.862   0.695
 1923SOL     OW 1531   2.885   2.628   0.966
 1923SOL    HW1 1532   2.900   2.649   1.062
 1923SOL    HW2 1533   2.855   2.533   0.957
 1924SOL     OW 1534   2.842   3.435   1.700
 1924SOL    HW1 1535   2.822   3.479   1.612
 1924SOL    HW2 1536   2.881   3.344   1.684
 1926SOL     OW 1537   2.212   2.760   1.804
 1926SOL    HW1 1538   2.288   2.804   1.852
 1926SOL    HW2 1539   2.247   2.713   1.722
 1930SOL     OW 1540   2.181   2.672   0.949
 1930SOL    HW1 1541   2.274   2.708   0.954
 1930SOL    HW2 1542   2.175   2.587   1.001
 1931SOL     OW 1543   2.201   2.371   1.006
 1931SOL    HW1 1544   2.149   2.288   0.989
 1931SOL    HW2 1545   2.278   2.376   0.942
 1932SOL     OW 1546   3.000   2.242   1.678
 1932SOL    HW1 1547   2.955   2.305   1.742
 1932SOL    HW2 1548   3.093   2.273   1.661
 1933SOL     OW 1549   3.022   2.069   1.477
 1933SOL    HW1 1550   3.022   2.133   1.554
 1933SOL    HW2 1551   3.050   2.117   1.394
 1936SOL     OW 1552   2.366   3.430   0.910
 1936SOL    HW1 1553   2.432   3.504   0.919
 1936SOL    HW2 1554   2.410   3.351   0.868
 1937SOL     OW 1555   2.864   2.658   1.238
 1937SOL    HW1 1556   2.905   2.626   1.324
 1937SOL    HW2 1557   2.768   2.631   1.235
 1938SOL     OW 1558   1.902   2.406   1.114
 1938SOL    HW1 1559   1.987   2.373   1.073
 1938SOL    HW2 1560   1.915   2.421   1.212
 1939SOL     OW 1561   2.051   2.382   1.722
 1939SOL    HW1 1562   2.110   2.342   1.652
 1939SOL    HW2 1563   1.993   2.453   1.681
 1940SOL     OW 1564   3.231   2.812   1.660
 1940SOL    HW1 1565   3.270   2.901   1.680
 1940SOL    HW2 1566   3.241   2.792   1.563
 1942SOL     OW 1567   3.519   2.466   1.206
 1942SOL    HW1 1568   3.481   2.397   1.268
 1942SOL    HW2 1569   3.601   2.430   1.162
 1943SOL     OW 1570   2.114   3.426   1.744
 1943SOL    HW1 1571   2.084   3.483   1.820
 1943SOL    HW2 1572   2.107   3.329   1.770
 1944SOL     OW 1573   2.533   2.326   1.269
 1944SOL    HW1 1574   2.499   2.237   1.239
 1944SOL    HW2 1575   2.559   2.380   1.189
 1945SOL     OW 1576   2.792   3.540   1.465
 1945SOL    HW1 1577   2.768   3.522   1.370
 1945SOL    HW2 1578   2.822   3.634   1.475
 1947SOL     OW 1579   2.021   2.999   1.466
 1947SOL    HW1 1580   2.043   2.938   1.542
 1947SOL    HW2 1581   2.031   2.950   1.380
 1948SOL     OW 1582   3.209   2.921   1.234
 1948SOL    HW1 1583   3.233   2.858   1.160
 1948SOL    HW2 1584   3.119   2.961   1.216
 1952SOL     OW 1585   1.945   3.120   1.022
 1952SOL    HW1 1586   1.940   3.119   1.122
 1952SOL    HW2 1587   1.862   3.079   0.984
 1953SOL     OW 1588   2.550   3.524   1.716
 1953SOL    HW1 1589   2.494   3.605   1.725
 1953SOL    HW2 1590   2.602   3.528   1.630
 1957SOL     OW 1591   1.992   3.656   1.851
 1957SOL    HW1 1592   1.951   3.582   1.904
 1957SOL    HW2 1593   2.056   3.707   1.909
 1959SOL     OW 1594   2.692   3.135   1.422
 1959SOL    HW1 1595   2.687   3.168   1.517
 1959SOL    HW2 1596   2.606   3.154   1.376
 1963SOL     OW 1597   2.125   2.188   0.720
 1963SOL    HW1 1598   2.046   2.239   0.686
 1963SOL    HW2 1599   2.116   2.173   0.818
 1965SOL     OW 1600   2.684   2.864   1.372
 1965SOL    HW1 1601   2.724   2.863   1.280
 1965SOL    HW2 1602   2.694   2.956   1.412
 1968SOL     OW 1603   2.234   3.150   1.490
 1968SOL    HW1 1604   2.221   3.243   1.456
 1968SOL    HW2 1605   2.150   3.098   1.477
 1969SOL     OW 1606   3.476   3.154   1.289
 1969SOL    HW1 1607   3.536   3.157   1.369
 1969SOL    HW2 1608   3.401   3.218   1.302
 1971SOL     OW 1609   2.876   2.098   0.971
 1971SOL    HW1 1610   2.868   2.062   0.878
 1971SOL    HW2 1611   2.874   2.022   1.036
 1973SOL     OW 1612   3.571   2.247   1.381
 1973SOL    HW1 1613   3.644   2.316   1.385
 1973SOL    HW2 1614   3.599   2.172   1.322
 1975SOL     OW 1615   1.967   2.875   1.726
 1975SOL    HW1 1616   1.890   2.842   1.780
 1975SOL    HW2 1617   2.052   2.845   1.768
 1976SOL     OW 1618   2.534   2.065   1.489
 1976SOL    HW1 1619   2.624   2.049   1.449
 1976SOL    HW2 1620   2.542   2.070   1.588
 1978SOL     OW 1621   3.302   2.718   1.398
 1978SOL    HW1 1622   3.245   2.770   1.335
 1978SOL    HW2 1623   3.398   2.730   1.374
 1981SOL     OW 1624   2.475   2.704   1.431
 1981SOL    HW1 1625   2.531   2.785   1.414
 1981SOL    HW2 1626   2.534   2.624   1.434
 1983SOL     OW 1627   2.578   2.427   1.708
 1983SOL    HW1 1628   2.597   2.492   1.782
 1983SOL    HW2 1629   2.638   2.347   1.717
 1984SOL     OW 1630   3.312   3.082   1.633
 1984SOL    HW1 1631   3.303   3.072   1.732
 1984SOL    HW2 1632   3.408   3.075   1.607
 1985SOL     OW 1633   2.252   3.603   1.560
 1985SOL    HW1 1634   2.161   3.644   1.558
 1985SOL    HW2 1635   2.245   3.509   1.592
 1986SOL     OW 1636   3.536   2.745   1.254
 1986SOL    HW1 1637   3.509   2.656   1.217
 1986SOL    HW2 1638   3.537   2.813   1.181
 1988SOL     OW 1639   2.456   2.607   0.652
 1988SOL    HW1 1640   2.506   2.692   0.633
 1988SOL    HW2 1641   2.368   2.609   0.604
 1989SOL     OW 1642   3.639   2.204   1.642
 1989SOL    HW1 1643   3.622   2.235   1.548
 1989SOL    HW2 1644   3.555   2.167   1.680
 1990SOL     OW 1645   3.592   2.796   1.517
 1990SOL    HW1 1646   3.630   2.887   1.532
 1990SOL    HW2 1647   3.584   2.779   1.418
 1993SOL     OW 1648   2.721   2.818   0.861
 1993SOL    HW1 1649   2.775   2.749   0.909
 1993SOL    HW2 1650   2.689   2.887   0.927
 1996SOL     OW 1651   2.083   3.176   1.844
 1996SOL    HW1 1652   2.018   3.103   1.823
 1996SOL    HW2 1653   2.087   3.190   1.942
 1998SOL     OW 1654   2.534   3.253   1.624
 1998SOL    HW1 1655   2.456   3.203   1.662
 1998SOL    HW2 1656   2.531   3.348   1.655
 1999SOL     OW 1657   3.686   2.054   1.227
 1999SOL    HW1 1658   3.682   1.964   1.271
 1999SOL    HW2 1659   3.689   2.043   1.128
 2000SOL     OW 1660   2.290   2.286   0.520
 2000SOL    HW1 1661   2.320   2.214   0.458
 2000SOL    HW2 1662   2.251   2.246   0.603
 2002SOL     OW 1663   2.179   2.409   1.280
 2002SOL    HW1 1664   2.217   2.350   1.352
 2002SOL    HW2 1665   2.219   2.383   1.192
 2004SOL     OW 1666   3.286   2.076   1.112
 2004SOL    HW1 1667   3.338   2.011   1.167
 2004SOL    HW2 1668   3.237   2.139   1.173
 2005SOL     OW 1669   2.863   1.896   1.154
 2005SOL    HW1 1670   2.800   1.824   1.123
 2005SOL    HW2 1671   2.956   1.860   1.154
 2007SOL     OW 1672   2.480   3.429   1.284
 2007SOL    HW1 1673   2.475   3.511   1.341
 2007SOL    HW2 1674   2.569   3.426   1.239
 2013SOL     OW 1675   2.092   2.490   1.975
 2013SOL    HW1 1676   1.999   2.488   2.012
 2013SOL    HW2 1677   2.093   2.451   1.883
 2014SOL     OW 1678   2.087   2.137   2.858
 2014SOL    HW1 1679   2.122   2.120   2.950
 2014SOL    HW2 1680   1.999   2.092   2.846
 2015SOL     OW 1681   1.881   2.230   2.509
 2015SOL    HW1 1682   1.799   2.273   2.548
 2015SOL    HW2 1683   1.853   2.157   2.446
 2016SOL     OW 1684   2.431   3.137   3.027
 2016SOL    HW1 1685   2.338   3.130   2.990
 2016SOL    HW2 1686   2.442   3.226   3.071
 2017SOL     OW 1687   3.417   3.373   2.565
 2017SOL    HW1 1688   3.360   3.357   2.646
 2017SOL    HW2 1689   3.358   3.383   2.485
 2018SOL     OW 1690   2.997   2.565   2.579
 2018SOL    HW1 1691   3.054   2.643   2.554
 2018SOL    HW2 1692   2.937   2.591   2.655
 2019SOL     OW 1693   3.617   2.469   2.093
 2019SOL    HW1 1694   3.605   2.456   1.994
 2019SOL    HW2 1695   3.587   2.388   2.142
 2020SOL     OW 1696   2.630   3.006   2.885
 2020SOL    HW1 1697   2.552   3.023   2.945
 2020SOL    HW2 1698   2.664   3.093   2.849
 2021SOL     OW 1699   2.712   2.660   3.685
 2021SOL    HW1 1700   2.708   2.736   3.750
 2021SOL    HW2 1701   2.734   2.696   3.594
 2022SOL     OW 1702   2.547   2.874   2.527
 2022SOL    HW1 1703   2.616   2.858   2.597
 2022SOL    HW2 1704   2.474   2.931   2.565
 2023SOL     OW 1705   2.548   3.023   3.665
 2023SOL    HW1 1706   2.608   3.102   3.679
 2023SOL    HW2 1707   2.462   3.054   3.624
 2024SOL     OW 1708   2.197   3.297   2.923
 2024SOL    HW1 1709   2.119   3.266   2.870
 2024SOL    HW2 1710   2.255   3.355   2.866
 2025SOL     OW 1711   3.322   3.367   3.201
 2025SOL    HW1 1712   3.346   3.461   3.227
 2025SOL    HW2 1713   3.306   3.313   3.283
 2026SOL     OW 1714   2.300   2.254   3.361
 2026SOL    HW1 1715   2.382   2.198   3.370
 2026SOL    HW2 1716   2.219   2.196   3.365
 2027SOL     OW 1717   3.465   2.309   2.599
 2027SOL    HW1 1718   3.391   2.355   2.549
 2027SOL    HW2 1719   3.516   2.377   2.652
 2028SOL     OW 1720   2.093   3.575   2.345
 2028SOL    HW1 1721   2.127   3.652   2.399
 2028SOL    HW2 1722   2.137   3.575   2.255
 2029SOL     OW 1723   2.989   3.203   3.552
 2029SOL    HW1 1724   3.036   3.203   3.640
 2029SOL    HW2 1725   2.941   3.116   3.541
 2030SOL     OW 1726   2.092   3.296   2.400
 2030SOL    HW1 1727   2.066   3.392   2.400
 2030SOL    HW2 1728   2.021   3.242   2.445
 2031SOL     OW 1729   2.102   2.953   2.748
 2031SOL    HW1 1730   2.116   2.869   2.800
 2031SOL    HW2 1731   2.047   3.017   2.803
 2032SOL     OW 1732   2.482   3.648   3.301
 2032SOL    HW1 1733   2.390   3.631   3.336
 2032SOL    HW2 1734   2.510   3.740   3.327
 2033SOL     OW 1735   2.468   2.826   1.985
 2033SOL    HW1 1736   2.475   2.910   1.931
 2033SOL    HW2 1737   2.514   2.839   2.073
 2034SOL     OW 1738   3.456   1.976   3.342
 2034SOL    HW1 1739   3.438   2.043   3.270
 2034SOL    HW2 1740   3.453   2.022   3.431
 2035SOL     OW 1741   1.984   2.505   2.425
 2035SOL    HW1 1742   1.939   2.417   2.442
 2035SOL    HW2 1743   1.983   2.559   2.509
 2037SOL     OW 1744   1.889   3.458   1.979
 2037SOL    HW1 1745   1.870   3.362   2.000
 2037SOL    HW2 1746   1.856   3.516   2.054
 2038SOL     OW 1747   3.551   2.784   2.474
 2038SOL    HW1 1748   3.646   2.755   2.482
 2038SOL    HW2 1749   3.543   2.849   2.399
 2039SOL     OW 1750   3.503   2.970   2.294
 2039SOL    HW1 1751   3.589   2.972   2.242
 2039SOL    HW2 1752   3.517   3.017   2.382
 2040SOL     OW 1753   1.975   2.599   3.459
 2040SOL    HW1 1754   2.063   2.586   3.504
 2040SOL    HW2 1755   1.962   2.696   3.437
 2041SOL     OW 1756   2.475   3.227   2.588
 2041SOL    HW1 1757   2.426   3.140   2.597
 2041SOL    HW2 1758   2.452   3.270   2.501
 2042SOL     OW 1759   3.155   3.090   3.285
 2042SOL    HW1 1760   3.192   3.017   3.227
 2042SOL    HW2 1761   3.207   3.095   3.370
 2043SOL     OW 1762   2.671   1.866   2.364
 2043SOL    HW1 1763   2.711   1.957   2.355
 2043SOL    HW2 1764   2.571   1.874   2.370
 2044SOL     OW 1765   2.059   2.838   3.126
 2044SOL    HW1 1766   2.148   2.793   3.112
 2044SOL    HW2 1767   1.986   2.773   3.107
 2045SOL     OW 1768   3.387   2.861   2.052
 2045SOL    HW1 1769   3.324   2.785   2.065
 2045SOL    HW2 1770   3.435   2.879   2.138
 2047SOL     OW 1771   2.179   2.113   3.663
 2047SOL    HW1 1772   2.250   2.184   3.669
 2047SOL    HW2 1773   2.091   2.152   3.691
 2048SOL     OW 1774   3.328   3.279   2.815
 2048SOL    HW1 1775   3.269   3.285   2.895
 2048SOL    HW2 1776   3.313   3.191   2.769
 2049SOL     OW 1777   3.529   3.576   2.434
 2049SOL    HW1 1778   3.488   3.553   2.346
 2049SOL    HW2 1779   3.511   3.502   2.499
 2050SOL     OW 1780   2.460   2.591   2.132
 2050SOL    HW1 1781   2.484   2.660   2.064
 2050SOL    HW2 1782   2.382   2.624   2.186
 2051SOL     OW 1783   3.143   2.207   2.806
 2051SOL    HW1 1784   3.057   2.157   2.793
 2051SOL    HW2 1785   3.205   2.153   2.862
 2052SOL     OW 1786   3.438   3.524   2.169
 2052SOL    HW1 1787   3.527   3.570   2.172
 2052SOL    HW2 1788   3.417   3.500   2.074
 2053SOL     OW 1789   2.669   2.467   3.327
 2053SOL    HW1 1790   2.622   2.464   3.416
 2053SOL    HW2 1791   2.618   2.412   3.261
 2054SOL     OW 1792   3.256   2.331   3.536
 2054SOL    HW1 1793   3.236   2.374   3.624
 2054SOL    HW2 1794   3.334   2.269   3.545
 2055SOL     OW 1795   2.835   2.752   3.434
 2055SOL    HW1 1796   2.881   2.668   3.405
 2055SOL    HW2 1797   2.779   2.786   3.359
 2056SOL     OW 1798   2.853   2.272   3.104
 2056SOL    HW1 1799   2.776   2.306   3.158
 2056SOL    HW2 1800   2.819   2.221   3.025
 2057SOL     OW 1801   2.903   2.563   2.291
 2057SOL    HW1 1802   2.929   2.559   2.387
 2057SOL    HW2 1803   2.818   2.512   2.277
 2058SOL     OW 1804   1.938   2.673   2.651
 2058SOL    HW1 1805   2.037   2.661   2.660
 2058SOL    HW2 1806   1.914   2.768   2.672
 2060SOL     OW 1807   2.727   2.210   2.057
 2060SOL    HW1 1808   2.786   2.273   2.008
 2060SOL    HW2 1809   2.746   2.116   2.028
 2062SOL     OW 1810   3.224   3.006   2.407
 2062SOL    HW1 1811   3.307   2.977   2.359
 2062SOL    HW2 1812   3.175   3.073   2.351
 2063SOL     OW 1813   2.412   2.058   2.747
 2063SOL    HW1 1814   2.407   2.053   2.847
 2063SOL    HW2 1815   2.414   2.154   2.718
 2064SOL     OW 1816   2.870   3.318   2.339
 2064SOL    HW1 1817   2.824   3.390   2.287
 2064SOL    HW2 1818   2.866   3.338   2.437
 2065SOL     OW 1819   2.213   3.663   2.715
 2065SOL    HW1 1820   2.263   3.577   2.721
 2065SOL    HW2 1821   2.278   3.740   2.712
 2066SOL     OW 1822   3.657   2.928   2.735
 2066SOL    HW1 1823   3.595   2.913   2.659
 2066SOL    HW2 1824   3.605   2.939   2.820
 2067SOL     OW 1825   3.089   3.412   3.368
 2067SOL    HW1 1826   3.095   3.335   3.432
 2067SOL    HW2 1827   3.037   3.386   3.288
 2068SOL     OW 1828   2.183   2.805   2.104
 2068SOL    HW1 1829   2.265   2.844   2.062
 2068SOL    HW2 1830   2.156   2.723   2.055
 2069SOL     OW 1831   3.320   2.597   2.590
 2069SOL    HW1 1832   3.315   2.532   2.665
 2069SOL    HW2 1833   3.400   2.656   2.603
 2070SOL     OW 1834   2.323   3.128   3.589
 2070SOL    HW1 1835   2.273   3.129   3.503
 2070SOL    HW2 1836   2.260   3.110   3.665
 2071SOL     OW 1837   2.973   3.638   2.099
 2071SOL    HW1 1838   2.913   3.576   2.149
 2071SOL    HW2 1839   3.004   3.594   2.014
 2072SOL     OW 1840   2.064   2.147   3.360
 2072SOL    HW1 1841   1.984   2.207   3.347
 2072SOL    HW2 1842   2.054   2.098   3.446
 2073SOL     OW 1843   3.494   3.239   1.943
 2073SOL    HW1 1844   3.462   3.333   1.933
 2073SOL    HW2 1845   3.418   3.176   1.931
 2074SOL     OW 1846   2.326   3.605   2.185
 2074SOL    HW1 1847   2.359   3.644   2.271
 2074SOL    HW2 1848   2.402   3.598   2.120
 2075SOL     OW 1849   3.262   1.969   2.288
 2075SOL    HW1 1850   3.238   1.932   2.198
 2075SOL    HW2 1851   3.361   1.985   2.292
 2076SOL     OW 1852   2.111   3.647   3.103
 2076SOL    HW1 1853   2.168   3.582   3.153
 2076SOL    HW2 1854   2.095   3.614   3.010
 2077SOL     OW 1855   2.802   3.560   2.766
 2077SOL    HW1 1856   2.882   3.503   2.787
 2077SOL    HW2 1857   2.753   3.520   2.689
 2078SOL     OW 1858   2.244   2.562   2.342
 2078SOL    HW1 1859   2.289   2.472   2.339
 2078SOL    HW2 1860   2.150   2.551   2.375
 2079SOL     OW 1861   3.409   2.084   3.591
 2079SOL    HW1 1862   3.404   2.121   3.683
 2079SOL    HW2 1863   3.337   2.015   3.579
 2080SOL     OW 1864   2.476   1.984   1.979
 2080SOL    HW1 1865   2.574   1.962   1.986
 2080SOL    HW2 1866   2.445   1.967   1.886
 2081SOL     OW 1867   2.643   2.126   3.611
 2081SOL    HW1 1868   2.710   2.065   3.654
 2081SOL    HW2 1869   2.570   2.145   3.676
 2082SOL     OW 1870   2.750   3.376   3.057
 2082SOL    HW1 1871   2.727   3.351   2.963
 2082SOL    HW2 1872   2.811   3.307   3.096
 2083SOL     OW 1873   3.213   2.452   3.295
 2083SOL    HW1 1874   3.241   2.409   3.380
 2083SOL    HW2 1875   3.238   2.548   3.296
 2084SOL     OW 1876   2.665   3.264   2.786
 2084SOL    HW1 1877   2.755   3.278   2.744
 2084SOL    HW2 1878   2.594   3.266   2.715
 2085SOL     OW 1879   2.784   2.365   2.761
 2085SOL    HW1 1880   2.759   2.356   2.665
 2085SOL    HW2 1881   2.832   2.283   2.792
 2086SOL     OW 1882   2.401   1.926   2.374
 2086SOL    HW1 1883   2.320   1.927   2.432
 2086SOL    HW2 1884   2.404   2.009   2.319
 2087SOL     OW 1885   3.296   3.050   1.903
 2087SOL    HW1 1886   3.328   2.974   1.960
 2087SOL    HW2 1887   3.204   3.077   1.933
 2088SOL     OW 1888   2.159   1.897   2.033
 2088SOL    HW1 1889   2.208   1.981   2.012
 2088SOL    HW2 1890   2.221   1.832   2.078
 2089SOL     OW 1891   2.797   2.098   2.342
 2089SOL    HW1 1892   2.749   2.139   2.264
 2089SOL    HW2 1893   2.896   2.096   2.323
 2090SOL     OW 1894   2.938   2.545   3.326
 2090SOL    HW1 1895   2.858   2.484   3.329
 2090SOL    HW2 1896   3.019   2.492   3.302
 2091SOL     OW 1897   3.089   3.432   2.655
 2091SOL    HW1 1898   3.110   3.506   2.590
 2091SOL    HW2 1899   3.157   3.432   2.728
 2092SOL     OW 1900   2.321   3.014   2.603
 2092SOL    HW1 1901   2.250   2.987   2.668
 2092SOL    HW2 1902   2.295   2.986   2.510
 2093SOL     OW 1903   3.133   3.659   2.453
 2093SOL    HW1 1904   3.177   3.723   2.389
 2093SOL    HW2 1905   3.083   3.711   2.523
 2094SOL     OW 1906   2.894   2.411   1.878
 2094SOL    HW1 1907   2.853   2.493   1.839
 2094SOL    HW2 1908   2.958   2.437   1.951
 2095SOL     OW 1909   1.940   2.418   3.248
 2095SOL    HW1 1910   2.032   2.417   3.207
 2095SOL    HW2 1911   1.934   2.492   3.315
 2096SOL     OW 1912   2.423   2.084   3.009
 2096SOL    HW1 1913   2.461   2.000   3.046
 2096SOL    HW2 1914   2.335   2.103   3.053
 2097SOL     OW 1915   2.728   2.316   2.504
 2097SOL    HW1 1916   2.696   2.388   2.442
 2097SOL    HW2 1917   2.752   2.235   2.451
 2098SOL     OW 1918   2.879   1.901   2.615
 2098SOL    HW1 1919   2.807   1.906   2.546
 2098SOL    HW2 1920   2.855   1.832   2.684
 2099SOL     OW 1921   3.291   3.035   2.729
 2099SOL    HW1 1922   3.236   2.951   2.722
 2099SOL    HW2 1923   3.317   3.064   2.637
 2100SOL     OW 1924   3.328   2.452   2.854
 2100SOL    HW1 1925   3.298   2.357   2.861
 2100SOL    HW2 1926   3.401   2.468   2.920
 2101SOL     OW 1927   3.719   2.695   2.239
 2101SOL    HW1 1928   3.761   2.631   2.303
 2101SOL    HW2 1929   3.681   2.644   2.161
 2102SOL     OW 1930   2.350   3.247   2.036
 2102SOL    HW1 1931   2.263   3.232   2.083
 2102SOL    HW2 1932   2.333   3.273   1.941
 2103SOL     OW 1933   3.526   3.142   2.519
 2103SOL    HW1 1934   3.625   3.150   2.533
 2103SOL    HW2 1935   3.481   3.226   2.550
 2104SOL     OW 1936   3.252   2.437   1.940
 2104SOL    HW1 1937   3.198   2.416   2.021
 2104SOL    HW2 1938   3.343   2.396   1.949
 2106SOL     OW 1939   2.926   3.209   3.202
 2106SOL    HW1 1940   2.846   3.186   3.257
 2106SOL    HW2 1941   3.009   3.183   3.251
 2108SOL     OW 1942   2.973   3.057   2.962
 2108SOL    HW1 1943   2.933   3.101   3.043
 2108SOL    HW2 1944   2.932   3.094   2.879
 2109SOL     OW 1945   3.500   2.961   2.941
 2109SOL    HW1 1946   3.505   3.042   3.000
 2109SOL    HW2 1947   3.414   2.963   2.890
 2110SOL     OW 1948   2.777   1.951   3.264
 2110SOL    HW1 1949   2.802   1.931   3.169
 2110SOL    HW2 1950   2.849   2.007   3.306
 2111SOL     OW 1951   2.842   2.978   3.581
 2111SOL    HW1 1952   2.743   2.984   3.591
 2111SOL    HW2 1953   2.865   2.898   3.525
 2112SOL     OW 1954   2.567   2.912   2.230
 2112SOL    HW1 1955   2.553   2.919   2.329
 2112SOL    HW2 1956   2.651   2.861   2.212
 2113SOL     OW 1957   2.272   2.675   3.113
 2113SOL    HW1 1958   2.358   2.687   3.163
 2113SOL    HW2 1959   2.230   2.588   3.140
 2114SOL     OW 1960   3.136   2.248   3.124
 2114SOL    HW1 1961   3.157   2.322   3.188
 2114SOL    HW2 1962   3.047   2.265   3.081
 2115SOL     OW 1963   1.926   3.426   3.193
 2115SOL    HW1 1964   1.880   3.508   3.159
 2115SOL    HW2 1965   2.024   3.445   3.202
 2116SOL     OW 1966   2.229   2.962   2.363
 2116SOL    HW1 1967   2.222   3.045   2.307
 2116SOL    HW2 1968   2.233   2.882   2.303
 2117SOL     OW 1969   2.428   2.399   2.727
 2117SOL    HW1 1970   2.440   2.465   2.653
 2117SOL    HW2 1971   2.474   2.433   2.810
 2118SOL     OW 1972   3.114   3.210   2.250
 2118SOL    HW1 1973   3.164   3.287   2.290
 2118SOL    HW2 1974   3.019   3.212   2.282
 2119SOL     OW 1975   3.134   3.307   3.004
 2119SOL    HW1 1976   3.181   3.320   3.091
 2119SOL    HW2 1977   3.068   3.233   3.013
 2120SOL     OW 1978   3.444   2.501   2.334
 2120SOL    HW1 1979   3.413   2.562   2.407
 2120SOL    HW2 1980   3.494   2.553   2.265
 2121SOL     OW 1981   2.216   3.372   3.191
 2121SOL    HW1 1982   2.195   3.328   3.104
 2121SOL    HW2 1983   2.313   3.398   3.194
 2122SOL     OW 1984   2.264   2.613   3.460
 2122SOL    HW1 1985   2.332   2.668   3.413
 2122SOL    HW2 1986   2.304   2.525   3.487
 2123SOL     OW 1987   3.449   2.641   3.532
 2123SOL    HW1 1988   3.357   2.679   3.527
 2123SOL    HW2 1989   3.509   2.688   3.467
 2124SOL     OW 1990   2.875   1.967   3.632
 2124SOL    HW1 1991   2.881   2.052   3.580
 2124SOL    HW2 1992   2.907   1.891   3.575
 2125SOL     OW 1993   2.366   1.912   3.602
 2125SOL    HW1 1994   2.324   1.855   3.532
 2125SOL    HW2 1995   2.300   1.981   3.634
 2126SOL     OW 1996   2.435   2.732   2.891
 2126SOL    HW1 1997   2.479   2.821   2.882
 2126SOL    HW2 1998   2.372   2.732   2.968
 2127SOL     OW 1999   3.222   2.724   2.907
 2127SOL    HW1 2000   3.147   2.724   2.841
 2127SOL    HW2 2001   3.259   2.632   2.916
 2128SOL     OW 2002   3.071   2.387   2.137
 2128SOL    HW1 2003   3.084   2.303   2.191
 2128SOL    HW2 2004   3.042   2.461   2.197
 2129SOL     OW 2005   2.169   2.075   3.093
 2129SOL    HW1 2006   2.146   2.112   3.183
 2129SOL    HW2 2007   2.139   1.980   3.087
 2130SOL     OW 2008   1.899   3.172   3.144
 2130SOL    HW1 2009   1.952   3.123   3.212
 2130SOL    HW2 2010   1.921   3.270   3.149
 2131SOL     OW 2011   2.594   2.496   2.926
 2131SOL    HW1 2012   2.653   2.470   2.850
 2131SOL    HW2 2013   2.566   2.592   2.915
 2133SOL     OW 2014   2.169   1.925   2.480
 2133SOL    HW1 2015   2.158   2.019   2.513
 2133SOL    HW2 2016   2.164   1.862   2.557
 2134SOL     OW 2017   3.484   2.229   2.236
 2134SOL    HW1 2018   3.486   2.153   2.300
 2134SOL    HW2 2019   3.436   2.306   2.276
 2135SOL     OW 2020   2.885   2.628   2.828
 2135SOL    HW1 2021   2.900   2.649   2.924
 2135SOL    HW2 2022   2.855   2.533   2.819
 2138SOL     OW 2023   2.212   2.760   3.666
 2138SOL    HW1 2024   2.288   2.804   3.714
 2138SOL    HW2 2025   2.247   2.713   3.584
 2139SOL     OW 2026   3.402   2.136   1.987
 2139SOL    HW1 2027   3.341   2.061   2.010
 2139SOL    HW2 2028   3.424   2.188   2.070
 2140SOL     OW 2029   3.165   2.700   1.904
 2140SOL    HW1 2030   3.199   2.607   1.919
 2140SOL    HW2 2031   3.183   2.727   1.809
 2141SOL     OW 2032   2.930   3.195   2.711
 2141SOL    HW1 2033   2.937   3.111   2.656
 2141SOL    HW2 2034   2.992   3.264   2.675
 2142SOL     OW 2035   2.181   2.672   2.811
 2142SOL    HW1 2036   2.274   2.708   2.816
 2142SOL    HW2 2037   2.175   2.587   2.863
 2143SOL     OW 2038   2.201   2.371   2.868
 2143SOL    HW1 2039   2.149   2.288   2.851
 2143SOL    HW2 2040   2.278   2.376   2.804
 2144SOL     OW 2041   3.000   2.242   3.540
 2144SOL    HW1 2042   2.955   2.305   3.604
 2144SOL    HW2 2043   3.093   2.273   3.523
 2145SOL     OW 2044   3.022   2.069   3.339
 2145SOL    HW1 2045   3.022   2.133   3.416
 2145SOL    HW2 2046   3.050   2.117   3.256
 2146SOL     OW 2047   1.870   3.188   2.062
 2146SOL    HW1 2048   1.777   3.209   2.031
 2146SOL    HW2 2049   1.880   3.089   2.075
 2147SOL     OW 2050   1.950   3.663   2.789
 2147SOL    HW1 2051   1.908   3.577   2.762
 2147SOL    HW2 2052   2.044   3.666   2.755
 2148SOL     OW 2053   2.366   3.430   2.772
 2148SOL    HW1 2054   2.432   3.504   2.781
 2148SOL    HW2 2055   2.410   3.351   2.730
 2149SOL     OW 2056   2.864   2.658   3.100
 2149SOL    HW1 2057   2.905   2.626   3.186
 2149SOL    HW2 2058   2.768   2.631   3.097
 2150SOL     OW 2059   1.902   2.406   2.976
 2150SOL    HW1 2060   1.987   2.373   2.935
 2150SOL    HW2 2061   1.915   2.421   3.074
 2151SOL     OW 2062   2.051   2.382   3.584
 2151SOL    HW1 2063   2.110   2.342   3.514
 2151SOL    HW2 2064   1.993   2.453   3.543
 2152SOL     OW 2065   3.231   2.812   3.522
 2152SOL    HW1 2066   3.270   2.901   3.542
 2152SOL    HW2 2067   3.241   2.792   3.425
 2153SOL     OW 2068   2.677   2.434   2.187
 2153SOL    HW1 2069   2.684   2.345   2.141
 2153SOL    HW2 2070   2.583   2.468   2.179
 2154SOL     OW 2071   3.519   2.466   3.068
 2154SOL    HW1 2072   3.481   2.397   3.130
 2154SOL    HW2 2073   3.601   2.430   3.024
 2155SOL     OW 2074   2.114   3.426   3.606
 2155SOL    HW1 2075   2.084   3.483   3.682
 2155SOL    HW2 2076   2.107   3.329   3.632
 2156SOL     OW 2077   2.533   2.326   3.131
 2156SOL    HW1 2078   2.499   2.237   3.101
 2156SOL    HW2 2079   2.559   2.380   3.051
 2157SOL     OW 2080   2.792   3.540   3.327
 2157SOL    HW1 2081   2.768   3.522   3.232
 2157SOL    HW2 2082   2.822   3.634   3.337
 2158SOL     OW 2083   2.335   2.362   2.053
 2158SOL    HW1 2084   2.396   2.442   2.057
 2158SOL    HW2 2085   2.240   2.393   2.060
 2159SOL     OW 2086   2.021   2.999   3.328
 2159SOL    HW1 2087   2.043   2.938   3.404
 2159SOL    HW2 2088   2.031   2.950   3.242
 2160SOL     OW 2089   3.209   2.921   3.096
 2160SOL    HW1 2090   3.233   2.858   3.022
 2160SOL    HW2 2091   3.119   2.961   3.078
 2161SOL     OW 2092   3.164   2.717   2.171
 2161SOL    HW1 2093   3.078   2.686   2.213
 2161SOL    HW2 2094   3.160   2.703   2.072
 2163SOL     OW 2095   3.114   3.593   2.990
 2163SOL    HW1 2096   3.198   3.598   2.936
 2163SOL    HW2 2097   3.091   3.497   3.008
 2164SOL     OW 2098   1.945   3.120   2.884
 2164SOL    HW1 2099   1.940   3.119   2.984
 2164SOL    HW2 2100   1.862   3.079   2.846
 2166SOL     OW 2101   3.588   1.997   2.385
 2166SOL    HW1 2102   3.661   1.980   2.318
 2166SOL    HW2 2103   3.557   1.910   2.423
 2167SOL     OW 2104   3.250   3.435   2.339
 2167SOL    HW1 2105   3.317   3.447   2.265
 2167SOL    HW2 2106   3.210   3.524   2.362
 2169SOL     OW 2107   3.142   2.789   2.534
 2169SOL    HW1 2108   3.202   2.708   2.536
 2169SOL    HW2 2109   3.182   2.858   2.474
 2170SOL     OW 2110   2.692   3.135   3.284
 2170SOL    HW1 2111   2.687   3.168   3.379
 2170SOL    HW2 2112   2.606   3.154   3.238
 2171SOL     OW 2113   2.534   3.478   2.016
 2171SOL    HW1 2114   2.543   3.488   1.917
 2171SOL    HW2 2115   2.494   3.389   2.037
 2173SOL     OW 2116   3.703   2.037   2.825
 2173SOL    HW1 2117   3.742   1.952   2.789
 2173SOL    HW2 2118   3.605   2.039   2.806
 2174SOL     OW 2119   2.125   2.188   2.582
 2174SOL    HW1 2120   2.046   2.239   2.548
 2174SOL    HW2 2121   2.116   2.173   2.680
 2175SOL     OW 2122   3.056   3.474   1.893
 2175SOL    HW1 2123   3.062   3.381   1.930
 2175SOL    HW2 2124   2.997   3.474   1.813
 2176SOL     OW 2125   2.684   2.864   3.234
 2176SOL    HW1 2126   2.724   2.863   3.142
 2176SOL    HW2 2127   2.694   2.956   3.274
 2177SOL     OW 2128   2.778   2.772   2.153
 2177SOL    HW1 2129   2.841   2.810   2.085
 2177SOL    HW2 2130   2.818   2.689   2.192
 2178SOL     OW 2131   3.366   3.469   1.906
 2178SOL    HW1 2132   3.274   3.506   1.913
 2178SOL    HW2 2133   3.404   3.489   1.816
 2179SOL     OW 2134   2.234   3.150   3.352
 2179SOL    HW1 2135   2.221   3.243   3.318
 2179SOL    HW2 2136   2.150   3.098   3.339
 2180SOL     OW 2137   3.476   3.154   3.151
 2180SOL    HW1 2138   3.536   3.157   3.231
 2180SOL    HW2 2139   3.401   3.218   3.164
 2181SOL     OW 2140   2.901   2.960   2.558
 2181SOL    HW1 2141   2.831   2.913   2.612
 2181SOL    HW2 2142   2.960   2.892   2.515
 2182SOL     OW 2143   2.876   2.098   2.833
 2182SOL    HW1 2144   2.868   2.062   2.740
 2182SOL    HW2 2145   2.874   2.022   2.898
 2183SOL     OW 2146   2.452   3.349   2.353
 2183SOL    HW1 2147   2.494   3.291   2.283
 2183SOL    HW2 2148   2.408   3.428   2.309
 2184SOL     OW 2149   3.571   2.247   3.243
 2184SOL    HW1 2150   3.644   2.316   3.247
 2184SOL    HW2 2151   3.599   2.172   3.184
 2185SOL     OW 2152   2.117   3.210   2.152
 2185SOL    HW1 2153   2.021   3.211   2.125
 2185SOL    HW2 2154   2.129   3.263   2.236
 2186SOL     OW 2155   1.967   2.875   3.588
 2186SOL    HW1 2156   1.890   2.842   3.642
 2186SOL    HW2 2157   2.052   2.845   3.630
 2187SOL     OW 2158   2.534   2.065   3.351
 2187SOL    HW1 2159   2.624   2.049   3.311
 2187SOL    HW2 2160   2.542   2.070   3.450
 2188SOL     OW 2161   1.937   2.207   1.895
 2188SOL    HW1 2162   1.845   2.179   1.866
 2188SOL    HW2 2163   1.968   2.284   1.839
 2189SOL     OW 2164   3.302   2.718   3.260
 2189SOL    HW1 2165   3.245   2.770   3.197
 2189SOL    HW2 2166   3.398   2.730   3.236
 2190SOL     OW 2167   1.934   2.028   2.180
 2190SOL    HW1 2168   1.917   2.111   2.126
 2190SOL    HW2 2169   2.024   1.991   2.158
 2191SOL     OW 2170   3.045   3.197   1.981
 2191SOL    HW1 2171   2.946   3.186   1.983
 2191SOL    HW2 2172   3.079   3.212   2.074
 2192SOL     OW 2173   2.475   2.704   3.293
 2192SOL    HW1 2174   2.531   2.785   3.276
 2192SOL    HW2 2175   2.534   2.624   3.296
 2193SOL     OW 2176   3.355   3.629   2.821
 2193SOL    HW1 2177   3.388   3.693   2.752
 2193SOL    HW2 2178   3.421   3.623   2.896
 2194SOL     OW 2179   2.578   2.427   3.570
 2194SOL    HW1 2180   2.597   2.492   3.644
 2194SOL    HW2 2181   2.638   2.347   3.579
 2195SOL     OW 2182   3.312   3.082   3.495
 2195SOL    HW1 2183   3.303   3.072   3.594
 2195SOL    HW2 2184   3.408   3.075   3.469
 2196SOL     OW 2185   2.252   3.603   3.422
 2196SOL    HW1 2186   2.161   3.644   3.420
 2196SOL    HW2 2187   2.245   3.509   3.454
 2197SOL     OW 2188   3.536   2.745   3.116
 2197SOL    HW1 2189   3.509   2.656   3.079
 2197SOL    HW2 2190   3.537   2.813   3.043
 2198SOL     OW 2191   3.087   2.187   2.311
 2198SOL    HW1 2192   3.152   2.113   2.300
 2198SOL    HW2 2193   3.107   2.237   2.395
 2199SOL     OW 2194   2.456   2.607   2.514
 2199SOL    HW1 2195   2.506   2.692   2.495
 2199SOL    HW2 2196   2.368   2.609   2.466
 2201SOL     OW 2197   3.592   2.796   3.379
 2201SOL    HW1 2198   3.630   2.887   3.394
 2201SOL    HW2 2199   3.584   2.779   3.280
 2202SOL     OW 2200   2.721   3.236   1.878
 2202SOL    HW1 2201   2.675   3.251   1.966
 2202SOL    HW2 2202   2.765   3.321   1.848
 2203SOL     OW 2203   2.523   3.652   2.815
 2203SOL    HW1 2204   2.477   3.740   2.802
 2203SOL    HW2 2205   2.622   3.664   2.808
 2204SOL     OW 2206   2.721   2.818   2.723
 2204SOL    HW1 2207   2.775   2.749   2.771
 2204SOL    HW2 2208   2.689   2.887   2.789
 2205SOL     OW 2209   2.945   2.846   1.949
 2205SOL    HW1 2210   2.922   2.899   1.867
 2205SOL    HW2 2211   3.026   2.790   1.930
 2207SOL     OW 2212   2.083   3.176   3.706
 2207SOL    HW1 2213   2.018   3.103   3.685
 2207SOL    HW2 2214   2.087   3.190   3.804
 2208SOL     OW 2215   1.941   3.102   2.515
 2208SOL    HW1 2216   1.940   3.055   2.603
 2208SOL    HW2 2217   2.023   3.074   2.464
 2209SOL     OW 2218   2.534   3.253   3.486
 2209SOL    HW1 2219   2.456   3.203   3.524
 2209SOL    HW2 2220   2.531   3.348   3.517
 2210SOL     OW 2221   3.686   2.054   3.089
 2210SOL    HW1 2222   3.682   1.964   3.133
 2210SOL    HW2 2223   3.689   2.043   2.990
 2211SOL     OW 2224   3.567   3.349   2.966
 2211SOL    HW1 2225   3.474   3.324   2.939
 2211SOL    HW2 2226   3.593   3.299   3.048
 2212SOL     OW 2227   2.179   2.409   3.142
 2212SOL    HW1 2228   2.217   2.350   3.214
 2212SOL    HW2 2229   2.219   2.383   3.054
 2213SOL     OW 2230   2.674   3.448   2.549
 2213SOL    HW1 2231   2.706   3.458   2.455
 2213SOL    HW2 2232   2.595   3.386   2.551
 2214SOL     OW 2233   3.286   2.076   2.974
 2214SOL    HW1 2234   3.338   2.011   3.029
 2214SOL    HW2 2235   3.237   2.139   3.035
 2215SOL     OW 2236   2.863   1.896   3.016
 2215SOL    HW1 2237   2.800   1.824   2.985
 2215SOL    HW2 2238   2.956   1.860   3.016
 2216SOL     OW 2239   2.632   3.192   2.163
 2216SOL    HW1 2240   2.586   3.105   2.180
 2216SOL    HW2 2241   2.723   3.189   2.204
 2217SOL     OW 2242   2.480   3.429   3.146
 2217SOL    HW1 2243   2.475   3.511   3.203
 2217SOL    HW2 2244   2.569   3.426   3.101
 2218SOL     OW 2245   3.214   1.914   2.030
 2218SOL    HW1 2246   3.249   1.873   1.946
 2218SOL    HW2 2247   3.124   1.876   2.050
 2219SOL     OW 2248   3.162   2.315   2.553
 2219SOL    HW1 2249   3.103   2.395   2.557
 2219SOL    HW2 2250   3.177   2.280   2.646
 2220SOL     OW 2251   3.455   2.083   2.744
 2220SOL    HW1 2252   3.371   2.082   2.798
 2220SOL    HW2 2253   3.457   2.166   2.688
 2221SOL     OW 2254   1.901   2.939   2.162
 2221SOL    HW1 2255   2.000   2.928   2.153
 2221SOL    HW2 2256   1.861   2.853   2.194
 2222SOL     OW 2257   2.737   3.508   2.199
 2222SOL    HW1 2258   2.660   3.473   2.145
 2222SOL    HW2 2259   2.705   3.579   2.261
 2223SOL     OW 2260   2.092   2.490   3.837
 2223SOL    HW1 2261   1.999   2.488   3.874
 2223SOL    HW2 2262   2.093   2.451   3.745
 2233SOL     OW 2263   2.468   2.826   3.847
 2233SOL    HW1 2264   2.475   2.910   3.793
 2233SOL    HW2 2265   2.514   2.839   3.935
 2243SOL     OW 2266   2.460   2.591   3.994
 2243SOL    HW1 2267   2.484   2.660   3.926
 2243SOL    HW2 2268   2.382   2.624   4.048
 2248SOL     OW 2269   2.727   2.210   3.919
 2248SOL    HW1 2270   2.786   2.273   3.870
 2248SOL    HW2 2271   2.746   2.116   3.890
 2253SOL     OW 2272   2.183   2.805   3.966
 2253SOL    HW1 2273   2.265   2.844   3.924
 2253SOL    HW2 2274   2.156   2.723   3.917
 2261SOL     OW 2275   2.476   1.984   3.841
 2261SOL    HW1 2276   2.574   1.962   3.848
 2261SOL    HW2 2277   2.445   1.967   3.748
 2264SOL     OW 2278   2.159   1.897   3.895
 2264SOL    HW1 2279   2.208   1.981   3.874
 2264SOL    HW2 2280   2.221   1.832   3.940
 2268SOL     OW 2281   2.894   2.411   3.740
 2268SOL    HW1 2282   2.853   2.493   3.701
 2268SOL    HW2 2283   2.958   2.437   3.813
 2275SOL     OW 2284   2.389   2.118   4.052
 2275SOL    HW1 2285   2.416   2.059   3.977
 2275SOL    HW2 2286   2.389   2.213   4.021
 2284SOL     OW 2287   3.165   2.700   3.766
 2284SOL    HW1 2288   3.199   2.607   3.781
 2284SOL    HW2 2289   3.183   2.727   3.671
 2287SOL     OW 2290   2.335   2.362   3.915
 2287SOL    HW1 2291   2.396   2.442   3.919
 2287SOL    HW2 2292   2.240   2.393   3.922
 2300SOL     OW 2293   1.937   2.207   3.757
 2300SOL    HW1 2294   1.845   2.179   3.728
 2300SOL    HW2 2295   1.968   2.284   3.701
 2305SOL     OW 2296   2.721   3.236   3.740
 2305SOL    HW1 2297   2.675   3.251   3.828
 2305SOL    HW2 2298   2.765   3.321   3.710
 2308SOL     OW 2299   2.945   2.846   3.811
 2308SOL    HW1 2300   2.922   2.899   3.729
 2308SOL    HW2 2301   3.026   2.790   3.792
 2330SOL     OW 2302   2.179   3.975   1.801
 2330SOL    HW1 2303   2.250   4.046   1.807
 2330SOL    HW2 2304   2.091   4.014   1.829
 2368SOL     OW 2305   2.875   3.829   1.770
 2368SOL    HW1 2306   2.881   3.914   1.718
 2368SOL    HW2 2307   2.907   3.753   1.713
 2369SOL     OW 2308   2.366   3.774   1.740
 2369SOL    HW1 2309   2.324   3.717   1.670
 2369SOL    HW2 2310   2.300   3.843   1.772
 2424SOL     OW 2311   2.671   3.728   2.364
 2424SOL    HW1 2312   2.711   3.819   2.355
 2424SOL    HW2 2313   2.571   3.736   2.370
 2434SOL     OW 2314   2.412   3.920   2.747
 2434SOL    HW1 2315   2.407   3.915   2.847
 2434SOL    HW2 2316   2.414   4.016   2.718
 2440SOL     OW 2317   2.476   3.846   1.979
 2440SOL    HW1 2318   2.574   3.824   1.986
 2440SOL    HW2 2319   2.445   3.829   1.886
 2444SOL     OW 2320   2.401   3.788   2.374
 2444SOL    HW1 2321   2.320   3.789   2.432
 2444SOL    HW2 2322   2.404   3.871   2.319
 2445SOL     OW 2323   2.159   3.759   2.033
 2445SOL    HW1 2324   2.208   3.843   2.012
 2445SOL    HW2 2325   2.221   3.694   2.078
 2446SOL     OW 2326   2.797   3.960   2.342
 2446SOL    HW1 2327   2.749   4.001   2.264
 2446SOL    HW2 2328   2.896   3.958   2.323
 2452SOL     OW 2329   2.879   3.763   2.615
 2452SOL    HW1 2330   2.807   3.768   2.546
 2452SOL    HW2 2331   2.855   3.694   2.684
 2456SOL     OW 2332   2.389   3.980   2.190
 2456SOL    HW1 2333   2.416   3.921   2.115
 2456SOL    HW2 2334   2.389   4.075   2.159
 2471SOL     OW 2335   2.169   3.787   2.480
 2471SOL    HW1 2336   2.158   3.881   2.513
 2471SOL    HW2 2337   2.164   3.724   2.557
 2487SOL     OW 2338   2.125   4.050   2.582
 2487SOL    HW1 2339   2.046   4.101   2.548
 2487SOL    HW2 2340   2.116   4.035   2.680
 2495SOL     OW 2341   1.934   3.890   2.180
 2495SOL    HW1 2342   1.917   3.973   2.126
 2495SOL    HW2 2343   2.024   3.853   2.158
 2505SOL     OW 2344   2.863   3.758   3.016
 2505SOL    HW1 2345   2.800   3.686   2.985
 2505SOL    HW2 2346   2.956   3.722   3.016
 2506SOL     OW 2347   3.214   3.776   2.030
 2506SOL    HW1 2348   3.249   3.735   1.946
 2506SOL    HW2 2349   3.124   3.738   2.050
 2578SOL     OW 2350   3.854   1.821   1.571
 2578SOL    HW1 2351   3.844   1.806   1.670
 2578SOL    HW2 2352   3.768   1.857   1.535
 2626SOL     OW 2353   3.854   1.794   1.851
 2626SOL    HW1 2354   3.813   1.720   1.904
 2626SOL    HW2 2355   3.918   1.845   1.909
 2660SOL     OW 2356   3.955   1.713   2.345
 2660SOL    HW1 2357   3.989   1.790   2.399
 2660SOL    HW2 2358   3.999   1.713   2.255
 2666SOL     OW 2359   3.751   1.596   1.979
 2666SOL    HW1 2360   3.732   1.500   2.000
 2666SOL    HW2 2361   3.718   1.654   2.054
 2710SOL     OW 2362   3.732   1.326   2.062
 2710SOL    HW1 2363   3.639   1.347   2.031
 2710SOL    HW2 2364   3.742   1.227   2.075
 2711SOL     OW 2365   3.812   1.801   2.789
 2711SOL    HW1 2366   3.770   1.715   2.762
 2711SOL    HW2 2367   3.906   1.804   2.755
 2805SOL     OW 2368   3.837   2.599   1.597
 2805SOL    HW1 2369   3.925   2.586   1.642
 2805SOL    HW2 2370   3.824   2.696   1.575
 2826SOL     OW 2371   3.802   2.418   1.386
 2826SOL    HW1 2372   3.894   2.417   1.345
 2826SOL    HW2 2373   3.796   2.492   1.453
 2851SOL     OW 2374   3.913   2.382   1.722
 2851SOL    HW1 2375   3.972   2.342   1.652
 2851SOL    HW2 2376   3.855   2.453   1.681
 2866SOL     OW 2377   3.829   2.875   1.726
 2866SOL    HW1 2378   3.752   2.842   1.780
 2866SOL    HW2 2379   3.914   2.845   1.768
 2883SOL     OW 2380   3.954   2.490   1.975
 2883SOL    HW1 2381   3.861   2.488   2.012
 2883SOL    HW2 2382   3.955   2.451   1.883
 2884SOL     OW 2383   3.949   2.137   2.858
 2884SOL    HW1 2384   3.984   2.120   2.950
 2884SOL    HW2 2385   3.861   2.092   2.846
 2885SOL     OW 2386   3.743   2.230   2.509
 2885SOL    HW1 2387   3.661   2.273   2.548
 2885SOL    HW2 2388   3.715   2.157   2.446
 2897SOL     OW 2389   3.846   2.505   2.425
 2897SOL    HW1 2390   3.801   2.417   2.442
 2897SOL    HW2 2391   3.845   2.559   2.509
 2905SOL     OW 2392   3.800   2.673   2.651
 2905SOL    HW1 2393   3.899   2.661   2.660
 2905SOL    HW2 2394   3.776   2.768   2.672
 2919SOL     OW 2395   4.021   1.897   2.033
 2919SOL    HW1 2396   4.070   1.981   2.012
 2919SOL    HW2 2397   4.083   1.832   2.078
 2921SOL     OW 2398   3.802   2.418   3.248
 2921SOL    HW1 2399   3.894   2.417   3.207
 2921SOL    HW2 2400   3.796   2.492   3.315
 2937SOL     OW 2401   4.031   1.925   2.480
 2937SOL    HW1 2402   4.020   2.019   2.513
 2937SOL    HW2 2403   4.026   1.862   2.557
 2942SOL     OW 2404   3.732   3.188   2.062
 2942SOL    HW1 2405   3.639   3.209   2.031
 2942SOL    HW2 2406   3.742   3.089   2.075
 2945SOL     OW 2407   3.764   2.406   2.976
 2945SOL    HW1 2408   3.849   2.373   2.935
 2945SOL    HW2 2409   3.777   2.421   3.074
 2956SOL     OW 2410   3.987   2.188   2.582
 2956SOL    HW1 2411   3.908   2.239   2.548
 2956SOL    HW2 2412   3.978   2.173   2.680
 2963SOL     OW 2413   3.799   2.207   1.895
 2963SOL    HW1 2414   3.707   2.179   1.866
 2963SOL    HW2 2415   3.830   2.284   1.839
 2964SOL     OW 2416   3.796   2.028   2.180
 2964SOL    HW1 2417   3.779   2.111   2.126
 2964SOL    HW2 2418   3.886   1.991   2.158
 2971SOL     OW 2419   3.803   3.102   2.515
 2971SOL    HW1 2420   3.802   3.055   2.603
 2971SOL    HW2 2421   3.885   3.074   2.464
 2977SOL     OW 2422   3.763   2.939   2.162
 2977SOL    HW1 2423   3.862   2.928   2.153
 2977SOL    HW2 2424   3.723   2.853   2.194
   4.57555   4.57555   4.57555
