mobley_6248915_GMX.gro created by acpype (v: 2023.10.27) on Tue May 19 12:54:55 2026
 2410
    1MOL     C1    1   2.349   2.154   2.608
    1MOL     C2    2   2.476   2.237   2.620
    1MOL     C3    3   2.455   2.385   2.589
    1MOL     C4    4   2.583   2.469   2.604
    1MOL     C5    5   2.563   2.616   2.567
    1MOL     C6    6   2.690   2.700   2.585
    1MOL     C7    7   2.666   2.846   2.544
    1MOL     C8    8   2.791   2.931   2.565
    1MOL     N1    9   2.766   3.069   2.527
    1MOL     H1   10   2.304   2.166   2.509
    1MOL     H2   11   2.276   2.182   2.684
    1MOL     H3   12   2.372   2.048   2.622
    1MOL     H4   13   2.518   2.225   2.721
    1MOL     H5   14   2.551   2.197   2.550
    1MOL     H6   15   2.418   2.394   2.486
    1MOL     H7   16   2.376   2.425   2.655
    1MOL     H8   17   2.620   2.462   2.707
    1MOL     H9   18   2.660   2.427   2.539
    1MOL    H10   19   2.531   2.622   2.463
    1MOL    H11   20   2.482   2.659   2.628
    1MOL    H12   21   2.723   2.697   2.689
    1MOL    H13   22   2.771   2.658   2.523
    1MOL    H14   23   2.635   2.850   2.439
    1MOL    H15   24   2.583   2.887   2.604
    1MOL    H16   25   2.873   2.892   2.504
    1MOL    H17   26   2.823   2.927   2.670
    1MOL    H18   27   2.804   3.131   2.598
    1MOL    H19   28   2.665   3.085   2.526
   97SOL     OW   29   1.592   1.629   1.625
   97SOL    HW1   30   1.619   1.663   1.535
   97SOL    HW2   31   1.671   1.591   1.671
  127SOL     OW   32   1.859   1.518   1.605
  127SOL    HW1   33   1.873   1.545   1.510
  127SOL    HW2   34   1.942   1.540   1.658
  163SOL     OW   35   1.650   1.720   1.394
  163SOL    HW1   36   1.703   1.730   1.310
  163SOL    HW2   37   1.623   1.810   1.428
  219SOL     OW   38   1.555   1.511   2.565
  219SOL    HW1   39   1.498   1.495   2.646
  219SOL    HW2   40   1.496   1.521   2.485
  227SOL     OW   41   1.460   1.505   3.201
  227SOL    HW1   42   1.484   1.599   3.227
  227SOL    HW2   43   1.444   1.451   3.283
  238SOL     OW   44   1.842   1.767   2.221
  238SOL    HW1   45   1.896   1.738   2.301
  238SOL    HW2   46   1.872   1.857   2.192
  241SOL     OW   47   1.641   1.108   2.294
  241SOL    HW1   48   1.727   1.110   2.242
  241SOL    HW2   49   1.655   1.155   2.382
  250SOL     OW   50   1.466   1.417   2.815
  250SOL    HW1   51   1.407   1.423   2.895
  250SOL    HW2   52   1.451   1.329   2.769
  251SOL     OW   53   1.667   1.714   2.434
  251SOL    HW1   54   1.626   1.691   2.346
  251SOL    HW2   55   1.649   1.640   2.499
  254SOL     OW   56   1.576   1.662   2.169
  254SOL    HW1   57   1.665   1.708   2.172
  254SOL    HW2   58   1.555   1.638   2.074
  268SOL     OW   59   1.795   1.066   2.735
  268SOL    HW1   60   1.733   1.051   2.659
  268SOL    HW2   61   1.743   1.077   2.820
  273SOL     OW   62   1.111   1.776   2.099
  273SOL    HW1   63   1.051   1.714   2.149
  273SOL    HW2   64   1.142   1.732   2.014
  275SOL     OW   65   1.632   1.377   1.943
  275SOL    HW1   66   1.600   1.471   1.933
  275SOL    HW2   67   1.556   1.314   1.931
  293SOL     OW   68   1.227   1.570   2.655
  293SOL    HW1   69   1.248   1.644   2.590
  293SOL    HW2   70   1.295   1.570   2.728
  295SOL     OW   71   1.271   1.797   2.453
  295SOL    HW1   72   1.315   1.861   2.389
  295SOL    HW2   73   1.221   1.849   2.523
  305SOL     OW   74   1.664   1.280   2.519
  305SOL    HW1   75   1.763   1.288   2.533
  305SOL    HW2   76   1.619   1.364   2.550
  310SOL     OW   77   1.592   1.629   3.487
  310SOL    HW1   78   1.619   1.663   3.397
  310SOL    HW2   79   1.671   1.591   3.533
  312SOL     OW   80   1.638   1.099   2.941
  312SOL    HW1   81   1.643   1.180   3.000
  312SOL    HW2   82   1.552   1.101   2.890
  322SOL     OW   83   1.272   1.445   3.004
  322SOL    HW1   84   1.319   1.458   3.091
  322SOL    HW2   85   1.206   1.371   3.013
  340SOL     OW   86   1.859   1.518   3.467
  340SOL    HW1   87   1.873   1.545   3.372
  340SOL    HW2   88   1.942   1.540   3.520
  365SOL     OW   89   1.759   1.747   3.016
  365SOL    HW1   90   1.820   1.777   2.943
  365SOL    HW2   91   1.721   1.658   2.994
  366SOL     OW   92   1.252   1.731   2.990
  366SOL    HW1   93   1.336   1.736   2.936
  366SOL    HW2   94   1.229   1.635   3.008
  370SOL     OW   95   1.388   1.573   2.339
  370SOL    HW1   96   1.455   1.585   2.265
  370SOL    HW2   97   1.348   1.662   2.362
  375SOL     OW   98   1.650   1.720   3.256
  375SOL    HW1   99   1.703   1.730   3.172
  375SOL    HW2  100   1.623   1.810   3.290
  381SOL     OW  101   1.504   1.607   1.906
  381SOL    HW1  102   1.412   1.644   1.913
  381SOL    HW2  103   1.542   1.627   1.816
  383SOL     OW  104   1.614   1.292   3.151
  383SOL    HW1  105   1.674   1.295   3.231
  383SOL    HW2  106   1.539   1.356   3.164
  396SOL     OW  107   1.493   1.767   2.821
  396SOL    HW1  108   1.526   1.831   2.752
  396SOL    HW2  109   1.559   1.761   2.896
  409SOL     OW  110   1.861   1.569   2.713
  409SOL    HW1  111   1.790   1.557   2.643
  409SOL    HW2  112   1.862   1.490   2.773
  415SOL     OW  113   1.705   1.487   2.966
  415SOL    HW1  114   1.612   1.462   2.939
  415SOL    HW2  115   1.731   1.437   3.048
  611SOL     OW  116   1.594   1.976   1.480
  611SOL    HW1  117   1.576   2.043   1.408
  611SOL    HW2  118   1.591   2.022   1.569
  631SOL     OW  119   1.394   2.331   1.674
  631SOL    HW1  120   1.374   2.374   1.762
  631SOL    HW2  121   1.472   2.269   1.683
  638SOL     OW  122   1.719   2.447   1.831
  638SOL    HW1  123   1.693   2.536   1.795
  638SOL    HW2  124   1.717   2.379   1.758
  656SOL     OW  125   1.547   2.084   1.729
  656SOL    HW1  126   1.542   2.121   1.821
  656SOL    HW2  127   1.475   2.015   1.717
  659SOL     OW  128   1.351   2.452   1.433
  659SOL    HW1  129   1.379   2.409   1.518
  659SOL    HW2  130   1.376   2.548   1.434
  681SOL     OW  131   1.754   3.085   1.588
  681SOL    HW1  132   1.845   3.046   1.575
  681SOL    HW2  133   1.762   3.181   1.612
  683SOL     OW  134   1.592   3.491   1.625
  683SOL    HW1  135   1.619   3.525   1.535
  683SOL    HW2  136   1.671   3.453   1.671
  699SOL     OW  137   1.587   2.641   1.670
  699SOL    HW1  138   1.495   2.679   1.665
  699SOL    HW2  139   1.647   2.688   1.605
  708SOL     OW  140   1.728   2.797   1.854
  708SOL    HW1  141   1.682   2.790   1.765
  708SOL    HW2  142   1.666   2.841   1.920
  713SOL     OW  143   1.859   3.380   1.605
  713SOL    HW1  144   1.873   3.407   1.510
  713SOL    HW2  145   1.942   3.402   1.658
  720SOL     OW  146   1.138   2.242   1.678
  720SOL    HW1  147   1.093   2.305   1.742
  720SOL    HW2  148   1.231   2.273   1.661
  728SOL     OW  149   1.369   2.812   1.660
  728SOL    HW1  150   1.408   2.901   1.680
  728SOL    HW2  151   1.379   2.792   1.563
  730SOL     OW  152   1.657   2.466   1.206
  730SOL    HW1  153   1.619   2.397   1.268
  730SOL    HW2  154   1.739   2.430   1.162
  757SOL     OW  155   1.614   3.154   1.289
  757SOL    HW1  156   1.674   3.157   1.369
  757SOL    HW2  157   1.539   3.218   1.302
  761SOL     OW  158   1.709   2.247   1.381
  761SOL    HW1  159   1.782   2.316   1.385
  761SOL    HW2  160   1.737   2.172   1.322
  766SOL     OW  161   1.440   2.718   1.398
  766SOL    HW1  162   1.383   2.770   1.335
  766SOL    HW2  163   1.536   2.730   1.374
  772SOL     OW  164   1.450   3.082   1.633
  772SOL    HW1  165   1.441   3.072   1.732
  772SOL    HW2  166   1.546   3.075   1.607
  774SOL     OW  167   1.674   2.745   1.254
  774SOL    HW1  168   1.647   2.656   1.217
  774SOL    HW2  169   1.675   2.813   1.181
  777SOL     OW  170   1.777   2.204   1.642
  777SOL    HW1  171   1.760   2.235   1.548
  777SOL    HW2  172   1.693   2.167   1.680
  778SOL     OW  173   1.730   2.796   1.517
  778SOL    HW1  174   1.768   2.887   1.532
  778SOL    HW2  175   1.722   2.779   1.418
  787SOL     OW  176   1.824   2.054   1.227
  787SOL    HW1  177   1.820   1.964   1.271
  787SOL    HW2  178   1.827   2.043   1.128
  805SOL     OW  179   1.555   3.373   2.565
  805SOL    HW1  180   1.498   3.357   2.646
  805SOL    HW2  181   1.496   3.383   2.485
  806SOL     OW  182   1.135   2.565   2.579
  806SOL    HW1  183   1.192   2.643   2.554
  806SOL    HW2  184   1.075   2.591   2.655
  807SOL     OW  185   1.755   2.469   2.093
  807SOL    HW1  186   1.743   2.456   1.994
  807SOL    HW2  187   1.725   2.388   2.142
  813SOL     OW  188   1.460   3.367   3.201
  813SOL    HW1  189   1.484   3.461   3.227
  813SOL    HW2  190   1.444   3.313   3.283
  815SOL     OW  191   1.603   2.309   2.599
  815SOL    HW1  192   1.529   2.355   2.549
  815SOL    HW2  193   1.654   2.377   2.652
  822SOL     OW  194   1.594   1.976   3.342
  822SOL    HW1  195   1.576   2.043   3.270
  822SOL    HW2  196   1.591   2.022   3.431
  824SOL     OW  197   1.842   3.629   2.221
  824SOL    HW1  198   1.896   3.600   2.301
  824SOL    HW2  199   1.872   3.719   2.192
  826SOL     OW  200   1.689   2.784   2.474
  826SOL    HW1  201   1.784   2.755   2.482
  826SOL    HW2  202   1.681   2.849   2.399
  827SOL     OW  203   1.641   2.970   2.294
  827SOL    HW1  204   1.727   2.972   2.242
  827SOL    HW2  205   1.655   3.017   2.382
  830SOL     OW  206   1.293   3.090   3.285
  830SOL    HW1  207   1.330   3.017   3.227
  830SOL    HW2  208   1.345   3.095   3.370
  833SOL     OW  209   1.525   2.861   2.052
  833SOL    HW1  210   1.462   2.785   2.065
  833SOL    HW2  211   1.573   2.879   2.138
  836SOL     OW  212   1.466   3.279   2.815
  836SOL    HW1  213   1.407   3.285   2.895
  836SOL    HW2  214   1.451   3.191   2.769
  837SOL     OW  215   1.667   3.576   2.434
  837SOL    HW1  216   1.626   3.553   2.346
  837SOL    HW2  217   1.649   3.502   2.499
  839SOL     OW  218   1.281   2.207   2.806
  839SOL    HW1  219   1.195   2.157   2.793
  839SOL    HW2  220   1.343   2.153   2.862
  840SOL     OW  221   1.576   3.524   2.169
  840SOL    HW1  222   1.665   3.570   2.172
  840SOL    HW2  223   1.555   3.500   2.074
  842SOL     OW  224   1.394   2.331   3.536
  842SOL    HW1  225   1.374   2.374   3.624
  842SOL    HW2  226   1.472   2.269   3.545
  844SOL     OW  227   0.991   2.272   3.104
  844SOL    HW1  228   0.914   2.306   3.158
  844SOL    HW2  229   0.957   2.221   3.025
  845SOL     OW  230   1.041   2.563   2.291
  845SOL    HW1  231   1.067   2.559   2.387
  845SOL    HW2  232   0.956   2.512   2.277
  849SOL     OW  233   1.719   2.447   3.693
  849SOL    HW1  234   1.693   2.536   3.657
  849SOL    HW2  235   1.717   2.379   3.620
  850SOL     OW  236   1.362   3.006   2.407
  850SOL    HW1  237   1.445   2.977   2.359
  850SOL    HW2  238   1.313   3.073   2.351
  852SOL     OW  239   1.008   3.318   2.339
  852SOL    HW1  240   0.962   3.390   2.287
  852SOL    HW2  241   1.004   3.338   2.437
  854SOL     OW  242   1.795   2.928   2.735
  854SOL    HW1  243   1.733   2.913   2.659
  854SOL    HW2  244   1.743   2.939   2.820
  855SOL     OW  245   1.227   3.412   3.368
  855SOL    HW1  246   1.233   3.335   3.432
  855SOL    HW2  247   1.175   3.386   3.288
  857SOL     OW  248   1.458   2.597   2.590
  857SOL    HW1  249   1.453   2.532   2.665
  857SOL    HW2  250   1.538   2.656   2.603
  861SOL     OW  251   1.632   3.239   1.943
  861SOL    HW1  252   1.600   3.333   1.933
  861SOL    HW2  253   1.556   3.176   1.931
  863SOL     OW  254   1.400   1.969   2.288
  863SOL    HW1  255   1.376   1.932   2.198
  863SOL    HW2  256   1.499   1.985   2.292
  867SOL     OW  257   1.547   2.084   3.591
  867SOL    HW1  258   1.542   2.121   3.683
  867SOL    HW2  259   1.475   2.015   3.579
  871SOL     OW  260   1.351   2.452   3.295
  871SOL    HW1  261   1.379   2.409   3.380
  871SOL    HW2  262   1.376   2.548   3.296
  873SOL     OW  263   0.922   2.365   2.761
  873SOL    HW1  264   0.897   2.356   2.665
  873SOL    HW2  265   0.970   2.283   2.792
  875SOL     OW  266   1.434   3.050   1.903
  875SOL    HW1  267   1.466   2.974   1.960
  875SOL    HW2  268   1.342   3.077   1.933
  877SOL     OW  269   0.935   2.098   2.342
  877SOL    HW1  270   0.887   2.139   2.264
  877SOL    HW2  271   1.034   2.096   2.323
  878SOL     OW  272   1.076   2.545   3.326
  878SOL    HW1  273   0.996   2.484   3.329
  878SOL    HW2  274   1.157   2.492   3.302
  879SOL     OW  275   1.227   3.432   2.655
  879SOL    HW1  276   1.248   3.506   2.590
  879SOL    HW2  277   1.295   3.432   2.728
  881SOL     OW  278   1.271   3.659   2.453
  881SOL    HW1  279   1.315   3.723   2.389
  881SOL    HW2  280   1.221   3.711   2.523
  882SOL     OW  281   1.032   2.411   1.878
  882SOL    HW1  282   0.991   2.493   1.839
  882SOL    HW2  283   1.096   2.437   1.951
  885SOL     OW  284   0.866   2.316   2.504
  885SOL    HW1  285   0.834   2.388   2.442
  885SOL    HW2  286   0.890   2.235   2.451
  886SOL     OW  287   1.017   1.901   2.615
  886SOL    HW1  288   0.945   1.906   2.546
  886SOL    HW2  289   0.993   1.832   2.684
  887SOL     OW  290   1.429   3.035   2.729
  887SOL    HW1  291   1.374   2.951   2.722
  887SOL    HW2  292   1.455   3.064   2.637
  888SOL     OW  293   1.466   2.452   2.854
  888SOL    HW1  294   1.436   2.357   2.861
  888SOL    HW2  295   1.539   2.468   2.920
  889SOL     OW  296   1.857   2.695   2.239
  889SOL    HW1  297   1.899   2.631   2.303
  889SOL    HW2  298   1.819   2.644   2.161
  891SOL     OW  299   1.664   3.142   2.519
  891SOL    HW1  300   1.763   3.150   2.533
  891SOL    HW2  301   1.619   3.226   2.550
  892SOL     OW  302   1.390   2.437   1.940
  892SOL    HW1  303   1.336   2.416   2.021
  892SOL    HW2  304   1.481   2.396   1.949
  894SOL     OW  305   1.754   3.085   3.450
  894SOL    HW1  306   1.845   3.046   3.437
  894SOL    HW2  307   1.762   3.181   3.474
  895SOL     OW  308   1.064   3.209   3.202
  895SOL    HW1  309   0.984   3.186   3.257
  895SOL    HW2  310   1.147   3.183   3.251
  896SOL     OW  311   1.592   3.491   3.487
  896SOL    HW1  312   1.619   3.525   3.397
  896SOL    HW2  313   1.671   3.453   3.533
  897SOL     OW  314   1.111   3.057   2.962
  897SOL    HW1  315   1.071   3.101   3.043
  897SOL    HW2  316   1.070   3.094   2.879
  898SOL     OW  317   1.638   2.961   2.941
  898SOL    HW1  318   1.643   3.042   3.000
  898SOL    HW2  319   1.552   2.963   2.890
  903SOL     OW  320   1.274   2.248   3.124
  903SOL    HW1  321   1.295   2.322   3.188
  903SOL    HW2  322   1.185   2.265   3.081
  907SOL     OW  323   1.252   3.210   2.250
  907SOL    HW1  324   1.302   3.287   2.290
  907SOL    HW2  325   1.157   3.212   2.282
  908SOL     OW  326   1.272   3.307   3.004
  908SOL    HW1  327   1.319   3.320   3.091
  908SOL    HW2  328   1.206   3.233   3.013
  909SOL     OW  329   1.582   2.501   2.334
  909SOL    HW1  330   1.551   2.562   2.407
  909SOL    HW2  331   1.632   2.553   2.265
  912SOL     OW  332   1.587   2.641   3.532
  912SOL    HW1  333   1.495   2.679   3.527
  912SOL    HW2  334   1.647   2.688   3.467
  916SOL     OW  335   1.360   2.724   2.907
  916SOL    HW1  336   1.285   2.724   2.841
  916SOL    HW2  337   1.397   2.632   2.916
  917SOL     OW  338   1.209   2.387   2.137
  917SOL    HW1  339   1.222   2.303   2.191
  917SOL    HW2  340   1.180   2.461   2.197
  921SOL     OW  341   1.728   2.797   3.716
  921SOL    HW1  342   1.682   2.790   3.627
  921SOL    HW2  343   1.666   2.841   3.782
  923SOL     OW  344   1.622   2.229   2.236
  923SOL    HW1  345   1.624   2.153   2.300
  923SOL    HW2  346   1.574   2.306   2.276
  924SOL     OW  347   1.023   2.628   2.828
  924SOL    HW1  348   1.038   2.649   2.924
  924SOL    HW2  349   0.993   2.533   2.819
  926SOL     OW  350   1.859   3.380   3.467
  926SOL    HW1  351   1.873   3.407   3.372
  926SOL    HW2  352   1.942   3.402   3.520
  928SOL     OW  353   1.540   2.136   1.987
  928SOL    HW1  354   1.479   2.061   2.010
  928SOL    HW2  355   1.562   2.188   2.070
  929SOL     OW  356   1.303   2.700   1.904
  929SOL    HW1  357   1.337   2.607   1.919
  929SOL    HW2  358   1.321   2.727   1.809
  930SOL     OW  359   1.068   3.195   2.711
  930SOL    HW1  360   1.075   3.111   2.656
  930SOL    HW2  361   1.130   3.264   2.675
  933SOL     OW  362   1.138   2.242   3.540
  933SOL    HW1  363   1.093   2.305   3.604
  933SOL    HW2  364   1.231   2.273   3.523
  934SOL     OW  365   1.160   2.069   3.339
  934SOL    HW1  366   1.160   2.133   3.416
  934SOL    HW2  367   1.188   2.117   3.256
  938SOL     OW  368   1.002   2.658   3.100
  938SOL    HW1  369   1.043   2.626   3.186
  938SOL    HW2  370   0.906   2.631   3.097
  941SOL     OW  371   1.369   2.812   3.522
  941SOL    HW1  372   1.408   2.901   3.542
  941SOL    HW2  373   1.379   2.792   3.425
  943SOL     OW  374   1.657   2.466   3.068
  943SOL    HW1  375   1.619   2.397   3.130
  943SOL    HW2  376   1.739   2.430   3.024
  949SOL     OW  377   1.347   2.921   3.096
  949SOL    HW1  378   1.371   2.858   3.022
  949SOL    HW2  379   1.257   2.961   3.078
  950SOL     OW  380   1.302   2.717   2.171
  950SOL    HW1  381   1.216   2.686   2.213
  950SOL    HW2  382   1.298   2.703   2.072
  951SOL     OW  383   1.759   3.609   3.016
  951SOL    HW1  384   1.820   3.639   2.943
  951SOL    HW2  385   1.721   3.520   2.994
  952SOL     OW  386   1.252   3.593   2.990
  952SOL    HW1  387   1.336   3.598   2.936
  952SOL    HW2  388   1.229   3.497   3.008
  955SOL     OW  389   1.726   1.997   2.385
  955SOL    HW1  390   1.799   1.980   2.318
  955SOL    HW2  391   1.695   1.910   2.423
  956SOL     OW  392   1.388   3.435   2.339
  956SOL    HW1  393   1.455   3.447   2.265
  956SOL    HW2  394   1.348   3.524   2.362
  958SOL     OW  395   1.280   2.789   2.534
  958SOL    HW1  396   1.340   2.708   2.536
  958SOL    HW2  397   1.320   2.858   2.474
  961SOL     OW  398   1.650   3.582   3.256
  961SOL    HW1  399   1.703   3.592   3.172
  961SOL    HW2  400   1.623   3.672   3.290
  962SOL     OW  401   1.841   2.037   2.825
  962SOL    HW1  402   1.880   1.952   2.789
  962SOL    HW2  403   1.743   2.039   2.806
  964SOL     OW  404   1.194   3.474   1.893
  964SOL    HW1  405   1.200   3.381   1.930
  964SOL    HW2  406   1.135   3.474   1.813
  966SOL     OW  407   0.916   2.772   2.153
  966SOL    HW1  408   0.979   2.810   2.085
  966SOL    HW2  409   0.956   2.689   2.192
  967SOL     OW  410   1.504   3.469   1.906
  967SOL    HW1  411   1.412   3.506   1.913
  967SOL    HW2  412   1.542   3.489   1.816
  969SOL     OW  413   1.614   3.154   3.151
  969SOL    HW1  414   1.674   3.157   3.231
  969SOL    HW2  415   1.539   3.218   3.164
  970SOL     OW  416   1.039   2.960   2.558
  970SOL    HW1  417   0.969   2.913   2.612
  970SOL    HW2  418   1.098   2.892   2.515
  971SOL     OW  419   1.014   2.098   2.833
  971SOL    HW1  420   1.006   2.062   2.740
  971SOL    HW2  421   1.012   2.022   2.898
  973SOL     OW  422   1.709   2.247   3.243
  973SOL    HW1  423   1.782   2.316   3.247
  973SOL    HW2  424   1.737   2.172   3.184
  978SOL     OW  425   1.440   2.718   3.260
  978SOL    HW1  426   1.383   2.770   3.197
  978SOL    HW2  427   1.536   2.730   3.236
  980SOL     OW  428   1.183   3.197   1.981
  980SOL    HW1  429   1.084   3.186   1.983
  980SOL    HW2  430   1.217   3.212   2.074
  982SOL     OW  431   1.493   3.629   2.821
  982SOL    HW1  432   1.526   3.693   2.752
  982SOL    HW2  433   1.559   3.623   2.896
  984SOL     OW  434   1.450   3.082   3.495
  984SOL    HW1  435   1.441   3.072   3.594
  984SOL    HW2  436   1.546   3.075   3.469
  986SOL     OW  437   1.674   2.745   3.116
  986SOL    HW1  438   1.647   2.656   3.079
  986SOL    HW2  439   1.675   2.813   3.043
  987SOL     OW  440   1.225   2.187   2.311
  987SOL    HW1  441   1.290   2.113   2.300
  987SOL    HW2  442   1.245   2.237   2.395
  989SOL     OW  443   1.777   2.204   3.504
  989SOL    HW1  444   1.760   2.235   3.410
  989SOL    HW2  445   1.693   2.167   3.542
  990SOL     OW  446   1.730   2.796   3.379
  990SOL    HW1  447   1.768   2.887   3.394
  990SOL    HW2  448   1.722   2.779   3.280
  993SOL     OW  449   0.859   2.818   2.723
  993SOL    HW1  450   0.913   2.749   2.771
  993SOL    HW2  451   0.827   2.887   2.789
  994SOL     OW  452   1.083   2.846   1.949
  994SOL    HW1  453   1.060   2.899   1.867
  994SOL    HW2  454   1.164   2.790   1.930
  995SOL     OW  455   1.861   3.431   2.713
  995SOL    HW1  456   1.790   3.419   2.643
  995SOL    HW2  457   1.862   3.352   2.773
  999SOL     OW  458   1.824   2.054   3.089
  999SOL    HW1  459   1.820   1.964   3.133
  999SOL    HW2  460   1.827   2.043   2.990
 1001SOL     OW  461   1.705   3.349   2.966
 1001SOL    HW1  462   1.612   3.324   2.939
 1001SOL    HW2  463   1.731   3.299   3.048
 1004SOL     OW  464   1.424   2.076   2.974
 1004SOL    HW1  465   1.476   2.011   3.029
 1004SOL    HW2  466   1.375   2.139   3.035
 1005SOL     OW  467   1.001   1.896   3.016
 1005SOL    HW1  468   0.938   1.824   2.985
 1005SOL    HW2  469   1.094   1.860   3.016
 1008SOL     OW  470   1.352   1.914   2.030
 1008SOL    HW1  471   1.387   1.873   1.946
 1008SOL    HW2  472   1.262   1.876   2.050
 1009SOL     OW  473   1.300   2.315   2.553
 1009SOL    HW1  474   1.241   2.395   2.557
 1009SOL    HW2  475   1.315   2.280   2.646
 1010SOL     OW  476   1.593   2.083   2.744
 1010SOL    HW1  477   1.509   2.082   2.798
 1010SOL    HW2  478   1.595   2.166   2.688
 1019SOL     OW  479   1.755   2.469   3.955
 1019SOL    HW1  480   1.743   2.456   3.856
 1019SOL    HW2  481   1.725   2.388   4.004
 1038SOL     OW  482   1.525   2.861   3.914
 1038SOL    HW1  483   1.462   2.785   3.927
 1038SOL    HW2  484   1.573   2.879   4.000
 1058SOL     OW  485   1.632   3.239   3.805
 1058SOL    HW1  486   1.600   3.333   3.795
 1058SOL    HW2  487   1.556   3.176   3.793
 1069SOL     OW  488   1.434   3.050   3.765
 1069SOL    HW1  489   1.466   2.974   3.822
 1069SOL    HW2  490   1.342   3.077   3.795
 1081SOL     OW  491   1.857   2.695   4.101
 1081SOL    HW1  492   1.899   2.631   4.165
 1081SOL    HW2  493   1.819   2.644   4.023
 1084SOL     OW  494   1.390   2.437   3.802
 1084SOL    HW1  495   1.336   2.416   3.883
 1084SOL    HW2  496   1.481   2.396   3.811
 1108SOL     OW  497   1.540   2.136   3.849
 1108SOL    HW1  498   1.479   2.061   3.872
 1108SOL    HW2  499   1.562   2.188   3.932
 1109SOL     OW  500   1.303   2.700   3.766
 1109SOL    HW1  501   1.337   2.607   3.781
 1109SOL    HW2  502   1.321   2.727   3.671
 1355SOL     OW  503   1.594   3.838   3.342
 1355SOL    HW1  504   1.576   3.905   3.270
 1355SOL    HW2  505   1.591   3.884   3.431
 1385SOL     OW  506   1.400   3.831   2.288
 1385SOL    HW1  507   1.376   3.794   2.198
 1385SOL    HW2  508   1.499   3.847   2.292
 1459SOL     OW  509   1.726   3.859   2.385
 1459SOL    HW1  510   1.799   3.842   2.318
 1459SOL    HW2  511   1.695   3.772   2.423
 1462SOL     OW  512   1.841   3.899   2.825
 1462SOL    HW1  513   1.880   3.814   2.789
 1462SOL    HW2  514   1.743   3.901   2.806
 1490SOL     OW  515   1.824   3.916   3.089
 1490SOL    HW1  516   1.820   3.826   3.133
 1490SOL    HW2  517   1.827   3.905   2.990
 1499SOL     OW  518   1.593   3.945   2.744
 1499SOL    HW1  519   1.509   3.944   2.798
 1499SOL    HW2  520   1.595   4.028   2.688
 1638SOL     OW  521   2.548   1.161   1.803
 1638SOL    HW1  522   2.608   1.240   1.817
 1638SOL    HW2  523   2.462   1.192   1.762
 1644SOL     OW  524   2.989   1.341   1.690
 1644SOL    HW1  525   3.036   1.341   1.778
 1644SOL    HW2  526   2.941   1.254   1.679
 1647SOL     OW  527   2.482   1.786   1.439
 1647SOL    HW1  528   2.390   1.769   1.474
 1647SOL    HW2  529   2.510   1.878   1.465
 1661SOL     OW  530   3.049   1.792   1.616
 1661SOL    HW1  531   3.073   1.852   1.540
 1661SOL    HW2  532   3.056   1.697   1.586
 1674SOL     OW  533   1.992   1.821   1.571
 1674SOL    HW1  534   1.982   1.806   1.670
 1674SOL    HW2  535   1.906   1.857   1.535
 1682SOL     OW  536   3.089   1.550   1.506
 1682SOL    HW1  537   3.095   1.473   1.570
 1682SOL    HW2  538   3.037   1.524   1.426
 1685SOL     OW  539   2.323   1.266   1.727
 1685SOL    HW1  540   2.273   1.267   1.641
 1685SOL    HW2  541   2.260   1.248   1.803
 1691SOL     OW  542   2.111   1.785   1.241
 1691SOL    HW1  543   2.168   1.720   1.291
 1691SOL    HW2  544   2.095   1.752   1.148
 1697SOL     OW  545   2.750   1.514   1.195
 1697SOL    HW1  546   2.727   1.489   1.101
 1697SOL    HW2  547   2.811   1.445   1.234
 1722SOL     OW  548   2.926   1.347   1.340
 1722SOL    HW1  549   2.846   1.324   1.395
 1722SOL    HW2  550   3.009   1.321   1.389
 1723SOL     OW  551   3.454   1.629   1.625
 1723SOL    HW1  552   3.481   1.663   1.535
 1723SOL    HW2  553   3.533   1.591   1.671
 1727SOL     OW  554   2.842   1.116   1.719
 1727SOL    HW1  555   2.743   1.122   1.729
 1727SOL    HW2  556   2.865   1.036   1.663
 1731SOL     OW  557   1.926   1.564   1.331
 1731SOL    HW1  558   1.880   1.646   1.297
 1731SOL    HW2  559   2.024   1.583   1.340
 1737SOL     OW  560   2.216   1.510   1.329
 1737SOL    HW1  561   2.195   1.466   1.242
 1737SOL    HW2  562   2.313   1.536   1.332
 1752SOL     OW  563   2.842   1.573   1.700
 1752SOL    HW1  564   2.822   1.617   1.612
 1752SOL    HW2  565   2.881   1.482   1.684
 1770SOL     OW  566   2.114   1.564   1.744
 1770SOL    HW1  567   2.084   1.621   1.820
 1770SOL    HW2  568   2.107   1.467   1.770
 1772SOL     OW  569   2.792   1.678   1.465
 1772SOL    HW1  570   2.768   1.660   1.370
 1772SOL    HW2  571   2.822   1.772   1.475
 1778SOL     OW  572   3.114   1.731   1.128
 1778SOL    HW1  573   3.198   1.736   1.074
 1778SOL    HW2  574   3.091   1.635   1.146
 1780SOL     OW  575   2.550   1.662   1.716
 1780SOL    HW1  576   2.494   1.743   1.725
 1780SOL    HW2  577   2.602   1.666   1.630
 1784SOL     OW  578   1.992   1.794   1.851
 1784SOL    HW1  579   1.951   1.720   1.904
 1784SOL    HW2  580   2.056   1.845   1.909
 1786SOL     OW  581   2.692   1.273   1.422
 1786SOL    HW1  582   2.687   1.306   1.517
 1786SOL    HW2  583   2.606   1.292   1.376
 1788SOL     OW  584   3.512   1.720   1.394
 1788SOL    HW1  585   3.565   1.730   1.310
 1788SOL    HW2  586   3.485   1.810   1.428
 1795SOL     OW  587   2.234   1.288   1.490
 1795SOL    HW1  588   2.221   1.381   1.456
 1795SOL    HW2  589   2.150   1.236   1.477
 1812SOL     OW  590   2.252   1.741   1.560
 1812SOL    HW1  591   2.161   1.782   1.558
 1812SOL    HW2  592   2.245   1.647   1.592
 1823SOL     OW  593   2.083   1.314   1.844
 1823SOL    HW1  594   2.018   1.241   1.823
 1823SOL    HW2  595   2.087   1.328   1.942
 1825SOL     OW  596   2.534   1.391   1.624
 1825SOL    HW1  597   2.456   1.341   1.662
 1825SOL    HW2  598   2.531   1.486   1.655
 1834SOL     OW  599   2.480   1.567   1.284
 1834SOL    HW1  600   2.475   1.649   1.341
 1834SOL    HW2  601   2.569   1.564   1.239
 1843SOL     OW  602   2.431   1.275   3.027
 1843SOL    HW1  603   2.338   1.268   2.990
 1843SOL    HW2  604   2.442   1.364   3.071
 1844SOL     OW  605   3.417   1.511   2.565
 1844SOL    HW1  606   3.360   1.495   2.646
 1844SOL    HW2  607   3.358   1.521   2.485
 1847SOL     OW  608   2.630   1.144   2.885
 1847SOL    HW1  609   2.552   1.161   2.945
 1847SOL    HW2  610   2.664   1.231   2.849
 1849SOL     OW  611   2.547   1.012   2.527
 1849SOL    HW1  612   2.616   0.996   2.597
 1849SOL    HW2  613   2.474   1.069   2.565
 1850SOL     OW  614   2.548   1.161   3.665
 1850SOL    HW1  615   2.608   1.240   3.679
 1850SOL    HW2  616   2.462   1.192   3.624
 1851SOL     OW  617   2.197   1.435   2.923
 1851SOL    HW1  618   2.119   1.404   2.870
 1851SOL    HW2  619   2.255   1.493   2.866
 1852SOL     OW  620   3.322   1.505   3.201
 1852SOL    HW1  621   3.346   1.599   3.227
 1852SOL    HW2  622   3.306   1.451   3.283
 1855SOL     OW  623   2.093   1.713   2.345
 1855SOL    HW1  624   2.127   1.790   2.399
 1855SOL    HW2  625   2.137   1.713   2.255
 1856SOL     OW  626   2.989   1.341   3.552
 1856SOL    HW1  627   3.036   1.341   3.640
 1856SOL    HW2  628   2.941   1.254   3.541
 1857SOL     OW  629   2.092   1.434   2.400
 1857SOL    HW1  630   2.066   1.530   2.400
 1857SOL    HW2  631   2.021   1.380   2.445
 1858SOL     OW  632   2.102   1.091   2.748
 1858SOL    HW1  633   2.116   1.007   2.800
 1858SOL    HW2  634   2.047   1.155   2.803
 1859SOL     OW  635   2.482   1.786   3.301
 1859SOL    HW1  636   2.390   1.769   3.336
 1859SOL    HW2  637   2.510   1.878   3.327
 1860SOL     OW  638   2.468   0.964   1.985
 1860SOL    HW1  639   2.475   1.048   1.931
 1860SOL    HW2  640   2.514   0.977   2.073
 1863SOL     OW  641   3.704   1.767   2.221
 1863SOL    HW1  642   3.758   1.738   2.301
 1863SOL    HW2  643   3.734   1.857   2.192
 1864SOL     OW  644   1.889   1.596   1.979
 1864SOL    HW1  645   1.870   1.500   2.000
 1864SOL    HW2  646   1.856   1.654   2.054
 1866SOL     OW  647   3.503   1.108   2.294
 1866SOL    HW1  648   3.589   1.110   2.242
 1866SOL    HW2  649   3.517   1.155   2.382
 1868SOL     OW  650   2.475   1.365   2.588
 1868SOL    HW1  651   2.426   1.278   2.597
 1868SOL    HW2  652   2.452   1.408   2.501
 1869SOL     OW  653   3.155   1.228   3.285
 1869SOL    HW1  654   3.192   1.155   3.227
 1869SOL    HW2  655   3.207   1.233   3.370
 1871SOL     OW  656   2.059   0.976   3.126
 1871SOL    HW1  657   2.148   0.931   3.112
 1871SOL    HW2  658   1.986   0.911   3.107
 1873SOL     OW  659   3.049   1.792   3.478
 1873SOL    HW1  660   3.073   1.852   3.402
 1873SOL    HW2  661   3.056   1.697   3.448
 1875SOL     OW  662   3.328   1.417   2.815
 1875SOL    HW1  663   3.269   1.423   2.895
 1875SOL    HW2  664   3.313   1.329   2.769
 1876SOL     OW  665   3.529   1.714   2.434
 1876SOL    HW1  666   3.488   1.691   2.346
 1876SOL    HW2  667   3.511   1.640   2.499
 1879SOL     OW  668   3.438   1.662   2.169
 1879SOL    HW1  669   3.527   1.708   2.172
 1879SOL    HW2  670   3.417   1.638   2.074
 1886SOL     OW  671   1.992   1.821   3.433
 1886SOL    HW1  672   1.982   1.806   3.532
 1886SOL    HW2  673   1.906   1.857   3.397
 1889SOL     OW  674   3.224   1.144   2.407
 1889SOL    HW1  675   3.307   1.115   2.359
 1889SOL    HW2  676   3.175   1.211   2.351
 1891SOL     OW  677   2.870   1.456   2.339
 1891SOL    HW1  678   2.824   1.528   2.287
 1891SOL    HW2  679   2.866   1.476   2.437
 1892SOL     OW  680   2.213   1.801   2.715
 1892SOL    HW1  681   2.263   1.715   2.721
 1892SOL    HW2  682   2.278   1.878   2.712
 1894SOL     OW  683   3.089   1.550   3.368
 1894SOL    HW1  684   3.095   1.473   3.432
 1894SOL    HW2  685   3.037   1.524   3.288
 1895SOL     OW  686   2.183   0.943   2.104
 1895SOL    HW1  687   2.265   0.982   2.062
 1895SOL    HW2  688   2.156   0.861   2.055
 1897SOL     OW  689   2.323   1.266   3.589
 1897SOL    HW1  690   2.273   1.267   3.503
 1897SOL    HW2  691   2.260   1.248   3.665
 1898SOL     OW  692   2.973   1.776   2.099
 1898SOL    HW1  693   2.913   1.714   2.149
 1898SOL    HW2  694   3.004   1.732   2.014
 1900SOL     OW  695   3.494   1.377   1.943
 1900SOL    HW1  696   3.462   1.471   1.933
 1900SOL    HW2  697   3.418   1.314   1.931
 1901SOL     OW  698   2.326   1.743   2.185
 1901SOL    HW1  699   2.359   1.782   2.271
 1901SOL    HW2  700   2.402   1.736   2.120
 1903SOL     OW  701   2.111   1.785   3.103
 1903SOL    HW1  702   2.168   1.720   3.153
 1903SOL    HW2  703   2.095   1.752   3.010
 1904SOL     OW  704   2.802   1.698   2.766
 1904SOL    HW1  705   2.882   1.641   2.787
 1904SOL    HW2  706   2.753   1.658   2.689
 1909SOL     OW  707   2.750   1.514   3.057
 1909SOL    HW1  708   2.727   1.489   2.963
 1909SOL    HW2  709   2.811   1.445   3.096
 1911SOL     OW  710   2.665   1.402   2.786
 1911SOL    HW1  711   2.755   1.416   2.744
 1911SOL    HW2  712   2.594   1.404   2.715
 1914SOL     OW  713   3.296   1.188   1.903
 1914SOL    HW1  714   3.328   1.112   1.960
 1914SOL    HW2  715   3.204   1.215   1.933
 1918SOL     OW  716   3.089   1.570   2.655
 1918SOL    HW1  717   3.110   1.644   2.590
 1918SOL    HW2  718   3.157   1.570   2.728
 1919SOL     OW  719   2.321   1.152   2.603
 1919SOL    HW1  720   2.250   1.125   2.668
 1919SOL    HW2  721   2.295   1.124   2.510
 1920SOL     OW  722   3.133   1.797   2.453
 1920SOL    HW1  723   3.177   1.861   2.389
 1920SOL    HW2  724   3.083   1.849   2.523
 1926SOL     OW  725   3.291   1.173   2.729
 1926SOL    HW1  726   3.236   1.089   2.722
 1926SOL    HW2  727   3.317   1.202   2.637
 1929SOL     OW  728   2.350   1.385   2.036
 1929SOL    HW1  729   2.263   1.370   2.083
 1929SOL    HW2  730   2.333   1.411   1.941
 1930SOL     OW  731   3.526   1.280   2.519
 1930SOL    HW1  732   3.625   1.288   2.533
 1930SOL    HW2  733   3.481   1.364   2.550
 1934SOL     OW  734   2.926   1.347   3.202
 1934SOL    HW1  735   2.846   1.324   3.257
 1934SOL    HW2  736   3.009   1.321   3.251
 1935SOL     OW  737   3.454   1.629   3.487
 1935SOL    HW1  738   3.481   1.663   3.397
 1935SOL    HW2  739   3.533   1.591   3.533
 1936SOL     OW  740   2.973   1.195   2.962
 1936SOL    HW1  741   2.933   1.239   3.043
 1936SOL    HW2  742   2.932   1.232   2.879
 1937SOL     OW  743   3.500   1.099   2.941
 1937SOL    HW1  744   3.505   1.180   3.000
 1937SOL    HW2  745   3.414   1.101   2.890
 1939SOL     OW  746   2.842   1.116   3.581
 1939SOL    HW1  747   2.743   1.122   3.591
 1939SOL    HW2  748   2.865   1.036   3.525
 1940SOL     OW  749   2.567   1.050   2.230
 1940SOL    HW1  750   2.553   1.057   2.329
 1940SOL    HW2  751   2.651   0.999   2.212
 1943SOL     OW  752   1.926   1.564   3.193
 1943SOL    HW1  753   1.880   1.646   3.159
 1943SOL    HW2  754   2.024   1.583   3.202
 1944SOL     OW  755   2.229   1.100   2.363
 1944SOL    HW1  756   2.222   1.183   2.307
 1944SOL    HW2  757   2.233   1.020   2.303
 1946SOL     OW  758   3.114   1.348   2.250
 1946SOL    HW1  759   3.164   1.425   2.290
 1946SOL    HW2  760   3.019   1.350   2.282
 1947SOL     OW  761   3.134   1.445   3.004
 1947SOL    HW1  762   3.181   1.458   3.091
 1947SOL    HW2  763   3.068   1.371   3.013
 1949SOL     OW  764   2.216   1.510   3.191
 1949SOL    HW1  765   2.195   1.466   3.104
 1949SOL    HW2  766   2.313   1.536   3.194
 1954SOL     OW  767   2.435   0.870   2.891
 1954SOL    HW1  768   2.479   0.959   2.882
 1954SOL    HW2  769   2.372   0.870   2.968
 1958SOL     OW  770   1.899   1.310   3.144
 1958SOL    HW1  771   1.952   1.261   3.212
 1958SOL    HW2  772   1.921   1.408   3.149
 1964SOL     OW  773   2.842   1.573   3.562
 1964SOL    HW1  774   2.822   1.617   3.474
 1964SOL    HW2  775   2.881   1.482   3.546
 1965SOL     OW  776   3.721   1.518   3.467
 1965SOL    HW1  777   3.735   1.545   3.372
 1965SOL    HW2  778   3.804   1.540   3.520
 1969SOL     OW  779   2.930   1.333   2.711
 1969SOL    HW1  780   2.937   1.249   2.656
 1969SOL    HW2  781   2.992   1.402   2.675
 1974SOL     OW  782   1.870   1.326   2.062
 1974SOL    HW1  783   1.777   1.347   2.031
 1974SOL    HW2  784   1.880   1.227   2.075
 1975SOL     OW  785   1.950   1.801   2.789
 1975SOL    HW1  786   1.908   1.715   2.762
 1975SOL    HW2  787   2.044   1.804   2.755
 1976SOL     OW  788   2.366   1.568   2.772
 1976SOL    HW1  789   2.432   1.642   2.781
 1976SOL    HW2  790   2.410   1.489   2.730
 1983SOL     OW  791   2.114   1.564   3.606
 1983SOL    HW1  792   2.084   1.621   3.682
 1983SOL    HW2  793   2.107   1.467   3.632
 1985SOL     OW  794   2.792   1.678   3.327
 1985SOL    HW1  795   2.768   1.660   3.232
 1985SOL    HW2  796   2.822   1.772   3.337
 1987SOL     OW  797   2.021   1.137   3.328
 1987SOL    HW1  798   2.043   1.076   3.404
 1987SOL    HW2  799   2.031   1.088   3.242
 1988SOL     OW  800   3.209   1.059   3.096
 1988SOL    HW1  801   3.233   0.996   3.022
 1988SOL    HW2  802   3.119   1.099   3.078
 1990SOL     OW  803   3.621   1.747   3.016
 1990SOL    HW1  804   3.682   1.777   2.943
 1990SOL    HW2  805   3.583   1.658   2.994
 1991SOL     OW  806   3.114   1.731   2.990
 1991SOL    HW1  807   3.198   1.736   2.936
 1991SOL    HW2  808   3.091   1.635   3.008
 1992SOL     OW  809   1.945   1.258   2.884
 1992SOL    HW1  810   1.940   1.257   2.984
 1992SOL    HW2  811   1.862   1.217   2.846
 1993SOL     OW  812   2.550   1.662   3.578
 1993SOL    HW1  813   2.494   1.743   3.587
 1993SOL    HW2  814   2.602   1.666   3.492
 1995SOL     OW  815   3.250   1.573   2.339
 1995SOL    HW1  816   3.317   1.585   2.265
 1995SOL    HW2  817   3.210   1.662   2.362
 1996SOL     OW  818   1.992   1.794   3.713
 1996SOL    HW1  819   1.951   1.720   3.766
 1996SOL    HW2  820   2.056   1.845   3.771
 1997SOL     OW  821   3.142   0.927   2.534
 1997SOL    HW1  822   3.202   0.846   2.536
 1997SOL    HW2  823   3.182   0.996   2.474
 1998SOL     OW  824   2.692   1.273   3.284
 1998SOL    HW1  825   2.687   1.306   3.379
 1998SOL    HW2  826   2.606   1.292   3.238
 1999SOL     OW  827   2.534   1.616   2.016
 1999SOL    HW1  828   2.543   1.626   1.917
 1999SOL    HW2  829   2.494   1.527   2.037
 2000SOL     OW  830   3.512   1.720   3.256
 2000SOL    HW1  831   3.565   1.730   3.172
 2000SOL    HW2  832   3.485   1.810   3.290
 2003SOL     OW  833   3.056   1.612   1.893
 2003SOL    HW1  834   3.062   1.519   1.930
 2003SOL    HW2  835   2.997   1.612   1.813
 2004SOL     OW  836   2.684   1.002   3.234
 2004SOL    HW1  837   2.724   1.001   3.142
 2004SOL    HW2  838   2.694   1.094   3.274
 2005SOL     OW  839   2.778   0.910   2.153
 2005SOL    HW1  840   2.841   0.948   2.085
 2005SOL    HW2  841   2.818   0.827   2.192
 2006SOL     OW  842   3.366   1.607   1.906
 2006SOL    HW1  843   3.274   1.644   1.913
 2006SOL    HW2  844   3.404   1.627   1.816
 2007SOL     OW  845   2.234   1.288   3.352
 2007SOL    HW1  846   2.221   1.381   3.318
 2007SOL    HW2  847   2.150   1.236   3.339
 2008SOL     OW  848   3.476   1.292   3.151
 2008SOL    HW1  849   3.536   1.295   3.231
 2008SOL    HW2  850   3.401   1.356   3.164
 2009SOL     OW  851   2.901   1.098   2.558
 2009SOL    HW1  852   2.831   1.051   2.612
 2009SOL    HW2  853   2.960   1.030   2.515
 2011SOL     OW  854   2.452   1.487   2.353
 2011SOL    HW1  855   2.494   1.429   2.283
 2011SOL    HW2  856   2.408   1.566   2.309
 2013SOL     OW  857   2.117   1.348   2.152
 2013SOL    HW1  858   2.021   1.349   2.125
 2013SOL    HW2  859   2.129   1.401   2.236
 2019SOL     OW  860   3.045   1.335   1.981
 2019SOL    HW1  861   2.946   1.324   1.983
 2019SOL    HW2  862   3.079   1.350   2.074
 2021SOL     OW  863   3.355   1.767   2.821
 2021SOL    HW1  864   3.388   1.831   2.752
 2021SOL    HW2  865   3.421   1.761   2.896
 2023SOL     OW  866   3.312   1.220   3.495
 2023SOL    HW1  867   3.303   1.210   3.594
 2023SOL    HW2  868   3.408   1.213   3.469
 2024SOL     OW  869   2.252   1.741   3.422
 2024SOL    HW1  870   2.161   1.782   3.420
 2024SOL    HW2  871   2.245   1.647   3.454
 2030SOL     OW  872   2.721   1.374   1.878
 2030SOL    HW1  873   2.675   1.389   1.966
 2030SOL    HW2  874   2.765   1.459   1.848
 2031SOL     OW  875   2.523   1.790   2.815
 2031SOL    HW1  876   2.477   1.878   2.802
 2031SOL    HW2  877   2.622   1.802   2.808
 2032SOL     OW  878   2.721   0.956   2.723
 2032SOL    HW1  879   2.775   0.887   2.771
 2032SOL    HW2  880   2.689   1.025   2.789
 2033SOL     OW  881   2.945   0.984   1.949
 2033SOL    HW1  882   2.922   1.037   1.867
 2033SOL    HW2  883   3.026   0.928   1.930
 2034SOL     OW  884   3.723   1.569   2.713
 2034SOL    HW1  885   3.652   1.557   2.643
 2034SOL    HW2  886   3.724   1.490   2.773
 2035SOL     OW  887   2.083   1.314   3.706
 2035SOL    HW1  888   2.018   1.241   3.685
 2035SOL    HW2  889   2.087   1.328   3.804
 2036SOL     OW  890   1.941   1.240   2.515
 2036SOL    HW1  891   1.940   1.193   2.603
 2036SOL    HW2  892   2.023   1.212   2.464
 2037SOL     OW  893   2.534   1.391   3.486
 2037SOL    HW1  894   2.456   1.341   3.524
 2037SOL    HW2  895   2.531   1.486   3.517
 2040SOL     OW  896   3.567   1.487   2.966
 2040SOL    HW1  897   3.474   1.462   2.939
 2040SOL    HW2  898   3.593   1.437   3.048
 2042SOL     OW  899   2.674   1.586   2.549
 2042SOL    HW1  900   2.706   1.596   2.455
 2042SOL    HW2  901   2.595   1.524   2.551
 2045SOL     OW  902   2.632   1.330   2.163
 2045SOL    HW1  903   2.586   1.243   2.180
 2045SOL    HW2  904   2.723   1.327   2.204
 2046SOL     OW  905   2.480   1.567   3.146
 2046SOL    HW1  906   2.475   1.649   3.203
 2046SOL    HW2  907   2.569   1.564   3.101
 2050SOL     OW  908   1.901   1.077   2.162
 2050SOL    HW1  909   2.000   1.066   2.153
 2050SOL    HW2  910   1.861   0.991   2.194
 2051SOL     OW  911   2.737   1.646   2.199
 2051SOL    HW1  912   2.660   1.611   2.145
 2051SOL    HW2  913   2.705   1.717   2.261
 2071SOL     OW  914   1.889   1.596   3.841
 2071SOL    HW1  915   1.870   1.500   3.862
 2071SOL    HW2  916   1.856   1.654   3.916
 2096SOL     OW  917   2.973   1.776   3.961
 2096SOL    HW1  918   2.913   1.714   4.011
 2096SOL    HW2  919   3.004   1.732   3.876
 2098SOL     OW  920   2.326   1.743   4.047
 2098SOL    HW1  921   2.359   1.782   4.133
 2098SOL    HW2  922   2.402   1.736   3.982
 2121SOL     OW  923   2.350   1.385   3.898
 2121SOL    HW1  924   2.263   1.370   3.945
 2121SOL    HW2  925   2.333   1.411   3.803
 2172SOL     OW  926   2.534   1.616   3.878
 2172SOL    HW1  927   2.543   1.626   3.779
 2172SOL    HW2  928   2.494   1.527   3.899
 2175SOL     OW  929   3.056   1.612   3.755
 2175SOL    HW1  930   3.062   1.519   3.792
 2175SOL    HW2  931   2.997   1.612   3.675
 2178SOL     OW  932   3.366   1.607   3.768
 2178SOL    HW1  933   3.274   1.644   3.775
 2178SOL    HW2  934   3.404   1.627   3.678
 2195SOL     OW  935   2.721   1.374   3.740
 2195SOL    HW1  936   2.675   1.389   3.828
 2195SOL    HW2  937   2.765   1.459   3.710
 2214SOL     OW  938   2.737   1.646   4.061
 2214SOL    HW1  939   2.660   1.611   4.007
 2214SOL    HW2  940   2.705   1.717   4.123
 2216SOL     OW  941   2.087   2.137   0.996
 2216SOL    HW1  942   2.122   2.120   1.088
 2216SOL    HW2  943   1.999   2.092   0.984
 2218SOL     OW  944   2.431   3.137   1.165
 2218SOL    HW1  945   2.338   3.130   1.128
 2218SOL    HW2  946   2.442   3.226   1.209
 2222SOL     OW  947   2.630   3.006   1.023
 2222SOL    HW1  948   2.552   3.023   1.083
 2222SOL    HW2  949   2.664   3.093   0.987
 2223SOL     OW  950   2.712   2.660   1.823
 2223SOL    HW1  951   2.708   2.736   1.888
 2223SOL    HW2  952   2.734   2.696   1.732
 2225SOL     OW  953   2.548   3.023   1.803
 2225SOL    HW1  954   2.608   3.102   1.817
 2225SOL    HW2  955   2.462   3.054   1.762
 2226SOL     OW  956   2.197   3.297   1.061
 2226SOL    HW1  957   2.119   3.266   1.008
 2226SOL    HW2  958   2.255   3.355   1.004
 2227SOL     OW  959   3.322   3.367   1.339
 2227SOL    HW1  960   3.346   3.461   1.365
 2227SOL    HW2  961   3.306   3.313   1.421
 2228SOL     OW  962   2.300   2.254   1.499
 2228SOL    HW1  963   2.382   2.198   1.508
 2228SOL    HW2  964   2.219   2.196   1.503
 2231SOL     OW  965   2.989   3.203   1.690
 2231SOL    HW1  966   3.036   3.203   1.778
 2231SOL    HW2  967   2.941   3.116   1.679
 2234SOL     OW  968   2.482   3.648   1.439
 2234SOL    HW1  969   2.390   3.631   1.474
 2234SOL    HW2  970   2.510   3.740   1.465
 2236SOL     OW  971   3.456   1.976   1.480
 2236SOL    HW1  972   3.438   2.043   1.408
 2236SOL    HW2  973   3.453   2.022   1.569
 2242SOL     OW  974   1.975   2.599   1.597
 2242SOL    HW1  975   2.063   2.586   1.642
 2242SOL    HW2  976   1.962   2.696   1.575
 2244SOL     OW  977   3.155   3.090   1.423
 2244SOL    HW1  978   3.192   3.017   1.365
 2244SOL    HW2  979   3.207   3.095   1.508
 2246SOL     OW  980   2.059   2.838   1.264
 2246SOL    HW1  981   2.148   2.793   1.250
 2246SOL    HW2  982   1.986   2.773   1.245
 2248SOL     OW  983   3.049   3.654   1.616
 2248SOL    HW1  984   3.073   3.714   1.540
 2248SOL    HW2  985   3.056   3.559   1.586
 2249SOL     OW  986   2.179   2.113   1.801
 2249SOL    HW1  987   2.250   2.184   1.807
 2249SOL    HW2  988   2.091   2.152   1.829
 2253SOL     OW  989   3.143   2.207   0.944
 2253SOL    HW1  990   3.057   2.157   0.931
 2253SOL    HW2  991   3.205   2.153   1.000
 2255SOL     OW  992   2.669   2.467   1.465
 2255SOL    HW1  993   2.622   2.464   1.554
 2255SOL    HW2  994   2.618   2.412   1.399
 2256SOL     OW  995   3.256   2.331   1.674
 2256SOL    HW1  996   3.236   2.374   1.762
 2256SOL    HW2  997   3.334   2.269   1.683
 2257SOL     OW  998   2.835   2.752   1.572
 2257SOL    HW1  999   2.881   2.668   1.543
 2257SOL    HW2 1000   2.779   2.786   1.497
 2258SOL     OW 1001   2.853   2.272   1.242
 2258SOL    HW1 1002   2.776   2.306   1.296
 2258SOL    HW2 1003   2.819   2.221   1.163
 2261SOL     OW 1004   1.992   3.683   1.571
 2261SOL    HW1 1005   1.982   3.668   1.670
 2261SOL    HW2 1006   1.906   3.719   1.535
 2263SOL     OW 1007   3.581   2.447   1.831
 2263SOL    HW1 1008   3.555   2.536   1.795
 2263SOL    HW2 1009   3.579   2.379   1.758
 2265SOL     OW 1010   2.412   2.058   0.885
 2265SOL    HW1 1011   2.407   2.053   0.985
 2265SOL    HW2 1012   2.414   2.154   0.856
 2269SOL     OW 1013   3.089   3.412   1.506
 2269SOL    HW1 1014   3.095   3.335   1.570
 2269SOL    HW2 1015   3.037   3.386   1.426
 2272SOL     OW 1016   2.323   3.128   1.727
 2272SOL    HW1 1017   2.273   3.129   1.641
 2272SOL    HW2 1018   2.260   3.110   1.803
 2274SOL     OW 1019   2.064   2.147   1.498
 2274SOL    HW1 1020   1.984   2.207   1.485
 2274SOL    HW2 1021   2.054   2.098   1.584
 2278SOL     OW 1022   2.111   3.647   1.241
 2278SOL    HW1 1023   2.168   3.582   1.291
 2278SOL    HW2 1024   2.095   3.614   1.148
 2281SOL     OW 1025   3.409   2.084   1.729
 2281SOL    HW1 1026   3.404   2.121   1.821
 2281SOL    HW2 1027   3.337   2.015   1.717
 2282SOL     OW 1028   2.643   2.126   1.749
 2282SOL    HW1 1029   2.710   2.065   1.792
 2282SOL    HW2 1030   2.570   2.145   1.814
 2283SOL     OW 1031   2.750   3.376   1.195
 2283SOL    HW1 1032   2.727   3.351   1.101
 2283SOL    HW2 1033   2.811   3.307   1.234
 2284SOL     OW 1034   3.213   2.452   1.433
 2284SOL    HW1 1035   3.241   2.409   1.518
 2284SOL    HW2 1036   3.238   2.548   1.434
 2285SOL     OW 1037   2.665   3.264   0.924
 2285SOL    HW1 1038   2.755   3.278   0.882
 2285SOL    HW2 1039   2.594   3.266   0.853
 2286SOL     OW 1040   2.784   2.365   0.899
 2286SOL    HW1 1041   2.759   2.356   0.803
 2286SOL    HW2 1042   2.832   2.283   0.930
 2290SOL     OW 1043   2.938   2.545   1.464
 2290SOL    HW1 1044   2.858   2.484   1.467
 2290SOL    HW2 1045   3.019   2.492   1.440
 2295SOL     OW 1046   1.940   2.418   1.386
 2295SOL    HW1 1047   2.032   2.417   1.345
 2295SOL    HW2 1048   1.934   2.492   1.453
 2296SOL     OW 1049   2.423   2.084   1.147
 2296SOL    HW1 1050   2.461   2.000   1.184
 2296SOL    HW2 1051   2.335   2.103   1.191
 2300SOL     OW 1052   3.328   2.452   0.992
 2300SOL    HW1 1053   3.298   2.357   0.999
 2300SOL    HW2 1054   3.401   2.468   1.058
 2306SOL     OW 1055   3.616   3.085   1.588
 2306SOL    HW1 1056   3.707   3.046   1.575
 2306SOL    HW2 1057   3.624   3.181   1.612
 2307SOL     OW 1058   2.926   3.209   1.340
 2307SOL    HW1 1059   2.846   3.186   1.395
 2307SOL    HW2 1060   3.009   3.183   1.389
 2308SOL     OW 1061   3.454   3.491   1.625
 2308SOL    HW1 1062   3.481   3.525   1.535
 2308SOL    HW2 1063   3.533   3.453   1.671
 2309SOL     OW 1064   2.973   3.057   1.100
 2309SOL    HW1 1065   2.933   3.101   1.181
 2309SOL    HW2 1066   2.932   3.094   1.017
 2311SOL     OW 1067   2.777   1.951   1.402
 2311SOL    HW1 1068   2.802   1.931   1.307
 2311SOL    HW2 1069   2.849   2.007   1.444
 2312SOL     OW 1070   2.842   2.978   1.719
 2312SOL    HW1 1071   2.743   2.984   1.729
 2312SOL    HW2 1072   2.865   2.898   1.663
 2314SOL     OW 1073   2.272   2.675   1.251
 2314SOL    HW1 1074   2.358   2.687   1.301
 2314SOL    HW2 1075   2.230   2.588   1.278
 2315SOL     OW 1076   3.136   2.248   1.262
 2315SOL    HW1 1077   3.157   2.322   1.326
 2315SOL    HW2 1078   3.047   2.265   1.219
 2316SOL     OW 1079   1.926   3.426   1.331
 2316SOL    HW1 1080   1.880   3.508   1.297
 2316SOL    HW2 1081   2.024   3.445   1.340
 2318SOL     OW 1082   2.428   2.399   0.865
 2318SOL    HW1 1083   2.440   2.465   0.791
 2318SOL    HW2 1084   2.474   2.433   0.948
 2320SOL     OW 1085   3.134   3.307   1.142
 2320SOL    HW1 1086   3.181   3.320   1.229
 2320SOL    HW2 1087   3.068   3.233   1.151
 2322SOL     OW 1088   2.216   3.372   1.329
 2322SOL    HW1 1089   2.195   3.328   1.242
 2322SOL    HW2 1090   2.313   3.398   1.332
 2323SOL     OW 1091   2.264   2.613   1.598
 2323SOL    HW1 1092   2.332   2.668   1.551
 2323SOL    HW2 1093   2.304   2.525   1.625
 2324SOL     OW 1094   3.449   2.641   1.670
 2324SOL    HW1 1095   3.357   2.679   1.665
 2324SOL    HW2 1096   3.509   2.688   1.605
 2325SOL     OW 1097   2.875   1.967   1.770
 2325SOL    HW1 1098   2.881   2.052   1.718
 2325SOL    HW2 1099   2.907   1.891   1.713
 2326SOL     OW 1100   2.366   1.912   1.740
 2326SOL    HW1 1101   2.324   1.855   1.670
 2326SOL    HW2 1102   2.300   1.981   1.772
 2327SOL     OW 1103   2.435   2.732   1.029
 2327SOL    HW1 1104   2.479   2.821   1.020
 2327SOL    HW2 1105   2.372   2.732   1.106
 2328SOL     OW 1106   3.222   2.724   1.045
 2328SOL    HW1 1107   3.147   2.724   0.979
 2328SOL    HW2 1108   3.259   2.632   1.054
 2330SOL     OW 1109   2.169   2.075   1.231
 2330SOL    HW1 1110   2.146   2.112   1.321
 2330SOL    HW2 1111   2.139   1.980   1.225
 2331SOL     OW 1112   1.899   3.172   1.282
 2331SOL    HW1 1113   1.952   3.123   1.350
 2331SOL    HW2 1114   1.921   3.270   1.287
 2332SOL     OW 1115   2.594   2.496   1.064
 2332SOL    HW1 1116   2.653   2.470   0.988
 2332SOL    HW2 1117   2.566   2.592   1.053
 2333SOL     OW 1118   3.590   2.797   1.854
 2333SOL    HW1 1119   3.544   2.790   1.765
 2333SOL    HW2 1120   3.528   2.841   1.920
 2336SOL     OW 1121   2.885   2.628   0.966
 2336SOL    HW1 1122   2.900   2.649   1.062
 2336SOL    HW2 1123   2.855   2.533   0.957
 2337SOL     OW 1124   2.842   3.435   1.700
 2337SOL    HW1 1125   2.822   3.479   1.612
 2337SOL    HW2 1126   2.881   3.344   1.684
 2338SOL     OW 1127   3.721   3.380   1.605
 2338SOL    HW1 1128   3.735   3.407   1.510
 2338SOL    HW2 1129   3.804   3.402   1.658
 2339SOL     OW 1130   2.212   2.760   1.804
 2339SOL    HW1 1131   2.288   2.804   1.852
 2339SOL    HW2 1132   2.247   2.713   1.722
 2343SOL     OW 1133   2.181   2.672   0.949
 2343SOL    HW1 1134   2.274   2.708   0.954
 2343SOL    HW2 1135   2.175   2.587   1.001
 2344SOL     OW 1136   2.201   2.371   1.006
 2344SOL    HW1 1137   2.149   2.288   0.989
 2344SOL    HW2 1138   2.278   2.376   0.942
 2345SOL     OW 1139   3.000   2.242   1.678
 2345SOL    HW1 1140   2.955   2.305   1.742
 2345SOL    HW2 1141   3.093   2.273   1.661
 2346SOL     OW 1142   3.022   2.069   1.477
 2346SOL    HW1 1143   3.022   2.133   1.554
 2346SOL    HW2 1144   3.050   2.117   1.394
 2349SOL     OW 1145   2.864   2.658   1.238
 2349SOL    HW1 1146   2.905   2.626   1.324
 2349SOL    HW2 1147   2.768   2.631   1.235
 2350SOL     OW 1148   1.902   2.406   1.114
 2350SOL    HW1 1149   1.987   2.373   1.073
 2350SOL    HW2 1150   1.915   2.421   1.212
 2351SOL     OW 1151   2.051   2.382   1.722
 2351SOL    HW1 1152   2.110   2.342   1.652
 2351SOL    HW2 1153   1.993   2.453   1.681
 2352SOL     OW 1154   3.231   2.812   1.660
 2352SOL    HW1 1155   3.270   2.901   1.680
 2352SOL    HW2 1156   3.241   2.792   1.563
 2354SOL     OW 1157   3.519   2.466   1.206
 2354SOL    HW1 1158   3.481   2.397   1.268
 2354SOL    HW2 1159   3.601   2.430   1.162
 2355SOL     OW 1160   2.114   3.426   1.744
 2355SOL    HW1 1161   2.084   3.483   1.820
 2355SOL    HW2 1162   2.107   3.329   1.770
 2356SOL     OW 1163   2.533   2.326   1.269
 2356SOL    HW1 1164   2.499   2.237   1.239
 2356SOL    HW2 1165   2.559   2.380   1.189
 2357SOL     OW 1166   2.792   3.540   1.465
 2357SOL    HW1 1167   2.768   3.522   1.370
 2357SOL    HW2 1168   2.822   3.634   1.475
 2359SOL     OW 1169   2.021   2.999   1.466
 2359SOL    HW1 1170   2.043   2.938   1.542
 2359SOL    HW2 1171   2.031   2.950   1.380
 2360SOL     OW 1172   3.209   2.921   1.234
 2360SOL    HW1 1173   3.233   2.858   1.160
 2360SOL    HW2 1174   3.119   2.961   1.216
 2364SOL     OW 1175   1.945   3.120   1.022
 2364SOL    HW1 1176   1.940   3.119   1.122
 2364SOL    HW2 1177   1.862   3.079   0.984
 2365SOL     OW 1178   2.550   3.524   1.716
 2365SOL    HW1 1179   2.494   3.605   1.725
 2365SOL    HW2 1180   2.602   3.528   1.630
 2369SOL     OW 1181   1.992   3.656   1.851
 2369SOL    HW1 1182   1.951   3.582   1.904
 2369SOL    HW2 1183   2.056   3.707   1.909
 2371SOL     OW 1184   2.692   3.135   1.422
 2371SOL    HW1 1185   2.687   3.168   1.517
 2371SOL    HW2 1186   2.606   3.154   1.376
 2377SOL     OW 1187   2.684   2.864   1.372
 2377SOL    HW1 1188   2.724   2.863   1.280
 2377SOL    HW2 1189   2.694   2.956   1.412
 2380SOL     OW 1190   2.234   3.150   1.490
 2380SOL    HW1 1191   2.221   3.243   1.456
 2380SOL    HW2 1192   2.150   3.098   1.477
 2381SOL     OW 1193   3.476   3.154   1.289
 2381SOL    HW1 1194   3.536   3.157   1.369
 2381SOL    HW2 1195   3.401   3.218   1.302
 2383SOL     OW 1196   2.876   2.098   0.971
 2383SOL    HW1 1197   2.868   2.062   0.878
 2383SOL    HW2 1198   2.874   2.022   1.036
 2385SOL     OW 1199   3.571   2.247   1.381
 2385SOL    HW1 1200   3.644   2.316   1.385
 2385SOL    HW2 1201   3.599   2.172   1.322
 2387SOL     OW 1202   1.967   2.875   1.726
 2387SOL    HW1 1203   1.890   2.842   1.780
 2387SOL    HW2 1204   2.052   2.845   1.768
 2388SOL     OW 1205   2.534   2.065   1.489
 2388SOL    HW1 1206   2.624   2.049   1.449
 2388SOL    HW2 1207   2.542   2.070   1.588
 2390SOL     OW 1208   3.302   2.718   1.398
 2390SOL    HW1 1209   3.245   2.770   1.335
 2390SOL    HW2 1210   3.398   2.730   1.374
 2393SOL     OW 1211   2.475   2.704   1.431
 2393SOL    HW1 1212   2.531   2.785   1.414
 2393SOL    HW2 1213   2.534   2.624   1.434
 2395SOL     OW 1214   2.578   2.427   1.708
 2395SOL    HW1 1215   2.597   2.492   1.782
 2395SOL    HW2 1216   2.638   2.347   1.717
 2396SOL     OW 1217   3.312   3.082   1.633
 2396SOL    HW1 1218   3.303   3.072   1.732
 2396SOL    HW2 1219   3.408   3.075   1.607
 2397SOL     OW 1220   2.252   3.603   1.560
 2397SOL    HW1 1221   2.161   3.644   1.558
 2397SOL    HW2 1222   2.245   3.509   1.592
 2398SOL     OW 1223   3.536   2.745   1.254
 2398SOL    HW1 1224   3.509   2.656   1.217
 2398SOL    HW2 1225   3.537   2.813   1.181
 2401SOL     OW 1226   3.639   2.204   1.642
 2401SOL    HW1 1227   3.622   2.235   1.548
 2401SOL    HW2 1228   3.555   2.167   1.680
 2402SOL     OW 1229   3.592   2.796   1.517
 2402SOL    HW1 1230   3.630   2.887   1.532
 2402SOL    HW2 1231   3.584   2.779   1.418
 2405SOL     OW 1232   2.721   2.818   0.861
 2405SOL    HW1 1233   2.775   2.749   0.909
 2405SOL    HW2 1234   2.689   2.887   0.927
 2408SOL     OW 1235   2.083   3.176   1.844
 2408SOL    HW1 1236   2.018   3.103   1.823
 2408SOL    HW2 1237   2.087   3.190   1.942
 2410SOL     OW 1238   2.534   3.253   1.624
 2410SOL    HW1 1239   2.456   3.203   1.662
 2410SOL    HW2 1240   2.531   3.348   1.655
 2414SOL     OW 1241   2.179   2.409   1.280
 2414SOL    HW1 1242   2.217   2.350   1.352
 2414SOL    HW2 1243   2.219   2.383   1.192
 2416SOL     OW 1244   3.286   2.076   1.112
 2416SOL    HW1 1245   3.338   2.011   1.167
 2416SOL    HW2 1246   3.237   2.139   1.173
 2417SOL     OW 1247   2.863   1.896   1.154
 2417SOL    HW1 1248   2.800   1.824   1.123
 2417SOL    HW2 1249   2.956   1.860   1.154
 2419SOL     OW 1250   2.480   3.429   1.284
 2419SOL    HW1 1251   2.475   3.511   1.341
 2419SOL    HW2 1252   2.569   3.426   1.239
 2425SOL     OW 1253   2.092   2.490   1.975
 2425SOL    HW1 1254   1.999   2.488   2.012
 2425SOL    HW2 1255   2.093   2.451   1.883
 2426SOL     OW 1256   2.087   2.137   2.858
 2426SOL    HW1 1257   2.122   2.120   2.950
 2426SOL    HW2 1258   1.999   2.092   2.846
 2427SOL     OW 1259   1.881   2.230   2.509
 2427SOL    HW1 1260   1.799   2.273   2.548
 2427SOL    HW2 1261   1.853   2.157   2.446
 2428SOL     OW 1262   2.431   3.137   3.027
 2428SOL    HW1 1263   2.338   3.130   2.990
 2428SOL    HW2 1264   2.442   3.226   3.071
 2429SOL     OW 1265   3.417   3.373   2.565
 2429SOL    HW1 1266   3.360   3.357   2.646
 2429SOL    HW2 1267   3.358   3.383   2.485
 2430SOL     OW 1268   2.997   2.565   2.579
 2430SOL    HW1 1269   3.054   2.643   2.554
 2430SOL    HW2 1270   2.937   2.591   2.655
 2431SOL     OW 1271   3.617   2.469   2.093
 2431SOL    HW1 1272   3.605   2.456   1.994
 2431SOL    HW2 1273   3.587   2.388   2.142
 2432SOL     OW 1274   2.630   3.006   2.885
 2432SOL    HW1 1275   2.552   3.023   2.945
 2432SOL    HW2 1276   2.664   3.093   2.849
 2433SOL     OW 1277   2.712   2.660   3.685
 2433SOL    HW1 1278   2.708   2.736   3.750
 2433SOL    HW2 1279   2.734   2.696   3.594
 2434SOL     OW 1280   2.548   3.023   3.665
 2434SOL    HW1 1281   2.608   3.102   3.679
 2434SOL    HW2 1282   2.462   3.054   3.624
 2435SOL     OW 1283   2.197   3.297   2.923
 2435SOL    HW1 1284   2.119   3.266   2.870
 2435SOL    HW2 1285   2.255   3.355   2.866
 2436SOL     OW 1286   3.322   3.367   3.201
 2436SOL    HW1 1287   3.346   3.461   3.227
 2436SOL    HW2 1288   3.306   3.313   3.283
 2437SOL     OW 1289   2.300   2.254   3.361
 2437SOL    HW1 1290   2.382   2.198   3.370
 2437SOL    HW2 1291   2.219   2.196   3.365
 2438SOL     OW 1292   3.465   2.309   2.599
 2438SOL    HW1 1293   3.391   2.355   2.549
 2438SOL    HW2 1294   3.516   2.377   2.652
 2439SOL     OW 1295   2.093   3.575   2.345
 2439SOL    HW1 1296   2.127   3.652   2.399
 2439SOL    HW2 1297   2.137   3.575   2.255
 2440SOL     OW 1298   2.989   3.203   3.552
 2440SOL    HW1 1299   3.036   3.203   3.640
 2440SOL    HW2 1300   2.941   3.116   3.541
 2441SOL     OW 1301   2.092   3.296   2.400
 2441SOL    HW1 1302   2.066   3.392   2.400
 2441SOL    HW2 1303   2.021   3.242   2.445
 2442SOL     OW 1304   2.102   2.953   2.748
 2442SOL    HW1 1305   2.116   2.869   2.800
 2442SOL    HW2 1306   2.047   3.017   2.803
 2443SOL     OW 1307   2.482   3.648   3.301
 2443SOL    HW1 1308   2.390   3.631   3.336
 2443SOL    HW2 1309   2.510   3.740   3.327
 2444SOL     OW 1310   2.468   2.826   1.985
 2444SOL    HW1 1311   2.475   2.910   1.931
 2444SOL    HW2 1312   2.514   2.839   2.073
 2445SOL     OW 1313   3.456   1.976   3.342
 2445SOL    HW1 1314   3.438   2.043   3.270
 2445SOL    HW2 1315   3.453   2.022   3.431
 2446SOL     OW 1316   1.984   2.505   2.425
 2446SOL    HW1 1317   1.939   2.417   2.442
 2446SOL    HW2 1318   1.983   2.559   2.509
 2447SOL     OW 1319   3.704   3.629   2.221
 2447SOL    HW1 1320   3.758   3.600   2.301
 2447SOL    HW2 1321   3.734   3.719   2.192
 2448SOL     OW 1322   1.889   3.458   1.979
 2448SOL    HW1 1323   1.870   3.362   2.000
 2448SOL    HW2 1324   1.856   3.516   2.054
 2449SOL     OW 1325   3.551   2.784   2.474
 2449SOL    HW1 1326   3.646   2.755   2.482
 2449SOL    HW2 1327   3.543   2.849   2.399
 2450SOL     OW 1328   3.503   2.970   2.294
 2450SOL    HW1 1329   3.589   2.972   2.242
 2450SOL    HW2 1330   3.517   3.017   2.382
 2451SOL     OW 1331   1.975   2.599   3.459
 2451SOL    HW1 1332   2.063   2.586   3.504
 2451SOL    HW2 1333   1.962   2.696   3.437
 2452SOL     OW 1334   2.475   3.227   2.588
 2452SOL    HW1 1335   2.426   3.140   2.597
 2452SOL    HW2 1336   2.452   3.270   2.501
 2453SOL     OW 1337   3.155   3.090   3.285
 2453SOL    HW1 1338   3.192   3.017   3.227
 2453SOL    HW2 1339   3.207   3.095   3.370
 2454SOL     OW 1340   2.671   1.866   2.364
 2454SOL    HW1 1341   2.711   1.957   2.355
 2454SOL    HW2 1342   2.571   1.874   2.370
 2455SOL     OW 1343   2.059   2.838   3.126
 2455SOL    HW1 1344   2.148   2.793   3.112
 2455SOL    HW2 1345   1.986   2.773   3.107
 2456SOL     OW 1346   3.387   2.861   2.052
 2456SOL    HW1 1347   3.324   2.785   2.065
 2456SOL    HW2 1348   3.435   2.879   2.138
 2457SOL     OW 1349   3.049   3.654   3.478
 2457SOL    HW1 1350   3.073   3.714   3.402
 2457SOL    HW2 1351   3.056   3.559   3.448
 2458SOL     OW 1352   2.179   2.113   3.663
 2458SOL    HW1 1353   2.250   2.184   3.669
 2458SOL    HW2 1354   2.091   2.152   3.691
 2459SOL     OW 1355   3.328   3.279   2.815
 2459SOL    HW1 1356   3.269   3.285   2.895
 2459SOL    HW2 1357   3.313   3.191   2.769
 2460SOL     OW 1358   3.529   3.576   2.434
 2460SOL    HW1 1359   3.488   3.553   2.346
 2460SOL    HW2 1360   3.511   3.502   2.499
 2461SOL     OW 1361   2.460   2.591   2.132
 2461SOL    HW1 1362   2.484   2.660   2.064
 2461SOL    HW2 1363   2.382   2.624   2.186
 2462SOL     OW 1364   3.143   2.207   2.806
 2462SOL    HW1 1365   3.057   2.157   2.793
 2462SOL    HW2 1366   3.205   2.153   2.862
 2463SOL     OW 1367   3.438   3.524   2.169
 2463SOL    HW1 1368   3.527   3.570   2.172
 2463SOL    HW2 1369   3.417   3.500   2.074
 2464SOL     OW 1370   2.669   2.467   3.327
 2464SOL    HW1 1371   2.622   2.464   3.416
 2464SOL    HW2 1372   2.618   2.412   3.261
 2465SOL     OW 1373   3.256   2.331   3.536
 2465SOL    HW1 1374   3.236   2.374   3.624
 2465SOL    HW2 1375   3.334   2.269   3.545
 2466SOL     OW 1376   2.835   2.752   3.434
 2466SOL    HW1 1377   2.881   2.668   3.405
 2466SOL    HW2 1378   2.779   2.786   3.359
 2467SOL     OW 1379   2.853   2.272   3.104
 2467SOL    HW1 1380   2.776   2.306   3.158
 2467SOL    HW2 1381   2.819   2.221   3.025
 2468SOL     OW 1382   2.903   2.563   2.291
 2468SOL    HW1 1383   2.929   2.559   2.387
 2468SOL    HW2 1384   2.818   2.512   2.277
 2469SOL     OW 1385   1.938   2.673   2.651
 2469SOL    HW1 1386   2.037   2.661   2.660
 2469SOL    HW2 1387   1.914   2.768   2.672
 2470SOL     OW 1388   1.992   3.683   3.433
 2470SOL    HW1 1389   1.982   3.668   3.532
 2470SOL    HW2 1390   1.906   3.719   3.397
 2471SOL     OW 1391   2.727   2.210   2.057
 2471SOL    HW1 1392   2.786   2.273   2.008
 2471SOL    HW2 1393   2.746   2.116   2.028
 2472SOL     OW 1394   3.581   2.447   3.693
 2472SOL    HW1 1395   3.555   2.536   3.657
 2472SOL    HW2 1396   3.579   2.379   3.620
 2473SOL     OW 1397   3.224   3.006   2.407
 2473SOL    HW1 1398   3.307   2.977   2.359
 2473SOL    HW2 1399   3.175   3.073   2.351
 2474SOL     OW 1400   2.870   3.318   2.339
 2474SOL    HW1 1401   2.824   3.390   2.287
 2474SOL    HW2 1402   2.866   3.338   2.437
 2475SOL     OW 1403   2.213   3.663   2.715
 2475SOL    HW1 1404   2.263   3.577   2.721
 2475SOL    HW2 1405   2.278   3.740   2.712
 2476SOL     OW 1406   3.657   2.928   2.735
 2476SOL    HW1 1407   3.595   2.913   2.659
 2476SOL    HW2 1408   3.605   2.939   2.820
 2477SOL     OW 1409   3.089   3.412   3.368
 2477SOL    HW1 1410   3.095   3.335   3.432
 2477SOL    HW2 1411   3.037   3.386   3.288
 2478SOL     OW 1412   2.183   2.805   2.104
 2478SOL    HW1 1413   2.265   2.844   2.062
 2478SOL    HW2 1414   2.156   2.723   2.055
 2479SOL     OW 1415   3.320   2.597   2.590
 2479SOL    HW1 1416   3.315   2.532   2.665
 2479SOL    HW2 1417   3.400   2.656   2.603
 2480SOL     OW 1418   2.323   3.128   3.589
 2480SOL    HW1 1419   2.273   3.129   3.503
 2480SOL    HW2 1420   2.260   3.110   3.665
 2481SOL     OW 1421   2.973   3.638   2.099
 2481SOL    HW1 1422   2.913   3.576   2.149
 2481SOL    HW2 1423   3.004   3.594   2.014
 2482SOL     OW 1424   2.064   2.147   3.360
 2482SOL    HW1 1425   1.984   2.207   3.347
 2482SOL    HW2 1426   2.054   2.098   3.446
 2483SOL     OW 1427   3.494   3.239   1.943
 2483SOL    HW1 1428   3.462   3.333   1.933
 2483SOL    HW2 1429   3.418   3.176   1.931
 2484SOL     OW 1430   2.326   3.605   2.185
 2484SOL    HW1 1431   2.359   3.644   2.271
 2484SOL    HW2 1432   2.402   3.598   2.120
 2485SOL     OW 1433   3.262   1.969   2.288
 2485SOL    HW1 1434   3.238   1.932   2.198
 2485SOL    HW2 1435   3.361   1.985   2.292
 2486SOL     OW 1436   2.111   3.647   3.103
 2486SOL    HW1 1437   2.168   3.582   3.153
 2486SOL    HW2 1438   2.095   3.614   3.010
 2487SOL     OW 1439   2.802   3.560   2.766
 2487SOL    HW1 1440   2.882   3.503   2.787
 2487SOL    HW2 1441   2.753   3.520   2.689
 2488SOL     OW 1442   2.244   2.562   2.342
 2488SOL    HW1 1443   2.289   2.472   2.339
 2488SOL    HW2 1444   2.150   2.551   2.375
 2489SOL     OW 1445   3.409   2.084   3.591
 2489SOL    HW1 1446   3.404   2.121   3.683
 2489SOL    HW2 1447   3.337   2.015   3.579
 2490SOL     OW 1448   2.476   1.984   1.979
 2490SOL    HW1 1449   2.574   1.962   1.986
 2490SOL    HW2 1450   2.445   1.967   1.886
 2491SOL     OW 1451   2.643   2.126   3.611
 2491SOL    HW1 1452   2.710   2.065   3.654
 2491SOL    HW2 1453   2.570   2.145   3.676
 2492SOL     OW 1454   2.750   3.376   3.057
 2492SOL    HW1 1455   2.727   3.351   2.963
 2492SOL    HW2 1456   2.811   3.307   3.096
 2493SOL     OW 1457   3.213   2.452   3.295
 2493SOL    HW1 1458   3.241   2.409   3.380
 2493SOL    HW2 1459   3.238   2.548   3.296
 2494SOL     OW 1460   2.665   3.264   2.786
 2494SOL    HW1 1461   2.755   3.278   2.744
 2494SOL    HW2 1462   2.594   3.266   2.715
 2495SOL     OW 1463   2.784   2.365   2.761
 2495SOL    HW1 1464   2.759   2.356   2.665
 2495SOL    HW2 1465   2.832   2.283   2.792
 2496SOL     OW 1466   2.401   1.926   2.374
 2496SOL    HW1 1467   2.320   1.927   2.432
 2496SOL    HW2 1468   2.404   2.009   2.319
 2497SOL     OW 1469   3.296   3.050   1.903
 2497SOL    HW1 1470   3.328   2.974   1.960
 2497SOL    HW2 1471   3.204   3.077   1.933
 2498SOL     OW 1472   2.159   1.897   2.033
 2498SOL    HW1 1473   2.208   1.981   2.012
 2498SOL    HW2 1474   2.221   1.832   2.078
 2499SOL     OW 1475   2.797   2.098   2.342
 2499SOL    HW1 1476   2.749   2.139   2.264
 2499SOL    HW2 1477   2.896   2.096   2.323
 2500SOL     OW 1478   2.938   2.545   3.326
 2500SOL    HW1 1479   2.858   2.484   3.329
 2500SOL    HW2 1480   3.019   2.492   3.302
 2501SOL     OW 1481   3.089   3.432   2.655
 2501SOL    HW1 1482   3.110   3.506   2.590
 2501SOL    HW2 1483   3.157   3.432   2.728
 2502SOL     OW 1484   2.321   3.014   2.603
 2502SOL    HW1 1485   2.250   2.987   2.668
 2502SOL    HW2 1486   2.295   2.986   2.510
 2503SOL     OW 1487   3.133   3.659   2.453
 2503SOL    HW1 1488   3.177   3.723   2.389
 2503SOL    HW2 1489   3.083   3.711   2.523
 2504SOL     OW 1490   2.894   2.411   1.878
 2504SOL    HW1 1491   2.853   2.493   1.839
 2504SOL    HW2 1492   2.958   2.437   1.951
 2505SOL     OW 1493   1.940   2.418   3.248
 2505SOL    HW1 1494   2.032   2.417   3.207
 2505SOL    HW2 1495   1.934   2.492   3.315
 2506SOL     OW 1496   2.423   2.084   3.009
 2506SOL    HW1 1497   2.461   2.000   3.046
 2506SOL    HW2 1498   2.335   2.103   3.053
 2507SOL     OW 1499   2.879   1.901   2.615
 2507SOL    HW1 1500   2.807   1.906   2.546
 2507SOL    HW2 1501   2.855   1.832   2.684
 2508SOL     OW 1502   3.291   3.035   2.729
 2508SOL    HW1 1503   3.236   2.951   2.722
 2508SOL    HW2 1504   3.317   3.064   2.637
 2509SOL     OW 1505   3.328   2.452   2.854
 2509SOL    HW1 1506   3.298   2.357   2.861
 2509SOL    HW2 1507   3.401   2.468   2.920
 2510SOL     OW 1508   3.719   2.695   2.239
 2510SOL    HW1 1509   3.761   2.631   2.303
 2510SOL    HW2 1510   3.681   2.644   2.161
 2511SOL     OW 1511   2.350   3.247   2.036
 2511SOL    HW1 1512   2.263   3.232   2.083
 2511SOL    HW2 1513   2.333   3.273   1.941
 2512SOL     OW 1514   3.526   3.142   2.519
 2512SOL    HW1 1515   3.625   3.150   2.533
 2512SOL    HW2 1516   3.481   3.226   2.550
 2513SOL     OW 1517   3.252   2.437   1.940
 2513SOL    HW1 1518   3.198   2.416   2.021
 2513SOL    HW2 1519   3.343   2.396   1.949
 2514SOL     OW 1520   2.389   2.118   2.190
 2514SOL    HW1 1521   2.416   2.059   2.115
 2514SOL    HW2 1522   2.389   2.213   2.159
 2515SOL     OW 1523   3.616   3.085   3.450
 2515SOL    HW1 1524   3.707   3.046   3.437
 2515SOL    HW2 1525   3.624   3.181   3.474
 2516SOL     OW 1526   2.926   3.209   3.202
 2516SOL    HW1 1527   2.846   3.186   3.257
 2516SOL    HW2 1528   3.009   3.183   3.251
 2517SOL     OW 1529   3.454   3.491   3.487
 2517SOL    HW1 1530   3.481   3.525   3.397
 2517SOL    HW2 1531   3.533   3.453   3.533
 2518SOL     OW 1532   2.973   3.057   2.962
 2518SOL    HW1 1533   2.933   3.101   3.043
 2518SOL    HW2 1534   2.932   3.094   2.879
 2519SOL     OW 1535   3.500   2.961   2.941
 2519SOL    HW1 1536   3.505   3.042   3.000
 2519SOL    HW2 1537   3.414   2.963   2.890
 2520SOL     OW 1538   2.777   1.951   3.264
 2520SOL    HW1 1539   2.802   1.931   3.169
 2520SOL    HW2 1540   2.849   2.007   3.306
 2521SOL     OW 1541   2.842   2.978   3.581
 2521SOL    HW1 1542   2.743   2.984   3.591
 2521SOL    HW2 1543   2.865   2.898   3.525
 2522SOL     OW 1544   2.567   2.912   2.230
 2522SOL    HW1 1545   2.553   2.919   2.329
 2522SOL    HW2 1546   2.651   2.861   2.212
 2523SOL     OW 1547   2.272   2.675   3.113
 2523SOL    HW1 1548   2.358   2.687   3.163
 2523SOL    HW2 1549   2.230   2.588   3.140
 2524SOL     OW 1550   3.136   2.248   3.124
 2524SOL    HW1 1551   3.157   2.322   3.188
 2524SOL    HW2 1552   3.047   2.265   3.081
 2525SOL     OW 1553   1.926   3.426   3.193
 2525SOL    HW1 1554   1.880   3.508   3.159
 2525SOL    HW2 1555   2.024   3.445   3.202
 2526SOL     OW 1556   2.229   2.962   2.363
 2526SOL    HW1 1557   2.222   3.045   2.307
 2526SOL    HW2 1558   2.233   2.882   2.303
 2527SOL     OW 1559   3.114   3.210   2.250
 2527SOL    HW1 1560   3.164   3.287   2.290
 2527SOL    HW2 1561   3.019   3.212   2.282
 2528SOL     OW 1562   3.134   3.307   3.004
 2528SOL    HW1 1563   3.181   3.320   3.091
 2528SOL    HW2 1564   3.068   3.233   3.013
 2529SOL     OW 1565   3.444   2.501   2.334
 2529SOL    HW1 1566   3.413   2.562   2.407
 2529SOL    HW2 1567   3.494   2.553   2.265
 2530SOL     OW 1568   2.216   3.372   3.191
 2530SOL    HW1 1569   2.195   3.328   3.104
 2530SOL    HW2 1570   2.313   3.398   3.194
 2531SOL     OW 1571   2.264   2.613   3.460
 2531SOL    HW1 1572   2.332   2.668   3.413
 2531SOL    HW2 1573   2.304   2.525   3.487
 2532SOL     OW 1574   3.449   2.641   3.532
 2532SOL    HW1 1575   3.357   2.679   3.527
 2532SOL    HW2 1576   3.509   2.688   3.467
 2533SOL     OW 1577   2.875   1.967   3.632
 2533SOL    HW1 1578   2.881   2.052   3.580
 2533SOL    HW2 1579   2.907   1.891   3.575
 2534SOL     OW 1580   2.366   1.912   3.602
 2534SOL    HW1 1581   2.324   1.855   3.532
 2534SOL    HW2 1582   2.300   1.981   3.634
 2535SOL     OW 1583   2.435   2.732   2.891
 2535SOL    HW1 1584   2.479   2.821   2.882
 2535SOL    HW2 1585   2.372   2.732   2.968
 2536SOL     OW 1586   3.222   2.724   2.907
 2536SOL    HW1 1587   3.147   2.724   2.841
 2536SOL    HW2 1588   3.259   2.632   2.916
 2537SOL     OW 1589   3.071   2.387   2.137
 2537SOL    HW1 1590   3.084   2.303   2.191
 2537SOL    HW2 1591   3.042   2.461   2.197
 2538SOL     OW 1592   2.169   2.075   3.093
 2538SOL    HW1 1593   2.146   2.112   3.183
 2538SOL    HW2 1594   2.139   1.980   3.087
 2539SOL     OW 1595   1.899   3.172   3.144
 2539SOL    HW1 1596   1.952   3.123   3.212
 2539SOL    HW2 1597   1.921   3.270   3.149
 2540SOL     OW 1598   2.594   2.496   2.926
 2540SOL    HW1 1599   2.653   2.470   2.850
 2540SOL    HW2 1600   2.566   2.592   2.915
 2541SOL     OW 1601   3.590   2.797   3.716
 2541SOL    HW1 1602   3.544   2.790   3.627
 2541SOL    HW2 1603   3.528   2.841   3.782
 2542SOL     OW 1604   2.169   1.925   2.480
 2542SOL    HW1 1605   2.158   2.019   2.513
 2542SOL    HW2 1606   2.164   1.862   2.557
 2543SOL     OW 1607   3.484   2.229   2.236
 2543SOL    HW1 1608   3.486   2.153   2.300
 2543SOL    HW2 1609   3.436   2.306   2.276
 2544SOL     OW 1610   2.885   2.628   2.828
 2544SOL    HW1 1611   2.900   2.649   2.924
 2544SOL    HW2 1612   2.855   2.533   2.819
 2545SOL     OW 1613   2.842   3.435   3.562
 2545SOL    HW1 1614   2.822   3.479   3.474
 2545SOL    HW2 1615   2.881   3.344   3.546
 2546SOL     OW 1616   3.721   3.380   3.467
 2546SOL    HW1 1617   3.735   3.407   3.372
 2546SOL    HW2 1618   3.804   3.402   3.520
 2547SOL     OW 1619   2.212   2.760   3.666
 2547SOL    HW1 1620   2.288   2.804   3.714
 2547SOL    HW2 1621   2.247   2.713   3.584
 2548SOL     OW 1622   3.402   2.136   1.987
 2548SOL    HW1 1623   3.341   2.061   2.010
 2548SOL    HW2 1624   3.424   2.188   2.070
 2549SOL     OW 1625   3.165   2.700   1.904
 2549SOL    HW1 1626   3.199   2.607   1.919
 2549SOL    HW2 1627   3.183   2.727   1.809
 2550SOL     OW 1628   2.930   3.195   2.711
 2550SOL    HW1 1629   2.937   3.111   2.656
 2550SOL    HW2 1630   2.992   3.264   2.675
 2551SOL     OW 1631   2.181   2.672   2.811
 2551SOL    HW1 1632   2.274   2.708   2.816
 2551SOL    HW2 1633   2.175   2.587   2.863
 2552SOL     OW 1634   2.201   2.371   2.868
 2552SOL    HW1 1635   2.149   2.288   2.851
 2552SOL    HW2 1636   2.278   2.376   2.804
 2553SOL     OW 1637   3.000   2.242   3.540
 2553SOL    HW1 1638   2.955   2.305   3.604
 2553SOL    HW2 1639   3.093   2.273   3.523
 2554SOL     OW 1640   3.022   2.069   3.339
 2554SOL    HW1 1641   3.022   2.133   3.416
 2554SOL    HW2 1642   3.050   2.117   3.256
 2555SOL     OW 1643   1.870   3.188   2.062
 2555SOL    HW1 1644   1.777   3.209   2.031
 2555SOL    HW2 1645   1.880   3.089   2.075
 2556SOL     OW 1646   1.950   3.663   2.789
 2556SOL    HW1 1647   1.908   3.577   2.762
 2556SOL    HW2 1648   2.044   3.666   2.755
 2557SOL     OW 1649   2.366   3.430   2.772
 2557SOL    HW1 1650   2.432   3.504   2.781
 2557SOL    HW2 1651   2.410   3.351   2.730
 2558SOL     OW 1652   2.864   2.658   3.100
 2558SOL    HW1 1653   2.905   2.626   3.186
 2558SOL    HW2 1654   2.768   2.631   3.097
 2559SOL     OW 1655   1.902   2.406   2.976
 2559SOL    HW1 1656   1.987   2.373   2.935
 2559SOL    HW2 1657   1.915   2.421   3.074
 2560SOL     OW 1658   2.051   2.382   3.584
 2560SOL    HW1 1659   2.110   2.342   3.514
 2560SOL    HW2 1660   1.993   2.453   3.543
 2561SOL     OW 1661   3.231   2.812   3.522
 2561SOL    HW1 1662   3.270   2.901   3.542
 2561SOL    HW2 1663   3.241   2.792   3.425
 2562SOL     OW 1664   2.677   2.434   2.187
 2562SOL    HW1 1665   2.684   2.345   2.141
 2562SOL    HW2 1666   2.583   2.468   2.179
 2563SOL     OW 1667   3.519   2.466   3.068
 2563SOL    HW1 1668   3.481   2.397   3.130
 2563SOL    HW2 1669   3.601   2.430   3.024
 2564SOL     OW 1670   2.114   3.426   3.606
 2564SOL    HW1 1671   2.084   3.483   3.682
 2564SOL    HW2 1672   2.107   3.329   3.632
 2565SOL     OW 1673   2.533   2.326   3.131
 2565SOL    HW1 1674   2.499   2.237   3.101
 2565SOL    HW2 1675   2.559   2.380   3.051
 2566SOL     OW 1676   2.792   3.540   3.327
 2566SOL    HW1 1677   2.768   3.522   3.232
 2566SOL    HW2 1678   2.822   3.634   3.337
 2567SOL     OW 1679   2.335   2.362   2.053
 2567SOL    HW1 1680   2.396   2.442   2.057
 2567SOL    HW2 1681   2.240   2.393   2.060
 2568SOL     OW 1682   2.021   2.999   3.328
 2568SOL    HW1 1683   2.043   2.938   3.404
 2568SOL    HW2 1684   2.031   2.950   3.242
 2569SOL     OW 1685   3.209   2.921   3.096
 2569SOL    HW1 1686   3.233   2.858   3.022
 2569SOL    HW2 1687   3.119   2.961   3.078
 2570SOL     OW 1688   3.164   2.717   2.171
 2570SOL    HW1 1689   3.078   2.686   2.213
 2570SOL    HW2 1690   3.160   2.703   2.072
 2571SOL     OW 1691   3.621   3.609   3.016
 2571SOL    HW1 1692   3.682   3.639   2.943
 2571SOL    HW2 1693   3.583   3.520   2.994
 2572SOL     OW 1694   3.114   3.593   2.990
 2572SOL    HW1 1695   3.198   3.598   2.936
 2572SOL    HW2 1696   3.091   3.497   3.008
 2573SOL     OW 1697   1.945   3.120   2.884
 2573SOL    HW1 1698   1.940   3.119   2.984
 2573SOL    HW2 1699   1.862   3.079   2.846
 2574SOL     OW 1700   2.550   3.524   3.578
 2574SOL    HW1 1701   2.494   3.605   3.587
 2574SOL    HW2 1702   2.602   3.528   3.492
 2575SOL     OW 1703   3.588   1.997   2.385
 2575SOL    HW1 1704   3.661   1.980   2.318
 2575SOL    HW2 1705   3.557   1.910   2.423
 2576SOL     OW 1706   3.250   3.435   2.339
 2576SOL    HW1 1707   3.317   3.447   2.265
 2576SOL    HW2 1708   3.210   3.524   2.362
 2577SOL     OW 1709   1.992   3.656   3.713
 2577SOL    HW1 1710   1.951   3.582   3.766
 2577SOL    HW2 1711   2.056   3.707   3.771
 2578SOL     OW 1712   3.142   2.789   2.534
 2578SOL    HW1 1713   3.202   2.708   2.536
 2578SOL    HW2 1714   3.182   2.858   2.474
 2579SOL     OW 1715   2.692   3.135   3.284
 2579SOL    HW1 1716   2.687   3.168   3.379
 2579SOL    HW2 1717   2.606   3.154   3.238
 2580SOL     OW 1718   2.534   3.478   2.016
 2580SOL    HW1 1719   2.543   3.488   1.917
 2580SOL    HW2 1720   2.494   3.389   2.037
 2581SOL     OW 1721   3.512   3.582   3.256
 2581SOL    HW1 1722   3.565   3.592   3.172
 2581SOL    HW2 1723   3.485   3.672   3.290
 2582SOL     OW 1724   3.703   2.037   2.825
 2582SOL    HW1 1725   3.742   1.952   2.789
 2582SOL    HW2 1726   3.605   2.039   2.806
 2583SOL     OW 1727   2.125   2.188   2.582
 2583SOL    HW1 1728   2.046   2.239   2.548
 2583SOL    HW2 1729   2.116   2.173   2.680
 2584SOL     OW 1730   3.056   3.474   1.893
 2584SOL    HW1 1731   3.062   3.381   1.930
 2584SOL    HW2 1732   2.997   3.474   1.813
 2585SOL     OW 1733   2.684   2.864   3.234
 2585SOL    HW1 1734   2.724   2.863   3.142
 2585SOL    HW2 1735   2.694   2.956   3.274
 2586SOL     OW 1736   2.778   2.772   2.153
 2586SOL    HW1 1737   2.841   2.810   2.085
 2586SOL    HW2 1738   2.818   2.689   2.192
 2587SOL     OW 1739   3.366   3.469   1.906
 2587SOL    HW1 1740   3.274   3.506   1.913
 2587SOL    HW2 1741   3.404   3.489   1.816
 2588SOL     OW 1742   2.234   3.150   3.352
 2588SOL    HW1 1743   2.221   3.243   3.318
 2588SOL    HW2 1744   2.150   3.098   3.339
 2589SOL     OW 1745   3.476   3.154   3.151
 2589SOL    HW1 1746   3.536   3.157   3.231
 2589SOL    HW2 1747   3.401   3.218   3.164
 2590SOL     OW 1748   2.876   2.098   2.833
 2590SOL    HW1 1749   2.868   2.062   2.740
 2590SOL    HW2 1750   2.874   2.022   2.898
 2591SOL     OW 1751   2.452   3.349   2.353
 2591SOL    HW1 1752   2.494   3.291   2.283
 2591SOL    HW2 1753   2.408   3.428   2.309
 2592SOL     OW 1754   3.571   2.247   3.243
 2592SOL    HW1 1755   3.644   2.316   3.247
 2592SOL    HW2 1756   3.599   2.172   3.184
 2593SOL     OW 1757   2.117   3.210   2.152
 2593SOL    HW1 1758   2.021   3.211   2.125
 2593SOL    HW2 1759   2.129   3.263   2.236
 2594SOL     OW 1760   1.967   2.875   3.588
 2594SOL    HW1 1761   1.890   2.842   3.642
 2594SOL    HW2 1762   2.052   2.845   3.630
 2595SOL     OW 1763   2.534   2.065   3.351
 2595SOL    HW1 1764   2.624   2.049   3.311
 2595SOL    HW2 1765   2.542   2.070   3.450
 2596SOL     OW 1766   1.937   2.207   1.895
 2596SOL    HW1 1767   1.845   2.179   1.866
 2596SOL    HW2 1768   1.968   2.284   1.839
 2597SOL     OW 1769   3.302   2.718   3.260
 2597SOL    HW1 1770   3.245   2.770   3.197
 2597SOL    HW2 1771   3.398   2.730   3.236
 2598SOL     OW 1772   1.934   2.028   2.180
 2598SOL    HW1 1773   1.917   2.111   2.126
 2598SOL    HW2 1774   2.024   1.991   2.158
 2599SOL     OW 1775   3.045   3.197   1.981
 2599SOL    HW1 1776   2.946   3.186   1.983
 2599SOL    HW2 1777   3.079   3.212   2.074
 2600SOL     OW 1778   2.475   2.704   3.293
 2600SOL    HW1 1779   2.531   2.785   3.276
 2600SOL    HW2 1780   2.534   2.624   3.296
 2601SOL     OW 1781   3.355   3.629   2.821
 2601SOL    HW1 1782   3.388   3.693   2.752
 2601SOL    HW2 1783   3.421   3.623   2.896
 2602SOL     OW 1784   2.578   2.427   3.570
 2602SOL    HW1 1785   2.597   2.492   3.644
 2602SOL    HW2 1786   2.638   2.347   3.579
 2603SOL     OW 1787   3.312   3.082   3.495
 2603SOL    HW1 1788   3.303   3.072   3.594
 2603SOL    HW2 1789   3.408   3.075   3.469
 2604SOL     OW 1790   2.252   3.603   3.422
 2604SOL    HW1 1791   2.161   3.644   3.420
 2604SOL    HW2 1792   2.245   3.509   3.454
 2605SOL     OW 1793   3.536   2.745   3.116
 2605SOL    HW1 1794   3.509   2.656   3.079
 2605SOL    HW2 1795   3.537   2.813   3.043
 2606SOL     OW 1796   3.087   2.187   2.311
 2606SOL    HW1 1797   3.152   2.113   2.300
 2606SOL    HW2 1798   3.107   2.237   2.395
 2607SOL     OW 1799   3.639   2.204   3.504
 2607SOL    HW1 1800   3.622   2.235   3.410
 2607SOL    HW2 1801   3.555   2.167   3.542
 2608SOL     OW 1802   3.592   2.796   3.379
 2608SOL    HW1 1803   3.630   2.887   3.394
 2608SOL    HW2 1804   3.584   2.779   3.280
 2609SOL     OW 1805   2.721   3.236   1.878
 2609SOL    HW1 1806   2.675   3.251   1.966
 2609SOL    HW2 1807   2.765   3.321   1.848
 2610SOL     OW 1808   2.523   3.652   2.815
 2610SOL    HW1 1809   2.477   3.740   2.802
 2610SOL    HW2 1810   2.622   3.664   2.808
 2611SOL     OW 1811   2.945   2.846   1.949
 2611SOL    HW1 1812   2.922   2.899   1.867
 2611SOL    HW2 1813   3.026   2.790   1.930
 2612SOL     OW 1814   3.723   3.431   2.713
 2612SOL    HW1 1815   3.652   3.419   2.643
 2612SOL    HW2 1816   3.724   3.352   2.773
 2613SOL     OW 1817   2.083   3.176   3.706
 2613SOL    HW1 1818   2.018   3.103   3.685
 2613SOL    HW2 1819   2.087   3.190   3.804
 2614SOL     OW 1820   1.941   3.102   2.515
 2614SOL    HW1 1821   1.940   3.055   2.603
 2614SOL    HW2 1822   2.023   3.074   2.464
 2615SOL     OW 1823   2.534   3.253   3.486
 2615SOL    HW1 1824   2.456   3.203   3.524
 2615SOL    HW2 1825   2.531   3.348   3.517
 2616SOL     OW 1826   3.686   2.054   3.089
 2616SOL    HW1 1827   3.682   1.964   3.133
 2616SOL    HW2 1828   3.689   2.043   2.990
 2617SOL     OW 1829   3.567   3.349   2.966
 2617SOL    HW1 1830   3.474   3.324   2.939
 2617SOL    HW2 1831   3.593   3.299   3.048
 2618SOL     OW 1832   2.179   2.409   3.142
 2618SOL    HW1 1833   2.217   2.350   3.214
 2618SOL    HW2 1834   2.219   2.383   3.054
 2619SOL     OW 1835   2.674   3.448   2.549
 2619SOL    HW1 1836   2.706   3.458   2.455
 2619SOL    HW2 1837   2.595   3.386   2.551
 2620SOL     OW 1838   3.286   2.076   2.974
 2620SOL    HW1 1839   3.338   2.011   3.029
 2620SOL    HW2 1840   3.237   2.139   3.035
 2621SOL     OW 1841   2.863   1.896   3.016
 2621SOL    HW1 1842   2.800   1.824   2.985
 2621SOL    HW2 1843   2.956   1.860   3.016
 2622SOL     OW 1844   2.632   3.192   2.163
 2622SOL    HW1 1845   2.586   3.105   2.180
 2622SOL    HW2 1846   2.723   3.189   2.204
 2623SOL     OW 1847   2.480   3.429   3.146
 2623SOL    HW1 1848   2.475   3.511   3.203
 2623SOL    HW2 1849   2.569   3.426   3.101
 2624SOL     OW 1850   3.214   1.914   2.030
 2624SOL    HW1 1851   3.249   1.873   1.946
 2624SOL    HW2 1852   3.124   1.876   2.050
 2625SOL     OW 1853   3.162   2.315   2.553
 2625SOL    HW1 1854   3.103   2.395   2.557
 2625SOL    HW2 1855   3.177   2.280   2.646
 2626SOL     OW 1856   3.455   2.083   2.744
 2626SOL    HW1 1857   3.371   2.082   2.798
 2626SOL    HW2 1858   3.457   2.166   2.688
 2627SOL     OW 1859   1.901   2.939   2.162
 2627SOL    HW1 1860   2.000   2.928   2.153
 2627SOL    HW2 1861   1.861   2.853   2.194
 2628SOL     OW 1862   2.737   3.508   2.199
 2628SOL    HW1 1863   2.660   3.473   2.145
 2628SOL    HW2 1864   2.705   3.579   2.261
 2629SOL     OW 1865   2.092   2.490   3.837
 2629SOL    HW1 1866   1.999   2.488   3.874
 2629SOL    HW2 1867   2.093   2.451   3.745
 2635SOL     OW 1868   3.617   2.469   3.955
 2635SOL    HW1 1869   3.605   2.456   3.856
 2635SOL    HW2 1870   3.587   2.388   4.004
 2645SOL     OW 1871   2.468   2.826   3.847
 2645SOL    HW1 1872   2.475   2.910   3.793
 2645SOL    HW2 1873   2.514   2.839   3.935
 2648SOL     OW 1874   1.889   3.458   3.841
 2648SOL    HW1 1875   1.870   3.362   3.862
 2648SOL    HW2 1876   1.856   3.516   3.916
 2652SOL     OW 1877   2.671   1.866   4.226
 2652SOL    HW1 1878   2.711   1.957   4.217
 2652SOL    HW2 1879   2.571   1.874   4.232
 2654SOL     OW 1880   3.387   2.861   3.914
 2654SOL    HW1 1881   3.324   2.785   3.927
 2654SOL    HW2 1882   3.435   2.879   4.000
 2657SOL     OW 1883   2.460   2.591   3.994
 2657SOL    HW1 1884   2.484   2.660   3.926
 2657SOL    HW2 1885   2.382   2.624   4.048
 2662SOL     OW 1886   2.903   2.563   4.153
 2662SOL    HW1 1887   2.929   2.559   4.249
 2662SOL    HW2 1888   2.818   2.512   4.139
 2665SOL     OW 1889   2.727   2.210   3.919
 2665SOL    HW1 1890   2.786   2.273   3.870
 2665SOL    HW2 1891   2.746   2.116   3.890
 2668SOL     OW 1892   2.870   3.318   4.201
 2668SOL    HW1 1893   2.824   3.390   4.149
 2668SOL    HW2 1894   2.866   3.338   4.299
 2671SOL     OW 1895   2.183   2.805   3.966
 2671SOL    HW1 1896   2.265   2.844   3.924
 2671SOL    HW2 1897   2.156   2.723   3.917
 2673SOL     OW 1898   2.973   3.638   3.961
 2673SOL    HW1 1899   2.913   3.576   4.011
 2673SOL    HW2 1900   3.004   3.594   3.876
 2674SOL     OW 1901   3.494   3.239   3.805
 2674SOL    HW1 1902   3.462   3.333   3.795
 2674SOL    HW2 1903   3.418   3.176   3.793
 2679SOL     OW 1904   2.244   2.562   4.204
 2679SOL    HW1 1905   2.289   2.472   4.201
 2679SOL    HW2 1906   2.150   2.551   4.237
 2680SOL     OW 1907   2.476   1.984   3.841
 2680SOL    HW1 1908   2.574   1.962   3.848
 2680SOL    HW2 1909   2.445   1.967   3.748
 2684SOL     OW 1910   2.401   1.926   4.236
 2684SOL    HW1 1911   2.320   1.927   4.294
 2684SOL    HW2 1912   2.404   2.009   4.181
 2685SOL     OW 1913   3.296   3.050   3.765
 2685SOL    HW1 1914   3.328   2.974   3.822
 2685SOL    HW2 1915   3.204   3.077   3.795
 2686SOL     OW 1916   2.159   1.897   3.895
 2686SOL    HW1 1917   2.208   1.981   3.874
 2686SOL    HW2 1918   2.221   1.832   3.940
 2687SOL     OW 1919   2.797   2.098   4.204
 2687SOL    HW1 1920   2.749   2.139   4.126
 2687SOL    HW2 1921   2.896   2.096   4.185
 2691SOL     OW 1922   2.894   2.411   3.740
 2691SOL    HW1 1923   2.853   2.493   3.701
 2691SOL    HW2 1924   2.958   2.437   3.813
 2698SOL     OW 1925   2.350   3.247   3.898
 2698SOL    HW1 1926   2.263   3.232   3.945
 2698SOL    HW2 1927   2.333   3.273   3.803
 2700SOL     OW 1928   3.252   2.437   3.802
 2700SOL    HW1 1929   3.198   2.416   3.883
 2700SOL    HW2 1930   3.343   2.396   3.811
 2701SOL     OW 1931   2.389   2.118   4.052
 2701SOL    HW1 1932   2.416   2.059   3.977
 2701SOL    HW2 1933   2.389   2.213   4.021
 2705SOL     OW 1934   2.567   2.912   4.092
 2705SOL    HW1 1935   2.553   2.919   4.191
 2705SOL    HW2 1936   2.651   2.861   4.074
 2709SOL     OW 1937   2.229   2.962   4.225
 2709SOL    HW1 1938   2.222   3.045   4.169
 2709SOL    HW2 1939   2.233   2.882   4.165
 2711SOL     OW 1940   3.114   3.210   4.112
 2711SOL    HW1 1941   3.164   3.287   4.152
 2711SOL    HW2 1942   3.019   3.212   4.144
 2717SOL     OW 1943   3.071   2.387   3.999
 2717SOL    HW1 1944   3.084   2.303   4.053
 2717SOL    HW2 1945   3.042   2.461   4.059
 2722SOL     OW 1946   3.484   2.229   4.098
 2722SOL    HW1 1947   3.486   2.153   4.162
 2722SOL    HW2 1948   3.436   2.306   4.138
 2724SOL     OW 1949   3.402   2.136   3.849
 2724SOL    HW1 1950   3.341   2.061   3.872
 2724SOL    HW2 1951   3.424   2.188   3.932
 2725SOL     OW 1952   3.165   2.700   3.766
 2725SOL    HW1 1953   3.199   2.607   3.781
 2725SOL    HW2 1954   3.183   2.727   3.671
 2730SOL     OW 1955   1.870   3.188   3.924
 2730SOL    HW1 1956   1.777   3.209   3.893
 2730SOL    HW2 1957   1.880   3.089   3.937
 2735SOL     OW 1958   2.677   2.434   4.049
 2735SOL    HW1 1959   2.684   2.345   4.003
 2735SOL    HW2 1960   2.583   2.468   4.041
 2739SOL     OW 1961   2.335   2.362   3.915
 2739SOL    HW1 1962   2.396   2.442   3.919
 2739SOL    HW2 1963   2.240   2.393   3.922
 2742SOL     OW 1964   3.164   2.717   4.033
 2742SOL    HW1 1965   3.078   2.686   4.075
 2742SOL    HW2 1966   3.160   2.703   3.934
 2749SOL     OW 1967   2.534   3.478   3.878
 2749SOL    HW1 1968   2.543   3.488   3.779
 2749SOL    HW2 1969   2.494   3.389   3.899
 2752SOL     OW 1970   3.056   3.474   3.755
 2752SOL    HW1 1971   3.062   3.381   3.792
 2752SOL    HW2 1972   2.997   3.474   3.675
 2754SOL     OW 1973   2.778   2.772   4.015
 2754SOL    HW1 1974   2.841   2.810   3.947
 2754SOL    HW2 1975   2.818   2.689   4.054
 2755SOL     OW 1976   3.366   3.469   3.768
 2755SOL    HW1 1977   3.274   3.506   3.775
 2755SOL    HW2 1978   3.404   3.489   3.678
 2761SOL     OW 1979   2.117   3.210   4.014
 2761SOL    HW1 1980   2.021   3.211   3.987
 2761SOL    HW2 1981   2.129   3.263   4.098
 2763SOL     OW 1982   1.937   2.207   3.757
 2763SOL    HW1 1983   1.845   2.179   3.728
 2763SOL    HW2 1984   1.968   2.284   3.701
 2764SOL     OW 1985   1.934   2.028   4.042
 2764SOL    HW1 1986   1.917   2.111   3.988
 2764SOL    HW2 1987   2.024   1.991   4.020
 2765SOL     OW 1988   3.045   3.197   3.843
 2765SOL    HW1 1989   2.946   3.186   3.845
 2765SOL    HW2 1990   3.079   3.212   3.936
 2770SOL     OW 1991   3.087   2.187   4.173
 2770SOL    HW1 1992   3.152   2.113   4.162
 2770SOL    HW2 1993   3.107   2.237   4.257
 2771SOL     OW 1994   2.456   2.607   4.376
 2771SOL    HW1 1995   2.506   2.692   4.357
 2771SOL    HW2 1996   2.368   2.609   4.328
 2773SOL     OW 1997   2.721   3.236   3.740
 2773SOL    HW1 1998   2.675   3.251   3.828
 2773SOL    HW2 1999   2.765   3.321   3.710
 2776SOL     OW 2000   2.945   2.846   3.811
 2776SOL    HW1 2001   2.922   2.899   3.729
 2776SOL    HW2 2002   3.026   2.790   3.792
 2780SOL     OW 2003   2.290   2.286   4.244
 2780SOL    HW1 2004   2.320   2.214   4.182
 2780SOL    HW2 2005   2.251   2.246   4.327
 2786SOL     OW 2006   2.632   3.192   4.025
 2786SOL    HW1 2007   2.586   3.105   4.042
 2786SOL    HW2 2008   2.723   3.189   4.066
 2788SOL     OW 2009   3.214   1.914   3.892
 2788SOL    HW1 2010   3.249   1.873   3.808
 2788SOL    HW2 2011   3.124   1.876   3.912
 2791SOL     OW 2012   1.901   2.939   4.024
 2791SOL    HW1 2013   2.000   2.928   4.015
 2791SOL    HW2 2014   1.861   2.853   4.056
 2792SOL     OW 2015   2.737   3.508   4.061
 2792SOL    HW1 2016   2.660   3.473   4.007
 2792SOL    HW2 2017   2.705   3.579   4.123
 2820SOL     OW 2018   2.179   3.975   1.801
 2820SOL    HW1 2019   2.250   4.046   1.807
 2820SOL    HW2 2020   2.091   4.014   1.829
 2843SOL     OW 2021   2.643   3.988   1.749
 2843SOL    HW1 2022   2.710   3.927   1.792
 2843SOL    HW2 2023   2.570   4.007   1.814
 2867SOL     OW 2024   2.777   3.813   1.402
 2867SOL    HW1 2025   2.802   3.793   1.307
 2867SOL    HW2 2026   2.849   3.869   1.444
 2878SOL     OW 2027   2.875   3.829   1.770
 2878SOL    HW1 2028   2.881   3.914   1.718
 2878SOL    HW2 2029   2.907   3.753   1.713
 2879SOL     OW 2030   2.366   3.774   1.740
 2879SOL    HW1 2031   2.324   3.717   1.670
 2879SOL    HW2 2032   2.300   3.843   1.772
 2897SOL     OW 2033   3.022   3.931   1.477
 2897SOL    HW1 2034   3.022   3.995   1.554
 2897SOL    HW2 2035   3.050   3.979   1.394
 2924SOL     OW 2036   2.534   3.927   1.489
 2924SOL    HW1 2037   2.624   3.911   1.449
 2924SOL    HW2 2038   2.542   3.932   1.588
 2953SOL     OW 2039   2.087   3.999   2.858
 2953SOL    HW1 2040   2.122   3.982   2.950
 2953SOL    HW2 2041   1.999   3.954   2.846
 2954SOL     OW 2042   1.881   4.092   2.509
 2954SOL    HW1 2043   1.799   4.135   2.548
 2954SOL    HW2 2044   1.853   4.019   2.446
 2964SOL     OW 2045   2.300   4.116   3.361
 2964SOL    HW1 2046   2.382   4.060   3.370
 2964SOL    HW2 2047   2.219   4.058   3.365
 2969SOL     OW 2048   3.456   3.838   3.342
 2969SOL    HW1 2049   3.438   3.905   3.270
 2969SOL    HW2 2050   3.453   3.884   3.431
 2976SOL     OW 2051   2.671   3.728   2.364
 2976SOL    HW1 2052   2.711   3.819   2.355
 2976SOL    HW2 2053   2.571   3.736   2.370
 2982SOL     OW 2054   3.143   4.069   2.806
 2982SOL    HW1 2055   3.057   4.019   2.793
 2982SOL    HW2 2056   3.205   4.015   2.862
 2986SOL     OW 2057   2.853   4.134   3.104
 2986SOL    HW1 2058   2.776   4.168   3.158
 2986SOL    HW2 2059   2.819   4.083   3.025
 2989SOL     OW 2060   2.727   4.072   2.057
 2989SOL    HW1 2061   2.786   4.135   2.008
 2989SOL    HW2 2062   2.746   3.978   2.028
 2992SOL     OW 2063   2.412   3.920   2.747
 2992SOL    HW1 2064   2.407   3.915   2.847
 2992SOL    HW2 2065   2.414   4.016   2.718
 2997SOL     OW 2066   2.064   4.009   3.360
 2997SOL    HW1 2067   1.984   4.069   3.347
 2997SOL    HW2 2068   2.054   3.960   3.446
 2999SOL     OW 2069   3.262   3.831   2.288
 2999SOL    HW1 2070   3.238   3.794   2.198
 2999SOL    HW2 2071   3.361   3.847   2.292
 3002SOL     OW 2072   2.476   3.846   1.979
 3002SOL    HW1 2073   2.574   3.824   1.986
 3002SOL    HW2 2074   2.445   3.829   1.886
 3003SOL     OW 2075   2.643   3.988   3.611
 3003SOL    HW1 2076   2.710   3.927   3.654
 3003SOL    HW2 2077   2.570   4.007   3.676
 3005SOL     OW 2078   2.784   4.227   2.761
 3005SOL    HW1 2079   2.759   4.218   2.665
 3005SOL    HW2 2080   2.832   4.145   2.792
 3006SOL     OW 2081   2.401   3.788   2.374
 3006SOL    HW1 2082   2.320   3.789   2.432
 3006SOL    HW2 2083   2.404   3.871   2.319
 3008SOL     OW 2084   2.159   3.759   2.033
 3008SOL    HW1 2085   2.208   3.843   2.012
 3008SOL    HW2 2086   2.221   3.694   2.078
 3009SOL     OW 2087   2.797   3.960   2.342
 3009SOL    HW1 2088   2.749   4.001   2.264
 3009SOL    HW2 2089   2.896   3.958   2.323
 3015SOL     OW 2090   2.423   3.946   3.009
 3015SOL    HW1 2091   2.461   3.862   3.046
 3015SOL    HW2 2092   2.335   3.965   3.053
 3016SOL     OW 2093   2.728   4.178   2.504
 3016SOL    HW1 2094   2.696   4.250   2.442
 3016SOL    HW2 2095   2.752   4.097   2.451
 3017SOL     OW 2096   2.879   3.763   2.615
 3017SOL    HW1 2097   2.807   3.768   2.546
 3017SOL    HW2 2098   2.855   3.694   2.684
 3023SOL     OW 2099   2.389   3.980   2.190
 3023SOL    HW1 2100   2.416   3.921   2.115
 3023SOL    HW2 2101   2.389   4.075   2.159
 3028SOL     OW 2102   2.777   3.813   3.264
 3028SOL    HW1 2103   2.802   3.793   3.169
 3028SOL    HW2 2104   2.849   3.869   3.306
 3032SOL     OW 2105   3.136   4.110   3.124
 3032SOL    HW1 2106   3.157   4.184   3.188
 3032SOL    HW2 2107   3.047   4.127   3.081
 3034SOL     OW 2108   2.428   4.261   2.727
 3034SOL    HW1 2109   2.440   4.327   2.653
 3034SOL    HW2 2110   2.474   4.295   2.810
 3039SOL     OW 2111   2.875   3.829   3.632
 3039SOL    HW1 2112   2.881   3.914   3.580
 3039SOL    HW2 2113   2.907   3.753   3.575
 3040SOL     OW 2114   2.366   3.774   3.602
 3040SOL    HW1 2115   2.324   3.717   3.532
 3040SOL    HW2 2116   2.300   3.843   3.634
 3043SOL     OW 2117   3.071   4.249   2.137
 3043SOL    HW1 2118   3.084   4.165   2.191
 3043SOL    HW2 2119   3.042   4.323   2.197
 3044SOL     OW 2120   2.169   3.937   3.093
 3044SOL    HW1 2121   2.146   3.974   3.183
 3044SOL    HW2 2122   2.139   3.842   3.087
 3048SOL     OW 2123   2.169   3.787   2.480
 3048SOL    HW1 2124   2.158   3.881   2.513
 3048SOL    HW2 2125   2.164   3.724   2.557
 3049SOL     OW 2126   3.484   4.091   2.236
 3049SOL    HW1 2127   3.486   4.015   2.300
 3049SOL    HW2 2128   3.436   4.168   2.276
 3053SOL     OW 2129   3.402   3.998   1.987
 3053SOL    HW1 2130   3.341   3.923   2.010
 3053SOL    HW2 2131   3.424   4.050   2.070
 3056SOL     OW 2132   2.201   4.233   2.868
 3056SOL    HW1 2133   2.149   4.150   2.851
 3056SOL    HW2 2134   2.278   4.238   2.804
 3058SOL     OW 2135   3.022   3.931   3.339
 3058SOL    HW1 2136   3.022   3.995   3.416
 3058SOL    HW2 2137   3.050   3.979   3.256
 3064SOL     OW 2138   2.677   4.296   2.187
 3064SOL    HW1 2139   2.684   4.207   2.141
 3064SOL    HW2 2140   2.583   4.330   2.179
 3066SOL     OW 2141   2.533   4.188   3.131
 3066SOL    HW1 2142   2.499   4.099   3.101
 3066SOL    HW2 2143   2.559   4.242   3.051
 3067SOL     OW 2144   2.335   4.224   2.053
 3067SOL    HW1 2145   2.396   4.304   2.057
 3067SOL    HW2 2146   2.240   4.255   2.060
 3072SOL     OW 2147   3.588   3.859   2.385
 3072SOL    HW1 2148   3.661   3.842   2.318
 3072SOL    HW2 2149   3.557   3.772   2.423
 3075SOL     OW 2150   3.703   3.899   2.825
 3075SOL    HW1 2151   3.742   3.814   2.789
 3075SOL    HW2 2152   3.605   3.901   2.806
 3076SOL     OW 2153   2.125   4.050   2.582
 3076SOL    HW1 2154   2.046   4.101   2.548
 3076SOL    HW2 2155   2.116   4.035   2.680
 3082SOL     OW 2156   2.876   3.960   2.833
 3082SOL    HW1 2157   2.868   3.924   2.740
 3082SOL    HW2 2158   2.874   3.884   2.898
 3085SOL     OW 2159   2.534   3.927   3.351
 3085SOL    HW1 2160   2.624   3.911   3.311
 3085SOL    HW2 2161   2.542   3.932   3.450
 3086SOL     OW 2162   1.937   4.069   1.895
 3086SOL    HW1 2163   1.845   4.041   1.866
 3086SOL    HW2 2164   1.968   4.146   1.839
 3088SOL     OW 2165   1.934   3.890   2.180
 3088SOL    HW1 2166   1.917   3.973   2.126
 3088SOL    HW2 2167   2.024   3.853   2.158
 3093SOL     OW 2168   3.087   4.049   2.311
 3093SOL    HW1 2169   3.152   3.975   2.300
 3093SOL    HW2 2170   3.107   4.099   2.395
 3104SOL     OW 2171   2.290   4.148   2.382
 3104SOL    HW1 2172   2.320   4.076   2.320
 3104SOL    HW2 2173   2.251   4.108   2.465
 3107SOL     OW 2174   3.286   3.938   2.974
 3107SOL    HW1 2175   3.338   3.873   3.029
 3107SOL    HW2 2176   3.237   4.001   3.035
 3108SOL     OW 2177   2.863   3.758   3.016
 3108SOL    HW1 2178   2.800   3.686   2.985
 3108SOL    HW2 2179   2.956   3.722   3.016
 3110SOL     OW 2180   3.214   3.776   2.030
 3110SOL    HW1 2181   3.249   3.735   1.946
 3110SOL    HW2 2182   3.124   3.738   2.050
 3111SOL     OW 2183   3.162   4.177   2.553
 3111SOL    HW1 2184   3.103   4.257   2.557
 3111SOL    HW2 2185   3.177   4.142   2.646
 3112SOL     OW 2186   3.455   3.945   2.744
 3112SOL    HW1 2187   3.371   3.944   2.798
 3112SOL    HW2 2188   3.457   4.028   2.688
 3151SOL     OW 2189   2.476   3.846   3.841
 3151SOL    HW1 2190   2.574   3.824   3.848
 3151SOL    HW2 2191   2.445   3.829   3.748
 3276SOL     OW 2192   3.854   1.821   1.571
 3276SOL    HW1 2193   3.844   1.806   1.670
 3276SOL    HW2 2194   3.768   1.857   1.535
 3365SOL     OW 2195   3.854   1.794   1.851
 3365SOL    HW1 2196   3.813   1.720   1.904
 3365SOL    HW2 2197   3.918   1.845   1.909
 3418SOL     OW 2198   3.955   1.713   2.345
 3418SOL    HW1 2199   3.989   1.790   2.399
 3418SOL    HW2 2200   3.999   1.713   2.255
 3420SOL     OW 2201   3.954   1.434   2.400
 3420SOL    HW1 2202   3.928   1.530   2.400
 3420SOL    HW2 2203   3.883   1.380   2.445
 3425SOL     OW 2204   3.751   1.596   1.979
 3425SOL    HW1 2205   3.732   1.500   2.000
 3425SOL    HW2 2206   3.718   1.654   2.054
 3442SOL     OW 2207   3.854   1.821   3.433
 3442SOL    HW1 2208   3.844   1.806   3.532
 3442SOL    HW2 2209   3.768   1.857   3.397
 3447SOL     OW 2210   4.075   1.801   2.715
 3447SOL    HW1 2211   4.125   1.715   2.721
 3447SOL    HW2 2212   4.140   1.878   2.712
 3454SOL     OW 2213   3.973   1.785   3.103
 3454SOL    HW1 2214   4.030   1.720   3.153
 3454SOL    HW2 2215   3.957   1.752   3.010
 3486SOL     OW 2216   3.788   1.564   3.193
 3486SOL    HW1 2217   3.742   1.646   3.159
 3486SOL    HW2 2218   3.886   1.583   3.202
 3512SOL     OW 2219   3.732   1.326   2.062
 3512SOL    HW1 2220   3.639   1.347   2.031
 3512SOL    HW2 2221   3.742   1.227   2.075
 3513SOL     OW 2222   3.812   1.801   2.789
 3513SOL    HW1 2223   3.770   1.715   2.762
 3513SOL    HW2 2224   3.906   1.804   2.755
 3719SOL     OW 2225   3.837   2.599   1.597
 3719SOL    HW1 2226   3.925   2.586   1.642
 3719SOL    HW2 2227   3.824   2.696   1.575
 3725SOL     OW 2228   4.041   2.113   1.801
 3725SOL    HW1 2229   4.112   2.184   1.807
 3725SOL    HW2 2230   3.953   2.152   1.829
 3744SOL     OW 2231   3.926   2.147   1.498
 3744SOL    HW1 2232   3.846   2.207   1.485
 3744SOL    HW2 2233   3.916   2.098   1.584
 3763SOL     OW 2234   3.802   2.418   1.386
 3763SOL    HW1 2235   3.894   2.417   1.345
 3763SOL    HW2 2236   3.796   2.492   1.453
 3796SOL     OW 2237   4.074   2.760   1.804
 3796SOL    HW1 2238   4.150   2.804   1.852
 3796SOL    HW2 2239   4.109   2.713   1.722
 3807SOL     OW 2240   3.913   2.382   1.722
 3807SOL    HW1 2241   3.972   2.342   1.652
 3807SOL    HW2 2242   3.855   2.453   1.681
 3813SOL     OW 2243   3.883   2.999   1.466
 3813SOL    HW1 2244   3.905   2.938   1.542
 3813SOL    HW2 2245   3.893   2.950   1.380
 3834SOL     OW 2246   3.829   2.875   1.726
 3834SOL    HW1 2247   3.752   2.842   1.780
 3834SOL    HW2 2248   3.914   2.845   1.768
 3850SOL     OW 2249   3.945   3.176   1.844
 3850SOL    HW1 2250   3.880   3.103   1.823
 3850SOL    HW2 2251   3.949   3.190   1.942
 3862SOL     OW 2252   3.954   2.490   1.975
 3862SOL    HW1 2253   3.861   2.488   2.012
 3862SOL    HW2 2254   3.955   2.451   1.883
 3863SOL     OW 2255   3.949   2.137   2.858
 3863SOL    HW1 2256   3.984   2.120   2.950
 3863SOL    HW2 2257   3.861   2.092   2.846
 3864SOL     OW 2258   3.743   2.230   2.509
 3864SOL    HW1 2259   3.661   2.273   2.548
 3864SOL    HW2 2260   3.715   2.157   2.446
 3872SOL     OW 2261   4.059   3.297   2.923
 3872SOL    HW1 2262   3.981   3.266   2.870
 3872SOL    HW2 2263   4.117   3.355   2.866
 3873SOL     OW 2264   4.162   2.254   3.361
 3873SOL    HW1 2265   4.244   2.198   3.370
 3873SOL    HW2 2266   4.081   2.196   3.365
 3874SOL     OW 2267   3.955   3.575   2.345
 3874SOL    HW1 2268   3.989   3.652   2.399
 3874SOL    HW2 2269   3.999   3.575   2.255
 3876SOL     OW 2270   3.954   3.296   2.400
 3876SOL    HW1 2271   3.928   3.392   2.400
 3876SOL    HW2 2272   3.883   3.242   2.445
 3877SOL     OW 2273   3.964   2.953   2.748
 3877SOL    HW1 2274   3.978   2.869   2.800
 3877SOL    HW2 2275   3.909   3.017   2.803
 3880SOL     OW 2276   3.846   2.505   2.425
 3880SOL    HW1 2277   3.801   2.417   2.442
 3880SOL    HW2 2278   3.845   2.559   2.509
 3881SOL     OW 2279   3.751   3.458   1.979
 3881SOL    HW1 2280   3.732   3.362   2.000
 3881SOL    HW2 2281   3.718   3.516   2.054
 3883SOL     OW 2282   3.837   2.599   3.459
 3883SOL    HW1 2283   3.925   2.586   3.504
 3883SOL    HW2 2284   3.824   2.696   3.437
 3887SOL     OW 2285   3.921   2.838   3.126
 3887SOL    HW1 2286   4.010   2.793   3.112
 3887SOL    HW2 2287   3.848   2.773   3.107
 3890SOL     OW 2288   4.322   2.591   2.132
 3890SOL    HW1 2289   4.346   2.660   2.064
 3890SOL    HW2 2290   4.244   2.624   2.186
 3897SOL     OW 2291   3.800   2.673   2.651
 3897SOL    HW1 2292   3.899   2.661   2.660
 3897SOL    HW2 2293   3.776   2.768   2.672
 3901SOL     OW 2294   4.274   2.058   2.747
 3901SOL    HW1 2295   4.269   2.053   2.847
 3901SOL    HW2 2296   4.276   2.154   2.718
 3905SOL     OW 2297   4.045   2.805   2.104
 3905SOL    HW1 2298   4.127   2.844   2.062
 3905SOL    HW2 2299   4.018   2.723   2.055
 3908SOL     OW 2300   3.926   2.147   3.360
 3908SOL    HW1 2301   3.846   2.207   3.347
 3908SOL    HW2 2302   3.916   2.098   3.446
 3912SOL     OW 2303   4.106   2.562   2.342
 3912SOL    HW1 2304   4.151   2.472   2.339
 3912SOL    HW2 2305   4.012   2.551   2.375
 3921SOL     OW 2306   4.021   1.897   2.033
 3921SOL    HW1 2307   4.070   1.981   2.012
 3921SOL    HW2 2308   4.083   1.832   2.078
 3925SOL     OW 2309   4.183   3.014   2.603
 3925SOL    HW1 2310   4.112   2.987   2.668
 3925SOL    HW2 2311   4.157   2.986   2.510
 3928SOL     OW 2312   3.802   2.418   3.248
 3928SOL    HW1 2313   3.894   2.417   3.207
 3928SOL    HW2 2314   3.796   2.492   3.315
 3934SOL     OW 2315   4.251   2.118   2.190
 3934SOL    HW1 2316   4.278   2.059   2.115
 3934SOL    HW2 2317   4.251   2.213   2.159
 3940SOL     OW 2318   4.134   2.675   3.113
 3940SOL    HW1 2319   4.220   2.687   3.163
 3940SOL    HW2 2320   4.092   2.588   3.140
 3942SOL     OW 2321   3.788   3.426   3.193
 3942SOL    HW1 2322   3.742   3.508   3.159
 3942SOL    HW2 2323   3.886   3.445   3.202
 3943SOL     OW 2324   4.091   2.962   2.363
 3943SOL    HW1 2325   4.084   3.045   2.307
 3943SOL    HW2 2326   4.095   2.882   2.303
 3944SOL     OW 2327   4.290   2.399   2.727
 3944SOL    HW1 2328   4.302   2.465   2.653
 3944SOL    HW2 2329   4.336   2.433   2.810
 3947SOL     OW 2330   4.078   3.372   3.191
 3947SOL    HW1 2331   4.057   3.328   3.104
 3947SOL    HW2 2332   4.175   3.398   3.194
 3948SOL     OW 2333   4.126   2.613   3.460
 3948SOL    HW1 2334   4.194   2.668   3.413
 3948SOL    HW2 2335   4.166   2.525   3.487
 3951SOL     OW 2336   4.297   2.732   2.891
 3951SOL    HW1 2337   4.341   2.821   2.882
 3951SOL    HW2 2338   4.234   2.732   2.968
 3954SOL     OW 2339   4.031   2.075   3.093
 3954SOL    HW1 2340   4.008   2.112   3.183
 3954SOL    HW2 2341   4.001   1.980   3.087
 3955SOL     OW 2342   3.761   3.172   3.144
 3955SOL    HW1 2343   3.814   3.123   3.212
 3955SOL    HW2 2344   3.783   3.270   3.149
 3957SOL     OW 2345   4.031   1.925   2.480
 3957SOL    HW1 2346   4.020   2.019   2.513
 3957SOL    HW2 2347   4.026   1.862   2.557
 3964SOL     OW 2348   4.043   2.672   2.811
 3964SOL    HW1 2349   4.136   2.708   2.816
 3964SOL    HW2 2350   4.037   2.587   2.863
 3965SOL     OW 2351   4.063   2.371   2.868
 3965SOL    HW1 2352   4.011   2.288   2.851
 3965SOL    HW2 2353   4.140   2.376   2.804
 3968SOL     OW 2354   3.732   3.188   2.062
 3968SOL    HW1 2355   3.639   3.209   2.031
 3968SOL    HW2 2356   3.742   3.089   2.075
 3969SOL     OW 2357   3.812   3.663   2.789
 3969SOL    HW1 2358   3.770   3.577   2.762
 3969SOL    HW2 2359   3.906   3.666   2.755
 3972SOL     OW 2360   3.764   2.406   2.976
 3972SOL    HW1 2361   3.849   2.373   2.935
 3972SOL    HW2 2362   3.777   2.421   3.074
 3973SOL     OW 2363   3.913   2.382   3.584
 3973SOL    HW1 2364   3.972   2.342   3.514
 3973SOL    HW2 2365   3.855   2.453   3.543
 3978SOL     OW 2366   4.197   2.362   2.053
 3978SOL    HW1 2367   4.258   2.442   2.057
 3978SOL    HW2 2368   4.102   2.393   2.060
 3979SOL     OW 2369   3.883   2.999   3.328
 3979SOL    HW1 2370   3.905   2.938   3.404
 3979SOL    HW2 2371   3.893   2.950   3.242
 3983SOL     OW 2372   3.807   3.120   2.884
 3983SOL    HW1 2373   3.802   3.119   2.984
 3983SOL    HW2 2374   3.724   3.079   2.846
 3990SOL     OW 2375   3.987   2.188   2.582
 3990SOL    HW1 2376   3.908   2.239   2.548
 3990SOL    HW2 2377   3.978   2.173   2.680
 3994SOL     OW 2378   4.096   3.150   3.352
 3994SOL    HW1 2379   4.083   3.243   3.318
 3994SOL    HW2 2380   4.012   3.098   3.339
 3998SOL     OW 2381   3.979   3.210   2.152
 3998SOL    HW1 2382   3.883   3.211   2.125
 3998SOL    HW2 2383   3.991   3.263   2.236
 3999SOL     OW 2384   3.829   2.875   3.588
 3999SOL    HW1 2385   3.752   2.842   3.642
 3999SOL    HW2 2386   3.914   2.845   3.630
 4001SOL     OW 2387   3.799   2.207   1.895
 4001SOL    HW1 2388   3.707   2.179   1.866
 4001SOL    HW2 2389   3.830   2.284   1.839
 4003SOL     OW 2390   3.796   2.028   2.180
 4003SOL    HW1 2391   3.779   2.111   2.126
 4003SOL    HW2 2392   3.886   1.991   2.158
 4010SOL     OW 2393   4.318   2.607   2.514
 4010SOL    HW1 2394   4.368   2.692   2.495
 4010SOL    HW2 2395   4.230   2.609   2.466
 4016SOL     OW 2396   3.803   3.102   2.515
 4016SOL    HW1 2397   3.802   3.055   2.603
 4016SOL    HW2 2398   3.885   3.074   2.464
 4018SOL     OW 2399   4.152   2.286   2.382
 4018SOL    HW1 2400   4.182   2.214   2.320
 4018SOL    HW2 2401   4.113   2.246   2.465
 4019SOL     OW 2402   4.041   2.409   3.142
 4019SOL    HW1 2403   4.079   2.350   3.214
 4019SOL    HW2 2404   4.081   2.383   3.054
 4026SOL     OW 2405   3.763   2.939   2.162
 4026SOL    HW1 2406   3.862   2.928   2.153
 4026SOL    HW2 2407   3.723   2.853   2.194
 4136SOL     OW 2408   3.799   2.207   3.757
 4136SOL    HW1 2409   3.707   2.179   3.728
 4136SOL    HW2 2410   3.830   2.284   3.701
   5.16623   5.16623   5.16623
