; mobley_632905_GMX.itp created by acpype (v: 2023.10.27) on Thu May 21 00:14:06 2026

[ atomtypes ]
;name   bond_type     mass     charge   ptype   sigma         epsilon       Amb
 ca       ca          0.00000  0.00000   A     3.31521e-01   4.13379e-01 ; 1.86  0.0988
 c        c           0.00000  0.00000   A     3.31521e-01   4.13379e-01 ; 1.86  0.0988
 c3       c3          0.00000  0.00000   A     3.39771e-01   4.51035e-01 ; 1.91  0.1078
 o        o           0.00000  0.00000   A     3.04812e-01   6.12119e-01 ; 1.71  0.1463
 os       os          0.00000  0.00000   A     3.15610e-01   3.03758e-01 ; 1.77  0.0726
 ha       ha          0.00000  0.00000   A     2.62548e-01   6.73624e-02 ; 1.47  0.0161
 hc       hc          0.00000  0.00000   A     2.60018e-01   8.70272e-02 ; 1.46  0.0208
 h1       h1          0.00000  0.00000   A     2.42200e-01   8.70272e-02 ; 1.36  0.0208

[ moleculetype ]
;name            nrexcl
 mobley_632905    3

[ atoms ]
;   nr  type  resi  res  atom  cgnr     charge      mass       ; qtot   bond_type
     1   ca     1   MOL    C1    1    -0.048000     12.01000 ; qtot -0.048
     2   ca     1   MOL    C2    2    -0.048000     12.01000 ; qtot -0.096
     3   ca     1   MOL    C3    3    -0.198000     12.01000 ; qtot -0.294
     4   ca     1   MOL    C4    4    -0.198000     12.01000 ; qtot -0.492
     5   ca     1   MOL    C5    5    -0.213600     12.01000 ; qtot -0.706
     6   ca     1   MOL    C6    6     0.154100     12.01000 ; qtot -0.551
     7    c     1   MOL    C7    7     0.581698     12.01000 ; qtot 0.030
     8   c3     1   MOL    C8    8    -0.198100     12.01000 ; qtot -0.168
     9   c3     1   MOL    C9    9     0.111700     12.01000 ; qtot -0.056
    10    o     1   MOL    O1   10    -0.542100     16.00000 ; qtot -0.598
    11   os     1   MOL    O2   11    -0.322900     16.00000 ; qtot -0.921
    12   ha     1   MOL    H1   12     0.147000      1.00800 ; qtot -0.774
    13   ha     1   MOL    H2   13     0.147000      1.00800 ; qtot -0.627
    14   ha     1   MOL    H3   14     0.147500      1.00800 ; qtot -0.480
    15   ha     1   MOL    H4   15     0.147500      1.00800 ; qtot -0.332
    16   hc     1   MOL    H5   16     0.063367      1.00800 ; qtot -0.269
    17   hc     1   MOL    H6   17     0.063367      1.00800 ; qtot -0.205
    18   hc     1   MOL    H7   18     0.063367      1.00800 ; qtot -0.142
    19   h1     1   MOL    H8   19     0.047367      1.00800 ; qtot -0.095
    20   h1     1   MOL    H9   20     0.047367      1.00800 ; qtot -0.047
    21   h1     1   MOL   H10   21     0.047367      1.00800 ; qtot 0.000

[ bonds ]
;   ai     aj funct   r             k
     1      3   1    1.3986e-01    2.9644e+05 ;     C1 - C3    
     1      5   1    1.3986e-01    2.9644e+05 ;     C1 - C5    
     1     12   1    1.0860e-01    3.0183e+05 ;     C1 - H1    
     2      4   1    1.3986e-01    2.9644e+05 ;     C2 - C4    
     2      5   1    1.3986e-01    2.9644e+05 ;     C2 - C5    
     2     13   1    1.0860e-01    3.0183e+05 ;     C2 - H2    
     3      6   1    1.3986e-01    2.9644e+05 ;     C3 - C6    
     3     14   1    1.0860e-01    3.0183e+05 ;     C3 - H3    
     4      6   1    1.3986e-01    2.9644e+05 ;     C4 - C6    
     4     15   1    1.0860e-01    3.0183e+05 ;     C4 - H4    
     5      7   1    1.4907e-01    2.1994e+05 ;     C5 - C7    
     6     11   1    1.3688e-01    2.8731e+05 ;     C6 - O2    
     7      8   1    1.5270e-01    1.9652e+05 ;     C7 - C8    
     7     10   1    1.2190e-01    4.9421e+05 ;     C7 - O1    
     8     16   1    1.0962e-01    2.8891e+05 ;     C8 - H5    
     8     17   1    1.0962e-01    2.8891e+05 ;     C8 - H6    
     8     18   1    1.0962e-01    2.8891e+05 ;     C8 - H7    
     9     11   1    1.4273e-01    2.3620e+05 ;     C9 - O2    
     9     19   1    1.0969e-01    2.8804e+05 ;     C9 - H8    
     9     20   1    1.0969e-01    2.8804e+05 ;     C9 - H9    
     9     21   1    1.0969e-01    2.8804e+05 ;     C9 - H10   

[ pairs ]
;   ai     aj    funct
     1      4      1 ;     C1 - C4    
     1      8      1 ;     C1 - C8    
     1     10      1 ;     C1 - O1    
     1     11      1 ;     C1 - O2    
     1     13      1 ;     C1 - H2    
     2      3      1 ;     C2 - C3    
     2      8      1 ;     C2 - C8    
     2     10      1 ;     C2 - O1    
     2     11      1 ;     C2 - O2    
     3      7      1 ;     C3 - C7    
     3      9      1 ;     C3 - C9    
     3     15      1 ;     C3 - H4    
     4      7      1 ;     C4 - C7    
     4      9      1 ;     C4 - C9    
     4     14      1 ;     C4 - H3    
     5      6      1 ;     C5 - C6    
     5     14      1 ;     C5 - H3    
     5     15      1 ;     C5 - H4    
     5     16      1 ;     C5 - H5    
     5     17      1 ;     C5 - H6    
     5     18      1 ;     C5 - H7    
     6     13      1 ;     C6 - H2    
     6     19      1 ;     C6 - H8    
     6     20      1 ;     C6 - H9    
     6     21      1 ;     C6 - H10   
     7     13      1 ;     C7 - H2    
    10     16      1 ;     O1 - H5    
    10     17      1 ;     O1 - H6    
    10     18      1 ;     O1 - H7    
    11     14      1 ;     O2 - H3    
    11     15      1 ;     O2 - H4    
    12      2      1 ;     H1 - C2    
    12      6      1 ;     H1 - C6    
    12      7      1 ;     H1 - C7    
    12     14      1 ;     H1 - H3    
    13     15      1 ;     H2 - H4    

[ angles ]
;   ai     aj     ak    funct   theta         cth
     1      3      6      1    1.2002e+02    5.3279e+02 ;     C1 - C3     - C6    
     1      3     14      1    1.1988e+02    3.7572e+02 ;     C1 - C3     - H3    
     1      5      2      1    1.2002e+02    5.3279e+02 ;     C1 - C5     - C2    
     1      5      7      1    1.2033e+02    5.1413e+02 ;     C1 - C5     - C7    
     2      4      6      1    1.2002e+02    5.3279e+02 ;     C2 - C4     - C6    
     2      4     15      1    1.1988e+02    3.7572e+02 ;     C2 - C4     - H4    
     2      5      7      1    1.2033e+02    5.1413e+02 ;     C2 - C5     - C7    
     3      1      5      1    1.2002e+02    5.3279e+02 ;     C3 - C1     - C5    
     3      1     12      1    1.1988e+02    3.7572e+02 ;     C3 - C1     - H1    
     3      6      4      1    1.2002e+02    5.3279e+02 ;     C3 - C6     - C4    
     3      6     11      1    1.1911e+02    6.6107e+02 ;     C3 - C6     - O2    
     4      2      5      1    1.2002e+02    5.3279e+02 ;     C4 - C2     - C5    
     4      2     13      1    1.1988e+02    3.7572e+02 ;     C4 - C2     - H2    
     4      6     11      1    1.1911e+02    6.6107e+02 ;     C4 - C6     - O2    
     5      1     12      1    1.1988e+02    3.7572e+02 ;     C5 - C1     - H1    
     5      2     13      1    1.1988e+02    3.7572e+02 ;     C5 - C2     - H2    
     5      7      8      1    1.1899e+02    4.9589e+02 ;     C5 - C7     - C8    
     5      7     10      1    1.2260e+02    6.5237e+02 ;     C5 - C7     - O1    
     6      3     14      1    1.1988e+02    3.7572e+02 ;     C6 - C3     - H3    
     6      4     15      1    1.1988e+02    3.7572e+02 ;     C6 - C4     - H4    
     6     11      9      1    1.1839e+02    7.3856e+02 ;     C6 - O2     - C9    
     7      8     16      1    1.0895e+02    3.6510e+02 ;     C7 - C8     - H5    
     7      8     17      1    1.0895e+02    3.6510e+02 ;     C7 - C8     - H6    
     7      8     18      1    1.0895e+02    3.6510e+02 ;     C7 - C8     - H7    
     8      7     10      1    1.2290e+02    6.3973e+02 ;     C8 - C7     - O1    
    11      9     19      1    1.1034e+02    4.7028e+02 ;     O2 - C9     - H8    
    11      9     20      1    1.1034e+02    4.7028e+02 ;     O2 - C9     - H9    
    11      9     21      1    1.1034e+02    4.7028e+02 ;     O2 - C9     - H10   
    16      8     17      1    1.0773e+02    2.9957e+02 ;     H5 - C8     - H6    
    16      8     18      1    1.0773e+02    2.9957e+02 ;     H5 - C8     - H7    
    17      8     18      1    1.0773e+02    2.9957e+02 ;     H6 - C8     - H7    
    19      9     20      1    1.0855e+02    2.9824e+02 ;     H8 - C9     - H9    
    19      9     21      1    1.0855e+02    2.9824e+02 ;     H8 - C9     - H10   
    20      9     21      1    1.0855e+02    2.9824e+02 ;     H9 - C9     - H10   

[ dihedrals ] ; propers
; for gromacs 4.5 or higher, using funct 9
;    i      j      k      l   func   phase     kd      pn
     1      3      6      4      9   180.00  15.16700   2 ;     C1-    C3-    C6-    C4
     1      3      6     11      9   180.00  15.16700   2 ;     C1-    C3-    C6-    O2
     1      5      2      4      9   180.00  15.16700   2 ;     C1-    C5-    C2-    C4
     1      5      2     13      9   180.00  15.16700   2 ;     C1-    C5-    C2-    H2
     1      5      7      8      9   180.00   4.40157   2 ;     C1-    C5-    C7-    C8
     1      5      7     10      9   180.00   2.42672   2 ;     C1-    C5-    C7-    O1
     2      4      6      3      9   180.00  15.16700   2 ;     C2-    C4-    C6-    C3
     2      4      6     11      9   180.00  15.16700   2 ;     C2-    C4-    C6-    O2
     2      5      7      8      9   180.00   4.40157   2 ;     C2-    C5-    C7-    C8
     2      5      7     10      9   180.00   2.42672   2 ;     C2-    C5-    C7-    O1
     3      1      5      2      9   180.00  15.16700   2 ;     C3-    C1-    C5-    C2
     3      1      5      7      9   180.00  15.16700   2 ;     C3-    C1-    C5-    C7
     3      6      4     15      9   180.00  15.16700   2 ;     C3-    C6-    C4-    H4
     3      6     11      9      9   180.00   6.94544   2 ;     C3-    C6-    O2-    C9
     4      2      5      7      9   180.00  15.16700   2 ;     C4-    C2-    C5-    C7
     4      6      3     14      9   180.00  15.16700   2 ;     C4-    C6-    C3-    H3
     4      6     11      9      9   180.00   6.94544   2 ;     C4-    C6-    O2-    C9
     5      1      3      6      9   180.00  15.16700   2 ;     C5-    C1-    C3-    C6
     5      1      3     14      9   180.00  15.16700   2 ;     C5-    C1-    C3-    H3
     5      2      4      6      9   180.00  15.16700   2 ;     C5-    C2-    C4-    C6
     5      2      4     15      9   180.00  15.16700   2 ;     C5-    C2-    C4-    H4
     5      7      8     16      9   180.00   0.00000   2 ;     C5-    C7-    C8-    H5
     5      7      8     17      9   180.00   0.00000   2 ;     C5-    C7-    C8-    H6
     5      7      8     18      9   180.00   0.00000   2 ;     C5-    C7-    C8-    H7
     6      4      2     13      9   180.00  15.16700   2 ;     C6-    C4-    C2-    H2
     6     11      9     19      9     0.00   1.60387   3 ;     C6-    O2-    C9-    H8
     6     11      9     20      9     0.00   1.60387   3 ;     C6-    O2-    C9-    H9
     6     11      9     21      9     0.00   1.60387   3 ;     C6-    O2-    C9-   H10
     7      5      2     13      9   180.00  15.16700   2 ;     C7-    C5-    C2-    H2
    10      7      8     16      9     0.00  16.86152   1 ;     O1-    C7-    C8-    H5
    10      7      8     16      9   180.00  15.31344   2 ;     O1-    C7-    C8-    H5
    10      7      8     17      9     0.00  16.86152   1 ;     O1-    C7-    C8-    H6
    10      7      8     17      9   180.00  15.31344   2 ;     O1-    C7-    C8-    H6
    10      7      8     18      9     0.00  16.86152   1 ;     O1-    C7-    C8-    H7
    10      7      8     18      9   180.00  15.31344   2 ;     O1-    C7-    C8-    H7
    11      6      3     14      9   180.00  15.16700   2 ;     O2-    C6-    C3-    H3
    11      6      4     15      9   180.00  15.16700   2 ;     O2-    C6-    C4-    H4
    12      1      3      6      9   180.00  15.16700   2 ;     H1-    C1-    C3-    C6
    12      1      3     14      9   180.00  15.16700   2 ;     H1-    C1-    C3-    H3
    12      1      5      2      9   180.00  15.16700   2 ;     H1-    C1-    C5-    C2
    12      1      5      7      9   180.00  15.16700   2 ;     H1-    C1-    C5-    C7
    13      2      4     15      9   180.00  15.16700   2 ;     H2-    C2-    C4-    H4

[ dihedrals ] ; impropers
; treated as propers in GROMACS to use correct AMBER analytical function
;    i      j      k      l   func   phase     kd      pn
     1      6      3     14      4   180.00   4.60240   2 ;     C1-    C6-    C3-    H3
     2      6      4     15      4   180.00   4.60240   2 ;     C2-    C6-    C4-    H4
     3      4      6     11      4   180.00   4.60240   2 ;     C3-    C4-    C6-    O2
     4      5      2     13      4   180.00   4.60240   2 ;     C4-    C5-    C2-    H2
     7      1      5      2      4   180.00   4.60240   2 ;     C7-    C1-    C5-    C2
     8      5      7     10      4   180.00  43.93200   2 ;     C8-    C5-    C7-    O1
    12      1      5      3      4   180.00   4.60240   2 ;     H1-    C1-    C5-    C3
