; mobley_7015518_GMX.itp created by acpype (v: 2023.10.27) on Thu May 21 00:14:02 2026

[ atomtypes ]
;name   bond_type     mass     charge   ptype   sigma         epsilon       Amb
 c3       c3          0.00000  0.00000   A     3.39771e-01   4.51035e-01 ; 1.91  0.1078
 os       os          0.00000  0.00000   A     3.15610e-01   3.03758e-01 ; 1.77  0.0726
 h1       h1          0.00000  0.00000   A     2.42200e-01   8.70272e-02 ; 1.36  0.0208

[ moleculetype ]
;name            nrexcl
 mobley_7015518   3

[ atoms ]
;   nr  type  resi  res  atom  cgnr     charge      mass       ; qtot   bond_type
     1   c3     1   MOL    C1    1     0.113700     12.01000 ; qtot 0.114
     2   c3     1   MOL    C2    2     0.113700     12.01000 ; qtot 0.227
     3   os     1   MOL    O1    3    -0.419598     16.00000 ; qtot -0.192
     4   h1     1   MOL    H1    4     0.032033      1.00800 ; qtot -0.160
     5   h1     1   MOL    H2    5     0.032033      1.00800 ; qtot -0.128
     6   h1     1   MOL    H3    6     0.032033      1.00800 ; qtot -0.096
     7   h1     1   MOL    H4    7     0.032033      1.00800 ; qtot -0.064
     8   h1     1   MOL    H5    8     0.032033      1.00800 ; qtot -0.032
     9   h1     1   MOL    H6    9     0.032033      1.00800 ; qtot 0.000

[ bonds ]
;   ai     aj funct   r             k
     1      3   1    1.4273e-01    2.3620e+05 ;     C1 - O1    
     1      4   1    1.0969e-01    2.8804e+05 ;     C1 - H1    
     1      5   1    1.0969e-01    2.8804e+05 ;     C1 - H2    
     1      6   1    1.0969e-01    2.8804e+05 ;     C1 - H3    
     2      3   1    1.4273e-01    2.3620e+05 ;     C2 - O1    
     2      7   1    1.0969e-01    2.8804e+05 ;     C2 - H4    
     2      8   1    1.0969e-01    2.8804e+05 ;     C2 - H5    
     2      9   1    1.0969e-01    2.8804e+05 ;     C2 - H6    

[ pairs ]
;   ai     aj    funct
     1      7      1 ;     C1 - H4    
     1      8      1 ;     C1 - H5    
     1      9      1 ;     C1 - H6    
     4      2      1 ;     H1 - C2    
     5      2      1 ;     H2 - C2    
     6      2      1 ;     H3 - C2    

[ angles ]
;   ai     aj     ak    funct   theta         cth
     1      3      2      1    1.1360e+02    7.3915e+02 ;     C1 - O1     - C2    
     3      1      4      1    1.1034e+02    4.7028e+02 ;     O1 - C1     - H1    
     3      1      5      1    1.1034e+02    4.7028e+02 ;     O1 - C1     - H2    
     3      1      6      1    1.1034e+02    4.7028e+02 ;     O1 - C1     - H3    
     3      2      7      1    1.1034e+02    4.7028e+02 ;     O1 - C2     - H4    
     3      2      8      1    1.1034e+02    4.7028e+02 ;     O1 - C2     - H5    
     3      2      9      1    1.1034e+02    4.7028e+02 ;     O1 - C2     - H6    
     4      1      5      1    1.0855e+02    2.9824e+02 ;     H1 - C1     - H2    
     4      1      6      1    1.0855e+02    2.9824e+02 ;     H1 - C1     - H3    
     5      1      6      1    1.0855e+02    2.9824e+02 ;     H2 - C1     - H3    
     7      2      8      1    1.0855e+02    2.9824e+02 ;     H4 - C2     - H5    
     7      2      9      1    1.0855e+02    2.9824e+02 ;     H4 - C2     - H6    
     8      2      9      1    1.0855e+02    2.9824e+02 ;     H5 - C2     - H6    

[ dihedrals ] ; propers
; for gromacs 4.5 or higher, using funct 9
;    i      j      k      l   func   phase     kd      pn
     1      3      2      7      9     0.00   1.41001   3 ;     C1-    O1-    C2-    H4
     1      3      2      8      9     0.00   1.41001   3 ;     C1-    O1-    C2-    H5
     1      3      2      9      9     0.00   1.41001   3 ;     C1-    O1-    C2-    H6
     4      1      3      2      9     0.00   1.41001   3 ;     H1-    C1-    O1-    C2
     5      1      3      2      9     0.00   1.41001   3 ;     H2-    C1-    O1-    C2
     6      1      3      2      9     0.00   1.41001   3 ;     H3-    C1-    O1-    C2
