mobley_7015518_GMX.gro created by acpype (v: 2023.10.27) on Thu May 21 00:14:02 2026
 2412
    1MOL     C1    1   2.107   2.238   2.146
    1MOL     C2    2   2.297   2.173   2.268
    1MOL     O1    3   2.172   2.240   2.272
    1MOL     H1    4   2.182   2.226   2.067
    1MOL     H2    5   2.052   2.332   2.132
    1MOL     H3    6   2.037   2.155   2.143
    1MOL     H4    7   2.377   2.246   2.252
    1MOL     H5    8   2.296   2.100   2.187
    1MOL     H6    9   2.313   2.122   2.363
    6SOL     OW   10   1.555   1.511   0.703
    6SOL    HW1   11   1.498   1.495   0.784
    6SOL    HW2   12   1.496   1.521   0.623
   14SOL     OW   13   1.460   1.505   1.339
   14SOL    HW1   14   1.484   1.599   1.365
   14SOL    HW2   15   1.444   1.451   1.421
   18SOL     OW   16   1.127   1.341   1.690
   18SOL    HW1   17   1.174   1.341   1.778
   18SOL    HW2   18   1.079   1.254   1.679
   31SOL     OW   19   1.293   1.228   1.423
   31SOL    HW1   20   1.330   1.155   1.365
   31SOL    HW2   21   1.345   1.233   1.508
   35SOL     OW   22   1.187   1.792   1.616
   35SOL    HW1   23   1.211   1.852   1.540
   35SOL    HW2   24   1.194   1.697   1.586
   37SOL     OW   25   1.466   1.417   0.953
   37SOL    HW1   26   1.407   1.423   1.033
   37SOL    HW2   27   1.451   1.329   0.907
   38SOL     OW   28   1.667   1.714   0.572
   38SOL    HW1   29   1.626   1.691   0.484
   38SOL    HW2   30   1.649   1.640   0.637
   50SOL     OW   31   1.719   0.585   1.831
   50SOL    HW1   32   1.693   0.674   1.795
   50SOL    HW2   33   1.717   0.517   1.758
   55SOL     OW   34   1.795   1.066   0.873
   55SOL    HW1   35   1.733   1.051   0.797
   55SOL    HW2   36   1.743   1.077   0.958
   56SOL     OW   37   1.227   1.550   1.506
   56SOL    HW1   38   1.233   1.473   1.570
   56SOL    HW2   39   1.175   1.524   1.426
   71SOL     OW   40   0.888   1.514   1.195
   71SOL    HW1   41   0.865   1.489   1.101
   71SOL    HW2   42   0.949   1.445   1.234
   95SOL     OW   43   1.754   1.223   1.588
   95SOL    HW1   44   1.845   1.184   1.575
   95SOL    HW2   45   1.762   1.319   1.612
   96SOL     OW   46   1.064   1.347   1.340
   96SOL    HW1   47   0.984   1.324   1.395
   96SOL    HW2   48   1.147   1.321   1.389
   97SOL     OW   49   1.592   1.629   1.625
   97SOL    HW1   50   1.619   1.663   1.535
   97SOL    HW2   51   1.671   1.591   1.671
   99SOL     OW   52   1.638   1.099   1.079
   99SOL    HW1   53   1.643   1.180   1.138
   99SOL    HW2   54   1.552   1.101   1.028
  101SOL     OW   55   0.980   1.116   1.719
  101SOL    HW1   56   0.881   1.122   1.729
  101SOL    HW2   57   1.003   1.036   1.663
  109SOL     OW   58   1.272   1.445   1.142
  109SOL    HW1   59   1.319   1.458   1.229
  109SOL    HW2   60   1.206   1.371   1.151
  113SOL     OW   61   1.587   0.779   1.670
  113SOL    HW1   62   1.495   0.817   1.665
  113SOL    HW2   63   1.647   0.826   1.605
  122SOL     OW   64   1.728   0.935   1.854
  122SOL    HW1   65   1.682   0.928   1.765
  122SOL    HW2   66   1.666   0.979   1.920
  126SOL     OW   67   0.980   1.573   1.700
  126SOL    HW1   68   0.960   1.617   1.612
  126SOL    HW2   69   1.019   1.482   1.684
  127SOL     OW   70   1.859   1.518   1.605
  127SOL    HW1   71   1.873   1.545   1.510
  127SOL    HW2   72   1.942   1.540   1.658
  142SOL     OW   73   1.369   0.950   1.660
  142SOL    HW1   74   1.408   1.039   1.680
  142SOL    HW2   75   1.379   0.930   1.563
  147SOL     OW   76   0.930   1.678   1.465
  147SOL    HW1   77   0.906   1.660   1.370
  147SOL    HW2   78   0.960   1.772   1.475
  150SOL     OW   79   1.347   1.059   1.234
  150SOL    HW1   80   1.371   0.996   1.160
  150SOL    HW2   81   1.257   1.099   1.216
  152SOL     OW   82   1.759   1.747   1.154
  152SOL    HW1   83   1.820   1.777   1.081
  152SOL    HW2   84   1.721   1.658   1.132
  153SOL     OW   85   1.252   1.731   1.128
  153SOL    HW1   86   1.336   1.736   1.074
  153SOL    HW2   87   1.229   1.635   1.146
  155SOL     OW   88   0.688   1.662   1.716
  155SOL    HW1   89   0.632   1.743   1.725
  155SOL    HW2   90   0.740   1.666   1.630
  163SOL     OW   91   1.650   1.720   1.394
  163SOL    HW1   92   1.703   1.730   1.310
  163SOL    HW2   93   1.623   1.810   1.428
  171SOL     OW   94   1.614   1.292   1.289
  171SOL    HW1   95   1.674   1.295   1.369
  171SOL    HW2   96   1.539   1.356   1.302
  180SOL     OW   97   1.440   0.856   1.398
  180SOL    HW1   98   1.383   0.908   1.335
  180SOL    HW2   99   1.536   0.868   1.374
  184SOL     OW  100   1.493   1.767   0.959
  184SOL    HW1  101   1.526   1.831   0.890
  184SOL    HW2  102   1.559   1.761   1.034
  186SOL     OW  103   1.450   1.220   1.633
  186SOL    HW1  104   1.441   1.210   1.732
  186SOL    HW2  105   1.546   1.213   1.607
  188SOL     OW  106   1.674   0.883   1.254
  188SOL    HW1  107   1.647   0.794   1.217
  188SOL    HW2  108   1.675   0.951   1.181
  192SOL     OW  109   1.730   0.934   1.517
  192SOL    HW1  110   1.768   1.025   1.532
  192SOL    HW2  111   1.722   0.917   1.418
  197SOL     OW  112   1.861   1.569   0.851
  197SOL    HW1  113   1.790   1.557   0.781
  197SOL    HW2  114   1.862   1.490   0.911
  203SOL     OW  115   1.705   1.487   1.104
  203SOL    HW1  116   1.612   1.462   1.077
  203SOL    HW2  117   1.731   1.437   1.186
  219SOL     OW  118   1.555   1.511   2.565
  219SOL    HW1  119   1.498   1.495   2.646
  219SOL    HW2  120   1.496   1.521   2.485
  221SOL     OW  121   1.755   0.607   2.093
  221SOL    HW1  122   1.743   0.594   1.994
  221SOL    HW2  123   1.725   0.526   2.142
  227SOL     OW  124   1.460   1.505   3.201
  227SOL    HW1  125   1.484   1.599   3.227
  227SOL    HW2  126   1.444   1.451   3.283
  238SOL     OW  127   1.842   1.767   2.221
  238SOL    HW1  128   1.896   1.738   2.301
  238SOL    HW2  129   1.872   1.857   2.192
  240SOL     OW  130   1.689   0.922   2.474
  240SOL    HW1  131   1.784   0.893   2.482
  240SOL    HW2  132   1.681   0.987   2.399
  241SOL     OW  133   1.641   1.108   2.294
  241SOL    HW1  134   1.727   1.110   2.242
  241SOL    HW2  135   1.655   1.155   2.382
  244SOL     OW  136   1.293   1.228   3.285
  244SOL    HW1  137   1.330   1.155   3.227
  244SOL    HW2  138   1.345   1.233   3.370
  247SOL     OW  139   1.525   0.999   2.052
  247SOL    HW1  140   1.462   0.923   2.065
  247SOL    HW2  141   1.573   1.017   2.138
  248SOL     OW  142   1.187   1.792   3.478
  248SOL    HW1  143   1.211   1.852   3.402
  248SOL    HW2  144   1.194   1.697   3.448
  250SOL     OW  145   1.466   1.417   2.815
  250SOL    HW1  146   1.407   1.423   2.895
  250SOL    HW2  147   1.451   1.329   2.769
  251SOL     OW  148   1.667   1.714   2.434
  251SOL    HW1  149   1.626   1.691   2.346
  251SOL    HW2  150   1.649   1.640   2.499
  254SOL     OW  151   1.576   1.662   2.169
  254SOL    HW1  152   1.665   1.708   2.172
  254SOL    HW2  153   1.555   1.638   2.074
  264SOL     OW  154   1.362   1.144   2.407
  264SOL    HW1  155   1.445   1.115   2.359
  264SOL    HW2  156   1.313   1.211   2.351
  266SOL     OW  157   1.008   1.456   2.339
  266SOL    HW1  158   0.962   1.528   2.287
  266SOL    HW2  159   1.004   1.476   2.437
  268SOL     OW  160   1.795   1.066   2.735
  268SOL    HW1  161   1.733   1.051   2.659
  268SOL    HW2  162   1.743   1.077   2.820
  269SOL     OW  163   1.227   1.550   3.368
  269SOL    HW1  164   1.233   1.473   3.432
  269SOL    HW2  165   1.175   1.524   3.288
  271SOL     OW  166   1.458   0.735   2.590
  271SOL    HW1  167   1.453   0.670   2.665
  271SOL    HW2  168   1.538   0.794   2.603
  273SOL     OW  169   1.111   1.776   2.099
  273SOL    HW1  170   1.051   1.714   2.149
  273SOL    HW2  171   1.142   1.732   2.014
  275SOL     OW  172   1.632   1.377   1.943
  275SOL    HW1  173   1.600   1.471   1.933
  275SOL    HW2  174   1.556   1.314   1.931
  276SOL     OW  175   0.464   1.743   2.185
  276SOL    HW1  176   0.497   1.782   2.271
  276SOL    HW2  177   0.540   1.736   2.120
  279SOL     OW  178   0.940   1.698   2.766
  279SOL    HW1  179   1.020   1.641   2.787
  279SOL    HW2  180   0.891   1.658   2.689
  284SOL     OW  181   0.888   1.514   3.057
  284SOL    HW1  182   0.865   1.489   2.963
  284SOL    HW2  183   0.949   1.445   3.096
  286SOL     OW  184   0.803   1.402   2.786
  286SOL    HW1  185   0.893   1.416   2.744
  286SOL    HW2  186   0.732   1.404   2.715
  289SOL     OW  187   1.434   1.188   1.903
  289SOL    HW1  188   1.466   1.112   1.960
  289SOL    HW2  189   1.342   1.215   1.933
  293SOL     OW  190   1.227   1.570   2.655
  293SOL    HW1  191   1.248   1.644   2.590
  293SOL    HW2  192   1.295   1.570   2.728
  295SOL     OW  193   1.271   1.797   2.453
  295SOL    HW1  194   1.315   1.861   2.389
  295SOL    HW2  195   1.221   1.849   2.523
  301SOL     OW  196   1.429   1.173   2.729
  301SOL    HW1  197   1.374   1.089   2.722
  301SOL    HW2  198   1.455   1.202   2.637
  303SOL     OW  199   1.857   0.833   2.239
  303SOL    HW1  200   1.899   0.769   2.303
  303SOL    HW2  201   1.819   0.782   2.161
  305SOL     OW  202   1.664   1.280   2.519
  305SOL    HW1  203   1.763   1.288   2.533
  305SOL    HW2  204   1.619   1.364   2.550
  308SOL     OW  205   1.754   1.223   3.450
  308SOL    HW1  206   1.845   1.184   3.437
  308SOL    HW2  207   1.762   1.319   3.474
  309SOL     OW  208   1.064   1.347   3.202
  309SOL    HW1  209   0.984   1.324   3.257
  309SOL    HW2  210   1.147   1.321   3.251
  310SOL     OW  211   1.592   1.629   3.487
  310SOL    HW1  212   1.619   1.663   3.397
  310SOL    HW2  213   1.671   1.591   3.533
  311SOL     OW  214   1.111   1.195   2.962
  311SOL    HW1  215   1.071   1.239   3.043
  311SOL    HW2  216   1.070   1.232   2.879
  312SOL     OW  217   1.638   1.099   2.941
  312SOL    HW1  218   1.643   1.180   3.000
  312SOL    HW2  219   1.552   1.101   2.890
  321SOL     OW  220   1.252   1.348   2.250
  321SOL    HW1  221   1.302   1.425   2.290
  321SOL    HW2  222   1.157   1.350   2.282
  322SOL     OW  223   1.272   1.445   3.004
  322SOL    HW1  224   1.319   1.458   3.091
  322SOL    HW2  225   1.206   1.371   3.013
  323SOL     OW  226   1.582   0.639   2.334
  323SOL    HW1  227   1.551   0.700   2.407
  323SOL    HW2  228   1.632   0.691   2.265
  330SOL     OW  229   1.360   0.862   2.907
  330SOL    HW1  230   1.285   0.862   2.841
  330SOL    HW2  231   1.397   0.770   2.916
  340SOL     OW  232   1.859   1.518   3.467
  340SOL    HW1  233   1.873   1.545   3.372
  340SOL    HW2  234   1.942   1.540   3.520
  343SOL     OW  235   1.303   0.838   1.904
  343SOL    HW1  236   1.337   0.745   1.919
  343SOL    HW2  237   1.321   0.865   1.809
  344SOL     OW  238   1.068   1.333   2.711
  344SOL    HW1  239   1.075   1.249   2.656
  344SOL    HW2  240   1.130   1.402   2.675
  360SOL     OW  241   0.930   1.678   3.327
  360SOL    HW1  242   0.906   1.660   3.232
  360SOL    HW2  243   0.960   1.772   3.337
  363SOL     OW  244   1.347   1.059   3.096
  363SOL    HW1  245   1.371   0.996   3.022
  363SOL    HW2  246   1.257   1.099   3.078
  364SOL     OW  247   1.302   0.855   2.171
  364SOL    HW1  248   1.216   0.824   2.213
  364SOL    HW2  249   1.298   0.841   2.072
  365SOL     OW  250   1.759   1.747   3.016
  365SOL    HW1  251   1.820   1.777   2.943
  365SOL    HW2  252   1.721   1.658   2.994
  366SOL     OW  253   1.252   1.731   2.990
  366SOL    HW1  254   1.336   1.736   2.936
  366SOL    HW2  255   1.229   1.635   3.008
  370SOL     OW  256   1.388   1.573   2.339
  370SOL    HW1  257   1.455   1.585   2.265
  370SOL    HW2  258   1.348   1.662   2.362
  372SOL     OW  259   1.280   0.927   2.534
  372SOL    HW1  260   1.340   0.846   2.536
  372SOL    HW2  261   1.320   0.996   2.474
  374SOL     OW  262   0.672   1.616   2.016
  374SOL    HW1  263   0.681   1.626   1.917
  374SOL    HW2  264   0.632   1.527   2.037
  375SOL     OW  265   1.650   1.720   3.256
  375SOL    HW1  266   1.703   1.730   3.172
  375SOL    HW2  267   1.623   1.810   3.290
  378SOL     OW  268   1.194   1.612   1.893
  378SOL    HW1  269   1.200   1.519   1.930
  378SOL    HW2  270   1.135   1.612   1.813
  381SOL     OW  271   1.504   1.607   1.906
  381SOL    HW1  272   1.412   1.644   1.913
  381SOL    HW2  273   1.542   1.627   1.816
  383SOL     OW  274   1.614   1.292   3.151
  383SOL    HW1  275   1.674   1.295   3.231
  383SOL    HW2  276   1.539   1.356   3.164
  384SOL     OW  277   1.039   1.098   2.558
  384SOL    HW1  278   0.969   1.051   2.612
  384SOL    HW2  279   1.098   1.030   2.515
  386SOL     OW  280   0.590   1.487   2.353
  386SOL    HW1  281   0.632   1.429   2.283
  386SOL    HW2  282   0.546   1.566   2.309
  394SOL     OW  283   1.183   1.335   1.981
  394SOL    HW1  284   1.084   1.324   1.983
  394SOL    HW2  285   1.217   1.350   2.074
  396SOL     OW  286   1.493   1.767   2.821
  396SOL    HW1  287   1.526   1.831   2.752
  396SOL    HW2  288   1.559   1.761   2.896
  398SOL     OW  289   1.450   1.220   3.495
  398SOL    HW1  290   1.441   1.210   3.594
  398SOL    HW2  291   1.546   1.213   3.469
  400SOL     OW  292   1.674   0.883   3.116
  400SOL    HW1  293   1.647   0.794   3.079
  400SOL    HW2  294   1.675   0.951   3.043
  404SOL     OW  295   1.730   0.934   3.379
  404SOL    HW1  296   1.768   1.025   3.394
  404SOL    HW2  297   1.722   0.917   3.280
  405SOL     OW  298   0.859   1.374   1.878
  405SOL    HW1  299   0.813   1.389   1.966
  405SOL    HW2  300   0.903   1.459   1.848
  406SOL     OW  301   0.661   1.790   2.815
  406SOL    HW1  302   0.615   1.878   2.802
  406SOL    HW2  303   0.760   1.802   2.808
  408SOL     OW  304   1.083   0.984   1.949
  408SOL    HW1  305   1.060   1.037   1.867
  408SOL    HW2  306   1.164   0.928   1.930
  409SOL     OW  307   1.861   1.569   2.713
  409SOL    HW1  308   1.790   1.557   2.643
  409SOL    HW2  309   1.862   1.490   2.773
  415SOL     OW  310   1.705   1.487   2.966
  415SOL    HW1  311   1.612   1.462   2.939
  415SOL    HW2  312   1.731   1.437   3.048
  417SOL     OW  313   0.812   1.586   2.549
  417SOL    HW1  314   0.844   1.596   2.455
  417SOL    HW2  315   0.733   1.524   2.551
  420SOL     OW  316   0.770   1.330   2.163
  420SOL    HW1  317   0.724   1.243   2.180
  420SOL    HW2  318   0.861   1.327   2.204
  426SOL     OW  319   0.875   1.646   2.199
  426SOL    HW1  320   0.798   1.611   2.145
  426SOL    HW2  321   0.843   1.717   2.261
  509SOL     OW  322   0.850   2.660   1.823
  509SOL    HW1  323   0.846   2.736   1.888
  509SOL    HW2  324   0.872   2.696   1.732
  511SOL     OW  325   0.686   3.023   1.803
  511SOL    HW1  326   0.746   3.102   1.817
  511SOL    HW2  327   0.600   3.054   1.762
  513SOL     OW  328   1.460   3.367   1.339
  513SOL    HW1  329   1.484   3.461   1.365
  513SOL    HW2  330   1.444   3.313   1.421
  515SOL     OW  331   1.603   2.309   0.737
  515SOL    HW1  332   1.529   2.355   0.687
  515SOL    HW2  333   1.654   2.377   0.790
  517SOL     OW  334   1.127   3.203   1.690
  517SOL    HW1  335   1.174   3.203   1.778
  517SOL    HW2  336   1.079   3.116   1.679
  522SOL     OW  337   1.594   1.976   1.480
  522SOL    HW1  338   1.576   2.043   1.408
  522SOL    HW2  339   1.591   2.022   1.569
  526SOL     OW  340   1.689   2.784   0.612
  526SOL    HW1  341   1.784   2.755   0.620
  526SOL    HW2  342   1.681   2.849   0.537
  530SOL     OW  343   1.293   3.090   1.423
  530SOL    HW1  344   1.330   3.017   1.365
  530SOL    HW2  345   1.345   3.095   1.508
  539SOL     OW  346   1.281   2.207   0.944
  539SOL    HW1  347   1.195   2.157   0.931
  539SOL    HW2  348   1.343   2.153   1.000
  541SOL     OW  349   0.807   2.467   1.465
  541SOL    HW1  350   0.760   2.464   1.554
  541SOL    HW2  351   0.756   2.412   1.399
  542SOL     OW  352   1.394   2.331   1.674
  542SOL    HW1  353   1.374   2.374   1.762
  542SOL    HW2  354   1.472   2.269   1.683
  543SOL     OW  355   0.973   2.752   1.572
  543SOL    HW1  356   1.019   2.668   1.543
  543SOL    HW2  357   0.917   2.786   1.497
  544SOL     OW  358   0.991   2.272   1.242
  544SOL    HW1  359   0.914   2.306   1.296
  544SOL    HW2  360   0.957   2.221   1.163
  549SOL     OW  361   1.719   2.447   1.831
  549SOL    HW1  362   1.693   2.536   1.795
  549SOL    HW2  363   1.717   2.379   1.758
  554SOL     OW  364   1.795   2.928   0.873
  554SOL    HW1  365   1.733   2.913   0.797
  554SOL    HW2  366   1.743   2.939   0.958
  555SOL     OW  367   1.227   3.412   1.506
  555SOL    HW1  368   1.233   3.335   1.570
  555SOL    HW2  369   1.175   3.386   1.426
  557SOL     OW  370   1.458   2.597   0.728
  557SOL    HW1  371   1.453   2.532   0.803
  557SOL    HW2  372   1.538   2.656   0.741
  567SOL     OW  373   1.547   2.084   1.729
  567SOL    HW1  374   1.542   2.121   1.821
  567SOL    HW2  375   1.475   2.015   1.717
  569SOL     OW  376   0.781   2.126   1.749
  569SOL    HW1  377   0.848   2.065   1.792
  569SOL    HW2  378   0.708   2.145   1.814
  571SOL     OW  379   1.351   2.452   1.433
  571SOL    HW1  380   1.379   2.409   1.518
  571SOL    HW2  381   1.376   2.548   1.434
  577SOL     OW  382   1.076   2.545   1.464
  577SOL    HW1  383   0.996   2.484   1.467
  577SOL    HW2  384   1.157   2.492   1.440
  586SOL     OW  385   1.429   3.035   0.867
  586SOL    HW1  386   1.374   2.951   0.860
  586SOL    HW2  387   1.455   3.064   0.775
  587SOL     OW  388   1.466   2.452   0.992
  587SOL    HW1  389   1.436   2.357   0.999
  587SOL    HW2  390   1.539   2.468   1.058
  593SOL     OW  391   1.754   3.085   1.588
  593SOL    HW1  392   1.845   3.046   1.575
  593SOL    HW2  393   1.762   3.181   1.612
  594SOL     OW  394   1.064   3.209   1.340
  594SOL    HW1  395   0.984   3.186   1.395
  594SOL    HW2  396   1.147   3.183   1.389
  595SOL     OW  397   1.592   3.491   1.625
  595SOL    HW1  398   1.619   3.525   1.535
  595SOL    HW2  399   1.671   3.453   1.671
  596SOL     OW  400   1.111   3.057   1.100
  596SOL    HW1  401   1.071   3.101   1.181
  596SOL    HW2  402   1.070   3.094   1.017
  597SOL     OW  403   1.638   2.961   1.079
  597SOL    HW1  404   1.643   3.042   1.138
  597SOL    HW2  405   1.552   2.963   1.028
  598SOL     OW  406   0.915   1.951   1.402
  598SOL    HW1  407   0.940   1.931   1.307
  598SOL    HW2  408   0.987   2.007   1.444
  599SOL     OW  409   0.980   2.978   1.719
  599SOL    HW1  410   0.881   2.984   1.729
  599SOL    HW2  411   1.003   2.898   1.663
  602SOL     OW  412   1.274   2.248   1.262
  602SOL    HW1  413   1.295   2.322   1.326
  602SOL    HW2  414   1.185   2.265   1.219
  607SOL     OW  415   1.272   3.307   1.142
  607SOL    HW1  416   1.319   3.320   1.229
  607SOL    HW2  417   1.206   3.233   1.151
  611SOL     OW  418   1.587   2.641   1.670
  611SOL    HW1  419   1.495   2.679   1.665
  611SOL    HW2  420   1.647   2.688   1.605
  612SOL     OW  421   1.013   1.967   1.770
  612SOL    HW1  422   1.019   2.052   1.718
  612SOL    HW2  423   1.045   1.891   1.713
  613SOL     OW  424   0.504   1.912   1.740
  613SOL    HW1  425   0.462   1.855   1.670
  613SOL    HW2  426   0.438   1.981   1.772
  615SOL     OW  427   1.360   2.724   1.045
  615SOL    HW1  428   1.285   2.724   0.979
  615SOL    HW2  429   1.397   2.632   1.054
  620SOL     OW  430   1.728   2.797   1.854
  620SOL    HW1  431   1.682   2.790   1.765
  620SOL    HW2  432   1.666   2.841   1.920
  623SOL     OW  433   1.023   2.628   0.966
  623SOL    HW1  434   1.038   2.649   1.062
  623SOL    HW2  435   0.993   2.533   0.957
  625SOL     OW  436   1.859   3.380   1.605
  625SOL    HW1  437   1.873   3.407   1.510
  625SOL    HW2  438   1.942   3.402   1.658
  632SOL     OW  439   1.138   2.242   1.678
  632SOL    HW1  440   1.093   2.305   1.742
  632SOL    HW2  441   1.231   2.273   1.661
  633SOL     OW  442   1.160   2.069   1.477
  633SOL    HW1  443   1.160   2.133   1.554
  633SOL    HW2  444   1.188   2.117   1.394
  637SOL     OW  445   1.002   2.658   1.238
  637SOL    HW1  446   1.043   2.626   1.324
  637SOL    HW2  447   0.906   2.631   1.235
  640SOL     OW  448   1.369   2.812   1.660
  640SOL    HW1  449   1.408   2.901   1.680
  640SOL    HW2  450   1.379   2.792   1.563
  642SOL     OW  451   1.657   2.466   1.206
  642SOL    HW1  452   1.619   2.397   1.268
  642SOL    HW2  453   1.739   2.430   1.162
  644SOL     OW  454   0.671   2.326   1.269
  644SOL    HW1  455   0.637   2.237   1.239
  644SOL    HW2  456   0.697   2.380   1.189
  648SOL     OW  457   1.347   2.921   1.234
  648SOL    HW1  458   1.371   2.858   1.160
  648SOL    HW2  459   1.257   2.961   1.216
  655SOL     OW  460   1.726   1.997   0.523
  655SOL    HW1  461   1.799   1.980   0.456
  655SOL    HW2  462   1.695   1.910   0.561
  661SOL     OW  463   1.650   3.582   1.394
  661SOL    HW1  464   1.703   3.592   1.310
  661SOL    HW2  465   1.623   3.672   1.428
  662SOL     OW  466   1.841   2.037   0.963
  662SOL    HW1  467   1.880   1.952   0.927
  662SOL    HW2  468   1.743   2.039   0.944
  665SOL     OW  469   0.822   2.864   1.372
  665SOL    HW1  470   0.862   2.863   1.280
  665SOL    HW2  471   0.832   2.956   1.412
  669SOL     OW  472   1.614   3.154   1.289
  669SOL    HW1  473   1.674   3.157   1.369
  669SOL    HW2  474   1.539   3.218   1.302
  671SOL     OW  475   1.014   2.098   0.971
  671SOL    HW1  476   1.006   2.062   0.878
  671SOL    HW2  477   1.012   2.022   1.036
  673SOL     OW  478   1.709   2.247   1.381
  673SOL    HW1  479   1.782   2.316   1.385
  673SOL    HW2  480   1.737   2.172   1.322
  676SOL     OW  481   0.672   2.065   1.489
  676SOL    HW1  482   0.762   2.049   1.449
  676SOL    HW2  483   0.680   2.070   1.588
  678SOL     OW  484   1.440   2.718   1.398
  678SOL    HW1  485   1.383   2.770   1.335
  678SOL    HW2  486   1.536   2.730   1.374
  683SOL     OW  487   0.716   2.427   1.708
  683SOL    HW1  488   0.735   2.492   1.782
  683SOL    HW2  489   0.776   2.347   1.717
  684SOL     OW  490   1.450   3.082   1.633
  684SOL    HW1  491   1.441   3.072   1.732
  684SOL    HW2  492   1.546   3.075   1.607
  686SOL     OW  493   1.674   2.745   1.254
  686SOL    HW1  494   1.647   2.656   1.217
  686SOL    HW2  495   1.675   2.813   1.181
  689SOL     OW  496   1.777   2.204   1.642
  689SOL    HW1  497   1.760   2.235   1.548
  689SOL    HW2  498   1.693   2.167   1.680
  690SOL     OW  499   1.730   2.796   1.517
  690SOL    HW1  500   1.768   2.887   1.532
  690SOL    HW2  501   1.722   2.779   1.418
  699SOL     OW  502   1.824   2.054   1.227
  699SOL    HW1  503   1.820   1.964   1.271
  699SOL    HW2  504   1.827   2.043   1.128
  701SOL     OW  505   1.705   3.349   1.104
  701SOL    HW1  506   1.612   3.324   1.077
  701SOL    HW2  507   1.731   3.299   1.186
  704SOL     OW  508   1.424   2.076   1.112
  704SOL    HW1  509   1.476   2.011   1.167
  704SOL    HW2  510   1.375   2.139   1.173
  705SOL     OW  511   1.001   1.896   1.154
  705SOL    HW1  512   0.938   1.824   1.123
  705SOL    HW2  513   1.094   1.860   1.154
  709SOL     OW  514   1.300   2.315   0.691
  709SOL    HW1  515   1.241   2.395   0.695
  709SOL    HW2  516   1.315   2.280   0.784
  710SOL     OW  517   1.593   2.083   0.882
  710SOL    HW1  518   1.509   2.082   0.936
  710SOL    HW2  519   1.595   2.166   0.826
  717SOL     OW  520   1.555   3.373   2.565
  717SOL    HW1  521   1.498   3.357   2.646
  717SOL    HW2  522   1.496   3.383   2.485
  718SOL     OW  523   1.135   2.565   2.579
  718SOL    HW1  524   1.192   2.643   2.554
  718SOL    HW2  525   1.075   2.591   2.655
  719SOL     OW  526   1.755   2.469   2.093
  719SOL    HW1  527   1.743   2.456   1.994
  719SOL    HW2  528   1.725   2.388   2.142
  720SOL     OW  529   0.768   3.006   2.885
  720SOL    HW1  530   0.690   3.023   2.945
  720SOL    HW2  531   0.802   3.093   2.849
  722SOL     OW  532   0.685   2.874   2.527
  722SOL    HW1  533   0.754   2.858   2.597
  722SOL    HW2  534   0.612   2.931   2.565
  725SOL     OW  535   1.460   3.367   3.201
  725SOL    HW1  536   1.484   3.461   3.227
  725SOL    HW2  537   1.444   3.313   3.283
  727SOL     OW  538   1.603   2.309   2.599
  727SOL    HW1  539   1.529   2.355   2.549
  727SOL    HW2  540   1.654   2.377   2.652
  733SOL     OW  541   0.606   2.826   1.985
  733SOL    HW1  542   0.613   2.910   1.931
  733SOL    HW2  543   0.652   2.839   2.073
  734SOL     OW  544   1.594   1.976   3.342
  734SOL    HW1  545   1.576   2.043   3.270
  734SOL    HW2  546   1.591   2.022   3.431
  736SOL     OW  547   1.842   3.629   2.221
  736SOL    HW1  548   1.896   3.600   2.301
  736SOL    HW2  549   1.872   3.719   2.192
  738SOL     OW  550   1.689   2.784   2.474
  738SOL    HW1  551   1.784   2.755   2.482
  738SOL    HW2  552   1.681   2.849   2.399
  739SOL     OW  553   1.641   2.970   2.294
  739SOL    HW1  554   1.727   2.972   2.242
  739SOL    HW2  555   1.655   3.017   2.382
  742SOL     OW  556   1.293   3.090   3.285
  742SOL    HW1  557   1.330   3.017   3.227
  742SOL    HW2  558   1.345   3.095   3.370
  743SOL     OW  559   0.809   1.866   2.364
  743SOL    HW1  560   0.849   1.957   2.355
  743SOL    HW2  561   0.709   1.874   2.370
  745SOL     OW  562   1.525   2.861   2.052
  745SOL    HW1  563   1.462   2.785   2.065
  745SOL    HW2  564   1.573   2.879   2.138
  748SOL     OW  565   1.466   3.279   2.815
  748SOL    HW1  566   1.407   3.285   2.895
  748SOL    HW2  567   1.451   3.191   2.769
  749SOL     OW  568   1.667   3.576   2.434
  749SOL    HW1  569   1.626   3.553   2.346
  749SOL    HW2  570   1.649   3.502   2.499
  750SOL     OW  571   0.598   2.591   2.132
  750SOL    HW1  572   0.622   2.660   2.064
  750SOL    HW2  573   0.520   2.624   2.186
  751SOL     OW  574   1.281   2.207   2.806
  751SOL    HW1  575   1.195   2.157   2.793
  751SOL    HW2  576   1.343   2.153   2.862
  752SOL     OW  577   1.576   3.524   2.169
  752SOL    HW1  578   1.665   3.570   2.172
  752SOL    HW2  579   1.555   3.500   2.074
  754SOL     OW  580   1.394   2.331   3.536
  754SOL    HW1  581   1.374   2.374   3.624
  754SOL    HW2  582   1.472   2.269   3.545
  756SOL     OW  583   0.991   2.272   3.104
  756SOL    HW1  584   0.914   2.306   3.158
  756SOL    HW2  585   0.957   2.221   3.025
  757SOL     OW  586   1.041   2.563   2.291
  757SOL    HW1  587   1.067   2.559   2.387
  757SOL    HW2  588   0.956   2.512   2.277
  760SOL     OW  589   0.865   2.210   2.057
  760SOL    HW1  590   0.924   2.273   2.008
  760SOL    HW2  591   0.884   2.116   2.028
  761SOL     OW  592   1.719   2.447   3.693
  761SOL    HW1  593   1.693   2.536   3.657
  761SOL    HW2  594   1.717   2.379   3.620
  762SOL     OW  595   1.362   3.006   2.407
  762SOL    HW1  596   1.445   2.977   2.359
  762SOL    HW2  597   1.313   3.073   2.351
  763SOL     OW  598   0.550   2.058   2.747
  763SOL    HW1  599   0.545   2.053   2.847
  763SOL    HW2  600   0.552   2.154   2.718
  764SOL     OW  601   1.008   3.318   2.339
  764SOL    HW1  602   0.962   3.390   2.287
  764SOL    HW2  603   1.004   3.338   2.437
  766SOL     OW  604   1.795   2.928   2.735
  766SOL    HW1  605   1.733   2.913   2.659
  766SOL    HW2  606   1.743   2.939   2.820
  769SOL     OW  607   1.458   2.597   2.590
  769SOL    HW1  608   1.453   2.532   2.665
  769SOL    HW2  609   1.538   2.656   2.603
  773SOL     OW  610   1.632   3.239   1.943
  773SOL    HW1  611   1.600   3.333   1.933
  773SOL    HW2  612   1.556   3.176   1.931
  775SOL     OW  613   1.400   1.969   2.288
  775SOL    HW1  614   1.376   1.932   2.198
  775SOL    HW2  615   1.499   1.985   2.292
  779SOL     OW  616   1.547   2.084   3.591
  779SOL    HW1  617   1.542   2.121   3.683
  779SOL    HW2  618   1.475   2.015   3.579
  780SOL     OW  619   0.614   1.984   1.979
  780SOL    HW1  620   0.712   1.962   1.986
  780SOL    HW2  621   0.583   1.967   1.886
  783SOL     OW  622   1.351   2.452   3.295
  783SOL    HW1  623   1.379   2.409   3.380
  783SOL    HW2  624   1.376   2.548   3.296
  785SOL     OW  625   0.922   2.365   2.761
  785SOL    HW1  626   0.897   2.356   2.665
  785SOL    HW2  627   0.970   2.283   2.792
  786SOL     OW  628   0.539   1.926   2.374
  786SOL    HW1  629   0.458   1.927   2.432
  786SOL    HW2  630   0.542   2.009   2.319
  787SOL     OW  631   1.434   3.050   1.903
  787SOL    HW1  632   1.466   2.974   1.960
  787SOL    HW2  633   1.342   3.077   1.933
  789SOL     OW  634   0.935   2.098   2.342
  789SOL    HW1  635   0.887   2.139   2.264
  789SOL    HW2  636   1.034   2.096   2.323
  790SOL     OW  637   1.076   2.545   3.326
  790SOL    HW1  638   0.996   2.484   3.329
  790SOL    HW2  639   1.157   2.492   3.302
  791SOL     OW  640   1.227   3.432   2.655
  791SOL    HW1  641   1.248   3.506   2.590
  791SOL    HW2  642   1.295   3.432   2.728
  793SOL     OW  643   1.271   3.659   2.453
  793SOL    HW1  644   1.315   3.723   2.389
  793SOL    HW2  645   1.221   3.711   2.523
  794SOL     OW  646   1.032   2.411   1.878
  794SOL    HW1  647   0.991   2.493   1.839
  794SOL    HW2  648   1.096   2.437   1.951
  797SOL     OW  649   0.866   2.316   2.504
  797SOL    HW1  650   0.834   2.388   2.442
  797SOL    HW2  651   0.890   2.235   2.451
  798SOL     OW  652   1.017   1.901   2.615
  798SOL    HW1  653   0.945   1.906   2.546
  798SOL    HW2  654   0.993   1.832   2.684
  799SOL     OW  655   1.429   3.035   2.729
  799SOL    HW1  656   1.374   2.951   2.722
  799SOL    HW2  657   1.455   3.064   2.637
  800SOL     OW  658   1.466   2.452   2.854
  800SOL    HW1  659   1.436   2.357   2.861
  800SOL    HW2  660   1.539   2.468   2.920
  801SOL     OW  661   1.857   2.695   2.239
  801SOL    HW1  662   1.899   2.631   2.303
  801SOL    HW2  663   1.819   2.644   2.161
  803SOL     OW  664   1.664   3.142   2.519
  803SOL    HW1  665   1.763   3.150   2.533
  803SOL    HW2  666   1.619   3.226   2.550
  804SOL     OW  667   1.390   2.437   1.940
  804SOL    HW1  668   1.336   2.416   2.021
  804SOL    HW2  669   1.481   2.396   1.949
  805SOL     OW  670   0.527   2.118   2.190
  805SOL    HW1  671   0.554   2.059   2.115
  805SOL    HW2  672   0.527   2.213   2.159
  806SOL     OW  673   1.754   3.085   3.450
  806SOL    HW1  674   1.845   3.046   3.437
  806SOL    HW2  675   1.762   3.181   3.474
  809SOL     OW  676   1.111   3.057   2.962
  809SOL    HW1  677   1.071   3.101   3.043
  809SOL    HW2  678   1.070   3.094   2.879
  810SOL     OW  679   1.638   2.961   2.941
  810SOL    HW1  680   1.643   3.042   3.000
  810SOL    HW2  681   1.552   2.963   2.890
  811SOL     OW  682   0.915   1.951   3.264
  811SOL    HW1  683   0.940   1.931   3.169
  811SOL    HW2  684   0.987   2.007   3.306
  813SOL     OW  685   0.705   2.912   2.230
  813SOL    HW1  686   0.691   2.919   2.329
  813SOL    HW2  687   0.789   2.861   2.212
  815SOL     OW  688   1.274   2.248   3.124
  815SOL    HW1  689   1.295   2.322   3.188
  815SOL    HW2  690   1.185   2.265   3.081
  818SOL     OW  691   0.566   2.399   2.727
  818SOL    HW1  692   0.578   2.465   2.653
  818SOL    HW2  693   0.612   2.433   2.810
  819SOL     OW  694   1.252   3.210   2.250
  819SOL    HW1  695   1.302   3.287   2.290
  819SOL    HW2  696   1.157   3.212   2.282
  820SOL     OW  697   1.272   3.307   3.004
  820SOL    HW1  698   1.319   3.320   3.091
  820SOL    HW2  699   1.206   3.233   3.013
  821SOL     OW  700   1.582   2.501   2.334
  821SOL    HW1  701   1.551   2.562   2.407
  821SOL    HW2  702   1.632   2.553   2.265
  824SOL     OW  703   1.587   2.641   3.532
  824SOL    HW1  704   1.495   2.679   3.527
  824SOL    HW2  705   1.647   2.688   3.467
  828SOL     OW  706   1.360   2.724   2.907
  828SOL    HW1  707   1.285   2.724   2.841
  828SOL    HW2  708   1.397   2.632   2.916
  829SOL     OW  709   1.209   2.387   2.137
  829SOL    HW1  710   1.222   2.303   2.191
  829SOL    HW2  711   1.180   2.461   2.197
  832SOL     OW  712   0.732   2.496   2.926
  832SOL    HW1  713   0.791   2.470   2.850
  832SOL    HW2  714   0.704   2.592   2.915
  833SOL     OW  715   1.728   2.797   3.716
  833SOL    HW1  716   1.682   2.790   3.627
  833SOL    HW2  717   1.666   2.841   3.782
  835SOL     OW  718   1.622   2.229   2.236
  835SOL    HW1  719   1.624   2.153   2.300
  835SOL    HW2  720   1.574   2.306   2.276
  836SOL     OW  721   1.023   2.628   2.828
  836SOL    HW1  722   1.038   2.649   2.924
  836SOL    HW2  723   0.993   2.533   2.819
  838SOL     OW  724   1.859   3.380   3.467
  838SOL    HW1  725   1.873   3.407   3.372
  838SOL    HW2  726   1.942   3.402   3.520
  840SOL     OW  727   1.540   2.136   1.987
  840SOL    HW1  728   1.479   2.061   2.010
  840SOL    HW2  729   1.562   2.188   2.070
  841SOL     OW  730   1.303   2.700   1.904
  841SOL    HW1  731   1.337   2.607   1.919
  841SOL    HW2  732   1.321   2.727   1.809
  842SOL     OW  733   1.068   3.195   2.711
  842SOL    HW1  734   1.075   3.111   2.656
  842SOL    HW2  735   1.130   3.264   2.675
  845SOL     OW  736   1.138   2.242   3.540
  845SOL    HW1  737   1.093   2.305   3.604
  845SOL    HW2  738   1.231   2.273   3.523
  846SOL     OW  739   1.160   2.069   3.339
  846SOL    HW1  740   1.160   2.133   3.416
  846SOL    HW2  741   1.188   2.117   3.256
  850SOL     OW  742   1.002   2.658   3.100
  850SOL    HW1  743   1.043   2.626   3.186
  850SOL    HW2  744   0.906   2.631   3.097
  853SOL     OW  745   1.369   2.812   3.522
  853SOL    HW1  746   1.408   2.901   3.542
  853SOL    HW2  747   1.379   2.792   3.425
  854SOL     OW  748   0.815   2.434   2.187
  854SOL    HW1  749   0.822   2.345   2.141
  854SOL    HW2  750   0.721   2.468   2.179
  855SOL     OW  751   1.657   2.466   3.068
  855SOL    HW1  752   1.619   2.397   3.130
  855SOL    HW2  753   1.739   2.430   3.024
  857SOL     OW  754   0.671   2.326   3.131
  857SOL    HW1  755   0.637   2.237   3.101
  857SOL    HW2  756   0.697   2.380   3.051
  859SOL     OW  757   0.473   2.362   2.053
  859SOL    HW1  758   0.534   2.442   2.057
  859SOL    HW2  759   0.378   2.393   2.060
  861SOL     OW  760   1.347   2.921   3.096
  861SOL    HW1  761   1.371   2.858   3.022
  861SOL    HW2  762   1.257   2.961   3.078
  862SOL     OW  763   1.302   2.717   2.171
  862SOL    HW1  764   1.216   2.686   2.213
  862SOL    HW2  765   1.298   2.703   2.072
  863SOL     OW  766   1.759   3.609   3.016
  863SOL    HW1  767   1.820   3.639   2.943
  863SOL    HW2  768   1.721   3.520   2.994
  867SOL     OW  769   1.726   1.997   2.385
  867SOL    HW1  770   1.799   1.980   2.318
  867SOL    HW2  771   1.695   1.910   2.423
  868SOL     OW  772   1.388   3.435   2.339
  868SOL    HW1  773   1.455   3.447   2.265
  868SOL    HW2  774   1.348   3.524   2.362
  870SOL     OW  775   1.280   2.789   2.534
  870SOL    HW1  776   1.340   2.708   2.536
  870SOL    HW2  777   1.320   2.858   2.474
  874SOL     OW  778   1.841   2.037   2.825
  874SOL    HW1  779   1.880   1.952   2.789
  874SOL    HW2  780   1.743   2.039   2.806
  876SOL     OW  781   1.194   3.474   1.893
  876SOL    HW1  782   1.200   3.381   1.930
  876SOL    HW2  783   1.135   3.474   1.813
  878SOL     OW  784   0.916   2.772   2.153
  878SOL    HW1  785   0.979   2.810   2.085
  878SOL    HW2  786   0.956   2.689   2.192
  879SOL     OW  787   1.504   3.469   1.906
  879SOL    HW1  788   1.412   3.506   1.913
  879SOL    HW2  789   1.542   3.489   1.816
  881SOL     OW  790   1.614   3.154   3.151
  881SOL    HW1  791   1.674   3.157   3.231
  881SOL    HW2  792   1.539   3.218   3.164
  882SOL     OW  793   1.039   2.960   2.558
  882SOL    HW1  794   0.969   2.913   2.612
  882SOL    HW2  795   1.098   2.892   2.515
  883SOL     OW  796   1.014   2.098   2.833
  883SOL    HW1  797   1.006   2.062   2.740
  883SOL    HW2  798   1.012   2.022   2.898
  885SOL     OW  799   1.709   2.247   3.243
  885SOL    HW1  800   1.782   2.316   3.247
  885SOL    HW2  801   1.737   2.172   3.184
  890SOL     OW  802   1.440   2.718   3.260
  890SOL    HW1  803   1.383   2.770   3.197
  890SOL    HW2  804   1.536   2.730   3.236
  892SOL     OW  805   1.183   3.197   1.981
  892SOL    HW1  806   1.084   3.186   1.983
  892SOL    HW2  807   1.217   3.212   2.074
  894SOL     OW  808   1.493   3.629   2.821
  894SOL    HW1  809   1.526   3.693   2.752
  894SOL    HW2  810   1.559   3.623   2.896
  896SOL     OW  811   1.450   3.082   3.495
  896SOL    HW1  812   1.441   3.072   3.594
  896SOL    HW2  813   1.546   3.075   3.469
  898SOL     OW  814   1.674   2.745   3.116
  898SOL    HW1  815   1.647   2.656   3.079
  898SOL    HW2  816   1.675   2.813   3.043
  899SOL     OW  817   1.225   2.187   2.311
  899SOL    HW1  818   1.290   2.113   2.300
  899SOL    HW2  819   1.245   2.237   2.395
  900SOL     OW  820   0.594   2.607   2.514
  900SOL    HW1  821   0.644   2.692   2.495
  900SOL    HW2  822   0.506   2.609   2.466
  901SOL     OW  823   1.777   2.204   3.504
  901SOL    HW1  824   1.760   2.235   3.410
  901SOL    HW2  825   1.693   2.167   3.542
  902SOL     OW  826   1.730   2.796   3.379
  902SOL    HW1  827   1.768   2.887   3.394
  902SOL    HW2  828   1.722   2.779   3.280
  903SOL     OW  829   0.859   3.236   1.878
  903SOL    HW1  830   0.813   3.251   1.966
  903SOL    HW2  831   0.903   3.321   1.848
  905SOL     OW  832   0.859   2.818   2.723
  905SOL    HW1  833   0.913   2.749   2.771
  905SOL    HW2  834   0.827   2.887   2.789
  906SOL     OW  835   1.083   2.846   1.949
  906SOL    HW1  836   1.060   2.899   1.867
  906SOL    HW2  837   1.164   2.790   1.930
  907SOL     OW  838   1.861   3.431   2.713
  907SOL    HW1  839   1.790   3.419   2.643
  907SOL    HW2  840   1.862   3.352   2.773
  911SOL     OW  841   1.824   2.054   3.089
  911SOL    HW1  842   1.820   1.964   3.133
  911SOL    HW2  843   1.827   2.043   2.990
  912SOL     OW  844   0.428   2.286   2.382
  912SOL    HW1  845   0.458   2.214   2.320
  912SOL    HW2  846   0.389   2.246   2.465
  913SOL     OW  847   1.705   3.349   2.966
  913SOL    HW1  848   1.612   3.324   2.939
  913SOL    HW2  849   1.731   3.299   3.048
  916SOL     OW  850   1.424   2.076   2.974
  916SOL    HW1  851   1.476   2.011   3.029
  916SOL    HW2  852   1.375   2.139   3.035
  917SOL     OW  853   1.001   1.896   3.016
  917SOL    HW1  854   0.938   1.824   2.985
  917SOL    HW2  855   1.094   1.860   3.016
  918SOL     OW  856   0.770   3.192   2.163
  918SOL    HW1  857   0.724   3.105   2.180
  918SOL    HW2  858   0.861   3.189   2.204
  920SOL     OW  859   1.352   1.914   2.030
  920SOL    HW1  860   1.387   1.873   1.946
  920SOL    HW2  861   1.262   1.876   2.050
  921SOL     OW  862   1.300   2.315   2.553
  921SOL    HW1  863   1.241   2.395   2.557
  921SOL    HW2  864   1.315   2.280   2.646
  922SOL     OW  865   1.593   2.083   2.744
  922SOL    HW1  866   1.509   2.082   2.798
  922SOL    HW2  867   1.595   2.166   2.688
  971SOL     OW  868   1.540   2.136   3.849
  971SOL    HW1  869   1.479   2.061   3.872
  971SOL    HW2  870   1.562   2.188   3.932
 1134SOL     OW  871   1.726   3.859   2.385
 1134SOL    HW1  872   1.799   3.842   2.318
 1134SOL    HW2  873   1.695   3.772   2.423
 1151SOL     OW  874   1.352   3.776   2.030
 1151SOL    HW1  875   1.387   3.735   1.946
 1151SOL    HW2  876   1.262   3.738   2.050
 1186SOL     OW  877   2.431   1.275   1.165
 1186SOL    HW1  878   2.338   1.268   1.128
 1186SOL    HW2  879   2.442   1.364   1.209
 1190SOL     OW  880   2.630   1.144   1.023
 1190SOL    HW1  881   2.552   1.161   1.083
 1190SOL    HW2  882   2.664   1.231   0.987
 1191SOL     OW  883   2.712   0.798   1.823
 1191SOL    HW1  884   2.708   0.874   1.888
 1191SOL    HW2  885   2.734   0.834   1.732
 1193SOL     OW  886   2.548   1.161   1.803
 1193SOL    HW1  887   2.608   1.240   1.817
 1193SOL    HW2  888   2.462   1.192   1.762
 1194SOL     OW  889   2.197   1.435   1.061
 1194SOL    HW1  890   2.119   1.404   1.008
 1194SOL    HW2  891   2.255   1.493   1.004
 1195SOL     OW  892   3.322   1.505   1.339
 1195SOL    HW1  893   3.346   1.599   1.365
 1195SOL    HW2  894   3.306   1.451   1.421
 1198SOL     OW  895   2.093   1.713   0.483
 1198SOL    HW1  896   2.127   1.790   0.537
 1198SOL    HW2  897   2.137   1.713   0.393
 1199SOL     OW  898   2.989   1.341   1.690
 1199SOL    HW1  899   3.036   1.341   1.778
 1199SOL    HW2  900   2.941   1.254   1.679
 1201SOL     OW  901   2.102   1.091   0.886
 1201SOL    HW1  902   2.116   1.007   0.938
 1201SOL    HW2  903   2.047   1.155   0.941
 1202SOL     OW  904   2.482   1.786   1.439
 1202SOL    HW1  905   2.390   1.769   1.474
 1202SOL    HW2  906   2.510   1.878   1.465
 1210SOL     OW  907   1.975   0.737   1.597
 1210SOL    HW1  908   2.063   0.724   1.642
 1210SOL    HW2  909   1.962   0.834   1.575
 1211SOL     OW  910   2.475   1.365   0.726
 1211SOL    HW1  911   2.426   1.278   0.735
 1211SOL    HW2  912   2.452   1.408   0.639
 1212SOL     OW  913   3.155   1.228   1.423
 1212SOL    HW1  914   3.192   1.155   1.365
 1212SOL    HW2  915   3.207   1.233   1.508
 1214SOL     OW  916   2.059   0.976   1.264
 1214SOL    HW1  917   2.148   0.931   1.250
 1214SOL    HW2  918   1.986   0.911   1.245
 1216SOL     OW  919   3.049   1.792   1.616
 1216SOL    HW1  920   3.073   1.852   1.540
 1216SOL    HW2  921   3.056   1.697   1.586
 1225SOL     OW  922   2.835   0.890   1.572
 1225SOL    HW1  923   2.881   0.806   1.543
 1225SOL    HW2  924   2.779   0.924   1.497
 1229SOL     OW  925   1.992   1.821   1.571
 1229SOL    HW1  926   1.982   1.806   1.670
 1229SOL    HW2  927   1.906   1.857   1.535
 1235SOL     OW  928   2.213   1.801   0.853
 1235SOL    HW1  929   2.263   1.715   0.859
 1235SOL    HW2  930   2.278   1.878   0.850
 1237SOL     OW  931   3.089   1.550   1.506
 1237SOL    HW1  932   3.095   1.473   1.570
 1237SOL    HW2  933   3.037   1.524   1.426
 1240SOL     OW  934   2.323   1.266   1.727
 1240SOL    HW1  935   2.273   1.267   1.641
 1240SOL    HW2  936   2.260   1.248   1.803
 1246SOL     OW  937   2.111   1.785   1.241
 1246SOL    HW1  938   2.168   1.720   1.291
 1246SOL    HW2  939   2.095   1.752   1.148
 1247SOL     OW  940   2.802   1.698   0.904
 1247SOL    HW1  941   2.882   1.641   0.925
 1247SOL    HW2  942   2.753   1.658   0.827
 1252SOL     OW  943   2.750   1.514   1.195
 1252SOL    HW1  944   2.727   1.489   1.101
 1252SOL    HW2  945   2.811   1.445   1.234
 1254SOL     OW  946   2.665   1.402   0.924
 1254SOL    HW1  947   2.755   1.416   0.882
 1254SOL    HW2  948   2.594   1.404   0.853
 1261SOL     OW  949   3.089   1.570   0.793
 1261SOL    HW1  950   3.110   1.644   0.728
 1261SOL    HW2  951   3.157   1.570   0.866
 1277SOL     OW  952   2.926   1.347   1.340
 1277SOL    HW1  953   2.846   1.324   1.395
 1277SOL    HW2  954   3.009   1.321   1.389
 1278SOL     OW  955   3.454   1.629   1.625
 1278SOL    HW1  956   3.481   1.663   1.535
 1278SOL    HW2  957   3.533   1.591   1.671
 1279SOL     OW  958   2.973   1.195   1.100
 1279SOL    HW1  959   2.933   1.239   1.181
 1279SOL    HW2  960   2.932   1.232   1.017
 1282SOL     OW  961   2.842   1.116   1.719
 1282SOL    HW1  962   2.743   1.122   1.729
 1282SOL    HW2  963   2.865   1.036   1.663
 1284SOL     OW  964   2.272   0.813   1.251
 1284SOL    HW1  965   2.358   0.825   1.301
 1284SOL    HW2  966   2.230   0.726   1.278
 1286SOL     OW  967   1.926   1.564   1.331
 1286SOL    HW1  968   1.880   1.646   1.297
 1286SOL    HW2  969   2.024   1.583   1.340
 1290SOL     OW  970   3.134   1.445   1.142
 1290SOL    HW1  971   3.181   1.458   1.229
 1290SOL    HW2  972   3.068   1.371   1.151
 1292SOL     OW  973   2.216   1.510   1.329
 1292SOL    HW1  974   2.195   1.466   1.242
 1292SOL    HW2  975   2.313   1.536   1.332
 1293SOL     OW  976   2.264   0.751   1.598
 1293SOL    HW1  977   2.332   0.806   1.551
 1293SOL    HW2  978   2.304   0.663   1.625
 1297SOL     OW  979   2.435   0.870   1.029
 1297SOL    HW1  980   2.479   0.959   1.020
 1297SOL    HW2  981   2.372   0.870   1.106
 1301SOL     OW  982   1.899   1.310   1.282
 1301SOL    HW1  983   1.952   1.261   1.350
 1301SOL    HW2  984   1.921   1.408   1.287
 1307SOL     OW  985   2.842   1.573   1.700
 1307SOL    HW1  986   2.822   1.617   1.612
 1307SOL    HW2  987   2.881   1.482   1.684
 1308SOL     OW  988   3.721   1.518   1.605
 1308SOL    HW1  989   3.735   1.545   1.510
 1308SOL    HW2  990   3.804   1.540   1.658
 1309SOL     OW  991   2.212   0.898   1.804
 1309SOL    HW1  992   2.288   0.942   1.852
 1309SOL    HW2  993   2.247   0.851   1.722
 1312SOL     OW  994   2.930   1.333   0.849
 1312SOL    HW1  995   2.937   1.249   0.794
 1312SOL    HW2  996   2.992   1.402   0.813
 1318SOL     OW  997   1.950   1.801   0.927
 1318SOL    HW1  998   1.908   1.715   0.900
 1318SOL    HW2  999   2.044   1.804   0.893
 1319SOL     OW 1000   2.366   1.568   0.910
 1319SOL    HW1 1001   2.432   1.642   0.919
 1319SOL    HW2 1002   2.410   1.489   0.868
 1322SOL     OW 1003   2.051   0.520   1.722
 1322SOL    HW1 1004   2.110   0.480   1.652
 1322SOL    HW2 1005   1.993   0.591   1.681
 1323SOL     OW 1006   3.231   0.950   1.660
 1323SOL    HW1 1007   3.270   1.039   1.680
 1323SOL    HW2 1008   3.241   0.930   1.563
 1326SOL     OW 1009   2.114   1.564   1.744
 1326SOL    HW1 1010   2.084   1.621   1.820
 1326SOL    HW2 1011   2.107   1.467   1.770
 1328SOL     OW 1012   2.792   1.678   1.465
 1328SOL    HW1 1013   2.768   1.660   1.370
 1328SOL    HW2 1014   2.822   1.772   1.475
 1330SOL     OW 1015   2.021   1.137   1.466
 1330SOL    HW1 1016   2.043   1.076   1.542
 1330SOL    HW2 1017   2.031   1.088   1.380
 1334SOL     OW 1018   3.114   1.731   1.128
 1334SOL    HW1 1019   3.198   1.736   1.074
 1334SOL    HW2 1020   3.091   1.635   1.146
 1335SOL     OW 1021   1.945   1.258   1.022
 1335SOL    HW1 1022   1.940   1.257   1.122
 1335SOL    HW2 1023   1.862   1.217   0.984
 1336SOL     OW 1024   2.550   1.662   1.716
 1336SOL    HW1 1025   2.494   1.743   1.725
 1336SOL    HW2 1026   2.602   1.666   1.630
 1340SOL     OW 1027   1.992   1.794   1.851
 1340SOL    HW1 1028   1.951   1.720   1.904
 1340SOL    HW2 1029   2.056   1.845   1.909
 1342SOL     OW 1030   2.692   1.273   1.422
 1342SOL    HW1 1031   2.687   1.306   1.517
 1342SOL    HW2 1032   2.606   1.292   1.376
 1344SOL     OW 1033   3.512   1.720   1.394
 1344SOL    HW1 1034   3.565   1.730   1.310
 1344SOL    HW2 1035   3.485   1.810   1.428
 1348SOL     OW 1036   2.684   1.002   1.372
 1348SOL    HW1 1037   2.724   1.001   1.280
 1348SOL    HW2 1038   2.694   1.094   1.412
 1351SOL     OW 1039   2.234   1.288   1.490
 1351SOL    HW1 1040   2.221   1.381   1.456
 1351SOL    HW2 1041   2.150   1.236   1.477
 1358SOL     OW 1042   1.967   1.013   1.726
 1358SOL    HW1 1043   1.890   0.980   1.780
 1358SOL    HW2 1044   2.052   0.983   1.768
 1363SOL     OW 1045   2.475   0.842   1.431
 1363SOL    HW1 1046   2.531   0.923   1.414
 1363SOL    HW2 1047   2.534   0.762   1.434
 1364SOL     OW 1048   3.355   1.767   0.959
 1364SOL    HW1 1049   3.388   1.831   0.890
 1364SOL    HW2 1050   3.421   1.761   1.034
 1365SOL     OW 1051   2.578   0.565   1.708
 1365SOL    HW1 1052   2.597   0.630   1.782
 1365SOL    HW2 1053   2.638   0.485   1.717
 1366SOL     OW 1054   3.312   1.220   1.633
 1366SOL    HW1 1055   3.303   1.210   1.732
 1366SOL    HW2 1056   3.408   1.213   1.607
 1367SOL     OW 1057   2.252   1.741   1.560
 1367SOL    HW1 1058   2.161   1.782   1.558
 1367SOL    HW2 1059   2.245   1.647   1.592
 1374SOL     OW 1060   2.523   1.790   0.953
 1374SOL    HW1 1061   2.477   1.878   0.940
 1374SOL    HW2 1062   2.622   1.802   0.946
 1378SOL     OW 1063   2.083   1.314   1.844
 1378SOL    HW1 1064   2.018   1.241   1.823
 1378SOL    HW2 1065   2.087   1.328   1.942
 1380SOL     OW 1066   2.534   1.391   1.624
 1380SOL    HW1 1067   2.456   1.341   1.662
 1380SOL    HW2 1068   2.531   1.486   1.655
 1385SOL     OW 1069   2.674   1.586   0.687
 1385SOL    HW1 1070   2.706   1.596   0.593
 1385SOL    HW2 1071   2.595   1.524   0.689
 1389SOL     OW 1072   2.480   1.567   1.284
 1389SOL    HW1 1073   2.475   1.649   1.341
 1389SOL    HW2 1074   2.569   1.564   1.239
 1395SOL     OW 1075   2.092   0.628   1.975
 1395SOL    HW1 1076   1.999   0.626   2.012
 1395SOL    HW2 1077   2.093   0.589   1.883
 1398SOL     OW 1078   2.431   1.275   3.027
 1398SOL    HW1 1079   2.338   1.268   2.990
 1398SOL    HW2 1080   2.442   1.364   3.071
 1399SOL     OW 1081   3.417   1.511   2.565
 1399SOL    HW1 1082   3.360   1.495   2.646
 1399SOL    HW2 1083   3.358   1.521   2.485
 1400SOL     OW 1084   2.997   0.703   2.579
 1400SOL    HW1 1085   3.054   0.781   2.554
 1400SOL    HW2 1086   2.937   0.729   2.655
 1402SOL     OW 1087   2.630   1.144   2.885
 1402SOL    HW1 1088   2.552   1.161   2.945
 1402SOL    HW2 1089   2.664   1.231   2.849
 1404SOL     OW 1090   2.547   1.012   2.527
 1404SOL    HW1 1091   2.616   0.996   2.597
 1404SOL    HW2 1092   2.474   1.069   2.565
 1406SOL     OW 1093   2.197   1.435   2.923
 1406SOL    HW1 1094   2.119   1.404   2.870
 1406SOL    HW2 1095   2.255   1.493   2.866
 1407SOL     OW 1096   3.322   1.505   3.201
 1407SOL    HW1 1097   3.346   1.599   3.227
 1407SOL    HW2 1098   3.306   1.451   3.283
 1410SOL     OW 1099   2.093   1.713   2.345
 1410SOL    HW1 1100   2.127   1.790   2.399
 1410SOL    HW2 1101   2.137   1.713   2.255
 1411SOL     OW 1102   2.989   1.341   3.552
 1411SOL    HW1 1103   3.036   1.341   3.640
 1411SOL    HW2 1104   2.941   1.254   3.541
 1412SOL     OW 1105   2.092   1.434   2.400
 1412SOL    HW1 1106   2.066   1.530   2.400
 1412SOL    HW2 1107   2.021   1.380   2.445
 1413SOL     OW 1108   2.102   1.091   2.748
 1413SOL    HW1 1109   2.116   1.007   2.800
 1413SOL    HW2 1110   2.047   1.155   2.803
 1414SOL     OW 1111   2.482   1.786   3.301
 1414SOL    HW1 1112   2.390   1.769   3.336
 1414SOL    HW2 1113   2.510   1.878   3.327
 1415SOL     OW 1114   2.468   0.964   1.985
 1415SOL    HW1 1115   2.475   1.048   1.931
 1415SOL    HW2 1116   2.514   0.977   2.073
 1417SOL     OW 1117   1.984   0.643   2.425
 1417SOL    HW1 1118   1.939   0.555   2.442
 1417SOL    HW2 1119   1.983   0.697   2.509
 1418SOL     OW 1120   3.704   1.767   2.221
 1418SOL    HW1 1121   3.758   1.738   2.301
 1418SOL    HW2 1122   3.734   1.857   2.192
 1419SOL     OW 1123   1.889   1.596   1.979
 1419SOL    HW1 1124   1.870   1.500   2.000
 1419SOL    HW2 1125   1.856   1.654   2.054
 1421SOL     OW 1126   3.503   1.108   2.294
 1421SOL    HW1 1127   3.589   1.110   2.242
 1421SOL    HW2 1128   3.517   1.155   2.382
 1423SOL     OW 1129   2.475   1.365   2.588
 1423SOL    HW1 1130   2.426   1.278   2.597
 1423SOL    HW2 1131   2.452   1.408   2.501
 1424SOL     OW 1132   3.155   1.228   3.285
 1424SOL    HW1 1133   3.192   1.155   3.227
 1424SOL    HW2 1134   3.207   1.233   3.370
 1426SOL     OW 1135   2.059   0.976   3.126
 1426SOL    HW1 1136   2.148   0.931   3.112
 1426SOL    HW2 1137   1.986   0.911   3.107
 1427SOL     OW 1138   3.387   0.999   2.052
 1427SOL    HW1 1139   3.324   0.923   2.065
 1427SOL    HW2 1140   3.435   1.017   2.138
 1428SOL     OW 1141   3.049   1.792   3.478
 1428SOL    HW1 1142   3.073   1.852   3.402
 1428SOL    HW2 1143   3.056   1.697   3.448
 1430SOL     OW 1144   3.328   1.417   2.815
 1430SOL    HW1 1145   3.269   1.423   2.895
 1430SOL    HW2 1146   3.313   1.329   2.769
 1431SOL     OW 1147   3.529   1.714   2.434
 1431SOL    HW1 1148   3.488   1.691   2.346
 1431SOL    HW2 1149   3.511   1.640   2.499
 1432SOL     OW 1150   2.460   0.729   2.132
 1432SOL    HW1 1151   2.484   0.798   2.064
 1432SOL    HW2 1152   2.382   0.762   2.186
 1434SOL     OW 1153   3.438   1.662   2.169
 1434SOL    HW1 1154   3.527   1.708   2.172
 1434SOL    HW2 1155   3.417   1.638   2.074
 1439SOL     OW 1156   2.903   0.701   2.291
 1439SOL    HW1 1157   2.929   0.697   2.387
 1439SOL    HW2 1158   2.818   0.650   2.277
 1440SOL     OW 1159   1.938   0.811   2.651
 1440SOL    HW1 1160   2.037   0.799   2.660
 1440SOL    HW2 1161   1.914   0.906   2.672
 1441SOL     OW 1162   1.992   1.821   3.433
 1441SOL    HW1 1163   1.982   1.806   3.532
 1441SOL    HW2 1164   1.906   1.857   3.397
 1444SOL     OW 1165   3.224   1.144   2.407
 1444SOL    HW1 1166   3.307   1.115   2.359
 1444SOL    HW2 1167   3.175   1.211   2.351
 1446SOL     OW 1168   2.870   1.456   2.339
 1446SOL    HW1 1169   2.824   1.528   2.287
 1446SOL    HW2 1170   2.866   1.476   2.437
 1447SOL     OW 1171   2.213   1.801   2.715
 1447SOL    HW1 1172   2.263   1.715   2.721
 1447SOL    HW2 1173   2.278   1.878   2.712
 1449SOL     OW 1174   3.089   1.550   3.368
 1449SOL    HW1 1175   3.095   1.473   3.432
 1449SOL    HW2 1176   3.037   1.524   3.288
 1450SOL     OW 1177   2.183   0.943   2.104
 1450SOL    HW1 1178   2.265   0.982   2.062
 1450SOL    HW2 1179   2.156   0.861   2.055
 1452SOL     OW 1180   2.323   1.266   3.589
 1452SOL    HW1 1181   2.273   1.267   3.503
 1452SOL    HW2 1182   2.260   1.248   3.665
 1453SOL     OW 1183   2.973   1.776   2.099
 1453SOL    HW1 1184   2.913   1.714   2.149
 1453SOL    HW2 1185   3.004   1.732   2.014
 1455SOL     OW 1186   3.494   1.377   1.943
 1455SOL    HW1 1187   3.462   1.471   1.933
 1455SOL    HW2 1188   3.418   1.314   1.931
 1456SOL     OW 1189   2.326   1.743   2.185
 1456SOL    HW1 1190   2.359   1.782   2.271
 1456SOL    HW2 1191   2.402   1.736   2.120
 1458SOL     OW 1192   2.111   1.785   3.103
 1458SOL    HW1 1193   2.168   1.720   3.153
 1458SOL    HW2 1194   2.095   1.752   3.010
 1459SOL     OW 1195   2.802   1.698   2.766
 1459SOL    HW1 1196   2.882   1.641   2.787
 1459SOL    HW2 1197   2.753   1.658   2.689
 1460SOL     OW 1198   2.244   0.700   2.342
 1460SOL    HW1 1199   2.289   0.610   2.339
 1460SOL    HW2 1200   2.150   0.689   2.375
 1464SOL     OW 1201   2.750   1.514   3.057
 1464SOL    HW1 1202   2.727   1.489   2.963
 1464SOL    HW2 1203   2.811   1.445   3.096
 1466SOL     OW 1204   2.665   1.402   2.786
 1466SOL    HW1 1205   2.755   1.416   2.744
 1466SOL    HW2 1206   2.594   1.404   2.715
 1469SOL     OW 1207   3.296   1.188   1.903
 1469SOL    HW1 1208   3.328   1.112   1.960
 1469SOL    HW2 1209   3.204   1.215   1.933
 1473SOL     OW 1210   3.089   1.570   2.655
 1473SOL    HW1 1211   3.110   1.644   2.590
 1473SOL    HW2 1212   3.157   1.570   2.728
 1474SOL     OW 1213   2.321   1.152   2.603
 1474SOL    HW1 1214   2.250   1.125   2.668
 1474SOL    HW2 1215   2.295   1.124   2.510
 1475SOL     OW 1216   3.133   1.797   2.453
 1475SOL    HW1 1217   3.177   1.861   2.389
 1475SOL    HW2 1218   3.083   1.849   2.523
 1481SOL     OW 1219   3.291   1.173   2.729
 1481SOL    HW1 1220   3.236   1.089   2.722
 1481SOL    HW2 1221   3.317   1.202   2.637
 1484SOL     OW 1222   2.350   1.385   2.036
 1484SOL    HW1 1223   2.263   1.370   2.083
 1484SOL    HW2 1224   2.333   1.411   1.941
 1485SOL     OW 1225   3.526   1.280   2.519
 1485SOL    HW1 1226   3.625   1.288   2.533
 1485SOL    HW2 1227   3.481   1.364   2.550
 1489SOL     OW 1228   2.926   1.347   3.202
 1489SOL    HW1 1229   2.846   1.324   3.257
 1489SOL    HW2 1230   3.009   1.321   3.251
 1491SOL     OW 1231   2.973   1.195   2.962
 1491SOL    HW1 1232   2.933   1.239   3.043
 1491SOL    HW2 1233   2.932   1.232   2.879
 1495SOL     OW 1234   2.567   1.050   2.230
 1495SOL    HW1 1235   2.553   1.057   2.329
 1495SOL    HW2 1236   2.651   0.999   2.212
 1496SOL     OW 1237   2.272   0.813   3.113
 1496SOL    HW1 1238   2.358   0.825   3.163
 1496SOL    HW2 1239   2.230   0.726   3.140
 1498SOL     OW 1240   1.926   1.564   3.193
 1498SOL    HW1 1241   1.880   1.646   3.159
 1498SOL    HW2 1242   2.024   1.583   3.202
 1499SOL     OW 1243   2.229   1.100   2.363
 1499SOL    HW1 1244   2.222   1.183   2.307
 1499SOL    HW2 1245   2.233   1.020   2.303
 1500SOL     OW 1246   2.428   0.537   2.727
 1500SOL    HW1 1247   2.440   0.603   2.653
 1500SOL    HW2 1248   2.474   0.571   2.810
 1501SOL     OW 1249   3.114   1.348   2.250
 1501SOL    HW1 1250   3.164   1.425   2.290
 1501SOL    HW2 1251   3.019   1.350   2.282
 1502SOL     OW 1252   3.134   1.445   3.004
 1502SOL    HW1 1253   3.181   1.458   3.091
 1502SOL    HW2 1254   3.068   1.371   3.013
 1504SOL     OW 1255   2.216   1.510   3.191
 1504SOL    HW1 1256   2.195   1.466   3.104
 1504SOL    HW2 1257   2.313   1.536   3.194
 1509SOL     OW 1258   2.435   0.870   2.891
 1509SOL    HW1 1259   2.479   0.959   2.882
 1509SOL    HW2 1260   2.372   0.870   2.968
 1513SOL     OW 1261   1.899   1.310   3.144
 1513SOL    HW1 1262   1.952   1.261   3.212
 1513SOL    HW2 1263   1.921   1.408   3.149
 1514SOL     OW 1264   2.594   0.634   2.926
 1514SOL    HW1 1265   2.653   0.608   2.850
 1514SOL    HW2 1266   2.566   0.730   2.915
 1518SOL     OW 1267   2.885   0.766   2.828
 1518SOL    HW1 1268   2.900   0.787   2.924
 1518SOL    HW2 1269   2.855   0.671   2.819
 1519SOL     OW 1270   2.842   1.573   3.562
 1519SOL    HW1 1271   2.822   1.617   3.474
 1519SOL    HW2 1272   2.881   1.482   3.546
 1523SOL     OW 1273   3.165   0.838   1.904
 1523SOL    HW1 1274   3.199   0.745   1.919
 1523SOL    HW2 1275   3.183   0.865   1.809
 1524SOL     OW 1276   2.930   1.333   2.711
 1524SOL    HW1 1277   2.937   1.249   2.656
 1524SOL    HW2 1278   2.992   1.402   2.675
 1525SOL     OW 1279   2.181   0.810   2.811
 1525SOL    HW1 1280   2.274   0.846   2.816
 1525SOL    HW2 1281   2.175   0.725   2.863
 1529SOL     OW 1282   1.870   1.326   2.062
 1529SOL    HW1 1283   1.777   1.347   2.031
 1529SOL    HW2 1284   1.880   1.227   2.075
 1530SOL     OW 1285   1.950   1.801   2.789
 1530SOL    HW1 1286   1.908   1.715   2.762
 1530SOL    HW2 1287   2.044   1.804   2.755
 1531SOL     OW 1288   2.366   1.568   2.772
 1531SOL    HW1 1289   2.432   1.642   2.781
 1531SOL    HW2 1290   2.410   1.489   2.730
 1532SOL     OW 1291   2.864   0.796   3.100
 1532SOL    HW1 1292   2.905   0.764   3.186
 1532SOL    HW2 1293   2.768   0.769   3.097
 1536SOL     OW 1294   2.677   0.572   2.187
 1536SOL    HW1 1295   2.684   0.483   2.141
 1536SOL    HW2 1296   2.583   0.606   2.179
 1538SOL     OW 1297   2.114   1.564   3.606
 1538SOL    HW1 1298   2.084   1.621   3.682
 1538SOL    HW2 1299   2.107   1.467   3.632
 1540SOL     OW 1300   2.792   1.678   3.327
 1540SOL    HW1 1301   2.768   1.660   3.232
 1540SOL    HW2 1302   2.822   1.772   3.337
 1541SOL     OW 1303   2.335   0.500   2.053
 1541SOL    HW1 1304   2.396   0.580   2.057
 1541SOL    HW2 1305   2.240   0.531   2.060
 1542SOL     OW 1306   2.021   1.137   3.328
 1542SOL    HW1 1307   2.043   1.076   3.404
 1542SOL    HW2 1308   2.031   1.088   3.242
 1543SOL     OW 1309   3.209   1.059   3.096
 1543SOL    HW1 1310   3.233   0.996   3.022
 1543SOL    HW2 1311   3.119   1.099   3.078
 1544SOL     OW 1312   3.164   0.855   2.171
 1544SOL    HW1 1313   3.078   0.824   2.213
 1544SOL    HW2 1314   3.160   0.841   2.072
 1545SOL     OW 1315   3.621   1.747   3.016
 1545SOL    HW1 1316   3.682   1.777   2.943
 1545SOL    HW2 1317   3.583   1.658   2.994
 1546SOL     OW 1318   3.114   1.731   2.990
 1546SOL    HW1 1319   3.198   1.736   2.936
 1546SOL    HW2 1320   3.091   1.635   3.008
 1547SOL     OW 1321   1.945   1.258   2.884
 1547SOL    HW1 1322   1.940   1.257   2.984
 1547SOL    HW2 1323   1.862   1.217   2.846
 1548SOL     OW 1324   2.550   1.662   3.578
 1548SOL    HW1 1325   2.494   1.743   3.587
 1548SOL    HW2 1326   2.602   1.666   3.492
 1550SOL     OW 1327   3.250   1.573   2.339
 1550SOL    HW1 1328   3.317   1.585   2.265
 1550SOL    HW2 1329   3.210   1.662   2.362
 1551SOL     OW 1330   1.992   1.794   3.713
 1551SOL    HW1 1331   1.951   1.720   3.766
 1551SOL    HW2 1332   2.056   1.845   3.771
 1552SOL     OW 1333   3.142   0.927   2.534
 1552SOL    HW1 1334   3.202   0.846   2.536
 1552SOL    HW2 1335   3.182   0.996   2.474
 1553SOL     OW 1336   2.692   1.273   3.284
 1553SOL    HW1 1337   2.687   1.306   3.379
 1553SOL    HW2 1338   2.606   1.292   3.238
 1554SOL     OW 1339   2.534   1.616   2.016
 1554SOL    HW1 1340   2.543   1.626   1.917
 1554SOL    HW2 1341   2.494   1.527   2.037
 1555SOL     OW 1342   3.512   1.720   3.256
 1555SOL    HW1 1343   3.565   1.730   3.172
 1555SOL    HW2 1344   3.485   1.810   3.290
 1558SOL     OW 1345   3.056   1.612   1.893
 1558SOL    HW1 1346   3.062   1.519   1.930
 1558SOL    HW2 1347   2.997   1.612   1.813
 1559SOL     OW 1348   2.684   1.002   3.234
 1559SOL    HW1 1349   2.724   1.001   3.142
 1559SOL    HW2 1350   2.694   1.094   3.274
 1560SOL     OW 1351   2.778   0.910   2.153
 1560SOL    HW1 1352   2.841   0.948   2.085
 1560SOL    HW2 1353   2.818   0.827   2.192
 1561SOL     OW 1354   3.366   1.607   1.906
 1561SOL    HW1 1355   3.274   1.644   1.913
 1561SOL    HW2 1356   3.404   1.627   1.816
 1562SOL     OW 1357   2.234   1.288   3.352
 1562SOL    HW1 1358   2.221   1.381   3.318
 1562SOL    HW2 1359   2.150   1.236   3.339
 1564SOL     OW 1360   2.901   1.098   2.558
 1564SOL    HW1 1361   2.831   1.051   2.612
 1564SOL    HW2 1362   2.960   1.030   2.515
 1566SOL     OW 1363   2.452   1.487   2.353
 1566SOL    HW1 1364   2.494   1.429   2.283
 1566SOL    HW2 1365   2.408   1.566   2.309
 1568SOL     OW 1366   2.117   1.348   2.152
 1568SOL    HW1 1367   2.021   1.349   2.125
 1568SOL    HW2 1368   2.129   1.401   2.236
 1574SOL     OW 1369   3.045   1.335   1.981
 1574SOL    HW1 1370   2.946   1.324   1.983
 1574SOL    HW2 1371   3.079   1.350   2.074
 1575SOL     OW 1372   2.475   0.842   3.293
 1575SOL    HW1 1373   2.531   0.923   3.276
 1575SOL    HW2 1374   2.534   0.762   3.296
 1576SOL     OW 1375   3.355   1.767   2.821
 1576SOL    HW1 1376   3.388   1.831   2.752
 1576SOL    HW2 1377   3.421   1.761   2.896
 1579SOL     OW 1378   2.252   1.741   3.422
 1579SOL    HW1 1379   2.161   1.782   3.420
 1579SOL    HW2 1380   2.245   1.647   3.454
 1582SOL     OW 1381   2.456   0.745   2.514
 1582SOL    HW1 1382   2.506   0.830   2.495
 1582SOL    HW2 1383   2.368   0.747   2.466
 1585SOL     OW 1384   2.721   1.374   1.878
 1585SOL    HW1 1385   2.675   1.389   1.966
 1585SOL    HW2 1386   2.765   1.459   1.848
 1586SOL     OW 1387   2.523   1.790   2.815
 1586SOL    HW1 1388   2.477   1.878   2.802
 1586SOL    HW2 1389   2.622   1.802   2.808
 1587SOL     OW 1390   2.721   0.956   2.723
 1587SOL    HW1 1391   2.775   0.887   2.771
 1587SOL    HW2 1392   2.689   1.025   2.789
 1588SOL     OW 1393   2.945   0.984   1.949
 1588SOL    HW1 1394   2.922   1.037   1.867
 1588SOL    HW2 1395   3.026   0.928   1.930
 1589SOL     OW 1396   3.723   1.569   2.713
 1589SOL    HW1 1397   3.652   1.557   2.643
 1589SOL    HW2 1398   3.724   1.490   2.773
 1590SOL     OW 1399   2.083   1.314   3.706
 1590SOL    HW1 1400   2.018   1.241   3.685
 1590SOL    HW2 1401   2.087   1.328   3.804
 1591SOL     OW 1402   1.941   1.240   2.515
 1591SOL    HW1 1403   1.940   1.193   2.603
 1591SOL    HW2 1404   2.023   1.212   2.464
 1592SOL     OW 1405   2.534   1.391   3.486
 1592SOL    HW1 1406   2.456   1.341   3.524
 1592SOL    HW2 1407   2.531   1.486   3.517
 1594SOL     OW 1408   2.290   0.424   2.382
 1594SOL    HW1 1409   2.320   0.352   2.320
 1594SOL    HW2 1410   2.251   0.384   2.465
 1595SOL     OW 1411   3.567   1.487   2.966
 1595SOL    HW1 1412   3.474   1.462   2.939
 1595SOL    HW2 1413   3.593   1.437   3.048
 1597SOL     OW 1414   2.674   1.586   2.549
 1597SOL    HW1 1415   2.706   1.596   2.455
 1597SOL    HW2 1416   2.595   1.524   2.551
 1600SOL     OW 1417   2.632   1.330   2.163
 1600SOL    HW1 1418   2.586   1.243   2.180
 1600SOL    HW2 1419   2.723   1.327   2.204
 1601SOL     OW 1420   2.480   1.567   3.146
 1601SOL    HW1 1421   2.475   1.649   3.203
 1601SOL    HW2 1422   2.569   1.564   3.101
 1605SOL     OW 1423   1.901   1.077   2.162
 1605SOL    HW1 1424   2.000   1.066   2.153
 1605SOL    HW2 1425   1.861   0.991   2.194
 1606SOL     OW 1426   2.737   1.646   2.199
 1606SOL    HW1 1427   2.660   1.611   2.145
 1606SOL    HW2 1428   2.705   1.717   2.261
 1614SOL     OW 1429   1.889   1.596   3.841
 1614SOL    HW1 1430   1.870   1.500   3.862
 1614SOL    HW2 1431   1.856   1.654   3.916
 1682SOL     OW 1432   2.087   2.137   0.996
 1682SOL    HW1 1433   2.122   2.120   1.088
 1682SOL    HW2 1434   1.999   2.092   0.984
 1683SOL     OW 1435   1.881   2.230   0.647
 1683SOL    HW1 1436   1.799   2.273   0.686
 1683SOL    HW2 1437   1.853   2.157   0.584
 1684SOL     OW 1438   2.431   3.137   1.165
 1684SOL    HW1 1439   2.338   3.130   1.128
 1684SOL    HW2 1440   2.442   3.226   1.209
 1686SOL     OW 1441   2.997   2.565   0.717
 1686SOL    HW1 1442   3.054   2.643   0.692
 1686SOL    HW2 1443   2.937   2.591   0.793
 1688SOL     OW 1444   2.630   3.006   1.023
 1688SOL    HW1 1445   2.552   3.023   1.083
 1688SOL    HW2 1446   2.664   3.093   0.987
 1689SOL     OW 1447   2.712   2.660   1.823
 1689SOL    HW1 1448   2.708   2.736   1.888
 1689SOL    HW2 1449   2.734   2.696   1.732
 1690SOL     OW 1450   2.547   2.874   0.665
 1690SOL    HW1 1451   2.616   2.858   0.735
 1690SOL    HW2 1452   2.474   2.931   0.703
 1691SOL     OW 1453   2.548   3.023   1.803
 1691SOL    HW1 1454   2.608   3.102   1.817
 1691SOL    HW2 1455   2.462   3.054   1.762
 1692SOL     OW 1456   2.197   3.297   1.061
 1692SOL    HW1 1457   2.119   3.266   1.008
 1692SOL    HW2 1458   2.255   3.355   1.004
 1694SOL     OW 1459   2.300   2.254   1.499
 1694SOL    HW1 1460   2.382   2.198   1.508
 1694SOL    HW2 1461   2.219   2.196   1.503
 1697SOL     OW 1462   2.989   3.203   1.690
 1697SOL    HW1 1463   3.036   3.203   1.778
 1697SOL    HW2 1464   2.941   3.116   1.679
 1699SOL     OW 1465   2.102   2.953   0.886
 1699SOL    HW1 1466   2.116   2.869   0.938
 1699SOL    HW2 1467   2.047   3.017   0.941
 1700SOL     OW 1468   2.482   3.648   1.439
 1700SOL    HW1 1469   2.390   3.631   1.474
 1700SOL    HW2 1470   2.510   3.740   1.465
 1702SOL     OW 1471   3.456   1.976   1.480
 1702SOL    HW1 1472   3.438   2.043   1.408
 1702SOL    HW2 1473   3.453   2.022   1.569
 1703SOL     OW 1474   1.984   2.505   0.563
 1703SOL    HW1 1475   1.939   2.417   0.580
 1703SOL    HW2 1476   1.983   2.559   0.647
 1708SOL     OW 1477   1.975   2.599   1.597
 1708SOL    HW1 1478   2.063   2.586   1.642
 1708SOL    HW2 1479   1.962   2.696   1.575
 1710SOL     OW 1480   3.155   3.090   1.423
 1710SOL    HW1 1481   3.192   3.017   1.365
 1710SOL    HW2 1482   3.207   3.095   1.508
 1711SOL     OW 1483   2.671   1.866   0.502
 1711SOL    HW1 1484   2.711   1.957   0.493
 1711SOL    HW2 1485   2.571   1.874   0.508
 1712SOL     OW 1486   2.059   2.838   1.264
 1712SOL    HW1 1487   2.148   2.793   1.250
 1712SOL    HW2 1488   1.986   2.773   1.245
 1714SOL     OW 1489   3.049   3.654   1.616
 1714SOL    HW1 1490   3.073   3.714   1.540
 1714SOL    HW2 1491   3.056   3.559   1.586
 1715SOL     OW 1492   2.179   2.113   1.801
 1715SOL    HW1 1493   2.250   2.184   1.807
 1715SOL    HW2 1494   2.091   2.152   1.829
 1719SOL     OW 1495   3.143   2.207   0.944
 1719SOL    HW1 1496   3.057   2.157   0.931
 1719SOL    HW2 1497   3.205   2.153   1.000
 1721SOL     OW 1498   2.669   2.467   1.465
 1721SOL    HW1 1499   2.622   2.464   1.554
 1721SOL    HW2 1500   2.618   2.412   1.399
 1722SOL     OW 1501   3.256   2.331   1.674
 1722SOL    HW1 1502   3.236   2.374   1.762
 1722SOL    HW2 1503   3.334   2.269   1.683
 1723SOL     OW 1504   2.835   2.752   1.572
 1723SOL    HW1 1505   2.881   2.668   1.543
 1723SOL    HW2 1506   2.779   2.786   1.497
 1724SOL     OW 1507   2.853   2.272   1.242
 1724SOL    HW1 1508   2.776   2.306   1.296
 1724SOL    HW2 1509   2.819   2.221   1.163
 1726SOL     OW 1510   1.938   2.673   0.789
 1726SOL    HW1 1511   2.037   2.661   0.798
 1726SOL    HW2 1512   1.914   2.768   0.810
 1727SOL     OW 1513   1.992   3.683   1.571
 1727SOL    HW1 1514   1.982   3.668   1.670
 1727SOL    HW2 1515   1.906   3.719   1.535
 1729SOL     OW 1516   3.581   2.447   1.831
 1729SOL    HW1 1517   3.555   2.536   1.795
 1729SOL    HW2 1518   3.579   2.379   1.758
 1731SOL     OW 1519   2.412   2.058   0.885
 1731SOL    HW1 1520   2.407   2.053   0.985
 1731SOL    HW2 1521   2.414   2.154   0.856
 1735SOL     OW 1522   3.089   3.412   1.506
 1735SOL    HW1 1523   3.095   3.335   1.570
 1735SOL    HW2 1524   3.037   3.386   1.426
 1738SOL     OW 1525   2.323   3.128   1.727
 1738SOL    HW1 1526   2.273   3.129   1.641
 1738SOL    HW2 1527   2.260   3.110   1.803
 1740SOL     OW 1528   2.064   2.147   1.498
 1740SOL    HW1 1529   1.984   2.207   1.485
 1740SOL    HW2 1530   2.054   2.098   1.584
 1744SOL     OW 1531   2.111   3.647   1.241
 1744SOL    HW1 1532   2.168   3.582   1.291
 1744SOL    HW2 1533   2.095   3.614   1.148
 1746SOL     OW 1534   2.244   2.562   0.480
 1746SOL    HW1 1535   2.289   2.472   0.477
 1746SOL    HW2 1536   2.150   2.551   0.513
 1747SOL     OW 1537   3.409   2.084   1.729
 1747SOL    HW1 1538   3.404   2.121   1.821
 1747SOL    HW2 1539   3.337   2.015   1.717
 1749SOL     OW 1540   2.643   2.126   1.749
 1749SOL    HW1 1541   2.710   2.065   1.792
 1749SOL    HW2 1542   2.570   2.145   1.814
 1750SOL     OW 1543   2.750   3.376   1.195
 1750SOL    HW1 1544   2.727   3.351   1.101
 1750SOL    HW2 1545   2.811   3.307   1.234
 1751SOL     OW 1546   3.213   2.452   1.433
 1751SOL    HW1 1547   3.241   2.409   1.518
 1751SOL    HW2 1548   3.238   2.548   1.434
 1752SOL     OW 1549   2.665   3.264   0.924
 1752SOL    HW1 1550   2.755   3.278   0.882
 1752SOL    HW2 1551   2.594   3.266   0.853
 1753SOL     OW 1552   2.784   2.365   0.899
 1753SOL    HW1 1553   2.759   2.356   0.803
 1753SOL    HW2 1554   2.832   2.283   0.930
 1754SOL     OW 1555   2.401   1.926   0.512
 1754SOL    HW1 1556   2.320   1.927   0.570
 1754SOL    HW2 1557   2.404   2.009   0.457
 1757SOL     OW 1558   2.938   2.545   1.464
 1757SOL    HW1 1559   2.858   2.484   1.467
 1757SOL    HW2 1560   3.019   2.492   1.440
 1759SOL     OW 1561   2.321   3.014   0.741
 1759SOL    HW1 1562   2.250   2.987   0.806
 1759SOL    HW2 1563   2.295   2.986   0.648
 1762SOL     OW 1564   1.940   2.418   1.386
 1762SOL    HW1 1565   2.032   2.417   1.345
 1762SOL    HW2 1566   1.934   2.492   1.453
 1763SOL     OW 1567   2.423   2.084   1.147
 1763SOL    HW1 1568   2.461   2.000   1.184
 1763SOL    HW2 1569   2.335   2.103   1.191
 1764SOL     OW 1570   2.728   2.316   0.642
 1764SOL    HW1 1571   2.696   2.388   0.580
 1764SOL    HW2 1572   2.752   2.235   0.589
 1765SOL     OW 1573   2.879   1.901   0.753
 1765SOL    HW1 1574   2.807   1.906   0.684
 1765SOL    HW2 1575   2.855   1.832   0.822
 1767SOL     OW 1576   3.328   2.452   0.992
 1767SOL    HW1 1577   3.298   2.357   0.999
 1767SOL    HW2 1578   3.401   2.468   1.058
 1773SOL     OW 1579   3.616   3.085   1.588
 1773SOL    HW1 1580   3.707   3.046   1.575
 1773SOL    HW2 1581   3.624   3.181   1.612
 1774SOL     OW 1582   2.926   3.209   1.340
 1774SOL    HW1 1583   2.846   3.186   1.395
 1774SOL    HW2 1584   3.009   3.183   1.389
 1776SOL     OW 1585   2.973   3.057   1.100
 1776SOL    HW1 1586   2.933   3.101   1.181
 1776SOL    HW2 1587   2.932   3.094   1.017
 1778SOL     OW 1588   2.777   1.951   1.402
 1778SOL    HW1 1589   2.802   1.931   1.307
 1778SOL    HW2 1590   2.849   2.007   1.444
 1779SOL     OW 1591   2.842   2.978   1.719
 1779SOL    HW1 1592   2.743   2.984   1.729
 1779SOL    HW2 1593   2.865   2.898   1.663
 1781SOL     OW 1594   2.272   2.675   1.251
 1781SOL    HW1 1595   2.358   2.687   1.301
 1781SOL    HW2 1596   2.230   2.588   1.278
 1782SOL     OW 1597   3.136   2.248   1.262
 1782SOL    HW1 1598   3.157   2.322   1.326
 1782SOL    HW2 1599   3.047   2.265   1.219
 1783SOL     OW 1600   1.926   3.426   1.331
 1783SOL    HW1 1601   1.880   3.508   1.297
 1783SOL    HW2 1602   2.024   3.445   1.340
 1785SOL     OW 1603   2.428   2.399   0.865
 1785SOL    HW1 1604   2.440   2.465   0.791
 1785SOL    HW2 1605   2.474   2.433   0.948
 1787SOL     OW 1606   3.134   3.307   1.142
 1787SOL    HW1 1607   3.181   3.320   1.229
 1787SOL    HW2 1608   3.068   3.233   1.151
 1789SOL     OW 1609   2.216   3.372   1.329
 1789SOL    HW1 1610   2.195   3.328   1.242
 1789SOL    HW2 1611   2.313   3.398   1.332
 1790SOL     OW 1612   2.264   2.613   1.598
 1790SOL    HW1 1613   2.332   2.668   1.551
 1790SOL    HW2 1614   2.304   2.525   1.625
 1791SOL     OW 1615   3.449   2.641   1.670
 1791SOL    HW1 1616   3.357   2.679   1.665
 1791SOL    HW2 1617   3.509   2.688   1.605
 1792SOL     OW 1618   2.875   1.967   1.770
 1792SOL    HW1 1619   2.881   2.052   1.718
 1792SOL    HW2 1620   2.907   1.891   1.713
 1793SOL     OW 1621   2.366   1.912   1.740
 1793SOL    HW1 1622   2.324   1.855   1.670
 1793SOL    HW2 1623   2.300   1.981   1.772
 1794SOL     OW 1624   2.435   2.732   1.029
 1794SOL    HW1 1625   2.479   2.821   1.020
 1794SOL    HW2 1626   2.372   2.732   1.106
 1795SOL     OW 1627   3.222   2.724   1.045
 1795SOL    HW1 1628   3.147   2.724   0.979
 1795SOL    HW2 1629   3.259   2.632   1.054
 1797SOL     OW 1630   2.169   2.075   1.231
 1797SOL    HW1 1631   2.146   2.112   1.321
 1797SOL    HW2 1632   2.139   1.980   1.225
 1798SOL     OW 1633   1.899   3.172   1.282
 1798SOL    HW1 1634   1.952   3.123   1.350
 1798SOL    HW2 1635   1.921   3.270   1.287
 1799SOL     OW 1636   2.594   2.496   1.064
 1799SOL    HW1 1637   2.653   2.470   0.988
 1799SOL    HW2 1638   2.566   2.592   1.053
 1800SOL     OW 1639   3.590   2.797   1.854
 1800SOL    HW1 1640   3.544   2.790   1.765
 1800SOL    HW2 1641   3.528   2.841   1.920
 1801SOL     OW 1642   2.169   1.925   0.618
 1801SOL    HW1 1643   2.158   2.019   0.651
 1801SOL    HW2 1644   2.164   1.862   0.695
 1803SOL     OW 1645   2.885   2.628   0.966
 1803SOL    HW1 1646   2.900   2.649   1.062
 1803SOL    HW2 1647   2.855   2.533   0.957
 1804SOL     OW 1648   2.842   3.435   1.700
 1804SOL    HW1 1649   2.822   3.479   1.612
 1804SOL    HW2 1650   2.881   3.344   1.684
 1806SOL     OW 1651   2.212   2.760   1.804
 1806SOL    HW1 1652   2.288   2.804   1.852
 1806SOL    HW2 1653   2.247   2.713   1.722
 1810SOL     OW 1654   2.181   2.672   0.949
 1810SOL    HW1 1655   2.274   2.708   0.954
 1810SOL    HW2 1656   2.175   2.587   1.001
 1811SOL     OW 1657   2.201   2.371   1.006
 1811SOL    HW1 1658   2.149   2.288   0.989
 1811SOL    HW2 1659   2.278   2.376   0.942
 1812SOL     OW 1660   3.000   2.242   1.678
 1812SOL    HW1 1661   2.955   2.305   1.742
 1812SOL    HW2 1662   3.093   2.273   1.661
 1813SOL     OW 1663   3.022   2.069   1.477
 1813SOL    HW1 1664   3.022   2.133   1.554
 1813SOL    HW2 1665   3.050   2.117   1.394
 1816SOL     OW 1666   2.366   3.430   0.910
 1816SOL    HW1 1667   2.432   3.504   0.919
 1816SOL    HW2 1668   2.410   3.351   0.868
 1817SOL     OW 1669   2.864   2.658   1.238
 1817SOL    HW1 1670   2.905   2.626   1.324
 1817SOL    HW2 1671   2.768   2.631   1.235
 1818SOL     OW 1672   1.902   2.406   1.114
 1818SOL    HW1 1673   1.987   2.373   1.073
 1818SOL    HW2 1674   1.915   2.421   1.212
 1819SOL     OW 1675   2.051   2.382   1.722
 1819SOL    HW1 1676   2.110   2.342   1.652
 1819SOL    HW2 1677   1.993   2.453   1.681
 1820SOL     OW 1678   3.231   2.812   1.660
 1820SOL    HW1 1679   3.270   2.901   1.680
 1820SOL    HW2 1680   3.241   2.792   1.563
 1822SOL     OW 1681   3.519   2.466   1.206
 1822SOL    HW1 1682   3.481   2.397   1.268
 1822SOL    HW2 1683   3.601   2.430   1.162
 1823SOL     OW 1684   2.114   3.426   1.744
 1823SOL    HW1 1685   2.084   3.483   1.820
 1823SOL    HW2 1686   2.107   3.329   1.770
 1824SOL     OW 1687   2.533   2.326   1.269
 1824SOL    HW1 1688   2.499   2.237   1.239
 1824SOL    HW2 1689   2.559   2.380   1.189
 1825SOL     OW 1690   2.792   3.540   1.465
 1825SOL    HW1 1691   2.768   3.522   1.370
 1825SOL    HW2 1692   2.822   3.634   1.475
 1827SOL     OW 1693   2.021   2.999   1.466
 1827SOL    HW1 1694   2.043   2.938   1.542
 1827SOL    HW2 1695   2.031   2.950   1.380
 1828SOL     OW 1696   3.209   2.921   1.234
 1828SOL    HW1 1697   3.233   2.858   1.160
 1828SOL    HW2 1698   3.119   2.961   1.216
 1832SOL     OW 1699   1.945   3.120   1.022
 1832SOL    HW1 1700   1.940   3.119   1.122
 1832SOL    HW2 1701   1.862   3.079   0.984
 1833SOL     OW 1702   2.550   3.524   1.716
 1833SOL    HW1 1703   2.494   3.605   1.725
 1833SOL    HW2 1704   2.602   3.528   1.630
 1837SOL     OW 1705   1.992   3.656   1.851
 1837SOL    HW1 1706   1.951   3.582   1.904
 1837SOL    HW2 1707   2.056   3.707   1.909
 1839SOL     OW 1708   2.692   3.135   1.422
 1839SOL    HW1 1709   2.687   3.168   1.517
 1839SOL    HW2 1710   2.606   3.154   1.376
 1843SOL     OW 1711   2.125   2.188   0.720
 1843SOL    HW1 1712   2.046   2.239   0.686
 1843SOL    HW2 1713   2.116   2.173   0.818
 1845SOL     OW 1714   2.684   2.864   1.372
 1845SOL    HW1 1715   2.724   2.863   1.280
 1845SOL    HW2 1716   2.694   2.956   1.412
 1848SOL     OW 1717   2.234   3.150   1.490
 1848SOL    HW1 1718   2.221   3.243   1.456
 1848SOL    HW2 1719   2.150   3.098   1.477
 1851SOL     OW 1720   2.876   2.098   0.971
 1851SOL    HW1 1721   2.868   2.062   0.878
 1851SOL    HW2 1722   2.874   2.022   1.036
 1853SOL     OW 1723   3.571   2.247   1.381
 1853SOL    HW1 1724   3.644   2.316   1.385
 1853SOL    HW2 1725   3.599   2.172   1.322
 1855SOL     OW 1726   1.967   2.875   1.726
 1855SOL    HW1 1727   1.890   2.842   1.780
 1855SOL    HW2 1728   2.052   2.845   1.768
 1856SOL     OW 1729   2.534   2.065   1.489
 1856SOL    HW1 1730   2.624   2.049   1.449
 1856SOL    HW2 1731   2.542   2.070   1.588
 1858SOL     OW 1732   3.302   2.718   1.398
 1858SOL    HW1 1733   3.245   2.770   1.335
 1858SOL    HW2 1734   3.398   2.730   1.374
 1861SOL     OW 1735   2.475   2.704   1.431
 1861SOL    HW1 1736   2.531   2.785   1.414
 1861SOL    HW2 1737   2.534   2.624   1.434
 1863SOL     OW 1738   2.578   2.427   1.708
 1863SOL    HW1 1739   2.597   2.492   1.782
 1863SOL    HW2 1740   2.638   2.347   1.717
 1864SOL     OW 1741   3.312   3.082   1.633
 1864SOL    HW1 1742   3.303   3.072   1.732
 1864SOL    HW2 1743   3.408   3.075   1.607
 1865SOL     OW 1744   2.252   3.603   1.560
 1865SOL    HW1 1745   2.161   3.644   1.558
 1865SOL    HW2 1746   2.245   3.509   1.592
 1866SOL     OW 1747   3.536   2.745   1.254
 1866SOL    HW1 1748   3.509   2.656   1.217
 1866SOL    HW2 1749   3.537   2.813   1.181
 1868SOL     OW 1750   2.456   2.607   0.652
 1868SOL    HW1 1751   2.506   2.692   0.633
 1868SOL    HW2 1752   2.368   2.609   0.604
 1869SOL     OW 1753   3.639   2.204   1.642
 1869SOL    HW1 1754   3.622   2.235   1.548
 1869SOL    HW2 1755   3.555   2.167   1.680
 1870SOL     OW 1756   3.592   2.796   1.517
 1870SOL    HW1 1757   3.630   2.887   1.532
 1870SOL    HW2 1758   3.584   2.779   1.418
 1873SOL     OW 1759   2.721   2.818   0.861
 1873SOL    HW1 1760   2.775   2.749   0.909
 1873SOL    HW2 1761   2.689   2.887   0.927
 1876SOL     OW 1762   2.083   3.176   1.844
 1876SOL    HW1 1763   2.018   3.103   1.823
 1876SOL    HW2 1764   2.087   3.190   1.942
 1878SOL     OW 1765   2.534   3.253   1.624
 1878SOL    HW1 1766   2.456   3.203   1.662
 1878SOL    HW2 1767   2.531   3.348   1.655
 1879SOL     OW 1768   3.686   2.054   1.227
 1879SOL    HW1 1769   3.682   1.964   1.271
 1879SOL    HW2 1770   3.689   2.043   1.128
 1880SOL     OW 1771   2.290   2.286   0.520
 1880SOL    HW1 1772   2.320   2.214   0.458
 1880SOL    HW2 1773   2.251   2.246   0.603
 1882SOL     OW 1774   2.179   2.409   1.280
 1882SOL    HW1 1775   2.217   2.350   1.352
 1882SOL    HW2 1776   2.219   2.383   1.192
 1884SOL     OW 1777   3.286   2.076   1.112
 1884SOL    HW1 1778   3.338   2.011   1.167
 1884SOL    HW2 1779   3.237   2.139   1.173
 1885SOL     OW 1780   2.863   1.896   1.154
 1885SOL    HW1 1781   2.800   1.824   1.123
 1885SOL    HW2 1782   2.956   1.860   1.154
 1887SOL     OW 1783   2.480   3.429   1.284
 1887SOL    HW1 1784   2.475   3.511   1.341
 1887SOL    HW2 1785   2.569   3.426   1.239
 1889SOL     OW 1786   3.162   2.315   0.691
 1889SOL    HW1 1787   3.103   2.395   0.695
 1889SOL    HW2 1788   3.177   2.280   0.784
 1893SOL     OW 1789   2.092   2.490   1.975
 1893SOL    HW1 1790   1.999   2.488   2.012
 1893SOL    HW2 1791   2.093   2.451   1.883
 1894SOL     OW 1792   2.087   2.137   2.858
 1894SOL    HW1 1793   2.122   2.120   2.950
 1894SOL    HW2 1794   1.999   2.092   2.846
 1895SOL     OW 1795   1.881   2.230   2.509
 1895SOL    HW1 1796   1.799   2.273   2.548
 1895SOL    HW2 1797   1.853   2.157   2.446
 1896SOL     OW 1798   2.431   3.137   3.027
 1896SOL    HW1 1799   2.338   3.130   2.990
 1896SOL    HW2 1800   2.442   3.226   3.071
 1897SOL     OW 1801   3.417   3.373   2.565
 1897SOL    HW1 1802   3.360   3.357   2.646
 1897SOL    HW2 1803   3.358   3.383   2.485
 1898SOL     OW 1804   2.997   2.565   2.579
 1898SOL    HW1 1805   3.054   2.643   2.554
 1898SOL    HW2 1806   2.937   2.591   2.655
 1899SOL     OW 1807   3.617   2.469   2.093
 1899SOL    HW1 1808   3.605   2.456   1.994
 1899SOL    HW2 1809   3.587   2.388   2.142
 1900SOL     OW 1810   2.630   3.006   2.885
 1900SOL    HW1 1811   2.552   3.023   2.945
 1900SOL    HW2 1812   2.664   3.093   2.849
 1901SOL     OW 1813   2.712   2.660   3.685
 1901SOL    HW1 1814   2.708   2.736   3.750
 1901SOL    HW2 1815   2.734   2.696   3.594
 1902SOL     OW 1816   2.547   2.874   2.527
 1902SOL    HW1 1817   2.616   2.858   2.597
 1902SOL    HW2 1818   2.474   2.931   2.565
 1903SOL     OW 1819   2.548   3.023   3.665
 1903SOL    HW1 1820   2.608   3.102   3.679
 1903SOL    HW2 1821   2.462   3.054   3.624
 1904SOL     OW 1822   2.197   3.297   2.923
 1904SOL    HW1 1823   2.119   3.266   2.870
 1904SOL    HW2 1824   2.255   3.355   2.866
 1906SOL     OW 1825   2.300   2.254   3.361
 1906SOL    HW1 1826   2.382   2.198   3.370
 1906SOL    HW2 1827   2.219   2.196   3.365
 1907SOL     OW 1828   3.465   2.309   2.599
 1907SOL    HW1 1829   3.391   2.355   2.549
 1907SOL    HW2 1830   3.516   2.377   2.652
 1908SOL     OW 1831   2.093   3.575   2.345
 1908SOL    HW1 1832   2.127   3.652   2.399
 1908SOL    HW2 1833   2.137   3.575   2.255
 1910SOL     OW 1834   2.092   3.296   2.400
 1910SOL    HW1 1835   2.066   3.392   2.400
 1910SOL    HW2 1836   2.021   3.242   2.445
 1911SOL     OW 1837   2.102   2.953   2.748
 1911SOL    HW1 1838   2.116   2.869   2.800
 1911SOL    HW2 1839   2.047   3.017   2.803
 1913SOL     OW 1840   2.468   2.826   1.985
 1913SOL    HW1 1841   2.475   2.910   1.931
 1913SOL    HW2 1842   2.514   2.839   2.073
 1914SOL     OW 1843   3.456   1.976   3.342
 1914SOL    HW1 1844   3.438   2.043   3.270
 1914SOL    HW2 1845   3.453   2.022   3.431
 1915SOL     OW 1846   1.984   2.505   2.425
 1915SOL    HW1 1847   1.939   2.417   2.442
 1915SOL    HW2 1848   1.983   2.559   2.509
 1917SOL     OW 1849   1.889   3.458   1.979
 1917SOL    HW1 1850   1.870   3.362   2.000
 1917SOL    HW2 1851   1.856   3.516   2.054
 1918SOL     OW 1852   3.551   2.784   2.474
 1918SOL    HW1 1853   3.646   2.755   2.482
 1918SOL    HW2 1854   3.543   2.849   2.399
 1919SOL     OW 1855   3.503   2.970   2.294
 1919SOL    HW1 1856   3.589   2.972   2.242
 1919SOL    HW2 1857   3.517   3.017   2.382
 1920SOL     OW 1858   1.975   2.599   3.459
 1920SOL    HW1 1859   2.063   2.586   3.504
 1920SOL    HW2 1860   1.962   2.696   3.437
 1921SOL     OW 1861   2.475   3.227   2.588
 1921SOL    HW1 1862   2.426   3.140   2.597
 1921SOL    HW2 1863   2.452   3.270   2.501
 1922SOL     OW 1864   3.155   3.090   3.285
 1922SOL    HW1 1865   3.192   3.017   3.227
 1922SOL    HW2 1866   3.207   3.095   3.370
 1923SOL     OW 1867   2.671   1.866   2.364
 1923SOL    HW1 1868   2.711   1.957   2.355
 1923SOL    HW2 1869   2.571   1.874   2.370
 1924SOL     OW 1870   2.059   2.838   3.126
 1924SOL    HW1 1871   2.148   2.793   3.112
 1924SOL    HW2 1872   1.986   2.773   3.107
 1925SOL     OW 1873   3.387   2.861   2.052
 1925SOL    HW1 1874   3.324   2.785   2.065
 1925SOL    HW2 1875   3.435   2.879   2.138
 1927SOL     OW 1876   2.179   2.113   3.663
 1927SOL    HW1 1877   2.250   2.184   3.669
 1927SOL    HW2 1878   2.091   2.152   3.691
 1928SOL     OW 1879   3.328   3.279   2.815
 1928SOL    HW1 1880   3.269   3.285   2.895
 1928SOL    HW2 1881   3.313   3.191   2.769
 1930SOL     OW 1882   2.460   2.591   2.132
 1930SOL    HW1 1883   2.484   2.660   2.064
 1930SOL    HW2 1884   2.382   2.624   2.186
 1931SOL     OW 1885   3.143   2.207   2.806
 1931SOL    HW1 1886   3.057   2.157   2.793
 1931SOL    HW2 1887   3.205   2.153   2.862
 1933SOL     OW 1888   2.669   2.467   3.327
 1933SOL    HW1 1889   2.622   2.464   3.416
 1933SOL    HW2 1890   2.618   2.412   3.261
 1934SOL     OW 1891   3.256   2.331   3.536
 1934SOL    HW1 1892   3.236   2.374   3.624
 1934SOL    HW2 1893   3.334   2.269   3.545
 1935SOL     OW 1894   2.835   2.752   3.434
 1935SOL    HW1 1895   2.881   2.668   3.405
 1935SOL    HW2 1896   2.779   2.786   3.359
 1936SOL     OW 1897   2.853   2.272   3.104
 1936SOL    HW1 1898   2.776   2.306   3.158
 1936SOL    HW2 1899   2.819   2.221   3.025
 1937SOL     OW 1900   2.903   2.563   2.291
 1937SOL    HW1 1901   2.929   2.559   2.387
 1937SOL    HW2 1902   2.818   2.512   2.277
 1938SOL     OW 1903   1.938   2.673   2.651
 1938SOL    HW1 1904   2.037   2.661   2.660
 1938SOL    HW2 1905   1.914   2.768   2.672
 1940SOL     OW 1906   2.727   2.210   2.057
 1940SOL    HW1 1907   2.786   2.273   2.008
 1940SOL    HW2 1908   2.746   2.116   2.028
 1942SOL     OW 1909   3.224   3.006   2.407
 1942SOL    HW1 1910   3.307   2.977   2.359
 1942SOL    HW2 1911   3.175   3.073   2.351
 1943SOL     OW 1912   2.412   2.058   2.747
 1943SOL    HW1 1913   2.407   2.053   2.847
 1943SOL    HW2 1914   2.414   2.154   2.718
 1944SOL     OW 1915   2.870   3.318   2.339
 1944SOL    HW1 1916   2.824   3.390   2.287
 1944SOL    HW2 1917   2.866   3.338   2.437
 1945SOL     OW 1918   2.213   3.663   2.715
 1945SOL    HW1 1919   2.263   3.577   2.721
 1945SOL    HW2 1920   2.278   3.740   2.712
 1946SOL     OW 1921   3.657   2.928   2.735
 1946SOL    HW1 1922   3.595   2.913   2.659
 1946SOL    HW2 1923   3.605   2.939   2.820
 1948SOL     OW 1924   2.183   2.805   2.104
 1948SOL    HW1 1925   2.265   2.844   2.062
 1948SOL    HW2 1926   2.156   2.723   2.055
 1949SOL     OW 1927   3.320   2.597   2.590
 1949SOL    HW1 1928   3.315   2.532   2.665
 1949SOL    HW2 1929   3.400   2.656   2.603
 1950SOL     OW 1930   2.323   3.128   3.589
 1950SOL    HW1 1931   2.273   3.129   3.503
 1950SOL    HW2 1932   2.260   3.110   3.665
 1951SOL     OW 1933   2.973   3.638   2.099
 1951SOL    HW1 1934   2.913   3.576   2.149
 1951SOL    HW2 1935   3.004   3.594   2.014
 1952SOL     OW 1936   2.064   2.147   3.360
 1952SOL    HW1 1937   1.984   2.207   3.347
 1952SOL    HW2 1938   2.054   2.098   3.446
 1953SOL     OW 1939   3.494   3.239   1.943
 1953SOL    HW1 1940   3.462   3.333   1.933
 1953SOL    HW2 1941   3.418   3.176   1.931
 1954SOL     OW 1942   2.326   3.605   2.185
 1954SOL    HW1 1943   2.359   3.644   2.271
 1954SOL    HW2 1944   2.402   3.598   2.120
 1955SOL     OW 1945   3.262   1.969   2.288
 1955SOL    HW1 1946   3.238   1.932   2.198
 1955SOL    HW2 1947   3.361   1.985   2.292
 1956SOL     OW 1948   2.111   3.647   3.103
 1956SOL    HW1 1949   2.168   3.582   3.153
 1956SOL    HW2 1950   2.095   3.614   3.010
 1957SOL     OW 1951   2.802   3.560   2.766
 1957SOL    HW1 1952   2.882   3.503   2.787
 1957SOL    HW2 1953   2.753   3.520   2.689
 1958SOL     OW 1954   2.244   2.562   2.342
 1958SOL    HW1 1955   2.289   2.472   2.339
 1958SOL    HW2 1956   2.150   2.551   2.375
 1960SOL     OW 1957   2.476   1.984   1.979
 1960SOL    HW1 1958   2.574   1.962   1.986
 1960SOL    HW2 1959   2.445   1.967   1.886
 1961SOL     OW 1960   2.643   2.126   3.611
 1961SOL    HW1 1961   2.710   2.065   3.654
 1961SOL    HW2 1962   2.570   2.145   3.676
 1962SOL     OW 1963   2.750   3.376   3.057
 1962SOL    HW1 1964   2.727   3.351   2.963
 1962SOL    HW2 1965   2.811   3.307   3.096
 1963SOL     OW 1966   3.213   2.452   3.295
 1963SOL    HW1 1967   3.241   2.409   3.380
 1963SOL    HW2 1968   3.238   2.548   3.296
 1964SOL     OW 1969   2.665   3.264   2.786
 1964SOL    HW1 1970   2.755   3.278   2.744
 1964SOL    HW2 1971   2.594   3.266   2.715
 1965SOL     OW 1972   2.784   2.365   2.761
 1965SOL    HW1 1973   2.759   2.356   2.665
 1965SOL    HW2 1974   2.832   2.283   2.792
 1966SOL     OW 1975   2.401   1.926   2.374
 1966SOL    HW1 1976   2.320   1.927   2.432
 1966SOL    HW2 1977   2.404   2.009   2.319
 1967SOL     OW 1978   3.296   3.050   1.903
 1967SOL    HW1 1979   3.328   2.974   1.960
 1967SOL    HW2 1980   3.204   3.077   1.933
 1968SOL     OW 1981   2.159   1.897   2.033
 1968SOL    HW1 1982   2.208   1.981   2.012
 1968SOL    HW2 1983   2.221   1.832   2.078
 1969SOL     OW 1984   2.797   2.098   2.342
 1969SOL    HW1 1985   2.749   2.139   2.264
 1969SOL    HW2 1986   2.896   2.096   2.323
 1970SOL     OW 1987   2.938   2.545   3.326
 1970SOL    HW1 1988   2.858   2.484   3.329
 1970SOL    HW2 1989   3.019   2.492   3.302
 1971SOL     OW 1990   3.089   3.432   2.655
 1971SOL    HW1 1991   3.110   3.506   2.590
 1971SOL    HW2 1992   3.157   3.432   2.728
 1972SOL     OW 1993   2.321   3.014   2.603
 1972SOL    HW1 1994   2.250   2.987   2.668
 1972SOL    HW2 1995   2.295   2.986   2.510
 1973SOL     OW 1996   3.133   3.659   2.453
 1973SOL    HW1 1997   3.177   3.723   2.389
 1973SOL    HW2 1998   3.083   3.711   2.523
 1974SOL     OW 1999   2.894   2.411   1.878
 1974SOL    HW1 2000   2.853   2.493   1.839
 1974SOL    HW2 2001   2.958   2.437   1.951
 1975SOL     OW 2002   1.940   2.418   3.248
 1975SOL    HW1 2003   2.032   2.417   3.207
 1975SOL    HW2 2004   1.934   2.492   3.315
 1976SOL     OW 2005   2.423   2.084   3.009
 1976SOL    HW1 2006   2.461   2.000   3.046
 1976SOL    HW2 2007   2.335   2.103   3.053
 1977SOL     OW 2008   2.728   2.316   2.504
 1977SOL    HW1 2009   2.696   2.388   2.442
 1977SOL    HW2 2010   2.752   2.235   2.451
 1978SOL     OW 2011   2.879   1.901   2.615
 1978SOL    HW1 2012   2.807   1.906   2.546
 1978SOL    HW2 2013   2.855   1.832   2.684
 1979SOL     OW 2014   3.291   3.035   2.729
 1979SOL    HW1 2015   3.236   2.951   2.722
 1979SOL    HW2 2016   3.317   3.064   2.637
 1980SOL     OW 2017   3.328   2.452   2.854
 1980SOL    HW1 2018   3.298   2.357   2.861
 1980SOL    HW2 2019   3.401   2.468   2.920
 1981SOL     OW 2020   3.719   2.695   2.239
 1981SOL    HW1 2021   3.761   2.631   2.303
 1981SOL    HW2 2022   3.681   2.644   2.161
 1982SOL     OW 2023   2.350   3.247   2.036
 1982SOL    HW1 2024   2.263   3.232   2.083
 1982SOL    HW2 2025   2.333   3.273   1.941
 1983SOL     OW 2026   3.526   3.142   2.519
 1983SOL    HW1 2027   3.625   3.150   2.533
 1983SOL    HW2 2028   3.481   3.226   2.550
 1984SOL     OW 2029   3.252   2.437   1.940
 1984SOL    HW1 2030   3.198   2.416   2.021
 1984SOL    HW2 2031   3.343   2.396   1.949
 1986SOL     OW 2032   2.926   3.209   3.202
 1986SOL    HW1 2033   2.846   3.186   3.257
 1986SOL    HW2 2034   3.009   3.183   3.251
 1988SOL     OW 2035   2.973   3.057   2.962
 1988SOL    HW1 2036   2.933   3.101   3.043
 1988SOL    HW2 2037   2.932   3.094   2.879
 1989SOL     OW 2038   3.500   2.961   2.941
 1989SOL    HW1 2039   3.505   3.042   3.000
 1989SOL    HW2 2040   3.414   2.963   2.890
 1990SOL     OW 2041   2.777   1.951   3.264
 1990SOL    HW1 2042   2.802   1.931   3.169
 1990SOL    HW2 2043   2.849   2.007   3.306
 1991SOL     OW 2044   2.842   2.978   3.581
 1991SOL    HW1 2045   2.743   2.984   3.591
 1991SOL    HW2 2046   2.865   2.898   3.525
 1992SOL     OW 2047   2.567   2.912   2.230
 1992SOL    HW1 2048   2.553   2.919   2.329
 1992SOL    HW2 2049   2.651   2.861   2.212
 1993SOL     OW 2050   2.272   2.675   3.113
 1993SOL    HW1 2051   2.358   2.687   3.163
 1993SOL    HW2 2052   2.230   2.588   3.140
 1994SOL     OW 2053   3.136   2.248   3.124
 1994SOL    HW1 2054   3.157   2.322   3.188
 1994SOL    HW2 2055   3.047   2.265   3.081
 1995SOL     OW 2056   1.926   3.426   3.193
 1995SOL    HW1 2057   1.880   3.508   3.159
 1995SOL    HW2 2058   2.024   3.445   3.202
 1996SOL     OW 2059   2.229   2.962   2.363
 1996SOL    HW1 2060   2.222   3.045   2.307
 1996SOL    HW2 2061   2.233   2.882   2.303
 1997SOL     OW 2062   2.428   2.399   2.727
 1997SOL    HW1 2063   2.440   2.465   2.653
 1997SOL    HW2 2064   2.474   2.433   2.810
 1998SOL     OW 2065   3.114   3.210   2.250
 1998SOL    HW1 2066   3.164   3.287   2.290
 1998SOL    HW2 2067   3.019   3.212   2.282
 1999SOL     OW 2068   3.134   3.307   3.004
 1999SOL    HW1 2069   3.181   3.320   3.091
 1999SOL    HW2 2070   3.068   3.233   3.013
 2000SOL     OW 2071   3.444   2.501   2.334
 2000SOL    HW1 2072   3.413   2.562   2.407
 2000SOL    HW2 2073   3.494   2.553   2.265
 2001SOL     OW 2074   2.216   3.372   3.191
 2001SOL    HW1 2075   2.195   3.328   3.104
 2001SOL    HW2 2076   2.313   3.398   3.194
 2002SOL     OW 2077   2.264   2.613   3.460
 2002SOL    HW1 2078   2.332   2.668   3.413
 2002SOL    HW2 2079   2.304   2.525   3.487
 2004SOL     OW 2080   2.875   1.967   3.632
 2004SOL    HW1 2081   2.881   2.052   3.580
 2004SOL    HW2 2082   2.907   1.891   3.575
 2005SOL     OW 2083   2.366   1.912   3.602
 2005SOL    HW1 2084   2.324   1.855   3.532
 2005SOL    HW2 2085   2.300   1.981   3.634
 2006SOL     OW 2086   2.435   2.732   2.891
 2006SOL    HW1 2087   2.479   2.821   2.882
 2006SOL    HW2 2088   2.372   2.732   2.968
 2007SOL     OW 2089   3.222   2.724   2.907
 2007SOL    HW1 2090   3.147   2.724   2.841
 2007SOL    HW2 2091   3.259   2.632   2.916
 2008SOL     OW 2092   3.071   2.387   2.137
 2008SOL    HW1 2093   3.084   2.303   2.191
 2008SOL    HW2 2094   3.042   2.461   2.197
 2009SOL     OW 2095   2.169   2.075   3.093
 2009SOL    HW1 2096   2.146   2.112   3.183
 2009SOL    HW2 2097   2.139   1.980   3.087
 2010SOL     OW 2098   1.899   3.172   3.144
 2010SOL    HW1 2099   1.952   3.123   3.212
 2010SOL    HW2 2100   1.921   3.270   3.149
 2011SOL     OW 2101   2.594   2.496   2.926
 2011SOL    HW1 2102   2.653   2.470   2.850
 2011SOL    HW2 2103   2.566   2.592   2.915
 2013SOL     OW 2104   2.169   1.925   2.480
 2013SOL    HW1 2105   2.158   2.019   2.513
 2013SOL    HW2 2106   2.164   1.862   2.557
 2014SOL     OW 2107   3.484   2.229   2.236
 2014SOL    HW1 2108   3.486   2.153   2.300
 2014SOL    HW2 2109   3.436   2.306   2.276
 2015SOL     OW 2110   2.885   2.628   2.828
 2015SOL    HW1 2111   2.900   2.649   2.924
 2015SOL    HW2 2112   2.855   2.533   2.819
 2018SOL     OW 2113   2.212   2.760   3.666
 2018SOL    HW1 2114   2.288   2.804   3.714
 2018SOL    HW2 2115   2.247   2.713   3.584
 2019SOL     OW 2116   3.402   2.136   1.987
 2019SOL    HW1 2117   3.341   2.061   2.010
 2019SOL    HW2 2118   3.424   2.188   2.070
 2020SOL     OW 2119   3.165   2.700   1.904
 2020SOL    HW1 2120   3.199   2.607   1.919
 2020SOL    HW2 2121   3.183   2.727   1.809
 2021SOL     OW 2122   2.930   3.195   2.711
 2021SOL    HW1 2123   2.937   3.111   2.656
 2021SOL    HW2 2124   2.992   3.264   2.675
 2022SOL     OW 2125   2.181   2.672   2.811
 2022SOL    HW1 2126   2.274   2.708   2.816
 2022SOL    HW2 2127   2.175   2.587   2.863
 2023SOL     OW 2128   2.201   2.371   2.868
 2023SOL    HW1 2129   2.149   2.288   2.851
 2023SOL    HW2 2130   2.278   2.376   2.804
 2024SOL     OW 2131   3.000   2.242   3.540
 2024SOL    HW1 2132   2.955   2.305   3.604
 2024SOL    HW2 2133   3.093   2.273   3.523
 2025SOL     OW 2134   3.022   2.069   3.339
 2025SOL    HW1 2135   3.022   2.133   3.416
 2025SOL    HW2 2136   3.050   2.117   3.256
 2026SOL     OW 2137   1.870   3.188   2.062
 2026SOL    HW1 2138   1.777   3.209   2.031
 2026SOL    HW2 2139   1.880   3.089   2.075
 2027SOL     OW 2140   1.950   3.663   2.789
 2027SOL    HW1 2141   1.908   3.577   2.762
 2027SOL    HW2 2142   2.044   3.666   2.755
 2028SOL     OW 2143   2.366   3.430   2.772
 2028SOL    HW1 2144   2.432   3.504   2.781
 2028SOL    HW2 2145   2.410   3.351   2.730
 2029SOL     OW 2146   2.864   2.658   3.100
 2029SOL    HW1 2147   2.905   2.626   3.186
 2029SOL    HW2 2148   2.768   2.631   3.097
 2030SOL     OW 2149   1.902   2.406   2.976
 2030SOL    HW1 2150   1.987   2.373   2.935
 2030SOL    HW2 2151   1.915   2.421   3.074
 2031SOL     OW 2152   2.051   2.382   3.584
 2031SOL    HW1 2153   2.110   2.342   3.514
 2031SOL    HW2 2154   1.993   2.453   3.543
 2032SOL     OW 2155   3.231   2.812   3.522
 2032SOL    HW1 2156   3.270   2.901   3.542
 2032SOL    HW2 2157   3.241   2.792   3.425
 2033SOL     OW 2158   2.677   2.434   2.187
 2033SOL    HW1 2159   2.684   2.345   2.141
 2033SOL    HW2 2160   2.583   2.468   2.179
 2034SOL     OW 2161   3.519   2.466   3.068
 2034SOL    HW1 2162   3.481   2.397   3.130
 2034SOL    HW2 2163   3.601   2.430   3.024
 2036SOL     OW 2164   2.533   2.326   3.131
 2036SOL    HW1 2165   2.499   2.237   3.101
 2036SOL    HW2 2166   2.559   2.380   3.051
 2038SOL     OW 2167   2.335   2.362   2.053
 2038SOL    HW1 2168   2.396   2.442   2.057
 2038SOL    HW2 2169   2.240   2.393   2.060
 2039SOL     OW 2170   2.021   2.999   3.328
 2039SOL    HW1 2171   2.043   2.938   3.404
 2039SOL    HW2 2172   2.031   2.950   3.242
 2040SOL     OW 2173   3.209   2.921   3.096
 2040SOL    HW1 2174   3.233   2.858   3.022
 2040SOL    HW2 2175   3.119   2.961   3.078
 2041SOL     OW 2176   3.164   2.717   2.171
 2041SOL    HW1 2177   3.078   2.686   2.213
 2041SOL    HW2 2178   3.160   2.703   2.072
 2044SOL     OW 2179   1.945   3.120   2.884
 2044SOL    HW1 2180   1.940   3.119   2.984
 2044SOL    HW2 2181   1.862   3.079   2.846
 2046SOL     OW 2182   3.588   1.997   2.385
 2046SOL    HW1 2183   3.661   1.980   2.318
 2046SOL    HW2 2184   3.557   1.910   2.423
 2047SOL     OW 2185   3.250   3.435   2.339
 2047SOL    HW1 2186   3.317   3.447   2.265
 2047SOL    HW2 2187   3.210   3.524   2.362
 2049SOL     OW 2188   3.142   2.789   2.534
 2049SOL    HW1 2189   3.202   2.708   2.536
 2049SOL    HW2 2190   3.182   2.858   2.474
 2050SOL     OW 2191   2.692   3.135   3.284
 2050SOL    HW1 2192   2.687   3.168   3.379
 2050SOL    HW2 2193   2.606   3.154   3.238
 2051SOL     OW 2194   2.534   3.478   2.016
 2051SOL    HW1 2195   2.543   3.488   1.917
 2051SOL    HW2 2196   2.494   3.389   2.037
 2053SOL     OW 2197   3.703   2.037   2.825
 2053SOL    HW1 2198   3.742   1.952   2.789
 2053SOL    HW2 2199   3.605   2.039   2.806
 2054SOL     OW 2200   2.125   2.188   2.582
 2054SOL    HW1 2201   2.046   2.239   2.548
 2054SOL    HW2 2202   2.116   2.173   2.680
 2055SOL     OW 2203   3.056   3.474   1.893
 2055SOL    HW1 2204   3.062   3.381   1.930
 2055SOL    HW2 2205   2.997   3.474   1.813
 2056SOL     OW 2206   2.684   2.864   3.234
 2056SOL    HW1 2207   2.724   2.863   3.142
 2056SOL    HW2 2208   2.694   2.956   3.274
 2057SOL     OW 2209   2.778   2.772   2.153
 2057SOL    HW1 2210   2.841   2.810   2.085
 2057SOL    HW2 2211   2.818   2.689   2.192
 2058SOL     OW 2212   3.366   3.469   1.906
 2058SOL    HW1 2213   3.274   3.506   1.913
 2058SOL    HW2 2214   3.404   3.489   1.816
 2059SOL     OW 2215   2.234   3.150   3.352
 2059SOL    HW1 2216   2.221   3.243   3.318
 2059SOL    HW2 2217   2.150   3.098   3.339
 2061SOL     OW 2218   2.901   2.960   2.558
 2061SOL    HW1 2219   2.831   2.913   2.612
 2061SOL    HW2 2220   2.960   2.892   2.515
 2062SOL     OW 2221   2.876   2.098   2.833
 2062SOL    HW1 2222   2.868   2.062   2.740
 2062SOL    HW2 2223   2.874   2.022   2.898
 2063SOL     OW 2224   2.452   3.349   2.353
 2063SOL    HW1 2225   2.494   3.291   2.283
 2063SOL    HW2 2226   2.408   3.428   2.309
 2064SOL     OW 2227   3.571   2.247   3.243
 2064SOL    HW1 2228   3.644   2.316   3.247
 2064SOL    HW2 2229   3.599   2.172   3.184
 2065SOL     OW 2230   2.117   3.210   2.152
 2065SOL    HW1 2231   2.021   3.211   2.125
 2065SOL    HW2 2232   2.129   3.263   2.236
 2066SOL     OW 2233   1.967   2.875   3.588
 2066SOL    HW1 2234   1.890   2.842   3.642
 2066SOL    HW2 2235   2.052   2.845   3.630
 2067SOL     OW 2236   2.534   2.065   3.351
 2067SOL    HW1 2237   2.624   2.049   3.311
 2067SOL    HW2 2238   2.542   2.070   3.450
 2068SOL     OW 2239   1.937   2.207   1.895
 2068SOL    HW1 2240   1.845   2.179   1.866
 2068SOL    HW2 2241   1.968   2.284   1.839
 2069SOL     OW 2242   3.302   2.718   3.260
 2069SOL    HW1 2243   3.245   2.770   3.197
 2069SOL    HW2 2244   3.398   2.730   3.236
 2070SOL     OW 2245   3.045   3.197   1.981
 2070SOL    HW1 2246   2.946   3.186   1.983
 2070SOL    HW2 2247   3.079   3.212   2.074
 2071SOL     OW 2248   2.475   2.704   3.293
 2071SOL    HW1 2249   2.531   2.785   3.276
 2071SOL    HW2 2250   2.534   2.624   3.296
 2073SOL     OW 2251   2.578   2.427   3.570
 2073SOL    HW1 2252   2.597   2.492   3.644
 2073SOL    HW2 2253   2.638   2.347   3.579
 2076SOL     OW 2254   3.536   2.745   3.116
 2076SOL    HW1 2255   3.509   2.656   3.079
 2076SOL    HW2 2256   3.537   2.813   3.043
 2077SOL     OW 2257   3.087   2.187   2.311
 2077SOL    HW1 2258   3.152   2.113   2.300
 2077SOL    HW2 2259   3.107   2.237   2.395
 2078SOL     OW 2260   2.456   2.607   2.514
 2078SOL    HW1 2261   2.506   2.692   2.495
 2078SOL    HW2 2262   2.368   2.609   2.466
 2081SOL     OW 2263   2.721   3.236   1.878
 2081SOL    HW1 2264   2.675   3.251   1.966
 2081SOL    HW2 2265   2.765   3.321   1.848
 2082SOL     OW 2266   2.523   3.652   2.815
 2082SOL    HW1 2267   2.477   3.740   2.802
 2082SOL    HW2 2268   2.622   3.664   2.808
 2083SOL     OW 2269   2.721   2.818   2.723
 2083SOL    HW1 2270   2.775   2.749   2.771
 2083SOL    HW2 2271   2.689   2.887   2.789
 2084SOL     OW 2272   2.945   2.846   1.949
 2084SOL    HW1 2273   2.922   2.899   1.867
 2084SOL    HW2 2274   3.026   2.790   1.930
 2086SOL     OW 2275   2.083   3.176   3.706
 2086SOL    HW1 2276   2.018   3.103   3.685
 2086SOL    HW2 2277   2.087   3.190   3.804
 2087SOL     OW 2278   1.941   3.102   2.515
 2087SOL    HW1 2279   1.940   3.055   2.603
 2087SOL    HW2 2280   2.023   3.074   2.464
 2088SOL     OW 2281   2.534   3.253   3.486
 2088SOL    HW1 2282   2.456   3.203   3.524
 2088SOL    HW2 2283   2.531   3.348   3.517
 2089SOL     OW 2284   3.686   2.054   3.089
 2089SOL    HW1 2285   3.682   1.964   3.133
 2089SOL    HW2 2286   3.689   2.043   2.990
 2091SOL     OW 2287   2.179   2.409   3.142
 2091SOL    HW1 2288   2.217   2.350   3.214
 2091SOL    HW2 2289   2.219   2.383   3.054
 2092SOL     OW 2290   2.674   3.448   2.549
 2092SOL    HW1 2291   2.706   3.458   2.455
 2092SOL    HW2 2292   2.595   3.386   2.551
 2093SOL     OW 2293   3.286   2.076   2.974
 2093SOL    HW1 2294   3.338   2.011   3.029
 2093SOL    HW2 2295   3.237   2.139   3.035
 2094SOL     OW 2296   2.863   1.896   3.016
 2094SOL    HW1 2297   2.800   1.824   2.985
 2094SOL    HW2 2298   2.956   1.860   3.016
 2095SOL     OW 2299   2.632   3.192   2.163
 2095SOL    HW1 2300   2.586   3.105   2.180
 2095SOL    HW2 2301   2.723   3.189   2.204
 2096SOL     OW 2302   2.480   3.429   3.146
 2096SOL    HW1 2303   2.475   3.511   3.203
 2096SOL    HW2 2304   2.569   3.426   3.101
 2097SOL     OW 2305   3.214   1.914   2.030
 2097SOL    HW1 2306   3.249   1.873   1.946
 2097SOL    HW2 2307   3.124   1.876   2.050
 2098SOL     OW 2308   3.162   2.315   2.553
 2098SOL    HW1 2309   3.103   2.395   2.557
 2098SOL    HW2 2310   3.177   2.280   2.646
 2099SOL     OW 2311   3.455   2.083   2.744
 2099SOL    HW1 2312   3.371   2.082   2.798
 2099SOL    HW2 2313   3.457   2.166   2.688
 2100SOL     OW 2314   1.901   2.939   2.162
 2100SOL    HW1 2315   2.000   2.928   2.153
 2100SOL    HW2 2316   1.861   2.853   2.194
 2101SOL     OW 2317   2.737   3.508   2.199
 2101SOL    HW1 2318   2.660   3.473   2.145
 2101SOL    HW2 2319   2.705   3.579   2.261
 2102SOL     OW 2320   2.092   2.490   3.837
 2102SOL    HW1 2321   1.999   2.488   3.874
 2102SOL    HW2 2322   2.093   2.451   3.745
 2106SOL     OW 2323   2.468   2.826   3.847
 2106SOL    HW1 2324   2.475   2.910   3.793
 2106SOL    HW2 2325   2.514   2.839   3.935
 2118SOL     OW 2326   2.727   2.210   3.919
 2118SOL    HW1 2327   2.786   2.273   3.870
 2118SOL    HW2 2328   2.746   2.116   3.890
 2128SOL     OW 2329   2.476   1.984   3.841
 2128SOL    HW1 2330   2.574   1.962   3.848
 2128SOL    HW2 2331   2.445   1.967   3.748
 2131SOL     OW 2332   2.159   1.897   3.895
 2131SOL    HW1 2333   2.208   1.981   3.874
 2131SOL    HW2 2334   2.221   1.832   3.940
 2135SOL     OW 2335   2.894   2.411   3.740
 2135SOL    HW1 2336   2.853   2.493   3.701
 2135SOL    HW2 2337   2.958   2.437   3.813
 2152SOL     OW 2338   2.335   2.362   3.915
 2152SOL    HW1 2339   2.396   2.442   3.919
 2152SOL    HW2 2340   2.240   2.393   3.922
 2162SOL     OW 2341   1.937   2.207   3.757
 2162SOL    HW1 2342   1.845   2.179   3.728
 2162SOL    HW2 2343   1.968   2.284   3.701
 2215SOL     OW 2344   2.366   3.774   1.740
 2215SOL    HW1 2345   2.324   3.717   1.670
 2215SOL    HW2 2346   2.300   3.843   1.772
 2259SOL     OW 2347   2.671   3.728   2.364
 2259SOL    HW1 2348   2.711   3.819   2.355
 2259SOL    HW2 2349   2.571   3.736   2.370
 2273SOL     OW 2350   2.476   3.846   1.979
 2273SOL    HW1 2351   2.574   3.824   1.986
 2273SOL    HW2 2352   2.445   3.829   1.886
 2277SOL     OW 2353   2.401   3.788   2.374
 2277SOL    HW1 2354   2.320   3.789   2.432
 2277SOL    HW2 2355   2.404   3.871   2.319
 2278SOL     OW 2356   2.159   3.759   2.033
 2278SOL    HW1 2357   2.208   3.843   2.012
 2278SOL    HW2 2358   2.221   3.694   2.078
 2285SOL     OW 2359   2.879   3.763   2.615
 2285SOL    HW1 2360   2.807   3.768   2.546
 2285SOL    HW2 2361   2.855   3.694   2.684
 2287SOL     OW 2362   2.389   3.980   2.190
 2287SOL    HW1 2363   2.416   3.921   2.115
 2287SOL    HW2 2364   2.389   4.075   2.159
 2297SOL     OW 2365   2.169   3.787   2.480
 2297SOL    HW1 2366   2.158   3.881   2.513
 2297SOL    HW2 2367   2.164   3.724   2.557
 2316SOL     OW 2368   1.934   3.890   2.180
 2316SOL    HW1 2369   1.917   3.973   2.126
 2316SOL    HW2 2370   2.024   3.853   2.158
 2417SOL     OW 2371   3.854   1.794   1.851
 2417SOL    HW1 2372   3.813   1.720   1.904
 2417SOL    HW2 2373   3.918   1.845   1.909
 2445SOL     OW 2374   3.751   1.596   1.979
 2445SOL    HW1 2375   3.732   1.500   2.000
 2445SOL    HW2 2376   3.718   1.654   2.054
 2484SOL     OW 2377   3.732   1.326   2.062
 2484SOL    HW1 2378   3.639   1.347   2.031
 2484SOL    HW2 2379   3.742   1.227   2.075
 2485SOL     OW 2380   3.812   1.801   2.789
 2485SOL    HW1 2381   3.770   1.715   2.762
 2485SOL    HW2 2382   3.906   1.804   2.755
 2556SOL     OW 2383   3.837   2.599   1.597
 2556SOL    HW1 2384   3.925   2.586   1.642
 2556SOL    HW2 2385   3.824   2.696   1.575
 2598SOL     OW 2386   3.913   2.382   1.722
 2598SOL    HW1 2387   3.972   2.342   1.652
 2598SOL    HW2 2388   3.855   2.453   1.681
 2623SOL     OW 2389   3.954   2.490   1.975
 2623SOL    HW1 2390   3.861   2.488   2.012
 2623SOL    HW2 2391   3.955   2.451   1.883
 2625SOL     OW 2392   3.743   2.230   2.509
 2625SOL    HW1 2393   3.661   2.273   2.548
 2625SOL    HW2 2394   3.715   2.157   2.446
 2633SOL     OW 2395   3.846   2.505   2.425
 2633SOL    HW1 2396   3.801   2.417   2.442
 2633SOL    HW2 2397   3.845   2.559   2.509
 2641SOL     OW 2398   3.800   2.673   2.651
 2641SOL    HW1 2399   3.899   2.661   2.660
 2641SOL    HW2 2400   3.776   2.768   2.672
 2677SOL     OW 2401   3.764   2.406   2.976
 2677SOL    HW1 2402   3.849   2.373   2.935
 2677SOL    HW2 2403   3.777   2.421   3.074
 2692SOL     OW 2404   3.799   2.207   1.895
 2692SOL    HW1 2405   3.707   2.179   1.866
 2692SOL    HW2 2406   3.830   2.284   1.839
 2693SOL     OW 2407   3.796   2.028   2.180
 2693SOL    HW1 2408   3.779   2.111   2.126
 2693SOL    HW2 2409   3.886   1.991   2.158
 2702SOL     OW 2410   3.763   2.939   2.162
 2702SOL    HW1 2411   3.862   2.928   2.153
 2702SOL    HW2 2412   3.723   2.853   2.194
   4.40692   4.40692   4.40692
