mobley_5510474_GMX.gro created by acpype (v: 2023.10.27) on Thu May 21 00:15:07 2026
 2398
    1MOL     C1    1   2.715   2.797   2.469
    1MOL     C2    2   2.801   2.697   2.422
    1MOL     C3    3   2.586   2.765   2.511
    1MOL     C4    4   2.757   2.565   2.416
    1MOL     C5    5   2.543   2.632   2.505
    1MOL     C6    6   2.628   2.532   2.458
    1MOL     C7    7   2.377   2.473   2.540
    1MOL     C8    8   2.462   2.374   2.493
    1MOL     C9    9   2.248   2.441   2.582
    1MOL    C10   10   2.419   2.241   2.487
    1MOL    C11   11   2.205   2.308   2.577
    1MOL    C12   12   2.290   2.209   2.529
    1MOL     O1   13   2.415   2.605   2.548
    1MOL     O2   14   2.590   2.401   2.451
    1MOL    CL1   15   2.144   2.568   2.641
    1MOL    CL2   16   2.529   2.120   2.428
    1MOL    CL3   17   2.044   2.268   2.629
    1MOL    CL4   18   2.237   2.043   2.522
    1MOL     H1   19   2.749   2.900   2.473
    1MOL     H2   20   2.901   2.723   2.389
    1MOL     H3   21   2.520   2.843   2.548
    1MOL     H4   22   2.824   2.488   2.379
   35SOL     OW   23   1.187   1.792   1.616
   35SOL    HW1   24   1.211   1.852   1.540
   35SOL    HW2   25   1.194   1.697   1.586
   95SOL     OW   26   1.754   1.223   1.588
   95SOL    HW1   27   1.845   1.184   1.575
   95SOL    HW2   28   1.762   1.319   1.612
   97SOL     OW   29   1.592   1.629   1.625
   97SOL    HW1   30   1.619   1.663   1.535
   97SOL    HW2   31   1.671   1.591   1.671
  127SOL     OW   32   1.859   1.518   1.605
  127SOL    HW1   33   1.873   1.545   1.510
  127SOL    HW2   34   1.942   1.540   1.658
  152SOL     OW   35   1.759   1.747   1.154
  152SOL    HW1   36   1.820   1.777   1.081
  152SOL    HW2   37   1.721   1.658   1.132
  163SOL     OW   38   1.650   1.720   1.394
  163SOL    HW1   39   1.703   1.730   1.310
  163SOL    HW2   40   1.623   1.810   1.428
  219SOL     OW   41   1.555   1.511   2.565
  219SOL    HW1   42   1.498   1.495   2.646
  219SOL    HW2   43   1.496   1.521   2.485
  227SOL     OW   44   1.460   1.505   3.201
  227SOL    HW1   45   1.484   1.599   3.227
  227SOL    HW2   46   1.444   1.451   3.283
  238SOL     OW   47   1.842   1.767   2.221
  238SOL    HW1   48   1.896   1.738   2.301
  238SOL    HW2   49   1.872   1.857   2.192
  240SOL     OW   50   1.689   0.922   2.474
  240SOL    HW1   51   1.784   0.893   2.482
  240SOL    HW2   52   1.681   0.987   2.399
  241SOL     OW   53   1.641   1.108   2.294
  241SOL    HW1   54   1.727   1.110   2.242
  241SOL    HW2   55   1.655   1.155   2.382
  248SOL     OW   56   1.187   1.792   3.478
  248SOL    HW1   57   1.211   1.852   3.402
  248SOL    HW2   58   1.194   1.697   3.448
  250SOL     OW   59   1.466   1.417   2.815
  250SOL    HW1   60   1.407   1.423   2.895
  250SOL    HW2   61   1.451   1.329   2.769
  251SOL     OW   62   1.667   1.714   2.434
  251SOL    HW1   63   1.626   1.691   2.346
  251SOL    HW2   64   1.649   1.640   2.499
  254SOL     OW   65   1.576   1.662   2.169
  254SOL    HW1   66   1.665   1.708   2.172
  254SOL    HW2   67   1.555   1.638   2.074
  264SOL     OW   68   1.362   1.144   2.407
  264SOL    HW1   69   1.445   1.115   2.359
  264SOL    HW2   70   1.313   1.211   2.351
  268SOL     OW   71   1.795   1.066   2.735
  268SOL    HW1   72   1.733   1.051   2.659
  268SOL    HW2   73   1.743   1.077   2.820
  273SOL     OW   74   1.111   1.776   2.099
  273SOL    HW1   75   1.051   1.714   2.149
  273SOL    HW2   76   1.142   1.732   2.014
  275SOL     OW   77   1.632   1.377   1.943
  275SOL    HW1   78   1.600   1.471   1.933
  275SOL    HW2   79   1.556   1.314   1.931
  279SOL     OW   80   0.940   1.698   2.766
  279SOL    HW1   81   1.020   1.641   2.787
  279SOL    HW2   82   0.891   1.658   2.689
  289SOL     OW   83   1.434   1.188   1.903
  289SOL    HW1   84   1.466   1.112   1.960
  289SOL    HW2   85   1.342   1.215   1.933
  293SOL     OW   86   1.227   1.570   2.655
  293SOL    HW1   87   1.248   1.644   2.590
  293SOL    HW2   88   1.295   1.570   2.728
  295SOL     OW   89   1.271   1.797   2.453
  295SOL    HW1   90   1.315   1.861   2.389
  295SOL    HW2   91   1.221   1.849   2.523
  301SOL     OW   92   1.429   1.173   2.729
  301SOL    HW1   93   1.374   1.089   2.722
  301SOL    HW2   94   1.455   1.202   2.637
  305SOL     OW   95   1.664   1.280   2.519
  305SOL    HW1   96   1.763   1.288   2.533
  305SOL    HW2   97   1.619   1.364   2.550
  308SOL     OW   98   1.754   1.223   3.450
  308SOL    HW1   99   1.845   1.184   3.437
  308SOL    HW2  100   1.762   1.319   3.474
  310SOL     OW  101   1.592   1.629   3.487
  310SOL    HW1  102   1.619   1.663   3.397
  310SOL    HW2  103   1.671   1.591   3.533
  312SOL     OW  104   1.638   1.099   2.941
  312SOL    HW1  105   1.643   1.180   3.000
  312SOL    HW2  106   1.552   1.101   2.890
  321SOL     OW  107   1.252   1.348   2.250
  321SOL    HW1  108   1.302   1.425   2.290
  321SOL    HW2  109   1.157   1.350   2.282
  322SOL     OW  110   1.272   1.445   3.004
  322SOL    HW1  111   1.319   1.458   3.091
  322SOL    HW2  112   1.206   1.371   3.013
  340SOL     OW  113   1.859   1.518   3.467
  340SOL    HW1  114   1.873   1.545   3.372
  340SOL    HW2  115   1.942   1.540   3.520
  365SOL     OW  116   1.759   1.747   3.016
  365SOL    HW1  117   1.820   1.777   2.943
  365SOL    HW2  118   1.721   1.658   2.994
  366SOL     OW  119   1.252   1.731   2.990
  366SOL    HW1  120   1.336   1.736   2.936
  366SOL    HW2  121   1.229   1.635   3.008
  370SOL     OW  122   1.388   1.573   2.339
  370SOL    HW1  123   1.455   1.585   2.265
  370SOL    HW2  124   1.348   1.662   2.362
  375SOL     OW  125   1.650   1.720   3.256
  375SOL    HW1  126   1.703   1.730   3.172
  375SOL    HW2  127   1.623   1.810   3.290
  378SOL     OW  128   1.194   1.612   1.893
  378SOL    HW1  129   1.200   1.519   1.930
  378SOL    HW2  130   1.135   1.612   1.813
  381SOL     OW  131   1.504   1.607   1.906
  381SOL    HW1  132   1.412   1.644   1.913
  381SOL    HW2  133   1.542   1.627   1.816
  383SOL     OW  134   1.614   1.292   3.151
  383SOL    HW1  135   1.674   1.295   3.231
  383SOL    HW2  136   1.539   1.356   3.164
  396SOL     OW  137   1.493   1.767   2.821
  396SOL    HW1  138   1.526   1.831   2.752
  396SOL    HW2  139   1.559   1.761   2.896
  409SOL     OW  140   1.861   1.569   2.713
  409SOL    HW1  141   1.790   1.557   2.643
  409SOL    HW2  142   1.862   1.490   2.773
  415SOL     OW  143   1.705   1.487   2.966
  415SOL    HW1  144   1.612   1.462   2.939
  415SOL    HW2  145   1.731   1.437   3.048
  581SOL     OW  146   0.850   2.660   1.823
  581SOL    HW1  147   0.846   2.736   1.888
  581SOL    HW2  148   0.872   2.696   1.732
  585SOL     OW  149   1.460   3.367   1.339
  585SOL    HW1  150   1.484   3.461   1.365
  585SOL    HW2  151   1.444   3.313   1.421
  589SOL     OW  152   1.127   3.203   1.690
  589SOL    HW1  153   1.174   3.203   1.778
  589SOL    HW2  154   1.079   3.116   1.679
  594SOL     OW  155   1.594   1.976   1.480
  594SOL    HW1  156   1.576   2.043   1.408
  594SOL    HW2  157   1.591   2.022   1.569
  602SOL     OW  158   1.293   3.090   1.423
  602SOL    HW1  159   1.330   3.017   1.365
  602SOL    HW2  160   1.345   3.095   1.508
  614SOL     OW  161   1.394   2.331   1.674
  614SOL    HW1  162   1.374   2.374   1.762
  614SOL    HW2  163   1.472   2.269   1.683
  621SOL     OW  164   1.719   2.447   1.831
  621SOL    HW1  165   1.693   2.536   1.795
  621SOL    HW2  166   1.717   2.379   1.758
  639SOL     OW  167   1.547   2.084   1.729
  639SOL    HW1  168   1.542   2.121   1.821
  639SOL    HW2  169   1.475   2.015   1.717
  643SOL     OW  170   1.351   2.452   1.433
  643SOL    HW1  171   1.379   2.409   1.518
  643SOL    HW2  172   1.376   2.548   1.434
  650SOL     OW  173   1.076   2.545   1.464
  650SOL    HW1  174   0.996   2.484   1.467
  650SOL    HW2  175   1.157   2.492   1.440
  666SOL     OW  176   1.754   3.085   1.588
  666SOL    HW1  177   1.845   3.046   1.575
  666SOL    HW2  178   1.762   3.181   1.612
  668SOL     OW  179   1.592   3.491   1.625
  668SOL    HW1  180   1.619   3.525   1.535
  668SOL    HW2  181   1.671   3.453   1.671
  670SOL     OW  182   1.638   2.961   1.079
  670SOL    HW1  183   1.643   3.042   1.138
  670SOL    HW2  184   1.552   2.963   1.028
  672SOL     OW  185   0.980   2.978   1.719
  672SOL    HW1  186   0.881   2.984   1.729
  672SOL    HW2  187   1.003   2.898   1.663
  675SOL     OW  188   1.274   2.248   1.262
  675SOL    HW1  189   1.295   2.322   1.326
  675SOL    HW2  190   1.185   2.265   1.219
  684SOL     OW  191   1.587   2.641   1.670
  684SOL    HW1  192   1.495   2.679   1.665
  684SOL    HW2  193   1.647   2.688   1.605
  685SOL     OW  194   1.013   1.967   1.770
  685SOL    HW1  195   1.019   2.052   1.718
  685SOL    HW2  196   1.045   1.891   1.713
  693SOL     OW  197   1.728   2.797   1.854
  693SOL    HW1  198   1.682   2.790   1.765
  693SOL    HW2  199   1.666   2.841   1.920
  698SOL     OW  200   1.859   3.380   1.605
  698SOL    HW1  201   1.873   3.407   1.510
  698SOL    HW2  202   1.942   3.402   1.658
  705SOL     OW  203   1.138   2.242   1.678
  705SOL    HW1  204   1.093   2.305   1.742
  705SOL    HW2  205   1.231   2.273   1.661
  706SOL     OW  206   1.160   2.069   1.477
  706SOL    HW1  207   1.160   2.133   1.554
  706SOL    HW2  208   1.188   2.117   1.394
  713SOL     OW  209   1.369   2.812   1.660
  713SOL    HW1  210   1.408   2.901   1.680
  713SOL    HW2  211   1.379   2.792   1.563
  715SOL     OW  212   1.657   2.466   1.206
  715SOL    HW1  213   1.619   2.397   1.268
  715SOL    HW2  214   1.739   2.430   1.162
  721SOL     OW  215   1.347   2.921   1.234
  721SOL    HW1  216   1.371   2.858   1.160
  721SOL    HW2  217   1.257   2.961   1.216
  734SOL     OW  218   1.650   3.582   1.394
  734SOL    HW1  219   1.703   3.592   1.310
  734SOL    HW2  220   1.623   3.672   1.428
  735SOL     OW  221   1.841   2.037   0.963
  735SOL    HW1  222   1.880   1.952   0.927
  735SOL    HW2  223   1.743   2.039   0.944
  742SOL     OW  224   1.614   3.154   1.289
  742SOL    HW1  225   1.674   3.157   1.369
  742SOL    HW2  226   1.539   3.218   1.302
  746SOL     OW  227   1.709   2.247   1.381
  746SOL    HW1  228   1.782   2.316   1.385
  746SOL    HW2  229   1.737   2.172   1.322
  751SOL     OW  230   1.440   2.718   1.398
  751SOL    HW1  231   1.383   2.770   1.335
  751SOL    HW2  232   1.536   2.730   1.374
  757SOL     OW  233   1.450   3.082   1.633
  757SOL    HW1  234   1.441   3.072   1.732
  757SOL    HW2  235   1.546   3.075   1.607
  759SOL     OW  236   1.674   2.745   1.254
  759SOL    HW1  237   1.647   2.656   1.217
  759SOL    HW2  238   1.675   2.813   1.181
  762SOL     OW  239   1.777   2.204   1.642
  762SOL    HW1  240   1.760   2.235   1.548
  762SOL    HW2  241   1.693   2.167   1.680
  763SOL     OW  242   1.730   2.796   1.517
  763SOL    HW1  243   1.768   2.887   1.532
  763SOL    HW2  244   1.722   2.779   1.418
  772SOL     OW  245   1.824   2.054   1.227
  772SOL    HW1  246   1.820   1.964   1.271
  772SOL    HW2  247   1.827   2.043   1.128
  790SOL     OW  248   1.555   3.373   2.565
  790SOL    HW1  249   1.498   3.357   2.646
  790SOL    HW2  250   1.496   3.383   2.485
  791SOL     OW  251   1.135   2.565   2.579
  791SOL    HW1  252   1.192   2.643   2.554
  791SOL    HW2  253   1.075   2.591   2.655
  792SOL     OW  254   1.755   2.469   2.093
  792SOL    HW1  255   1.743   2.456   1.994
  792SOL    HW2  256   1.725   2.388   2.142
  798SOL     OW  257   1.460   3.367   3.201
  798SOL    HW1  258   1.484   3.461   3.227
  798SOL    HW2  259   1.444   3.313   3.283
  800SOL     OW  260   1.603   2.309   2.599
  800SOL    HW1  261   1.529   2.355   2.549
  800SOL    HW2  262   1.654   2.377   2.652
  807SOL     OW  263   1.594   1.976   3.342
  807SOL    HW1  264   1.576   2.043   3.270
  807SOL    HW2  265   1.591   2.022   3.431
  809SOL     OW  266   1.842   3.629   2.221
  809SOL    HW1  267   1.896   3.600   2.301
  809SOL    HW2  268   1.872   3.719   2.192
  811SOL     OW  269   1.689   2.784   2.474
  811SOL    HW1  270   1.784   2.755   2.482
  811SOL    HW2  271   1.681   2.849   2.399
  812SOL     OW  272   1.641   2.970   2.294
  812SOL    HW1  273   1.727   2.972   2.242
  812SOL    HW2  274   1.655   3.017   2.382
  815SOL     OW  275   1.293   3.090   3.285
  815SOL    HW1  276   1.330   3.017   3.227
  815SOL    HW2  277   1.345   3.095   3.370
  818SOL     OW  278   1.525   2.861   2.052
  818SOL    HW1  279   1.462   2.785   2.065
  818SOL    HW2  280   1.573   2.879   2.138
  821SOL     OW  281   1.466   3.279   2.815
  821SOL    HW1  282   1.407   3.285   2.895
  821SOL    HW2  283   1.451   3.191   2.769
  822SOL     OW  284   1.667   3.576   2.434
  822SOL    HW1  285   1.626   3.553   2.346
  822SOL    HW2  286   1.649   3.502   2.499
  824SOL     OW  287   1.281   2.207   2.806
  824SOL    HW1  288   1.195   2.157   2.793
  824SOL    HW2  289   1.343   2.153   2.862
  825SOL     OW  290   1.576   3.524   2.169
  825SOL    HW1  291   1.665   3.570   2.172
  825SOL    HW2  292   1.555   3.500   2.074
  827SOL     OW  293   1.394   2.331   3.536
  827SOL    HW1  294   1.374   2.374   3.624
  827SOL    HW2  295   1.472   2.269   3.545
  829SOL     OW  296   0.991   2.272   3.104
  829SOL    HW1  297   0.914   2.306   3.158
  829SOL    HW2  298   0.957   2.221   3.025
  830SOL     OW  299   1.041   2.563   2.291
  830SOL    HW1  300   1.067   2.559   2.387
  830SOL    HW2  301   0.956   2.512   2.277
  833SOL     OW  302   0.865   2.210   2.057
  833SOL    HW1  303   0.924   2.273   2.008
  833SOL    HW2  304   0.884   2.116   2.028
  834SOL     OW  305   1.719   2.447   3.693
  834SOL    HW1  306   1.693   2.536   3.657
  834SOL    HW2  307   1.717   2.379   3.620
  835SOL     OW  308   1.362   3.006   2.407
  835SOL    HW1  309   1.445   2.977   2.359
  835SOL    HW2  310   1.313   3.073   2.351
  837SOL     OW  311   1.008   3.318   2.339
  837SOL    HW1  312   0.962   3.390   2.287
  837SOL    HW2  313   1.004   3.338   2.437
  839SOL     OW  314   1.795   2.928   2.735
  839SOL    HW1  315   1.733   2.913   2.659
  839SOL    HW2  316   1.743   2.939   2.820
  840SOL     OW  317   1.227   3.412   3.368
  840SOL    HW1  318   1.233   3.335   3.432
  840SOL    HW2  319   1.175   3.386   3.288
  842SOL     OW  320   1.458   2.597   2.590
  842SOL    HW1  321   1.453   2.532   2.665
  842SOL    HW2  322   1.538   2.656   2.603
  846SOL     OW  323   1.632   3.239   1.943
  846SOL    HW1  324   1.600   3.333   1.933
  846SOL    HW2  325   1.556   3.176   1.931
  848SOL     OW  326   1.400   1.969   2.288
  848SOL    HW1  327   1.376   1.932   2.198
  848SOL    HW2  328   1.499   1.985   2.292
  852SOL     OW  329   1.547   2.084   3.591
  852SOL    HW1  330   1.542   2.121   3.683
  852SOL    HW2  331   1.475   2.015   3.579
  856SOL     OW  332   1.351   2.452   3.295
  856SOL    HW1  333   1.379   2.409   3.380
  856SOL    HW2  334   1.376   2.548   3.296
  858SOL     OW  335   0.922   2.365   2.761
  858SOL    HW1  336   0.897   2.356   2.665
  858SOL    HW2  337   0.970   2.283   2.792
  860SOL     OW  338   1.434   3.050   1.903
  860SOL    HW1  339   1.466   2.974   1.960
  860SOL    HW2  340   1.342   3.077   1.933
  862SOL     OW  341   0.935   2.098   2.342
  862SOL    HW1  342   0.887   2.139   2.264
  862SOL    HW2  343   1.034   2.096   2.323
  863SOL     OW  344   1.076   2.545   3.326
  863SOL    HW1  345   0.996   2.484   3.329
  863SOL    HW2  346   1.157   2.492   3.302
  864SOL     OW  347   1.227   3.432   2.655
  864SOL    HW1  348   1.248   3.506   2.590
  864SOL    HW2  349   1.295   3.432   2.728
  866SOL     OW  350   1.271   3.659   2.453
  866SOL    HW1  351   1.315   3.723   2.389
  866SOL    HW2  352   1.221   3.711   2.523
  867SOL     OW  353   1.032   2.411   1.878
  867SOL    HW1  354   0.991   2.493   1.839
  867SOL    HW2  355   1.096   2.437   1.951
  870SOL     OW  356   0.866   2.316   2.504
  870SOL    HW1  357   0.834   2.388   2.442
  870SOL    HW2  358   0.890   2.235   2.451
  871SOL     OW  359   1.017   1.901   2.615
  871SOL    HW1  360   0.945   1.906   2.546
  871SOL    HW2  361   0.993   1.832   2.684
  872SOL     OW  362   1.429   3.035   2.729
  872SOL    HW1  363   1.374   2.951   2.722
  872SOL    HW2  364   1.455   3.064   2.637
  873SOL     OW  365   1.466   2.452   2.854
  873SOL    HW1  366   1.436   2.357   2.861
  873SOL    HW2  367   1.539   2.468   2.920
  874SOL     OW  368   1.857   2.695   2.239
  874SOL    HW1  369   1.899   2.631   2.303
  874SOL    HW2  370   1.819   2.644   2.161
  876SOL     OW  371   1.664   3.142   2.519
  876SOL    HW1  372   1.763   3.150   2.533
  876SOL    HW2  373   1.619   3.226   2.550
  877SOL     OW  374   1.390   2.437   1.940
  877SOL    HW1  375   1.336   2.416   2.021
  877SOL    HW2  376   1.481   2.396   1.949
  879SOL     OW  377   1.754   3.085   3.450
  879SOL    HW1  378   1.845   3.046   3.437
  879SOL    HW2  379   1.762   3.181   3.474
  880SOL     OW  380   1.064   3.209   3.202
  880SOL    HW1  381   0.984   3.186   3.257
  880SOL    HW2  382   1.147   3.183   3.251
  881SOL     OW  383   1.592   3.491   3.487
  881SOL    HW1  384   1.619   3.525   3.397
  881SOL    HW2  385   1.671   3.453   3.533
  882SOL     OW  386   1.111   3.057   2.962
  882SOL    HW1  387   1.071   3.101   3.043
  882SOL    HW2  388   1.070   3.094   2.879
  883SOL     OW  389   1.638   2.961   2.941
  883SOL    HW1  390   1.643   3.042   3.000
  883SOL    HW2  391   1.552   2.963   2.890
  888SOL     OW  392   1.274   2.248   3.124
  888SOL    HW1  393   1.295   2.322   3.188
  888SOL    HW2  394   1.185   2.265   3.081
  892SOL     OW  395   1.252   3.210   2.250
  892SOL    HW1  396   1.302   3.287   2.290
  892SOL    HW2  397   1.157   3.212   2.282
  893SOL     OW  398   1.272   3.307   3.004
  893SOL    HW1  399   1.319   3.320   3.091
  893SOL    HW2  400   1.206   3.233   3.013
  894SOL     OW  401   1.582   2.501   2.334
  894SOL    HW1  402   1.551   2.562   2.407
  894SOL    HW2  403   1.632   2.553   2.265
  897SOL     OW  404   1.587   2.641   3.532
  897SOL    HW1  405   1.495   2.679   3.527
  897SOL    HW2  406   1.647   2.688   3.467
  901SOL     OW  407   1.360   2.724   2.907
  901SOL    HW1  408   1.285   2.724   2.841
  901SOL    HW2  409   1.397   2.632   2.916
  902SOL     OW  410   1.209   2.387   2.137
  902SOL    HW1  411   1.222   2.303   2.191
  902SOL    HW2  412   1.180   2.461   2.197
  906SOL     OW  413   1.728   2.797   3.716
  906SOL    HW1  414   1.682   2.790   3.627
  906SOL    HW2  415   1.666   2.841   3.782
  908SOL     OW  416   1.622   2.229   2.236
  908SOL    HW1  417   1.624   2.153   2.300
  908SOL    HW2  418   1.574   2.306   2.276
  909SOL     OW  419   1.023   2.628   2.828
  909SOL    HW1  420   1.038   2.649   2.924
  909SOL    HW2  421   0.993   2.533   2.819
  911SOL     OW  422   1.859   3.380   3.467
  911SOL    HW1  423   1.873   3.407   3.372
  911SOL    HW2  424   1.942   3.402   3.520
  913SOL     OW  425   1.540   2.136   1.987
  913SOL    HW1  426   1.479   2.061   2.010
  913SOL    HW2  427   1.562   2.188   2.070
  914SOL     OW  428   1.303   2.700   1.904
  914SOL    HW1  429   1.337   2.607   1.919
  914SOL    HW2  430   1.321   2.727   1.809
  915SOL     OW  431   1.068   3.195   2.711
  915SOL    HW1  432   1.075   3.111   2.656
  915SOL    HW2  433   1.130   3.264   2.675
  918SOL     OW  434   1.138   2.242   3.540
  918SOL    HW1  435   1.093   2.305   3.604
  918SOL    HW2  436   1.231   2.273   3.523
  919SOL     OW  437   1.160   2.069   3.339
  919SOL    HW1  438   1.160   2.133   3.416
  919SOL    HW2  439   1.188   2.117   3.256
  923SOL     OW  440   1.002   2.658   3.100
  923SOL    HW1  441   1.043   2.626   3.186
  923SOL    HW2  442   0.906   2.631   3.097
  926SOL     OW  443   1.369   2.812   3.522
  926SOL    HW1  444   1.408   2.901   3.542
  926SOL    HW2  445   1.379   2.792   3.425
  927SOL     OW  446   0.815   2.434   2.187
  927SOL    HW1  447   0.822   2.345   2.141
  927SOL    HW2  448   0.721   2.468   2.179
  928SOL     OW  449   1.657   2.466   3.068
  928SOL    HW1  450   1.619   2.397   3.130
  928SOL    HW2  451   1.739   2.430   3.024
  934SOL     OW  452   1.347   2.921   3.096
  934SOL    HW1  453   1.371   2.858   3.022
  934SOL    HW2  454   1.257   2.961   3.078
  935SOL     OW  455   1.302   2.717   2.171
  935SOL    HW1  456   1.216   2.686   2.213
  935SOL    HW2  457   1.298   2.703   2.072
  936SOL     OW  458   1.759   3.609   3.016
  936SOL    HW1  459   1.820   3.639   2.943
  936SOL    HW2  460   1.721   3.520   2.994
  937SOL     OW  461   1.252   3.593   2.990
  937SOL    HW1  462   1.336   3.598   2.936
  937SOL    HW2  463   1.229   3.497   3.008
  940SOL     OW  464   1.726   1.997   2.385
  940SOL    HW1  465   1.799   1.980   2.318
  940SOL    HW2  466   1.695   1.910   2.423
  941SOL     OW  467   1.388   3.435   2.339
  941SOL    HW1  468   1.455   3.447   2.265
  941SOL    HW2  469   1.348   3.524   2.362
  943SOL     OW  470   1.280   2.789   2.534
  943SOL    HW1  471   1.340   2.708   2.536
  943SOL    HW2  472   1.320   2.858   2.474
  946SOL     OW  473   1.650   3.582   3.256
  946SOL    HW1  474   1.703   3.592   3.172
  946SOL    HW2  475   1.623   3.672   3.290
  947SOL     OW  476   1.841   2.037   2.825
  947SOL    HW1  477   1.880   1.952   2.789
  947SOL    HW2  478   1.743   2.039   2.806
  949SOL     OW  479   1.194   3.474   1.893
  949SOL    HW1  480   1.200   3.381   1.930
  949SOL    HW2  481   1.135   3.474   1.813
  951SOL     OW  482   0.916   2.772   2.153
  951SOL    HW1  483   0.979   2.810   2.085
  951SOL    HW2  484   0.956   2.689   2.192
  952SOL     OW  485   1.504   3.469   1.906
  952SOL    HW1  486   1.412   3.506   1.913
  952SOL    HW2  487   1.542   3.489   1.816
  954SOL     OW  488   1.614   3.154   3.151
  954SOL    HW1  489   1.674   3.157   3.231
  954SOL    HW2  490   1.539   3.218   3.164
  955SOL     OW  491   1.039   2.960   2.558
  955SOL    HW1  492   0.969   2.913   2.612
  955SOL    HW2  493   1.098   2.892   2.515
  956SOL     OW  494   1.014   2.098   2.833
  956SOL    HW1  495   1.006   2.062   2.740
  956SOL    HW2  496   1.012   2.022   2.898
  958SOL     OW  497   1.709   2.247   3.243
  958SOL    HW1  498   1.782   2.316   3.247
  958SOL    HW2  499   1.737   2.172   3.184
  963SOL     OW  500   1.440   2.718   3.260
  963SOL    HW1  501   1.383   2.770   3.197
  963SOL    HW2  502   1.536   2.730   3.236
  965SOL     OW  503   1.183   3.197   1.981
  965SOL    HW1  504   1.084   3.186   1.983
  965SOL    HW2  505   1.217   3.212   2.074
  967SOL     OW  506   1.493   3.629   2.821
  967SOL    HW1  507   1.526   3.693   2.752
  967SOL    HW2  508   1.559   3.623   2.896
  969SOL     OW  509   1.450   3.082   3.495
  969SOL    HW1  510   1.441   3.072   3.594
  969SOL    HW2  511   1.546   3.075   3.469
  971SOL     OW  512   1.674   2.745   3.116
  971SOL    HW1  513   1.647   2.656   3.079
  971SOL    HW2  514   1.675   2.813   3.043
  972SOL     OW  515   1.225   2.187   2.311
  972SOL    HW1  516   1.290   2.113   2.300
  972SOL    HW2  517   1.245   2.237   2.395
  974SOL     OW  518   1.777   2.204   3.504
  974SOL    HW1  519   1.760   2.235   3.410
  974SOL    HW2  520   1.693   2.167   3.542
  975SOL     OW  521   1.730   2.796   3.379
  975SOL    HW1  522   1.768   2.887   3.394
  975SOL    HW2  523   1.722   2.779   3.280
  978SOL     OW  524   0.859   2.818   2.723
  978SOL    HW1  525   0.913   2.749   2.771
  978SOL    HW2  526   0.827   2.887   2.789
  979SOL     OW  527   1.083   2.846   1.949
  979SOL    HW1  528   1.060   2.899   1.867
  979SOL    HW2  529   1.164   2.790   1.930
  980SOL     OW  530   1.861   3.431   2.713
  980SOL    HW1  531   1.790   3.419   2.643
  980SOL    HW2  532   1.862   3.352   2.773
  984SOL     OW  533   1.824   2.054   3.089
  984SOL    HW1  534   1.820   1.964   3.133
  984SOL    HW2  535   1.827   2.043   2.990
  986SOL     OW  536   1.705   3.349   2.966
  986SOL    HW1  537   1.612   3.324   2.939
  986SOL    HW2  538   1.731   3.299   3.048
  989SOL     OW  539   1.424   2.076   2.974
  989SOL    HW1  540   1.476   2.011   3.029
  989SOL    HW2  541   1.375   2.139   3.035
  990SOL     OW  542   1.001   1.896   3.016
  990SOL    HW1  543   0.938   1.824   2.985
  990SOL    HW2  544   1.094   1.860   3.016
  993SOL     OW  545   1.352   1.914   2.030
  993SOL    HW1  546   1.387   1.873   1.946
  993SOL    HW2  547   1.262   1.876   2.050
  994SOL     OW  548   1.300   2.315   2.553
  994SOL    HW1  549   1.241   2.395   2.557
  994SOL    HW2  550   1.315   2.280   2.646
  995SOL     OW  551   1.593   2.083   2.744
  995SOL    HW1  552   1.509   2.082   2.798
  995SOL    HW2  553   1.595   2.166   2.688
 1004SOL     OW  554   1.755   2.469   3.955
 1004SOL    HW1  555   1.743   2.456   3.856
 1004SOL    HW2  556   1.725   2.388   4.004
 1021SOL     OW  557   1.525   2.861   3.914
 1021SOL    HW1  558   1.462   2.785   3.927
 1021SOL    HW2  559   1.573   2.879   4.000
 1039SOL     OW  560   1.632   3.239   3.805
 1039SOL    HW1  561   1.600   3.333   3.795
 1039SOL    HW2  562   1.556   3.176   3.793
 1049SOL     OW  563   1.434   3.050   3.765
 1049SOL    HW1  564   1.466   2.974   3.822
 1049SOL    HW2  565   1.342   3.077   3.795
 1060SOL     OW  566   1.857   2.695   4.101
 1060SOL    HW1  567   1.899   2.631   4.165
 1060SOL    HW2  568   1.819   2.644   4.023
 1063SOL     OW  569   1.390   2.437   3.802
 1063SOL    HW1  570   1.336   2.416   3.883
 1063SOL    HW2  571   1.481   2.396   3.811
 1083SOL     OW  572   1.540   2.136   3.849
 1083SOL    HW1  573   1.479   2.061   3.872
 1083SOL    HW2  574   1.562   2.188   3.932
 1084SOL     OW  575   1.303   2.700   3.766
 1084SOL    HW1  576   1.337   2.607   3.781
 1084SOL    HW2  577   1.321   2.727   3.671
 1326SOL     OW  578   1.400   3.831   2.288
 1326SOL    HW1  579   1.376   3.794   2.198
 1326SOL    HW2  580   1.499   3.847   2.292
 1392SOL     OW  581   1.726   3.859   2.385
 1392SOL    HW1  582   1.799   3.842   2.318
 1392SOL    HW2  583   1.695   3.772   2.423
 1394SOL     OW  584   1.841   3.899   2.825
 1394SOL    HW1  585   1.880   3.814   2.789
 1394SOL    HW2  586   1.743   3.901   2.806
 1419SOL     OW  587   1.824   3.916   3.089
 1419SOL    HW1  588   1.820   3.826   3.133
 1419SOL    HW2  589   1.827   3.905   2.990
 1425SOL     OW  590   1.352   3.776   2.030
 1425SOL    HW1  591   1.387   3.735   1.946
 1425SOL    HW2  592   1.262   3.738   2.050
 1427SOL     OW  593   1.593   3.945   2.744
 1427SOL    HW1  594   1.509   3.944   2.798
 1427SOL    HW2  595   1.595   4.028   2.688
 1539SOL     OW  596   2.548   1.161   1.803
 1539SOL    HW1  597   2.608   1.240   1.817
 1539SOL    HW2  598   2.462   1.192   1.762
 1541SOL     OW  599   3.322   1.505   1.339
 1541SOL    HW1  600   3.346   1.599   1.365
 1541SOL    HW2  601   3.306   1.451   1.421
 1545SOL     OW  602   2.989   1.341   1.690
 1545SOL    HW1  603   3.036   1.341   1.778
 1545SOL    HW2  604   2.941   1.254   1.679
 1548SOL     OW  605   2.482   1.786   1.439
 1548SOL    HW1  606   2.390   1.769   1.474
 1548SOL    HW2  607   2.510   1.878   1.465
 1558SOL     OW  608   3.155   1.228   1.423
 1558SOL    HW1  609   3.192   1.155   1.365
 1558SOL    HW2  610   3.207   1.233   1.508
 1562SOL     OW  611   3.049   1.792   1.616
 1562SOL    HW1  612   3.073   1.852   1.540
 1562SOL    HW2  613   3.056   1.697   1.586
 1575SOL     OW  614   1.992   1.821   1.571
 1575SOL    HW1  615   1.982   1.806   1.670
 1575SOL    HW2  616   1.906   1.857   1.535
 1583SOL     OW  617   3.089   1.550   1.506
 1583SOL    HW1  618   3.095   1.473   1.570
 1583SOL    HW2  619   3.037   1.524   1.426
 1586SOL     OW  620   2.323   1.266   1.727
 1586SOL    HW1  621   2.273   1.267   1.641
 1586SOL    HW2  622   2.260   1.248   1.803
 1592SOL     OW  623   2.111   1.785   1.241
 1592SOL    HW1  624   2.168   1.720   1.291
 1592SOL    HW2  625   2.095   1.752   1.148
 1598SOL     OW  626   2.750   1.514   1.195
 1598SOL    HW1  627   2.727   1.489   1.101
 1598SOL    HW2  628   2.811   1.445   1.234
 1623SOL     OW  629   2.926   1.347   1.340
 1623SOL    HW1  630   2.846   1.324   1.395
 1623SOL    HW2  631   3.009   1.321   1.389
 1624SOL     OW  632   3.454   1.629   1.625
 1624SOL    HW1  633   3.481   1.663   1.535
 1624SOL    HW2  634   3.533   1.591   1.671
 1628SOL     OW  635   2.842   1.116   1.719
 1628SOL    HW1  636   2.743   1.122   1.729
 1628SOL    HW2  637   2.865   1.036   1.663
 1632SOL     OW  638   1.926   1.564   1.331
 1632SOL    HW1  639   1.880   1.646   1.297
 1632SOL    HW2  640   2.024   1.583   1.340
 1638SOL     OW  641   2.216   1.510   1.329
 1638SOL    HW1  642   2.195   1.466   1.242
 1638SOL    HW2  643   2.313   1.536   1.332
 1653SOL     OW  644   2.842   1.573   1.700
 1653SOL    HW1  645   2.822   1.617   1.612
 1653SOL    HW2  646   2.881   1.482   1.684
 1655SOL     OW  647   2.212   0.898   1.804
 1655SOL    HW1  648   2.288   0.942   1.852
 1655SOL    HW2  649   2.247   0.851   1.722
 1672SOL     OW  650   2.114   1.564   1.744
 1672SOL    HW1  651   2.084   1.621   1.820
 1672SOL    HW2  652   2.107   1.467   1.770
 1674SOL     OW  653   2.792   1.678   1.465
 1674SOL    HW1  654   2.768   1.660   1.370
 1674SOL    HW2  655   2.822   1.772   1.475
 1676SOL     OW  656   2.021   1.137   1.466
 1676SOL    HW1  657   2.043   1.076   1.542
 1676SOL    HW2  658   2.031   1.088   1.380
 1680SOL     OW  659   3.114   1.731   1.128
 1680SOL    HW1  660   3.198   1.736   1.074
 1680SOL    HW2  661   3.091   1.635   1.146
 1682SOL     OW  662   2.550   1.662   1.716
 1682SOL    HW1  663   2.494   1.743   1.725
 1682SOL    HW2  664   2.602   1.666   1.630
 1686SOL     OW  665   1.992   1.794   1.851
 1686SOL    HW1  666   1.951   1.720   1.904
 1686SOL    HW2  667   2.056   1.845   1.909
 1688SOL     OW  668   2.692   1.273   1.422
 1688SOL    HW1  669   2.687   1.306   1.517
 1688SOL    HW2  670   2.606   1.292   1.376
 1690SOL     OW  671   3.512   1.720   1.394
 1690SOL    HW1  672   3.565   1.730   1.310
 1690SOL    HW2  673   3.485   1.810   1.428
 1697SOL     OW  674   2.234   1.288   1.490
 1697SOL    HW1  675   2.221   1.381   1.456
 1697SOL    HW2  676   2.150   1.236   1.477
 1704SOL     OW  677   1.967   1.013   1.726
 1704SOL    HW1  678   1.890   0.980   1.780
 1704SOL    HW2  679   2.052   0.983   1.768
 1712SOL     OW  680   3.312   1.220   1.633
 1712SOL    HW1  681   3.303   1.210   1.732
 1712SOL    HW2  682   3.408   1.213   1.607
 1713SOL     OW  683   2.252   1.741   1.560
 1713SOL    HW1  684   2.161   1.782   1.558
 1713SOL    HW2  685   2.245   1.647   1.592
 1720SOL     OW  686   2.523   1.790   0.953
 1720SOL    HW1  687   2.477   1.878   0.940
 1720SOL    HW2  688   2.622   1.802   0.946
 1724SOL     OW  689   2.083   1.314   1.844
 1724SOL    HW1  690   2.018   1.241   1.823
 1724SOL    HW2  691   2.087   1.328   1.942
 1726SOL     OW  692   2.534   1.391   1.624
 1726SOL    HW1  693   2.456   1.341   1.662
 1726SOL    HW2  694   2.531   1.486   1.655
 1735SOL     OW  695   2.480   1.567   1.284
 1735SOL    HW1  696   2.475   1.649   1.341
 1735SOL    HW2  697   2.569   1.564   1.239
 1743SOL     OW  698   2.431   1.275   3.027
 1743SOL    HW1  699   2.338   1.268   2.990
 1743SOL    HW2  700   2.442   1.364   3.071
 1744SOL     OW  701   3.417   1.511   2.565
 1744SOL    HW1  702   3.360   1.495   2.646
 1744SOL    HW2  703   3.358   1.521   2.485
 1747SOL     OW  704   2.630   1.144   2.885
 1747SOL    HW1  705   2.552   1.161   2.945
 1747SOL    HW2  706   2.664   1.231   2.849
 1749SOL     OW  707   2.547   1.012   2.527
 1749SOL    HW1  708   2.616   0.996   2.597
 1749SOL    HW2  709   2.474   1.069   2.565
 1750SOL     OW  710   2.548   1.161   3.665
 1750SOL    HW1  711   2.608   1.240   3.679
 1750SOL    HW2  712   2.462   1.192   3.624
 1751SOL     OW  713   2.197   1.435   2.923
 1751SOL    HW1  714   2.119   1.404   2.870
 1751SOL    HW2  715   2.255   1.493   2.866
 1752SOL     OW  716   3.322   1.505   3.201
 1752SOL    HW1  717   3.346   1.599   3.227
 1752SOL    HW2  718   3.306   1.451   3.283
 1755SOL     OW  719   2.093   1.713   2.345
 1755SOL    HW1  720   2.127   1.790   2.399
 1755SOL    HW2  721   2.137   1.713   2.255
 1756SOL     OW  722   2.989   1.341   3.552
 1756SOL    HW1  723   3.036   1.341   3.640
 1756SOL    HW2  724   2.941   1.254   3.541
 1757SOL     OW  725   2.092   1.434   2.400
 1757SOL    HW1  726   2.066   1.530   2.400
 1757SOL    HW2  727   2.021   1.380   2.445
 1758SOL     OW  728   2.102   1.091   2.748
 1758SOL    HW1  729   2.116   1.007   2.800
 1758SOL    HW2  730   2.047   1.155   2.803
 1759SOL     OW  731   2.482   1.786   3.301
 1759SOL    HW1  732   2.390   1.769   3.336
 1759SOL    HW2  733   2.510   1.878   3.327
 1760SOL     OW  734   2.468   0.964   1.985
 1760SOL    HW1  735   2.475   1.048   1.931
 1760SOL    HW2  736   2.514   0.977   2.073
 1763SOL     OW  737   3.704   1.767   2.221
 1763SOL    HW1  738   3.758   1.738   2.301
 1763SOL    HW2  739   3.734   1.857   2.192
 1764SOL     OW  740   1.889   1.596   1.979
 1764SOL    HW1  741   1.870   1.500   2.000
 1764SOL    HW2  742   1.856   1.654   2.054
 1766SOL     OW  743   3.503   1.108   2.294
 1766SOL    HW1  744   3.589   1.110   2.242
 1766SOL    HW2  745   3.517   1.155   2.382
 1768SOL     OW  746   2.475   1.365   2.588
 1768SOL    HW1  747   2.426   1.278   2.597
 1768SOL    HW2  748   2.452   1.408   2.501
 1769SOL     OW  749   3.155   1.228   3.285
 1769SOL    HW1  750   3.192   1.155   3.227
 1769SOL    HW2  751   3.207   1.233   3.370
 1771SOL     OW  752   2.059   0.976   3.126
 1771SOL    HW1  753   2.148   0.931   3.112
 1771SOL    HW2  754   1.986   0.911   3.107
 1773SOL     OW  755   3.049   1.792   3.478
 1773SOL    HW1  756   3.073   1.852   3.402
 1773SOL    HW2  757   3.056   1.697   3.448
 1775SOL     OW  758   3.328   1.417   2.815
 1775SOL    HW1  759   3.269   1.423   2.895
 1775SOL    HW2  760   3.313   1.329   2.769
 1776SOL     OW  761   3.529   1.714   2.434
 1776SOL    HW1  762   3.488   1.691   2.346
 1776SOL    HW2  763   3.511   1.640   2.499
 1779SOL     OW  764   3.438   1.662   2.169
 1779SOL    HW1  765   3.527   1.708   2.172
 1779SOL    HW2  766   3.417   1.638   2.074
 1785SOL     OW  767   1.938   0.811   2.651
 1785SOL    HW1  768   2.037   0.799   2.660
 1785SOL    HW2  769   1.914   0.906   2.672
 1786SOL     OW  770   1.992   1.821   3.433
 1786SOL    HW1  771   1.982   1.806   3.532
 1786SOL    HW2  772   1.906   1.857   3.397
 1789SOL     OW  773   3.224   1.144   2.407
 1789SOL    HW1  774   3.307   1.115   2.359
 1789SOL    HW2  775   3.175   1.211   2.351
 1791SOL     OW  776   2.870   1.456   2.339
 1791SOL    HW1  777   2.824   1.528   2.287
 1791SOL    HW2  778   2.866   1.476   2.437
 1792SOL     OW  779   2.213   1.801   2.715
 1792SOL    HW1  780   2.263   1.715   2.721
 1792SOL    HW2  781   2.278   1.878   2.712
 1794SOL     OW  782   3.089   1.550   3.368
 1794SOL    HW1  783   3.095   1.473   3.432
 1794SOL    HW2  784   3.037   1.524   3.288
 1795SOL     OW  785   2.183   0.943   2.104
 1795SOL    HW1  786   2.265   0.982   2.062
 1795SOL    HW2  787   2.156   0.861   2.055
 1797SOL     OW  788   2.323   1.266   3.589
 1797SOL    HW1  789   2.273   1.267   3.503
 1797SOL    HW2  790   2.260   1.248   3.665
 1798SOL     OW  791   2.973   1.776   2.099
 1798SOL    HW1  792   2.913   1.714   2.149
 1798SOL    HW2  793   3.004   1.732   2.014
 1800SOL     OW  794   3.494   1.377   1.943
 1800SOL    HW1  795   3.462   1.471   1.933
 1800SOL    HW2  796   3.418   1.314   1.931
 1801SOL     OW  797   2.326   1.743   2.185
 1801SOL    HW1  798   2.359   1.782   2.271
 1801SOL    HW2  799   2.402   1.736   2.120
 1803SOL     OW  800   2.111   1.785   3.103
 1803SOL    HW1  801   2.168   1.720   3.153
 1803SOL    HW2  802   2.095   1.752   3.010
 1804SOL     OW  803   2.802   1.698   2.766
 1804SOL    HW1  804   2.882   1.641   2.787
 1804SOL    HW2  805   2.753   1.658   2.689
 1809SOL     OW  806   2.750   1.514   3.057
 1809SOL    HW1  807   2.727   1.489   2.963
 1809SOL    HW2  808   2.811   1.445   3.096
 1811SOL     OW  809   2.665   1.402   2.786
 1811SOL    HW1  810   2.755   1.416   2.744
 1811SOL    HW2  811   2.594   1.404   2.715
 1814SOL     OW  812   3.296   1.188   1.903
 1814SOL    HW1  813   3.328   1.112   1.960
 1814SOL    HW2  814   3.204   1.215   1.933
 1818SOL     OW  815   3.089   1.570   2.655
 1818SOL    HW1  816   3.110   1.644   2.590
 1818SOL    HW2  817   3.157   1.570   2.728
 1819SOL     OW  818   2.321   1.152   2.603
 1819SOL    HW1  819   2.250   1.125   2.668
 1819SOL    HW2  820   2.295   1.124   2.510
 1820SOL     OW  821   3.133   1.797   2.453
 1820SOL    HW1  822   3.177   1.861   2.389
 1820SOL    HW2  823   3.083   1.849   2.523
 1826SOL     OW  824   3.291   1.173   2.729
 1826SOL    HW1  825   3.236   1.089   2.722
 1826SOL    HW2  826   3.317   1.202   2.637
 1829SOL     OW  827   2.350   1.385   2.036
 1829SOL    HW1  828   2.263   1.370   2.083
 1829SOL    HW2  829   2.333   1.411   1.941
 1830SOL     OW  830   3.526   1.280   2.519
 1830SOL    HW1  831   3.625   1.288   2.533
 1830SOL    HW2  832   3.481   1.364   2.550
 1834SOL     OW  833   2.926   1.347   3.202
 1834SOL    HW1  834   2.846   1.324   3.257
 1834SOL    HW2  835   3.009   1.321   3.251
 1835SOL     OW  836   3.454   1.629   3.487
 1835SOL    HW1  837   3.481   1.663   3.397
 1835SOL    HW2  838   3.533   1.591   3.533
 1836SOL     OW  839   2.973   1.195   2.962
 1836SOL    HW1  840   2.933   1.239   3.043
 1836SOL    HW2  841   2.932   1.232   2.879
 1837SOL     OW  842   3.500   1.099   2.941
 1837SOL    HW1  843   3.505   1.180   3.000
 1837SOL    HW2  844   3.414   1.101   2.890
 1839SOL     OW  845   2.842   1.116   3.581
 1839SOL    HW1  846   2.743   1.122   3.591
 1839SOL    HW2  847   2.865   1.036   3.525
 1840SOL     OW  848   2.567   1.050   2.230
 1840SOL    HW1  849   2.553   1.057   2.329
 1840SOL    HW2  850   2.651   0.999   2.212
 1843SOL     OW  851   1.926   1.564   3.193
 1843SOL    HW1  852   1.880   1.646   3.159
 1843SOL    HW2  853   2.024   1.583   3.202
 1844SOL     OW  854   2.229   1.100   2.363
 1844SOL    HW1  855   2.222   1.183   2.307
 1844SOL    HW2  856   2.233   1.020   2.303
 1846SOL     OW  857   3.114   1.348   2.250
 1846SOL    HW1  858   3.164   1.425   2.290
 1846SOL    HW2  859   3.019   1.350   2.282
 1847SOL     OW  860   3.134   1.445   3.004
 1847SOL    HW1  861   3.181   1.458   3.091
 1847SOL    HW2  862   3.068   1.371   3.013
 1849SOL     OW  863   2.216   1.510   3.191
 1849SOL    HW1  864   2.195   1.466   3.104
 1849SOL    HW2  865   2.313   1.536   3.194
 1854SOL     OW  866   2.435   0.870   2.891
 1854SOL    HW1  867   2.479   0.959   2.882
 1854SOL    HW2  868   2.372   0.870   2.968
 1858SOL     OW  869   1.899   1.310   3.144
 1858SOL    HW1  870   1.952   1.261   3.212
 1858SOL    HW2  871   1.921   1.408   3.149
 1864SOL     OW  872   2.842   1.573   3.562
 1864SOL    HW1  873   2.822   1.617   3.474
 1864SOL    HW2  874   2.881   1.482   3.546
 1869SOL     OW  875   2.930   1.333   2.711
 1869SOL    HW1  876   2.937   1.249   2.656
 1869SOL    HW2  877   2.992   1.402   2.675
 1870SOL     OW  878   2.181   0.810   2.811
 1870SOL    HW1  879   2.274   0.846   2.816
 1870SOL    HW2  880   2.175   0.725   2.863
 1874SOL     OW  881   1.870   1.326   2.062
 1874SOL    HW1  882   1.777   1.347   2.031
 1874SOL    HW2  883   1.880   1.227   2.075
 1875SOL     OW  884   1.950   1.801   2.789
 1875SOL    HW1  885   1.908   1.715   2.762
 1875SOL    HW2  886   2.044   1.804   2.755
 1876SOL     OW  887   2.366   1.568   2.772
 1876SOL    HW1  888   2.432   1.642   2.781
 1876SOL    HW2  889   2.410   1.489   2.730
 1883SOL     OW  890   2.114   1.564   3.606
 1883SOL    HW1  891   2.084   1.621   3.682
 1883SOL    HW2  892   2.107   1.467   3.632
 1885SOL     OW  893   2.792   1.678   3.327
 1885SOL    HW1  894   2.768   1.660   3.232
 1885SOL    HW2  895   2.822   1.772   3.337
 1887SOL     OW  896   2.021   1.137   3.328
 1887SOL    HW1  897   2.043   1.076   3.404
 1887SOL    HW2  898   2.031   1.088   3.242
 1888SOL     OW  899   3.209   1.059   3.096
 1888SOL    HW1  900   3.233   0.996   3.022
 1888SOL    HW2  901   3.119   1.099   3.078
 1890SOL     OW  902   3.621   1.747   3.016
 1890SOL    HW1  903   3.682   1.777   2.943
 1890SOL    HW2  904   3.583   1.658   2.994
 1891SOL     OW  905   3.114   1.731   2.990
 1891SOL    HW1  906   3.198   1.736   2.936
 1891SOL    HW2  907   3.091   1.635   3.008
 1892SOL     OW  908   1.945   1.258   2.884
 1892SOL    HW1  909   1.940   1.257   2.984
 1892SOL    HW2  910   1.862   1.217   2.846
 1893SOL     OW  911   2.550   1.662   3.578
 1893SOL    HW1  912   2.494   1.743   3.587
 1893SOL    HW2  913   2.602   1.666   3.492
 1895SOL     OW  914   3.250   1.573   2.339
 1895SOL    HW1  915   3.317   1.585   2.265
 1895SOL    HW2  916   3.210   1.662   2.362
 1896SOL     OW  917   1.992   1.794   3.713
 1896SOL    HW1  918   1.951   1.720   3.766
 1896SOL    HW2  919   2.056   1.845   3.771
 1897SOL     OW  920   3.142   0.927   2.534
 1897SOL    HW1  921   3.202   0.846   2.536
 1897SOL    HW2  922   3.182   0.996   2.474
 1898SOL     OW  923   2.692   1.273   3.284
 1898SOL    HW1  924   2.687   1.306   3.379
 1898SOL    HW2  925   2.606   1.292   3.238
 1899SOL     OW  926   2.534   1.616   2.016
 1899SOL    HW1  927   2.543   1.626   1.917
 1899SOL    HW2  928   2.494   1.527   2.037
 1900SOL     OW  929   3.512   1.720   3.256
 1900SOL    HW1  930   3.565   1.730   3.172
 1900SOL    HW2  931   3.485   1.810   3.290
 1903SOL     OW  932   3.056   1.612   1.893
 1903SOL    HW1  933   3.062   1.519   1.930
 1903SOL    HW2  934   2.997   1.612   1.813
 1904SOL     OW  935   2.684   1.002   3.234
 1904SOL    HW1  936   2.724   1.001   3.142
 1904SOL    HW2  937   2.694   1.094   3.274
 1905SOL     OW  938   2.778   0.910   2.153
 1905SOL    HW1  939   2.841   0.948   2.085
 1905SOL    HW2  940   2.818   0.827   2.192
 1906SOL     OW  941   3.366   1.607   1.906
 1906SOL    HW1  942   3.274   1.644   1.913
 1906SOL    HW2  943   3.404   1.627   1.816
 1907SOL     OW  944   2.234   1.288   3.352
 1907SOL    HW1  945   2.221   1.381   3.318
 1907SOL    HW2  946   2.150   1.236   3.339
 1908SOL     OW  947   3.476   1.292   3.151
 1908SOL    HW1  948   3.536   1.295   3.231
 1908SOL    HW2  949   3.401   1.356   3.164
 1909SOL     OW  950   2.901   1.098   2.558
 1909SOL    HW1  951   2.831   1.051   2.612
 1909SOL    HW2  952   2.960   1.030   2.515
 1911SOL     OW  953   2.452   1.487   2.353
 1911SOL    HW1  954   2.494   1.429   2.283
 1911SOL    HW2  955   2.408   1.566   2.309
 1913SOL     OW  956   2.117   1.348   2.152
 1913SOL    HW1  957   2.021   1.349   2.125
 1913SOL    HW2  958   2.129   1.401   2.236
 1919SOL     OW  959   3.045   1.335   1.981
 1919SOL    HW1  960   2.946   1.324   1.983
 1919SOL    HW2  961   3.079   1.350   2.074
 1921SOL     OW  962   3.355   1.767   2.821
 1921SOL    HW1  963   3.388   1.831   2.752
 1921SOL    HW2  964   3.421   1.761   2.896
 1924SOL     OW  965   2.252   1.741   3.422
 1924SOL    HW1  966   2.161   1.782   3.420
 1924SOL    HW2  967   2.245   1.647   3.454
 1927SOL     OW  968   2.456   0.745   2.514
 1927SOL    HW1  969   2.506   0.830   2.495
 1927SOL    HW2  970   2.368   0.747   2.466
 1930SOL     OW  971   2.721   1.374   1.878
 1930SOL    HW1  972   2.675   1.389   1.966
 1930SOL    HW2  973   2.765   1.459   1.848
 1931SOL     OW  974   2.523   1.790   2.815
 1931SOL    HW1  975   2.477   1.878   2.802
 1931SOL    HW2  976   2.622   1.802   2.808
 1932SOL     OW  977   2.721   0.956   2.723
 1932SOL    HW1  978   2.775   0.887   2.771
 1932SOL    HW2  979   2.689   1.025   2.789
 1933SOL     OW  980   2.945   0.984   1.949
 1933SOL    HW1  981   2.922   1.037   1.867
 1933SOL    HW2  982   3.026   0.928   1.930
 1934SOL     OW  983   3.723   1.569   2.713
 1934SOL    HW1  984   3.652   1.557   2.643
 1934SOL    HW2  985   3.724   1.490   2.773
 1935SOL     OW  986   2.083   1.314   3.706
 1935SOL    HW1  987   2.018   1.241   3.685
 1935SOL    HW2  988   2.087   1.328   3.804
 1936SOL     OW  989   1.941   1.240   2.515
 1936SOL    HW1  990   1.940   1.193   2.603
 1936SOL    HW2  991   2.023   1.212   2.464
 1937SOL     OW  992   2.534   1.391   3.486
 1937SOL    HW1  993   2.456   1.341   3.524
 1937SOL    HW2  994   2.531   1.486   3.517
 1940SOL     OW  995   3.567   1.487   2.966
 1940SOL    HW1  996   3.474   1.462   2.939
 1940SOL    HW2  997   3.593   1.437   3.048
 1942SOL     OW  998   2.674   1.586   2.549
 1942SOL    HW1  999   2.706   1.596   2.455
 1942SOL    HW2 1000   2.595   1.524   2.551
 1945SOL     OW 1001   2.632   1.330   2.163
 1945SOL    HW1 1002   2.586   1.243   2.180
 1945SOL    HW2 1003   2.723   1.327   2.204
 1946SOL     OW 1004   2.480   1.567   3.146
 1946SOL    HW1 1005   2.475   1.649   3.203
 1946SOL    HW2 1006   2.569   1.564   3.101
 1950SOL     OW 1007   1.901   1.077   2.162
 1950SOL    HW1 1008   2.000   1.066   2.153
 1950SOL    HW2 1009   1.861   0.991   2.194
 1951SOL     OW 1010   2.737   1.646   2.199
 1951SOL    HW1 1011   2.660   1.611   2.145
 1951SOL    HW2 1012   2.705   1.717   2.261
 1969SOL     OW 1013   1.889   1.596   3.841
 1969SOL    HW1 1014   1.870   1.500   3.862
 1969SOL    HW2 1015   1.856   1.654   3.916
 1991SOL     OW 1016   2.973   1.776   3.961
 1991SOL    HW1 1017   2.913   1.714   4.011
 1991SOL    HW2 1018   3.004   1.732   3.876
 1993SOL     OW 1019   2.326   1.743   4.047
 1993SOL    HW1 1020   2.359   1.782   4.133
 1993SOL    HW2 1021   2.402   1.736   3.982
 2014SOL     OW 1022   2.350   1.385   3.898
 2014SOL    HW1 1023   2.263   1.370   3.945
 2014SOL    HW2 1024   2.333   1.411   3.803
 2059SOL     OW 1025   2.534   1.616   3.878
 2059SOL    HW1 1026   2.543   1.626   3.779
 2059SOL    HW2 1027   2.494   1.527   3.899
 2063SOL     OW 1028   3.056   1.612   3.755
 2063SOL    HW1 1029   3.062   1.519   3.792
 2063SOL    HW2 1030   2.997   1.612   3.675
 2066SOL     OW 1031   3.366   1.607   3.768
 2066SOL    HW1 1032   3.274   1.644   3.775
 2066SOL    HW2 1033   3.404   1.627   3.678
 2080SOL     OW 1034   2.721   1.374   3.740
 2080SOL    HW1 1035   2.675   1.389   3.828
 2080SOL    HW2 1036   2.765   1.459   3.710
 2097SOL     OW 1037   2.737   1.646   4.061
 2097SOL    HW1 1038   2.660   1.611   4.007
 2097SOL    HW2 1039   2.705   1.717   4.123
 2099SOL     OW 1040   2.087   2.137   0.996
 2099SOL    HW1 1041   2.122   2.120   1.088
 2099SOL    HW2 1042   1.999   2.092   0.984
 2101SOL     OW 1043   2.431   3.137   1.165
 2101SOL    HW1 1044   2.338   3.130   1.128
 2101SOL    HW2 1045   2.442   3.226   1.209
 2105SOL     OW 1046   2.630   3.006   1.023
 2105SOL    HW1 1047   2.552   3.023   1.083
 2105SOL    HW2 1048   2.664   3.093   0.987
 2106SOL     OW 1049   2.712   2.660   1.823
 2106SOL    HW1 1050   2.708   2.736   1.888
 2106SOL    HW2 1051   2.734   2.696   1.732
 2108SOL     OW 1052   2.548   3.023   1.803
 2108SOL    HW1 1053   2.608   3.102   1.817
 2108SOL    HW2 1054   2.462   3.054   1.762
 2109SOL     OW 1055   2.197   3.297   1.061
 2109SOL    HW1 1056   2.119   3.266   1.008
 2109SOL    HW2 1057   2.255   3.355   1.004
 2110SOL     OW 1058   3.322   3.367   1.339
 2110SOL    HW1 1059   3.346   3.461   1.365
 2110SOL    HW2 1060   3.306   3.313   1.421
 2111SOL     OW 1061   2.300   2.254   1.499
 2111SOL    HW1 1062   2.382   2.198   1.508
 2111SOL    HW2 1063   2.219   2.196   1.503
 2114SOL     OW 1064   2.989   3.203   1.690
 2114SOL    HW1 1065   3.036   3.203   1.778
 2114SOL    HW2 1066   2.941   3.116   1.679
 2116SOL     OW 1067   2.102   2.953   0.886
 2116SOL    HW1 1068   2.116   2.869   0.938
 2116SOL    HW2 1069   2.047   3.017   0.941
 2117SOL     OW 1070   2.482   3.648   1.439
 2117SOL    HW1 1071   2.390   3.631   1.474
 2117SOL    HW2 1072   2.510   3.740   1.465
 2119SOL     OW 1073   3.456   1.976   1.480
 2119SOL    HW1 1074   3.438   2.043   1.408
 2119SOL    HW2 1075   3.453   2.022   1.569
 2125SOL     OW 1076   1.975   2.599   1.597
 2125SOL    HW1 1077   2.063   2.586   1.642
 2125SOL    HW2 1078   1.962   2.696   1.575
 2127SOL     OW 1079   3.155   3.090   1.423
 2127SOL    HW1 1080   3.192   3.017   1.365
 2127SOL    HW2 1081   3.207   3.095   1.508
 2129SOL     OW 1082   2.059   2.838   1.264
 2129SOL    HW1 1083   2.148   2.793   1.250
 2129SOL    HW2 1084   1.986   2.773   1.245
 2131SOL     OW 1085   3.049   3.654   1.616
 2131SOL    HW1 1086   3.073   3.714   1.540
 2131SOL    HW2 1087   3.056   3.559   1.586
 2132SOL     OW 1088   2.179   2.113   1.801
 2132SOL    HW1 1089   2.250   2.184   1.807
 2132SOL    HW2 1090   2.091   2.152   1.829
 2136SOL     OW 1091   3.143   2.207   0.944
 2136SOL    HW1 1092   3.057   2.157   0.931
 2136SOL    HW2 1093   3.205   2.153   1.000
 2138SOL     OW 1094   2.669   2.467   1.465
 2138SOL    HW1 1095   2.622   2.464   1.554
 2138SOL    HW2 1096   2.618   2.412   1.399
 2139SOL     OW 1097   3.256   2.331   1.674
 2139SOL    HW1 1098   3.236   2.374   1.762
 2139SOL    HW2 1099   3.334   2.269   1.683
 2140SOL     OW 1100   2.835   2.752   1.572
 2140SOL    HW1 1101   2.881   2.668   1.543
 2140SOL    HW2 1102   2.779   2.786   1.497
 2141SOL     OW 1103   2.853   2.272   1.242
 2141SOL    HW1 1104   2.776   2.306   1.296
 2141SOL    HW2 1105   2.819   2.221   1.163
 2144SOL     OW 1106   1.992   3.683   1.571
 2144SOL    HW1 1107   1.982   3.668   1.670
 2144SOL    HW2 1108   1.906   3.719   1.535
 2146SOL     OW 1109   3.581   2.447   1.831
 2146SOL    HW1 1110   3.555   2.536   1.795
 2146SOL    HW2 1111   3.579   2.379   1.758
 2148SOL     OW 1112   2.412   2.058   0.885
 2148SOL    HW1 1113   2.407   2.053   0.985
 2148SOL    HW2 1114   2.414   2.154   0.856
 2152SOL     OW 1115   3.089   3.412   1.506
 2152SOL    HW1 1116   3.095   3.335   1.570
 2152SOL    HW2 1117   3.037   3.386   1.426
 2155SOL     OW 1118   2.323   3.128   1.727
 2155SOL    HW1 1119   2.273   3.129   1.641
 2155SOL    HW2 1120   2.260   3.110   1.803
 2157SOL     OW 1121   2.064   2.147   1.498
 2157SOL    HW1 1122   1.984   2.207   1.485
 2157SOL    HW2 1123   2.054   2.098   1.584
 2161SOL     OW 1124   2.111   3.647   1.241
 2161SOL    HW1 1125   2.168   3.582   1.291
 2161SOL    HW2 1126   2.095   3.614   1.148
 2164SOL     OW 1127   3.409   2.084   1.729
 2164SOL    HW1 1128   3.404   2.121   1.821
 2164SOL    HW2 1129   3.337   2.015   1.717
 2166SOL     OW 1130   2.643   2.126   1.749
 2166SOL    HW1 1131   2.710   2.065   1.792
 2166SOL    HW2 1132   2.570   2.145   1.814
 2167SOL     OW 1133   2.750   3.376   1.195
 2167SOL    HW1 1134   2.727   3.351   1.101
 2167SOL    HW2 1135   2.811   3.307   1.234
 2168SOL     OW 1136   3.213   2.452   1.433
 2168SOL    HW1 1137   3.241   2.409   1.518
 2168SOL    HW2 1138   3.238   2.548   1.434
 2169SOL     OW 1139   2.665   3.264   0.924
 2169SOL    HW1 1140   2.755   3.278   0.882
 2169SOL    HW2 1141   2.594   3.266   0.853
 2170SOL     OW 1142   2.784   2.365   0.899
 2170SOL    HW1 1143   2.759   2.356   0.803
 2170SOL    HW2 1144   2.832   2.283   0.930
 2175SOL     OW 1145   2.938   2.545   1.464
 2175SOL    HW1 1146   2.858   2.484   1.467
 2175SOL    HW2 1147   3.019   2.492   1.440
 2180SOL     OW 1148   1.940   2.418   1.386
 2180SOL    HW1 1149   2.032   2.417   1.345
 2180SOL    HW2 1150   1.934   2.492   1.453
 2181SOL     OW 1151   2.423   2.084   1.147
 2181SOL    HW1 1152   2.461   2.000   1.184
 2181SOL    HW2 1153   2.335   2.103   1.191
 2185SOL     OW 1154   3.328   2.452   0.992
 2185SOL    HW1 1155   3.298   2.357   0.999
 2185SOL    HW2 1156   3.401   2.468   1.058
 2191SOL     OW 1157   3.616   3.085   1.588
 2191SOL    HW1 1158   3.707   3.046   1.575
 2191SOL    HW2 1159   3.624   3.181   1.612
 2192SOL     OW 1160   2.926   3.209   1.340
 2192SOL    HW1 1161   2.846   3.186   1.395
 2192SOL    HW2 1162   3.009   3.183   1.389
 2193SOL     OW 1163   3.454   3.491   1.625
 2193SOL    HW1 1164   3.481   3.525   1.535
 2193SOL    HW2 1165   3.533   3.453   1.671
 2194SOL     OW 1166   2.973   3.057   1.100
 2194SOL    HW1 1167   2.933   3.101   1.181
 2194SOL    HW2 1168   2.932   3.094   1.017
 2195SOL     OW 1169   3.500   2.961   1.079
 2195SOL    HW1 1170   3.505   3.042   1.138
 2195SOL    HW2 1171   3.414   2.963   1.028
 2196SOL     OW 1172   2.777   1.951   1.402
 2196SOL    HW1 1173   2.802   1.931   1.307
 2196SOL    HW2 1174   2.849   2.007   1.444
 2197SOL     OW 1175   2.842   2.978   1.719
 2197SOL    HW1 1176   2.743   2.984   1.729
 2197SOL    HW2 1177   2.865   2.898   1.663
 2199SOL     OW 1178   2.272   2.675   1.251
 2199SOL    HW1 1179   2.358   2.687   1.301
 2199SOL    HW2 1180   2.230   2.588   1.278
 2200SOL     OW 1181   3.136   2.248   1.262
 2200SOL    HW1 1182   3.157   2.322   1.326
 2200SOL    HW2 1183   3.047   2.265   1.219
 2201SOL     OW 1184   1.926   3.426   1.331
 2201SOL    HW1 1185   1.880   3.508   1.297
 2201SOL    HW2 1186   2.024   3.445   1.340
 2203SOL     OW 1187   2.428   2.399   0.865
 2203SOL    HW1 1188   2.440   2.465   0.791
 2203SOL    HW2 1189   2.474   2.433   0.948
 2205SOL     OW 1190   3.134   3.307   1.142
 2205SOL    HW1 1191   3.181   3.320   1.229
 2205SOL    HW2 1192   3.068   3.233   1.151
 2207SOL     OW 1193   2.216   3.372   1.329
 2207SOL    HW1 1194   2.195   3.328   1.242
 2207SOL    HW2 1195   2.313   3.398   1.332
 2208SOL     OW 1196   2.264   2.613   1.598
 2208SOL    HW1 1197   2.332   2.668   1.551
 2208SOL    HW2 1198   2.304   2.525   1.625
 2209SOL     OW 1199   3.449   2.641   1.670
 2209SOL    HW1 1200   3.357   2.679   1.665
 2209SOL    HW2 1201   3.509   2.688   1.605
 2210SOL     OW 1202   2.875   1.967   1.770
 2210SOL    HW1 1203   2.881   2.052   1.718
 2210SOL    HW2 1204   2.907   1.891   1.713
 2211SOL     OW 1205   2.366   1.912   1.740
 2211SOL    HW1 1206   2.324   1.855   1.670
 2211SOL    HW2 1207   2.300   1.981   1.772
 2212SOL     OW 1208   2.435   2.732   1.029
 2212SOL    HW1 1209   2.479   2.821   1.020
 2212SOL    HW2 1210   2.372   2.732   1.106
 2213SOL     OW 1211   3.222   2.724   1.045
 2213SOL    HW1 1212   3.147   2.724   0.979
 2213SOL    HW2 1213   3.259   2.632   1.054
 2215SOL     OW 1214   2.169   2.075   1.231
 2215SOL    HW1 1215   2.146   2.112   1.321
 2215SOL    HW2 1216   2.139   1.980   1.225
 2216SOL     OW 1217   1.899   3.172   1.282
 2216SOL    HW1 1218   1.952   3.123   1.350
 2216SOL    HW2 1219   1.921   3.270   1.287
 2217SOL     OW 1220   2.594   2.496   1.064
 2217SOL    HW1 1221   2.653   2.470   0.988
 2217SOL    HW2 1222   2.566   2.592   1.053
 2218SOL     OW 1223   3.590   2.797   1.854
 2218SOL    HW1 1224   3.544   2.790   1.765
 2218SOL    HW2 1225   3.528   2.841   1.920
 2221SOL     OW 1226   2.885   2.628   0.966
 2221SOL    HW1 1227   2.900   2.649   1.062
 2221SOL    HW2 1228   2.855   2.533   0.957
 2222SOL     OW 1229   2.842   3.435   1.700
 2222SOL    HW1 1230   2.822   3.479   1.612
 2222SOL    HW2 1231   2.881   3.344   1.684
 2223SOL     OW 1232   3.721   3.380   1.605
 2223SOL    HW1 1233   3.735   3.407   1.510
 2223SOL    HW2 1234   3.804   3.402   1.658
 2224SOL     OW 1235   2.212   2.760   1.804
 2224SOL    HW1 1236   2.288   2.804   1.852
 2224SOL    HW2 1237   2.247   2.713   1.722
 2228SOL     OW 1238   2.181   2.672   0.949
 2228SOL    HW1 1239   2.274   2.708   0.954
 2228SOL    HW2 1240   2.175   2.587   1.001
 2229SOL     OW 1241   2.201   2.371   1.006
 2229SOL    HW1 1242   2.149   2.288   0.989
 2229SOL    HW2 1243   2.278   2.376   0.942
 2230SOL     OW 1244   3.000   2.242   1.678
 2230SOL    HW1 1245   2.955   2.305   1.742
 2230SOL    HW2 1246   3.093   2.273   1.661
 2231SOL     OW 1247   3.022   2.069   1.477
 2231SOL    HW1 1248   3.022   2.133   1.554
 2231SOL    HW2 1249   3.050   2.117   1.394
 2235SOL     OW 1250   2.864   2.658   1.238
 2235SOL    HW1 1251   2.905   2.626   1.324
 2235SOL    HW2 1252   2.768   2.631   1.235
 2236SOL     OW 1253   1.902   2.406   1.114
 2236SOL    HW1 1254   1.987   2.373   1.073
 2236SOL    HW2 1255   1.915   2.421   1.212
 2237SOL     OW 1256   2.051   2.382   1.722
 2237SOL    HW1 1257   2.110   2.342   1.652
 2237SOL    HW2 1258   1.993   2.453   1.681
 2238SOL     OW 1259   3.231   2.812   1.660
 2238SOL    HW1 1260   3.270   2.901   1.680
 2238SOL    HW2 1261   3.241   2.792   1.563
 2240SOL     OW 1262   3.519   2.466   1.206
 2240SOL    HW1 1263   3.481   2.397   1.268
 2240SOL    HW2 1264   3.601   2.430   1.162
 2241SOL     OW 1265   2.114   3.426   1.744
 2241SOL    HW1 1266   2.084   3.483   1.820
 2241SOL    HW2 1267   2.107   3.329   1.770
 2242SOL     OW 1268   2.533   2.326   1.269
 2242SOL    HW1 1269   2.499   2.237   1.239
 2242SOL    HW2 1270   2.559   2.380   1.189
 2243SOL     OW 1271   2.792   3.540   1.465
 2243SOL    HW1 1272   2.768   3.522   1.370
 2243SOL    HW2 1273   2.822   3.634   1.475
 2245SOL     OW 1274   2.021   2.999   1.466
 2245SOL    HW1 1275   2.043   2.938   1.542
 2245SOL    HW2 1276   2.031   2.950   1.380
 2246SOL     OW 1277   3.209   2.921   1.234
 2246SOL    HW1 1278   3.233   2.858   1.160
 2246SOL    HW2 1279   3.119   2.961   1.216
 2250SOL     OW 1280   1.945   3.120   1.022
 2250SOL    HW1 1281   1.940   3.119   1.122
 2250SOL    HW2 1282   1.862   3.079   0.984
 2251SOL     OW 1283   2.550   3.524   1.716
 2251SOL    HW1 1284   2.494   3.605   1.725
 2251SOL    HW2 1285   2.602   3.528   1.630
 2255SOL     OW 1286   1.992   3.656   1.851
 2255SOL    HW1 1287   1.951   3.582   1.904
 2255SOL    HW2 1288   2.056   3.707   1.909
 2257SOL     OW 1289   2.692   3.135   1.422
 2257SOL    HW1 1290   2.687   3.168   1.517
 2257SOL    HW2 1291   2.606   3.154   1.376
 2263SOL     OW 1292   2.684   2.864   1.372
 2263SOL    HW1 1293   2.724   2.863   1.280
 2263SOL    HW2 1294   2.694   2.956   1.412
 2266SOL     OW 1295   2.234   3.150   1.490
 2266SOL    HW1 1296   2.221   3.243   1.456
 2266SOL    HW2 1297   2.150   3.098   1.477
 2267SOL     OW 1298   3.476   3.154   1.289
 2267SOL    HW1 1299   3.536   3.157   1.369
 2267SOL    HW2 1300   3.401   3.218   1.302
 2269SOL     OW 1301   2.876   2.098   0.971
 2269SOL    HW1 1302   2.868   2.062   0.878
 2269SOL    HW2 1303   2.874   2.022   1.036
 2271SOL     OW 1304   3.571   2.247   1.381
 2271SOL    HW1 1305   3.644   2.316   1.385
 2271SOL    HW2 1306   3.599   2.172   1.322
 2273SOL     OW 1307   1.967   2.875   1.726
 2273SOL    HW1 1308   1.890   2.842   1.780
 2273SOL    HW2 1309   2.052   2.845   1.768
 2274SOL     OW 1310   2.534   2.065   1.489
 2274SOL    HW1 1311   2.624   2.049   1.449
 2274SOL    HW2 1312   2.542   2.070   1.588
 2275SOL     OW 1313   3.302   2.718   1.398
 2275SOL    HW1 1314   3.245   2.770   1.335
 2275SOL    HW2 1315   3.398   2.730   1.374
 2278SOL     OW 1316   2.475   2.704   1.431
 2278SOL    HW1 1317   2.531   2.785   1.414
 2278SOL    HW2 1318   2.534   2.624   1.434
 2280SOL     OW 1319   2.578   2.427   1.708
 2280SOL    HW1 1320   2.597   2.492   1.782
 2280SOL    HW2 1321   2.638   2.347   1.717
 2281SOL     OW 1322   3.312   3.082   1.633
 2281SOL    HW1 1323   3.303   3.072   1.732
 2281SOL    HW2 1324   3.408   3.075   1.607
 2282SOL     OW 1325   2.252   3.603   1.560
 2282SOL    HW1 1326   2.161   3.644   1.558
 2282SOL    HW2 1327   2.245   3.509   1.592
 2283SOL     OW 1328   3.536   2.745   1.254
 2283SOL    HW1 1329   3.509   2.656   1.217
 2283SOL    HW2 1330   3.537   2.813   1.181
 2286SOL     OW 1331   3.639   2.204   1.642
 2286SOL    HW1 1332   3.622   2.235   1.548
 2286SOL    HW2 1333   3.555   2.167   1.680
 2287SOL     OW 1334   3.592   2.796   1.517
 2287SOL    HW1 1335   3.630   2.887   1.532
 2287SOL    HW2 1336   3.584   2.779   1.418
 2290SOL     OW 1337   2.721   2.818   0.861
 2290SOL    HW1 1338   2.775   2.749   0.909
 2290SOL    HW2 1339   2.689   2.887   0.927
 2293SOL     OW 1340   2.083   3.176   1.844
 2293SOL    HW1 1341   2.018   3.103   1.823
 2293SOL    HW2 1342   2.087   3.190   1.942
 2295SOL     OW 1343   2.534   3.253   1.624
 2295SOL    HW1 1344   2.456   3.203   1.662
 2295SOL    HW2 1345   2.531   3.348   1.655
 2296SOL     OW 1346   3.686   2.054   1.227
 2296SOL    HW1 1347   3.682   1.964   1.271
 2296SOL    HW2 1348   3.689   2.043   1.128
 2299SOL     OW 1349   2.179   2.409   1.280
 2299SOL    HW1 1350   2.217   2.350   1.352
 2299SOL    HW2 1351   2.219   2.383   1.192
 2301SOL     OW 1352   3.286   2.076   1.112
 2301SOL    HW1 1353   3.338   2.011   1.167
 2301SOL    HW2 1354   3.237   2.139   1.173
 2302SOL     OW 1355   2.863   1.896   1.154
 2302SOL    HW1 1356   2.800   1.824   1.123
 2302SOL    HW2 1357   2.956   1.860   1.154
 2304SOL     OW 1358   2.480   3.429   1.284
 2304SOL    HW1 1359   2.475   3.511   1.341
 2304SOL    HW2 1360   2.569   3.426   1.239
 2309SOL     OW 1361   2.092   2.490   1.975
 2309SOL    HW1 1362   1.999   2.488   2.012
 2309SOL    HW2 1363   2.093   2.451   1.883
 2310SOL     OW 1364   2.087   2.137   2.858
 2310SOL    HW1 1365   2.122   2.120   2.950
 2310SOL    HW2 1366   1.999   2.092   2.846
 2311SOL     OW 1367   1.881   2.230   2.509
 2311SOL    HW1 1368   1.799   2.273   2.548
 2311SOL    HW2 1369   1.853   2.157   2.446
 2312SOL     OW 1370   2.431   3.137   3.027
 2312SOL    HW1 1371   2.338   3.130   2.990
 2312SOL    HW2 1372   2.442   3.226   3.071
 2313SOL     OW 1373   3.417   3.373   2.565
 2313SOL    HW1 1374   3.360   3.357   2.646
 2313SOL    HW2 1375   3.358   3.383   2.485
 2314SOL     OW 1376   2.997   2.565   2.579
 2314SOL    HW1 1377   3.054   2.643   2.554
 2314SOL    HW2 1378   2.937   2.591   2.655
 2315SOL     OW 1379   3.617   2.469   2.093
 2315SOL    HW1 1380   3.605   2.456   1.994
 2315SOL    HW2 1381   3.587   2.388   2.142
 2316SOL     OW 1382   2.630   3.006   2.885
 2316SOL    HW1 1383   2.552   3.023   2.945
 2316SOL    HW2 1384   2.664   3.093   2.849
 2317SOL     OW 1385   2.712   2.660   3.685
 2317SOL    HW1 1386   2.708   2.736   3.750
 2317SOL    HW2 1387   2.734   2.696   3.594
 2318SOL     OW 1388   2.548   3.023   3.665
 2318SOL    HW1 1389   2.608   3.102   3.679
 2318SOL    HW2 1390   2.462   3.054   3.624
 2319SOL     OW 1391   2.197   3.297   2.923
 2319SOL    HW1 1392   2.119   3.266   2.870
 2319SOL    HW2 1393   2.255   3.355   2.866
 2320SOL     OW 1394   3.322   3.367   3.201
 2320SOL    HW1 1395   3.346   3.461   3.227
 2320SOL    HW2 1396   3.306   3.313   3.283
 2321SOL     OW 1397   2.300   2.254   3.361
 2321SOL    HW1 1398   2.382   2.198   3.370
 2321SOL    HW2 1399   2.219   2.196   3.365
 2322SOL     OW 1400   3.465   2.309   2.599
 2322SOL    HW1 1401   3.391   2.355   2.549
 2322SOL    HW2 1402   3.516   2.377   2.652
 2323SOL     OW 1403   2.093   3.575   2.345
 2323SOL    HW1 1404   2.127   3.652   2.399
 2323SOL    HW2 1405   2.137   3.575   2.255
 2324SOL     OW 1406   2.989   3.203   3.552
 2324SOL    HW1 1407   3.036   3.203   3.640
 2324SOL    HW2 1408   2.941   3.116   3.541
 2325SOL     OW 1409   2.092   3.296   2.400
 2325SOL    HW1 1410   2.066   3.392   2.400
 2325SOL    HW2 1411   2.021   3.242   2.445
 2326SOL     OW 1412   2.102   2.953   2.748
 2326SOL    HW1 1413   2.116   2.869   2.800
 2326SOL    HW2 1414   2.047   3.017   2.803
 2327SOL     OW 1415   2.482   3.648   3.301
 2327SOL    HW1 1416   2.390   3.631   3.336
 2327SOL    HW2 1417   2.510   3.740   3.327
 2328SOL     OW 1418   2.468   2.826   1.985
 2328SOL    HW1 1419   2.475   2.910   1.931
 2328SOL    HW2 1420   2.514   2.839   2.073
 2329SOL     OW 1421   3.456   1.976   3.342
 2329SOL    HW1 1422   3.438   2.043   3.270
 2329SOL    HW2 1423   3.453   2.022   3.431
 2330SOL     OW 1424   1.984   2.505   2.425
 2330SOL    HW1 1425   1.939   2.417   2.442
 2330SOL    HW2 1426   1.983   2.559   2.509
 2331SOL     OW 1427   3.704   3.629   2.221
 2331SOL    HW1 1428   3.758   3.600   2.301
 2331SOL    HW2 1429   3.734   3.719   2.192
 2332SOL     OW 1430   1.889   3.458   1.979
 2332SOL    HW1 1431   1.870   3.362   2.000
 2332SOL    HW2 1432   1.856   3.516   2.054
 2333SOL     OW 1433   3.551   2.784   2.474
 2333SOL    HW1 1434   3.646   2.755   2.482
 2333SOL    HW2 1435   3.543   2.849   2.399
 2334SOL     OW 1436   3.503   2.970   2.294
 2334SOL    HW1 1437   3.589   2.972   2.242
 2334SOL    HW2 1438   3.517   3.017   2.382
 2335SOL     OW 1439   1.975   2.599   3.459
 2335SOL    HW1 1440   2.063   2.586   3.504
 2335SOL    HW2 1441   1.962   2.696   3.437
 2336SOL     OW 1442   2.475   3.227   2.588
 2336SOL    HW1 1443   2.426   3.140   2.597
 2336SOL    HW2 1444   2.452   3.270   2.501
 2337SOL     OW 1445   3.155   3.090   3.285
 2337SOL    HW1 1446   3.192   3.017   3.227
 2337SOL    HW2 1447   3.207   3.095   3.370
 2338SOL     OW 1448   2.671   1.866   2.364
 2338SOL    HW1 1449   2.711   1.957   2.355
 2338SOL    HW2 1450   2.571   1.874   2.370
 2339SOL     OW 1451   2.059   2.838   3.126
 2339SOL    HW1 1452   2.148   2.793   3.112
 2339SOL    HW2 1453   1.986   2.773   3.107
 2340SOL     OW 1454   3.387   2.861   2.052
 2340SOL    HW1 1455   3.324   2.785   2.065
 2340SOL    HW2 1456   3.435   2.879   2.138
 2341SOL     OW 1457   3.049   3.654   3.478
 2341SOL    HW1 1458   3.073   3.714   3.402
 2341SOL    HW2 1459   3.056   3.559   3.448
 2342SOL     OW 1460   2.179   2.113   3.663
 2342SOL    HW1 1461   2.250   2.184   3.669
 2342SOL    HW2 1462   2.091   2.152   3.691
 2343SOL     OW 1463   3.328   3.279   2.815
 2343SOL    HW1 1464   3.269   3.285   2.895
 2343SOL    HW2 1465   3.313   3.191   2.769
 2344SOL     OW 1466   3.529   3.576   2.434
 2344SOL    HW1 1467   3.488   3.553   2.346
 2344SOL    HW2 1468   3.511   3.502   2.499
 2345SOL     OW 1469   2.460   2.591   2.132
 2345SOL    HW1 1470   2.484   2.660   2.064
 2345SOL    HW2 1471   2.382   2.624   2.186
 2346SOL     OW 1472   3.143   2.207   2.806
 2346SOL    HW1 1473   3.057   2.157   2.793
 2346SOL    HW2 1474   3.205   2.153   2.862
 2347SOL     OW 1475   3.438   3.524   2.169
 2347SOL    HW1 1476   3.527   3.570   2.172
 2347SOL    HW2 1477   3.417   3.500   2.074
 2348SOL     OW 1478   2.669   2.467   3.327
 2348SOL    HW1 1479   2.622   2.464   3.416
 2348SOL    HW2 1480   2.618   2.412   3.261
 2349SOL     OW 1481   3.256   2.331   3.536
 2349SOL    HW1 1482   3.236   2.374   3.624
 2349SOL    HW2 1483   3.334   2.269   3.545
 2350SOL     OW 1484   2.835   2.752   3.434
 2350SOL    HW1 1485   2.881   2.668   3.405
 2350SOL    HW2 1486   2.779   2.786   3.359
 2351SOL     OW 1487   2.853   2.272   3.104
 2351SOL    HW1 1488   2.776   2.306   3.158
 2351SOL    HW2 1489   2.819   2.221   3.025
 2352SOL     OW 1490   1.992   3.683   3.433
 2352SOL    HW1 1491   1.982   3.668   3.532
 2352SOL    HW2 1492   1.906   3.719   3.397
 2353SOL     OW 1493   2.727   2.210   2.057
 2353SOL    HW1 1494   2.786   2.273   2.008
 2353SOL    HW2 1495   2.746   2.116   2.028
 2354SOL     OW 1496   3.581   2.447   3.693
 2354SOL    HW1 1497   3.555   2.536   3.657
 2354SOL    HW2 1498   3.579   2.379   3.620
 2355SOL     OW 1499   3.224   3.006   2.407
 2355SOL    HW1 1500   3.307   2.977   2.359
 2355SOL    HW2 1501   3.175   3.073   2.351
 2356SOL     OW 1502   2.412   2.058   2.747
 2356SOL    HW1 1503   2.407   2.053   2.847
 2356SOL    HW2 1504   2.414   2.154   2.718
 2357SOL     OW 1505   2.870   3.318   2.339
 2357SOL    HW1 1506   2.824   3.390   2.287
 2357SOL    HW2 1507   2.866   3.338   2.437
 2358SOL     OW 1508   2.213   3.663   2.715
 2358SOL    HW1 1509   2.263   3.577   2.721
 2358SOL    HW2 1510   2.278   3.740   2.712
 2359SOL     OW 1511   3.657   2.928   2.735
 2359SOL    HW1 1512   3.595   2.913   2.659
 2359SOL    HW2 1513   3.605   2.939   2.820
 2360SOL     OW 1514   3.089   3.412   3.368
 2360SOL    HW1 1515   3.095   3.335   3.432
 2360SOL    HW2 1516   3.037   3.386   3.288
 2361SOL     OW 1517   2.183   2.805   2.104
 2361SOL    HW1 1518   2.265   2.844   2.062
 2361SOL    HW2 1519   2.156   2.723   2.055
 2362SOL     OW 1520   3.320   2.597   2.590
 2362SOL    HW1 1521   3.315   2.532   2.665
 2362SOL    HW2 1522   3.400   2.656   2.603
 2363SOL     OW 1523   2.323   3.128   3.589
 2363SOL    HW1 1524   2.273   3.129   3.503
 2363SOL    HW2 1525   2.260   3.110   3.665
 2364SOL     OW 1526   2.973   3.638   2.099
 2364SOL    HW1 1527   2.913   3.576   2.149
 2364SOL    HW2 1528   3.004   3.594   2.014
 2365SOL     OW 1529   2.064   2.147   3.360
 2365SOL    HW1 1530   1.984   2.207   3.347
 2365SOL    HW2 1531   2.054   2.098   3.446
 2366SOL     OW 1532   3.494   3.239   1.943
 2366SOL    HW1 1533   3.462   3.333   1.933
 2366SOL    HW2 1534   3.418   3.176   1.931
 2367SOL     OW 1535   2.326   3.605   2.185
 2367SOL    HW1 1536   2.359   3.644   2.271
 2367SOL    HW2 1537   2.402   3.598   2.120
 2368SOL     OW 1538   3.262   1.969   2.288
 2368SOL    HW1 1539   3.238   1.932   2.198
 2368SOL    HW2 1540   3.361   1.985   2.292
 2369SOL     OW 1541   2.111   3.647   3.103
 2369SOL    HW1 1542   2.168   3.582   3.153
 2369SOL    HW2 1543   2.095   3.614   3.010
 2370SOL     OW 1544   2.802   3.560   2.766
 2370SOL    HW1 1545   2.882   3.503   2.787
 2370SOL    HW2 1546   2.753   3.520   2.689
 2371SOL     OW 1547   2.244   2.562   2.342
 2371SOL    HW1 1548   2.289   2.472   2.339
 2371SOL    HW2 1549   2.150   2.551   2.375
 2372SOL     OW 1550   3.409   2.084   3.591
 2372SOL    HW1 1551   3.404   2.121   3.683
 2372SOL    HW2 1552   3.337   2.015   3.579
 2373SOL     OW 1553   2.476   1.984   1.979
 2373SOL    HW1 1554   2.574   1.962   1.986
 2373SOL    HW2 1555   2.445   1.967   1.886
 2374SOL     OW 1556   2.643   2.126   3.611
 2374SOL    HW1 1557   2.710   2.065   3.654
 2374SOL    HW2 1558   2.570   2.145   3.676
 2375SOL     OW 1559   2.750   3.376   3.057
 2375SOL    HW1 1560   2.727   3.351   2.963
 2375SOL    HW2 1561   2.811   3.307   3.096
 2376SOL     OW 1562   3.213   2.452   3.295
 2376SOL    HW1 1563   3.241   2.409   3.380
 2376SOL    HW2 1564   3.238   2.548   3.296
 2377SOL     OW 1565   2.665   3.264   2.786
 2377SOL    HW1 1566   2.755   3.278   2.744
 2377SOL    HW2 1567   2.594   3.266   2.715
 2378SOL     OW 1568   2.784   2.365   2.761
 2378SOL    HW1 1569   2.759   2.356   2.665
 2378SOL    HW2 1570   2.832   2.283   2.792
 2379SOL     OW 1571   2.401   1.926   2.374
 2379SOL    HW1 1572   2.320   1.927   2.432
 2379SOL    HW2 1573   2.404   2.009   2.319
 2380SOL     OW 1574   3.296   3.050   1.903
 2380SOL    HW1 1575   3.328   2.974   1.960
 2380SOL    HW2 1576   3.204   3.077   1.933
 2381SOL     OW 1577   2.159   1.897   2.033
 2381SOL    HW1 1578   2.208   1.981   2.012
 2381SOL    HW2 1579   2.221   1.832   2.078
 2382SOL     OW 1580   2.797   2.098   2.342
 2382SOL    HW1 1581   2.749   2.139   2.264
 2382SOL    HW2 1582   2.896   2.096   2.323
 2383SOL     OW 1583   2.938   2.545   3.326
 2383SOL    HW1 1584   2.858   2.484   3.329
 2383SOL    HW2 1585   3.019   2.492   3.302
 2384SOL     OW 1586   3.089   3.432   2.655
 2384SOL    HW1 1587   3.110   3.506   2.590
 2384SOL    HW2 1588   3.157   3.432   2.728
 2385SOL     OW 1589   2.321   3.014   2.603
 2385SOL    HW1 1590   2.250   2.987   2.668
 2385SOL    HW2 1591   2.295   2.986   2.510
 2386SOL     OW 1592   3.133   3.659   2.453
 2386SOL    HW1 1593   3.177   3.723   2.389
 2386SOL    HW2 1594   3.083   3.711   2.523
 2387SOL     OW 1595   2.894   2.411   1.878
 2387SOL    HW1 1596   2.853   2.493   1.839
 2387SOL    HW2 1597   2.958   2.437   1.951
 2388SOL     OW 1598   1.940   2.418   3.248
 2388SOL    HW1 1599   2.032   2.417   3.207
 2388SOL    HW2 1600   1.934   2.492   3.315
 2389SOL     OW 1601   2.423   2.084   3.009
 2389SOL    HW1 1602   2.461   2.000   3.046
 2389SOL    HW2 1603   2.335   2.103   3.053
 2390SOL     OW 1604   2.879   1.901   2.615
 2390SOL    HW1 1605   2.807   1.906   2.546
 2390SOL    HW2 1606   2.855   1.832   2.684
 2391SOL     OW 1607   3.291   3.035   2.729
 2391SOL    HW1 1608   3.236   2.951   2.722
 2391SOL    HW2 1609   3.317   3.064   2.637
 2392SOL     OW 1610   3.328   2.452   2.854
 2392SOL    HW1 1611   3.298   2.357   2.861
 2392SOL    HW2 1612   3.401   2.468   2.920
 2393SOL     OW 1613   3.719   2.695   2.239
 2393SOL    HW1 1614   3.761   2.631   2.303
 2393SOL    HW2 1615   3.681   2.644   2.161
 2394SOL     OW 1616   2.350   3.247   2.036
 2394SOL    HW1 1617   2.263   3.232   2.083
 2394SOL    HW2 1618   2.333   3.273   1.941
 2395SOL     OW 1619   3.526   3.142   2.519
 2395SOL    HW1 1620   3.625   3.150   2.533
 2395SOL    HW2 1621   3.481   3.226   2.550
 2396SOL     OW 1622   3.252   2.437   1.940
 2396SOL    HW1 1623   3.198   2.416   2.021
 2396SOL    HW2 1624   3.343   2.396   1.949
 2397SOL     OW 1625   2.389   2.118   2.190
 2397SOL    HW1 1626   2.416   2.059   2.115
 2397SOL    HW2 1627   2.389   2.213   2.159
 2398SOL     OW 1628   3.616   3.085   3.450
 2398SOL    HW1 1629   3.707   3.046   3.437
 2398SOL    HW2 1630   3.624   3.181   3.474
 2399SOL     OW 1631   2.926   3.209   3.202
 2399SOL    HW1 1632   2.846   3.186   3.257
 2399SOL    HW2 1633   3.009   3.183   3.251
 2400SOL     OW 1634   3.454   3.491   3.487
 2400SOL    HW1 1635   3.481   3.525   3.397
 2400SOL    HW2 1636   3.533   3.453   3.533
 2401SOL     OW 1637   2.973   3.057   2.962
 2401SOL    HW1 1638   2.933   3.101   3.043
 2401SOL    HW2 1639   2.932   3.094   2.879
 2402SOL     OW 1640   3.500   2.961   2.941
 2402SOL    HW1 1641   3.505   3.042   3.000
 2402SOL    HW2 1642   3.414   2.963   2.890
 2403SOL     OW 1643   2.777   1.951   3.264
 2403SOL    HW1 1644   2.802   1.931   3.169
 2403SOL    HW2 1645   2.849   2.007   3.306
 2404SOL     OW 1646   2.842   2.978   3.581
 2404SOL    HW1 1647   2.743   2.984   3.591
 2404SOL    HW2 1648   2.865   2.898   3.525
 2405SOL     OW 1649   2.567   2.912   2.230
 2405SOL    HW1 1650   2.553   2.919   2.329
 2405SOL    HW2 1651   2.651   2.861   2.212
 2406SOL     OW 1652   2.272   2.675   3.113
 2406SOL    HW1 1653   2.358   2.687   3.163
 2406SOL    HW2 1654   2.230   2.588   3.140
 2407SOL     OW 1655   3.136   2.248   3.124
 2407SOL    HW1 1656   3.157   2.322   3.188
 2407SOL    HW2 1657   3.047   2.265   3.081
 2408SOL     OW 1658   1.926   3.426   3.193
 2408SOL    HW1 1659   1.880   3.508   3.159
 2408SOL    HW2 1660   2.024   3.445   3.202
 2409SOL     OW 1661   2.229   2.962   2.363
 2409SOL    HW1 1662   2.222   3.045   2.307
 2409SOL    HW2 1663   2.233   2.882   2.303
 2410SOL     OW 1664   3.114   3.210   2.250
 2410SOL    HW1 1665   3.164   3.287   2.290
 2410SOL    HW2 1666   3.019   3.212   2.282
 2411SOL     OW 1667   3.134   3.307   3.004
 2411SOL    HW1 1668   3.181   3.320   3.091
 2411SOL    HW2 1669   3.068   3.233   3.013
 2412SOL     OW 1670   3.444   2.501   2.334
 2412SOL    HW1 1671   3.413   2.562   2.407
 2412SOL    HW2 1672   3.494   2.553   2.265
 2413SOL     OW 1673   2.216   3.372   3.191
 2413SOL    HW1 1674   2.195   3.328   3.104
 2413SOL    HW2 1675   2.313   3.398   3.194
 2414SOL     OW 1676   2.264   2.613   3.460
 2414SOL    HW1 1677   2.332   2.668   3.413
 2414SOL    HW2 1678   2.304   2.525   3.487
 2415SOL     OW 1679   3.449   2.641   3.532
 2415SOL    HW1 1680   3.357   2.679   3.527
 2415SOL    HW2 1681   3.509   2.688   3.467
 2416SOL     OW 1682   2.875   1.967   3.632
 2416SOL    HW1 1683   2.881   2.052   3.580
 2416SOL    HW2 1684   2.907   1.891   3.575
 2417SOL     OW 1685   2.366   1.912   3.602
 2417SOL    HW1 1686   2.324   1.855   3.532
 2417SOL    HW2 1687   2.300   1.981   3.634
 2418SOL     OW 1688   2.435   2.732   2.891
 2418SOL    HW1 1689   2.479   2.821   2.882
 2418SOL    HW2 1690   2.372   2.732   2.968
 2419SOL     OW 1691   3.222   2.724   2.907
 2419SOL    HW1 1692   3.147   2.724   2.841
 2419SOL    HW2 1693   3.259   2.632   2.916
 2420SOL     OW 1694   3.071   2.387   2.137
 2420SOL    HW1 1695   3.084   2.303   2.191
 2420SOL    HW2 1696   3.042   2.461   2.197
 2421SOL     OW 1697   2.169   2.075   3.093
 2421SOL    HW1 1698   2.146   2.112   3.183
 2421SOL    HW2 1699   2.139   1.980   3.087
 2422SOL     OW 1700   1.899   3.172   3.144
 2422SOL    HW1 1701   1.952   3.123   3.212
 2422SOL    HW2 1702   1.921   3.270   3.149
 2423SOL     OW 1703   2.594   2.496   2.926
 2423SOL    HW1 1704   2.653   2.470   2.850
 2423SOL    HW2 1705   2.566   2.592   2.915
 2424SOL     OW 1706   3.590   2.797   3.716
 2424SOL    HW1 1707   3.544   2.790   3.627
 2424SOL    HW2 1708   3.528   2.841   3.782
 2425SOL     OW 1709   3.484   2.229   2.236
 2425SOL    HW1 1710   3.486   2.153   2.300
 2425SOL    HW2 1711   3.436   2.306   2.276
 2426SOL     OW 1712   2.885   2.628   2.828
 2426SOL    HW1 1713   2.900   2.649   2.924
 2426SOL    HW2 1714   2.855   2.533   2.819
 2427SOL     OW 1715   2.842   3.435   3.562
 2427SOL    HW1 1716   2.822   3.479   3.474
 2427SOL    HW2 1717   2.881   3.344   3.546
 2428SOL     OW 1718   3.721   3.380   3.467
 2428SOL    HW1 1719   3.735   3.407   3.372
 2428SOL    HW2 1720   3.804   3.402   3.520
 2429SOL     OW 1721   2.212   2.760   3.666
 2429SOL    HW1 1722   2.288   2.804   3.714
 2429SOL    HW2 1723   2.247   2.713   3.584
 2430SOL     OW 1724   3.402   2.136   1.987
 2430SOL    HW1 1725   3.341   2.061   2.010
 2430SOL    HW2 1726   3.424   2.188   2.070
 2431SOL     OW 1727   3.165   2.700   1.904
 2431SOL    HW1 1728   3.199   2.607   1.919
 2431SOL    HW2 1729   3.183   2.727   1.809
 2432SOL     OW 1730   2.930   3.195   2.711
 2432SOL    HW1 1731   2.937   3.111   2.656
 2432SOL    HW2 1732   2.992   3.264   2.675
 2433SOL     OW 1733   2.181   2.672   2.811
 2433SOL    HW1 1734   2.274   2.708   2.816
 2433SOL    HW2 1735   2.175   2.587   2.863
 2434SOL     OW 1736   2.201   2.371   2.868
 2434SOL    HW1 1737   2.149   2.288   2.851
 2434SOL    HW2 1738   2.278   2.376   2.804
 2435SOL     OW 1739   3.000   2.242   3.540
 2435SOL    HW1 1740   2.955   2.305   3.604
 2435SOL    HW2 1741   3.093   2.273   3.523
 2436SOL     OW 1742   3.022   2.069   3.339
 2436SOL    HW1 1743   3.022   2.133   3.416
 2436SOL    HW2 1744   3.050   2.117   3.256
 2437SOL     OW 1745   1.870   3.188   2.062
 2437SOL    HW1 1746   1.777   3.209   2.031
 2437SOL    HW2 1747   1.880   3.089   2.075
 2438SOL     OW 1748   1.950   3.663   2.789
 2438SOL    HW1 1749   1.908   3.577   2.762
 2438SOL    HW2 1750   2.044   3.666   2.755
 2439SOL     OW 1751   2.366   3.430   2.772
 2439SOL    HW1 1752   2.432   3.504   2.781
 2439SOL    HW2 1753   2.410   3.351   2.730
 2440SOL     OW 1754   2.864   2.658   3.100
 2440SOL    HW1 1755   2.905   2.626   3.186
 2440SOL    HW2 1756   2.768   2.631   3.097
 2441SOL     OW 1757   1.902   2.406   2.976
 2441SOL    HW1 1758   1.987   2.373   2.935
 2441SOL    HW2 1759   1.915   2.421   3.074
 2442SOL     OW 1760   2.051   2.382   3.584
 2442SOL    HW1 1761   2.110   2.342   3.514
 2442SOL    HW2 1762   1.993   2.453   3.543
 2443SOL     OW 1763   3.231   2.812   3.522
 2443SOL    HW1 1764   3.270   2.901   3.542
 2443SOL    HW2 1765   3.241   2.792   3.425
 2444SOL     OW 1766   2.677   2.434   2.187
 2444SOL    HW1 1767   2.684   2.345   2.141
 2444SOL    HW2 1768   2.583   2.468   2.179
 2445SOL     OW 1769   3.519   2.466   3.068
 2445SOL    HW1 1770   3.481   2.397   3.130
 2445SOL    HW2 1771   3.601   2.430   3.024
 2446SOL     OW 1772   2.114   3.426   3.606
 2446SOL    HW1 1773   2.084   3.483   3.682
 2446SOL    HW2 1774   2.107   3.329   3.632
 2447SOL     OW 1775   2.533   2.326   3.131
 2447SOL    HW1 1776   2.499   2.237   3.101
 2447SOL    HW2 1777   2.559   2.380   3.051
 2448SOL     OW 1778   2.792   3.540   3.327
 2448SOL    HW1 1779   2.768   3.522   3.232
 2448SOL    HW2 1780   2.822   3.634   3.337
 2449SOL     OW 1781   2.335   2.362   2.053
 2449SOL    HW1 1782   2.396   2.442   2.057
 2449SOL    HW2 1783   2.240   2.393   2.060
 2450SOL     OW 1784   2.021   2.999   3.328
 2450SOL    HW1 1785   2.043   2.938   3.404
 2450SOL    HW2 1786   2.031   2.950   3.242
 2451SOL     OW 1787   3.209   2.921   3.096
 2451SOL    HW1 1788   3.233   2.858   3.022
 2451SOL    HW2 1789   3.119   2.961   3.078
 2452SOL     OW 1790   3.164   2.717   2.171
 2452SOL    HW1 1791   3.078   2.686   2.213
 2452SOL    HW2 1792   3.160   2.703   2.072
 2453SOL     OW 1793   3.621   3.609   3.016
 2453SOL    HW1 1794   3.682   3.639   2.943
 2453SOL    HW2 1795   3.583   3.520   2.994
 2454SOL     OW 1796   3.114   3.593   2.990
 2454SOL    HW1 1797   3.198   3.598   2.936
 2454SOL    HW2 1798   3.091   3.497   3.008
 2455SOL     OW 1799   1.945   3.120   2.884
 2455SOL    HW1 1800   1.940   3.119   2.984
 2455SOL    HW2 1801   1.862   3.079   2.846
 2456SOL     OW 1802   2.550   3.524   3.578
 2456SOL    HW1 1803   2.494   3.605   3.587
 2456SOL    HW2 1804   2.602   3.528   3.492
 2457SOL     OW 1805   3.588   1.997   2.385
 2457SOL    HW1 1806   3.661   1.980   2.318
 2457SOL    HW2 1807   3.557   1.910   2.423
 2458SOL     OW 1808   3.250   3.435   2.339
 2458SOL    HW1 1809   3.317   3.447   2.265
 2458SOL    HW2 1810   3.210   3.524   2.362
 2459SOL     OW 1811   1.992   3.656   3.713
 2459SOL    HW1 1812   1.951   3.582   3.766
 2459SOL    HW2 1813   2.056   3.707   3.771
 2460SOL     OW 1814   3.142   2.789   2.534
 2460SOL    HW1 1815   3.202   2.708   2.536
 2460SOL    HW2 1816   3.182   2.858   2.474
 2461SOL     OW 1817   2.692   3.135   3.284
 2461SOL    HW1 1818   2.687   3.168   3.379
 2461SOL    HW2 1819   2.606   3.154   3.238
 2462SOL     OW 1820   2.534   3.478   2.016
 2462SOL    HW1 1821   2.543   3.488   1.917
 2462SOL    HW2 1822   2.494   3.389   2.037
 2463SOL     OW 1823   3.512   3.582   3.256
 2463SOL    HW1 1824   3.565   3.592   3.172
 2463SOL    HW2 1825   3.485   3.672   3.290
 2464SOL     OW 1826   3.703   2.037   2.825
 2464SOL    HW1 1827   3.742   1.952   2.789
 2464SOL    HW2 1828   3.605   2.039   2.806
 2465SOL     OW 1829   3.056   3.474   1.893
 2465SOL    HW1 1830   3.062   3.381   1.930
 2465SOL    HW2 1831   2.997   3.474   1.813
 2466SOL     OW 1832   2.684   2.864   3.234
 2466SOL    HW1 1833   2.724   2.863   3.142
 2466SOL    HW2 1834   2.694   2.956   3.274
 2467SOL     OW 1835   2.778   2.772   2.153
 2467SOL    HW1 1836   2.841   2.810   2.085
 2467SOL    HW2 1837   2.818   2.689   2.192
 2468SOL     OW 1838   3.366   3.469   1.906
 2468SOL    HW1 1839   3.274   3.506   1.913
 2468SOL    HW2 1840   3.404   3.489   1.816
 2469SOL     OW 1841   2.234   3.150   3.352
 2469SOL    HW1 1842   2.221   3.243   3.318
 2469SOL    HW2 1843   2.150   3.098   3.339
 2470SOL     OW 1844   3.476   3.154   3.151
 2470SOL    HW1 1845   3.536   3.157   3.231
 2470SOL    HW2 1846   3.401   3.218   3.164
 2471SOL     OW 1847   2.901   2.960   2.558
 2471SOL    HW1 1848   2.831   2.913   2.612
 2471SOL    HW2 1849   2.960   2.892   2.515
 2472SOL     OW 1850   2.876   2.098   2.833
 2472SOL    HW1 1851   2.868   2.062   2.740
 2472SOL    HW2 1852   2.874   2.022   2.898
 2473SOL     OW 1853   2.452   3.349   2.353
 2473SOL    HW1 1854   2.494   3.291   2.283
 2473SOL    HW2 1855   2.408   3.428   2.309
 2474SOL     OW 1856   3.571   2.247   3.243
 2474SOL    HW1 1857   3.644   2.316   3.247
 2474SOL    HW2 1858   3.599   2.172   3.184
 2475SOL     OW 1859   2.117   3.210   2.152
 2475SOL    HW1 1860   2.021   3.211   2.125
 2475SOL    HW2 1861   2.129   3.263   2.236
 2476SOL     OW 1862   1.967   2.875   3.588
 2476SOL    HW1 1863   1.890   2.842   3.642
 2476SOL    HW2 1864   2.052   2.845   3.630
 2477SOL     OW 1865   2.534   2.065   3.351
 2477SOL    HW1 1866   2.624   2.049   3.311
 2477SOL    HW2 1867   2.542   2.070   3.450
 2478SOL     OW 1868   1.937   2.207   1.895
 2478SOL    HW1 1869   1.845   2.179   1.866
 2478SOL    HW2 1870   1.968   2.284   1.839
 2479SOL     OW 1871   3.302   2.718   3.260
 2479SOL    HW1 1872   3.245   2.770   3.197
 2479SOL    HW2 1873   3.398   2.730   3.236
 2480SOL     OW 1874   1.934   2.028   2.180
 2480SOL    HW1 1875   1.917   2.111   2.126
 2480SOL    HW2 1876   2.024   1.991   2.158
 2481SOL     OW 1877   3.045   3.197   1.981
 2481SOL    HW1 1878   2.946   3.186   1.983
 2481SOL    HW2 1879   3.079   3.212   2.074
 2482SOL     OW 1880   2.475   2.704   3.293
 2482SOL    HW1 1881   2.531   2.785   3.276
 2482SOL    HW2 1882   2.534   2.624   3.296
 2483SOL     OW 1883   3.355   3.629   2.821
 2483SOL    HW1 1884   3.388   3.693   2.752
 2483SOL    HW2 1885   3.421   3.623   2.896
 2484SOL     OW 1886   2.578   2.427   3.570
 2484SOL    HW1 1887   2.597   2.492   3.644
 2484SOL    HW2 1888   2.638   2.347   3.579
 2485SOL     OW 1889   3.312   3.082   3.495
 2485SOL    HW1 1890   3.303   3.072   3.594
 2485SOL    HW2 1891   3.408   3.075   3.469
 2486SOL     OW 1892   2.252   3.603   3.422
 2486SOL    HW1 1893   2.161   3.644   3.420
 2486SOL    HW2 1894   2.245   3.509   3.454
 2487SOL     OW 1895   3.536   2.745   3.116
 2487SOL    HW1 1896   3.509   2.656   3.079
 2487SOL    HW2 1897   3.537   2.813   3.043
 2488SOL     OW 1898   3.087   2.187   2.311
 2488SOL    HW1 1899   3.152   2.113   2.300
 2488SOL    HW2 1900   3.107   2.237   2.395
 2489SOL     OW 1901   3.639   2.204   3.504
 2489SOL    HW1 1902   3.622   2.235   3.410
 2489SOL    HW2 1903   3.555   2.167   3.542
 2490SOL     OW 1904   3.592   2.796   3.379
 2490SOL    HW1 1905   3.630   2.887   3.394
 2490SOL    HW2 1906   3.584   2.779   3.280
 2491SOL     OW 1907   2.721   3.236   1.878
 2491SOL    HW1 1908   2.675   3.251   1.966
 2491SOL    HW2 1909   2.765   3.321   1.848
 2492SOL     OW 1910   2.523   3.652   2.815
 2492SOL    HW1 1911   2.477   3.740   2.802
 2492SOL    HW2 1912   2.622   3.664   2.808
 2493SOL     OW 1913   2.721   2.818   2.723
 2493SOL    HW1 1914   2.775   2.749   2.771
 2493SOL    HW2 1915   2.689   2.887   2.789
 2494SOL     OW 1916   2.945   2.846   1.949
 2494SOL    HW1 1917   2.922   2.899   1.867
 2494SOL    HW2 1918   3.026   2.790   1.930
 2495SOL     OW 1919   3.723   3.431   2.713
 2495SOL    HW1 1920   3.652   3.419   2.643
 2495SOL    HW2 1921   3.724   3.352   2.773
 2496SOL     OW 1922   2.083   3.176   3.706
 2496SOL    HW1 1923   2.018   3.103   3.685
 2496SOL    HW2 1924   2.087   3.190   3.804
 2497SOL     OW 1925   1.941   3.102   2.515
 2497SOL    HW1 1926   1.940   3.055   2.603
 2497SOL    HW2 1927   2.023   3.074   2.464
 2498SOL     OW 1928   2.534   3.253   3.486
 2498SOL    HW1 1929   2.456   3.203   3.524
 2498SOL    HW2 1930   2.531   3.348   3.517
 2499SOL     OW 1931   3.686   2.054   3.089
 2499SOL    HW1 1932   3.682   1.964   3.133
 2499SOL    HW2 1933   3.689   2.043   2.990
 2500SOL     OW 1934   3.567   3.349   2.966
 2500SOL    HW1 1935   3.474   3.324   2.939
 2500SOL    HW2 1936   3.593   3.299   3.048
 2501SOL     OW 1937   2.179   2.409   3.142
 2501SOL    HW1 1938   2.217   2.350   3.214
 2501SOL    HW2 1939   2.219   2.383   3.054
 2502SOL     OW 1940   2.674   3.448   2.549
 2502SOL    HW1 1941   2.706   3.458   2.455
 2502SOL    HW2 1942   2.595   3.386   2.551
 2503SOL     OW 1943   3.286   2.076   2.974
 2503SOL    HW1 1944   3.338   2.011   3.029
 2503SOL    HW2 1945   3.237   2.139   3.035
 2504SOL     OW 1946   2.863   1.896   3.016
 2504SOL    HW1 1947   2.800   1.824   2.985
 2504SOL    HW2 1948   2.956   1.860   3.016
 2505SOL     OW 1949   2.632   3.192   2.163
 2505SOL    HW1 1950   2.586   3.105   2.180
 2505SOL    HW2 1951   2.723   3.189   2.204
 2506SOL     OW 1952   2.480   3.429   3.146
 2506SOL    HW1 1953   2.475   3.511   3.203
 2506SOL    HW2 1954   2.569   3.426   3.101
 2507SOL     OW 1955   3.214   1.914   2.030
 2507SOL    HW1 1956   3.249   1.873   1.946
 2507SOL    HW2 1957   3.124   1.876   2.050
 2508SOL     OW 1958   3.162   2.315   2.553
 2508SOL    HW1 1959   3.103   2.395   2.557
 2508SOL    HW2 1960   3.177   2.280   2.646
 2509SOL     OW 1961   3.455   2.083   2.744
 2509SOL    HW1 1962   3.371   2.082   2.798
 2509SOL    HW2 1963   3.457   2.166   2.688
 2510SOL     OW 1964   1.901   2.939   2.162
 2510SOL    HW1 1965   2.000   2.928   2.153
 2510SOL    HW2 1966   1.861   2.853   2.194
 2511SOL     OW 1967   2.737   3.508   2.199
 2511SOL    HW1 1968   2.660   3.473   2.145
 2511SOL    HW2 1969   2.705   3.579   2.261
 2512SOL     OW 1970   2.092   2.490   3.837
 2512SOL    HW1 1971   1.999   2.488   3.874
 2512SOL    HW2 1972   2.093   2.451   3.745
 2526SOL     OW 1973   2.468   2.826   3.847
 2526SOL    HW1 1974   2.475   2.910   3.793
 2526SOL    HW2 1975   2.514   2.839   3.935
 2529SOL     OW 1976   1.889   3.458   3.841
 2529SOL    HW1 1977   1.870   3.362   3.862
 2529SOL    HW2 1978   1.856   3.516   3.916
 2535SOL     OW 1979   3.387   2.861   3.914
 2535SOL    HW1 1980   3.324   2.785   3.927
 2535SOL    HW2 1981   3.435   2.879   4.000
 2538SOL     OW 1982   2.460   2.591   3.994
 2538SOL    HW1 1983   2.484   2.660   3.926
 2538SOL    HW2 1984   2.382   2.624   4.048
 2541SOL     OW 1985   2.903   2.563   4.153
 2541SOL    HW1 1986   2.929   2.559   4.249
 2541SOL    HW2 1987   2.818   2.512   4.139
 2543SOL     OW 1988   2.727   2.210   3.919
 2543SOL    HW1 1989   2.786   2.273   3.870
 2543SOL    HW2 1990   2.746   2.116   3.890
 2549SOL     OW 1991   2.183   2.805   3.966
 2549SOL    HW1 1992   2.265   2.844   3.924
 2549SOL    HW2 1993   2.156   2.723   3.917
 2552SOL     OW 1994   3.494   3.239   3.805
 2552SOL    HW1 1995   3.462   3.333   3.795
 2552SOL    HW2 1996   3.418   3.176   3.793
 2557SOL     OW 1997   2.244   2.562   4.204
 2557SOL    HW1 1998   2.289   2.472   4.201
 2557SOL    HW2 1999   2.150   2.551   4.237
 2558SOL     OW 2000   2.476   1.984   3.841
 2558SOL    HW1 2001   2.574   1.962   3.848
 2558SOL    HW2 2002   2.445   1.967   3.748
 2562SOL     OW 2003   3.296   3.050   3.765
 2562SOL    HW1 2004   3.328   2.974   3.822
 2562SOL    HW2 2005   3.204   3.077   3.795
 2563SOL     OW 2006   2.159   1.897   3.895
 2563SOL    HW1 2007   2.208   1.981   3.874
 2563SOL    HW2 2008   2.221   1.832   3.940
 2564SOL     OW 2009   2.797   2.098   4.204
 2564SOL    HW1 2010   2.749   2.139   4.126
 2564SOL    HW2 2011   2.896   2.096   4.185
 2568SOL     OW 2012   2.894   2.411   3.740
 2568SOL    HW1 2013   2.853   2.493   3.701
 2568SOL    HW2 2014   2.958   2.437   3.813
 2574SOL     OW 2015   2.350   3.247   3.898
 2574SOL    HW1 2016   2.263   3.232   3.945
 2574SOL    HW2 2017   2.333   3.273   3.803
 2576SOL     OW 2018   3.252   2.437   3.802
 2576SOL    HW1 2019   3.198   2.416   3.883
 2576SOL    HW2 2020   3.343   2.396   3.811
 2577SOL     OW 2021   2.389   2.118   4.052
 2577SOL    HW1 2022   2.416   2.059   3.977
 2577SOL    HW2 2023   2.389   2.213   4.021
 2580SOL     OW 2024   2.567   2.912   4.092
 2580SOL    HW1 2025   2.553   2.919   4.191
 2580SOL    HW2 2026   2.651   2.861   4.074
 2589SOL     OW 2027   3.071   2.387   3.999
 2589SOL    HW1 2028   3.084   2.303   4.053
 2589SOL    HW2 2029   3.042   2.461   4.059
 2596SOL     OW 2030   3.402   2.136   3.849
 2596SOL    HW1 2031   3.341   2.061   3.872
 2596SOL    HW2 2032   3.424   2.188   3.932
 2597SOL     OW 2033   3.165   2.700   3.766
 2597SOL    HW1 2034   3.199   2.607   3.781
 2597SOL    HW2 2035   3.183   2.727   3.671
 2602SOL     OW 2036   1.870   3.188   3.924
 2602SOL    HW1 2037   1.777   3.209   3.893
 2602SOL    HW2 2038   1.880   3.089   3.937
 2607SOL     OW 2039   2.677   2.434   4.049
 2607SOL    HW1 2040   2.684   2.345   4.003
 2607SOL    HW2 2041   2.583   2.468   4.041
 2610SOL     OW 2042   2.335   2.362   3.915
 2610SOL    HW1 2043   2.396   2.442   3.919
 2610SOL    HW2 2044   2.240   2.393   3.922
 2613SOL     OW 2045   3.164   2.717   4.033
 2613SOL    HW1 2046   3.078   2.686   4.075
 2613SOL    HW2 2047   3.160   2.703   3.934
 2619SOL     OW 2048   2.534   3.478   3.878
 2619SOL    HW1 2049   2.543   3.488   3.779
 2619SOL    HW2 2050   2.494   3.389   3.899
 2623SOL     OW 2051   3.056   3.474   3.755
 2623SOL    HW1 2052   3.062   3.381   3.792
 2623SOL    HW2 2053   2.997   3.474   3.675
 2625SOL     OW 2054   2.778   2.772   4.015
 2625SOL    HW1 2055   2.841   2.810   3.947
 2625SOL    HW2 2056   2.818   2.689   4.054
 2631SOL     OW 2057   2.117   3.210   4.014
 2631SOL    HW1 2058   2.021   3.211   3.987
 2631SOL    HW2 2059   2.129   3.263   4.098
 2632SOL     OW 2060   1.937   2.207   3.757
 2632SOL    HW1 2061   1.845   2.179   3.728
 2632SOL    HW2 2062   1.968   2.284   3.701
 2633SOL     OW 2063   1.934   2.028   4.042
 2633SOL    HW1 2064   1.917   2.111   3.988
 2633SOL    HW2 2065   2.024   1.991   4.020
 2634SOL     OW 2066   3.045   3.197   3.843
 2634SOL    HW1 2067   2.946   3.186   3.845
 2634SOL    HW2 2068   3.079   3.212   3.936
 2640SOL     OW 2069   2.721   3.236   3.740
 2640SOL    HW1 2070   2.675   3.251   3.828
 2640SOL    HW2 2071   2.765   3.321   3.710
 2643SOL     OW 2072   2.945   2.846   3.811
 2643SOL    HW1 2073   2.922   2.899   3.729
 2643SOL    HW2 2074   3.026   2.790   3.792
 2647SOL     OW 2075   2.290   2.286   4.244
 2647SOL    HW1 2076   2.320   2.214   4.182
 2647SOL    HW2 2077   2.251   2.246   4.327
 2652SOL     OW 2078   2.632   3.192   4.025
 2652SOL    HW1 2079   2.586   3.105   4.042
 2652SOL    HW2 2080   2.723   3.189   4.066
 2653SOL     OW 2081   3.214   1.914   3.892
 2653SOL    HW1 2082   3.249   1.873   3.808
 2653SOL    HW2 2083   3.124   1.876   3.912
 2656SOL     OW 2084   1.901   2.939   4.024
 2656SOL    HW1 2085   2.000   2.928   4.015
 2656SOL    HW2 2086   1.861   2.853   4.056
 2680SOL     OW 2087   2.179   3.975   1.801
 2680SOL    HW1 2088   2.250   4.046   1.807
 2680SOL    HW2 2089   2.091   4.014   1.829
 2701SOL     OW 2090   2.643   3.988   1.749
 2701SOL    HW1 2091   2.710   3.927   1.792
 2701SOL    HW2 2092   2.570   4.007   1.814
 2721SOL     OW 2093   2.777   3.813   1.402
 2721SOL    HW1 2094   2.802   3.793   1.307
 2721SOL    HW2 2095   2.849   3.869   1.444
 2731SOL     OW 2096   2.875   3.829   1.770
 2731SOL    HW1 2097   2.881   3.914   1.718
 2731SOL    HW2 2098   2.907   3.753   1.713
 2732SOL     OW 2099   2.366   3.774   1.740
 2732SOL    HW1 2100   2.324   3.717   1.670
 2732SOL    HW2 2101   2.300   3.843   1.772
 2775SOL     OW 2102   2.534   3.927   1.489
 2775SOL    HW1 2103   2.624   3.911   1.449
 2775SOL    HW2 2104   2.542   3.932   1.588
 2799SOL     OW 2105   2.087   3.999   2.858
 2799SOL    HW1 2106   2.122   3.982   2.950
 2799SOL    HW2 2107   1.999   3.954   2.846
 2800SOL     OW 2108   1.881   4.092   2.509
 2800SOL    HW1 2109   1.799   4.135   2.548
 2800SOL    HW2 2110   1.853   4.019   2.446
 2817SOL     OW 2111   2.671   3.728   2.364
 2817SOL    HW1 2112   2.711   3.819   2.355
 2817SOL    HW2 2113   2.571   3.736   2.370
 2822SOL     OW 2114   3.143   4.069   2.806
 2822SOL    HW1 2115   3.057   4.019   2.793
 2822SOL    HW2 2116   3.205   4.015   2.862
 2826SOL     OW 2117   2.853   4.134   3.104
 2826SOL    HW1 2118   2.776   4.168   3.158
 2826SOL    HW2 2119   2.819   4.083   3.025
 2829SOL     OW 2120   2.727   4.072   2.057
 2829SOL    HW1 2121   2.786   4.135   2.008
 2829SOL    HW2 2122   2.746   3.978   2.028
 2832SOL     OW 2123   2.412   3.920   2.747
 2832SOL    HW1 2124   2.407   3.915   2.847
 2832SOL    HW2 2125   2.414   4.016   2.718
 2836SOL     OW 2126   2.064   4.009   3.360
 2836SOL    HW1 2127   1.984   4.069   3.347
 2836SOL    HW2 2128   2.054   3.960   3.446
 2837SOL     OW 2129   3.262   3.831   2.288
 2837SOL    HW1 2130   3.238   3.794   2.198
 2837SOL    HW2 2131   3.361   3.847   2.292
 2840SOL     OW 2132   2.476   3.846   1.979
 2840SOL    HW1 2133   2.574   3.824   1.986
 2840SOL    HW2 2134   2.445   3.829   1.886
 2843SOL     OW 2135   2.784   4.227   2.761
 2843SOL    HW1 2136   2.759   4.218   2.665
 2843SOL    HW2 2137   2.832   4.145   2.792
 2844SOL     OW 2138   2.401   3.788   2.374
 2844SOL    HW1 2139   2.320   3.789   2.432
 2844SOL    HW2 2140   2.404   3.871   2.319
 2845SOL     OW 2141   2.159   3.759   2.033
 2845SOL    HW1 2142   2.208   3.843   2.012
 2845SOL    HW2 2143   2.221   3.694   2.078
 2846SOL     OW 2144   2.797   3.960   2.342
 2846SOL    HW1 2145   2.749   4.001   2.264
 2846SOL    HW2 2146   2.896   3.958   2.323
 2851SOL     OW 2147   2.423   3.946   3.009
 2851SOL    HW1 2148   2.461   3.862   3.046
 2851SOL    HW2 2149   2.335   3.965   3.053
 2852SOL     OW 2150   2.728   4.178   2.504
 2852SOL    HW1 2151   2.696   4.250   2.442
 2852SOL    HW2 2152   2.752   4.097   2.451
 2853SOL     OW 2153   2.879   3.763   2.615
 2853SOL    HW1 2154   2.807   3.768   2.546
 2853SOL    HW2 2155   2.855   3.694   2.684
 2858SOL     OW 2156   2.389   3.980   2.190
 2858SOL    HW1 2157   2.416   3.921   2.115
 2858SOL    HW2 2158   2.389   4.075   2.159
 2861SOL     OW 2159   2.777   3.813   3.264
 2861SOL    HW1 2160   2.802   3.793   3.169
 2861SOL    HW2 2161   2.849   3.869   3.306
 2867SOL     OW 2162   2.428   4.261   2.727
 2867SOL    HW1 2163   2.440   4.327   2.653
 2867SOL    HW2 2164   2.474   4.295   2.810
 2871SOL     OW 2165   2.875   3.829   3.632
 2871SOL    HW1 2166   2.881   3.914   3.580
 2871SOL    HW2 2167   2.907   3.753   3.575
 2872SOL     OW 2168   2.366   3.774   3.602
 2872SOL    HW1 2169   2.324   3.717   3.532
 2872SOL    HW2 2170   2.300   3.843   3.634
 2876SOL     OW 2171   2.169   3.937   3.093
 2876SOL    HW1 2172   2.146   3.974   3.183
 2876SOL    HW2 2173   2.139   3.842   3.087
 2879SOL     OW 2174   2.169   3.787   2.480
 2879SOL    HW1 2175   2.158   3.881   2.513
 2879SOL    HW2 2176   2.164   3.724   2.557
 2886SOL     OW 2177   2.201   4.233   2.868
 2886SOL    HW1 2178   2.149   4.150   2.851
 2886SOL    HW2 2179   2.278   4.238   2.804
 2888SOL     OW 2180   3.022   3.931   3.339
 2888SOL    HW1 2181   3.022   3.995   3.416
 2888SOL    HW2 2182   3.050   3.979   3.256
 2897SOL     OW 2183   2.335   4.224   2.053
 2897SOL    HW1 2184   2.396   4.304   2.057
 2897SOL    HW2 2185   2.240   4.255   2.060
 2902SOL     OW 2186   3.588   3.859   2.385
 2902SOL    HW1 2187   3.661   3.842   2.318
 2902SOL    HW2 2188   3.557   3.772   2.423
 2905SOL     OW 2189   2.125   4.050   2.582
 2905SOL    HW1 2190   2.046   4.101   2.548
 2905SOL    HW2 2191   2.116   4.035   2.680
 2911SOL     OW 2192   2.876   3.960   2.833
 2911SOL    HW1 2193   2.868   3.924   2.740
 2911SOL    HW2 2194   2.874   3.884   2.898
 2914SOL     OW 2195   2.534   3.927   3.351
 2914SOL    HW1 2196   2.624   3.911   3.311
 2914SOL    HW2 2197   2.542   3.932   3.450
 2915SOL     OW 2198   1.937   4.069   1.895
 2915SOL    HW1 2199   1.845   4.041   1.866
 2915SOL    HW2 2200   1.968   4.146   1.839
 2917SOL     OW 2201   1.934   3.890   2.180
 2917SOL    HW1 2202   1.917   3.973   2.126
 2917SOL    HW2 2203   2.024   3.853   2.158
 2922SOL     OW 2204   3.087   4.049   2.311
 2922SOL    HW1 2205   3.152   3.975   2.300
 2922SOL    HW2 2206   3.107   4.099   2.395
 2930SOL     OW 2207   2.290   4.148   2.382
 2930SOL    HW1 2208   2.320   4.076   2.320
 2930SOL    HW2 2209   2.251   4.108   2.465
 2932SOL     OW 2210   3.286   3.938   2.974
 2932SOL    HW1 2211   3.338   3.873   3.029
 2932SOL    HW2 2212   3.237   4.001   3.035
 2933SOL     OW 2213   2.863   3.758   3.016
 2933SOL    HW1 2214   2.800   3.686   2.985
 2933SOL    HW2 2215   2.956   3.722   3.016
 2935SOL     OW 2216   3.214   3.776   2.030
 2935SOL    HW1 2217   3.249   3.735   1.946
 2935SOL    HW2 2218   3.124   3.738   2.050
 2937SOL     OW 2219   3.455   3.945   2.744
 2937SOL    HW1 2220   3.371   3.944   2.798
 2937SOL    HW2 2221   3.457   4.028   2.688
 3069SOL     OW 2222   3.854   1.821   1.571
 3069SOL    HW1 2223   3.844   1.806   1.670
 3069SOL    HW2 2224   3.768   1.857   1.535
 3147SOL     OW 2225   3.854   1.794   1.851
 3147SOL    HW1 2226   3.813   1.720   1.904
 3147SOL    HW2 2227   3.918   1.845   1.909
 3190SOL     OW 2228   3.955   1.713   2.345
 3190SOL    HW1 2229   3.989   1.790   2.399
 3190SOL    HW2 2230   3.999   1.713   2.255
 3197SOL     OW 2231   3.751   1.596   1.979
 3197SOL    HW1 2232   3.732   1.500   2.000
 3197SOL    HW2 2233   3.718   1.654   2.054
 3209SOL     OW 2234   3.854   1.821   3.433
 3209SOL    HW1 2235   3.844   1.806   3.532
 3209SOL    HW2 2236   3.768   1.857   3.397
 3213SOL     OW 2237   4.075   1.801   2.715
 3213SOL    HW1 2238   4.125   1.715   2.721
 3213SOL    HW2 2239   4.140   1.878   2.712
 3220SOL     OW 2240   3.973   1.785   3.103
 3220SOL    HW1 2241   4.030   1.720   3.153
 3220SOL    HW2 2242   3.957   1.752   3.010
 3248SOL     OW 2243   3.788   1.564   3.193
 3248SOL    HW1 2244   3.742   1.646   3.159
 3248SOL    HW2 2245   3.886   1.583   3.202
 3272SOL     OW 2246   3.732   1.326   2.062
 3272SOL    HW1 2247   3.639   1.347   2.031
 3272SOL    HW2 2248   3.742   1.227   2.075
 3273SOL     OW 2249   3.812   1.801   2.789
 3273SOL    HW1 2250   3.770   1.715   2.762
 3273SOL    HW2 2251   3.906   1.804   2.755
 3436SOL     OW 2252   3.837   2.599   1.597
 3436SOL    HW1 2253   3.925   2.586   1.642
 3436SOL    HW2 2254   3.824   2.696   1.575
 3440SOL     OW 2255   4.041   2.113   1.801
 3440SOL    HW1 2256   4.112   2.184   1.807
 3440SOL    HW2 2257   3.953   2.152   1.829
 3456SOL     OW 2258   3.926   2.147   1.498
 3456SOL    HW1 2259   3.846   2.207   1.485
 3456SOL    HW2 2260   3.916   2.098   1.584
 3474SOL     OW 2261   3.802   2.418   1.386
 3474SOL    HW1 2262   3.894   2.417   1.345
 3474SOL    HW2 2263   3.796   2.492   1.453
 3503SOL     OW 2264   4.074   2.760   1.804
 3503SOL    HW1 2265   4.150   2.804   1.852
 3503SOL    HW2 2266   4.109   2.713   1.722
 3514SOL     OW 2267   3.913   2.382   1.722
 3514SOL    HW1 2268   3.972   2.342   1.652
 3514SOL    HW2 2269   3.855   2.453   1.681
 3520SOL     OW 2270   3.883   2.999   1.466
 3520SOL    HW1 2271   3.905   2.938   1.542
 3520SOL    HW2 2272   3.893   2.950   1.380
 3536SOL     OW 2273   3.829   2.875   1.726
 3536SOL    HW1 2274   3.752   2.842   1.780
 3536SOL    HW2 2275   3.914   2.845   1.768
 3547SOL     OW 2276   3.945   3.176   1.844
 3547SOL    HW1 2277   3.880   3.103   1.823
 3547SOL    HW2 2278   3.949   3.190   1.942
 3557SOL     OW 2279   3.954   2.490   1.975
 3557SOL    HW1 2280   3.861   2.488   2.012
 3557SOL    HW2 2281   3.955   2.451   1.883
 3558SOL     OW 2282   3.949   2.137   2.858
 3558SOL    HW1 2283   3.984   2.120   2.950
 3558SOL    HW2 2284   3.861   2.092   2.846
 3559SOL     OW 2285   3.743   2.230   2.509
 3559SOL    HW1 2286   3.661   2.273   2.548
 3559SOL    HW2 2287   3.715   2.157   2.446
 3570SOL     OW 2288   3.954   3.296   2.400
 3570SOL    HW1 2289   3.928   3.392   2.400
 3570SOL    HW2 2290   3.883   3.242   2.445
 3571SOL     OW 2291   3.964   2.953   2.748
 3571SOL    HW1 2292   3.978   2.869   2.800
 3571SOL    HW2 2293   3.909   3.017   2.803
 3574SOL     OW 2294   3.846   2.505   2.425
 3574SOL    HW1 2295   3.801   2.417   2.442
 3574SOL    HW2 2296   3.845   2.559   2.509
 3575SOL     OW 2297   3.751   3.458   1.979
 3575SOL    HW1 2298   3.732   3.362   2.000
 3575SOL    HW2 2299   3.718   3.516   2.054
 3576SOL     OW 2300   3.837   2.599   3.459
 3576SOL    HW1 2301   3.925   2.586   3.504
 3576SOL    HW2 2302   3.824   2.696   3.437
 3579SOL     OW 2303   3.921   2.838   3.126
 3579SOL    HW1 2304   4.010   2.793   3.112
 3579SOL    HW2 2305   3.848   2.773   3.107
 3586SOL     OW 2306   3.800   2.673   2.651
 3586SOL    HW1 2307   3.899   2.661   2.660
 3586SOL    HW2 2308   3.776   2.768   2.672
 3593SOL     OW 2309   4.045   2.805   2.104
 3593SOL    HW1 2310   4.127   2.844   2.062
 3593SOL    HW2 2311   4.018   2.723   2.055
 3596SOL     OW 2312   3.926   2.147   3.360
 3596SOL    HW1 2313   3.846   2.207   3.347
 3596SOL    HW2 2314   3.916   2.098   3.446
 3600SOL     OW 2315   4.106   2.562   2.342
 3600SOL    HW1 2316   4.151   2.472   2.339
 3600SOL    HW2 2317   4.012   2.551   2.375
 3607SOL     OW 2318   4.021   1.897   2.033
 3607SOL    HW1 2319   4.070   1.981   2.012
 3607SOL    HW2 2320   4.083   1.832   2.078
 3611SOL     OW 2321   4.183   3.014   2.603
 3611SOL    HW1 2322   4.112   2.987   2.668
 3611SOL    HW2 2323   4.157   2.986   2.510
 3614SOL     OW 2324   3.802   2.418   3.248
 3614SOL    HW1 2325   3.894   2.417   3.207
 3614SOL    HW2 2326   3.796   2.492   3.315
 3625SOL     OW 2327   4.134   2.675   3.113
 3625SOL    HW1 2328   4.220   2.687   3.163
 3625SOL    HW2 2329   4.092   2.588   3.140
 3626SOL     OW 2330   3.788   3.426   3.193
 3626SOL    HW1 2331   3.742   3.508   3.159
 3626SOL    HW2 2332   3.886   3.445   3.202
 3627SOL     OW 2333   4.091   2.962   2.363
 3627SOL    HW1 2334   4.084   3.045   2.307
 3627SOL    HW2 2335   4.095   2.882   2.303
 3637SOL     OW 2336   4.031   2.075   3.093
 3637SOL    HW1 2337   4.008   2.112   3.183
 3637SOL    HW2 2338   4.001   1.980   3.087
 3638SOL     OW 2339   3.761   3.172   3.144
 3638SOL    HW1 2340   3.814   3.123   3.212
 3638SOL    HW2 2341   3.783   3.270   3.149
 3640SOL     OW 2342   4.031   1.925   2.480
 3640SOL    HW1 2343   4.020   2.019   2.513
 3640SOL    HW2 2344   4.026   1.862   2.557
 3646SOL     OW 2345   4.043   2.672   2.811
 3646SOL    HW1 2346   4.136   2.708   2.816
 3646SOL    HW2 2347   4.037   2.587   2.863
 3647SOL     OW 2348   4.063   2.371   2.868
 3647SOL    HW1 2349   4.011   2.288   2.851
 3647SOL    HW2 2350   4.140   2.376   2.804
 3650SOL     OW 2351   3.732   3.188   2.062
 3650SOL    HW1 2352   3.639   3.209   2.031
 3650SOL    HW2 2353   3.742   3.089   2.075
 3651SOL     OW 2354   3.812   3.663   2.789
 3651SOL    HW1 2355   3.770   3.577   2.762
 3651SOL    HW2 2356   3.906   3.666   2.755
 3654SOL     OW 2357   3.764   2.406   2.976
 3654SOL    HW1 2358   3.849   2.373   2.935
 3654SOL    HW2 2359   3.777   2.421   3.074
 3655SOL     OW 2360   3.913   2.382   3.584
 3655SOL    HW1 2361   3.972   2.342   3.514
 3655SOL    HW2 2362   3.855   2.453   3.543
 3660SOL     OW 2363   4.197   2.362   2.053
 3660SOL    HW1 2364   4.258   2.442   2.057
 3660SOL    HW2 2365   4.102   2.393   2.060
 3661SOL     OW 2366   3.883   2.999   3.328
 3661SOL    HW1 2367   3.905   2.938   3.404
 3661SOL    HW2 2368   3.893   2.950   3.242
 3663SOL     OW 2369   3.807   3.120   2.884
 3663SOL    HW1 2370   3.802   3.119   2.984
 3663SOL    HW2 2371   3.724   3.079   2.846
 3668SOL     OW 2372   3.987   2.188   2.582
 3668SOL    HW1 2373   3.908   2.239   2.548
 3668SOL    HW2 2374   3.978   2.173   2.680
 3675SOL     OW 2375   3.979   3.210   2.152
 3675SOL    HW1 2376   3.883   3.211   2.125
 3675SOL    HW2 2377   3.991   3.263   2.236
 3676SOL     OW 2378   3.829   2.875   3.588
 3676SOL    HW1 2379   3.752   2.842   3.642
 3676SOL    HW2 2380   3.914   2.845   3.630
 3678SOL     OW 2381   3.799   2.207   1.895
 3678SOL    HW1 2382   3.707   2.179   1.866
 3678SOL    HW2 2383   3.830   2.284   1.839
 3679SOL     OW 2384   3.796   2.028   2.180
 3679SOL    HW1 2385   3.779   2.111   2.126
 3679SOL    HW2 2386   3.886   1.991   2.158
 3689SOL     OW 2387   3.803   3.102   2.515
 3689SOL    HW1 2388   3.802   3.055   2.603
 3689SOL    HW2 2389   3.885   3.074   2.464
 3691SOL     OW 2390   4.152   2.286   2.382
 3691SOL    HW1 2391   4.182   2.214   2.320
 3691SOL    HW2 2392   4.113   2.246   2.465
 3692SOL     OW 2393   4.041   2.409   3.142
 3692SOL    HW1 2394   4.079   2.350   3.214
 3692SOL    HW2 2395   4.081   2.383   3.054
 3697SOL     OW 2396   3.763   2.939   2.162
 3697SOL    HW1 2397   3.862   2.928   2.153
 3697SOL    HW2 2398   3.723   2.853   2.194
   4.99954   4.99954   4.99954
