; mobley_1803862_GMX.itp created by acpype (v: 2023.10.27) on Thu May 21 00:07:34 2026

[ atomtypes ]
;name   bond_type     mass     charge   ptype   sigma         epsilon       Amb
 c3       c3          0.00000  0.00000   A     3.39771e-01   4.51035e-01 ; 1.91  0.1078
 hc       hc          0.00000  0.00000   A     2.60018e-01   8.70272e-02 ; 1.46  0.0208

[ moleculetype ]
;name            nrexcl
 mobley_1803862   3

[ atoms ]
;   nr  type  resi  res  atom  cgnr     charge      mass       ; qtot   bond_type
     1   c3     1   MOL    C1    1    -0.092098     12.01000 ; qtot -0.092
     2   c3     1   MOL    C2    2    -0.089100     12.01000 ; qtot -0.181
     3   c3     1   MOL    C3    3    -0.089100     12.01000 ; qtot -0.270
     4   c3     1   MOL    C4    4    -0.074400     12.01000 ; qtot -0.345
     5   c3     1   MOL    C5    5    -0.066700     12.01000 ; qtot -0.411
     6   hc     1   MOL    H1    6     0.032700      1.00800 ; qtot -0.379
     7   hc     1   MOL    H2    7     0.032700      1.00800 ; qtot -0.346
     8   hc     1   MOL    H3    8     0.032700      1.00800 ; qtot -0.313
     9   hc     1   MOL    H4    9     0.033033      1.00800 ; qtot -0.280
    10   hc     1   MOL    H5   10     0.033033      1.00800 ; qtot -0.247
    11   hc     1   MOL    H6   11     0.033033      1.00800 ; qtot -0.214
    12   hc     1   MOL    H7   12     0.033033      1.00800 ; qtot -0.181
    13   hc     1   MOL    H8   13     0.033033      1.00800 ; qtot -0.148
    14   hc     1   MOL    H9   14     0.033033      1.00800 ; qtot -0.115
    15   hc     1   MOL   H10   15     0.036700      1.00800 ; qtot -0.078
    16   hc     1   MOL   H11   16     0.036700      1.00800 ; qtot -0.042
    17   hc     1   MOL   H12   17     0.041700      1.00800 ; qtot 0.000

[ bonds ]
;   ai     aj funct   r             k
     1      4   1    1.5354e-01    1.9154e+05 ;     C1 - C4    
     1      6   1    1.0962e-01    2.8891e+05 ;     C1 - H1    
     1      7   1    1.0962e-01    2.8891e+05 ;     C1 - H2    
     1      8   1    1.0962e-01    2.8891e+05 ;     C1 - H3    
     2      5   1    1.5354e-01    1.9154e+05 ;     C2 - C5    
     2      9   1    1.0962e-01    2.8891e+05 ;     C2 - H4    
     2     10   1    1.0962e-01    2.8891e+05 ;     C2 - H5    
     2     11   1    1.0962e-01    2.8891e+05 ;     C2 - H6    
     3      5   1    1.5354e-01    1.9154e+05 ;     C3 - C5    
     3     12   1    1.0962e-01    2.8891e+05 ;     C3 - H7    
     3     13   1    1.0962e-01    2.8891e+05 ;     C3 - H8    
     3     14   1    1.0962e-01    2.8891e+05 ;     C3 - H9    
     4      5   1    1.5354e-01    1.9154e+05 ;     C4 - C5    
     4     15   1    1.0962e-01    2.8891e+05 ;     C4 - H10   
     4     16   1    1.0962e-01    2.8891e+05 ;     C4 - H11   
     5     17   1    1.0962e-01    2.8891e+05 ;     C5 - H12   

[ pairs ]
;   ai     aj    funct
     1      2      1 ;     C1 - C2    
     1      3      1 ;     C1 - C3    
     1     17      1 ;     C1 - H12   
     2     12      1 ;     C2 - H7    
     2     13      1 ;     C2 - H8    
     2     14      1 ;     C2 - H9    
     2     15      1 ;     C2 - H10   
     2     16      1 ;     C2 - H11   
     3      9      1 ;     C3 - H4    
     3     10      1 ;     C3 - H5    
     3     11      1 ;     C3 - H6    
     3     15      1 ;     C3 - H10   
     3     16      1 ;     C3 - H11   
     4      9      1 ;     C4 - H4    
     4     10      1 ;     C4 - H5    
     4     11      1 ;     C4 - H6    
     4     12      1 ;     C4 - H7    
     4     13      1 ;     C4 - H8    
     4     14      1 ;     C4 - H9    
     6      5      1 ;     H1 - C5    
     6     15      1 ;     H1 - H10   
     6     16      1 ;     H1 - H11   
     7      5      1 ;     H2 - C5    
     7     15      1 ;     H2 - H10   
     7     16      1 ;     H2 - H11   
     8      5      1 ;     H3 - C5    
     8     15      1 ;     H3 - H10   
     8     16      1 ;     H3 - H11   
     9     17      1 ;     H4 - H12   
    10     17      1 ;     H5 - H12   
    11     17      1 ;     H6 - H12   
    12     17      1 ;     H7 - H12   
    13     17      1 ;     H8 - H12   
    14     17      1 ;     H9 - H12   
    15     17      1 ;    H10 - H12   
    16     17      1 ;    H11 - H12   

[ angles ]
;   ai     aj     ak    funct   theta         cth
     1      4      5      1    1.1263e+02    5.0099e+02 ;     C1 - C4     - C5    
     1      4     15      1    1.0968e+02    3.6208e+02 ;     C1 - C4     - H10   
     1      4     16      1    1.0968e+02    3.6208e+02 ;     C1 - C4     - H11   
     2      5      3      1    1.1263e+02    5.0099e+02 ;     C2 - C5     - C3    
     2      5      4      1    1.1263e+02    5.0099e+02 ;     C2 - C5     - C4    
     2      5     17      1    1.0968e+02    3.6208e+02 ;     C2 - C5     - H12   
     3      5      4      1    1.1263e+02    5.0099e+02 ;     C3 - C5     - C4    
     3      5     17      1    1.0968e+02    3.6208e+02 ;     C3 - C5     - H12   
     4      1      6      1    1.0968e+02    3.6208e+02 ;     C4 - C1     - H1    
     4      1      7      1    1.0968e+02    3.6208e+02 ;     C4 - C1     - H2    
     4      1      8      1    1.0968e+02    3.6208e+02 ;     C4 - C1     - H3    
     4      5     17      1    1.0968e+02    3.6208e+02 ;     C4 - C5     - H12   
     5      2      9      1    1.0968e+02    3.6208e+02 ;     C5 - C2     - H4    
     5      2     10      1    1.0968e+02    3.6208e+02 ;     C5 - C2     - H5    
     5      2     11      1    1.0968e+02    3.6208e+02 ;     C5 - C2     - H6    
     5      3     12      1    1.0968e+02    3.6208e+02 ;     C5 - C3     - H7    
     5      3     13      1    1.0968e+02    3.6208e+02 ;     C5 - C3     - H8    
     5      3     14      1    1.0968e+02    3.6208e+02 ;     C5 - C3     - H9    
     5      4     15      1    1.0968e+02    3.6208e+02 ;     C5 - C4     - H10   
     5      4     16      1    1.0968e+02    3.6208e+02 ;     C5 - C4     - H11   
     6      1      7      1    1.0773e+02    2.9957e+02 ;     H1 - C1     - H2    
     6      1      8      1    1.0773e+02    2.9957e+02 ;     H1 - C1     - H3    
     7      1      8      1    1.0773e+02    2.9957e+02 ;     H2 - C1     - H3    
     9      2     10      1    1.0773e+02    2.9957e+02 ;     H4 - C2     - H5    
     9      2     11      1    1.0773e+02    2.9957e+02 ;     H4 - C2     - H6    
    10      2     11      1    1.0773e+02    2.9957e+02 ;     H5 - C2     - H6    
    12      3     13      1    1.0773e+02    2.9957e+02 ;     H7 - C3     - H8    
    12      3     14      1    1.0773e+02    2.9957e+02 ;     H7 - C3     - H9    
    13      3     14      1    1.0773e+02    2.9957e+02 ;     H8 - C3     - H9    
    15      4     16      1    1.0773e+02    2.9957e+02 ;    H10 - C4     - H11   

[ dihedrals ] ; propers
; for gromacs 4.5 or higher, using funct 9
;    i      j      k      l   func   phase     kd      pn
     1      4      5      2      9     0.00   2.17568   3 ;     C1-    C4-    C5-    C2
     1      4      5      3      9     0.00   2.17568   3 ;     C1-    C4-    C5-    C3
     1      4      5     17      9     0.00   0.54392   3 ;     C1-    C4-    C5-   H12
     2      5      3     12      9     0.00   0.54392   3 ;     C2-    C5-    C3-    H7
     2      5      3     13      9     0.00   0.54392   3 ;     C2-    C5-    C3-    H8
     2      5      3     14      9     0.00   0.54392   3 ;     C2-    C5-    C3-    H9
     2      5      4     15      9     0.00   0.54392   3 ;     C2-    C5-    C4-   H10
     2      5      4     16      9     0.00   0.54392   3 ;     C2-    C5-    C4-   H11
     3      5      2      9      9     0.00   0.54392   3 ;     C3-    C5-    C2-    H4
     3      5      2     10      9     0.00   0.54392   3 ;     C3-    C5-    C2-    H5
     3      5      2     11      9     0.00   0.54392   3 ;     C3-    C5-    C2-    H6
     3      5      4     15      9     0.00   0.54392   3 ;     C3-    C5-    C4-   H10
     3      5      4     16      9     0.00   0.54392   3 ;     C3-    C5-    C4-   H11
     4      5      2      9      9     0.00   0.54392   3 ;     C4-    C5-    C2-    H4
     4      5      2     10      9     0.00   0.54392   3 ;     C4-    C5-    C2-    H5
     4      5      2     11      9     0.00   0.54392   3 ;     C4-    C5-    C2-    H6
     4      5      3     12      9     0.00   0.54392   3 ;     C4-    C5-    C3-    H7
     4      5      3     13      9     0.00   0.54392   3 ;     C4-    C5-    C3-    H8
     4      5      3     14      9     0.00   0.54392   3 ;     C4-    C5-    C3-    H9
     6      1      4      5      9     0.00   0.54392   3 ;     H1-    C1-    C4-    C5
     6      1      4     15      9     0.00   0.50208   3 ;     H1-    C1-    C4-   H10
     6      1      4     16      9     0.00   0.50208   3 ;     H1-    C1-    C4-   H11
     7      1      4      5      9     0.00   0.54392   3 ;     H2-    C1-    C4-    C5
     7      1      4     15      9     0.00   0.50208   3 ;     H2-    C1-    C4-   H10
     7      1      4     16      9     0.00   0.50208   3 ;     H2-    C1-    C4-   H11
     8      1      4      5      9     0.00   0.54392   3 ;     H3-    C1-    C4-    C5
     8      1      4     15      9     0.00   0.50208   3 ;     H3-    C1-    C4-   H10
     8      1      4     16      9     0.00   0.50208   3 ;     H3-    C1-    C4-   H11
     9      2      5     17      9     0.00   0.50208   3 ;     H4-    C2-    C5-   H12
    10      2      5     17      9     0.00   0.50208   3 ;     H5-    C2-    C5-   H12
    11      2      5     17      9     0.00   0.50208   3 ;     H6-    C2-    C5-   H12
    12      3      5     17      9     0.00   0.50208   3 ;     H7-    C3-    C5-   H12
    13      3      5     17      9     0.00   0.50208   3 ;     H8-    C3-    C5-   H12
    14      3      5     17      9     0.00   0.50208   3 ;     H9-    C3-    C5-   H12
    15      4      5     17      9     0.00   0.50208   3 ;    H10-    C4-    C5-   H12
    16      4      5     17      9     0.00   0.50208   3 ;    H11-    C4-    C5-   H12
