; mobley_2613240_GMX.itp created by acpype (v: 2023.10.27) on Thu May 21 00:08:12 2026

[ atomtypes ]
;name   bond_type     mass     charge   ptype   sigma         epsilon       Amb
 ca       ca          0.00000  0.00000   A     3.31521e-01   4.13379e-01 ; 1.86  0.0988
 c3       c3          0.00000  0.00000   A     3.39771e-01   4.51035e-01 ; 1.91  0.1078
 os       os          0.00000  0.00000   A     3.15610e-01   3.03758e-01 ; 1.77  0.0726
 ha       ha          0.00000  0.00000   A     2.62548e-01   6.73624e-02 ; 1.47  0.0161
 h1       h1          0.00000  0.00000   A     2.42200e-01   8.70272e-02 ; 1.36  0.0208

[ moleculetype ]
;name            nrexcl
 mobley_2613240   3

[ atoms ]
;   nr  type  resi  res  atom  cgnr     charge      mass       ; qtot   bond_type
     1   ca     1   MOL    C1    1    -0.129000     12.01000 ; qtot -0.129
     2   ca     1   MOL    C2    2    -0.129000     12.01000 ; qtot -0.258
     3   ca     1   MOL    C3    3    -0.179000     12.01000 ; qtot -0.437
     4   ca     1   MOL    C4    4    -0.179000     12.01000 ; qtot -0.616
     5   ca     1   MOL    C5    5     0.102100     12.01000 ; qtot -0.514
     6   ca     1   MOL    C6    6     0.102100     12.01000 ; qtot -0.412
     7   c3     1   MOL    C7    7     0.110700     12.01000 ; qtot -0.301
     8   c3     1   MOL    C8    8     0.110700     12.01000 ; qtot -0.190
     9   os     1   MOL    O1    9    -0.304899     16.00000 ; qtot -0.495
    10   os     1   MOL    O2   10    -0.304899     16.00000 ; qtot -0.800
    11   ha     1   MOL    H1   11     0.133000      1.00800 ; qtot -0.667
    12   ha     1   MOL    H2   12     0.133000      1.00800 ; qtot -0.534
    13   ha     1   MOL    H3   13     0.138000      1.00800 ; qtot -0.396
    14   ha     1   MOL    H4   14     0.138000      1.00800 ; qtot -0.258
    15   h1     1   MOL    H5   15     0.043033      1.00800 ; qtot -0.215
    16   h1     1   MOL    H6   16     0.043033      1.00800 ; qtot -0.172
    17   h1     1   MOL    H7   17     0.043033      1.00800 ; qtot -0.129
    18   h1     1   MOL    H8   18     0.043033      1.00800 ; qtot -0.086
    19   h1     1   MOL    H9   19     0.043033      1.00800 ; qtot -0.043
    20   h1     1   MOL   H10   20     0.043033      1.00800 ; qtot 0.000

[ bonds ]
;   ai     aj funct   r             k
     1      2   1    1.3986e-01    2.9644e+05 ;     C1 - C2    
     1      3   1    1.3986e-01    2.9644e+05 ;     C1 - C3    
     1     11   1    1.0860e-01    3.0183e+05 ;     C1 - H1    
     2      4   1    1.3986e-01    2.9644e+05 ;     C2 - C4    
     2     12   1    1.0860e-01    3.0183e+05 ;     C2 - H2    
     3      5   1    1.3986e-01    2.9644e+05 ;     C3 - C5    
     3     13   1    1.0860e-01    3.0183e+05 ;     C3 - H3    
     4      6   1    1.3986e-01    2.9644e+05 ;     C4 - C6    
     4     14   1    1.0860e-01    3.0183e+05 ;     C4 - H4    
     5      6   1    1.3986e-01    2.9644e+05 ;     C5 - C6    
     5      9   1    1.3688e-01    2.8731e+05 ;     C5 - O1    
     6     10   1    1.3688e-01    2.8731e+05 ;     C6 - O2    
     7      9   1    1.4273e-01    2.3620e+05 ;     C7 - O1    
     7     15   1    1.0969e-01    2.8804e+05 ;     C7 - H5    
     7     16   1    1.0969e-01    2.8804e+05 ;     C7 - H6    
     7     17   1    1.0969e-01    2.8804e+05 ;     C7 - H7    
     8     10   1    1.4273e-01    2.3620e+05 ;     C8 - O2    
     8     18   1    1.0969e-01    2.8804e+05 ;     C8 - H8    
     8     19   1    1.0969e-01    2.8804e+05 ;     C8 - H9    
     8     20   1    1.0969e-01    2.8804e+05 ;     C8 - H10   

[ pairs ]
;   ai     aj    funct
     1      6      1 ;     C1 - C6    
     1      9      1 ;     C1 - O1    
     1     14      1 ;     C1 - H4    
     2      5      1 ;     C2 - C5    
     2     10      1 ;     C2 - O2    
     2     13      1 ;     C2 - H3    
     3      4      1 ;     C3 - C4    
     3      7      1 ;     C3 - C7    
     3     10      1 ;     C3 - O2    
     3     12      1 ;     C3 - H2    
     4      8      1 ;     C4 - C8    
     4      9      1 ;     C4 - O1    
     5      8      1 ;     C5 - C8    
     5     14      1 ;     C5 - H4    
     5     15      1 ;     C5 - H5    
     5     16      1 ;     C5 - H6    
     5     17      1 ;     C5 - H7    
     6      7      1 ;     C6 - C7    
     6     12      1 ;     C6 - H2    
     6     13      1 ;     C6 - H3    
     6     18      1 ;     C6 - H8    
     6     19      1 ;     C6 - H9    
     6     20      1 ;     C6 - H10   
     9     10      1 ;     O1 - O2    
     9     13      1 ;     O1 - H3    
    10     14      1 ;     O2 - H4    
    11      4      1 ;     H1 - C4    
    11      5      1 ;     H1 - C5    
    11     12      1 ;     H1 - H2    
    11     13      1 ;     H1 - H3    
    12     14      1 ;     H2 - H4    

[ angles ]
;   ai     aj     ak    funct   theta         cth
     1      2      4      1    1.2002e+02    5.3279e+02 ;     C1 - C2     - C4    
     1      2     12      1    1.1988e+02    3.7572e+02 ;     C1 - C2     - H2    
     1      3      5      1    1.2002e+02    5.3279e+02 ;     C1 - C3     - C5    
     1      3     13      1    1.1988e+02    3.7572e+02 ;     C1 - C3     - H3    
     2      1      3      1    1.2002e+02    5.3279e+02 ;     C2 - C1     - C3    
     2      1     11      1    1.1988e+02    3.7572e+02 ;     C2 - C1     - H1    
     2      4      6      1    1.2002e+02    5.3279e+02 ;     C2 - C4     - C6    
     2      4     14      1    1.1988e+02    3.7572e+02 ;     C2 - C4     - H4    
     3      1     11      1    1.1988e+02    3.7572e+02 ;     C3 - C1     - H1    
     3      5      6      1    1.2002e+02    5.3279e+02 ;     C3 - C5     - C6    
     3      5      9      1    1.1911e+02    6.6107e+02 ;     C3 - C5     - O1    
     4      2     12      1    1.1988e+02    3.7572e+02 ;     C4 - C2     - H2    
     4      6      5      1    1.2002e+02    5.3279e+02 ;     C4 - C6     - C5    
     4      6     10      1    1.1911e+02    6.6107e+02 ;     C4 - C6     - O2    
     5      3     13      1    1.1988e+02    3.7572e+02 ;     C5 - C3     - H3    
     5      6     10      1    1.1911e+02    6.6107e+02 ;     C5 - C6     - O2    
     5      9      7      1    1.1839e+02    7.3856e+02 ;     C5 - O1     - C7    
     6      4     14      1    1.1988e+02    3.7572e+02 ;     C6 - C4     - H4    
     6      5      9      1    1.1911e+02    6.6107e+02 ;     C6 - C5     - O1    
     6     10      8      1    1.1839e+02    7.3856e+02 ;     C6 - O2     - C8    
     9      7     15      1    1.1034e+02    4.7028e+02 ;     O1 - C7     - H5    
     9      7     16      1    1.1034e+02    4.7028e+02 ;     O1 - C7     - H6    
     9      7     17      1    1.1034e+02    4.7028e+02 ;     O1 - C7     - H7    
    10      8     18      1    1.1034e+02    4.7028e+02 ;     O2 - C8     - H8    
    10      8     19      1    1.1034e+02    4.7028e+02 ;     O2 - C8     - H9    
    10      8     20      1    1.1034e+02    4.7028e+02 ;     O2 - C8     - H10   
    15      7     16      1    1.0855e+02    2.9824e+02 ;     H5 - C7     - H6    
    15      7     17      1    1.0855e+02    2.9824e+02 ;     H5 - C7     - H7    
    16      7     17      1    1.0855e+02    2.9824e+02 ;     H6 - C7     - H7    
    18      8     19      1    1.0855e+02    2.9824e+02 ;     H8 - C8     - H9    
    18      8     20      1    1.0855e+02    2.9824e+02 ;     H8 - C8     - H10   
    19      8     20      1    1.0855e+02    2.9824e+02 ;     H9 - C8     - H10   

[ dihedrals ] ; propers
; for gromacs 4.5 or higher, using funct 9
;    i      j      k      l   func   phase     kd      pn
     1      2      4      6      9   180.00  15.16700   2 ;     C1-    C2-    C4-    C6
     1      2      4     14      9   180.00  15.16700   2 ;     C1-    C2-    C4-    H4
     1      3      5      6      9   180.00  15.16700   2 ;     C1-    C3-    C5-    C6
     1      3      5      9      9   180.00  15.16700   2 ;     C1-    C3-    C5-    O1
     2      1      3      5      9   180.00  15.16700   2 ;     C2-    C1-    C3-    C5
     2      1      3     13      9   180.00  15.16700   2 ;     C2-    C1-    C3-    H3
     2      4      6      5      9   180.00  15.16700   2 ;     C2-    C4-    C6-    C5
     2      4      6     10      9   180.00  15.16700   2 ;     C2-    C4-    C6-    O2
     3      1      2      4      9   180.00  15.16700   2 ;     C3-    C1-    C2-    C4
     3      1      2     12      9   180.00  15.16700   2 ;     C3-    C1-    C2-    H2
     3      5      6      4      9   180.00  15.16700   2 ;     C3-    C5-    C6-    C4
     3      5      6     10      9   180.00  15.16700   2 ;     C3-    C5-    C6-    O2
     3      5      9      7      9   180.00   6.94544   2 ;     C3-    C5-    O1-    C7
     4      6      5      9      9   180.00  15.16700   2 ;     C4-    C6-    C5-    O1
     4      6     10      8      9   180.00   6.94544   2 ;     C4-    C6-    O2-    C8
     5      6      4     14      9   180.00  15.16700   2 ;     C5-    C6-    C4-    H4
     5      6     10      8      9   180.00   6.94544   2 ;     C5-    C6-    O2-    C8
     5      9      7     15      9     0.00   1.60387   3 ;     C5-    O1-    C7-    H5
     5      9      7     16      9     0.00   1.60387   3 ;     C5-    O1-    C7-    H6
     5      9      7     17      9     0.00   1.60387   3 ;     C5-    O1-    C7-    H7
     6      4      2     12      9   180.00  15.16700   2 ;     C6-    C4-    C2-    H2
     6      5      3     13      9   180.00  15.16700   2 ;     C6-    C5-    C3-    H3
     6      5      9      7      9   180.00   6.94544   2 ;     C6-    C5-    O1-    C7
     6     10      8     18      9     0.00   1.60387   3 ;     C6-    O2-    C8-    H8
     6     10      8     19      9     0.00   1.60387   3 ;     C6-    O2-    C8-    H9
     6     10      8     20      9     0.00   1.60387   3 ;     C6-    O2-    C8-   H10
     9      5      3     13      9   180.00  15.16700   2 ;     O1-    C5-    C3-    H3
     9      5      6     10      9   180.00  15.16700   2 ;     O1-    C5-    C6-    O2
    10      6      4     14      9   180.00  15.16700   2 ;     O2-    C6-    C4-    H4
    11      1      2      4      9   180.00  15.16700   2 ;     H1-    C1-    C2-    C4
    11      1      2     12      9   180.00  15.16700   2 ;     H1-    C1-    C2-    H2
    11      1      3      5      9   180.00  15.16700   2 ;     H1-    C1-    C3-    C5
    11      1      3     13      9   180.00  15.16700   2 ;     H1-    C1-    C3-    H3
    12      2      4     14      9   180.00  15.16700   2 ;     H2-    C2-    C4-    H4

[ dihedrals ] ; impropers
; treated as propers in GROMACS to use correct AMBER analytical function
;    i      j      k      l   func   phase     kd      pn
     1      4      2     12      4   180.00   4.60240   2 ;     C1-    C4-    C2-    H2
     1      5      3     13      4   180.00   4.60240   2 ;     C1-    C5-    C3-    H3
     2      6      4     14      4   180.00   4.60240   2 ;     C2-    C6-    C4-    H4
     3      6      5      9      4   180.00   4.60240   2 ;     C3-    C6-    C5-    O1
     4      5      6     10      4   180.00   4.60240   2 ;     C4-    C5-    C6-    O2
    11      1      3      2      4   180.00   4.60240   2 ;     H1-    C1-    C3-    C2
