mobley_6896128_GMX.gro created by acpype (v: 2023.10.27) on Thu May 21 00:13:47 2026
 2417
    1MOL     C1    1   2.298   2.634   2.785
    1MOL     C2    2   2.593   2.290   2.168
    1MOL     C3    3   2.501   2.552   2.296
    1MOL     C4    4   2.399   2.536   2.727
    1MOL     C5    5   2.592   2.315   2.318
    1MOL     C6    6   2.384   2.523   2.575
    1MOL     C7    7   2.489   2.427   2.517
    1MOL     C8    8   2.484   2.415   2.363
    1MOL     H1    9   2.311   2.734   2.742
    1MOL     H2   10   2.195   2.601   2.764
    1MOL     H3   11   2.310   2.641   2.893
    1MOL     H4   12   2.504   2.237   2.135
    1MOL     H5   13   2.680   2.229   2.141
    1MOL     H6   14   2.600   2.384   2.112
    1MOL     H7   15   2.423   2.622   2.327
    1MOL     H8   16   2.598   2.596   2.320
    1MOL     H9   17   2.494   2.544   2.187
    1MOL    H10   18   2.500   2.570   2.752
    1MOL    H11   19   2.385   2.438   2.774
    1MOL    H12   20   2.691   2.354   2.346
    1MOL    H13   21   2.579   2.220   2.370
    1MOL    H14   22   2.283   2.487   2.553
    1MOL    H15   23   2.395   2.622   2.529
    1MOL    H16   24   2.476   2.328   2.562
    1MOL    H17   25   2.588   2.462   2.547
    1MOL    H18   26   2.386   2.375   2.335
   14SOL     OW   27   1.460   1.505   1.339
   14SOL    HW1   28   1.484   1.599   1.365
   14SOL    HW2   29   1.444   1.451   1.421
   35SOL     OW   30   1.187   1.792   1.616
   35SOL    HW1   31   1.211   1.852   1.540
   35SOL    HW2   32   1.194   1.697   1.586
   95SOL     OW   33   1.754   1.223   1.588
   95SOL    HW1   34   1.845   1.184   1.575
   95SOL    HW2   35   1.762   1.319   1.612
   97SOL     OW   36   1.592   1.629   1.625
   97SOL    HW1   37   1.619   1.663   1.535
   97SOL    HW2   38   1.671   1.591   1.671
  127SOL     OW   39   1.859   1.518   1.605
  127SOL    HW1   40   1.873   1.545   1.510
  127SOL    HW2   41   1.942   1.540   1.658
  152SOL     OW   42   1.759   1.747   1.154
  152SOL    HW1   43   1.820   1.777   1.081
  152SOL    HW2   44   1.721   1.658   1.132
  163SOL     OW   45   1.650   1.720   1.394
  163SOL    HW1   46   1.703   1.730   1.310
  163SOL    HW2   47   1.623   1.810   1.428
  219SOL     OW   48   1.555   1.511   2.565
  219SOL    HW1   49   1.498   1.495   2.646
  219SOL    HW2   50   1.496   1.521   2.485
  227SOL     OW   51   1.460   1.505   3.201
  227SOL    HW1   52   1.484   1.599   3.227
  227SOL    HW2   53   1.444   1.451   3.283
  238SOL     OW   54   1.842   1.767   2.221
  238SOL    HW1   55   1.896   1.738   2.301
  238SOL    HW2   56   1.872   1.857   2.192
  240SOL     OW   57   1.689   0.922   2.474
  240SOL    HW1   58   1.784   0.893   2.482
  240SOL    HW2   59   1.681   0.987   2.399
  241SOL     OW   60   1.641   1.108   2.294
  241SOL    HW1   61   1.727   1.110   2.242
  241SOL    HW2   62   1.655   1.155   2.382
  247SOL     OW   63   1.525   0.999   2.052
  247SOL    HW1   64   1.462   0.923   2.065
  247SOL    HW2   65   1.573   1.017   2.138
  248SOL     OW   66   1.187   1.792   3.478
  248SOL    HW1   67   1.211   1.852   3.402
  248SOL    HW2   68   1.194   1.697   3.448
  250SOL     OW   69   1.466   1.417   2.815
  250SOL    HW1   70   1.407   1.423   2.895
  250SOL    HW2   71   1.451   1.329   2.769
  251SOL     OW   72   1.667   1.714   2.434
  251SOL    HW1   73   1.626   1.691   2.346
  251SOL    HW2   74   1.649   1.640   2.499
  254SOL     OW   75   1.576   1.662   2.169
  254SOL    HW1   76   1.665   1.708   2.172
  254SOL    HW2   77   1.555   1.638   2.074
  264SOL     OW   78   1.362   1.144   2.407
  264SOL    HW1   79   1.445   1.115   2.359
  264SOL    HW2   80   1.313   1.211   2.351
  266SOL     OW   81   1.008   1.456   2.339
  266SOL    HW1   82   0.962   1.528   2.287
  266SOL    HW2   83   1.004   1.476   2.437
  268SOL     OW   84   1.795   1.066   2.735
  268SOL    HW1   85   1.733   1.051   2.659
  268SOL    HW2   86   1.743   1.077   2.820
  269SOL     OW   87   1.227   1.550   3.368
  269SOL    HW1   88   1.233   1.473   3.432
  269SOL    HW2   89   1.175   1.524   3.288
  273SOL     OW   90   1.111   1.776   2.099
  273SOL    HW1   91   1.051   1.714   2.149
  273SOL    HW2   92   1.142   1.732   2.014
  275SOL     OW   93   1.632   1.377   1.943
  275SOL    HW1   94   1.600   1.471   1.933
  275SOL    HW2   95   1.556   1.314   1.931
  279SOL     OW   96   0.940   1.698   2.766
  279SOL    HW1   97   1.020   1.641   2.787
  279SOL    HW2   98   0.891   1.658   2.689
  289SOL     OW   99   1.434   1.188   1.903
  289SOL    HW1  100   1.466   1.112   1.960
  289SOL    HW2  101   1.342   1.215   1.933
  293SOL     OW  102   1.227   1.570   2.655
  293SOL    HW1  103   1.248   1.644   2.590
  293SOL    HW2  104   1.295   1.570   2.728
  295SOL     OW  105   1.271   1.797   2.453
  295SOL    HW1  106   1.315   1.861   2.389
  295SOL    HW2  107   1.221   1.849   2.523
  301SOL     OW  108   1.429   1.173   2.729
  301SOL    HW1  109   1.374   1.089   2.722
  301SOL    HW2  110   1.455   1.202   2.637
  303SOL     OW  111   1.857   0.833   2.239
  303SOL    HW1  112   1.899   0.769   2.303
  303SOL    HW2  113   1.819   0.782   2.161
  305SOL     OW  114   1.664   1.280   2.519
  305SOL    HW1  115   1.763   1.288   2.533
  305SOL    HW2  116   1.619   1.364   2.550
  308SOL     OW  117   1.754   1.223   3.450
  308SOL    HW1  118   1.845   1.184   3.437
  308SOL    HW2  119   1.762   1.319   3.474
  310SOL     OW  120   1.592   1.629   3.487
  310SOL    HW1  121   1.619   1.663   3.397
  310SOL    HW2  122   1.671   1.591   3.533
  312SOL     OW  123   1.638   1.099   2.941
  312SOL    HW1  124   1.643   1.180   3.000
  312SOL    HW2  125   1.552   1.101   2.890
  321SOL     OW  126   1.252   1.348   2.250
  321SOL    HW1  127   1.302   1.425   2.290
  321SOL    HW2  128   1.157   1.350   2.282
  322SOL     OW  129   1.272   1.445   3.004
  322SOL    HW1  130   1.319   1.458   3.091
  322SOL    HW2  131   1.206   1.371   3.013
  340SOL     OW  132   1.859   1.518   3.467
  340SOL    HW1  133   1.873   1.545   3.372
  340SOL    HW2  134   1.942   1.540   3.520
  365SOL     OW  135   1.759   1.747   3.016
  365SOL    HW1  136   1.820   1.777   2.943
  365SOL    HW2  137   1.721   1.658   2.994
  366SOL     OW  138   1.252   1.731   2.990
  366SOL    HW1  139   1.336   1.736   2.936
  366SOL    HW2  140   1.229   1.635   3.008
  370SOL     OW  141   1.388   1.573   2.339
  370SOL    HW1  142   1.455   1.585   2.265
  370SOL    HW2  143   1.348   1.662   2.362
  375SOL     OW  144   1.650   1.720   3.256
  375SOL    HW1  145   1.703   1.730   3.172
  375SOL    HW2  146   1.623   1.810   3.290
  378SOL     OW  147   1.194   1.612   1.893
  378SOL    HW1  148   1.200   1.519   1.930
  378SOL    HW2  149   1.135   1.612   1.813
  381SOL     OW  150   1.504   1.607   1.906
  381SOL    HW1  151   1.412   1.644   1.913
  381SOL    HW2  152   1.542   1.627   1.816
  383SOL     OW  153   1.614   1.292   3.151
  383SOL    HW1  154   1.674   1.295   3.231
  383SOL    HW2  155   1.539   1.356   3.164
  394SOL     OW  156   1.183   1.335   1.981
  394SOL    HW1  157   1.084   1.324   1.983
  394SOL    HW2  158   1.217   1.350   2.074
  396SOL     OW  159   1.493   1.767   2.821
  396SOL    HW1  160   1.526   1.831   2.752
  396SOL    HW2  161   1.559   1.761   2.896
  409SOL     OW  162   1.861   1.569   2.713
  409SOL    HW1  163   1.790   1.557   2.643
  409SOL    HW2  164   1.862   1.490   2.773
  415SOL     OW  165   1.705   1.487   2.966
  415SOL    HW1  166   1.612   1.462   2.939
  415SOL    HW2  167   1.731   1.437   3.048
  573SOL     OW  168   0.850   2.660   1.823
  573SOL    HW1  169   0.846   2.736   1.888
  573SOL    HW2  170   0.872   2.696   1.732
  577SOL     OW  171   1.460   3.367   1.339
  577SOL    HW1  172   1.484   3.461   1.365
  577SOL    HW2  173   1.444   3.313   1.421
  581SOL     OW  174   1.127   3.203   1.690
  581SOL    HW1  175   1.174   3.203   1.778
  581SOL    HW2  176   1.079   3.116   1.679
  586SOL     OW  177   1.594   1.976   1.480
  586SOL    HW1  178   1.576   2.043   1.408
  586SOL    HW2  179   1.591   2.022   1.569
  594SOL     OW  180   1.293   3.090   1.423
  594SOL    HW1  181   1.330   3.017   1.365
  594SOL    HW2  182   1.345   3.095   1.508
  606SOL     OW  183   1.394   2.331   1.674
  606SOL    HW1  184   1.374   2.374   1.762
  606SOL    HW2  185   1.472   2.269   1.683
  607SOL     OW  186   0.973   2.752   1.572
  607SOL    HW1  187   1.019   2.668   1.543
  607SOL    HW2  188   0.917   2.786   1.497
  613SOL     OW  189   1.719   2.447   1.831
  613SOL    HW1  190   1.693   2.536   1.795
  613SOL    HW2  191   1.717   2.379   1.758
  618SOL     OW  192   1.795   2.928   0.873
  618SOL    HW1  193   1.733   2.913   0.797
  618SOL    HW2  194   1.743   2.939   0.958
  631SOL     OW  195   1.547   2.084   1.729
  631SOL    HW1  196   1.542   2.121   1.821
  631SOL    HW2  197   1.475   2.015   1.717
  635SOL     OW  198   1.351   2.452   1.433
  635SOL    HW1  199   1.379   2.409   1.518
  635SOL    HW2  200   1.376   2.548   1.434
  642SOL     OW  201   1.076   2.545   1.464
  642SOL    HW1  202   0.996   2.484   1.467
  642SOL    HW2  203   1.157   2.492   1.440
  652SOL     OW  204   1.466   2.452   0.992
  652SOL    HW1  205   1.436   2.357   0.999
  652SOL    HW2  206   1.539   2.468   1.058
  658SOL     OW  207   1.754   3.085   1.588
  658SOL    HW1  208   1.845   3.046   1.575
  658SOL    HW2  209   1.762   3.181   1.612
  660SOL     OW  210   1.592   3.491   1.625
  660SOL    HW1  211   1.619   3.525   1.535
  660SOL    HW2  212   1.671   3.453   1.671
  662SOL     OW  213   1.638   2.961   1.079
  662SOL    HW1  214   1.643   3.042   1.138
  662SOL    HW2  215   1.552   2.963   1.028
  664SOL     OW  216   0.980   2.978   1.719
  664SOL    HW1  217   0.881   2.984   1.729
  664SOL    HW2  218   1.003   2.898   1.663
  667SOL     OW  219   1.274   2.248   1.262
  667SOL    HW1  220   1.295   2.322   1.326
  667SOL    HW2  221   1.185   2.265   1.219
  676SOL     OW  222   1.587   2.641   1.670
  676SOL    HW1  223   1.495   2.679   1.665
  676SOL    HW2  224   1.647   2.688   1.605
  677SOL     OW  225   1.013   1.967   1.770
  677SOL    HW1  226   1.019   2.052   1.718
  677SOL    HW2  227   1.045   1.891   1.713
  685SOL     OW  228   1.728   2.797   1.854
  685SOL    HW1  229   1.682   2.790   1.765
  685SOL    HW2  230   1.666   2.841   1.920
  690SOL     OW  231   1.859   3.380   1.605
  690SOL    HW1  232   1.873   3.407   1.510
  690SOL    HW2  233   1.942   3.402   1.658
  697SOL     OW  234   1.138   2.242   1.678
  697SOL    HW1  235   1.093   2.305   1.742
  697SOL    HW2  236   1.231   2.273   1.661
  698SOL     OW  237   1.160   2.069   1.477
  698SOL    HW1  238   1.160   2.133   1.554
  698SOL    HW2  239   1.188   2.117   1.394
  705SOL     OW  240   1.369   2.812   1.660
  705SOL    HW1  241   1.408   2.901   1.680
  705SOL    HW2  242   1.379   2.792   1.563
  707SOL     OW  243   1.657   2.466   1.206
  707SOL    HW1  244   1.619   2.397   1.268
  707SOL    HW2  245   1.739   2.430   1.162
  713SOL     OW  246   1.347   2.921   1.234
  713SOL    HW1  247   1.371   2.858   1.160
  713SOL    HW2  248   1.257   2.961   1.216
  726SOL     OW  249   1.650   3.582   1.394
  726SOL    HW1  250   1.703   3.592   1.310
  726SOL    HW2  251   1.623   3.672   1.428
  727SOL     OW  252   1.841   2.037   0.963
  727SOL    HW1  253   1.880   1.952   0.927
  727SOL    HW2  254   1.743   2.039   0.944
  734SOL     OW  255   1.614   3.154   1.289
  734SOL    HW1  256   1.674   3.157   1.369
  734SOL    HW2  257   1.539   3.218   1.302
  738SOL     OW  258   1.709   2.247   1.381
  738SOL    HW1  259   1.782   2.316   1.385
  738SOL    HW2  260   1.737   2.172   1.322
  743SOL     OW  261   1.440   2.718   1.398
  743SOL    HW1  262   1.383   2.770   1.335
  743SOL    HW2  263   1.536   2.730   1.374
  749SOL     OW  264   1.450   3.082   1.633
  749SOL    HW1  265   1.441   3.072   1.732
  749SOL    HW2  266   1.546   3.075   1.607
  751SOL     OW  267   1.674   2.745   1.254
  751SOL    HW1  268   1.647   2.656   1.217
  751SOL    HW2  269   1.675   2.813   1.181
  754SOL     OW  270   1.777   2.204   1.642
  754SOL    HW1  271   1.760   2.235   1.548
  754SOL    HW2  272   1.693   2.167   1.680
  755SOL     OW  273   1.730   2.796   1.517
  755SOL    HW1  274   1.768   2.887   1.532
  755SOL    HW2  275   1.722   2.779   1.418
  764SOL     OW  276   1.824   2.054   1.227
  764SOL    HW1  277   1.820   1.964   1.271
  764SOL    HW2  278   1.827   2.043   1.128
  766SOL     OW  279   1.705   3.349   1.104
  766SOL    HW1  280   1.612   3.324   1.077
  766SOL    HW2  281   1.731   3.299   1.186
  769SOL     OW  282   1.424   2.076   1.112
  769SOL    HW1  283   1.476   2.011   1.167
  769SOL    HW2  284   1.375   2.139   1.173
  782SOL     OW  285   1.555   3.373   2.565
  782SOL    HW1  286   1.498   3.357   2.646
  782SOL    HW2  287   1.496   3.383   2.485
  783SOL     OW  288   1.135   2.565   2.579
  783SOL    HW1  289   1.192   2.643   2.554
  783SOL    HW2  290   1.075   2.591   2.655
  784SOL     OW  291   1.755   2.469   2.093
  784SOL    HW1  292   1.743   2.456   1.994
  784SOL    HW2  293   1.725   2.388   2.142
  790SOL     OW  294   1.460   3.367   3.201
  790SOL    HW1  295   1.484   3.461   3.227
  790SOL    HW2  296   1.444   3.313   3.283
  792SOL     OW  297   1.603   2.309   2.599
  792SOL    HW1  298   1.529   2.355   2.549
  792SOL    HW2  299   1.654   2.377   2.652
  799SOL     OW  300   1.594   1.976   3.342
  799SOL    HW1  301   1.576   2.043   3.270
  799SOL    HW2  302   1.591   2.022   3.431
  801SOL     OW  303   1.842   3.629   2.221
  801SOL    HW1  304   1.896   3.600   2.301
  801SOL    HW2  305   1.872   3.719   2.192
  803SOL     OW  306   1.689   2.784   2.474
  803SOL    HW1  307   1.784   2.755   2.482
  803SOL    HW2  308   1.681   2.849   2.399
  804SOL     OW  309   1.641   2.970   2.294
  804SOL    HW1  310   1.727   2.972   2.242
  804SOL    HW2  311   1.655   3.017   2.382
  807SOL     OW  312   1.293   3.090   3.285
  807SOL    HW1  313   1.330   3.017   3.227
  807SOL    HW2  314   1.345   3.095   3.370
  808SOL     OW  315   0.809   1.866   2.364
  808SOL    HW1  316   0.849   1.957   2.355
  808SOL    HW2  317   0.709   1.874   2.370
  810SOL     OW  318   1.525   2.861   2.052
  810SOL    HW1  319   1.462   2.785   2.065
  810SOL    HW2  320   1.573   2.879   2.138
  813SOL     OW  321   1.466   3.279   2.815
  813SOL    HW1  322   1.407   3.285   2.895
  813SOL    HW2  323   1.451   3.191   2.769
  814SOL     OW  324   1.667   3.576   2.434
  814SOL    HW1  325   1.626   3.553   2.346
  814SOL    HW2  326   1.649   3.502   2.499
  816SOL     OW  327   1.281   2.207   2.806
  816SOL    HW1  328   1.195   2.157   2.793
  816SOL    HW2  329   1.343   2.153   2.862
  817SOL     OW  330   1.576   3.524   2.169
  817SOL    HW1  331   1.665   3.570   2.172
  817SOL    HW2  332   1.555   3.500   2.074
  819SOL     OW  333   1.394   2.331   3.536
  819SOL    HW1  334   1.374   2.374   3.624
  819SOL    HW2  335   1.472   2.269   3.545
  821SOL     OW  336   0.991   2.272   3.104
  821SOL    HW1  337   0.914   2.306   3.158
  821SOL    HW2  338   0.957   2.221   3.025
  822SOL     OW  339   1.041   2.563   2.291
  822SOL    HW1  340   1.067   2.559   2.387
  822SOL    HW2  341   0.956   2.512   2.277
  825SOL     OW  342   0.865   2.210   2.057
  825SOL    HW1  343   0.924   2.273   2.008
  825SOL    HW2  344   0.884   2.116   2.028
  826SOL     OW  345   1.719   2.447   3.693
  826SOL    HW1  346   1.693   2.536   3.657
  826SOL    HW2  347   1.717   2.379   3.620
  827SOL     OW  348   1.362   3.006   2.407
  827SOL    HW1  349   1.445   2.977   2.359
  827SOL    HW2  350   1.313   3.073   2.351
  829SOL     OW  351   1.008   3.318   2.339
  829SOL    HW1  352   0.962   3.390   2.287
  829SOL    HW2  353   1.004   3.338   2.437
  831SOL     OW  354   1.795   2.928   2.735
  831SOL    HW1  355   1.733   2.913   2.659
  831SOL    HW2  356   1.743   2.939   2.820
  834SOL     OW  357   1.458   2.597   2.590
  834SOL    HW1  358   1.453   2.532   2.665
  834SOL    HW2  359   1.538   2.656   2.603
  838SOL     OW  360   1.632   3.239   1.943
  838SOL    HW1  361   1.600   3.333   1.933
  838SOL    HW2  362   1.556   3.176   1.931
  840SOL     OW  363   1.400   1.969   2.288
  840SOL    HW1  364   1.376   1.932   2.198
  840SOL    HW2  365   1.499   1.985   2.292
  844SOL     OW  366   1.547   2.084   3.591
  844SOL    HW1  367   1.542   2.121   3.683
  844SOL    HW2  368   1.475   2.015   3.579
  848SOL     OW  369   1.351   2.452   3.295
  848SOL    HW1  370   1.379   2.409   3.380
  848SOL    HW2  371   1.376   2.548   3.296
  850SOL     OW  372   0.922   2.365   2.761
  850SOL    HW1  373   0.897   2.356   2.665
  850SOL    HW2  374   0.970   2.283   2.792
  852SOL     OW  375   1.434   3.050   1.903
  852SOL    HW1  376   1.466   2.974   1.960
  852SOL    HW2  377   1.342   3.077   1.933
  854SOL     OW  378   0.935   2.098   2.342
  854SOL    HW1  379   0.887   2.139   2.264
  854SOL    HW2  380   1.034   2.096   2.323
  855SOL     OW  381   1.076   2.545   3.326
  855SOL    HW1  382   0.996   2.484   3.329
  855SOL    HW2  383   1.157   2.492   3.302
  856SOL     OW  384   1.227   3.432   2.655
  856SOL    HW1  385   1.248   3.506   2.590
  856SOL    HW2  386   1.295   3.432   2.728
  858SOL     OW  387   1.271   3.659   2.453
  858SOL    HW1  388   1.315   3.723   2.389
  858SOL    HW2  389   1.221   3.711   2.523
  859SOL     OW  390   1.032   2.411   1.878
  859SOL    HW1  391   0.991   2.493   1.839
  859SOL    HW2  392   1.096   2.437   1.951
  862SOL     OW  393   0.866   2.316   2.504
  862SOL    HW1  394   0.834   2.388   2.442
  862SOL    HW2  395   0.890   2.235   2.451
  863SOL     OW  396   1.017   1.901   2.615
  863SOL    HW1  397   0.945   1.906   2.546
  863SOL    HW2  398   0.993   1.832   2.684
  864SOL     OW  399   1.429   3.035   2.729
  864SOL    HW1  400   1.374   2.951   2.722
  864SOL    HW2  401   1.455   3.064   2.637
  865SOL     OW  402   1.466   2.452   2.854
  865SOL    HW1  403   1.436   2.357   2.861
  865SOL    HW2  404   1.539   2.468   2.920
  866SOL     OW  405   1.857   2.695   2.239
  866SOL    HW1  406   1.899   2.631   2.303
  866SOL    HW2  407   1.819   2.644   2.161
  868SOL     OW  408   1.664   3.142   2.519
  868SOL    HW1  409   1.763   3.150   2.533
  868SOL    HW2  410   1.619   3.226   2.550
  869SOL     OW  411   1.390   2.437   1.940
  869SOL    HW1  412   1.336   2.416   2.021
  869SOL    HW2  413   1.481   2.396   1.949
  871SOL     OW  414   1.754   3.085   3.450
  871SOL    HW1  415   1.845   3.046   3.437
  871SOL    HW2  416   1.762   3.181   3.474
  872SOL     OW  417   1.064   3.209   3.202
  872SOL    HW1  418   0.984   3.186   3.257
  872SOL    HW2  419   1.147   3.183   3.251
  873SOL     OW  420   1.592   3.491   3.487
  873SOL    HW1  421   1.619   3.525   3.397
  873SOL    HW2  422   1.671   3.453   3.533
  874SOL     OW  423   1.111   3.057   2.962
  874SOL    HW1  424   1.071   3.101   3.043
  874SOL    HW2  425   1.070   3.094   2.879
  875SOL     OW  426   1.638   2.961   2.941
  875SOL    HW1  427   1.643   3.042   3.000
  875SOL    HW2  428   1.552   2.963   2.890
  880SOL     OW  429   1.274   2.248   3.124
  880SOL    HW1  430   1.295   2.322   3.188
  880SOL    HW2  431   1.185   2.265   3.081
  884SOL     OW  432   1.252   3.210   2.250
  884SOL    HW1  433   1.302   3.287   2.290
  884SOL    HW2  434   1.157   3.212   2.282
  885SOL     OW  435   1.272   3.307   3.004
  885SOL    HW1  436   1.319   3.320   3.091
  885SOL    HW2  437   1.206   3.233   3.013
  886SOL     OW  438   1.582   2.501   2.334
  886SOL    HW1  439   1.551   2.562   2.407
  886SOL    HW2  440   1.632   2.553   2.265
  889SOL     OW  441   1.587   2.641   3.532
  889SOL    HW1  442   1.495   2.679   3.527
  889SOL    HW2  443   1.647   2.688   3.467
  893SOL     OW  444   1.360   2.724   2.907
  893SOL    HW1  445   1.285   2.724   2.841
  893SOL    HW2  446   1.397   2.632   2.916
  894SOL     OW  447   1.209   2.387   2.137
  894SOL    HW1  448   1.222   2.303   2.191
  894SOL    HW2  449   1.180   2.461   2.197
  897SOL     OW  450   0.732   2.496   2.926
  897SOL    HW1  451   0.791   2.470   2.850
  897SOL    HW2  452   0.704   2.592   2.915
  898SOL     OW  453   1.728   2.797   3.716
  898SOL    HW1  454   1.682   2.790   3.627
  898SOL    HW2  455   1.666   2.841   3.782
  900SOL     OW  456   1.622   2.229   2.236
  900SOL    HW1  457   1.624   2.153   2.300
  900SOL    HW2  458   1.574   2.306   2.276
  901SOL     OW  459   1.023   2.628   2.828
  901SOL    HW1  460   1.038   2.649   2.924
  901SOL    HW2  461   0.993   2.533   2.819
  903SOL     OW  462   1.859   3.380   3.467
  903SOL    HW1  463   1.873   3.407   3.372
  903SOL    HW2  464   1.942   3.402   3.520
  905SOL     OW  465   1.540   2.136   1.987
  905SOL    HW1  466   1.479   2.061   2.010
  905SOL    HW2  467   1.562   2.188   2.070
  906SOL     OW  468   1.303   2.700   1.904
  906SOL    HW1  469   1.337   2.607   1.919
  906SOL    HW2  470   1.321   2.727   1.809
  907SOL     OW  471   1.068   3.195   2.711
  907SOL    HW1  472   1.075   3.111   2.656
  907SOL    HW2  473   1.130   3.264   2.675
  910SOL     OW  474   1.138   2.242   3.540
  910SOL    HW1  475   1.093   2.305   3.604
  910SOL    HW2  476   1.231   2.273   3.523
  911SOL     OW  477   1.160   2.069   3.339
  911SOL    HW1  478   1.160   2.133   3.416
  911SOL    HW2  479   1.188   2.117   3.256
  915SOL     OW  480   1.002   2.658   3.100
  915SOL    HW1  481   1.043   2.626   3.186
  915SOL    HW2  482   0.906   2.631   3.097
  918SOL     OW  483   1.369   2.812   3.522
  918SOL    HW1  484   1.408   2.901   3.542
  918SOL    HW2  485   1.379   2.792   3.425
  919SOL     OW  486   0.815   2.434   2.187
  919SOL    HW1  487   0.822   2.345   2.141
  919SOL    HW2  488   0.721   2.468   2.179
  920SOL     OW  489   1.657   2.466   3.068
  920SOL    HW1  490   1.619   2.397   3.130
  920SOL    HW2  491   1.739   2.430   3.024
  926SOL     OW  492   1.347   2.921   3.096
  926SOL    HW1  493   1.371   2.858   3.022
  926SOL    HW2  494   1.257   2.961   3.078
  927SOL     OW  495   1.302   2.717   2.171
  927SOL    HW1  496   1.216   2.686   2.213
  927SOL    HW2  497   1.298   2.703   2.072
  928SOL     OW  498   1.759   3.609   3.016
  928SOL    HW1  499   1.820   3.639   2.943
  928SOL    HW2  500   1.721   3.520   2.994
  929SOL     OW  501   1.252   3.593   2.990
  929SOL    HW1  502   1.336   3.598   2.936
  929SOL    HW2  503   1.229   3.497   3.008
  932SOL     OW  504   1.726   1.997   2.385
  932SOL    HW1  505   1.799   1.980   2.318
  932SOL    HW2  506   1.695   1.910   2.423
  933SOL     OW  507   1.388   3.435   2.339
  933SOL    HW1  508   1.455   3.447   2.265
  933SOL    HW2  509   1.348   3.524   2.362
  935SOL     OW  510   1.280   2.789   2.534
  935SOL    HW1  511   1.340   2.708   2.536
  935SOL    HW2  512   1.320   2.858   2.474
  938SOL     OW  513   1.650   3.582   3.256
  938SOL    HW1  514   1.703   3.592   3.172
  938SOL    HW2  515   1.623   3.672   3.290
  939SOL     OW  516   1.841   2.037   2.825
  939SOL    HW1  517   1.880   1.952   2.789
  939SOL    HW2  518   1.743   2.039   2.806
  941SOL     OW  519   1.194   3.474   1.893
  941SOL    HW1  520   1.200   3.381   1.930
  941SOL    HW2  521   1.135   3.474   1.813
  943SOL     OW  522   0.916   2.772   2.153
  943SOL    HW1  523   0.979   2.810   2.085
  943SOL    HW2  524   0.956   2.689   2.192
  944SOL     OW  525   1.504   3.469   1.906
  944SOL    HW1  526   1.412   3.506   1.913
  944SOL    HW2  527   1.542   3.489   1.816
  946SOL     OW  528   1.614   3.154   3.151
  946SOL    HW1  529   1.674   3.157   3.231
  946SOL    HW2  530   1.539   3.218   3.164
  947SOL     OW  531   1.039   2.960   2.558
  947SOL    HW1  532   0.969   2.913   2.612
  947SOL    HW2  533   1.098   2.892   2.515
  948SOL     OW  534   1.014   2.098   2.833
  948SOL    HW1  535   1.006   2.062   2.740
  948SOL    HW2  536   1.012   2.022   2.898
  950SOL     OW  537   1.709   2.247   3.243
  950SOL    HW1  538   1.782   2.316   3.247
  950SOL    HW2  539   1.737   2.172   3.184
  955SOL     OW  540   1.440   2.718   3.260
  955SOL    HW1  541   1.383   2.770   3.197
  955SOL    HW2  542   1.536   2.730   3.236
  957SOL     OW  543   1.183   3.197   1.981
  957SOL    HW1  544   1.084   3.186   1.983
  957SOL    HW2  545   1.217   3.212   2.074
  959SOL     OW  546   1.493   3.629   2.821
  959SOL    HW1  547   1.526   3.693   2.752
  959SOL    HW2  548   1.559   3.623   2.896
  961SOL     OW  549   1.450   3.082   3.495
  961SOL    HW1  550   1.441   3.072   3.594
  961SOL    HW2  551   1.546   3.075   3.469
  963SOL     OW  552   1.674   2.745   3.116
  963SOL    HW1  553   1.647   2.656   3.079
  963SOL    HW2  554   1.675   2.813   3.043
  964SOL     OW  555   1.225   2.187   2.311
  964SOL    HW1  556   1.290   2.113   2.300
  964SOL    HW2  557   1.245   2.237   2.395
  966SOL     OW  558   1.777   2.204   3.504
  966SOL    HW1  559   1.760   2.235   3.410
  966SOL    HW2  560   1.693   2.167   3.542
  967SOL     OW  561   1.730   2.796   3.379
  967SOL    HW1  562   1.768   2.887   3.394
  967SOL    HW2  563   1.722   2.779   3.280
  970SOL     OW  564   0.859   2.818   2.723
  970SOL    HW1  565   0.913   2.749   2.771
  970SOL    HW2  566   0.827   2.887   2.789
  971SOL     OW  567   1.083   2.846   1.949
  971SOL    HW1  568   1.060   2.899   1.867
  971SOL    HW2  569   1.164   2.790   1.930
  972SOL     OW  570   1.861   3.431   2.713
  972SOL    HW1  571   1.790   3.419   2.643
  972SOL    HW2  572   1.862   3.352   2.773
  976SOL     OW  573   1.824   2.054   3.089
  976SOL    HW1  574   1.820   1.964   3.133
  976SOL    HW2  575   1.827   2.043   2.990
  978SOL     OW  576   1.705   3.349   2.966
  978SOL    HW1  577   1.612   3.324   2.939
  978SOL    HW2  578   1.731   3.299   3.048
  981SOL     OW  579   1.424   2.076   2.974
  981SOL    HW1  580   1.476   2.011   3.029
  981SOL    HW2  581   1.375   2.139   3.035
  982SOL     OW  582   1.001   1.896   3.016
  982SOL    HW1  583   0.938   1.824   2.985
  982SOL    HW2  584   1.094   1.860   3.016
  985SOL     OW  585   1.352   1.914   2.030
  985SOL    HW1  586   1.387   1.873   1.946
  985SOL    HW2  587   1.262   1.876   2.050
  986SOL     OW  588   1.300   2.315   2.553
  986SOL    HW1  589   1.241   2.395   2.557
  986SOL    HW2  590   1.315   2.280   2.646
  987SOL     OW  591   1.593   2.083   2.744
  987SOL    HW1  592   1.509   2.082   2.798
  987SOL    HW2  593   1.595   2.166   2.688
  996SOL     OW  594   1.755   2.469   3.955
  996SOL    HW1  595   1.743   2.456   3.856
  996SOL    HW2  596   1.725   2.388   4.004
 1013SOL     OW  597   1.525   2.861   3.914
 1013SOL    HW1  598   1.462   2.785   3.927
 1013SOL    HW2  599   1.573   2.879   4.000
 1030SOL     OW  600   1.632   3.239   3.805
 1030SOL    HW1  601   1.600   3.333   3.795
 1030SOL    HW2  602   1.556   3.176   3.793
 1040SOL     OW  603   1.434   3.050   3.765
 1040SOL    HW1  604   1.466   2.974   3.822
 1040SOL    HW2  605   1.342   3.077   3.795
 1051SOL     OW  606   1.857   2.695   4.101
 1051SOL    HW1  607   1.899   2.631   4.165
 1051SOL    HW2  608   1.819   2.644   4.023
 1054SOL     OW  609   1.390   2.437   3.802
 1054SOL    HW1  610   1.336   2.416   3.883
 1054SOL    HW2  611   1.481   2.396   3.811
 1072SOL     OW  612   1.540   2.136   3.849
 1072SOL    HW1  613   1.479   2.061   3.872
 1072SOL    HW2  614   1.562   2.188   3.932
 1073SOL     OW  615   1.303   2.700   3.766
 1073SOL    HW1  616   1.337   2.607   3.781
 1073SOL    HW2  617   1.321   2.727   3.671
 1304SOL     OW  618   1.400   3.831   2.288
 1304SOL    HW1  619   1.376   3.794   2.198
 1304SOL    HW2  620   1.499   3.847   2.292
 1368SOL     OW  621   1.726   3.859   2.385
 1368SOL    HW1  622   1.799   3.842   2.318
 1368SOL    HW2  623   1.695   3.772   2.423
 1370SOL     OW  624   1.841   3.899   2.825
 1370SOL    HW1  625   1.880   3.814   2.789
 1370SOL    HW2  626   1.743   3.901   2.806
 1393SOL     OW  627   1.824   3.916   3.089
 1393SOL    HW1  628   1.820   3.826   3.133
 1393SOL    HW2  629   1.827   3.905   2.990
 1399SOL     OW  630   1.352   3.776   2.030
 1399SOL    HW1  631   1.387   3.735   1.946
 1399SOL    HW2  632   1.262   3.738   2.050
 1401SOL     OW  633   1.593   3.945   2.744
 1401SOL    HW1  634   1.509   3.944   2.798
 1401SOL    HW2  635   1.595   4.028   2.688
 1500SOL     OW  636   2.431   1.275   1.165
 1500SOL    HW1  637   2.338   1.268   1.128
 1500SOL    HW2  638   2.442   1.364   1.209
 1507SOL     OW  639   2.548   1.161   1.803
 1507SOL    HW1  640   2.608   1.240   1.817
 1507SOL    HW2  641   2.462   1.192   1.762
 1508SOL     OW  642   2.197   1.435   1.061
 1508SOL    HW1  643   2.119   1.404   1.008
 1508SOL    HW2  644   2.255   1.493   1.004
 1509SOL     OW  645   3.322   1.505   1.339
 1509SOL    HW1  646   3.346   1.599   1.365
 1509SOL    HW2  647   3.306   1.451   1.421
 1513SOL     OW  648   2.989   1.341   1.690
 1513SOL    HW1  649   3.036   1.341   1.778
 1513SOL    HW2  650   2.941   1.254   1.679
 1516SOL     OW  651   2.482   1.786   1.439
 1516SOL    HW1  652   2.390   1.769   1.474
 1516SOL    HW2  653   2.510   1.878   1.465
 1526SOL     OW  654   3.155   1.228   1.423
 1526SOL    HW1  655   3.192   1.155   1.365
 1526SOL    HW2  656   3.207   1.233   1.508
 1530SOL     OW  657   3.049   1.792   1.616
 1530SOL    HW1  658   3.073   1.852   1.540
 1530SOL    HW2  659   3.056   1.697   1.586
 1543SOL     OW  660   1.992   1.821   1.571
 1543SOL    HW1  661   1.982   1.806   1.670
 1543SOL    HW2  662   1.906   1.857   1.535
 1549SOL     OW  663   2.213   1.801   0.853
 1549SOL    HW1  664   2.263   1.715   0.859
 1549SOL    HW2  665   2.278   1.878   0.850
 1551SOL     OW  666   3.089   1.550   1.506
 1551SOL    HW1  667   3.095   1.473   1.570
 1551SOL    HW2  668   3.037   1.524   1.426
 1554SOL     OW  669   2.323   1.266   1.727
 1554SOL    HW1  670   2.273   1.267   1.641
 1554SOL    HW2  671   2.260   1.248   1.803
 1560SOL     OW  672   2.111   1.785   1.241
 1560SOL    HW1  673   2.168   1.720   1.291
 1560SOL    HW2  674   2.095   1.752   1.148
 1561SOL     OW  675   2.802   1.698   0.904
 1561SOL    HW1  676   2.882   1.641   0.925
 1561SOL    HW2  677   2.753   1.658   0.827
 1566SOL     OW  678   2.750   1.514   1.195
 1566SOL    HW1  679   2.727   1.489   1.101
 1566SOL    HW2  680   2.811   1.445   1.234
 1591SOL     OW  681   2.926   1.347   1.340
 1591SOL    HW1  682   2.846   1.324   1.395
 1591SOL    HW2  683   3.009   1.321   1.389
 1592SOL     OW  684   3.454   1.629   1.625
 1592SOL    HW1  685   3.481   1.663   1.535
 1592SOL    HW2  686   3.533   1.591   1.671
 1596SOL     OW  687   2.842   1.116   1.719
 1596SOL    HW1  688   2.743   1.122   1.729
 1596SOL    HW2  689   2.865   1.036   1.663
 1600SOL     OW  690   1.926   1.564   1.331
 1600SOL    HW1  691   1.880   1.646   1.297
 1600SOL    HW2  692   2.024   1.583   1.340
 1606SOL     OW  693   2.216   1.510   1.329
 1606SOL    HW1  694   2.195   1.466   1.242
 1606SOL    HW2  695   2.313   1.536   1.332
 1615SOL     OW  696   1.899   1.310   1.282
 1615SOL    HW1  697   1.952   1.261   1.350
 1615SOL    HW2  698   1.921   1.408   1.287
 1621SOL     OW  699   2.842   1.573   1.700
 1621SOL    HW1  700   2.822   1.617   1.612
 1621SOL    HW2  701   2.881   1.482   1.684
 1622SOL     OW  702   3.721   1.518   1.605
 1622SOL    HW1  703   3.735   1.545   1.510
 1622SOL    HW2  704   3.804   1.540   1.658
 1623SOL     OW  705   2.212   0.898   1.804
 1623SOL    HW1  706   2.288   0.942   1.852
 1623SOL    HW2  707   2.247   0.851   1.722
 1632SOL     OW  708   1.950   1.801   0.927
 1632SOL    HW1  709   1.908   1.715   0.900
 1632SOL    HW2  710   2.044   1.804   0.893
 1640SOL     OW  711   2.114   1.564   1.744
 1640SOL    HW1  712   2.084   1.621   1.820
 1640SOL    HW2  713   2.107   1.467   1.770
 1642SOL     OW  714   2.792   1.678   1.465
 1642SOL    HW1  715   2.768   1.660   1.370
 1642SOL    HW2  716   2.822   1.772   1.475
 1644SOL     OW  717   2.021   1.137   1.466
 1644SOL    HW1  718   2.043   1.076   1.542
 1644SOL    HW2  719   2.031   1.088   1.380
 1648SOL     OW  720   3.114   1.731   1.128
 1648SOL    HW1  721   3.198   1.736   1.074
 1648SOL    HW2  722   3.091   1.635   1.146
 1650SOL     OW  723   2.550   1.662   1.716
 1650SOL    HW1  724   2.494   1.743   1.725
 1650SOL    HW2  725   2.602   1.666   1.630
 1654SOL     OW  726   1.992   1.794   1.851
 1654SOL    HW1  727   1.951   1.720   1.904
 1654SOL    HW2  728   2.056   1.845   1.909
 1656SOL     OW  729   2.692   1.273   1.422
 1656SOL    HW1  730   2.687   1.306   1.517
 1656SOL    HW2  731   2.606   1.292   1.376
 1658SOL     OW  732   3.512   1.720   1.394
 1658SOL    HW1  733   3.565   1.730   1.310
 1658SOL    HW2  734   3.485   1.810   1.428
 1665SOL     OW  735   2.234   1.288   1.490
 1665SOL    HW1  736   2.221   1.381   1.456
 1665SOL    HW2  737   2.150   1.236   1.477
 1672SOL     OW  738   1.967   1.013   1.726
 1672SOL    HW1  739   1.890   0.980   1.780
 1672SOL    HW2  740   2.052   0.983   1.768
 1680SOL     OW  741   3.312   1.220   1.633
 1680SOL    HW1  742   3.303   1.210   1.732
 1680SOL    HW2  743   3.408   1.213   1.607
 1681SOL     OW  744   2.252   1.741   1.560
 1681SOL    HW1  745   2.161   1.782   1.558
 1681SOL    HW2  746   2.245   1.647   1.592
 1688SOL     OW  747   2.523   1.790   0.953
 1688SOL    HW1  748   2.477   1.878   0.940
 1688SOL    HW2  749   2.622   1.802   0.946
 1692SOL     OW  750   2.083   1.314   1.844
 1692SOL    HW1  751   2.018   1.241   1.823
 1692SOL    HW2  752   2.087   1.328   1.942
 1694SOL     OW  753   2.534   1.391   1.624
 1694SOL    HW1  754   2.456   1.341   1.662
 1694SOL    HW2  755   2.531   1.486   1.655
 1703SOL     OW  756   2.480   1.567   1.284
 1703SOL    HW1  757   2.475   1.649   1.341
 1703SOL    HW2  758   2.569   1.564   1.239
 1712SOL     OW  759   2.431   1.275   3.027
 1712SOL    HW1  760   2.338   1.268   2.990
 1712SOL    HW2  761   2.442   1.364   3.071
 1713SOL     OW  762   3.417   1.511   2.565
 1713SOL    HW1  763   3.360   1.495   2.646
 1713SOL    HW2  764   3.358   1.521   2.485
 1716SOL     OW  765   2.630   1.144   2.885
 1716SOL    HW1  766   2.552   1.161   2.945
 1716SOL    HW2  767   2.664   1.231   2.849
 1718SOL     OW  768   2.547   1.012   2.527
 1718SOL    HW1  769   2.616   0.996   2.597
 1718SOL    HW2  770   2.474   1.069   2.565
 1719SOL     OW  771   2.548   1.161   3.665
 1719SOL    HW1  772   2.608   1.240   3.679
 1719SOL    HW2  773   2.462   1.192   3.624
 1720SOL     OW  774   2.197   1.435   2.923
 1720SOL    HW1  775   2.119   1.404   2.870
 1720SOL    HW2  776   2.255   1.493   2.866
 1721SOL     OW  777   3.322   1.505   3.201
 1721SOL    HW1  778   3.346   1.599   3.227
 1721SOL    HW2  779   3.306   1.451   3.283
 1724SOL     OW  780   2.093   1.713   2.345
 1724SOL    HW1  781   2.127   1.790   2.399
 1724SOL    HW2  782   2.137   1.713   2.255
 1725SOL     OW  783   2.989   1.341   3.552
 1725SOL    HW1  784   3.036   1.341   3.640
 1725SOL    HW2  785   2.941   1.254   3.541
 1726SOL     OW  786   2.092   1.434   2.400
 1726SOL    HW1  787   2.066   1.530   2.400
 1726SOL    HW2  788   2.021   1.380   2.445
 1727SOL     OW  789   2.102   1.091   2.748
 1727SOL    HW1  790   2.116   1.007   2.800
 1727SOL    HW2  791   2.047   1.155   2.803
 1728SOL     OW  792   2.482   1.786   3.301
 1728SOL    HW1  793   2.390   1.769   3.336
 1728SOL    HW2  794   2.510   1.878   3.327
 1729SOL     OW  795   2.468   0.964   1.985
 1729SOL    HW1  796   2.475   1.048   1.931
 1729SOL    HW2  797   2.514   0.977   2.073
 1732SOL     OW  798   3.704   1.767   2.221
 1732SOL    HW1  799   3.758   1.738   2.301
 1732SOL    HW2  800   3.734   1.857   2.192
 1733SOL     OW  801   1.889   1.596   1.979
 1733SOL    HW1  802   1.870   1.500   2.000
 1733SOL    HW2  803   1.856   1.654   2.054
 1735SOL     OW  804   3.503   1.108   2.294
 1735SOL    HW1  805   3.589   1.110   2.242
 1735SOL    HW2  806   3.517   1.155   2.382
 1737SOL     OW  807   2.475   1.365   2.588
 1737SOL    HW1  808   2.426   1.278   2.597
 1737SOL    HW2  809   2.452   1.408   2.501
 1738SOL     OW  810   3.155   1.228   3.285
 1738SOL    HW1  811   3.192   1.155   3.227
 1738SOL    HW2  812   3.207   1.233   3.370
 1740SOL     OW  813   2.059   0.976   3.126
 1740SOL    HW1  814   2.148   0.931   3.112
 1740SOL    HW2  815   1.986   0.911   3.107
 1741SOL     OW  816   3.387   0.999   2.052
 1741SOL    HW1  817   3.324   0.923   2.065
 1741SOL    HW2  818   3.435   1.017   2.138
 1742SOL     OW  819   3.049   1.792   3.478
 1742SOL    HW1  820   3.073   1.852   3.402
 1742SOL    HW2  821   3.056   1.697   3.448
 1744SOL     OW  822   3.328   1.417   2.815
 1744SOL    HW1  823   3.269   1.423   2.895
 1744SOL    HW2  824   3.313   1.329   2.769
 1745SOL     OW  825   3.529   1.714   2.434
 1745SOL    HW1  826   3.488   1.691   2.346
 1745SOL    HW2  827   3.511   1.640   2.499
 1746SOL     OW  828   2.460   0.729   2.132
 1746SOL    HW1  829   2.484   0.798   2.064
 1746SOL    HW2  830   2.382   0.762   2.186
 1748SOL     OW  831   3.438   1.662   2.169
 1748SOL    HW1  832   3.527   1.708   2.172
 1748SOL    HW2  833   3.417   1.638   2.074
 1754SOL     OW  834   1.938   0.811   2.651
 1754SOL    HW1  835   2.037   0.799   2.660
 1754SOL    HW2  836   1.914   0.906   2.672
 1755SOL     OW  837   1.992   1.821   3.433
 1755SOL    HW1  838   1.982   1.806   3.532
 1755SOL    HW2  839   1.906   1.857   3.397
 1758SOL     OW  840   3.224   1.144   2.407
 1758SOL    HW1  841   3.307   1.115   2.359
 1758SOL    HW2  842   3.175   1.211   2.351
 1760SOL     OW  843   2.870   1.456   2.339
 1760SOL    HW1  844   2.824   1.528   2.287
 1760SOL    HW2  845   2.866   1.476   2.437
 1761SOL     OW  846   2.213   1.801   2.715
 1761SOL    HW1  847   2.263   1.715   2.721
 1761SOL    HW2  848   2.278   1.878   2.712
 1763SOL     OW  849   3.089   1.550   3.368
 1763SOL    HW1  850   3.095   1.473   3.432
 1763SOL    HW2  851   3.037   1.524   3.288
 1764SOL     OW  852   2.183   0.943   2.104
 1764SOL    HW1  853   2.265   0.982   2.062
 1764SOL    HW2  854   2.156   0.861   2.055
 1766SOL     OW  855   2.323   1.266   3.589
 1766SOL    HW1  856   2.273   1.267   3.503
 1766SOL    HW2  857   2.260   1.248   3.665
 1767SOL     OW  858   2.973   1.776   2.099
 1767SOL    HW1  859   2.913   1.714   2.149
 1767SOL    HW2  860   3.004   1.732   2.014
 1769SOL     OW  861   3.494   1.377   1.943
 1769SOL    HW1  862   3.462   1.471   1.933
 1769SOL    HW2  863   3.418   1.314   1.931
 1770SOL     OW  864   2.326   1.743   2.185
 1770SOL    HW1  865   2.359   1.782   2.271
 1770SOL    HW2  866   2.402   1.736   2.120
 1772SOL     OW  867   2.111   1.785   3.103
 1772SOL    HW1  868   2.168   1.720   3.153
 1772SOL    HW2  869   2.095   1.752   3.010
 1773SOL     OW  870   2.802   1.698   2.766
 1773SOL    HW1  871   2.882   1.641   2.787
 1773SOL    HW2  872   2.753   1.658   2.689
 1774SOL     OW  873   2.244   0.700   2.342
 1774SOL    HW1  874   2.289   0.610   2.339
 1774SOL    HW2  875   2.150   0.689   2.375
 1778SOL     OW  876   2.750   1.514   3.057
 1778SOL    HW1  877   2.727   1.489   2.963
 1778SOL    HW2  878   2.811   1.445   3.096
 1780SOL     OW  879   2.665   1.402   2.786
 1780SOL    HW1  880   2.755   1.416   2.744
 1780SOL    HW2  881   2.594   1.404   2.715
 1783SOL     OW  882   3.296   1.188   1.903
 1783SOL    HW1  883   3.328   1.112   1.960
 1783SOL    HW2  884   3.204   1.215   1.933
 1787SOL     OW  885   3.089   1.570   2.655
 1787SOL    HW1  886   3.110   1.644   2.590
 1787SOL    HW2  887   3.157   1.570   2.728
 1788SOL     OW  888   2.321   1.152   2.603
 1788SOL    HW1  889   2.250   1.125   2.668
 1788SOL    HW2  890   2.295   1.124   2.510
 1789SOL     OW  891   3.133   1.797   2.453
 1789SOL    HW1  892   3.177   1.861   2.389
 1789SOL    HW2  893   3.083   1.849   2.523
 1795SOL     OW  894   3.291   1.173   2.729
 1795SOL    HW1  895   3.236   1.089   2.722
 1795SOL    HW2  896   3.317   1.202   2.637
 1798SOL     OW  897   2.350   1.385   2.036
 1798SOL    HW1  898   2.263   1.370   2.083
 1798SOL    HW2  899   2.333   1.411   1.941
 1799SOL     OW  900   3.526   1.280   2.519
 1799SOL    HW1  901   3.625   1.288   2.533
 1799SOL    HW2  902   3.481   1.364   2.550
 1803SOL     OW  903   2.926   1.347   3.202
 1803SOL    HW1  904   2.846   1.324   3.257
 1803SOL    HW2  905   3.009   1.321   3.251
 1804SOL     OW  906   3.454   1.629   3.487
 1804SOL    HW1  907   3.481   1.663   3.397
 1804SOL    HW2  908   3.533   1.591   3.533
 1805SOL     OW  909   2.973   1.195   2.962
 1805SOL    HW1  910   2.933   1.239   3.043
 1805SOL    HW2  911   2.932   1.232   2.879
 1806SOL     OW  912   3.500   1.099   2.941
 1806SOL    HW1  913   3.505   1.180   3.000
 1806SOL    HW2  914   3.414   1.101   2.890
 1808SOL     OW  915   2.842   1.116   3.581
 1808SOL    HW1  916   2.743   1.122   3.591
 1808SOL    HW2  917   2.865   1.036   3.525
 1809SOL     OW  918   2.567   1.050   2.230
 1809SOL    HW1  919   2.553   1.057   2.329
 1809SOL    HW2  920   2.651   0.999   2.212
 1810SOL     OW  921   2.272   0.813   3.113
 1810SOL    HW1  922   2.358   0.825   3.163
 1810SOL    HW2  923   2.230   0.726   3.140
 1812SOL     OW  924   1.926   1.564   3.193
 1812SOL    HW1  925   1.880   1.646   3.159
 1812SOL    HW2  926   2.024   1.583   3.202
 1813SOL     OW  927   2.229   1.100   2.363
 1813SOL    HW1  928   2.222   1.183   2.307
 1813SOL    HW2  929   2.233   1.020   2.303
 1815SOL     OW  930   3.114   1.348   2.250
 1815SOL    HW1  931   3.164   1.425   2.290
 1815SOL    HW2  932   3.019   1.350   2.282
 1816SOL     OW  933   3.134   1.445   3.004
 1816SOL    HW1  934   3.181   1.458   3.091
 1816SOL    HW2  935   3.068   1.371   3.013
 1818SOL     OW  936   2.216   1.510   3.191
 1818SOL    HW1  937   2.195   1.466   3.104
 1818SOL    HW2  938   2.313   1.536   3.194
 1823SOL     OW  939   2.435   0.870   2.891
 1823SOL    HW1  940   2.479   0.959   2.882
 1823SOL    HW2  941   2.372   0.870   2.968
 1827SOL     OW  942   1.899   1.310   3.144
 1827SOL    HW1  943   1.952   1.261   3.212
 1827SOL    HW2  944   1.921   1.408   3.149
 1832SOL     OW  945   2.885   0.766   2.828
 1832SOL    HW1  946   2.900   0.787   2.924
 1832SOL    HW2  947   2.855   0.671   2.819
 1833SOL     OW  948   2.842   1.573   3.562
 1833SOL    HW1  949   2.822   1.617   3.474
 1833SOL    HW2  950   2.881   1.482   3.546
 1838SOL     OW  951   2.930   1.333   2.711
 1838SOL    HW1  952   2.937   1.249   2.656
 1838SOL    HW2  953   2.992   1.402   2.675
 1839SOL     OW  954   2.181   0.810   2.811
 1839SOL    HW1  955   2.274   0.846   2.816
 1839SOL    HW2  956   2.175   0.725   2.863
 1843SOL     OW  957   1.870   1.326   2.062
 1843SOL    HW1  958   1.777   1.347   2.031
 1843SOL    HW2  959   1.880   1.227   2.075
 1844SOL     OW  960   1.950   1.801   2.789
 1844SOL    HW1  961   1.908   1.715   2.762
 1844SOL    HW2  962   2.044   1.804   2.755
 1845SOL     OW  963   2.366   1.568   2.772
 1845SOL    HW1  964   2.432   1.642   2.781
 1845SOL    HW2  965   2.410   1.489   2.730
 1852SOL     OW  966   2.114   1.564   3.606
 1852SOL    HW1  967   2.084   1.621   3.682
 1852SOL    HW2  968   2.107   1.467   3.632
 1854SOL     OW  969   2.792   1.678   3.327
 1854SOL    HW1  970   2.768   1.660   3.232
 1854SOL    HW2  971   2.822   1.772   3.337
 1856SOL     OW  972   2.021   1.137   3.328
 1856SOL    HW1  973   2.043   1.076   3.404
 1856SOL    HW2  974   2.031   1.088   3.242
 1857SOL     OW  975   3.209   1.059   3.096
 1857SOL    HW1  976   3.233   0.996   3.022
 1857SOL    HW2  977   3.119   1.099   3.078
 1858SOL     OW  978   3.164   0.855   2.171
 1858SOL    HW1  979   3.078   0.824   2.213
 1858SOL    HW2  980   3.160   0.841   2.072
 1859SOL     OW  981   3.621   1.747   3.016
 1859SOL    HW1  982   3.682   1.777   2.943
 1859SOL    HW2  983   3.583   1.658   2.994
 1860SOL     OW  984   3.114   1.731   2.990
 1860SOL    HW1  985   3.198   1.736   2.936
 1860SOL    HW2  986   3.091   1.635   3.008
 1861SOL     OW  987   1.945   1.258   2.884
 1861SOL    HW1  988   1.940   1.257   2.984
 1861SOL    HW2  989   1.862   1.217   2.846
 1862SOL     OW  990   2.550   1.662   3.578
 1862SOL    HW1  991   2.494   1.743   3.587
 1862SOL    HW2  992   2.602   1.666   3.492
 1864SOL     OW  993   3.250   1.573   2.339
 1864SOL    HW1  994   3.317   1.585   2.265
 1864SOL    HW2  995   3.210   1.662   2.362
 1865SOL     OW  996   1.992   1.794   3.713
 1865SOL    HW1  997   1.951   1.720   3.766
 1865SOL    HW2  998   2.056   1.845   3.771
 1866SOL     OW  999   3.142   0.927   2.534
 1866SOL    HW1 1000   3.202   0.846   2.536
 1866SOL    HW2 1001   3.182   0.996   2.474
 1867SOL     OW 1002   2.692   1.273   3.284
 1867SOL    HW1 1003   2.687   1.306   3.379
 1867SOL    HW2 1004   2.606   1.292   3.238
 1868SOL     OW 1005   2.534   1.616   2.016
 1868SOL    HW1 1006   2.543   1.626   1.917
 1868SOL    HW2 1007   2.494   1.527   2.037
 1869SOL     OW 1008   3.512   1.720   3.256
 1869SOL    HW1 1009   3.565   1.730   3.172
 1869SOL    HW2 1010   3.485   1.810   3.290
 1872SOL     OW 1011   3.056   1.612   1.893
 1872SOL    HW1 1012   3.062   1.519   1.930
 1872SOL    HW2 1013   2.997   1.612   1.813
 1873SOL     OW 1014   2.684   1.002   3.234
 1873SOL    HW1 1015   2.724   1.001   3.142
 1873SOL    HW2 1016   2.694   1.094   3.274
 1874SOL     OW 1017   2.778   0.910   2.153
 1874SOL    HW1 1018   2.841   0.948   2.085
 1874SOL    HW2 1019   2.818   0.827   2.192
 1875SOL     OW 1020   3.366   1.607   1.906
 1875SOL    HW1 1021   3.274   1.644   1.913
 1875SOL    HW2 1022   3.404   1.627   1.816
 1876SOL     OW 1023   2.234   1.288   3.352
 1876SOL    HW1 1024   2.221   1.381   3.318
 1876SOL    HW2 1025   2.150   1.236   3.339
 1877SOL     OW 1026   3.476   1.292   3.151
 1877SOL    HW1 1027   3.536   1.295   3.231
 1877SOL    HW2 1028   3.401   1.356   3.164
 1878SOL     OW 1029   2.901   1.098   2.558
 1878SOL    HW1 1030   2.831   1.051   2.612
 1878SOL    HW2 1031   2.960   1.030   2.515
 1880SOL     OW 1032   2.452   1.487   2.353
 1880SOL    HW1 1033   2.494   1.429   2.283
 1880SOL    HW2 1034   2.408   1.566   2.309
 1882SOL     OW 1035   2.117   1.348   2.152
 1882SOL    HW1 1036   2.021   1.349   2.125
 1882SOL    HW2 1037   2.129   1.401   2.236
 1888SOL     OW 1038   3.045   1.335   1.981
 1888SOL    HW1 1039   2.946   1.324   1.983
 1888SOL    HW2 1040   3.079   1.350   2.074
 1890SOL     OW 1041   3.355   1.767   2.821
 1890SOL    HW1 1042   3.388   1.831   2.752
 1890SOL    HW2 1043   3.421   1.761   2.896
 1893SOL     OW 1044   2.252   1.741   3.422
 1893SOL    HW1 1045   2.161   1.782   3.420
 1893SOL    HW2 1046   2.245   1.647   3.454
 1896SOL     OW 1047   2.456   0.745   2.514
 1896SOL    HW1 1048   2.506   0.830   2.495
 1896SOL    HW2 1049   2.368   0.747   2.466
 1899SOL     OW 1050   2.721   1.374   1.878
 1899SOL    HW1 1051   2.675   1.389   1.966
 1899SOL    HW2 1052   2.765   1.459   1.848
 1900SOL     OW 1053   2.523   1.790   2.815
 1900SOL    HW1 1054   2.477   1.878   2.802
 1900SOL    HW2 1055   2.622   1.802   2.808
 1901SOL     OW 1056   2.721   0.956   2.723
 1901SOL    HW1 1057   2.775   0.887   2.771
 1901SOL    HW2 1058   2.689   1.025   2.789
 1902SOL     OW 1059   2.945   0.984   1.949
 1902SOL    HW1 1060   2.922   1.037   1.867
 1902SOL    HW2 1061   3.026   0.928   1.930
 1903SOL     OW 1062   3.723   1.569   2.713
 1903SOL    HW1 1063   3.652   1.557   2.643
 1903SOL    HW2 1064   3.724   1.490   2.773
 1904SOL     OW 1065   2.083   1.314   3.706
 1904SOL    HW1 1066   2.018   1.241   3.685
 1904SOL    HW2 1067   2.087   1.328   3.804
 1905SOL     OW 1068   1.941   1.240   2.515
 1905SOL    HW1 1069   1.940   1.193   2.603
 1905SOL    HW2 1070   2.023   1.212   2.464
 1906SOL     OW 1071   2.534   1.391   3.486
 1906SOL    HW1 1072   2.456   1.341   3.524
 1906SOL    HW2 1073   2.531   1.486   3.517
 1909SOL     OW 1074   3.567   1.487   2.966
 1909SOL    HW1 1075   3.474   1.462   2.939
 1909SOL    HW2 1076   3.593   1.437   3.048
 1911SOL     OW 1077   2.674   1.586   2.549
 1911SOL    HW1 1078   2.706   1.596   2.455
 1911SOL    HW2 1079   2.595   1.524   2.551
 1914SOL     OW 1080   2.632   1.330   2.163
 1914SOL    HW1 1081   2.586   1.243   2.180
 1914SOL    HW2 1082   2.723   1.327   2.204
 1915SOL     OW 1083   2.480   1.567   3.146
 1915SOL    HW1 1084   2.475   1.649   3.203
 1915SOL    HW2 1085   2.569   1.564   3.101
 1919SOL     OW 1086   1.901   1.077   2.162
 1919SOL    HW1 1087   2.000   1.066   2.153
 1919SOL    HW2 1088   1.861   0.991   2.194
 1920SOL     OW 1089   2.737   1.646   2.199
 1920SOL    HW1 1090   2.660   1.611   2.145
 1920SOL    HW2 1091   2.705   1.717   2.261
 1938SOL     OW 1092   1.889   1.596   3.841
 1938SOL    HW1 1093   1.870   1.500   3.862
 1938SOL    HW2 1094   1.856   1.654   3.916
 1960SOL     OW 1095   2.973   1.776   3.961
 1960SOL    HW1 1096   2.913   1.714   4.011
 1960SOL    HW2 1097   3.004   1.732   3.876
 1962SOL     OW 1098   2.326   1.743   4.047
 1962SOL    HW1 1099   2.359   1.782   4.133
 1962SOL    HW2 1100   2.402   1.736   3.982
 1983SOL     OW 1101   2.350   1.385   3.898
 1983SOL    HW1 1102   2.263   1.370   3.945
 1983SOL    HW2 1103   2.333   1.411   3.803
 2023SOL     OW 1104   2.534   1.616   3.878
 2023SOL    HW1 1105   2.543   1.626   3.779
 2023SOL    HW2 1106   2.494   1.527   3.899
 2026SOL     OW 1107   3.056   1.612   3.755
 2026SOL    HW1 1108   3.062   1.519   3.792
 2026SOL    HW2 1109   2.997   1.612   3.675
 2042SOL     OW 1110   2.721   1.374   3.740
 2042SOL    HW1 1111   2.675   1.389   3.828
 2042SOL    HW2 1112   2.765   1.459   3.710
 2060SOL     OW 1113   2.087   2.137   0.996
 2060SOL    HW1 1114   2.122   2.120   1.088
 2060SOL    HW2 1115   1.999   2.092   0.984
 2062SOL     OW 1116   2.431   3.137   1.165
 2062SOL    HW1 1117   2.338   3.130   1.128
 2062SOL    HW2 1118   2.442   3.226   1.209
 2066SOL     OW 1119   2.630   3.006   1.023
 2066SOL    HW1 1120   2.552   3.023   1.083
 2066SOL    HW2 1121   2.664   3.093   0.987
 2067SOL     OW 1122   2.712   2.660   1.823
 2067SOL    HW1 1123   2.708   2.736   1.888
 2067SOL    HW2 1124   2.734   2.696   1.732
 2069SOL     OW 1125   2.548   3.023   1.803
 2069SOL    HW1 1126   2.608   3.102   1.817
 2069SOL    HW2 1127   2.462   3.054   1.762
 2070SOL     OW 1128   2.197   3.297   1.061
 2070SOL    HW1 1129   2.119   3.266   1.008
 2070SOL    HW2 1130   2.255   3.355   1.004
 2071SOL     OW 1131   3.322   3.367   1.339
 2071SOL    HW1 1132   3.346   3.461   1.365
 2071SOL    HW2 1133   3.306   3.313   1.421
 2072SOL     OW 1134   2.300   2.254   1.499
 2072SOL    HW1 1135   2.382   2.198   1.508
 2072SOL    HW2 1136   2.219   2.196   1.503
 2075SOL     OW 1137   2.989   3.203   1.690
 2075SOL    HW1 1138   3.036   3.203   1.778
 2075SOL    HW2 1139   2.941   3.116   1.679
 2077SOL     OW 1140   2.102   2.953   0.886
 2077SOL    HW1 1141   2.116   2.869   0.938
 2077SOL    HW2 1142   2.047   3.017   0.941
 2078SOL     OW 1143   2.482   3.648   1.439
 2078SOL    HW1 1144   2.390   3.631   1.474
 2078SOL    HW2 1145   2.510   3.740   1.465
 2080SOL     OW 1146   3.456   1.976   1.480
 2080SOL    HW1 1147   3.438   2.043   1.408
 2080SOL    HW2 1148   3.453   2.022   1.569
 2086SOL     OW 1149   1.975   2.599   1.597
 2086SOL    HW1 1150   2.063   2.586   1.642
 2086SOL    HW2 1151   1.962   2.696   1.575
 2088SOL     OW 1152   3.155   3.090   1.423
 2088SOL    HW1 1153   3.192   3.017   1.365
 2088SOL    HW2 1154   3.207   3.095   1.508
 2090SOL     OW 1155   2.059   2.838   1.264
 2090SOL    HW1 1156   2.148   2.793   1.250
 2090SOL    HW2 1157   1.986   2.773   1.245
 2092SOL     OW 1158   3.049   3.654   1.616
 2092SOL    HW1 1159   3.073   3.714   1.540
 2092SOL    HW2 1160   3.056   3.559   1.586
 2093SOL     OW 1161   2.179   2.113   1.801
 2093SOL    HW1 1162   2.250   2.184   1.807
 2093SOL    HW2 1163   2.091   2.152   1.829
 2097SOL     OW 1164   3.143   2.207   0.944
 2097SOL    HW1 1165   3.057   2.157   0.931
 2097SOL    HW2 1166   3.205   2.153   1.000
 2099SOL     OW 1167   2.669   2.467   1.465
 2099SOL    HW1 1168   2.622   2.464   1.554
 2099SOL    HW2 1169   2.618   2.412   1.399
 2100SOL     OW 1170   3.256   2.331   1.674
 2100SOL    HW1 1171   3.236   2.374   1.762
 2100SOL    HW2 1172   3.334   2.269   1.683
 2101SOL     OW 1173   2.835   2.752   1.572
 2101SOL    HW1 1174   2.881   2.668   1.543
 2101SOL    HW2 1175   2.779   2.786   1.497
 2102SOL     OW 1176   2.853   2.272   1.242
 2102SOL    HW1 1177   2.776   2.306   1.296
 2102SOL    HW2 1178   2.819   2.221   1.163
 2104SOL     OW 1179   1.938   2.673   0.789
 2104SOL    HW1 1180   2.037   2.661   0.798
 2104SOL    HW2 1181   1.914   2.768   0.810
 2105SOL     OW 1182   1.992   3.683   1.571
 2105SOL    HW1 1183   1.982   3.668   1.670
 2105SOL    HW2 1184   1.906   3.719   1.535
 2107SOL     OW 1185   3.581   2.447   1.831
 2107SOL    HW1 1186   3.555   2.536   1.795
 2107SOL    HW2 1187   3.579   2.379   1.758
 2109SOL     OW 1188   2.412   2.058   0.885
 2109SOL    HW1 1189   2.407   2.053   0.985
 2109SOL    HW2 1190   2.414   2.154   0.856
 2113SOL     OW 1191   3.089   3.412   1.506
 2113SOL    HW1 1192   3.095   3.335   1.570
 2113SOL    HW2 1193   3.037   3.386   1.426
 2116SOL     OW 1194   2.323   3.128   1.727
 2116SOL    HW1 1195   2.273   3.129   1.641
 2116SOL    HW2 1196   2.260   3.110   1.803
 2118SOL     OW 1197   2.064   2.147   1.498
 2118SOL    HW1 1198   1.984   2.207   1.485
 2118SOL    HW2 1199   2.054   2.098   1.584
 2122SOL     OW 1200   2.111   3.647   1.241
 2122SOL    HW1 1201   2.168   3.582   1.291
 2122SOL    HW2 1202   2.095   3.614   1.148
 2125SOL     OW 1203   3.409   2.084   1.729
 2125SOL    HW1 1204   3.404   2.121   1.821
 2125SOL    HW2 1205   3.337   2.015   1.717
 2127SOL     OW 1206   2.643   2.126   1.749
 2127SOL    HW1 1207   2.710   2.065   1.792
 2127SOL    HW2 1208   2.570   2.145   1.814
 2128SOL     OW 1209   2.750   3.376   1.195
 2128SOL    HW1 1210   2.727   3.351   1.101
 2128SOL    HW2 1211   2.811   3.307   1.234
 2129SOL     OW 1212   3.213   2.452   1.433
 2129SOL    HW1 1213   3.241   2.409   1.518
 2129SOL    HW2 1214   3.238   2.548   1.434
 2130SOL     OW 1215   2.665   3.264   0.924
 2130SOL    HW1 1216   2.755   3.278   0.882
 2130SOL    HW2 1217   2.594   3.266   0.853
 2131SOL     OW 1218   2.784   2.365   0.899
 2131SOL    HW1 1219   2.759   2.356   0.803
 2131SOL    HW2 1220   2.832   2.283   0.930
 2136SOL     OW 1221   2.938   2.545   1.464
 2136SOL    HW1 1222   2.858   2.484   1.467
 2136SOL    HW2 1223   3.019   2.492   1.440
 2141SOL     OW 1224   1.940   2.418   1.386
 2141SOL    HW1 1225   2.032   2.417   1.345
 2141SOL    HW2 1226   1.934   2.492   1.453
 2142SOL     OW 1227   2.423   2.084   1.147
 2142SOL    HW1 1228   2.461   2.000   1.184
 2142SOL    HW2 1229   2.335   2.103   1.191
 2146SOL     OW 1230   3.328   2.452   0.992
 2146SOL    HW1 1231   3.298   2.357   0.999
 2146SOL    HW2 1232   3.401   2.468   1.058
 2152SOL     OW 1233   3.616   3.085   1.588
 2152SOL    HW1 1234   3.707   3.046   1.575
 2152SOL    HW2 1235   3.624   3.181   1.612
 2153SOL     OW 1236   2.926   3.209   1.340
 2153SOL    HW1 1237   2.846   3.186   1.395
 2153SOL    HW2 1238   3.009   3.183   1.389
 2154SOL     OW 1239   3.454   3.491   1.625
 2154SOL    HW1 1240   3.481   3.525   1.535
 2154SOL    HW2 1241   3.533   3.453   1.671
 2155SOL     OW 1242   2.973   3.057   1.100
 2155SOL    HW1 1243   2.933   3.101   1.181
 2155SOL    HW2 1244   2.932   3.094   1.017
 2156SOL     OW 1245   3.500   2.961   1.079
 2156SOL    HW1 1246   3.505   3.042   1.138
 2156SOL    HW2 1247   3.414   2.963   1.028
 2157SOL     OW 1248   2.777   1.951   1.402
 2157SOL    HW1 1249   2.802   1.931   1.307
 2157SOL    HW2 1250   2.849   2.007   1.444
 2158SOL     OW 1251   2.842   2.978   1.719
 2158SOL    HW1 1252   2.743   2.984   1.729
 2158SOL    HW2 1253   2.865   2.898   1.663
 2160SOL     OW 1254   2.272   2.675   1.251
 2160SOL    HW1 1255   2.358   2.687   1.301
 2160SOL    HW2 1256   2.230   2.588   1.278
 2161SOL     OW 1257   3.136   2.248   1.262
 2161SOL    HW1 1258   3.157   2.322   1.326
 2161SOL    HW2 1259   3.047   2.265   1.219
 2162SOL     OW 1260   1.926   3.426   1.331
 2162SOL    HW1 1261   1.880   3.508   1.297
 2162SOL    HW2 1262   2.024   3.445   1.340
 2164SOL     OW 1263   2.428   2.399   0.865
 2164SOL    HW1 1264   2.440   2.465   0.791
 2164SOL    HW2 1265   2.474   2.433   0.948
 2166SOL     OW 1266   3.134   3.307   1.142
 2166SOL    HW1 1267   3.181   3.320   1.229
 2166SOL    HW2 1268   3.068   3.233   1.151
 2168SOL     OW 1269   2.216   3.372   1.329
 2168SOL    HW1 1270   2.195   3.328   1.242
 2168SOL    HW2 1271   2.313   3.398   1.332
 2169SOL     OW 1272   2.264   2.613   1.598
 2169SOL    HW1 1273   2.332   2.668   1.551
 2169SOL    HW2 1274   2.304   2.525   1.625
 2170SOL     OW 1275   3.449   2.641   1.670
 2170SOL    HW1 1276   3.357   2.679   1.665
 2170SOL    HW2 1277   3.509   2.688   1.605
 2171SOL     OW 1278   2.875   1.967   1.770
 2171SOL    HW1 1279   2.881   2.052   1.718
 2171SOL    HW2 1280   2.907   1.891   1.713
 2172SOL     OW 1281   2.366   1.912   1.740
 2172SOL    HW1 1282   2.324   1.855   1.670
 2172SOL    HW2 1283   2.300   1.981   1.772
 2173SOL     OW 1284   2.435   2.732   1.029
 2173SOL    HW1 1285   2.479   2.821   1.020
 2173SOL    HW2 1286   2.372   2.732   1.106
 2174SOL     OW 1287   3.222   2.724   1.045
 2174SOL    HW1 1288   3.147   2.724   0.979
 2174SOL    HW2 1289   3.259   2.632   1.054
 2176SOL     OW 1290   2.169   2.075   1.231
 2176SOL    HW1 1291   2.146   2.112   1.321
 2176SOL    HW2 1292   2.139   1.980   1.225
 2177SOL     OW 1293   1.899   3.172   1.282
 2177SOL    HW1 1294   1.952   3.123   1.350
 2177SOL    HW2 1295   1.921   3.270   1.287
 2178SOL     OW 1296   2.594   2.496   1.064
 2178SOL    HW1 1297   2.653   2.470   0.988
 2178SOL    HW2 1298   2.566   2.592   1.053
 2179SOL     OW 1299   3.590   2.797   1.854
 2179SOL    HW1 1300   3.544   2.790   1.765
 2179SOL    HW2 1301   3.528   2.841   1.920
 2182SOL     OW 1302   2.885   2.628   0.966
 2182SOL    HW1 1303   2.900   2.649   1.062
 2182SOL    HW2 1304   2.855   2.533   0.957
 2183SOL     OW 1305   2.842   3.435   1.700
 2183SOL    HW1 1306   2.822   3.479   1.612
 2183SOL    HW2 1307   2.881   3.344   1.684
 2184SOL     OW 1308   3.721   3.380   1.605
 2184SOL    HW1 1309   3.735   3.407   1.510
 2184SOL    HW2 1310   3.804   3.402   1.658
 2185SOL     OW 1311   2.212   2.760   1.804
 2185SOL    HW1 1312   2.288   2.804   1.852
 2185SOL    HW2 1313   2.247   2.713   1.722
 2189SOL     OW 1314   2.181   2.672   0.949
 2189SOL    HW1 1315   2.274   2.708   0.954
 2189SOL    HW2 1316   2.175   2.587   1.001
 2190SOL     OW 1317   2.201   2.371   1.006
 2190SOL    HW1 1318   2.149   2.288   0.989
 2190SOL    HW2 1319   2.278   2.376   0.942
 2191SOL     OW 1320   3.000   2.242   1.678
 2191SOL    HW1 1321   2.955   2.305   1.742
 2191SOL    HW2 1322   3.093   2.273   1.661
 2192SOL     OW 1323   3.022   2.069   1.477
 2192SOL    HW1 1324   3.022   2.133   1.554
 2192SOL    HW2 1325   3.050   2.117   1.394
 2196SOL     OW 1326   2.864   2.658   1.238
 2196SOL    HW1 1327   2.905   2.626   1.324
 2196SOL    HW2 1328   2.768   2.631   1.235
 2197SOL     OW 1329   1.902   2.406   1.114
 2197SOL    HW1 1330   1.987   2.373   1.073
 2197SOL    HW2 1331   1.915   2.421   1.212
 2198SOL     OW 1332   2.051   2.382   1.722
 2198SOL    HW1 1333   2.110   2.342   1.652
 2198SOL    HW2 1334   1.993   2.453   1.681
 2199SOL     OW 1335   3.231   2.812   1.660
 2199SOL    HW1 1336   3.270   2.901   1.680
 2199SOL    HW2 1337   3.241   2.792   1.563
 2201SOL     OW 1338   3.519   2.466   1.206
 2201SOL    HW1 1339   3.481   2.397   1.268
 2201SOL    HW2 1340   3.601   2.430   1.162
 2202SOL     OW 1341   2.114   3.426   1.744
 2202SOL    HW1 1342   2.084   3.483   1.820
 2202SOL    HW2 1343   2.107   3.329   1.770
 2203SOL     OW 1344   2.533   2.326   1.269
 2203SOL    HW1 1345   2.499   2.237   1.239
 2203SOL    HW2 1346   2.559   2.380   1.189
 2204SOL     OW 1347   2.792   3.540   1.465
 2204SOL    HW1 1348   2.768   3.522   1.370
 2204SOL    HW2 1349   2.822   3.634   1.475
 2206SOL     OW 1350   2.021   2.999   1.466
 2206SOL    HW1 1351   2.043   2.938   1.542
 2206SOL    HW2 1352   2.031   2.950   1.380
 2207SOL     OW 1353   3.209   2.921   1.234
 2207SOL    HW1 1354   3.233   2.858   1.160
 2207SOL    HW2 1355   3.119   2.961   1.216
 2211SOL     OW 1356   1.945   3.120   1.022
 2211SOL    HW1 1357   1.940   3.119   1.122
 2211SOL    HW2 1358   1.862   3.079   0.984
 2212SOL     OW 1359   2.550   3.524   1.716
 2212SOL    HW1 1360   2.494   3.605   1.725
 2212SOL    HW2 1361   2.602   3.528   1.630
 2216SOL     OW 1362   1.992   3.656   1.851
 2216SOL    HW1 1363   1.951   3.582   1.904
 2216SOL    HW2 1364   2.056   3.707   1.909
 2218SOL     OW 1365   2.692   3.135   1.422
 2218SOL    HW1 1366   2.687   3.168   1.517
 2218SOL    HW2 1367   2.606   3.154   1.376
 2224SOL     OW 1368   2.684   2.864   1.372
 2224SOL    HW1 1369   2.724   2.863   1.280
 2224SOL    HW2 1370   2.694   2.956   1.412
 2227SOL     OW 1371   2.234   3.150   1.490
 2227SOL    HW1 1372   2.221   3.243   1.456
 2227SOL    HW2 1373   2.150   3.098   1.477
 2228SOL     OW 1374   3.476   3.154   1.289
 2228SOL    HW1 1375   3.536   3.157   1.369
 2228SOL    HW2 1376   3.401   3.218   1.302
 2230SOL     OW 1377   2.876   2.098   0.971
 2230SOL    HW1 1378   2.868   2.062   0.878
 2230SOL    HW2 1379   2.874   2.022   1.036
 2232SOL     OW 1380   3.571   2.247   1.381
 2232SOL    HW1 1381   3.644   2.316   1.385
 2232SOL    HW2 1382   3.599   2.172   1.322
 2234SOL     OW 1383   1.967   2.875   1.726
 2234SOL    HW1 1384   1.890   2.842   1.780
 2234SOL    HW2 1385   2.052   2.845   1.768
 2235SOL     OW 1386   2.534   2.065   1.489
 2235SOL    HW1 1387   2.624   2.049   1.449
 2235SOL    HW2 1388   2.542   2.070   1.588
 2236SOL     OW 1389   3.302   2.718   1.398
 2236SOL    HW1 1390   3.245   2.770   1.335
 2236SOL    HW2 1391   3.398   2.730   1.374
 2239SOL     OW 1392   2.475   2.704   1.431
 2239SOL    HW1 1393   2.531   2.785   1.414
 2239SOL    HW2 1394   2.534   2.624   1.434
 2241SOL     OW 1395   2.578   2.427   1.708
 2241SOL    HW1 1396   2.597   2.492   1.782
 2241SOL    HW2 1397   2.638   2.347   1.717
 2242SOL     OW 1398   3.312   3.082   1.633
 2242SOL    HW1 1399   3.303   3.072   1.732
 2242SOL    HW2 1400   3.408   3.075   1.607
 2243SOL     OW 1401   2.252   3.603   1.560
 2243SOL    HW1 1402   2.161   3.644   1.558
 2243SOL    HW2 1403   2.245   3.509   1.592
 2244SOL     OW 1404   3.536   2.745   1.254
 2244SOL    HW1 1405   3.509   2.656   1.217
 2244SOL    HW2 1406   3.537   2.813   1.181
 2247SOL     OW 1407   3.639   2.204   1.642
 2247SOL    HW1 1408   3.622   2.235   1.548
 2247SOL    HW2 1409   3.555   2.167   1.680
 2248SOL     OW 1410   3.592   2.796   1.517
 2248SOL    HW1 1411   3.630   2.887   1.532
 2248SOL    HW2 1412   3.584   2.779   1.418
 2251SOL     OW 1413   2.721   2.818   0.861
 2251SOL    HW1 1414   2.775   2.749   0.909
 2251SOL    HW2 1415   2.689   2.887   0.927
 2254SOL     OW 1416   2.083   3.176   1.844
 2254SOL    HW1 1417   2.018   3.103   1.823
 2254SOL    HW2 1418   2.087   3.190   1.942
 2256SOL     OW 1419   2.534   3.253   1.624
 2256SOL    HW1 1420   2.456   3.203   1.662
 2256SOL    HW2 1421   2.531   3.348   1.655
 2257SOL     OW 1422   3.686   2.054   1.227
 2257SOL    HW1 1423   3.682   1.964   1.271
 2257SOL    HW2 1424   3.689   2.043   1.128
 2260SOL     OW 1425   2.179   2.409   1.280
 2260SOL    HW1 1426   2.217   2.350   1.352
 2260SOL    HW2 1427   2.219   2.383   1.192
 2262SOL     OW 1428   3.286   2.076   1.112
 2262SOL    HW1 1429   3.338   2.011   1.167
 2262SOL    HW2 1430   3.237   2.139   1.173
 2263SOL     OW 1431   2.863   1.896   1.154
 2263SOL    HW1 1432   2.800   1.824   1.123
 2263SOL    HW2 1433   2.956   1.860   1.154
 2265SOL     OW 1434   2.480   3.429   1.284
 2265SOL    HW1 1435   2.475   3.511   1.341
 2265SOL    HW2 1436   2.569   3.426   1.239
 2271SOL     OW 1437   2.092   2.490   1.975
 2271SOL    HW1 1438   1.999   2.488   2.012
 2271SOL    HW2 1439   2.093   2.451   1.883
 2272SOL     OW 1440   2.087   2.137   2.858
 2272SOL    HW1 1441   2.122   2.120   2.950
 2272SOL    HW2 1442   1.999   2.092   2.846
 2273SOL     OW 1443   1.881   2.230   2.509
 2273SOL    HW1 1444   1.799   2.273   2.548
 2273SOL    HW2 1445   1.853   2.157   2.446
 2274SOL     OW 1446   2.431   3.137   3.027
 2274SOL    HW1 1447   2.338   3.130   2.990
 2274SOL    HW2 1448   2.442   3.226   3.071
 2275SOL     OW 1449   3.417   3.373   2.565
 2275SOL    HW1 1450   3.360   3.357   2.646
 2275SOL    HW2 1451   3.358   3.383   2.485
 2276SOL     OW 1452   2.997   2.565   2.579
 2276SOL    HW1 1453   3.054   2.643   2.554
 2276SOL    HW2 1454   2.937   2.591   2.655
 2277SOL     OW 1455   3.617   2.469   2.093
 2277SOL    HW1 1456   3.605   2.456   1.994
 2277SOL    HW2 1457   3.587   2.388   2.142
 2278SOL     OW 1458   2.630   3.006   2.885
 2278SOL    HW1 1459   2.552   3.023   2.945
 2278SOL    HW2 1460   2.664   3.093   2.849
 2279SOL     OW 1461   2.712   2.660   3.685
 2279SOL    HW1 1462   2.708   2.736   3.750
 2279SOL    HW2 1463   2.734   2.696   3.594
 2280SOL     OW 1464   2.547   2.874   2.527
 2280SOL    HW1 1465   2.616   2.858   2.597
 2280SOL    HW2 1466   2.474   2.931   2.565
 2281SOL     OW 1467   2.548   3.023   3.665
 2281SOL    HW1 1468   2.608   3.102   3.679
 2281SOL    HW2 1469   2.462   3.054   3.624
 2282SOL     OW 1470   2.197   3.297   2.923
 2282SOL    HW1 1471   2.119   3.266   2.870
 2282SOL    HW2 1472   2.255   3.355   2.866
 2283SOL     OW 1473   3.322   3.367   3.201
 2283SOL    HW1 1474   3.346   3.461   3.227
 2283SOL    HW2 1475   3.306   3.313   3.283
 2284SOL     OW 1476   2.300   2.254   3.361
 2284SOL    HW1 1477   2.382   2.198   3.370
 2284SOL    HW2 1478   2.219   2.196   3.365
 2285SOL     OW 1479   3.465   2.309   2.599
 2285SOL    HW1 1480   3.391   2.355   2.549
 2285SOL    HW2 1481   3.516   2.377   2.652
 2286SOL     OW 1482   2.093   3.575   2.345
 2286SOL    HW1 1483   2.127   3.652   2.399
 2286SOL    HW2 1484   2.137   3.575   2.255
 2287SOL     OW 1485   2.989   3.203   3.552
 2287SOL    HW1 1486   3.036   3.203   3.640
 2287SOL    HW2 1487   2.941   3.116   3.541
 2288SOL     OW 1488   2.092   3.296   2.400
 2288SOL    HW1 1489   2.066   3.392   2.400
 2288SOL    HW2 1490   2.021   3.242   2.445
 2289SOL     OW 1491   2.102   2.953   2.748
 2289SOL    HW1 1492   2.116   2.869   2.800
 2289SOL    HW2 1493   2.047   3.017   2.803
 2290SOL     OW 1494   2.482   3.648   3.301
 2290SOL    HW1 1495   2.390   3.631   3.336
 2290SOL    HW2 1496   2.510   3.740   3.327
 2291SOL     OW 1497   2.468   2.826   1.985
 2291SOL    HW1 1498   2.475   2.910   1.931
 2291SOL    HW2 1499   2.514   2.839   2.073
 2292SOL     OW 1500   3.456   1.976   3.342
 2292SOL    HW1 1501   3.438   2.043   3.270
 2292SOL    HW2 1502   3.453   2.022   3.431
 2293SOL     OW 1503   1.984   2.505   2.425
 2293SOL    HW1 1504   1.939   2.417   2.442
 2293SOL    HW2 1505   1.983   2.559   2.509
 2294SOL     OW 1506   3.704   3.629   2.221
 2294SOL    HW1 1507   3.758   3.600   2.301
 2294SOL    HW2 1508   3.734   3.719   2.192
 2295SOL     OW 1509   1.889   3.458   1.979
 2295SOL    HW1 1510   1.870   3.362   2.000
 2295SOL    HW2 1511   1.856   3.516   2.054
 2296SOL     OW 1512   3.551   2.784   2.474
 2296SOL    HW1 1513   3.646   2.755   2.482
 2296SOL    HW2 1514   3.543   2.849   2.399
 2297SOL     OW 1515   3.503   2.970   2.294
 2297SOL    HW1 1516   3.589   2.972   2.242
 2297SOL    HW2 1517   3.517   3.017   2.382
 2298SOL     OW 1518   1.975   2.599   3.459
 2298SOL    HW1 1519   2.063   2.586   3.504
 2298SOL    HW2 1520   1.962   2.696   3.437
 2299SOL     OW 1521   2.475   3.227   2.588
 2299SOL    HW1 1522   2.426   3.140   2.597
 2299SOL    HW2 1523   2.452   3.270   2.501
 2300SOL     OW 1524   3.155   3.090   3.285
 2300SOL    HW1 1525   3.192   3.017   3.227
 2300SOL    HW2 1526   3.207   3.095   3.370
 2301SOL     OW 1527   2.671   1.866   2.364
 2301SOL    HW1 1528   2.711   1.957   2.355
 2301SOL    HW2 1529   2.571   1.874   2.370
 2302SOL     OW 1530   2.059   2.838   3.126
 2302SOL    HW1 1531   2.148   2.793   3.112
 2302SOL    HW2 1532   1.986   2.773   3.107
 2303SOL     OW 1533   3.387   2.861   2.052
 2303SOL    HW1 1534   3.324   2.785   2.065
 2303SOL    HW2 1535   3.435   2.879   2.138
 2304SOL     OW 1536   3.049   3.654   3.478
 2304SOL    HW1 1537   3.073   3.714   3.402
 2304SOL    HW2 1538   3.056   3.559   3.448
 2305SOL     OW 1539   2.179   2.113   3.663
 2305SOL    HW1 1540   2.250   2.184   3.669
 2305SOL    HW2 1541   2.091   2.152   3.691
 2306SOL     OW 1542   3.328   3.279   2.815
 2306SOL    HW1 1543   3.269   3.285   2.895
 2306SOL    HW2 1544   3.313   3.191   2.769
 2307SOL     OW 1545   3.529   3.576   2.434
 2307SOL    HW1 1546   3.488   3.553   2.346
 2307SOL    HW2 1547   3.511   3.502   2.499
 2308SOL     OW 1548   3.143   2.207   2.806
 2308SOL    HW1 1549   3.057   2.157   2.793
 2308SOL    HW2 1550   3.205   2.153   2.862
 2309SOL     OW 1551   3.438   3.524   2.169
 2309SOL    HW1 1552   3.527   3.570   2.172
 2309SOL    HW2 1553   3.417   3.500   2.074
 2310SOL     OW 1554   2.669   2.467   3.327
 2310SOL    HW1 1555   2.622   2.464   3.416
 2310SOL    HW2 1556   2.618   2.412   3.261
 2311SOL     OW 1557   3.256   2.331   3.536
 2311SOL    HW1 1558   3.236   2.374   3.624
 2311SOL    HW2 1559   3.334   2.269   3.545
 2312SOL     OW 1560   2.835   2.752   3.434
 2312SOL    HW1 1561   2.881   2.668   3.405
 2312SOL    HW2 1562   2.779   2.786   3.359
 2313SOL     OW 1563   2.853   2.272   3.104
 2313SOL    HW1 1564   2.776   2.306   3.158
 2313SOL    HW2 1565   2.819   2.221   3.025
 2314SOL     OW 1566   2.903   2.563   2.291
 2314SOL    HW1 1567   2.929   2.559   2.387
 2314SOL    HW2 1568   2.818   2.512   2.277
 2315SOL     OW 1569   1.938   2.673   2.651
 2315SOL    HW1 1570   2.037   2.661   2.660
 2315SOL    HW2 1571   1.914   2.768   2.672
 2316SOL     OW 1572   1.992   3.683   3.433
 2316SOL    HW1 1573   1.982   3.668   3.532
 2316SOL    HW2 1574   1.906   3.719   3.397
 2317SOL     OW 1575   3.581   2.447   3.693
 2317SOL    HW1 1576   3.555   2.536   3.657
 2317SOL    HW2 1577   3.579   2.379   3.620
 2318SOL     OW 1578   3.224   3.006   2.407
 2318SOL    HW1 1579   3.307   2.977   2.359
 2318SOL    HW2 1580   3.175   3.073   2.351
 2319SOL     OW 1581   2.412   2.058   2.747
 2319SOL    HW1 1582   2.407   2.053   2.847
 2319SOL    HW2 1583   2.414   2.154   2.718
 2320SOL     OW 1584   2.870   3.318   2.339
 2320SOL    HW1 1585   2.824   3.390   2.287
 2320SOL    HW2 1586   2.866   3.338   2.437
 2321SOL     OW 1587   2.213   3.663   2.715
 2321SOL    HW1 1588   2.263   3.577   2.721
 2321SOL    HW2 1589   2.278   3.740   2.712
 2322SOL     OW 1590   3.657   2.928   2.735
 2322SOL    HW1 1591   3.595   2.913   2.659
 2322SOL    HW2 1592   3.605   2.939   2.820
 2323SOL     OW 1593   3.089   3.412   3.368
 2323SOL    HW1 1594   3.095   3.335   3.432
 2323SOL    HW2 1595   3.037   3.386   3.288
 2324SOL     OW 1596   2.183   2.805   2.104
 2324SOL    HW1 1597   2.265   2.844   2.062
 2324SOL    HW2 1598   2.156   2.723   2.055
 2325SOL     OW 1599   3.320   2.597   2.590
 2325SOL    HW1 1600   3.315   2.532   2.665
 2325SOL    HW2 1601   3.400   2.656   2.603
 2326SOL     OW 1602   2.323   3.128   3.589
 2326SOL    HW1 1603   2.273   3.129   3.503
 2326SOL    HW2 1604   2.260   3.110   3.665
 2327SOL     OW 1605   2.973   3.638   2.099
 2327SOL    HW1 1606   2.913   3.576   2.149
 2327SOL    HW2 1607   3.004   3.594   2.014
 2328SOL     OW 1608   2.064   2.147   3.360
 2328SOL    HW1 1609   1.984   2.207   3.347
 2328SOL    HW2 1610   2.054   2.098   3.446
 2329SOL     OW 1611   3.494   3.239   1.943
 2329SOL    HW1 1612   3.462   3.333   1.933
 2329SOL    HW2 1613   3.418   3.176   1.931
 2330SOL     OW 1614   2.326   3.605   2.185
 2330SOL    HW1 1615   2.359   3.644   2.271
 2330SOL    HW2 1616   2.402   3.598   2.120
 2331SOL     OW 1617   3.262   1.969   2.288
 2331SOL    HW1 1618   3.238   1.932   2.198
 2331SOL    HW2 1619   3.361   1.985   2.292
 2332SOL     OW 1620   2.111   3.647   3.103
 2332SOL    HW1 1621   2.168   3.582   3.153
 2332SOL    HW2 1622   2.095   3.614   3.010
 2333SOL     OW 1623   2.802   3.560   2.766
 2333SOL    HW1 1624   2.882   3.503   2.787
 2333SOL    HW2 1625   2.753   3.520   2.689
 2334SOL     OW 1626   2.244   2.562   2.342
 2334SOL    HW1 1627   2.289   2.472   2.339
 2334SOL    HW2 1628   2.150   2.551   2.375
 2335SOL     OW 1629   3.409   2.084   3.591
 2335SOL    HW1 1630   3.404   2.121   3.683
 2335SOL    HW2 1631   3.337   2.015   3.579
 2336SOL     OW 1632   2.476   1.984   1.979
 2336SOL    HW1 1633   2.574   1.962   1.986
 2336SOL    HW2 1634   2.445   1.967   1.886
 2337SOL     OW 1635   2.643   2.126   3.611
 2337SOL    HW1 1636   2.710   2.065   3.654
 2337SOL    HW2 1637   2.570   2.145   3.676
 2338SOL     OW 1638   2.750   3.376   3.057
 2338SOL    HW1 1639   2.727   3.351   2.963
 2338SOL    HW2 1640   2.811   3.307   3.096
 2339SOL     OW 1641   3.213   2.452   3.295
 2339SOL    HW1 1642   3.241   2.409   3.380
 2339SOL    HW2 1643   3.238   2.548   3.296
 2340SOL     OW 1644   2.665   3.264   2.786
 2340SOL    HW1 1645   2.755   3.278   2.744
 2340SOL    HW2 1646   2.594   3.266   2.715
 2341SOL     OW 1647   2.784   2.365   2.761
 2341SOL    HW1 1648   2.759   2.356   2.665
 2341SOL    HW2 1649   2.832   2.283   2.792
 2342SOL     OW 1650   2.401   1.926   2.374
 2342SOL    HW1 1651   2.320   1.927   2.432
 2342SOL    HW2 1652   2.404   2.009   2.319
 2343SOL     OW 1653   3.296   3.050   1.903
 2343SOL    HW1 1654   3.328   2.974   1.960
 2343SOL    HW2 1655   3.204   3.077   1.933
 2344SOL     OW 1656   2.159   1.897   2.033
 2344SOL    HW1 1657   2.208   1.981   2.012
 2344SOL    HW2 1658   2.221   1.832   2.078
 2345SOL     OW 1659   2.797   2.098   2.342
 2345SOL    HW1 1660   2.749   2.139   2.264
 2345SOL    HW2 1661   2.896   2.096   2.323
 2346SOL     OW 1662   2.938   2.545   3.326
 2346SOL    HW1 1663   2.858   2.484   3.329
 2346SOL    HW2 1664   3.019   2.492   3.302
 2347SOL     OW 1665   3.089   3.432   2.655
 2347SOL    HW1 1666   3.110   3.506   2.590
 2347SOL    HW2 1667   3.157   3.432   2.728
 2348SOL     OW 1668   2.321   3.014   2.603
 2348SOL    HW1 1669   2.250   2.987   2.668
 2348SOL    HW2 1670   2.295   2.986   2.510
 2349SOL     OW 1671   3.133   3.659   2.453
 2349SOL    HW1 1672   3.177   3.723   2.389
 2349SOL    HW2 1673   3.083   3.711   2.523
 2350SOL     OW 1674   2.894   2.411   1.878
 2350SOL    HW1 1675   2.853   2.493   1.839
 2350SOL    HW2 1676   2.958   2.437   1.951
 2351SOL     OW 1677   1.940   2.418   3.248
 2351SOL    HW1 1678   2.032   2.417   3.207
 2351SOL    HW2 1679   1.934   2.492   3.315
 2352SOL     OW 1680   2.423   2.084   3.009
 2352SOL    HW1 1681   2.461   2.000   3.046
 2352SOL    HW2 1682   2.335   2.103   3.053
 2353SOL     OW 1683   2.879   1.901   2.615
 2353SOL    HW1 1684   2.807   1.906   2.546
 2353SOL    HW2 1685   2.855   1.832   2.684
 2354SOL     OW 1686   3.291   3.035   2.729
 2354SOL    HW1 1687   3.236   2.951   2.722
 2354SOL    HW2 1688   3.317   3.064   2.637
 2355SOL     OW 1689   3.328   2.452   2.854
 2355SOL    HW1 1690   3.298   2.357   2.861
 2355SOL    HW2 1691   3.401   2.468   2.920
 2356SOL     OW 1692   3.719   2.695   2.239
 2356SOL    HW1 1693   3.761   2.631   2.303
 2356SOL    HW2 1694   3.681   2.644   2.161
 2357SOL     OW 1695   2.350   3.247   2.036
 2357SOL    HW1 1696   2.263   3.232   2.083
 2357SOL    HW2 1697   2.333   3.273   1.941
 2358SOL     OW 1698   3.526   3.142   2.519
 2358SOL    HW1 1699   3.625   3.150   2.533
 2358SOL    HW2 1700   3.481   3.226   2.550
 2359SOL     OW 1701   3.252   2.437   1.940
 2359SOL    HW1 1702   3.198   2.416   2.021
 2359SOL    HW2 1703   3.343   2.396   1.949
 2360SOL     OW 1704   3.616   3.085   3.450
 2360SOL    HW1 1705   3.707   3.046   3.437
 2360SOL    HW2 1706   3.624   3.181   3.474
 2361SOL     OW 1707   2.926   3.209   3.202
 2361SOL    HW1 1708   2.846   3.186   3.257
 2361SOL    HW2 1709   3.009   3.183   3.251
 2362SOL     OW 1710   3.454   3.491   3.487
 2362SOL    HW1 1711   3.481   3.525   3.397
 2362SOL    HW2 1712   3.533   3.453   3.533
 2363SOL     OW 1713   2.973   3.057   2.962
 2363SOL    HW1 1714   2.933   3.101   3.043
 2363SOL    HW2 1715   2.932   3.094   2.879
 2364SOL     OW 1716   3.500   2.961   2.941
 2364SOL    HW1 1717   3.505   3.042   3.000
 2364SOL    HW2 1718   3.414   2.963   2.890
 2365SOL     OW 1719   2.777   1.951   3.264
 2365SOL    HW1 1720   2.802   1.931   3.169
 2365SOL    HW2 1721   2.849   2.007   3.306
 2366SOL     OW 1722   2.842   2.978   3.581
 2366SOL    HW1 1723   2.743   2.984   3.591
 2366SOL    HW2 1724   2.865   2.898   3.525
 2367SOL     OW 1725   2.567   2.912   2.230
 2367SOL    HW1 1726   2.553   2.919   2.329
 2367SOL    HW2 1727   2.651   2.861   2.212
 2368SOL     OW 1728   2.272   2.675   3.113
 2368SOL    HW1 1729   2.358   2.687   3.163
 2368SOL    HW2 1730   2.230   2.588   3.140
 2369SOL     OW 1731   3.136   2.248   3.124
 2369SOL    HW1 1732   3.157   2.322   3.188
 2369SOL    HW2 1733   3.047   2.265   3.081
 2370SOL     OW 1734   1.926   3.426   3.193
 2370SOL    HW1 1735   1.880   3.508   3.159
 2370SOL    HW2 1736   2.024   3.445   3.202
 2371SOL     OW 1737   2.229   2.962   2.363
 2371SOL    HW1 1738   2.222   3.045   2.307
 2371SOL    HW2 1739   2.233   2.882   2.303
 2372SOL     OW 1740   3.114   3.210   2.250
 2372SOL    HW1 1741   3.164   3.287   2.290
 2372SOL    HW2 1742   3.019   3.212   2.282
 2373SOL     OW 1743   3.134   3.307   3.004
 2373SOL    HW1 1744   3.181   3.320   3.091
 2373SOL    HW2 1745   3.068   3.233   3.013
 2374SOL     OW 1746   3.444   2.501   2.334
 2374SOL    HW1 1747   3.413   2.562   2.407
 2374SOL    HW2 1748   3.494   2.553   2.265
 2375SOL     OW 1749   2.216   3.372   3.191
 2375SOL    HW1 1750   2.195   3.328   3.104
 2375SOL    HW2 1751   2.313   3.398   3.194
 2376SOL     OW 1752   2.264   2.613   3.460
 2376SOL    HW1 1753   2.332   2.668   3.413
 2376SOL    HW2 1754   2.304   2.525   3.487
 2377SOL     OW 1755   3.449   2.641   3.532
 2377SOL    HW1 1756   3.357   2.679   3.527
 2377SOL    HW2 1757   3.509   2.688   3.467
 2378SOL     OW 1758   2.875   1.967   3.632
 2378SOL    HW1 1759   2.881   2.052   3.580
 2378SOL    HW2 1760   2.907   1.891   3.575
 2379SOL     OW 1761   2.366   1.912   3.602
 2379SOL    HW1 1762   2.324   1.855   3.532
 2379SOL    HW2 1763   2.300   1.981   3.634
 2380SOL     OW 1764   3.222   2.724   2.907
 2380SOL    HW1 1765   3.147   2.724   2.841
 2380SOL    HW2 1766   3.259   2.632   2.916
 2381SOL     OW 1767   3.071   2.387   2.137
 2381SOL    HW1 1768   3.084   2.303   2.191
 2381SOL    HW2 1769   3.042   2.461   2.197
 2382SOL     OW 1770   2.169   2.075   3.093
 2382SOL    HW1 1771   2.146   2.112   3.183
 2382SOL    HW2 1772   2.139   1.980   3.087
 2383SOL     OW 1773   1.899   3.172   3.144
 2383SOL    HW1 1774   1.952   3.123   3.212
 2383SOL    HW2 1775   1.921   3.270   3.149
 2384SOL     OW 1776   2.594   2.496   2.926
 2384SOL    HW1 1777   2.653   2.470   2.850
 2384SOL    HW2 1778   2.566   2.592   2.915
 2385SOL     OW 1779   3.590   2.797   3.716
 2385SOL    HW1 1780   3.544   2.790   3.627
 2385SOL    HW2 1781   3.528   2.841   3.782
 2386SOL     OW 1782   2.169   1.925   2.480
 2386SOL    HW1 1783   2.158   2.019   2.513
 2386SOL    HW2 1784   2.164   1.862   2.557
 2387SOL     OW 1785   3.484   2.229   2.236
 2387SOL    HW1 1786   3.486   2.153   2.300
 2387SOL    HW2 1787   3.436   2.306   2.276
 2388SOL     OW 1788   2.885   2.628   2.828
 2388SOL    HW1 1789   2.900   2.649   2.924
 2388SOL    HW2 1790   2.855   2.533   2.819
 2389SOL     OW 1791   2.842   3.435   3.562
 2389SOL    HW1 1792   2.822   3.479   3.474
 2389SOL    HW2 1793   2.881   3.344   3.546
 2391SOL     OW 1794   2.212   2.760   3.666
 2391SOL    HW1 1795   2.288   2.804   3.714
 2391SOL    HW2 1796   2.247   2.713   3.584
 2392SOL     OW 1797   3.402   2.136   1.987
 2392SOL    HW1 1798   3.341   2.061   2.010
 2392SOL    HW2 1799   3.424   2.188   2.070
 2393SOL     OW 1800   3.165   2.700   1.904
 2393SOL    HW1 1801   3.199   2.607   1.919
 2393SOL    HW2 1802   3.183   2.727   1.809
 2394SOL     OW 1803   2.930   3.195   2.711
 2394SOL    HW1 1804   2.937   3.111   2.656
 2394SOL    HW2 1805   2.992   3.264   2.675
 2395SOL     OW 1806   3.000   2.242   3.540
 2395SOL    HW1 1807   2.955   2.305   3.604
 2395SOL    HW2 1808   3.093   2.273   3.523
 2396SOL     OW 1809   3.022   2.069   3.339
 2396SOL    HW1 1810   3.022   2.133   3.416
 2396SOL    HW2 1811   3.050   2.117   3.256
 2397SOL     OW 1812   1.870   3.188   2.062
 2397SOL    HW1 1813   1.777   3.209   2.031
 2397SOL    HW2 1814   1.880   3.089   2.075
 2398SOL     OW 1815   1.950   3.663   2.789
 2398SOL    HW1 1816   1.908   3.577   2.762
 2398SOL    HW2 1817   2.044   3.666   2.755
 2399SOL     OW 1818   2.366   3.430   2.772
 2399SOL    HW1 1819   2.432   3.504   2.781
 2399SOL    HW2 1820   2.410   3.351   2.730
 2400SOL     OW 1821   2.864   2.658   3.100
 2400SOL    HW1 1822   2.905   2.626   3.186
 2400SOL    HW2 1823   2.768   2.631   3.097
 2401SOL     OW 1824   1.902   2.406   2.976
 2401SOL    HW1 1825   1.987   2.373   2.935
 2401SOL    HW2 1826   1.915   2.421   3.074
 2402SOL     OW 1827   2.051   2.382   3.584
 2402SOL    HW1 1828   2.110   2.342   3.514
 2402SOL    HW2 1829   1.993   2.453   3.543
 2403SOL     OW 1830   3.231   2.812   3.522
 2403SOL    HW1 1831   3.270   2.901   3.542
 2403SOL    HW2 1832   3.241   2.792   3.425
 2404SOL     OW 1833   3.519   2.466   3.068
 2404SOL    HW1 1834   3.481   2.397   3.130
 2404SOL    HW2 1835   3.601   2.430   3.024
 2405SOL     OW 1836   2.114   3.426   3.606
 2405SOL    HW1 1837   2.084   3.483   3.682
 2405SOL    HW2 1838   2.107   3.329   3.632
 2406SOL     OW 1839   2.533   2.326   3.131
 2406SOL    HW1 1840   2.499   2.237   3.101
 2406SOL    HW2 1841   2.559   2.380   3.051
 2407SOL     OW 1842   2.792   3.540   3.327
 2407SOL    HW1 1843   2.768   3.522   3.232
 2407SOL    HW2 1844   2.822   3.634   3.337
 2408SOL     OW 1845   2.335   2.362   2.053
 2408SOL    HW1 1846   2.396   2.442   2.057
 2408SOL    HW2 1847   2.240   2.393   2.060
 2409SOL     OW 1848   2.021   2.999   3.328
 2409SOL    HW1 1849   2.043   2.938   3.404
 2409SOL    HW2 1850   2.031   2.950   3.242
 2410SOL     OW 1851   3.209   2.921   3.096
 2410SOL    HW1 1852   3.233   2.858   3.022
 2410SOL    HW2 1853   3.119   2.961   3.078
 2411SOL     OW 1854   3.164   2.717   2.171
 2411SOL    HW1 1855   3.078   2.686   2.213
 2411SOL    HW2 1856   3.160   2.703   2.072
 2412SOL     OW 1857   3.621   3.609   3.016
 2412SOL    HW1 1858   3.682   3.639   2.943
 2412SOL    HW2 1859   3.583   3.520   2.994
 2413SOL     OW 1860   3.114   3.593   2.990
 2413SOL    HW1 1861   3.198   3.598   2.936
 2413SOL    HW2 1862   3.091   3.497   3.008
 2414SOL     OW 1863   1.945   3.120   2.884
 2414SOL    HW1 1864   1.940   3.119   2.984
 2414SOL    HW2 1865   1.862   3.079   2.846
 2415SOL     OW 1866   2.550   3.524   3.578
 2415SOL    HW1 1867   2.494   3.605   3.587
 2415SOL    HW2 1868   2.602   3.528   3.492
 2416SOL     OW 1869   3.588   1.997   2.385
 2416SOL    HW1 1870   3.661   1.980   2.318
 2416SOL    HW2 1871   3.557   1.910   2.423
 2417SOL     OW 1872   3.250   3.435   2.339
 2417SOL    HW1 1873   3.317   3.447   2.265
 2417SOL    HW2 1874   3.210   3.524   2.362
 2418SOL     OW 1875   1.992   3.656   3.713
 2418SOL    HW1 1876   1.951   3.582   3.766
 2418SOL    HW2 1877   2.056   3.707   3.771
 2419SOL     OW 1878   3.142   2.789   2.534
 2419SOL    HW1 1879   3.202   2.708   2.536
 2419SOL    HW2 1880   3.182   2.858   2.474
 2420SOL     OW 1881   2.692   3.135   3.284
 2420SOL    HW1 1882   2.687   3.168   3.379
 2420SOL    HW2 1883   2.606   3.154   3.238
 2421SOL     OW 1884   2.534   3.478   2.016
 2421SOL    HW1 1885   2.543   3.488   1.917
 2421SOL    HW2 1886   2.494   3.389   2.037
 2422SOL     OW 1887   3.512   3.582   3.256
 2422SOL    HW1 1888   3.565   3.592   3.172
 2422SOL    HW2 1889   3.485   3.672   3.290
 2423SOL     OW 1890   3.703   2.037   2.825
 2423SOL    HW1 1891   3.742   1.952   2.789
 2423SOL    HW2 1892   3.605   2.039   2.806
 2424SOL     OW 1893   2.125   2.188   2.582
 2424SOL    HW1 1894   2.046   2.239   2.548
 2424SOL    HW2 1895   2.116   2.173   2.680
 2425SOL     OW 1896   3.056   3.474   1.893
 2425SOL    HW1 1897   3.062   3.381   1.930
 2425SOL    HW2 1898   2.997   3.474   1.813
 2426SOL     OW 1899   2.684   2.864   3.234
 2426SOL    HW1 1900   2.724   2.863   3.142
 2426SOL    HW2 1901   2.694   2.956   3.274
 2427SOL     OW 1902   2.778   2.772   2.153
 2427SOL    HW1 1903   2.841   2.810   2.085
 2427SOL    HW2 1904   2.818   2.689   2.192
 2428SOL     OW 1905   3.366   3.469   1.906
 2428SOL    HW1 1906   3.274   3.506   1.913
 2428SOL    HW2 1907   3.404   3.489   1.816
 2429SOL     OW 1908   2.234   3.150   3.352
 2429SOL    HW1 1909   2.221   3.243   3.318
 2429SOL    HW2 1910   2.150   3.098   3.339
 2430SOL     OW 1911   3.476   3.154   3.151
 2430SOL    HW1 1912   3.536   3.157   3.231
 2430SOL    HW2 1913   3.401   3.218   3.164
 2431SOL     OW 1914   2.901   2.960   2.558
 2431SOL    HW1 1915   2.831   2.913   2.612
 2431SOL    HW2 1916   2.960   2.892   2.515
 2432SOL     OW 1917   2.876   2.098   2.833
 2432SOL    HW1 1918   2.868   2.062   2.740
 2432SOL    HW2 1919   2.874   2.022   2.898
 2433SOL     OW 1920   2.452   3.349   2.353
 2433SOL    HW1 1921   2.494   3.291   2.283
 2433SOL    HW2 1922   2.408   3.428   2.309
 2434SOL     OW 1923   3.571   2.247   3.243
 2434SOL    HW1 1924   3.644   2.316   3.247
 2434SOL    HW2 1925   3.599   2.172   3.184
 2435SOL     OW 1926   2.117   3.210   2.152
 2435SOL    HW1 1927   2.021   3.211   2.125
 2435SOL    HW2 1928   2.129   3.263   2.236
 2436SOL     OW 1929   1.967   2.875   3.588
 2436SOL    HW1 1930   1.890   2.842   3.642
 2436SOL    HW2 1931   2.052   2.845   3.630
 2437SOL     OW 1932   2.534   2.065   3.351
 2437SOL    HW1 1933   2.624   2.049   3.311
 2437SOL    HW2 1934   2.542   2.070   3.450
 2438SOL     OW 1935   1.937   2.207   1.895
 2438SOL    HW1 1936   1.845   2.179   1.866
 2438SOL    HW2 1937   1.968   2.284   1.839
 2439SOL     OW 1938   3.302   2.718   3.260
 2439SOL    HW1 1939   3.245   2.770   3.197
 2439SOL    HW2 1940   3.398   2.730   3.236
 2440SOL     OW 1941   1.934   2.028   2.180
 2440SOL    HW1 1942   1.917   2.111   2.126
 2440SOL    HW2 1943   2.024   1.991   2.158
 2441SOL     OW 1944   3.045   3.197   1.981
 2441SOL    HW1 1945   2.946   3.186   1.983
 2441SOL    HW2 1946   3.079   3.212   2.074
 2442SOL     OW 1947   2.475   2.704   3.293
 2442SOL    HW1 1948   2.531   2.785   3.276
 2442SOL    HW2 1949   2.534   2.624   3.296
 2443SOL     OW 1950   3.355   3.629   2.821
 2443SOL    HW1 1951   3.388   3.693   2.752
 2443SOL    HW2 1952   3.421   3.623   2.896
 2444SOL     OW 1953   2.578   2.427   3.570
 2444SOL    HW1 1954   2.597   2.492   3.644
 2444SOL    HW2 1955   2.638   2.347   3.579
 2445SOL     OW 1956   3.312   3.082   3.495
 2445SOL    HW1 1957   3.303   3.072   3.594
 2445SOL    HW2 1958   3.408   3.075   3.469
 2446SOL     OW 1959   2.252   3.603   3.422
 2446SOL    HW1 1960   2.161   3.644   3.420
 2446SOL    HW2 1961   2.245   3.509   3.454
 2447SOL     OW 1962   3.536   2.745   3.116
 2447SOL    HW1 1963   3.509   2.656   3.079
 2447SOL    HW2 1964   3.537   2.813   3.043
 2448SOL     OW 1965   3.087   2.187   2.311
 2448SOL    HW1 1966   3.152   2.113   2.300
 2448SOL    HW2 1967   3.107   2.237   2.395
 2449SOL     OW 1968   3.639   2.204   3.504
 2449SOL    HW1 1969   3.622   2.235   3.410
 2449SOL    HW2 1970   3.555   2.167   3.542
 2450SOL     OW 1971   3.592   2.796   3.379
 2450SOL    HW1 1972   3.630   2.887   3.394
 2450SOL    HW2 1973   3.584   2.779   3.280
 2451SOL     OW 1974   2.721   3.236   1.878
 2451SOL    HW1 1975   2.675   3.251   1.966
 2451SOL    HW2 1976   2.765   3.321   1.848
 2452SOL     OW 1977   2.523   3.652   2.815
 2452SOL    HW1 1978   2.477   3.740   2.802
 2452SOL    HW2 1979   2.622   3.664   2.808
 2453SOL     OW 1980   2.721   2.818   2.723
 2453SOL    HW1 1981   2.775   2.749   2.771
 2453SOL    HW2 1982   2.689   2.887   2.789
 2454SOL     OW 1983   2.945   2.846   1.949
 2454SOL    HW1 1984   2.922   2.899   1.867
 2454SOL    HW2 1985   3.026   2.790   1.930
 2455SOL     OW 1986   3.723   3.431   2.713
 2455SOL    HW1 1987   3.652   3.419   2.643
 2455SOL    HW2 1988   3.724   3.352   2.773
 2456SOL     OW 1989   2.083   3.176   3.706
 2456SOL    HW1 1990   2.018   3.103   3.685
 2456SOL    HW2 1991   2.087   3.190   3.804
 2457SOL     OW 1992   1.941   3.102   2.515
 2457SOL    HW1 1993   1.940   3.055   2.603
 2457SOL    HW2 1994   2.023   3.074   2.464
 2458SOL     OW 1995   2.534   3.253   3.486
 2458SOL    HW1 1996   2.456   3.203   3.524
 2458SOL    HW2 1997   2.531   3.348   3.517
 2459SOL     OW 1998   3.686   2.054   3.089
 2459SOL    HW1 1999   3.682   1.964   3.133
 2459SOL    HW2 2000   3.689   2.043   2.990
 2460SOL     OW 2001   3.567   3.349   2.966
 2460SOL    HW1 2002   3.474   3.324   2.939
 2460SOL    HW2 2003   3.593   3.299   3.048
 2461SOL     OW 2004   2.179   2.409   3.142
 2461SOL    HW1 2005   2.217   2.350   3.214
 2461SOL    HW2 2006   2.219   2.383   3.054
 2462SOL     OW 2007   2.674   3.448   2.549
 2462SOL    HW1 2008   2.706   3.458   2.455
 2462SOL    HW2 2009   2.595   3.386   2.551
 2463SOL     OW 2010   3.286   2.076   2.974
 2463SOL    HW1 2011   3.338   2.011   3.029
 2463SOL    HW2 2012   3.237   2.139   3.035
 2464SOL     OW 2013   2.863   1.896   3.016
 2464SOL    HW1 2014   2.800   1.824   2.985
 2464SOL    HW2 2015   2.956   1.860   3.016
 2465SOL     OW 2016   2.632   3.192   2.163
 2465SOL    HW1 2017   2.586   3.105   2.180
 2465SOL    HW2 2018   2.723   3.189   2.204
 2466SOL     OW 2019   2.480   3.429   3.146
 2466SOL    HW1 2020   2.475   3.511   3.203
 2466SOL    HW2 2021   2.569   3.426   3.101
 2467SOL     OW 2022   3.214   1.914   2.030
 2467SOL    HW1 2023   3.249   1.873   1.946
 2467SOL    HW2 2024   3.124   1.876   2.050
 2468SOL     OW 2025   3.162   2.315   2.553
 2468SOL    HW1 2026   3.103   2.395   2.557
 2468SOL    HW2 2027   3.177   2.280   2.646
 2469SOL     OW 2028   3.455   2.083   2.744
 2469SOL    HW1 2029   3.371   2.082   2.798
 2469SOL    HW2 2030   3.457   2.166   2.688
 2470SOL     OW 2031   1.901   2.939   2.162
 2470SOL    HW1 2032   2.000   2.928   2.153
 2470SOL    HW2 2033   1.861   2.853   2.194
 2471SOL     OW 2034   2.737   3.508   2.199
 2471SOL    HW1 2035   2.660   3.473   2.145
 2471SOL    HW2 2036   2.705   3.579   2.261
 2472SOL     OW 2037   2.092   2.490   3.837
 2472SOL    HW1 2038   1.999   2.488   3.874
 2472SOL    HW2 2039   2.093   2.451   3.745
 2486SOL     OW 2040   2.468   2.826   3.847
 2486SOL    HW1 2041   2.475   2.910   3.793
 2486SOL    HW2 2042   2.514   2.839   3.935
 2489SOL     OW 2043   1.889   3.458   3.841
 2489SOL    HW1 2044   1.870   3.362   3.862
 2489SOL    HW2 2045   1.856   3.516   3.916
 2495SOL     OW 2046   3.387   2.861   3.914
 2495SOL    HW1 2047   3.324   2.785   3.927
 2495SOL    HW2 2048   3.435   2.879   4.000
 2498SOL     OW 2049   2.460   2.591   3.994
 2498SOL    HW1 2050   2.484   2.660   3.926
 2498SOL    HW2 2051   2.382   2.624   4.048
 2501SOL     OW 2052   2.903   2.563   4.153
 2501SOL    HW1 2053   2.929   2.559   4.249
 2501SOL    HW2 2054   2.818   2.512   4.139
 2503SOL     OW 2055   2.727   2.210   3.919
 2503SOL    HW1 2056   2.786   2.273   3.870
 2503SOL    HW2 2057   2.746   2.116   3.890
 2509SOL     OW 2058   2.183   2.805   3.966
 2509SOL    HW1 2059   2.265   2.844   3.924
 2509SOL    HW2 2060   2.156   2.723   3.917
 2517SOL     OW 2061   2.244   2.562   4.204
 2517SOL    HW1 2062   2.289   2.472   4.201
 2517SOL    HW2 2063   2.150   2.551   4.237
 2518SOL     OW 2064   2.476   1.984   3.841
 2518SOL    HW1 2065   2.574   1.962   3.848
 2518SOL    HW2 2066   2.445   1.967   3.748
 2522SOL     OW 2067   3.296   3.050   3.765
 2522SOL    HW1 2068   3.328   2.974   3.822
 2522SOL    HW2 2069   3.204   3.077   3.795
 2523SOL     OW 2070   2.159   1.897   3.895
 2523SOL    HW1 2071   2.208   1.981   3.874
 2523SOL    HW2 2072   2.221   1.832   3.940
 2528SOL     OW 2073   2.894   2.411   3.740
 2528SOL    HW1 2074   2.853   2.493   3.701
 2528SOL    HW2 2075   2.958   2.437   3.813
 2534SOL     OW 2076   2.350   3.247   3.898
 2534SOL    HW1 2077   2.263   3.232   3.945
 2534SOL    HW2 2078   2.333   3.273   3.803
 2536SOL     OW 2079   3.252   2.437   3.802
 2536SOL    HW1 2080   3.198   2.416   3.883
 2536SOL    HW2 2081   3.343   2.396   3.811
 2537SOL     OW 2082   2.389   2.118   4.052
 2537SOL    HW1 2083   2.416   2.059   3.977
 2537SOL    HW2 2084   2.389   2.213   4.021
 2540SOL     OW 2085   2.567   2.912   4.092
 2540SOL    HW1 2086   2.553   2.919   4.191
 2540SOL    HW2 2087   2.651   2.861   4.074
 2548SOL     OW 2088   3.071   2.387   3.999
 2548SOL    HW1 2089   3.084   2.303   4.053
 2548SOL    HW2 2090   3.042   2.461   4.059
 2554SOL     OW 2091   3.402   2.136   3.849
 2554SOL    HW1 2092   3.341   2.061   3.872
 2554SOL    HW2 2093   3.424   2.188   3.932
 2555SOL     OW 2094   3.165   2.700   3.766
 2555SOL    HW1 2095   3.199   2.607   3.781
 2555SOL    HW2 2096   3.183   2.727   3.671
 2559SOL     OW 2097   1.870   3.188   3.924
 2559SOL    HW1 2098   1.777   3.209   3.893
 2559SOL    HW2 2099   1.880   3.089   3.937
 2564SOL     OW 2100   2.677   2.434   4.049
 2564SOL    HW1 2101   2.684   2.345   4.003
 2564SOL    HW2 2102   2.583   2.468   4.041
 2567SOL     OW 2103   2.335   2.362   3.915
 2567SOL    HW1 2104   2.396   2.442   3.919
 2567SOL    HW2 2105   2.240   2.393   3.922
 2568SOL     OW 2106   3.164   2.717   4.033
 2568SOL    HW1 2107   3.078   2.686   4.075
 2568SOL    HW2 2108   3.160   2.703   3.934
 2574SOL     OW 2109   2.534   3.478   3.878
 2574SOL    HW1 2110   2.543   3.488   3.779
 2574SOL    HW2 2111   2.494   3.389   3.899
 2577SOL     OW 2112   3.056   3.474   3.755
 2577SOL    HW1 2113   3.062   3.381   3.792
 2577SOL    HW2 2114   2.997   3.474   3.675
 2579SOL     OW 2115   2.778   2.772   4.015
 2579SOL    HW1 2116   2.841   2.810   3.947
 2579SOL    HW2 2117   2.818   2.689   4.054
 2585SOL     OW 2118   2.117   3.210   4.014
 2585SOL    HW1 2119   2.021   3.211   3.987
 2585SOL    HW2 2120   2.129   3.263   4.098
 2586SOL     OW 2121   1.937   2.207   3.757
 2586SOL    HW1 2122   1.845   2.179   3.728
 2586SOL    HW2 2123   1.968   2.284   3.701
 2587SOL     OW 2124   1.934   2.028   4.042
 2587SOL    HW1 2125   1.917   2.111   3.988
 2587SOL    HW2 2126   2.024   1.991   4.020
 2588SOL     OW 2127   3.045   3.197   3.843
 2588SOL    HW1 2128   2.946   3.186   3.845
 2588SOL    HW2 2129   3.079   3.212   3.936
 2593SOL     OW 2130   2.721   3.236   3.740
 2593SOL    HW1 2131   2.675   3.251   3.828
 2593SOL    HW2 2132   2.765   3.321   3.710
 2596SOL     OW 2133   2.945   2.846   3.811
 2596SOL    HW1 2134   2.922   2.899   3.729
 2596SOL    HW2 2135   3.026   2.790   3.792
 2600SOL     OW 2136   2.290   2.286   4.244
 2600SOL    HW1 2137   2.320   2.214   4.182
 2600SOL    HW2 2138   2.251   2.246   4.327
 2604SOL     OW 2139   2.632   3.192   4.025
 2604SOL    HW1 2140   2.586   3.105   4.042
 2604SOL    HW2 2141   2.723   3.189   4.066
 2605SOL     OW 2142   3.214   1.914   3.892
 2605SOL    HW1 2143   3.249   1.873   3.808
 2605SOL    HW2 2144   3.124   1.876   3.912
 2608SOL     OW 2145   1.901   2.939   4.024
 2608SOL    HW1 2146   2.000   2.928   4.015
 2608SOL    HW2 2147   1.861   2.853   4.056
 2632SOL     OW 2148   2.179   3.975   1.801
 2632SOL    HW1 2149   2.250   4.046   1.807
 2632SOL    HW2 2150   2.091   4.014   1.829
 2652SOL     OW 2151   2.643   3.988   1.749
 2652SOL    HW1 2152   2.710   3.927   1.792
 2652SOL    HW2 2153   2.570   4.007   1.814
 2672SOL     OW 2154   2.777   3.813   1.402
 2672SOL    HW1 2155   2.802   3.793   1.307
 2672SOL    HW2 2156   2.849   3.869   1.444
 2681SOL     OW 2157   2.875   3.829   1.770
 2681SOL    HW1 2158   2.881   3.914   1.718
 2681SOL    HW2 2159   2.907   3.753   1.713
 2682SOL     OW 2160   2.366   3.774   1.740
 2682SOL    HW1 2161   2.324   3.717   1.670
 2682SOL    HW2 2162   2.300   3.843   1.772
 2721SOL     OW 2163   2.534   3.927   1.489
 2721SOL    HW1 2164   2.624   3.911   1.449
 2721SOL    HW2 2165   2.542   3.932   1.588
 2745SOL     OW 2166   2.087   3.999   2.858
 2745SOL    HW1 2167   2.122   3.982   2.950
 2745SOL    HW2 2168   1.999   3.954   2.846
 2746SOL     OW 2169   1.881   4.092   2.509
 2746SOL    HW1 2170   1.799   4.135   2.548
 2746SOL    HW2 2171   1.853   4.019   2.446
 2763SOL     OW 2172   2.671   3.728   2.364
 2763SOL    HW1 2173   2.711   3.819   2.355
 2763SOL    HW2 2174   2.571   3.736   2.370
 2768SOL     OW 2175   3.143   4.069   2.806
 2768SOL    HW1 2176   3.057   4.019   2.793
 2768SOL    HW2 2177   3.205   4.015   2.862
 2775SOL     OW 2178   2.727   4.072   2.057
 2775SOL    HW1 2179   2.786   4.135   2.008
 2775SOL    HW2 2180   2.746   3.978   2.028
 2777SOL     OW 2181   2.412   3.920   2.747
 2777SOL    HW1 2182   2.407   3.915   2.847
 2777SOL    HW2 2183   2.414   4.016   2.718
 2782SOL     OW 2184   3.262   3.831   2.288
 2782SOL    HW1 2185   3.238   3.794   2.198
 2782SOL    HW2 2186   3.361   3.847   2.292
 2785SOL     OW 2187   2.476   3.846   1.979
 2785SOL    HW1 2188   2.574   3.824   1.986
 2785SOL    HW2 2189   2.445   3.829   1.886
 2789SOL     OW 2190   2.401   3.788   2.374
 2789SOL    HW1 2191   2.320   3.789   2.432
 2789SOL    HW2 2192   2.404   3.871   2.319
 2790SOL     OW 2193   2.159   3.759   2.033
 2790SOL    HW1 2194   2.208   3.843   2.012
 2790SOL    HW2 2195   2.221   3.694   2.078
 2791SOL     OW 2196   2.797   3.960   2.342
 2791SOL    HW1 2197   2.749   4.001   2.264
 2791SOL    HW2 2198   2.896   3.958   2.323
 2796SOL     OW 2199   2.423   3.946   3.009
 2796SOL    HW1 2200   2.461   3.862   3.046
 2796SOL    HW2 2201   2.335   3.965   3.053
 2797SOL     OW 2202   2.728   4.178   2.504
 2797SOL    HW1 2203   2.696   4.250   2.442
 2797SOL    HW2 2204   2.752   4.097   2.451
 2798SOL     OW 2205   2.879   3.763   2.615
 2798SOL    HW1 2206   2.807   3.768   2.546
 2798SOL    HW2 2207   2.855   3.694   2.684
 2803SOL     OW 2208   2.389   3.980   2.190
 2803SOL    HW1 2209   2.416   3.921   2.115
 2803SOL    HW2 2210   2.389   4.075   2.159
 2806SOL     OW 2211   2.777   3.813   3.264
 2806SOL    HW1 2212   2.802   3.793   3.169
 2806SOL    HW2 2213   2.849   3.869   3.306
 2816SOL     OW 2214   2.366   3.774   3.602
 2816SOL    HW1 2215   2.324   3.717   3.532
 2816SOL    HW2 2216   2.300   3.843   3.634
 2820SOL     OW 2217   2.169   3.937   3.093
 2820SOL    HW1 2218   2.146   3.974   3.183
 2820SOL    HW2 2219   2.139   3.842   3.087
 2823SOL     OW 2220   2.169   3.787   2.480
 2823SOL    HW1 2221   2.158   3.881   2.513
 2823SOL    HW2 2222   2.164   3.724   2.557
 2832SOL     OW 2223   3.022   3.931   3.339
 2832SOL    HW1 2224   3.022   3.995   3.416
 2832SOL    HW2 2225   3.050   3.979   3.256
 2844SOL     OW 2226   3.588   3.859   2.385
 2844SOL    HW1 2227   3.661   3.842   2.318
 2844SOL    HW2 2228   3.557   3.772   2.423
 2847SOL     OW 2229   2.125   4.050   2.582
 2847SOL    HW1 2230   2.046   4.101   2.548
 2847SOL    HW2 2231   2.116   4.035   2.680
 2851SOL     OW 2232   2.876   3.960   2.833
 2851SOL    HW1 2233   2.868   3.924   2.740
 2851SOL    HW2 2234   2.874   3.884   2.898
 2854SOL     OW 2235   2.534   3.927   3.351
 2854SOL    HW1 2236   2.624   3.911   3.311
 2854SOL    HW2 2237   2.542   3.932   3.450
 2855SOL     OW 2238   1.937   4.069   1.895
 2855SOL    HW1 2239   1.845   4.041   1.866
 2855SOL    HW2 2240   1.968   4.146   1.839
 2857SOL     OW 2241   1.934   3.890   2.180
 2857SOL    HW1 2242   1.917   3.973   2.126
 2857SOL    HW2 2243   2.024   3.853   2.158
 2862SOL     OW 2244   3.087   4.049   2.311
 2862SOL    HW1 2245   3.152   3.975   2.300
 2862SOL    HW2 2246   3.107   4.099   2.395
 2870SOL     OW 2247   2.290   4.148   2.382
 2870SOL    HW1 2248   2.320   4.076   2.320
 2870SOL    HW2 2249   2.251   4.108   2.465
 2872SOL     OW 2250   3.286   3.938   2.974
 2872SOL    HW1 2251   3.338   3.873   3.029
 2872SOL    HW2 2252   3.237   4.001   3.035
 2873SOL     OW 2253   2.863   3.758   3.016
 2873SOL    HW1 2254   2.800   3.686   2.985
 2873SOL    HW2 2255   2.956   3.722   3.016
 2875SOL     OW 2256   3.214   3.776   2.030
 2875SOL    HW1 2257   3.249   3.735   1.946
 2875SOL    HW2 2258   3.124   3.738   2.050
 2877SOL     OW 2259   3.455   3.945   2.744
 2877SOL    HW1 2260   3.371   3.944   2.798
 2877SOL    HW2 2261   3.457   4.028   2.688
 3002SOL     OW 2262   3.854   1.821   1.571
 3002SOL    HW1 2263   3.844   1.806   1.670
 3002SOL    HW2 2264   3.768   1.857   1.535
 3075SOL     OW 2265   3.854   1.794   1.851
 3075SOL    HW1 2266   3.813   1.720   1.904
 3075SOL    HW2 2267   3.918   1.845   1.909
 3118SOL     OW 2268   3.955   1.713   2.345
 3118SOL    HW1 2269   3.989   1.790   2.399
 3118SOL    HW2 2270   3.999   1.713   2.255
 3125SOL     OW 2271   3.751   1.596   1.979
 3125SOL    HW1 2272   3.732   1.500   2.000
 3125SOL    HW2 2273   3.718   1.654   2.054
 3141SOL     OW 2274   4.075   1.801   2.715
 3141SOL    HW1 2275   4.125   1.715   2.721
 3141SOL    HW2 2276   4.140   1.878   2.712
 3146SOL     OW 2277   3.973   1.785   3.103
 3146SOL    HW1 2278   4.030   1.720   3.153
 3146SOL    HW2 2279   3.957   1.752   3.010
 3171SOL     OW 2280   3.788   1.564   3.193
 3171SOL    HW1 2281   3.742   1.646   3.159
 3171SOL    HW2 2282   3.886   1.583   3.202
 3195SOL     OW 2283   3.732   1.326   2.062
 3195SOL    HW1 2284   3.639   1.347   2.031
 3195SOL    HW2 2285   3.742   1.227   2.075
 3196SOL     OW 2286   3.812   1.801   2.789
 3196SOL    HW1 2287   3.770   1.715   2.762
 3196SOL    HW2 2288   3.906   1.804   2.755
 3352SOL     OW 2289   3.837   2.599   1.597
 3352SOL    HW1 2290   3.925   2.586   1.642
 3352SOL    HW2 2291   3.824   2.696   1.575
 3356SOL     OW 2292   4.041   2.113   1.801
 3356SOL    HW1 2293   4.112   2.184   1.807
 3356SOL    HW2 2294   3.953   2.152   1.829
 3370SOL     OW 2295   3.926   2.147   1.498
 3370SOL    HW1 2296   3.846   2.207   1.485
 3370SOL    HW2 2297   3.916   2.098   1.584
 3387SOL     OW 2298   3.802   2.418   1.386
 3387SOL    HW1 2299   3.894   2.417   1.345
 3387SOL    HW2 2300   3.796   2.492   1.453
 3414SOL     OW 2301   4.074   2.760   1.804
 3414SOL    HW1 2302   4.150   2.804   1.852
 3414SOL    HW2 2303   4.109   2.713   1.722
 3425SOL     OW 2304   3.913   2.382   1.722
 3425SOL    HW1 2305   3.972   2.342   1.652
 3425SOL    HW2 2306   3.855   2.453   1.681
 3447SOL     OW 2307   3.829   2.875   1.726
 3447SOL    HW1 2308   3.752   2.842   1.780
 3447SOL    HW2 2309   3.914   2.845   1.768
 3458SOL     OW 2310   3.945   3.176   1.844
 3458SOL    HW1 2311   3.880   3.103   1.823
 3458SOL    HW2 2312   3.949   3.190   1.942
 3469SOL     OW 2313   3.954   2.490   1.975
 3469SOL    HW1 2314   3.861   2.488   2.012
 3469SOL    HW2 2315   3.955   2.451   1.883
 3470SOL     OW 2316   3.949   2.137   2.858
 3470SOL    HW1 2317   3.984   2.120   2.950
 3470SOL    HW2 2318   3.861   2.092   2.846
 3471SOL     OW 2319   3.743   2.230   2.509
 3471SOL    HW1 2320   3.661   2.273   2.548
 3471SOL    HW2 2321   3.715   2.157   2.446
 3481SOL     OW 2322   3.954   3.296   2.400
 3481SOL    HW1 2323   3.928   3.392   2.400
 3481SOL    HW2 2324   3.883   3.242   2.445
 3482SOL     OW 2325   3.964   2.953   2.748
 3482SOL    HW1 2326   3.978   2.869   2.800
 3482SOL    HW2 2327   3.909   3.017   2.803
 3485SOL     OW 2328   3.846   2.505   2.425
 3485SOL    HW1 2329   3.801   2.417   2.442
 3485SOL    HW2 2330   3.845   2.559   2.509
 3486SOL     OW 2331   3.751   3.458   1.979
 3486SOL    HW1 2332   3.732   3.362   2.000
 3486SOL    HW2 2333   3.718   3.516   2.054
 3487SOL     OW 2334   3.837   2.599   3.459
 3487SOL    HW1 2335   3.925   2.586   3.504
 3487SOL    HW2 2336   3.824   2.696   3.437
 3490SOL     OW 2337   3.921   2.838   3.126
 3490SOL    HW1 2338   4.010   2.793   3.112
 3490SOL    HW2 2339   3.848   2.773   3.107
 3497SOL     OW 2340   3.800   2.673   2.651
 3497SOL    HW1 2341   3.899   2.661   2.660
 3497SOL    HW2 2342   3.776   2.768   2.672
 3503SOL     OW 2343   4.045   2.805   2.104
 3503SOL    HW1 2344   4.127   2.844   2.062
 3503SOL    HW2 2345   4.018   2.723   2.055
 3505SOL     OW 2346   3.926   2.147   3.360
 3505SOL    HW1 2347   3.846   2.207   3.347
 3505SOL    HW2 2348   3.916   2.098   3.446
 3509SOL     OW 2349   4.106   2.562   2.342
 3509SOL    HW1 2350   4.151   2.472   2.339
 3509SOL    HW2 2351   4.012   2.551   2.375
 3516SOL     OW 2352   4.021   1.897   2.033
 3516SOL    HW1 2353   4.070   1.981   2.012
 3516SOL    HW2 2354   4.083   1.832   2.078
 3522SOL     OW 2355   3.802   2.418   3.248
 3522SOL    HW1 2356   3.894   2.417   3.207
 3522SOL    HW2 2357   3.796   2.492   3.315
 3532SOL     OW 2358   3.788   3.426   3.193
 3532SOL    HW1 2359   3.742   3.508   3.159
 3532SOL    HW2 2360   3.886   3.445   3.202
 3533SOL     OW 2361   4.091   2.962   2.363
 3533SOL    HW1 2362   4.084   3.045   2.307
 3533SOL    HW2 2363   4.095   2.882   2.303
 3543SOL     OW 2364   4.031   2.075   3.093
 3543SOL    HW1 2365   4.008   2.112   3.183
 3543SOL    HW2 2366   4.001   1.980   3.087
 3544SOL     OW 2367   3.761   3.172   3.144
 3544SOL    HW1 2368   3.814   3.123   3.212
 3544SOL    HW2 2369   3.783   3.270   3.149
 3546SOL     OW 2370   4.031   1.925   2.480
 3546SOL    HW1 2371   4.020   2.019   2.513
 3546SOL    HW2 2372   4.026   1.862   2.557
 3552SOL     OW 2373   4.043   2.672   2.811
 3552SOL    HW1 2374   4.136   2.708   2.816
 3552SOL    HW2 2375   4.037   2.587   2.863
 3553SOL     OW 2376   4.063   2.371   2.868
 3553SOL    HW1 2377   4.011   2.288   2.851
 3553SOL    HW2 2378   4.140   2.376   2.804
 3556SOL     OW 2379   3.732   3.188   2.062
 3556SOL    HW1 2380   3.639   3.209   2.031
 3556SOL    HW2 2381   3.742   3.089   2.075
 3560SOL     OW 2382   3.764   2.406   2.976
 3560SOL    HW1 2383   3.849   2.373   2.935
 3560SOL    HW2 2384   3.777   2.421   3.074
 3566SOL     OW 2385   4.197   2.362   2.053
 3566SOL    HW1 2386   4.258   2.442   2.057
 3566SOL    HW2 2387   4.102   2.393   2.060
 3567SOL     OW 2388   3.883   2.999   3.328
 3567SOL    HW1 2389   3.905   2.938   3.404
 3567SOL    HW2 2390   3.893   2.950   3.242
 3569SOL     OW 2391   3.807   3.120   2.884
 3569SOL    HW1 2392   3.802   3.119   2.984
 3569SOL    HW2 2393   3.724   3.079   2.846
 3574SOL     OW 2394   3.987   2.188   2.582
 3574SOL    HW1 2395   3.908   2.239   2.548
 3574SOL    HW2 2396   3.978   2.173   2.680
 3581SOL     OW 2397   3.979   3.210   2.152
 3581SOL    HW1 2398   3.883   3.211   2.125
 3581SOL    HW2 2399   3.991   3.263   2.236
 3584SOL     OW 2400   3.799   2.207   1.895
 3584SOL    HW1 2401   3.707   2.179   1.866
 3584SOL    HW2 2402   3.830   2.284   1.839
 3585SOL     OW 2403   3.796   2.028   2.180
 3585SOL    HW1 2404   3.779   2.111   2.126
 3585SOL    HW2 2405   3.886   1.991   2.158
 3595SOL     OW 2406   3.803   3.102   2.515
 3595SOL    HW1 2407   3.802   3.055   2.603
 3595SOL    HW2 2408   3.885   3.074   2.464
 3597SOL     OW 2409   4.152   2.286   2.382
 3597SOL    HW1 2410   4.182   2.214   2.320
 3597SOL    HW2 2411   4.113   2.246   2.465
 3598SOL     OW 2412   4.041   2.409   3.142
 3598SOL    HW1 2413   4.079   2.350   3.214
 3598SOL    HW2 2414   4.081   2.383   3.054
 3603SOL     OW 2415   3.763   2.939   2.162
 3603SOL    HW1 2416   3.862   2.928   2.153
 3603SOL    HW2 2417   3.723   2.853   2.194
   4.93389   4.93389   4.93389
