; mobley_6733657_GMX.itp created by acpype (v: 2023.10.27) on Thu May 21 00:15:50 2026

[ atomtypes ]
;name   bond_type     mass     charge   ptype   sigma         epsilon       Amb
 c2       c2          0.00000  0.00000   A     3.31521e-01   4.13379e-01 ; 1.86  0.0988
 c5       c5          0.00000  0.00000   A     3.39771e-01   4.51035e-01 ; 1.91  0.1078
 cl       cl          0.00000  0.00000   A     3.46595e-01   1.10374e+00 ; 1.95  0.2638
 hc       hc          0.00000  0.00000   A     2.60018e-01   8.70272e-02 ; 1.46  0.0208
 h1       h1          0.00000  0.00000   A     2.42200e-01   8.70272e-02 ; 1.36  0.0208

[ moleculetype ]
;name            nrexcl
 mobley_6733657   3

[ atoms ]
;   nr  type  resi  res  atom  cgnr     charge      mass       ; qtot   bond_type
     1   c2     1   MOL    C1    1    -0.045800     12.01000 ; qtot -0.046
     2   c2     1   MOL    C2    2    -0.045800     12.01000 ; qtot -0.092
     3   c5     1   MOL    C3    3    -0.098400     12.01000 ; qtot -0.190
     4   c5     1   MOL    C4    4    -0.066700     12.01000 ; qtot -0.257
     5   c5     1   MOL    C5    5    -0.066700     12.01000 ; qtot -0.323
     6   c5     1   MOL    C6    6     0.057700     12.01000 ; qtot -0.266
     7   c5     1   MOL    C7    7     0.057700     12.01000 ; qtot -0.208
     8   c5     1   MOL    C8    8     0.090600     12.01000 ; qtot -0.117
     9   c5     1   MOL    C9    9     0.090600     12.01000 ; qtot -0.027
    10   c5     1   MOL   C10   10     0.139800     12.01000 ; qtot 0.113
    11   cl     1   MOL   CL1   11    -0.003400     35.45000 ; qtot 0.110
    12   cl     1   MOL   CL2   12    -0.003400     35.45000 ; qtot 0.106
    13   cl     1   MOL   CL3   13    -0.149400     35.45000 ; qtot -0.043
    14   cl     1   MOL   CL4   14    -0.149400     35.45000 ; qtot -0.193
    15   cl     1   MOL   CL5   15    -0.058400     35.45000 ; qtot -0.251
    16   cl     1   MOL   CL6   16    -0.058400     35.45000 ; qtot -0.309
    17   cl     1   MOL   CL7   17    -0.084900     35.45000 ; qtot -0.394
    18   cl     1   MOL   CL8   18    -0.084900     35.45000 ; qtot -0.479
    19   hc     1   MOL    H1   19     0.080200      1.00800 ; qtot -0.399
    20   hc     1   MOL    H2   20     0.080200      1.00800 ; qtot -0.319
    21   hc     1   MOL    H3   21     0.082700      1.00800 ; qtot -0.236
    22   hc     1   MOL    H4   22     0.082700      1.00800 ; qtot -0.153
    23   h1     1   MOL    H5   23     0.076700      1.00800 ; qtot -0.077
    24   h1     1   MOL    H6   24     0.076700      1.00800 ; qtot 0.000

[ bonds ]
;   ai     aj funct   r             k
     1      2   1    1.3379e-01    3.6484e+05 ;     C1 - C2    
     1      8   1    1.5154e-01    2.0366e+05 ;     C1 - C8    
     1     11   1    1.7415e-01    1.6405e+05 ;     C1 - CL1   
     2      9   1    1.5154e-01    2.0366e+05 ;     C2 - C9    
     2     12   1    1.7415e-01    1.6405e+05 ;     C2 - CL2   
     3      6   1    1.5483e-01    1.8418e+05 ;     C3 - C6    
     3      7   1    1.5483e-01    1.8418e+05 ;     C3 - C7    
     3     19   1    1.0954e-01    2.8989e+05 ;     C3 - H1    
     3     20   1    1.0954e-01    2.8989e+05 ;     C3 - H2    
     4      5   1    1.5483e-01    1.8418e+05 ;     C4 - C5    
     4      6   1    1.5483e-01    1.8418e+05 ;     C4 - C6    
     4      8   1    1.5483e-01    1.8418e+05 ;     C4 - C8    
     4     21   1    1.0954e-01    2.8989e+05 ;     C4 - H3    
     5      7   1    1.5483e-01    1.8418e+05 ;     C5 - C7    
     5      9   1    1.5483e-01    1.8418e+05 ;     C5 - C9    
     5     22   1    1.0954e-01    2.8989e+05 ;     C5 - H4    
     6     13   1    1.8093e-01    1.3720e+05 ;     C6 - CL3   
     6     23   1    1.0972e-01    2.8768e+05 ;     C6 - H5    
     7     14   1    1.8093e-01    1.3720e+05 ;     C7 - CL4   
     7     24   1    1.0972e-01    2.8768e+05 ;     C7 - H6    
     8     10   1    1.5483e-01    1.8418e+05 ;     C8 - C10   
     8     15   1    1.8093e-01    1.3720e+05 ;     C8 - CL5   
     9     10   1    1.5483e-01    1.8418e+05 ;     C9 - C10   
     9     16   1    1.8093e-01    1.3720e+05 ;     C9 - CL6   
    10     17   1    1.8093e-01    1.3720e+05 ;    C10 - CL7   
    10     18   1    1.8093e-01    1.3720e+05 ;    C10 - CL8   

[ pairs ]
;   ai     aj    funct
     1      5      1 ;     C1 - C5    
     1      6      1 ;     C1 - C6    
     1     16      1 ;     C1 - CL6   
     1     17      1 ;     C1 - CL7   
     1     18      1 ;     C1 - CL8   
     1     21      1 ;     C1 - H3    
     2      4      1 ;     C2 - C4    
     2      7      1 ;     C2 - C7    
     2     15      1 ;     C2 - CL5   
     2     17      1 ;     C2 - CL7   
     2     18      1 ;     C2 - CL8   
     2     22      1 ;     C2 - H4    
     3      8      1 ;     C3 - C8    
     3      9      1 ;     C3 - C9    
     3     21      1 ;     C3 - H3    
     3     22      1 ;     C3 - H4    
     4     14      1 ;     C4 - CL4   
     4     16      1 ;     C4 - CL6   
     4     17      1 ;     C4 - CL7   
     4     18      1 ;     C4 - CL8   
     4     19      1 ;     C4 - H1    
     4     20      1 ;     C4 - H2    
     4     24      1 ;     C4 - H6    
     5     12      1 ;     C5 - CL2   
     5     13      1 ;     C5 - CL3   
     5     15      1 ;     C5 - CL5   
     5     17      1 ;     C5 - CL7   
     5     18      1 ;     C5 - CL8   
     5     19      1 ;     C5 - H1    
     5     20      1 ;     C5 - H2    
     5     23      1 ;     C5 - H5    
     6      9      1 ;     C6 - C9    
     6     10      1 ;     C6 - C10   
     6     14      1 ;     C6 - CL4   
     6     15      1 ;     C6 - CL5   
     6     22      1 ;     C6 - H4    
     6     24      1 ;     C6 - H6    
     7      8      1 ;     C7 - C8    
     7     10      1 ;     C7 - C10   
     7     13      1 ;     C7 - CL3   
     7     16      1 ;     C7 - CL6   
     7     21      1 ;     C7 - H3    
     7     23      1 ;     C7 - H5    
     8     12      1 ;     C8 - CL2   
     8     13      1 ;     C8 - CL3   
     8     16      1 ;     C8 - CL6   
     8     22      1 ;     C8 - H4    
     8     23      1 ;     C8 - H5    
     9     14      1 ;     C9 - CL4   
     9     15      1 ;     C9 - CL5   
     9     21      1 ;     C9 - H3    
     9     24      1 ;     C9 - H6    
    10     12      1 ;    C10 - CL2   
    10     21      1 ;    C10 - H3    
    10     22      1 ;    C10 - H4    
    11      4      1 ;    CL1 - C4    
    11      9      1 ;    CL1 - C9    
    11     10      1 ;    CL1 - C10   
    11     12      1 ;    CL1 - CL2   
    11     15      1 ;    CL1 - CL5   
    12     16      1 ;    CL2 - CL6   
    13     19      1 ;    CL3 - H1    
    13     20      1 ;    CL3 - H2    
    13     21      1 ;    CL3 - H3    
    14     19      1 ;    CL4 - H1    
    14     20      1 ;    CL4 - H2    
    14     22      1 ;    CL4 - H4    
    15     17      1 ;    CL5 - CL7   
    15     18      1 ;    CL5 - CL8   
    15     21      1 ;    CL5 - H3    
    16     17      1 ;    CL6 - CL7   
    16     18      1 ;    CL6 - CL8   
    16     22      1 ;    CL6 - H4    
    19     23      1 ;     H1 - H5    
    19     24      1 ;     H1 - H6    
    20     23      1 ;     H2 - H5    
    20     24      1 ;     H2 - H6    
    21     22      1 ;     H3 - H4    
    21     23      1 ;     H3 - H5    
    22     24      1 ;     H4 - H6    

[ angles ]
;   ai     aj     ak    funct   theta         cth
     1      2      9      1    1.1893e+02    5.2066e+02 ;     C1 - C2     - C9    
     1      2     12      1    1.2318e+02    5.3622e+02 ;     C1 - C2     - CL2   
     1      8      4      1    1.0794e+02    5.1287e+02 ;     C1 - C8     - C4    
     1      8     10      1    1.0794e+02    5.1287e+02 ;     C1 - C8     - C10   
     1      8     15      1    1.1366e+02    5.2677e+02 ;     C1 - C8     - CL5   
     2      1      8      1    1.1893e+02    5.2066e+02 ;     C2 - C1     - C8    
     2      1     11      1    1.2318e+02    5.3622e+02 ;     C2 - C1     - CL1   
     2      9      5      1    1.0794e+02    5.1287e+02 ;     C2 - C9     - C5    
     2      9     10      1    1.0794e+02    5.1287e+02 ;     C2 - C9     - C10   
     2      9     16      1    1.1366e+02    5.2677e+02 ;     C2 - C9     - CL6   
     3      6      4      1    1.0383e+02    5.1748e+02 ;     C3 - C6     - C4    
     3      6     13      1    1.1339e+02    5.2409e+02 ;     C3 - C6     - CL3   
     3      6     23      1    1.1117e+02    3.5690e+02 ;     C3 - C6     - H5    
     3      7      5      1    1.0383e+02    5.1748e+02 ;     C3 - C7     - C5    
     3      7     14      1    1.1339e+02    5.2409e+02 ;     C3 - C7     - CL4   
     3      7     24      1    1.1117e+02    3.5690e+02 ;     C3 - C7     - H6    
     4      5      7      1    1.0383e+02    5.1748e+02 ;     C4 - C5     - C7    
     4      5      9      1    1.0383e+02    5.1748e+02 ;     C4 - C5     - C9    
     4      5     22      1    1.1117e+02    3.5690e+02 ;     C4 - C5     - H4    
     4      6     13      1    1.1339e+02    5.2409e+02 ;     C4 - C6     - CL3   
     4      6     23      1    1.1117e+02    3.5690e+02 ;     C4 - C6     - H5    
     4      8     10      1    1.0383e+02    5.1748e+02 ;     C4 - C8     - C10   
     4      8     15      1    1.1339e+02    5.2409e+02 ;     C4 - C8     - CL5   
     5      4      6      1    1.0383e+02    5.1748e+02 ;     C5 - C4     - C6    
     5      4      8      1    1.0383e+02    5.1748e+02 ;     C5 - C4     - C8    
     5      4     21      1    1.1117e+02    3.5690e+02 ;     C5 - C4     - H3    
     5      7     14      1    1.1339e+02    5.2409e+02 ;     C5 - C7     - CL4   
     5      7     24      1    1.1117e+02    3.5690e+02 ;     C5 - C7     - H6    
     5      9     10      1    1.0383e+02    5.1748e+02 ;     C5 - C9     - C10   
     5      9     16      1    1.1339e+02    5.2409e+02 ;     C5 - C9     - CL6   
     6      3      7      1    1.0383e+02    5.1748e+02 ;     C6 - C3     - C7    
     6      3     19      1    1.1117e+02    3.5690e+02 ;     C6 - C3     - H1    
     6      3     20      1    1.1117e+02    3.5690e+02 ;     C6 - C3     - H2    
     6      4      8      1    1.0383e+02    5.1748e+02 ;     C6 - C4     - C8    
     6      4     21      1    1.1117e+02    3.5690e+02 ;     C6 - C4     - H3    
     7      3     19      1    1.1117e+02    3.5690e+02 ;     C7 - C3     - H1    
     7      3     20      1    1.1117e+02    3.5690e+02 ;     C7 - C3     - H2    
     7      5      9      1    1.0383e+02    5.1748e+02 ;     C7 - C5     - C9    
     7      5     22      1    1.1117e+02    3.5690e+02 ;     C7 - C5     - H4    
     8      1     11      1    1.2291e+02    5.2024e+02 ;     C8 - C1     - CL1   
     8      4     21      1    1.1117e+02    3.5690e+02 ;     C8 - C4     - H3    
     8     10      9      1    1.0383e+02    5.1748e+02 ;     C8 - C10    - C9    
     8     10     17      1    1.1339e+02    5.2409e+02 ;     C8 - C10    - CL7   
     8     10     18      1    1.1339e+02    5.2409e+02 ;     C8 - C10    - CL8   
     9      2     12      1    1.2291e+02    5.2024e+02 ;     C9 - C2     - CL2   
     9      5     22      1    1.1117e+02    3.5690e+02 ;     C9 - C5     - H4    
     9     10     17      1    1.1339e+02    5.2409e+02 ;     C9 - C10    - CL7   
     9     10     18      1    1.1339e+02    5.2409e+02 ;     C9 - C10    - CL8   
    10      8     15      1    1.1339e+02    5.2409e+02 ;    C10 - C8     - CL5   
    10      9     16      1    1.1339e+02    5.2409e+02 ;    C10 - C9     - CL6   
    13      6     23      1    1.0478e+02    3.6535e+02 ;    CL3 - C6     - H5    
    14      7     24      1    1.0478e+02    3.6535e+02 ;    CL4 - C7     - H6    
    17     10     18      1    1.0869e+02    5.8392e+02 ;    CL7 - C10    - CL8   
    19      3     20      1    1.0722e+02    3.0049e+02 ;     H1 - C3     - H2    

[ dihedrals ] ; propers
; for gromacs 4.5 or higher, using funct 9
;    i      j      k      l   func   phase     kd      pn
     1      2      9      5      9     0.00   0.00000   0 ;     C1-    C2-    C9-    C5
     1      2      9     10      9     0.00   0.00000   0 ;     C1-    C2-    C9-   C10
     1      2      9     16      9     0.00   0.00000   0 ;     C1-    C2-    C9-   CL6
     1      8      4      5      9     0.00   0.65084   3 ;     C1-    C8-    C4-    C5
     1      8      4      6      9     0.00   0.65084   3 ;     C1-    C8-    C4-    C6
     1      8      4     21      9     0.00   0.65084   3 ;     C1-    C8-    C4-    H3
     1      8     10      9      9     0.00   0.65084   3 ;     C1-    C8-   C10-    C9
     1      8     10     17      9     0.00   0.65084   3 ;     C1-    C8-   C10-   CL7
     1      8     10     18      9     0.00   0.65084   3 ;     C1-    C8-   C10-   CL8
     2      1      8      4      9     0.00   0.00000   0 ;     C2-    C1-    C8-    C4
     2      1      8     10      9     0.00   0.00000   0 ;     C2-    C1-    C8-   C10
     2      1      8     15      9     0.00   0.00000   0 ;     C2-    C1-    C8-   CL5
     2      9      5      4      9     0.00   0.65084   3 ;     C2-    C9-    C5-    C4
     2      9      5      7      9     0.00   0.65084   3 ;     C2-    C9-    C5-    C7
     2      9      5     22      9     0.00   0.65084   3 ;     C2-    C9-    C5-    H4
     2      9     10      8      9     0.00   0.65084   3 ;     C2-    C9-   C10-    C8
     2      9     10     17      9     0.00   0.65084   3 ;     C2-    C9-   C10-   CL7
     2      9     10     18      9     0.00   0.65084   3 ;     C2-    C9-   C10-   CL8
     3      6      4      5      9     0.00   2.17568   3 ;     C3-    C6-    C4-    C5
     3      6      4      8      9     0.00   2.17568   3 ;     C3-    C6-    C4-    C8
     3      6      4     21      9     0.00   0.54392   3 ;     C3-    C6-    C4-    H3
     3      7      5      4      9     0.00   2.17568   3 ;     C3-    C7-    C5-    C4
     3      7      5      9      9     0.00   2.17568   3 ;     C3-    C7-    C5-    C9
     3      7      5     22      9     0.00   0.54392   3 ;     C3-    C7-    C5-    H4
     4      5      7     14      9     0.00   0.65084   3 ;     C4-    C5-    C7-   CL4
     4      5      7     24      9     0.00   0.65084   3 ;     C4-    C5-    C7-    H6
     4      5      9     10      9     0.00   2.17568   3 ;     C4-    C5-    C9-   C10
     4      5      9     16      9     0.00   0.65084   3 ;     C4-    C5-    C9-   CL6
     4      6      3      7      9     0.00   2.17568   3 ;     C4-    C6-    C3-    C7
     4      6      3     19      9     0.00   0.54392   3 ;     C4-    C6-    C3-    H1
     4      6      3     20      9     0.00   0.54392   3 ;     C4-    C6-    C3-    H2
     4      8     10      9      9     0.00   2.17568   3 ;     C4-    C8-   C10-    C9
     4      8     10     17      9     0.00   0.65084   3 ;     C4-    C8-   C10-   CL7
     4      8     10     18      9     0.00   0.65084   3 ;     C4-    C8-   C10-   CL8
     5      4      6     13      9     0.00   0.65084   3 ;     C5-    C4-    C6-   CL3
     5      4      6     23      9     0.00   0.65084   3 ;     C5-    C4-    C6-    H5
     5      4      8     10      9     0.00   2.17568   3 ;     C5-    C4-    C8-   C10
     5      4      8     15      9     0.00   0.65084   3 ;     C5-    C4-    C8-   CL5
     5      7      3      6      9     0.00   2.17568   3 ;     C5-    C7-    C3-    C6
     5      7      3     19      9     0.00   0.54392   3 ;     C5-    C7-    C3-    H1
     5      7      3     20      9     0.00   0.54392   3 ;     C5-    C7-    C3-    H2
     5      9      2     12      9     0.00   0.00000   0 ;     C5-    C9-    C2-   CL2
     5      9     10      8      9     0.00   2.17568   3 ;     C5-    C9-   C10-    C8
     5      9     10     17      9     0.00   0.65084   3 ;     C5-    C9-   C10-   CL7
     5      9     10     18      9     0.00   0.65084   3 ;     C5-    C9-   C10-   CL8
     6      3      7     14      9     0.00   0.65084   3 ;     C6-    C3-    C7-   CL4
     6      3      7     24      9     0.00   0.65084   3 ;     C6-    C3-    C7-    H6
     6      4      5      7      9     0.00   2.17568   3 ;     C6-    C4-    C5-    C7
     6      4      5      9      9     0.00   2.17568   3 ;     C6-    C4-    C5-    C9
     6      4      5     22      9     0.00   0.54392   3 ;     C6-    C4-    C5-    H4
     6      4      8     10      9     0.00   2.17568   3 ;     C6-    C4-    C8-   C10
     6      4      8     15      9     0.00   0.65084   3 ;     C6-    C4-    C8-   CL5
     7      3      6     13      9     0.00   0.65084   3 ;     C7-    C3-    C6-   CL3
     7      3      6     23      9     0.00   0.65084   3 ;     C7-    C3-    C6-    H5
     7      5      4      8      9     0.00   2.17568   3 ;     C7-    C5-    C4-    C8
     7      5      4     21      9     0.00   0.54392   3 ;     C7-    C5-    C4-    H3
     7      5      9     10      9     0.00   2.17568   3 ;     C7-    C5-    C9-   C10
     7      5      9     16      9     0.00   0.65084   3 ;     C7-    C5-    C9-   CL6
     8      1      2      9      9     0.00   0.62760   1 ;     C8-    C1-    C2-    C9
     8      1      2      9      9   180.00   5.56472   3 ;     C8-    C1-    C2-    C9
     8      1      2      9      9   180.00  24.18352   2 ;     C8-    C1-    C2-    C9
     8      1      2     12      9   180.00  27.82360   2 ;     C8-    C1-    C2-   CL2
     8      4      5      9      9     0.00   2.17568   3 ;     C8-    C4-    C5-    C9
     8      4      5     22      9     0.00   0.54392   3 ;     C8-    C4-    C5-    H4
     8      4      6     13      9     0.00   0.65084   3 ;     C8-    C4-    C6-   CL3
     8      4      6     23      9     0.00   0.65084   3 ;     C8-    C4-    C6-    H5
     8     10      9     16      9     0.00   0.65084   3 ;     C8-   C10-    C9-   CL6
     9      5      4     21      9     0.00   0.54392   3 ;     C9-    C5-    C4-    H3
     9      5      7     14      9     0.00   0.65084   3 ;     C9-    C5-    C7-   CL4
     9      5      7     24      9     0.00   0.65084   3 ;     C9-    C5-    C7-    H6
     9     10      8     15      9     0.00   0.65084   3 ;     C9-   C10-    C8-   CL5
    10      8      4     21      9     0.00   0.54392   3 ;    C10-    C8-    C4-    H3
    10      9      2     12      9     0.00   0.00000   0 ;    C10-    C9-    C2-   CL2
    10      9      5     22      9     0.00   0.54392   3 ;    C10-    C9-    C5-    H4
    11      1      2      9      9   180.00  27.82360   2 ;    CL1-    C1-    C2-    C9
    11      1      2     12      9   180.00  27.82360   2 ;    CL1-    C1-    C2-   CL2
    11      1      8      4      9     0.00   0.00000   0 ;    CL1-    C1-    C8-    C4
    11      1      8     10      9     0.00   0.00000   0 ;    CL1-    C1-    C8-   C10
    11      1      8     15      9     0.00   0.00000   0 ;    CL1-    C1-    C8-   CL5
    12      2      9     16      9     0.00   0.00000   0 ;    CL2-    C2-    C9-   CL6
    13      6      3     19      9     0.00   0.75312   3 ;    CL3-    C6-    C3-    H1
    13      6      3     20      9     0.00   0.75312   3 ;    CL3-    C6-    C3-    H2
    13      6      4     21      9     0.00   0.75312   3 ;    CL3-    C6-    C4-    H3
    14      7      3     19      9     0.00   0.75312   3 ;    CL4-    C7-    C3-    H1
    14      7      3     20      9     0.00   0.75312   3 ;    CL4-    C7-    C3-    H2
    14      7      5     22      9     0.00   0.75312   3 ;    CL4-    C7-    C5-    H4
    15      8      4     21      9     0.00   0.75312   3 ;    CL5-    C8-    C4-    H3
    15      8     10     17      9     0.00   5.94128   3 ;    CL5-    C8-   C10-   CL7
    15      8     10     18      9     0.00   5.94128   3 ;    CL5-    C8-   C10-   CL8
    16      9      5     22      9     0.00   0.75312   3 ;    CL6-    C9-    C5-    H4
    16      9     10     17      9     0.00   5.94128   3 ;    CL6-    C9-   C10-   CL7
    16      9     10     18      9     0.00   5.94128   3 ;    CL6-    C9-   C10-   CL8
    19      3      6     23      9     0.00   0.65084   3 ;     H1-    C3-    C6-    H5
    19      3      7     24      9     0.00   0.65084   3 ;     H1-    C3-    C7-    H6
    20      3      6     23      9     0.00   0.65084   3 ;     H2-    C3-    C6-    H5
    20      3      7     24      9     0.00   0.65084   3 ;     H2-    C3-    C7-    H6
    21      4      5     22      9     0.00   0.50208   3 ;     H3-    C4-    C5-    H4
    21      4      6     23      9     0.00   0.65084   3 ;     H3-    C4-    C6-    H5
    22      5      7     24      9     0.00   0.65084   3 ;     H4-    C5-    C7-    H6

[ dihedrals ] ; impropers
; treated as propers in GROMACS to use correct AMBER analytical function
;    i      j      k      l   func   phase     kd      pn
     1      9      2     12      4   180.00   4.60240   2 ;     C1-    C9-    C2-   CL2
    11      1      8      2      4   180.00   4.60240   2 ;    CL1-    C1-    C8-    C2
