; mobley_1592519_GMX.itp created by acpype (v: 2023.10.27) on Thu May 21 00:20:48 2026

[ atomtypes ]
;name   bond_type     mass     charge   ptype   sigma         epsilon       Amb
 c        c           0.00000  0.00000   A     3.31521e-01   4.13379e-01 ; 1.86  0.0988
 c3       c3          0.00000  0.00000   A     3.39771e-01   4.51035e-01 ; 1.91  0.1078
 o        o           0.00000  0.00000   A     3.04812e-01   6.12119e-01 ; 1.71  0.1463
 os       os          0.00000  0.00000   A     3.15610e-01   3.03758e-01 ; 1.77  0.0726
 hc       hc          0.00000  0.00000   A     2.60018e-01   8.70272e-02 ; 1.46  0.0208
 h1       h1          0.00000  0.00000   A     2.42200e-01   8.70272e-02 ; 1.36  0.0208

[ moleculetype ]
;name            nrexcl
 mobley_1592519   3

[ atoms ]
;   nr  type  resi  res  atom  cgnr     charge      mass       ; qtot   bond_type
     1    c     1   MOL    C1    1     0.630099     12.01000 ; qtot 0.630
     2   c3     1   MOL    C2    2    -0.093100     12.01000 ; qtot 0.537
     3   c3     1   MOL    C3    3    -0.100100     12.01000 ; qtot 0.437
     4   c3     1   MOL    C4    4    -0.127400     12.01000 ; qtot 0.309
     5   c3     1   MOL    C5    5    -0.080400     12.01000 ; qtot 0.229
     6   c3     1   MOL    C6    6    -0.079400     12.01000 ; qtot 0.150
     7   c3     1   MOL    C7    7    -0.079400     12.01000 ; qtot 0.070
     8   c3     1   MOL    C8    8     0.138400     12.01000 ; qtot 0.209
     9    o     1   MOL    O1    9    -0.544000     16.00000 ; qtot -0.335
    10   os     1   MOL    O2   10    -0.445900     16.00000 ; qtot -0.781
    11   hc     1   MOL    H1   11     0.033700      1.00800 ; qtot -0.748
    12   hc     1   MOL    H2   12     0.033700      1.00800 ; qtot -0.714
    13   hc     1   MOL    H3   13     0.033700      1.00800 ; qtot -0.680
    14   hc     1   MOL    H4   14     0.047367      1.00800 ; qtot -0.633
    15   hc     1   MOL    H5   15     0.047367      1.00800 ; qtot -0.585
    16   hc     1   MOL    H6   16     0.047367      1.00800 ; qtot -0.538
    17   hc     1   MOL    H7   17     0.077700      1.00800 ; qtot -0.460
    18   hc     1   MOL    H8   18     0.077700      1.00800 ; qtot -0.383
    19   hc     1   MOL    H9   19     0.041700      1.00800 ; qtot -0.341
    20   hc     1   MOL   H10   20     0.041700      1.00800 ; qtot -0.299
    21   hc     1   MOL   H11   21     0.057700      1.00800 ; qtot -0.241
    22   hc     1   MOL   H12   22     0.057700      1.00800 ; qtot -0.184
    23   hc     1   MOL   H13   23     0.040700      1.00800 ; qtot -0.143
    24   hc     1   MOL   H14   24     0.040700      1.00800 ; qtot -0.102
    25   h1     1   MOL   H15   25     0.051200      1.00800 ; qtot -0.051
    26   h1     1   MOL   H16   26     0.051200      1.00800 ; qtot 0.000

[ bonds ]
;   ai     aj funct   r             k
     1      4   1    1.5270e-01    1.9652e+05 ;     C1 - C4    
     1      9   1    1.2190e-01    4.9421e+05 ;     C1 - O1    
     1     10   1    1.3621e-01    2.9398e+05 ;     C1 - O2    
     2      5   1    1.5354e-01    1.9154e+05 ;     C2 - C5    
     2     11   1    1.0962e-01    2.8891e+05 ;     C2 - H1    
     2     12   1    1.0962e-01    2.8891e+05 ;     C2 - H2    
     2     13   1    1.0962e-01    2.8891e+05 ;     C2 - H3    
     3      8   1    1.5354e-01    1.9154e+05 ;     C3 - C8    
     3     14   1    1.0962e-01    2.8891e+05 ;     C3 - H4    
     3     15   1    1.0962e-01    2.8891e+05 ;     C3 - H5    
     3     16   1    1.0962e-01    2.8891e+05 ;     C3 - H6    
     4      6   1    1.5354e-01    1.9154e+05 ;     C4 - C6    
     4     17   1    1.0962e-01    2.8891e+05 ;     C4 - H7    
     4     18   1    1.0962e-01    2.8891e+05 ;     C4 - H8    
     5      7   1    1.5354e-01    1.9154e+05 ;     C5 - C7    
     5     19   1    1.0962e-01    2.8891e+05 ;     C5 - H9    
     5     20   1    1.0962e-01    2.8891e+05 ;     C5 - H10   
     6      7   1    1.5354e-01    1.9154e+05 ;     C6 - C7    
     6     21   1    1.0962e-01    2.8891e+05 ;     C6 - H11   
     6     22   1    1.0962e-01    2.8891e+05 ;     C6 - H12   
     7     23   1    1.0962e-01    2.8891e+05 ;     C7 - H13   
     7     24   1    1.0962e-01    2.8891e+05 ;     C7 - H14   
     8     10   1    1.4273e-01    2.3620e+05 ;     C8 - O2    
     8     25   1    1.0969e-01    2.8804e+05 ;     C8 - H15   
     8     26   1    1.0969e-01    2.8804e+05 ;     C8 - H16   

[ pairs ]
;   ai     aj    funct
     1      3      1 ;     C1 - C3    
     1      7      1 ;     C1 - C7    
     1     21      1 ;     C1 - H11   
     1     22      1 ;     C1 - H12   
     1     25      1 ;     C1 - H15   
     1     26      1 ;     C1 - H16   
     2      6      1 ;     C2 - C6    
     2     23      1 ;     C2 - H13   
     2     24      1 ;     C2 - H14   
     4      5      1 ;     C4 - C5    
     4      8      1 ;     C4 - C8    
     4     23      1 ;     C4 - H13   
     4     24      1 ;     C4 - H14   
     5     21      1 ;     C5 - H11   
     5     22      1 ;     C5 - H12   
     6     19      1 ;     C6 - H9    
     6     20      1 ;     C6 - H10   
     7     11      1 ;     C7 - H1    
     7     12      1 ;     C7 - H2    
     7     13      1 ;     C7 - H3    
     7     17      1 ;     C7 - H7    
     7     18      1 ;     C7 - H8    
     9      6      1 ;     O1 - C6    
     9      8      1 ;     O1 - C8    
     9     17      1 ;     O1 - H7    
     9     18      1 ;     O1 - H8    
    10      6      1 ;     O2 - C6    
    10     14      1 ;     O2 - H4    
    10     15      1 ;     O2 - H5    
    10     16      1 ;     O2 - H6    
    10     17      1 ;     O2 - H7    
    10     18      1 ;     O2 - H8    
    11     19      1 ;     H1 - H9    
    11     20      1 ;     H1 - H10   
    12     19      1 ;     H2 - H9    
    12     20      1 ;     H2 - H10   
    13     19      1 ;     H3 - H9    
    13     20      1 ;     H3 - H10   
    14     25      1 ;     H4 - H15   
    14     26      1 ;     H4 - H16   
    15     25      1 ;     H5 - H15   
    15     26      1 ;     H5 - H16   
    16     25      1 ;     H6 - H15   
    16     26      1 ;     H6 - H16   
    17     21      1 ;     H7 - H11   
    17     22      1 ;     H7 - H12   
    18     21      1 ;     H8 - H11   
    18     22      1 ;     H8 - H12   
    19     23      1 ;     H9 - H13   
    19     24      1 ;     H9 - H14   
    20     23      1 ;    H10 - H13   
    20     24      1 ;    H10 - H14   
    21     23      1 ;    H11 - H13   
    21     24      1 ;    H11 - H14   
    22     23      1 ;    H12 - H13   
    22     24      1 ;    H12 - H14   

[ angles ]
;   ai     aj     ak    funct   theta         cth
     1      4      6      1    1.1143e+02    5.0509e+02 ;     C1 - C4     - C6    
     1      4     17      1    1.0895e+02    3.6510e+02 ;     C1 - C4     - H7    
     1      4     18      1    1.0895e+02    3.6510e+02 ;     C1 - C4     - H8    
     1     10      8      1    1.1582e+02    7.4835e+02 ;     C1 - O2     - C8    
     2      5      7      1    1.1263e+02    5.0099e+02 ;     C2 - C5     - C7    
     2      5     19      1    1.0968e+02    3.6208e+02 ;     C2 - C5     - H9    
     2      5     20      1    1.0968e+02    3.6208e+02 ;     C2 - C5     - H10   
     3      8     10      1    1.0762e+02    6.4802e+02 ;     C3 - C8     - O2    
     3      8     25      1    1.0959e+02    3.6217e+02 ;     C3 - C8     - H15   
     3      8     26      1    1.0959e+02    3.6217e+02 ;     C3 - C8     - H16   
     4      1      9      1    1.2290e+02    6.3973e+02 ;     C4 - C1     - O1    
     4      1     10      1    1.1080e+02    6.5245e+02 ;     C4 - C1     - O2    
     4      6      7      1    1.1263e+02    5.0099e+02 ;     C4 - C6     - C7    
     4      6     21      1    1.0968e+02    3.6208e+02 ;     C4 - C6     - H11   
     4      6     22      1    1.0968e+02    3.6208e+02 ;     C4 - C6     - H12   
     5      2     11      1    1.0968e+02    3.6208e+02 ;     C5 - C2     - H1    
     5      2     12      1    1.0968e+02    3.6208e+02 ;     C5 - C2     - H2    
     5      2     13      1    1.0968e+02    3.6208e+02 ;     C5 - C2     - H3    
     5      7      6      1    1.1263e+02    5.0099e+02 ;     C5 - C7     - C6    
     5      7     23      1    1.0968e+02    3.6208e+02 ;     C5 - C7     - H13   
     5      7     24      1    1.0968e+02    3.6208e+02 ;     C5 - C7     - H14   
     6      4     17      1    1.0968e+02    3.6208e+02 ;     C6 - C4     - H7    
     6      4     18      1    1.0968e+02    3.6208e+02 ;     C6 - C4     - H8    
     6      7     23      1    1.0968e+02    3.6208e+02 ;     C6 - C7     - H13   
     6      7     24      1    1.0968e+02    3.6208e+02 ;     C6 - C7     - H14   
     7      5     19      1    1.0968e+02    3.6208e+02 ;     C7 - C5     - H9    
     7      5     20      1    1.0968e+02    3.6208e+02 ;     C7 - C5     - H10   
     7      6     21      1    1.0968e+02    3.6208e+02 ;     C7 - C6     - H11   
     7      6     22      1    1.0968e+02    3.6208e+02 ;     C7 - C6     - H12   
     8      3     14      1    1.0968e+02    3.6208e+02 ;     C8 - C3     - H4    
     8      3     15      1    1.0968e+02    3.6208e+02 ;     C8 - C3     - H5    
     8      3     16      1    1.0968e+02    3.6208e+02 ;     C8 - C3     - H6    
     9      1     10      1    1.2320e+02    8.4734e+02 ;     O1 - C1     - O2    
    10      8     25      1    1.1034e+02    4.7028e+02 ;     O2 - C8     - H15   
    10      8     26      1    1.1034e+02    4.7028e+02 ;     O2 - C8     - H16   
    11      2     12      1    1.0773e+02    2.9957e+02 ;     H1 - C2     - H2    
    11      2     13      1    1.0773e+02    2.9957e+02 ;     H1 - C2     - H3    
    12      2     13      1    1.0773e+02    2.9957e+02 ;     H2 - C2     - H3    
    14      3     15      1    1.0773e+02    2.9957e+02 ;     H4 - C3     - H5    
    14      3     16      1    1.0773e+02    2.9957e+02 ;     H4 - C3     - H6    
    15      3     16      1    1.0773e+02    2.9957e+02 ;     H5 - C3     - H6    
    17      4     18      1    1.0773e+02    2.9957e+02 ;     H7 - C4     - H8    
    19      5     20      1    1.0773e+02    2.9957e+02 ;     H9 - C5     - H10   
    21      6     22      1    1.0773e+02    2.9957e+02 ;    H11 - C6     - H12   
    23      7     24      1    1.0773e+02    2.9957e+02 ;    H13 - C7     - H14   
    25      8     26      1    1.0855e+02    2.9824e+02 ;    H15 - C8     - H16   

[ dihedrals ] ; propers
; for gromacs 4.5 or higher, using funct 9
;    i      j      k      l   func   phase     kd      pn
     1      4      6      7      9     0.00   0.00000   0 ;     C1-    C4-    C6-    C7
     1      4      6      7      9     0.00   0.16736   2 ;     C1-    C4-    C6-    C7
     1      4      6      7      9   180.00   1.92464   1 ;     C1-    C4-    C6-    C7
     1      4      6     21      9     0.00   0.65084   3 ;     C1-    C4-    C6-   H11
     1      4      6     22      9     0.00   0.65084   3 ;     C1-    C4-    C6-   H12
     1     10      8      3      9     0.00   1.60247   3 ;     C1-    O2-    C8-    C3
     1     10      8      3      9   180.00   3.34720   1 ;     C1-    O2-    C8-    C3
     1     10      8     25      9     0.00   1.60387   3 ;     C1-    O2-    C8-   H15
     1     10      8     26      9     0.00   1.60387   3 ;     C1-    O2-    C8-   H16
     2      5      7      6      9     0.00   2.17568   3 ;     C2-    C5-    C7-    C6
     2      5      7     23      9     0.00   0.54392   3 ;     C2-    C5-    C7-   H13
     2      5      7     24      9     0.00   0.54392   3 ;     C2-    C5-    C7-   H14
     4      1     10      8      9     0.00   3.13800   3 ;     C4-    C1-    O2-    C8
     4      1     10      8      9   180.00   7.90776   1 ;     C4-    C1-    O2-    C8
     4      1     10      8      9   180.00  13.76536   2 ;     C4-    C1-    O2-    C8
     4      6      7      5      9     0.00   2.17568   3 ;     C4-    C6-    C7-    C5
     4      6      7     23      9     0.00   0.54392   3 ;     C4-    C6-    C7-   H13
     4      6      7     24      9     0.00   0.54392   3 ;     C4-    C6-    C7-   H14
     5      7      6     21      9     0.00   0.54392   3 ;     C5-    C7-    C6-   H11
     5      7      6     22      9     0.00   0.54392   3 ;     C5-    C7-    C6-   H12
     6      7      5     19      9     0.00   0.54392   3 ;     C6-    C7-    C5-    H9
     6      7      5     20      9     0.00   0.54392   3 ;     C6-    C7-    C5-   H10
     7      5      2     11      9     0.00   0.54392   3 ;     C7-    C5-    C2-    H1
     7      5      2     12      9     0.00   0.54392   3 ;     C7-    C5-    C2-    H2
     7      5      2     13      9     0.00   0.54392   3 ;     C7-    C5-    C2-    H3
     7      6      4     17      9     0.00   0.54392   3 ;     C7-    C6-    C4-    H7
     7      6      4     18      9     0.00   0.54392   3 ;     C7-    C6-    C4-    H8
     9      1      4      6      9     0.00   2.84512   1 ;     O1-    C1-    C4-    C6
     9      1      4      6      9   180.00   0.83680   2 ;     O1-    C1-    C4-    C6
     9      1      4      6      9   180.00   1.84096   3 ;     O1-    C1-    C4-    C6
     9      1      4     17      9     0.00  16.86152   1 ;     O1-    C1-    C4-    H7
     9      1      4     17      9   180.00  15.31344   2 ;     O1-    C1-    C4-    H7
     9      1      4     18      9     0.00  16.86152   1 ;     O1-    C1-    C4-    H8
     9      1      4     18      9   180.00  15.31344   2 ;     O1-    C1-    C4-    H8
     9      1     10      8      9   180.00   5.85760   1 ;     O1-    C1-    O2-    C8
     9      1     10      8      9   180.00  11.29680   2 ;     O1-    C1-    O2-    C8
    10      1      4      6      9   180.00   0.00000   2 ;     O2-    C1-    C4-    C6
    10      1      4     17      9   180.00   0.00000   2 ;     O2-    C1-    C4-    H7
    10      1      4     18      9   180.00   0.00000   2 ;     O2-    C1-    C4-    H8
    10      8      3     14      9     0.00   0.00000   0 ;     O2-    C8-    C3-    H4
    10      8      3     14      9     0.00   1.04600   1 ;     O2-    C8-    C3-    H4
    10      8      3     15      9     0.00   0.00000   0 ;     O2-    C8-    C3-    H5
    10      8      3     15      9     0.00   1.04600   1 ;     O2-    C8-    C3-    H5
    10      8      3     16      9     0.00   0.00000   0 ;     O2-    C8-    C3-    H6
    10      8      3     16      9     0.00   1.04600   1 ;     O2-    C8-    C3-    H6
    11      2      5     19      9     0.00   0.50208   3 ;     H1-    C2-    C5-    H9
    11      2      5     20      9     0.00   0.50208   3 ;     H1-    C2-    C5-   H10
    12      2      5     19      9     0.00   0.50208   3 ;     H2-    C2-    C5-    H9
    12      2      5     20      9     0.00   0.50208   3 ;     H2-    C2-    C5-   H10
    13      2      5     19      9     0.00   0.50208   3 ;     H3-    C2-    C5-    H9
    13      2      5     20      9     0.00   0.50208   3 ;     H3-    C2-    C5-   H10
    14      3      8     25      9     0.00   0.65084   3 ;     H4-    C3-    C8-   H15
    14      3      8     26      9     0.00   0.65084   3 ;     H4-    C3-    C8-   H16
    15      3      8     25      9     0.00   0.65084   3 ;     H5-    C3-    C8-   H15
    15      3      8     26      9     0.00   0.65084   3 ;     H5-    C3-    C8-   H16
    16      3      8     25      9     0.00   0.65084   3 ;     H6-    C3-    C8-   H15
    16      3      8     26      9     0.00   0.65084   3 ;     H6-    C3-    C8-   H16
    17      4      6     21      9     0.00   0.50208   3 ;     H7-    C4-    C6-   H11
    17      4      6     22      9     0.00   0.50208   3 ;     H7-    C4-    C6-   H12
    18      4      6     21      9     0.00   0.50208   3 ;     H8-    C4-    C6-   H11
    18      4      6     22      9     0.00   0.50208   3 ;     H8-    C4-    C6-   H12
    19      5      7     23      9     0.00   0.50208   3 ;     H9-    C5-    C7-   H13
    19      5      7     24      9     0.00   0.50208   3 ;     H9-    C5-    C7-   H14
    20      5      7     23      9     0.00   0.50208   3 ;    H10-    C5-    C7-   H13
    20      5      7     24      9     0.00   0.50208   3 ;    H10-    C5-    C7-   H14
    21      6      7     23      9     0.00   0.50208   3 ;    H11-    C6-    C7-   H13
    21      6      7     24      9     0.00   0.50208   3 ;    H11-    C6-    C7-   H14
    22      6      7     23      9     0.00   0.50208   3 ;    H12-    C6-    C7-   H13
    22      6      7     24      9     0.00   0.50208   3 ;    H12-    C6-    C7-   H14

[ dihedrals ] ; impropers
; treated as propers in GROMACS to use correct AMBER analytical function
;    i      j      k      l   func   phase     kd      pn
    10      1      9      4      4   180.00   4.60240   2 ;     O2-    C1-    O1-    C4
