mobley_2763835_GMX.gro created by acpype (v: 2023.10.27) on Tue May 19 12:40:55 2026
 2392
    1MOL     C1    1   2.420   2.347   2.107
    1MOL     C2    2   2.313   2.407   2.174
    1MOL     C3    3   2.525   2.291   2.179
    1MOL     C4    4   2.311   2.410   2.314
    1MOL     C5    5   2.523   2.294   2.319
    1MOL     C6    6   2.416   2.353   2.386
    1MOL     C7    7   2.413   2.495   2.718
    1MOL     C8    8   2.348   2.466   2.584
    1MOL     O1    9   2.414   2.356   2.522
    1MOL     H1   10   2.421   2.345   1.998
    1MOL     H2   11   2.231   2.451   2.118
    1MOL     H3   12   2.608   2.244   2.127
    1MOL     H4   13   2.228   2.457   2.366
    1MOL     H5   14   2.605   2.249   2.375
    1MOL     H6   15   2.364   2.579   2.768
    1MOL     H7   16   2.407   2.406   2.782
    1MOL     H8   17   2.519   2.518   2.705
    1MOL     H9   18   2.355   2.553   2.518
    1MOL    H10   19   2.242   2.441   2.597
   14SOL     OW   20   1.460   1.505   1.339
   14SOL    HW1   21   1.484   1.599   1.365
   14SOL    HW2   22   1.444   1.451   1.421
   35SOL     OW   23   1.187   1.792   1.616
   35SOL    HW1   24   1.211   1.852   1.540
   35SOL    HW2   25   1.194   1.697   1.586
   56SOL     OW   26   1.227   1.550   1.506
   56SOL    HW1   27   1.233   1.473   1.570
   56SOL    HW2   28   1.175   1.524   1.426
   95SOL     OW   29   1.754   1.223   1.588
   95SOL    HW1   30   1.845   1.184   1.575
   95SOL    HW2   31   1.762   1.319   1.612
   97SOL     OW   32   1.592   1.629   1.625
   97SOL    HW1   33   1.619   1.663   1.535
   97SOL    HW2   34   1.671   1.591   1.671
  122SOL     OW   35   1.728   0.935   1.854
  122SOL    HW1   36   1.682   0.928   1.765
  122SOL    HW2   37   1.666   0.979   1.920
  126SOL     OW   38   0.980   1.573   1.700
  126SOL    HW1   39   0.960   1.617   1.612
  126SOL    HW2   40   1.019   1.482   1.684
  127SOL     OW   41   1.859   1.518   1.605
  127SOL    HW1   42   1.873   1.545   1.510
  127SOL    HW2   43   1.942   1.540   1.658
  152SOL     OW   44   1.759   1.747   1.154
  152SOL    HW1   45   1.820   1.777   1.081
  152SOL    HW2   46   1.721   1.658   1.132
  163SOL     OW   47   1.650   1.720   1.394
  163SOL    HW1   48   1.703   1.730   1.310
  163SOL    HW2   49   1.623   1.810   1.428
  171SOL     OW   50   1.614   1.292   1.289
  171SOL    HW1   51   1.674   1.295   1.369
  171SOL    HW2   52   1.539   1.356   1.302
  186SOL     OW   53   1.450   1.220   1.633
  186SOL    HW1   54   1.441   1.210   1.732
  186SOL    HW2   55   1.546   1.213   1.607
  203SOL     OW   56   1.705   1.487   1.104
  203SOL    HW1   57   1.612   1.462   1.077
  203SOL    HW2   58   1.731   1.437   1.186
  219SOL     OW   59   1.555   1.511   2.565
  219SOL    HW1   60   1.498   1.495   2.646
  219SOL    HW2   61   1.496   1.521   2.485
  227SOL     OW   62   1.460   1.505   3.201
  227SOL    HW1   63   1.484   1.599   3.227
  227SOL    HW2   64   1.444   1.451   3.283
  238SOL     OW   65   1.842   1.767   2.221
  238SOL    HW1   66   1.896   1.738   2.301
  238SOL    HW2   67   1.872   1.857   2.192
  240SOL     OW   68   1.689   0.922   2.474
  240SOL    HW1   69   1.784   0.893   2.482
  240SOL    HW2   70   1.681   0.987   2.399
  241SOL     OW   71   1.641   1.108   2.294
  241SOL    HW1   72   1.727   1.110   2.242
  241SOL    HW2   73   1.655   1.155   2.382
  247SOL     OW   74   1.525   0.999   2.052
  247SOL    HW1   75   1.462   0.923   2.065
  247SOL    HW2   76   1.573   1.017   2.138
  248SOL     OW   77   1.187   1.792   3.478
  248SOL    HW1   78   1.211   1.852   3.402
  248SOL    HW2   79   1.194   1.697   3.448
  250SOL     OW   80   1.466   1.417   2.815
  250SOL    HW1   81   1.407   1.423   2.895
  250SOL    HW2   82   1.451   1.329   2.769
  251SOL     OW   83   1.667   1.714   2.434
  251SOL    HW1   84   1.626   1.691   2.346
  251SOL    HW2   85   1.649   1.640   2.499
  254SOL     OW   86   1.576   1.662   2.169
  254SOL    HW1   87   1.665   1.708   2.172
  254SOL    HW2   88   1.555   1.638   2.074
  264SOL     OW   89   1.362   1.144   2.407
  264SOL    HW1   90   1.445   1.115   2.359
  264SOL    HW2   91   1.313   1.211   2.351
  266SOL     OW   92   1.008   1.456   2.339
  266SOL    HW1   93   0.962   1.528   2.287
  266SOL    HW2   94   1.004   1.476   2.437
  268SOL     OW   95   1.795   1.066   2.735
  268SOL    HW1   96   1.733   1.051   2.659
  268SOL    HW2   97   1.743   1.077   2.820
  269SOL     OW   98   1.227   1.550   3.368
  269SOL    HW1   99   1.233   1.473   3.432
  269SOL    HW2  100   1.175   1.524   3.288
  273SOL     OW  101   1.111   1.776   2.099
  273SOL    HW1  102   1.051   1.714   2.149
  273SOL    HW2  103   1.142   1.732   2.014
  275SOL     OW  104   1.632   1.377   1.943
  275SOL    HW1  105   1.600   1.471   1.933
  275SOL    HW2  106   1.556   1.314   1.931
  279SOL     OW  107   0.940   1.698   2.766
  279SOL    HW1  108   1.020   1.641   2.787
  279SOL    HW2  109   0.891   1.658   2.689
  289SOL     OW  110   1.434   1.188   1.903
  289SOL    HW1  111   1.466   1.112   1.960
  289SOL    HW2  112   1.342   1.215   1.933
  293SOL     OW  113   1.227   1.570   2.655
  293SOL    HW1  114   1.248   1.644   2.590
  293SOL    HW2  115   1.295   1.570   2.728
  295SOL     OW  116   1.271   1.797   2.453
  295SOL    HW1  117   1.315   1.861   2.389
  295SOL    HW2  118   1.221   1.849   2.523
  301SOL     OW  119   1.429   1.173   2.729
  301SOL    HW1  120   1.374   1.089   2.722
  301SOL    HW2  121   1.455   1.202   2.637
  303SOL     OW  122   1.857   0.833   2.239
  303SOL    HW1  123   1.899   0.769   2.303
  303SOL    HW2  124   1.819   0.782   2.161
  305SOL     OW  125   1.664   1.280   2.519
  305SOL    HW1  126   1.763   1.288   2.533
  305SOL    HW2  127   1.619   1.364   2.550
  308SOL     OW  128   1.754   1.223   3.450
  308SOL    HW1  129   1.845   1.184   3.437
  308SOL    HW2  130   1.762   1.319   3.474
  310SOL     OW  131   1.592   1.629   3.487
  310SOL    HW1  132   1.619   1.663   3.397
  310SOL    HW2  133   1.671   1.591   3.533
  312SOL     OW  134   1.638   1.099   2.941
  312SOL    HW1  135   1.643   1.180   3.000
  312SOL    HW2  136   1.552   1.101   2.890
  321SOL     OW  137   1.252   1.348   2.250
  321SOL    HW1  138   1.302   1.425   2.290
  321SOL    HW2  139   1.157   1.350   2.282
  322SOL     OW  140   1.272   1.445   3.004
  322SOL    HW1  141   1.319   1.458   3.091
  322SOL    HW2  142   1.206   1.371   3.013
  340SOL     OW  143   1.859   1.518   3.467
  340SOL    HW1  144   1.873   1.545   3.372
  340SOL    HW2  145   1.942   1.540   3.520
  344SOL     OW  146   1.068   1.333   2.711
  344SOL    HW1  147   1.075   1.249   2.656
  344SOL    HW2  148   1.130   1.402   2.675
  365SOL     OW  149   1.759   1.747   3.016
  365SOL    HW1  150   1.820   1.777   2.943
  365SOL    HW2  151   1.721   1.658   2.994
  366SOL     OW  152   1.252   1.731   2.990
  366SOL    HW1  153   1.336   1.736   2.936
  366SOL    HW2  154   1.229   1.635   3.008
  370SOL     OW  155   1.388   1.573   2.339
  370SOL    HW1  156   1.455   1.585   2.265
  370SOL    HW2  157   1.348   1.662   2.362
  375SOL     OW  158   1.650   1.720   3.256
  375SOL    HW1  159   1.703   1.730   3.172
  375SOL    HW2  160   1.623   1.810   3.290
  378SOL     OW  161   1.194   1.612   1.893
  378SOL    HW1  162   1.200   1.519   1.930
  378SOL    HW2  163   1.135   1.612   1.813
  381SOL     OW  164   1.504   1.607   1.906
  381SOL    HW1  165   1.412   1.644   1.913
  381SOL    HW2  166   1.542   1.627   1.816
  383SOL     OW  167   1.614   1.292   3.151
  383SOL    HW1  168   1.674   1.295   3.231
  383SOL    HW2  169   1.539   1.356   3.164
  394SOL     OW  170   1.183   1.335   1.981
  394SOL    HW1  171   1.084   1.324   1.983
  394SOL    HW2  172   1.217   1.350   2.074
  396SOL     OW  173   1.493   1.767   2.821
  396SOL    HW1  174   1.526   1.831   2.752
  396SOL    HW2  175   1.559   1.761   2.896
  409SOL     OW  176   1.861   1.569   2.713
  409SOL    HW1  177   1.790   1.557   2.643
  409SOL    HW2  178   1.862   1.490   2.773
  415SOL     OW  179   1.705   1.487   2.966
  415SOL    HW1  180   1.612   1.462   2.939
  415SOL    HW2  181   1.731   1.437   3.048
  417SOL     OW  182   0.812   1.586   2.549
  417SOL    HW1  183   0.844   1.596   2.455
  417SOL    HW2  184   0.733   1.524   2.551
  426SOL     OW  185   0.875   1.646   2.199
  426SOL    HW1  186   0.798   1.611   2.145
  426SOL    HW2  187   0.843   1.717   2.261
  558SOL     OW  188   0.850   2.660   1.823
  558SOL    HW1  189   0.846   2.736   1.888
  558SOL    HW2  190   0.872   2.696   1.732
  562SOL     OW  191   1.460   3.367   1.339
  562SOL    HW1  192   1.484   3.461   1.365
  562SOL    HW2  193   1.444   3.313   1.421
  566SOL     OW  194   1.127   3.203   1.690
  566SOL    HW1  195   1.174   3.203   1.778
  566SOL    HW2  196   1.079   3.116   1.679
  571SOL     OW  197   1.594   1.976   1.480
  571SOL    HW1  198   1.576   2.043   1.408
  571SOL    HW2  199   1.591   2.022   1.569
  579SOL     OW  200   1.293   3.090   1.423
  579SOL    HW1  201   1.330   3.017   1.365
  579SOL    HW2  202   1.345   3.095   1.508
  591SOL     OW  203   1.394   2.331   1.674
  591SOL    HW1  204   1.374   2.374   1.762
  591SOL    HW2  205   1.472   2.269   1.683
  592SOL     OW  206   0.973   2.752   1.572
  592SOL    HW1  207   1.019   2.668   1.543
  592SOL    HW2  208   0.917   2.786   1.497
  598SOL     OW  209   1.719   2.447   1.831
  598SOL    HW1  210   1.693   2.536   1.795
  598SOL    HW2  211   1.717   2.379   1.758
  603SOL     OW  212   1.795   2.928   0.873
  603SOL    HW1  213   1.733   2.913   0.797
  603SOL    HW2  214   1.743   2.939   0.958
  604SOL     OW  215   1.227   3.412   1.506
  604SOL    HW1  216   1.233   3.335   1.570
  604SOL    HW2  217   1.175   3.386   1.426
  616SOL     OW  218   1.547   2.084   1.729
  616SOL    HW1  219   1.542   2.121   1.821
  616SOL    HW2  220   1.475   2.015   1.717
  618SOL     OW  221   0.781   2.126   1.749
  618SOL    HW1  222   0.848   2.065   1.792
  618SOL    HW2  223   0.708   2.145   1.814
  620SOL     OW  224   1.351   2.452   1.433
  620SOL    HW1  225   1.379   2.409   1.518
  620SOL    HW2  226   1.376   2.548   1.434
  626SOL     OW  227   1.076   2.545   1.464
  626SOL    HW1  228   0.996   2.484   1.467
  626SOL    HW2  229   1.157   2.492   1.440
  636SOL     OW  230   1.466   2.452   0.992
  636SOL    HW1  231   1.436   2.357   0.999
  636SOL    HW2  232   1.539   2.468   1.058
  642SOL     OW  233   1.754   3.085   1.588
  642SOL    HW1  234   1.845   3.046   1.575
  642SOL    HW2  235   1.762   3.181   1.612
  644SOL     OW  236   1.592   3.491   1.625
  644SOL    HW1  237   1.619   3.525   1.535
  644SOL    HW2  238   1.671   3.453   1.671
  646SOL     OW  239   1.638   2.961   1.079
  646SOL    HW1  240   1.643   3.042   1.138
  646SOL    HW2  241   1.552   2.963   1.028
  648SOL     OW  242   0.980   2.978   1.719
  648SOL    HW1  243   0.881   2.984   1.729
  648SOL    HW2  244   1.003   2.898   1.663
  651SOL     OW  245   1.274   2.248   1.262
  651SOL    HW1  246   1.295   2.322   1.326
  651SOL    HW2  247   1.185   2.265   1.219
  660SOL     OW  248   1.587   2.641   1.670
  660SOL    HW1  249   1.495   2.679   1.665
  660SOL    HW2  250   1.647   2.688   1.605
  661SOL     OW  251   1.013   1.967   1.770
  661SOL    HW1  252   1.019   2.052   1.718
  661SOL    HW2  253   1.045   1.891   1.713
  664SOL     OW  254   1.360   2.724   1.045
  664SOL    HW1  255   1.285   2.724   0.979
  664SOL    HW2  256   1.397   2.632   1.054
  669SOL     OW  257   1.728   2.797   1.854
  669SOL    HW1  258   1.682   2.790   1.765
  669SOL    HW2  259   1.666   2.841   1.920
  674SOL     OW  260   1.859   3.380   1.605
  674SOL    HW1  261   1.873   3.407   1.510
  674SOL    HW2  262   1.942   3.402   1.658
  681SOL     OW  263   1.138   2.242   1.678
  681SOL    HW1  264   1.093   2.305   1.742
  681SOL    HW2  265   1.231   2.273   1.661
  682SOL     OW  266   1.160   2.069   1.477
  682SOL    HW1  267   1.160   2.133   1.554
  682SOL    HW2  268   1.188   2.117   1.394
  689SOL     OW  269   1.369   2.812   1.660
  689SOL    HW1  270   1.408   2.901   1.680
  689SOL    HW2  271   1.379   2.792   1.563
  691SOL     OW  272   1.657   2.466   1.206
  691SOL    HW1  273   1.619   2.397   1.268
  691SOL    HW2  274   1.739   2.430   1.162
  697SOL     OW  275   1.347   2.921   1.234
  697SOL    HW1  276   1.371   2.858   1.160
  697SOL    HW2  277   1.257   2.961   1.216
  710SOL     OW  278   1.650   3.582   1.394
  710SOL    HW1  279   1.703   3.592   1.310
  710SOL    HW2  280   1.623   3.672   1.428
  711SOL     OW  281   1.841   2.037   0.963
  711SOL    HW1  282   1.880   1.952   0.927
  711SOL    HW2  283   1.743   2.039   0.944
  718SOL     OW  284   1.614   3.154   1.289
  718SOL    HW1  285   1.674   3.157   1.369
  718SOL    HW2  286   1.539   3.218   1.302
  722SOL     OW  287   1.709   2.247   1.381
  722SOL    HW1  288   1.782   2.316   1.385
  722SOL    HW2  289   1.737   2.172   1.322
  727SOL     OW  290   1.440   2.718   1.398
  727SOL    HW1  291   1.383   2.770   1.335
  727SOL    HW2  292   1.536   2.730   1.374
  733SOL     OW  293   1.450   3.082   1.633
  733SOL    HW1  294   1.441   3.072   1.732
  733SOL    HW2  295   1.546   3.075   1.607
  735SOL     OW  296   1.674   2.745   1.254
  735SOL    HW1  297   1.647   2.656   1.217
  735SOL    HW2  298   1.675   2.813   1.181
  738SOL     OW  299   1.777   2.204   1.642
  738SOL    HW1  300   1.760   2.235   1.548
  738SOL    HW2  301   1.693   2.167   1.680
  739SOL     OW  302   1.730   2.796   1.517
  739SOL    HW1  303   1.768   2.887   1.532
  739SOL    HW2  304   1.722   2.779   1.418
  748SOL     OW  305   1.824   2.054   1.227
  748SOL    HW1  306   1.820   1.964   1.271
  748SOL    HW2  307   1.827   2.043   1.128
  750SOL     OW  308   1.705   3.349   1.104
  750SOL    HW1  309   1.612   3.324   1.077
  750SOL    HW2  310   1.731   3.299   1.186
  753SOL     OW  311   1.424   2.076   1.112
  753SOL    HW1  312   1.476   2.011   1.167
  753SOL    HW2  313   1.375   2.139   1.173
  759SOL     OW  314   1.593   2.083   0.882
  759SOL    HW1  315   1.509   2.082   0.936
  759SOL    HW2  316   1.595   2.166   0.826
  766SOL     OW  317   1.555   3.373   2.565
  766SOL    HW1  318   1.498   3.357   2.646
  766SOL    HW2  319   1.496   3.383   2.485
  767SOL     OW  320   1.135   2.565   2.579
  767SOL    HW1  321   1.192   2.643   2.554
  767SOL    HW2  322   1.075   2.591   2.655
  768SOL     OW  323   1.755   2.469   2.093
  768SOL    HW1  324   1.743   2.456   1.994
  768SOL    HW2  325   1.725   2.388   2.142
  771SOL     OW  326   0.685   2.874   2.527
  771SOL    HW1  327   0.754   2.858   2.597
  771SOL    HW2  328   0.612   2.931   2.565
  774SOL     OW  329   1.460   3.367   3.201
  774SOL    HW1  330   1.484   3.461   3.227
  774SOL    HW2  331   1.444   3.313   3.283
  776SOL     OW  332   1.603   2.309   2.599
  776SOL    HW1  333   1.529   2.355   2.549
  776SOL    HW2  334   1.654   2.377   2.652
  783SOL     OW  335   1.594   1.976   3.342
  783SOL    HW1  336   1.576   2.043   3.270
  783SOL    HW2  337   1.591   2.022   3.431
  785SOL     OW  338   1.842   3.629   2.221
  785SOL    HW1  339   1.896   3.600   2.301
  785SOL    HW2  340   1.872   3.719   2.192
  787SOL     OW  341   1.689   2.784   2.474
  787SOL    HW1  342   1.784   2.755   2.482
  787SOL    HW2  343   1.681   2.849   2.399
  788SOL     OW  344   1.641   2.970   2.294
  788SOL    HW1  345   1.727   2.972   2.242
  788SOL    HW2  346   1.655   3.017   2.382
  791SOL     OW  347   1.293   3.090   3.285
  791SOL    HW1  348   1.330   3.017   3.227
  791SOL    HW2  349   1.345   3.095   3.370
  792SOL     OW  350   0.809   1.866   2.364
  792SOL    HW1  351   0.849   1.957   2.355
  792SOL    HW2  352   0.709   1.874   2.370
  794SOL     OW  353   1.525   2.861   2.052
  794SOL    HW1  354   1.462   2.785   2.065
  794SOL    HW2  355   1.573   2.879   2.138
  797SOL     OW  356   1.466   3.279   2.815
  797SOL    HW1  357   1.407   3.285   2.895
  797SOL    HW2  358   1.451   3.191   2.769
  798SOL     OW  359   1.667   3.576   2.434
  798SOL    HW1  360   1.626   3.553   2.346
  798SOL    HW2  361   1.649   3.502   2.499
  800SOL     OW  362   1.281   2.207   2.806
  800SOL    HW1  363   1.195   2.157   2.793
  800SOL    HW2  364   1.343   2.153   2.862
  801SOL     OW  365   1.576   3.524   2.169
  801SOL    HW1  366   1.665   3.570   2.172
  801SOL    HW2  367   1.555   3.500   2.074
  803SOL     OW  368   1.394   2.331   3.536
  803SOL    HW1  369   1.374   2.374   3.624
  803SOL    HW2  370   1.472   2.269   3.545
  804SOL     OW  371   0.973   2.752   3.434
  804SOL    HW1  372   1.019   2.668   3.405
  804SOL    HW2  373   0.917   2.786   3.359
  805SOL     OW  374   0.991   2.272   3.104
  805SOL    HW1  375   0.914   2.306   3.158
  805SOL    HW2  376   0.957   2.221   3.025
  806SOL     OW  377   1.041   2.563   2.291
  806SOL    HW1  378   1.067   2.559   2.387
  806SOL    HW2  379   0.956   2.512   2.277
  809SOL     OW  380   0.865   2.210   2.057
  809SOL    HW1  381   0.924   2.273   2.008
  809SOL    HW2  382   0.884   2.116   2.028
  810SOL     OW  383   1.719   2.447   3.693
  810SOL    HW1  384   1.693   2.536   3.657
  810SOL    HW2  385   1.717   2.379   3.620
  811SOL     OW  386   1.362   3.006   2.407
  811SOL    HW1  387   1.445   2.977   2.359
  811SOL    HW2  388   1.313   3.073   2.351
  813SOL     OW  389   1.008   3.318   2.339
  813SOL    HW1  390   0.962   3.390   2.287
  813SOL    HW2  391   1.004   3.338   2.437
  815SOL     OW  392   1.795   2.928   2.735
  815SOL    HW1  393   1.733   2.913   2.659
  815SOL    HW2  394   1.743   2.939   2.820
  818SOL     OW  395   1.458   2.597   2.590
  818SOL    HW1  396   1.453   2.532   2.665
  818SOL    HW2  397   1.538   2.656   2.603
  822SOL     OW  398   1.632   3.239   1.943
  822SOL    HW1  399   1.600   3.333   1.933
  822SOL    HW2  400   1.556   3.176   1.931
  824SOL     OW  401   1.400   1.969   2.288
  824SOL    HW1  402   1.376   1.932   2.198
  824SOL    HW2  403   1.499   1.985   2.292
  828SOL     OW  404   1.547   2.084   3.591
  828SOL    HW1  405   1.542   2.121   3.683
  828SOL    HW2  406   1.475   2.015   3.579
  832SOL     OW  407   1.351   2.452   3.295
  832SOL    HW1  408   1.379   2.409   3.380
  832SOL    HW2  409   1.376   2.548   3.296
  834SOL     OW  410   0.922   2.365   2.761
  834SOL    HW1  411   0.897   2.356   2.665
  834SOL    HW2  412   0.970   2.283   2.792
  836SOL     OW  413   1.434   3.050   1.903
  836SOL    HW1  414   1.466   2.974   1.960
  836SOL    HW2  415   1.342   3.077   1.933
  838SOL     OW  416   0.935   2.098   2.342
  838SOL    HW1  417   0.887   2.139   2.264
  838SOL    HW2  418   1.034   2.096   2.323
  839SOL     OW  419   1.076   2.545   3.326
  839SOL    HW1  420   0.996   2.484   3.329
  839SOL    HW2  421   1.157   2.492   3.302
  840SOL     OW  422   1.227   3.432   2.655
  840SOL    HW1  423   1.248   3.506   2.590
  840SOL    HW2  424   1.295   3.432   2.728
  842SOL     OW  425   1.271   3.659   2.453
  842SOL    HW1  426   1.315   3.723   2.389
  842SOL    HW2  427   1.221   3.711   2.523
  843SOL     OW  428   1.032   2.411   1.878
  843SOL    HW1  429   0.991   2.493   1.839
  843SOL    HW2  430   1.096   2.437   1.951
  846SOL     OW  431   0.866   2.316   2.504
  846SOL    HW1  432   0.834   2.388   2.442
  846SOL    HW2  433   0.890   2.235   2.451
  847SOL     OW  434   1.017   1.901   2.615
  847SOL    HW1  435   0.945   1.906   2.546
  847SOL    HW2  436   0.993   1.832   2.684
  848SOL     OW  437   1.429   3.035   2.729
  848SOL    HW1  438   1.374   2.951   2.722
  848SOL    HW2  439   1.455   3.064   2.637
  849SOL     OW  440   1.466   2.452   2.854
  849SOL    HW1  441   1.436   2.357   2.861
  849SOL    HW2  442   1.539   2.468   2.920
  850SOL     OW  443   1.857   2.695   2.239
  850SOL    HW1  444   1.899   2.631   2.303
  850SOL    HW2  445   1.819   2.644   2.161
  852SOL     OW  446   1.664   3.142   2.519
  852SOL    HW1  447   1.763   3.150   2.533
  852SOL    HW2  448   1.619   3.226   2.550
  853SOL     OW  449   1.390   2.437   1.940
  853SOL    HW1  450   1.336   2.416   2.021
  853SOL    HW2  451   1.481   2.396   1.949
  855SOL     OW  452   1.754   3.085   3.450
  855SOL    HW1  453   1.845   3.046   3.437
  855SOL    HW2  454   1.762   3.181   3.474
  856SOL     OW  455   1.064   3.209   3.202
  856SOL    HW1  456   0.984   3.186   3.257
  856SOL    HW2  457   1.147   3.183   3.251
  857SOL     OW  458   1.592   3.491   3.487
  857SOL    HW1  459   1.619   3.525   3.397
  857SOL    HW2  460   1.671   3.453   3.533
  858SOL     OW  461   1.111   3.057   2.962
  858SOL    HW1  462   1.071   3.101   3.043
  858SOL    HW2  463   1.070   3.094   2.879
  859SOL     OW  464   1.638   2.961   2.941
  859SOL    HW1  465   1.643   3.042   3.000
  859SOL    HW2  466   1.552   2.963   2.890
  860SOL     OW  467   0.915   1.951   3.264
  860SOL    HW1  468   0.940   1.931   3.169
  860SOL    HW2  469   0.987   2.007   3.306
  862SOL     OW  470   0.705   2.912   2.230
  862SOL    HW1  471   0.691   2.919   2.329
  862SOL    HW2  472   0.789   2.861   2.212
  864SOL     OW  473   1.274   2.248   3.124
  864SOL    HW1  474   1.295   2.322   3.188
  864SOL    HW2  475   1.185   2.265   3.081
  868SOL     OW  476   1.252   3.210   2.250
  868SOL    HW1  477   1.302   3.287   2.290
  868SOL    HW2  478   1.157   3.212   2.282
  869SOL     OW  479   1.272   3.307   3.004
  869SOL    HW1  480   1.319   3.320   3.091
  869SOL    HW2  481   1.206   3.233   3.013
  870SOL     OW  482   1.582   2.501   2.334
  870SOL    HW1  483   1.551   2.562   2.407
  870SOL    HW2  484   1.632   2.553   2.265
  873SOL     OW  485   1.587   2.641   3.532
  873SOL    HW1  486   1.495   2.679   3.527
  873SOL    HW2  487   1.647   2.688   3.467
  877SOL     OW  488   1.360   2.724   2.907
  877SOL    HW1  489   1.285   2.724   2.841
  877SOL    HW2  490   1.397   2.632   2.916
  878SOL     OW  491   1.209   2.387   2.137
  878SOL    HW1  492   1.222   2.303   2.191
  878SOL    HW2  493   1.180   2.461   2.197
  881SOL     OW  494   0.732   2.496   2.926
  881SOL    HW1  495   0.791   2.470   2.850
  881SOL    HW2  496   0.704   2.592   2.915
  882SOL     OW  497   1.728   2.797   3.716
  882SOL    HW1  498   1.682   2.790   3.627
  882SOL    HW2  499   1.666   2.841   3.782
  884SOL     OW  500   1.622   2.229   2.236
  884SOL    HW1  501   1.624   2.153   2.300
  884SOL    HW2  502   1.574   2.306   2.276
  885SOL     OW  503   1.023   2.628   2.828
  885SOL    HW1  504   1.038   2.649   2.924
  885SOL    HW2  505   0.993   2.533   2.819
  887SOL     OW  506   1.859   3.380   3.467
  887SOL    HW1  507   1.873   3.407   3.372
  887SOL    HW2  508   1.942   3.402   3.520
  889SOL     OW  509   1.540   2.136   1.987
  889SOL    HW1  510   1.479   2.061   2.010
  889SOL    HW2  511   1.562   2.188   2.070
  890SOL     OW  512   1.303   2.700   1.904
  890SOL    HW1  513   1.337   2.607   1.919
  890SOL    HW2  514   1.321   2.727   1.809
  891SOL     OW  515   1.068   3.195   2.711
  891SOL    HW1  516   1.075   3.111   2.656
  891SOL    HW2  517   1.130   3.264   2.675
  894SOL     OW  518   1.138   2.242   3.540
  894SOL    HW1  519   1.093   2.305   3.604
  894SOL    HW2  520   1.231   2.273   3.523
  895SOL     OW  521   1.160   2.069   3.339
  895SOL    HW1  522   1.160   2.133   3.416
  895SOL    HW2  523   1.188   2.117   3.256
  899SOL     OW  524   1.002   2.658   3.100
  899SOL    HW1  525   1.043   2.626   3.186
  899SOL    HW2  526   0.906   2.631   3.097
  902SOL     OW  527   1.369   2.812   3.522
  902SOL    HW1  528   1.408   2.901   3.542
  902SOL    HW2  529   1.379   2.792   3.425
  903SOL     OW  530   0.815   2.434   2.187
  903SOL    HW1  531   0.822   2.345   2.141
  903SOL    HW2  532   0.721   2.468   2.179
  904SOL     OW  533   1.657   2.466   3.068
  904SOL    HW1  534   1.619   2.397   3.130
  904SOL    HW2  535   1.739   2.430   3.024
  910SOL     OW  536   1.347   2.921   3.096
  910SOL    HW1  537   1.371   2.858   3.022
  910SOL    HW2  538   1.257   2.961   3.078
  911SOL     OW  539   1.302   2.717   2.171
  911SOL    HW1  540   1.216   2.686   2.213
  911SOL    HW2  541   1.298   2.703   2.072
  912SOL     OW  542   1.759   3.609   3.016
  912SOL    HW1  543   1.820   3.639   2.943
  912SOL    HW2  544   1.721   3.520   2.994
  913SOL     OW  545   1.252   3.593   2.990
  913SOL    HW1  546   1.336   3.598   2.936
  913SOL    HW2  547   1.229   3.497   3.008
  916SOL     OW  548   1.726   1.997   2.385
  916SOL    HW1  549   1.799   1.980   2.318
  916SOL    HW2  550   1.695   1.910   2.423
  917SOL     OW  551   1.388   3.435   2.339
  917SOL    HW1  552   1.455   3.447   2.265
  917SOL    HW2  553   1.348   3.524   2.362
  919SOL     OW  554   1.280   2.789   2.534
  919SOL    HW1  555   1.340   2.708   2.536
  919SOL    HW2  556   1.320   2.858   2.474
  922SOL     OW  557   1.650   3.582   3.256
  922SOL    HW1  558   1.703   3.592   3.172
  922SOL    HW2  559   1.623   3.672   3.290
  923SOL     OW  560   1.841   2.037   2.825
  923SOL    HW1  561   1.880   1.952   2.789
  923SOL    HW2  562   1.743   2.039   2.806
  925SOL     OW  563   1.194   3.474   1.893
  925SOL    HW1  564   1.200   3.381   1.930
  925SOL    HW2  565   1.135   3.474   1.813
  927SOL     OW  566   0.916   2.772   2.153
  927SOL    HW1  567   0.979   2.810   2.085
  927SOL    HW2  568   0.956   2.689   2.192
  928SOL     OW  569   1.504   3.469   1.906
  928SOL    HW1  570   1.412   3.506   1.913
  928SOL    HW2  571   1.542   3.489   1.816
  930SOL     OW  572   1.614   3.154   3.151
  930SOL    HW1  573   1.674   3.157   3.231
  930SOL    HW2  574   1.539   3.218   3.164
  931SOL     OW  575   1.039   2.960   2.558
  931SOL    HW1  576   0.969   2.913   2.612
  931SOL    HW2  577   1.098   2.892   2.515
  932SOL     OW  578   1.014   2.098   2.833
  932SOL    HW1  579   1.006   2.062   2.740
  932SOL    HW2  580   1.012   2.022   2.898
  934SOL     OW  581   1.709   2.247   3.243
  934SOL    HW1  582   1.782   2.316   3.247
  934SOL    HW2  583   1.737   2.172   3.184
  939SOL     OW  584   1.440   2.718   3.260
  939SOL    HW1  585   1.383   2.770   3.197
  939SOL    HW2  586   1.536   2.730   3.236
  941SOL     OW  587   1.183   3.197   1.981
  941SOL    HW1  588   1.084   3.186   1.983
  941SOL    HW2  589   1.217   3.212   2.074
  943SOL     OW  590   1.493   3.629   2.821
  943SOL    HW1  591   1.526   3.693   2.752
  943SOL    HW2  592   1.559   3.623   2.896
  945SOL     OW  593   1.450   3.082   3.495
  945SOL    HW1  594   1.441   3.072   3.594
  945SOL    HW2  595   1.546   3.075   3.469
  947SOL     OW  596   1.674   2.745   3.116
  947SOL    HW1  597   1.647   2.656   3.079
  947SOL    HW2  598   1.675   2.813   3.043
  948SOL     OW  599   1.225   2.187   2.311
  948SOL    HW1  600   1.290   2.113   2.300
  948SOL    HW2  601   1.245   2.237   2.395
  950SOL     OW  602   1.777   2.204   3.504
  950SOL    HW1  603   1.760   2.235   3.410
  950SOL    HW2  604   1.693   2.167   3.542
  951SOL     OW  605   1.730   2.796   3.379
  951SOL    HW1  606   1.768   2.887   3.394
  951SOL    HW2  607   1.722   2.779   3.280
  954SOL     OW  608   0.859   2.818   2.723
  954SOL    HW1  609   0.913   2.749   2.771
  954SOL    HW2  610   0.827   2.887   2.789
  955SOL     OW  611   1.083   2.846   1.949
  955SOL    HW1  612   1.060   2.899   1.867
  955SOL    HW2  613   1.164   2.790   1.930
  956SOL     OW  614   1.861   3.431   2.713
  956SOL    HW1  615   1.790   3.419   2.643
  956SOL    HW2  616   1.862   3.352   2.773
  960SOL     OW  617   1.824   2.054   3.089
  960SOL    HW1  618   1.820   1.964   3.133
  960SOL    HW2  619   1.827   2.043   2.990
  962SOL     OW  620   1.705   3.349   2.966
  962SOL    HW1  621   1.612   3.324   2.939
  962SOL    HW2  622   1.731   3.299   3.048
  965SOL     OW  623   1.424   2.076   2.974
  965SOL    HW1  624   1.476   2.011   3.029
  965SOL    HW2  625   1.375   2.139   3.035
  966SOL     OW  626   1.001   1.896   3.016
  966SOL    HW1  627   0.938   1.824   2.985
  966SOL    HW2  628   1.094   1.860   3.016
  969SOL     OW  629   1.352   1.914   2.030
  969SOL    HW1  630   1.387   1.873   1.946
  969SOL    HW2  631   1.262   1.876   2.050
  970SOL     OW  632   1.300   2.315   2.553
  970SOL    HW1  633   1.241   2.395   2.557
  970SOL    HW2  634   1.315   2.280   2.646
  971SOL     OW  635   1.593   2.083   2.744
  971SOL    HW1  636   1.509   2.082   2.798
  971SOL    HW2  637   1.595   2.166   2.688
  979SOL     OW  638   1.755   2.469   3.955
  979SOL    HW1  639   1.743   2.456   3.856
  979SOL    HW2  640   1.725   2.388   4.004
 1022SOL     OW  641   1.434   3.050   3.765
 1022SOL    HW1  642   1.466   2.974   3.822
 1022SOL    HW2  643   1.342   3.077   3.795
 1036SOL     OW  644   1.390   2.437   3.802
 1036SOL    HW1  645   1.336   2.416   3.883
 1036SOL    HW2  646   1.481   2.396   3.811
 1050SOL     OW  647   1.540   2.136   3.849
 1050SOL    HW1  648   1.479   2.061   3.872
 1050SOL    HW2  649   1.562   2.188   3.932
 1051SOL     OW  650   1.303   2.700   3.766
 1051SOL    HW1  651   1.337   2.607   3.781
 1051SOL    HW2  652   1.321   2.727   3.671
 1255SOL     OW  653   1.400   3.831   2.288
 1255SOL    HW1  654   1.376   3.794   2.198
 1255SOL    HW2  655   1.499   3.847   2.292
 1314SOL     OW  656   1.726   3.859   2.385
 1314SOL    HW1  657   1.799   3.842   2.318
 1314SOL    HW2  658   1.695   3.772   2.423
 1316SOL     OW  659   1.841   3.899   2.825
 1316SOL    HW1  660   1.880   3.814   2.789
 1316SOL    HW2  661   1.743   3.901   2.806
 1337SOL     OW  662   1.824   3.916   3.089
 1337SOL    HW1  663   1.820   3.826   3.133
 1337SOL    HW2  664   1.827   3.905   2.990
 1342SOL     OW  665   1.352   3.776   2.030
 1342SOL    HW1  666   1.387   3.735   1.946
 1342SOL    HW2  667   1.262   3.738   2.050
 1344SOL     OW  668   1.593   3.945   2.744
 1344SOL    HW1  669   1.509   3.944   2.798
 1344SOL    HW2  670   1.595   4.028   2.688
 1422SOL     OW  671   2.431   1.275   1.165
 1422SOL    HW1  672   2.338   1.268   1.128
 1422SOL    HW2  673   2.442   1.364   1.209
 1427SOL     OW  674   2.712   0.798   1.823
 1427SOL    HW1  675   2.708   0.874   1.888
 1427SOL    HW2  676   2.734   0.834   1.732
 1429SOL     OW  677   2.548   1.161   1.803
 1429SOL    HW1  678   2.608   1.240   1.817
 1429SOL    HW2  679   2.462   1.192   1.762
 1430SOL     OW  680   2.197   1.435   1.061
 1430SOL    HW1  681   2.119   1.404   1.008
 1430SOL    HW2  682   2.255   1.493   1.004
 1431SOL     OW  683   3.322   1.505   1.339
 1431SOL    HW1  684   3.346   1.599   1.365
 1431SOL    HW2  685   3.306   1.451   1.421
 1435SOL     OW  686   2.989   1.341   1.690
 1435SOL    HW1  687   3.036   1.341   1.778
 1435SOL    HW2  688   2.941   1.254   1.679
 1438SOL     OW  689   2.482   1.786   1.439
 1438SOL    HW1  690   2.390   1.769   1.474
 1438SOL    HW2  691   2.510   1.878   1.465
 1448SOL     OW  692   3.155   1.228   1.423
 1448SOL    HW1  693   3.192   1.155   1.365
 1448SOL    HW2  694   3.207   1.233   1.508
 1452SOL     OW  695   3.049   1.792   1.616
 1452SOL    HW1  696   3.073   1.852   1.540
 1452SOL    HW2  697   3.056   1.697   1.586
 1461SOL     OW  698   2.835   0.890   1.572
 1461SOL    HW1  699   2.881   0.806   1.543
 1461SOL    HW2  700   2.779   0.924   1.497
 1465SOL     OW  701   1.992   1.821   1.571
 1465SOL    HW1  702   1.982   1.806   1.670
 1465SOL    HW2  703   1.906   1.857   1.535
 1471SOL     OW  704   2.213   1.801   0.853
 1471SOL    HW1  705   2.263   1.715   0.859
 1471SOL    HW2  706   2.278   1.878   0.850
 1473SOL     OW  707   3.089   1.550   1.506
 1473SOL    HW1  708   3.095   1.473   1.570
 1473SOL    HW2  709   3.037   1.524   1.426
 1476SOL     OW  710   2.323   1.266   1.727
 1476SOL    HW1  711   2.273   1.267   1.641
 1476SOL    HW2  712   2.260   1.248   1.803
 1482SOL     OW  713   2.111   1.785   1.241
 1482SOL    HW1  714   2.168   1.720   1.291
 1482SOL    HW2  715   2.095   1.752   1.148
 1483SOL     OW  716   2.802   1.698   0.904
 1483SOL    HW1  717   2.882   1.641   0.925
 1483SOL    HW2  718   2.753   1.658   0.827
 1488SOL     OW  719   2.750   1.514   1.195
 1488SOL    HW1  720   2.727   1.489   1.101
 1488SOL    HW2  721   2.811   1.445   1.234
 1513SOL     OW  722   2.926   1.347   1.340
 1513SOL    HW1  723   2.846   1.324   1.395
 1513SOL    HW2  724   3.009   1.321   1.389
 1514SOL     OW  725   3.454   1.629   1.625
 1514SOL    HW1  726   3.481   1.663   1.535
 1514SOL    HW2  727   3.533   1.591   1.671
 1518SOL     OW  728   2.842   1.116   1.719
 1518SOL    HW1  729   2.743   1.122   1.729
 1518SOL    HW2  730   2.865   1.036   1.663
 1522SOL     OW  731   1.926   1.564   1.331
 1522SOL    HW1  732   1.880   1.646   1.297
 1522SOL    HW2  733   2.024   1.583   1.340
 1526SOL     OW  734   3.134   1.445   1.142
 1526SOL    HW1  735   3.181   1.458   1.229
 1526SOL    HW2  736   3.068   1.371   1.151
 1528SOL     OW  737   2.216   1.510   1.329
 1528SOL    HW1  738   2.195   1.466   1.242
 1528SOL    HW2  739   2.313   1.536   1.332
 1537SOL     OW  740   1.899   1.310   1.282
 1537SOL    HW1  741   1.952   1.261   1.350
 1537SOL    HW2  742   1.921   1.408   1.287
 1543SOL     OW  743   2.842   1.573   1.700
 1543SOL    HW1  744   2.822   1.617   1.612
 1543SOL    HW2  745   2.881   1.482   1.684
 1544SOL     OW  746   3.721   1.518   1.605
 1544SOL    HW1  747   3.735   1.545   1.510
 1544SOL    HW2  748   3.804   1.540   1.658
 1545SOL     OW  749   2.212   0.898   1.804
 1545SOL    HW1  750   2.288   0.942   1.852
 1545SOL    HW2  751   2.247   0.851   1.722
 1554SOL     OW  752   1.950   1.801   0.927
 1554SOL    HW1  753   1.908   1.715   0.900
 1554SOL    HW2  754   2.044   1.804   0.893
 1555SOL     OW  755   2.366   1.568   0.910
 1555SOL    HW1  756   2.432   1.642   0.919
 1555SOL    HW2  757   2.410   1.489   0.868
 1562SOL     OW  758   2.114   1.564   1.744
 1562SOL    HW1  759   2.084   1.621   1.820
 1562SOL    HW2  760   2.107   1.467   1.770
 1564SOL     OW  761   2.792   1.678   1.465
 1564SOL    HW1  762   2.768   1.660   1.370
 1564SOL    HW2  763   2.822   1.772   1.475
 1566SOL     OW  764   2.021   1.137   1.466
 1566SOL    HW1  765   2.043   1.076   1.542
 1566SOL    HW2  766   2.031   1.088   1.380
 1570SOL     OW  767   3.114   1.731   1.128
 1570SOL    HW1  768   3.198   1.736   1.074
 1570SOL    HW2  769   3.091   1.635   1.146
 1572SOL     OW  770   2.550   1.662   1.716
 1572SOL    HW1  771   2.494   1.743   1.725
 1572SOL    HW2  772   2.602   1.666   1.630
 1576SOL     OW  773   1.992   1.794   1.851
 1576SOL    HW1  774   1.951   1.720   1.904
 1576SOL    HW2  775   2.056   1.845   1.909
 1578SOL     OW  776   2.692   1.273   1.422
 1578SOL    HW1  777   2.687   1.306   1.517
 1578SOL    HW2  778   2.606   1.292   1.376
 1580SOL     OW  779   3.512   1.720   1.394
 1580SOL    HW1  780   3.565   1.730   1.310
 1580SOL    HW2  781   3.485   1.810   1.428
 1584SOL     OW  782   2.684   1.002   1.372
 1584SOL    HW1  783   2.724   1.001   1.280
 1584SOL    HW2  784   2.694   1.094   1.412
 1587SOL     OW  785   2.234   1.288   1.490
 1587SOL    HW1  786   2.221   1.381   1.456
 1587SOL    HW2  787   2.150   1.236   1.477
 1594SOL     OW  788   1.967   1.013   1.726
 1594SOL    HW1  789   1.890   0.980   1.780
 1594SOL    HW2  790   2.052   0.983   1.768
 1603SOL     OW  791   3.312   1.220   1.633
 1603SOL    HW1  792   3.303   1.210   1.732
 1603SOL    HW2  793   3.408   1.213   1.607
 1604SOL     OW  794   2.252   1.741   1.560
 1604SOL    HW1  795   2.161   1.782   1.558
 1604SOL    HW2  796   2.245   1.647   1.592
 1611SOL     OW  797   2.523   1.790   0.953
 1611SOL    HW1  798   2.477   1.878   0.940
 1611SOL    HW2  799   2.622   1.802   0.946
 1615SOL     OW  800   2.083   1.314   1.844
 1615SOL    HW1  801   2.018   1.241   1.823
 1615SOL    HW2  802   2.087   1.328   1.942
 1617SOL     OW  803   2.534   1.391   1.624
 1617SOL    HW1  804   2.456   1.341   1.662
 1617SOL    HW2  805   2.531   1.486   1.655
 1626SOL     OW  806   2.480   1.567   1.284
 1626SOL    HW1  807   2.475   1.649   1.341
 1626SOL    HW2  808   2.569   1.564   1.239
 1635SOL     OW  809   2.431   1.275   3.027
 1635SOL    HW1  810   2.338   1.268   2.990
 1635SOL    HW2  811   2.442   1.364   3.071
 1636SOL     OW  812   3.417   1.511   2.565
 1636SOL    HW1  813   3.360   1.495   2.646
 1636SOL    HW2  814   3.358   1.521   2.485
 1639SOL     OW  815   2.630   1.144   2.885
 1639SOL    HW1  816   2.552   1.161   2.945
 1639SOL    HW2  817   2.664   1.231   2.849
 1641SOL     OW  818   2.547   1.012   2.527
 1641SOL    HW1  819   2.616   0.996   2.597
 1641SOL    HW2  820   2.474   1.069   2.565
 1642SOL     OW  821   2.548   1.161   3.665
 1642SOL    HW1  822   2.608   1.240   3.679
 1642SOL    HW2  823   2.462   1.192   3.624
 1643SOL     OW  824   2.197   1.435   2.923
 1643SOL    HW1  825   2.119   1.404   2.870
 1643SOL    HW2  826   2.255   1.493   2.866
 1644SOL     OW  827   3.322   1.505   3.201
 1644SOL    HW1  828   3.346   1.599   3.227
 1644SOL    HW2  829   3.306   1.451   3.283
 1647SOL     OW  830   2.093   1.713   2.345
 1647SOL    HW1  831   2.127   1.790   2.399
 1647SOL    HW2  832   2.137   1.713   2.255
 1648SOL     OW  833   2.989   1.341   3.552
 1648SOL    HW1  834   3.036   1.341   3.640
 1648SOL    HW2  835   2.941   1.254   3.541
 1649SOL     OW  836   2.092   1.434   2.400
 1649SOL    HW1  837   2.066   1.530   2.400
 1649SOL    HW2  838   2.021   1.380   2.445
 1650SOL     OW  839   2.102   1.091   2.748
 1650SOL    HW1  840   2.116   1.007   2.800
 1650SOL    HW2  841   2.047   1.155   2.803
 1651SOL     OW  842   2.482   1.786   3.301
 1651SOL    HW1  843   2.390   1.769   3.336
 1651SOL    HW2  844   2.510   1.878   3.327
 1652SOL     OW  845   2.468   0.964   1.985
 1652SOL    HW1  846   2.475   1.048   1.931
 1652SOL    HW2  847   2.514   0.977   2.073
 1655SOL     OW  848   3.704   1.767   2.221
 1655SOL    HW1  849   3.758   1.738   2.301
 1655SOL    HW2  850   3.734   1.857   2.192
 1656SOL     OW  851   1.889   1.596   1.979
 1656SOL    HW1  852   1.870   1.500   2.000
 1656SOL    HW2  853   1.856   1.654   2.054
 1658SOL     OW  854   3.503   1.108   2.294
 1658SOL    HW1  855   3.589   1.110   2.242
 1658SOL    HW2  856   3.517   1.155   2.382
 1660SOL     OW  857   2.475   1.365   2.588
 1660SOL    HW1  858   2.426   1.278   2.597
 1660SOL    HW2  859   2.452   1.408   2.501
 1661SOL     OW  860   3.155   1.228   3.285
 1661SOL    HW1  861   3.192   1.155   3.227
 1661SOL    HW2  862   3.207   1.233   3.370
 1663SOL     OW  863   2.059   0.976   3.126
 1663SOL    HW1  864   2.148   0.931   3.112
 1663SOL    HW2  865   1.986   0.911   3.107
 1664SOL     OW  866   3.387   0.999   2.052
 1664SOL    HW1  867   3.324   0.923   2.065
 1664SOL    HW2  868   3.435   1.017   2.138
 1665SOL     OW  869   3.049   1.792   3.478
 1665SOL    HW1  870   3.073   1.852   3.402
 1665SOL    HW2  871   3.056   1.697   3.448
 1667SOL     OW  872   3.328   1.417   2.815
 1667SOL    HW1  873   3.269   1.423   2.895
 1667SOL    HW2  874   3.313   1.329   2.769
 1668SOL     OW  875   3.529   1.714   2.434
 1668SOL    HW1  876   3.488   1.691   2.346
 1668SOL    HW2  877   3.511   1.640   2.499
 1669SOL     OW  878   2.460   0.729   2.132
 1669SOL    HW1  879   2.484   0.798   2.064
 1669SOL    HW2  880   2.382   0.762   2.186
 1671SOL     OW  881   3.438   1.662   2.169
 1671SOL    HW1  882   3.527   1.708   2.172
 1671SOL    HW2  883   3.417   1.638   2.074
 1676SOL     OW  884   2.903   0.701   2.291
 1676SOL    HW1  885   2.929   0.697   2.387
 1676SOL    HW2  886   2.818   0.650   2.277
 1677SOL     OW  887   1.938   0.811   2.651
 1677SOL    HW1  888   2.037   0.799   2.660
 1677SOL    HW2  889   1.914   0.906   2.672
 1678SOL     OW  890   1.992   1.821   3.433
 1678SOL    HW1  891   1.982   1.806   3.532
 1678SOL    HW2  892   1.906   1.857   3.397
 1681SOL     OW  893   3.224   1.144   2.407
 1681SOL    HW1  894   3.307   1.115   2.359
 1681SOL    HW2  895   3.175   1.211   2.351
 1683SOL     OW  896   2.870   1.456   2.339
 1683SOL    HW1  897   2.824   1.528   2.287
 1683SOL    HW2  898   2.866   1.476   2.437
 1684SOL     OW  899   2.213   1.801   2.715
 1684SOL    HW1  900   2.263   1.715   2.721
 1684SOL    HW2  901   2.278   1.878   2.712
 1686SOL     OW  902   3.089   1.550   3.368
 1686SOL    HW1  903   3.095   1.473   3.432
 1686SOL    HW2  904   3.037   1.524   3.288
 1687SOL     OW  905   2.183   0.943   2.104
 1687SOL    HW1  906   2.265   0.982   2.062
 1687SOL    HW2  907   2.156   0.861   2.055
 1689SOL     OW  908   2.323   1.266   3.589
 1689SOL    HW1  909   2.273   1.267   3.503
 1689SOL    HW2  910   2.260   1.248   3.665
 1690SOL     OW  911   2.973   1.776   2.099
 1690SOL    HW1  912   2.913   1.714   2.149
 1690SOL    HW2  913   3.004   1.732   2.014
 1692SOL     OW  914   3.494   1.377   1.943
 1692SOL    HW1  915   3.462   1.471   1.933
 1692SOL    HW2  916   3.418   1.314   1.931
 1693SOL     OW  917   2.326   1.743   2.185
 1693SOL    HW1  918   2.359   1.782   2.271
 1693SOL    HW2  919   2.402   1.736   2.120
 1695SOL     OW  920   2.111   1.785   3.103
 1695SOL    HW1  921   2.168   1.720   3.153
 1695SOL    HW2  922   2.095   1.752   3.010
 1696SOL     OW  923   2.802   1.698   2.766
 1696SOL    HW1  924   2.882   1.641   2.787
 1696SOL    HW2  925   2.753   1.658   2.689
 1697SOL     OW  926   2.244   0.700   2.342
 1697SOL    HW1  927   2.289   0.610   2.339
 1697SOL    HW2  928   2.150   0.689   2.375
 1701SOL     OW  929   2.750   1.514   3.057
 1701SOL    HW1  930   2.727   1.489   2.963
 1701SOL    HW2  931   2.811   1.445   3.096
 1703SOL     OW  932   2.665   1.402   2.786
 1703SOL    HW1  933   2.755   1.416   2.744
 1703SOL    HW2  934   2.594   1.404   2.715
 1706SOL     OW  935   3.296   1.188   1.903
 1706SOL    HW1  936   3.328   1.112   1.960
 1706SOL    HW2  937   3.204   1.215   1.933
 1710SOL     OW  938   3.089   1.570   2.655
 1710SOL    HW1  939   3.110   1.644   2.590
 1710SOL    HW2  940   3.157   1.570   2.728
 1711SOL     OW  941   2.321   1.152   2.603
 1711SOL    HW1  942   2.250   1.125   2.668
 1711SOL    HW2  943   2.295   1.124   2.510
 1712SOL     OW  944   3.133   1.797   2.453
 1712SOL    HW1  945   3.177   1.861   2.389
 1712SOL    HW2  946   3.083   1.849   2.523
 1718SOL     OW  947   3.291   1.173   2.729
 1718SOL    HW1  948   3.236   1.089   2.722
 1718SOL    HW2  949   3.317   1.202   2.637
 1721SOL     OW  950   2.350   1.385   2.036
 1721SOL    HW1  951   2.263   1.370   2.083
 1721SOL    HW2  952   2.333   1.411   1.941
 1722SOL     OW  953   3.526   1.280   2.519
 1722SOL    HW1  954   3.625   1.288   2.533
 1722SOL    HW2  955   3.481   1.364   2.550
 1726SOL     OW  956   2.926   1.347   3.202
 1726SOL    HW1  957   2.846   1.324   3.257
 1726SOL    HW2  958   3.009   1.321   3.251
 1727SOL     OW  959   3.454   1.629   3.487
 1727SOL    HW1  960   3.481   1.663   3.397
 1727SOL    HW2  961   3.533   1.591   3.533
 1728SOL     OW  962   2.973   1.195   2.962
 1728SOL    HW1  963   2.933   1.239   3.043
 1728SOL    HW2  964   2.932   1.232   2.879
 1729SOL     OW  965   3.500   1.099   2.941
 1729SOL    HW1  966   3.505   1.180   3.000
 1729SOL    HW2  967   3.414   1.101   2.890
 1731SOL     OW  968   2.842   1.116   3.581
 1731SOL    HW1  969   2.743   1.122   3.591
 1731SOL    HW2  970   2.865   1.036   3.525
 1732SOL     OW  971   2.567   1.050   2.230
 1732SOL    HW1  972   2.553   1.057   2.329
 1732SOL    HW2  973   2.651   0.999   2.212
 1733SOL     OW  974   2.272   0.813   3.113
 1733SOL    HW1  975   2.358   0.825   3.163
 1733SOL    HW2  976   2.230   0.726   3.140
 1735SOL     OW  977   1.926   1.564   3.193
 1735SOL    HW1  978   1.880   1.646   3.159
 1735SOL    HW2  979   2.024   1.583   3.202
 1736SOL     OW  980   2.229   1.100   2.363
 1736SOL    HW1  981   2.222   1.183   2.307
 1736SOL    HW2  982   2.233   1.020   2.303
 1738SOL     OW  983   3.114   1.348   2.250
 1738SOL    HW1  984   3.164   1.425   2.290
 1738SOL    HW2  985   3.019   1.350   2.282
 1739SOL     OW  986   3.134   1.445   3.004
 1739SOL    HW1  987   3.181   1.458   3.091
 1739SOL    HW2  988   3.068   1.371   3.013
 1741SOL     OW  989   2.216   1.510   3.191
 1741SOL    HW1  990   2.195   1.466   3.104
 1741SOL    HW2  991   2.313   1.536   3.194
 1746SOL     OW  992   2.435   0.870   2.891
 1746SOL    HW1  993   2.479   0.959   2.882
 1746SOL    HW2  994   2.372   0.870   2.968
 1750SOL     OW  995   1.899   1.310   3.144
 1750SOL    HW1  996   1.952   1.261   3.212
 1750SOL    HW2  997   1.921   1.408   3.149
 1755SOL     OW  998   2.885   0.766   2.828
 1755SOL    HW1  999   2.900   0.787   2.924
 1755SOL    HW2 1000   2.855   0.671   2.819
 1756SOL     OW 1001   2.842   1.573   3.562
 1756SOL    HW1 1002   2.822   1.617   3.474
 1756SOL    HW2 1003   2.881   1.482   3.546
 1761SOL     OW 1004   2.930   1.333   2.711
 1761SOL    HW1 1005   2.937   1.249   2.656
 1761SOL    HW2 1006   2.992   1.402   2.675
 1762SOL     OW 1007   2.181   0.810   2.811
 1762SOL    HW1 1008   2.274   0.846   2.816
 1762SOL    HW2 1009   2.175   0.725   2.863
 1766SOL     OW 1010   1.870   1.326   2.062
 1766SOL    HW1 1011   1.777   1.347   2.031
 1766SOL    HW2 1012   1.880   1.227   2.075
 1767SOL     OW 1013   1.950   1.801   2.789
 1767SOL    HW1 1014   1.908   1.715   2.762
 1767SOL    HW2 1015   2.044   1.804   2.755
 1768SOL     OW 1016   2.366   1.568   2.772
 1768SOL    HW1 1017   2.432   1.642   2.781
 1768SOL    HW2 1018   2.410   1.489   2.730
 1775SOL     OW 1019   2.114   1.564   3.606
 1775SOL    HW1 1020   2.084   1.621   3.682
 1775SOL    HW2 1021   2.107   1.467   3.632
 1777SOL     OW 1022   2.792   1.678   3.327
 1777SOL    HW1 1023   2.768   1.660   3.232
 1777SOL    HW2 1024   2.822   1.772   3.337
 1779SOL     OW 1025   2.021   1.137   3.328
 1779SOL    HW1 1026   2.043   1.076   3.404
 1779SOL    HW2 1027   2.031   1.088   3.242
 1780SOL     OW 1028   3.209   1.059   3.096
 1780SOL    HW1 1029   3.233   0.996   3.022
 1780SOL    HW2 1030   3.119   1.099   3.078
 1781SOL     OW 1031   3.164   0.855   2.171
 1781SOL    HW1 1032   3.078   0.824   2.213
 1781SOL    HW2 1033   3.160   0.841   2.072
 1782SOL     OW 1034   3.621   1.747   3.016
 1782SOL    HW1 1035   3.682   1.777   2.943
 1782SOL    HW2 1036   3.583   1.658   2.994
 1783SOL     OW 1037   3.114   1.731   2.990
 1783SOL    HW1 1038   3.198   1.736   2.936
 1783SOL    HW2 1039   3.091   1.635   3.008
 1784SOL     OW 1040   1.945   1.258   2.884
 1784SOL    HW1 1041   1.940   1.257   2.984
 1784SOL    HW2 1042   1.862   1.217   2.846
 1785SOL     OW 1043   2.550   1.662   3.578
 1785SOL    HW1 1044   2.494   1.743   3.587
 1785SOL    HW2 1045   2.602   1.666   3.492
 1787SOL     OW 1046   3.250   1.573   2.339
 1787SOL    HW1 1047   3.317   1.585   2.265
 1787SOL    HW2 1048   3.210   1.662   2.362
 1788SOL     OW 1049   1.992   1.794   3.713
 1788SOL    HW1 1050   1.951   1.720   3.766
 1788SOL    HW2 1051   2.056   1.845   3.771
 1789SOL     OW 1052   3.142   0.927   2.534
 1789SOL    HW1 1053   3.202   0.846   2.536
 1789SOL    HW2 1054   3.182   0.996   2.474
 1790SOL     OW 1055   2.692   1.273   3.284
 1790SOL    HW1 1056   2.687   1.306   3.379
 1790SOL    HW2 1057   2.606   1.292   3.238
 1791SOL     OW 1058   2.534   1.616   2.016
 1791SOL    HW1 1059   2.543   1.626   1.917
 1791SOL    HW2 1060   2.494   1.527   2.037
 1792SOL     OW 1061   3.512   1.720   3.256
 1792SOL    HW1 1062   3.565   1.730   3.172
 1792SOL    HW2 1063   3.485   1.810   3.290
 1795SOL     OW 1064   3.056   1.612   1.893
 1795SOL    HW1 1065   3.062   1.519   1.930
 1795SOL    HW2 1066   2.997   1.612   1.813
 1796SOL     OW 1067   2.684   1.002   3.234
 1796SOL    HW1 1068   2.724   1.001   3.142
 1796SOL    HW2 1069   2.694   1.094   3.274
 1797SOL     OW 1070   2.778   0.910   2.153
 1797SOL    HW1 1071   2.841   0.948   2.085
 1797SOL    HW2 1072   2.818   0.827   2.192
 1798SOL     OW 1073   3.366   1.607   1.906
 1798SOL    HW1 1074   3.274   1.644   1.913
 1798SOL    HW2 1075   3.404   1.627   1.816
 1799SOL     OW 1076   2.234   1.288   3.352
 1799SOL    HW1 1077   2.221   1.381   3.318
 1799SOL    HW2 1078   2.150   1.236   3.339
 1800SOL     OW 1079   3.476   1.292   3.151
 1800SOL    HW1 1080   3.536   1.295   3.231
 1800SOL    HW2 1081   3.401   1.356   3.164
 1801SOL     OW 1082   2.901   1.098   2.558
 1801SOL    HW1 1083   2.831   1.051   2.612
 1801SOL    HW2 1084   2.960   1.030   2.515
 1803SOL     OW 1085   2.452   1.487   2.353
 1803SOL    HW1 1086   2.494   1.429   2.283
 1803SOL    HW2 1087   2.408   1.566   2.309
 1805SOL     OW 1088   2.117   1.348   2.152
 1805SOL    HW1 1089   2.021   1.349   2.125
 1805SOL    HW2 1090   2.129   1.401   2.236
 1811SOL     OW 1091   3.045   1.335   1.981
 1811SOL    HW1 1092   2.946   1.324   1.983
 1811SOL    HW2 1093   3.079   1.350   2.074
 1812SOL     OW 1094   2.475   0.842   3.293
 1812SOL    HW1 1095   2.531   0.923   3.276
 1812SOL    HW2 1096   2.534   0.762   3.296
 1813SOL     OW 1097   3.355   1.767   2.821
 1813SOL    HW1 1098   3.388   1.831   2.752
 1813SOL    HW2 1099   3.421   1.761   2.896
 1816SOL     OW 1100   2.252   1.741   3.422
 1816SOL    HW1 1101   2.161   1.782   3.420
 1816SOL    HW2 1102   2.245   1.647   3.454
 1819SOL     OW 1103   2.456   0.745   2.514
 1819SOL    HW1 1104   2.506   0.830   2.495
 1819SOL    HW2 1105   2.368   0.747   2.466
 1822SOL     OW 1106   2.721   1.374   1.878
 1822SOL    HW1 1107   2.675   1.389   1.966
 1822SOL    HW2 1108   2.765   1.459   1.848
 1823SOL     OW 1109   2.523   1.790   2.815
 1823SOL    HW1 1110   2.477   1.878   2.802
 1823SOL    HW2 1111   2.622   1.802   2.808
 1824SOL     OW 1112   2.721   0.956   2.723
 1824SOL    HW1 1113   2.775   0.887   2.771
 1824SOL    HW2 1114   2.689   1.025   2.789
 1825SOL     OW 1115   2.945   0.984   1.949
 1825SOL    HW1 1116   2.922   1.037   1.867
 1825SOL    HW2 1117   3.026   0.928   1.930
 1826SOL     OW 1118   3.723   1.569   2.713
 1826SOL    HW1 1119   3.652   1.557   2.643
 1826SOL    HW2 1120   3.724   1.490   2.773
 1827SOL     OW 1121   2.083   1.314   3.706
 1827SOL    HW1 1122   2.018   1.241   3.685
 1827SOL    HW2 1123   2.087   1.328   3.804
 1828SOL     OW 1124   1.941   1.240   2.515
 1828SOL    HW1 1125   1.940   1.193   2.603
 1828SOL    HW2 1126   2.023   1.212   2.464
 1829SOL     OW 1127   2.534   1.391   3.486
 1829SOL    HW1 1128   2.456   1.341   3.524
 1829SOL    HW2 1129   2.531   1.486   3.517
 1832SOL     OW 1130   3.567   1.487   2.966
 1832SOL    HW1 1131   3.474   1.462   2.939
 1832SOL    HW2 1132   3.593   1.437   3.048
 1834SOL     OW 1133   2.674   1.586   2.549
 1834SOL    HW1 1134   2.706   1.596   2.455
 1834SOL    HW2 1135   2.595   1.524   2.551
 1837SOL     OW 1136   2.632   1.330   2.163
 1837SOL    HW1 1137   2.586   1.243   2.180
 1837SOL    HW2 1138   2.723   1.327   2.204
 1838SOL     OW 1139   2.480   1.567   3.146
 1838SOL    HW1 1140   2.475   1.649   3.203
 1838SOL    HW2 1141   2.569   1.564   3.101
 1842SOL     OW 1142   1.901   1.077   2.162
 1842SOL    HW1 1143   2.000   1.066   2.153
 1842SOL    HW2 1144   1.861   0.991   2.194
 1843SOL     OW 1145   2.737   1.646   2.199
 1843SOL    HW1 1146   2.660   1.611   2.145
 1843SOL    HW2 1147   2.705   1.717   2.261
 1860SOL     OW 1148   1.889   1.596   3.841
 1860SOL    HW1 1149   1.870   1.500   3.862
 1860SOL    HW2 1150   1.856   1.654   3.916
 1881SOL     OW 1151   2.973   1.776   3.961
 1881SOL    HW1 1152   2.913   1.714   4.011
 1881SOL    HW2 1153   3.004   1.732   3.876
 1883SOL     OW 1154   2.326   1.743   4.047
 1883SOL    HW1 1155   2.359   1.782   4.133
 1883SOL    HW2 1156   2.402   1.736   3.982
 1937SOL     OW 1157   2.534   1.616   3.878
 1937SOL    HW1 1158   2.543   1.626   3.779
 1937SOL    HW2 1159   2.494   1.527   3.899
 1940SOL     OW 1160   3.056   1.612   3.755
 1940SOL    HW1 1161   3.062   1.519   3.792
 1940SOL    HW2 1162   2.997   1.612   3.675
 1952SOL     OW 1163   2.721   1.374   3.740
 1952SOL    HW1 1164   2.675   1.389   3.828
 1952SOL    HW2 1165   2.765   1.459   3.710
 1968SOL     OW 1166   2.087   2.137   0.996
 1968SOL    HW1 1167   2.122   2.120   1.088
 1968SOL    HW2 1168   1.999   2.092   0.984
 1970SOL     OW 1169   2.431   3.137   1.165
 1970SOL    HW1 1170   2.338   3.130   1.128
 1970SOL    HW2 1171   2.442   3.226   1.209
 1972SOL     OW 1172   2.997   2.565   0.717
 1972SOL    HW1 1173   3.054   2.643   0.692
 1972SOL    HW2 1174   2.937   2.591   0.793
 1974SOL     OW 1175   2.630   3.006   1.023
 1974SOL    HW1 1176   2.552   3.023   1.083
 1974SOL    HW2 1177   2.664   3.093   0.987
 1975SOL     OW 1178   2.712   2.660   1.823
 1975SOL    HW1 1179   2.708   2.736   1.888
 1975SOL    HW2 1180   2.734   2.696   1.732
 1977SOL     OW 1181   2.548   3.023   1.803
 1977SOL    HW1 1182   2.608   3.102   1.817
 1977SOL    HW2 1183   2.462   3.054   1.762
 1978SOL     OW 1184   2.197   3.297   1.061
 1978SOL    HW1 1185   2.119   3.266   1.008
 1978SOL    HW2 1186   2.255   3.355   1.004
 1979SOL     OW 1187   3.322   3.367   1.339
 1979SOL    HW1 1188   3.346   3.461   1.365
 1979SOL    HW2 1189   3.306   3.313   1.421
 1980SOL     OW 1190   2.300   2.254   1.499
 1980SOL    HW1 1191   2.382   2.198   1.508
 1980SOL    HW2 1192   2.219   2.196   1.503
 1983SOL     OW 1193   2.989   3.203   1.690
 1983SOL    HW1 1194   3.036   3.203   1.778
 1983SOL    HW2 1195   2.941   3.116   1.679
 1985SOL     OW 1196   2.102   2.953   0.886
 1985SOL    HW1 1197   2.116   2.869   0.938
 1985SOL    HW2 1198   2.047   3.017   0.941
 1986SOL     OW 1199   2.482   3.648   1.439
 1986SOL    HW1 1200   2.390   3.631   1.474
 1986SOL    HW2 1201   2.510   3.740   1.465
 1988SOL     OW 1202   3.456   1.976   1.480
 1988SOL    HW1 1203   3.438   2.043   1.408
 1988SOL    HW2 1204   3.453   2.022   1.569
 1994SOL     OW 1205   1.975   2.599   1.597
 1994SOL    HW1 1206   2.063   2.586   1.642
 1994SOL    HW2 1207   1.962   2.696   1.575
 1996SOL     OW 1208   3.155   3.090   1.423
 1996SOL    HW1 1209   3.192   3.017   1.365
 1996SOL    HW2 1210   3.207   3.095   1.508
 1998SOL     OW 1211   2.059   2.838   1.264
 1998SOL    HW1 1212   2.148   2.793   1.250
 1998SOL    HW2 1213   1.986   2.773   1.245
 2000SOL     OW 1214   3.049   3.654   1.616
 2000SOL    HW1 1215   3.073   3.714   1.540
 2000SOL    HW2 1216   3.056   3.559   1.586
 2001SOL     OW 1217   2.179   2.113   1.801
 2001SOL    HW1 1218   2.250   2.184   1.807
 2001SOL    HW2 1219   2.091   2.152   1.829
 2005SOL     OW 1220   3.143   2.207   0.944
 2005SOL    HW1 1221   3.057   2.157   0.931
 2005SOL    HW2 1222   3.205   2.153   1.000
 2007SOL     OW 1223   2.669   2.467   1.465
 2007SOL    HW1 1224   2.622   2.464   1.554
 2007SOL    HW2 1225   2.618   2.412   1.399
 2008SOL     OW 1226   3.256   2.331   1.674
 2008SOL    HW1 1227   3.236   2.374   1.762
 2008SOL    HW2 1228   3.334   2.269   1.683
 2009SOL     OW 1229   2.835   2.752   1.572
 2009SOL    HW1 1230   2.881   2.668   1.543
 2009SOL    HW2 1231   2.779   2.786   1.497
 2010SOL     OW 1232   2.853   2.272   1.242
 2010SOL    HW1 1233   2.776   2.306   1.296
 2010SOL    HW2 1234   2.819   2.221   1.163
 2012SOL     OW 1235   1.938   2.673   0.789
 2012SOL    HW1 1236   2.037   2.661   0.798
 2012SOL    HW2 1237   1.914   2.768   0.810
 2013SOL     OW 1238   1.992   3.683   1.571
 2013SOL    HW1 1239   1.982   3.668   1.670
 2013SOL    HW2 1240   1.906   3.719   1.535
 2015SOL     OW 1241   3.581   2.447   1.831
 2015SOL    HW1 1242   3.555   2.536   1.795
 2015SOL    HW2 1243   3.579   2.379   1.758
 2017SOL     OW 1244   2.412   2.058   0.885
 2017SOL    HW1 1245   2.407   2.053   0.985
 2017SOL    HW2 1246   2.414   2.154   0.856
 2021SOL     OW 1247   3.089   3.412   1.506
 2021SOL    HW1 1248   3.095   3.335   1.570
 2021SOL    HW2 1249   3.037   3.386   1.426
 2024SOL     OW 1250   2.323   3.128   1.727
 2024SOL    HW1 1251   2.273   3.129   1.641
 2024SOL    HW2 1252   2.260   3.110   1.803
 2026SOL     OW 1253   2.064   2.147   1.498
 2026SOL    HW1 1254   1.984   2.207   1.485
 2026SOL    HW2 1255   2.054   2.098   1.584
 2030SOL     OW 1256   2.111   3.647   1.241
 2030SOL    HW1 1257   2.168   3.582   1.291
 2030SOL    HW2 1258   2.095   3.614   1.148
 2033SOL     OW 1259   3.409   2.084   1.729
 2033SOL    HW1 1260   3.404   2.121   1.821
 2033SOL    HW2 1261   3.337   2.015   1.717
 2035SOL     OW 1262   2.643   2.126   1.749
 2035SOL    HW1 1263   2.710   2.065   1.792
 2035SOL    HW2 1264   2.570   2.145   1.814
 2036SOL     OW 1265   2.750   3.376   1.195
 2036SOL    HW1 1266   2.727   3.351   1.101
 2036SOL    HW2 1267   2.811   3.307   1.234
 2037SOL     OW 1268   3.213   2.452   1.433
 2037SOL    HW1 1269   3.241   2.409   1.518
 2037SOL    HW2 1270   3.238   2.548   1.434
 2038SOL     OW 1271   2.665   3.264   0.924
 2038SOL    HW1 1272   2.755   3.278   0.882
 2038SOL    HW2 1273   2.594   3.266   0.853
 2039SOL     OW 1274   2.784   2.365   0.899
 2039SOL    HW1 1275   2.759   2.356   0.803
 2039SOL    HW2 1276   2.832   2.283   0.930
 2043SOL     OW 1277   2.938   2.545   1.464
 2043SOL    HW1 1278   2.858   2.484   1.467
 2043SOL    HW2 1279   3.019   2.492   1.440
 2045SOL     OW 1280   2.321   3.014   0.741
 2045SOL    HW1 1281   2.250   2.987   0.806
 2045SOL    HW2 1282   2.295   2.986   0.648
 2048SOL     OW 1283   1.940   2.418   1.386
 2048SOL    HW1 1284   2.032   2.417   1.345
 2048SOL    HW2 1285   1.934   2.492   1.453
 2049SOL     OW 1286   2.423   2.084   1.147
 2049SOL    HW1 1287   2.461   2.000   1.184
 2049SOL    HW2 1288   2.335   2.103   1.191
 2050SOL     OW 1289   2.728   2.316   0.642
 2050SOL    HW1 1290   2.696   2.388   0.580
 2050SOL    HW2 1291   2.752   2.235   0.589
 2051SOL     OW 1292   2.879   1.901   0.753
 2051SOL    HW1 1293   2.807   1.906   0.684
 2051SOL    HW2 1294   2.855   1.832   0.822
 2053SOL     OW 1295   3.328   2.452   0.992
 2053SOL    HW1 1296   3.298   2.357   0.999
 2053SOL    HW2 1297   3.401   2.468   1.058
 2059SOL     OW 1298   3.616   3.085   1.588
 2059SOL    HW1 1299   3.707   3.046   1.575
 2059SOL    HW2 1300   3.624   3.181   1.612
 2060SOL     OW 1301   2.926   3.209   1.340
 2060SOL    HW1 1302   2.846   3.186   1.395
 2060SOL    HW2 1303   3.009   3.183   1.389
 2061SOL     OW 1304   3.454   3.491   1.625
 2061SOL    HW1 1305   3.481   3.525   1.535
 2061SOL    HW2 1306   3.533   3.453   1.671
 2062SOL     OW 1307   2.973   3.057   1.100
 2062SOL    HW1 1308   2.933   3.101   1.181
 2062SOL    HW2 1309   2.932   3.094   1.017
 2064SOL     OW 1310   2.777   1.951   1.402
 2064SOL    HW1 1311   2.802   1.931   1.307
 2064SOL    HW2 1312   2.849   2.007   1.444
 2065SOL     OW 1313   2.842   2.978   1.719
 2065SOL    HW1 1314   2.743   2.984   1.729
 2065SOL    HW2 1315   2.865   2.898   1.663
 2067SOL     OW 1316   2.272   2.675   1.251
 2067SOL    HW1 1317   2.358   2.687   1.301
 2067SOL    HW2 1318   2.230   2.588   1.278
 2068SOL     OW 1319   3.136   2.248   1.262
 2068SOL    HW1 1320   3.157   2.322   1.326
 2068SOL    HW2 1321   3.047   2.265   1.219
 2069SOL     OW 1322   1.926   3.426   1.331
 2069SOL    HW1 1323   1.880   3.508   1.297
 2069SOL    HW2 1324   2.024   3.445   1.340
 2071SOL     OW 1325   2.428   2.399   0.865
 2071SOL    HW1 1326   2.440   2.465   0.791
 2071SOL    HW2 1327   2.474   2.433   0.948
 2073SOL     OW 1328   3.134   3.307   1.142
 2073SOL    HW1 1329   3.181   3.320   1.229
 2073SOL    HW2 1330   3.068   3.233   1.151
 2075SOL     OW 1331   2.216   3.372   1.329
 2075SOL    HW1 1332   2.195   3.328   1.242
 2075SOL    HW2 1333   2.313   3.398   1.332
 2076SOL     OW 1334   2.264   2.613   1.598
 2076SOL    HW1 1335   2.332   2.668   1.551
 2076SOL    HW2 1336   2.304   2.525   1.625
 2077SOL     OW 1337   3.449   2.641   1.670
 2077SOL    HW1 1338   3.357   2.679   1.665
 2077SOL    HW2 1339   3.509   2.688   1.605
 2078SOL     OW 1340   2.875   1.967   1.770
 2078SOL    HW1 1341   2.881   2.052   1.718
 2078SOL    HW2 1342   2.907   1.891   1.713
 2079SOL     OW 1343   2.366   1.912   1.740
 2079SOL    HW1 1344   2.324   1.855   1.670
 2079SOL    HW2 1345   2.300   1.981   1.772
 2080SOL     OW 1346   2.435   2.732   1.029
 2080SOL    HW1 1347   2.479   2.821   1.020
 2080SOL    HW2 1348   2.372   2.732   1.106
 2081SOL     OW 1349   3.222   2.724   1.045
 2081SOL    HW1 1350   3.147   2.724   0.979
 2081SOL    HW2 1351   3.259   2.632   1.054
 2083SOL     OW 1352   2.169   2.075   1.231
 2083SOL    HW1 1353   2.146   2.112   1.321
 2083SOL    HW2 1354   2.139   1.980   1.225
 2084SOL     OW 1355   1.899   3.172   1.282
 2084SOL    HW1 1356   1.952   3.123   1.350
 2084SOL    HW2 1357   1.921   3.270   1.287
 2085SOL     OW 1358   2.594   2.496   1.064
 2085SOL    HW1 1359   2.653   2.470   0.988
 2085SOL    HW2 1360   2.566   2.592   1.053
 2086SOL     OW 1361   3.590   2.797   1.854
 2086SOL    HW1 1362   3.544   2.790   1.765
 2086SOL    HW2 1363   3.528   2.841   1.920
 2089SOL     OW 1364   2.885   2.628   0.966
 2089SOL    HW1 1365   2.900   2.649   1.062
 2089SOL    HW2 1366   2.855   2.533   0.957
 2090SOL     OW 1367   2.842   3.435   1.700
 2090SOL    HW1 1368   2.822   3.479   1.612
 2090SOL    HW2 1369   2.881   3.344   1.684
 2092SOL     OW 1370   2.212   2.760   1.804
 2092SOL    HW1 1371   2.288   2.804   1.852
 2092SOL    HW2 1372   2.247   2.713   1.722
 2096SOL     OW 1373   2.181   2.672   0.949
 2096SOL    HW1 1374   2.274   2.708   0.954
 2096SOL    HW2 1375   2.175   2.587   1.001
 2097SOL     OW 1376   2.201   2.371   1.006
 2097SOL    HW1 1377   2.149   2.288   0.989
 2097SOL    HW2 1378   2.278   2.376   0.942
 2098SOL     OW 1379   3.000   2.242   1.678
 2098SOL    HW1 1380   2.955   2.305   1.742
 2098SOL    HW2 1381   3.093   2.273   1.661
 2099SOL     OW 1382   3.022   2.069   1.477
 2099SOL    HW1 1383   3.022   2.133   1.554
 2099SOL    HW2 1384   3.050   2.117   1.394
 2103SOL     OW 1385   2.864   2.658   1.238
 2103SOL    HW1 1386   2.905   2.626   1.324
 2103SOL    HW2 1387   2.768   2.631   1.235
 2104SOL     OW 1388   1.902   2.406   1.114
 2104SOL    HW1 1389   1.987   2.373   1.073
 2104SOL    HW2 1390   1.915   2.421   1.212
 2105SOL     OW 1391   2.051   2.382   1.722
 2105SOL    HW1 1392   2.110   2.342   1.652
 2105SOL    HW2 1393   1.993   2.453   1.681
 2106SOL     OW 1394   3.231   2.812   1.660
 2106SOL    HW1 1395   3.270   2.901   1.680
 2106SOL    HW2 1396   3.241   2.792   1.563
 2108SOL     OW 1397   3.519   2.466   1.206
 2108SOL    HW1 1398   3.481   2.397   1.268
 2108SOL    HW2 1399   3.601   2.430   1.162
 2109SOL     OW 1400   2.114   3.426   1.744
 2109SOL    HW1 1401   2.084   3.483   1.820
 2109SOL    HW2 1402   2.107   3.329   1.770
 2110SOL     OW 1403   2.533   2.326   1.269
 2110SOL    HW1 1404   2.499   2.237   1.239
 2110SOL    HW2 1405   2.559   2.380   1.189
 2111SOL     OW 1406   2.792   3.540   1.465
 2111SOL    HW1 1407   2.768   3.522   1.370
 2111SOL    HW2 1408   2.822   3.634   1.475
 2113SOL     OW 1409   2.021   2.999   1.466
 2113SOL    HW1 1410   2.043   2.938   1.542
 2113SOL    HW2 1411   2.031   2.950   1.380
 2114SOL     OW 1412   3.209   2.921   1.234
 2114SOL    HW1 1413   3.233   2.858   1.160
 2114SOL    HW2 1414   3.119   2.961   1.216
 2118SOL     OW 1415   1.945   3.120   1.022
 2118SOL    HW1 1416   1.940   3.119   1.122
 2118SOL    HW2 1417   1.862   3.079   0.984
 2119SOL     OW 1418   2.550   3.524   1.716
 2119SOL    HW1 1419   2.494   3.605   1.725
 2119SOL    HW2 1420   2.602   3.528   1.630
 2123SOL     OW 1421   1.992   3.656   1.851
 2123SOL    HW1 1422   1.951   3.582   1.904
 2123SOL    HW2 1423   2.056   3.707   1.909
 2125SOL     OW 1424   2.692   3.135   1.422
 2125SOL    HW1 1425   2.687   3.168   1.517
 2125SOL    HW2 1426   2.606   3.154   1.376
 2129SOL     OW 1427   2.125   2.188   0.720
 2129SOL    HW1 1428   2.046   2.239   0.686
 2129SOL    HW2 1429   2.116   2.173   0.818
 2131SOL     OW 1430   2.684   2.864   1.372
 2131SOL    HW1 1431   2.724   2.863   1.280
 2131SOL    HW2 1432   2.694   2.956   1.412
 2134SOL     OW 1433   2.234   3.150   1.490
 2134SOL    HW1 1434   2.221   3.243   1.456
 2134SOL    HW2 1435   2.150   3.098   1.477
 2135SOL     OW 1436   3.476   3.154   1.289
 2135SOL    HW1 1437   3.536   3.157   1.369
 2135SOL    HW2 1438   3.401   3.218   1.302
 2137SOL     OW 1439   2.876   2.098   0.971
 2137SOL    HW1 1440   2.868   2.062   0.878
 2137SOL    HW2 1441   2.874   2.022   1.036
 2139SOL     OW 1442   3.571   2.247   1.381
 2139SOL    HW1 1443   3.644   2.316   1.385
 2139SOL    HW2 1444   3.599   2.172   1.322
 2141SOL     OW 1445   1.967   2.875   1.726
 2141SOL    HW1 1446   1.890   2.842   1.780
 2141SOL    HW2 1447   2.052   2.845   1.768
 2142SOL     OW 1448   2.534   2.065   1.489
 2142SOL    HW1 1449   2.624   2.049   1.449
 2142SOL    HW2 1450   2.542   2.070   1.588
 2144SOL     OW 1451   3.302   2.718   1.398
 2144SOL    HW1 1452   3.245   2.770   1.335
 2144SOL    HW2 1453   3.398   2.730   1.374
 2147SOL     OW 1454   2.475   2.704   1.431
 2147SOL    HW1 1455   2.531   2.785   1.414
 2147SOL    HW2 1456   2.534   2.624   1.434
 2149SOL     OW 1457   2.578   2.427   1.708
 2149SOL    HW1 1458   2.597   2.492   1.782
 2149SOL    HW2 1459   2.638   2.347   1.717
 2150SOL     OW 1460   3.312   3.082   1.633
 2150SOL    HW1 1461   3.303   3.072   1.732
 2150SOL    HW2 1462   3.408   3.075   1.607
 2151SOL     OW 1463   2.252   3.603   1.560
 2151SOL    HW1 1464   2.161   3.644   1.558
 2151SOL    HW2 1465   2.245   3.509   1.592
 2152SOL     OW 1466   3.536   2.745   1.254
 2152SOL    HW1 1467   3.509   2.656   1.217
 2152SOL    HW2 1468   3.537   2.813   1.181
 2154SOL     OW 1469   2.456   2.607   0.652
 2154SOL    HW1 1470   2.506   2.692   0.633
 2154SOL    HW2 1471   2.368   2.609   0.604
 2155SOL     OW 1472   3.639   2.204   1.642
 2155SOL    HW1 1473   3.622   2.235   1.548
 2155SOL    HW2 1474   3.555   2.167   1.680
 2156SOL     OW 1475   3.592   2.796   1.517
 2156SOL    HW1 1476   3.630   2.887   1.532
 2156SOL    HW2 1477   3.584   2.779   1.418
 2159SOL     OW 1478   2.721   2.818   0.861
 2159SOL    HW1 1479   2.775   2.749   0.909
 2159SOL    HW2 1480   2.689   2.887   0.927
 2162SOL     OW 1481   2.083   3.176   1.844
 2162SOL    HW1 1482   2.018   3.103   1.823
 2162SOL    HW2 1483   2.087   3.190   1.942
 2164SOL     OW 1484   2.534   3.253   1.624
 2164SOL    HW1 1485   2.456   3.203   1.662
 2164SOL    HW2 1486   2.531   3.348   1.655
 2165SOL     OW 1487   3.686   2.054   1.227
 2165SOL    HW1 1488   3.682   1.964   1.271
 2165SOL    HW2 1489   3.689   2.043   1.128
 2168SOL     OW 1490   2.179   2.409   1.280
 2168SOL    HW1 1491   2.217   2.350   1.352
 2168SOL    HW2 1492   2.219   2.383   1.192
 2170SOL     OW 1493   3.286   2.076   1.112
 2170SOL    HW1 1494   3.338   2.011   1.167
 2170SOL    HW2 1495   3.237   2.139   1.173
 2171SOL     OW 1496   2.863   1.896   1.154
 2171SOL    HW1 1497   2.800   1.824   1.123
 2171SOL    HW2 1498   2.956   1.860   1.154
 2173SOL     OW 1499   2.480   3.429   1.284
 2173SOL    HW1 1500   2.475   3.511   1.341
 2173SOL    HW2 1501   2.569   3.426   1.239
 2179SOL     OW 1502   2.092   2.490   1.975
 2179SOL    HW1 1503   1.999   2.488   2.012
 2179SOL    HW2 1504   2.093   2.451   1.883
 2180SOL     OW 1505   2.087   2.137   2.858
 2180SOL    HW1 1506   2.122   2.120   2.950
 2180SOL    HW2 1507   1.999   2.092   2.846
 2181SOL     OW 1508   1.881   2.230   2.509
 2181SOL    HW1 1509   1.799   2.273   2.548
 2181SOL    HW2 1510   1.853   2.157   2.446
 2182SOL     OW 1511   2.431   3.137   3.027
 2182SOL    HW1 1512   2.338   3.130   2.990
 2182SOL    HW2 1513   2.442   3.226   3.071
 2183SOL     OW 1514   3.417   3.373   2.565
 2183SOL    HW1 1515   3.360   3.357   2.646
 2183SOL    HW2 1516   3.358   3.383   2.485
 2184SOL     OW 1517   2.997   2.565   2.579
 2184SOL    HW1 1518   3.054   2.643   2.554
 2184SOL    HW2 1519   2.937   2.591   2.655
 2185SOL     OW 1520   3.617   2.469   2.093
 2185SOL    HW1 1521   3.605   2.456   1.994
 2185SOL    HW2 1522   3.587   2.388   2.142
 2186SOL     OW 1523   2.630   3.006   2.885
 2186SOL    HW1 1524   2.552   3.023   2.945
 2186SOL    HW2 1525   2.664   3.093   2.849
 2187SOL     OW 1526   2.712   2.660   3.685
 2187SOL    HW1 1527   2.708   2.736   3.750
 2187SOL    HW2 1528   2.734   2.696   3.594
 2188SOL     OW 1529   2.547   2.874   2.527
 2188SOL    HW1 1530   2.616   2.858   2.597
 2188SOL    HW2 1531   2.474   2.931   2.565
 2189SOL     OW 1532   2.548   3.023   3.665
 2189SOL    HW1 1533   2.608   3.102   3.679
 2189SOL    HW2 1534   2.462   3.054   3.624
 2190SOL     OW 1535   2.197   3.297   2.923
 2190SOL    HW1 1536   2.119   3.266   2.870
 2190SOL    HW2 1537   2.255   3.355   2.866
 2191SOL     OW 1538   3.322   3.367   3.201
 2191SOL    HW1 1539   3.346   3.461   3.227
 2191SOL    HW2 1540   3.306   3.313   3.283
 2192SOL     OW 1541   2.300   2.254   3.361
 2192SOL    HW1 1542   2.382   2.198   3.370
 2192SOL    HW2 1543   2.219   2.196   3.365
 2193SOL     OW 1544   3.465   2.309   2.599
 2193SOL    HW1 1545   3.391   2.355   2.549
 2193SOL    HW2 1546   3.516   2.377   2.652
 2194SOL     OW 1547   2.093   3.575   2.345
 2194SOL    HW1 1548   2.127   3.652   2.399
 2194SOL    HW2 1549   2.137   3.575   2.255
 2195SOL     OW 1550   2.989   3.203   3.552
 2195SOL    HW1 1551   3.036   3.203   3.640
 2195SOL    HW2 1552   2.941   3.116   3.541
 2196SOL     OW 1553   2.092   3.296   2.400
 2196SOL    HW1 1554   2.066   3.392   2.400
 2196SOL    HW2 1555   2.021   3.242   2.445
 2197SOL     OW 1556   2.102   2.953   2.748
 2197SOL    HW1 1557   2.116   2.869   2.800
 2197SOL    HW2 1558   2.047   3.017   2.803
 2198SOL     OW 1559   2.482   3.648   3.301
 2198SOL    HW1 1560   2.390   3.631   3.336
 2198SOL    HW2 1561   2.510   3.740   3.327
 2199SOL     OW 1562   2.468   2.826   1.985
 2199SOL    HW1 1563   2.475   2.910   1.931
 2199SOL    HW2 1564   2.514   2.839   2.073
 2200SOL     OW 1565   3.456   1.976   3.342
 2200SOL    HW1 1566   3.438   2.043   3.270
 2200SOL    HW2 1567   3.453   2.022   3.431
 2201SOL     OW 1568   1.984   2.505   2.425
 2201SOL    HW1 1569   1.939   2.417   2.442
 2201SOL    HW2 1570   1.983   2.559   2.509
 2202SOL     OW 1571   3.704   3.629   2.221
 2202SOL    HW1 1572   3.758   3.600   2.301
 2202SOL    HW2 1573   3.734   3.719   2.192
 2203SOL     OW 1574   1.889   3.458   1.979
 2203SOL    HW1 1575   1.870   3.362   2.000
 2203SOL    HW2 1576   1.856   3.516   2.054
 2204SOL     OW 1577   3.551   2.784   2.474
 2204SOL    HW1 1578   3.646   2.755   2.482
 2204SOL    HW2 1579   3.543   2.849   2.399
 2205SOL     OW 1580   3.503   2.970   2.294
 2205SOL    HW1 1581   3.589   2.972   2.242
 2205SOL    HW2 1582   3.517   3.017   2.382
 2206SOL     OW 1583   1.975   2.599   3.459
 2206SOL    HW1 1584   2.063   2.586   3.504
 2206SOL    HW2 1585   1.962   2.696   3.437
 2207SOL     OW 1586   2.475   3.227   2.588
 2207SOL    HW1 1587   2.426   3.140   2.597
 2207SOL    HW2 1588   2.452   3.270   2.501
 2208SOL     OW 1589   3.155   3.090   3.285
 2208SOL    HW1 1590   3.192   3.017   3.227
 2208SOL    HW2 1591   3.207   3.095   3.370
 2209SOL     OW 1592   2.671   1.866   2.364
 2209SOL    HW1 1593   2.711   1.957   2.355
 2209SOL    HW2 1594   2.571   1.874   2.370
 2210SOL     OW 1595   2.059   2.838   3.126
 2210SOL    HW1 1596   2.148   2.793   3.112
 2210SOL    HW2 1597   1.986   2.773   3.107
 2211SOL     OW 1598   3.387   2.861   2.052
 2211SOL    HW1 1599   3.324   2.785   2.065
 2211SOL    HW2 1600   3.435   2.879   2.138
 2212SOL     OW 1601   3.049   3.654   3.478
 2212SOL    HW1 1602   3.073   3.714   3.402
 2212SOL    HW2 1603   3.056   3.559   3.448
 2213SOL     OW 1604   2.179   2.113   3.663
 2213SOL    HW1 1605   2.250   2.184   3.669
 2213SOL    HW2 1606   2.091   2.152   3.691
 2214SOL     OW 1607   3.328   3.279   2.815
 2214SOL    HW1 1608   3.269   3.285   2.895
 2214SOL    HW2 1609   3.313   3.191   2.769
 2215SOL     OW 1610   3.529   3.576   2.434
 2215SOL    HW1 1611   3.488   3.553   2.346
 2215SOL    HW2 1612   3.511   3.502   2.499
 2216SOL     OW 1613   2.460   2.591   2.132
 2216SOL    HW1 1614   2.484   2.660   2.064
 2216SOL    HW2 1615   2.382   2.624   2.186
 2217SOL     OW 1616   3.143   2.207   2.806
 2217SOL    HW1 1617   3.057   2.157   2.793
 2217SOL    HW2 1618   3.205   2.153   2.862
 2218SOL     OW 1619   3.438   3.524   2.169
 2218SOL    HW1 1620   3.527   3.570   2.172
 2218SOL    HW2 1621   3.417   3.500   2.074
 2219SOL     OW 1622   2.669   2.467   3.327
 2219SOL    HW1 1623   2.622   2.464   3.416
 2219SOL    HW2 1624   2.618   2.412   3.261
 2220SOL     OW 1625   3.256   2.331   3.536
 2220SOL    HW1 1626   3.236   2.374   3.624
 2220SOL    HW2 1627   3.334   2.269   3.545
 2221SOL     OW 1628   2.835   2.752   3.434
 2221SOL    HW1 1629   2.881   2.668   3.405
 2221SOL    HW2 1630   2.779   2.786   3.359
 2222SOL     OW 1631   2.853   2.272   3.104
 2222SOL    HW1 1632   2.776   2.306   3.158
 2222SOL    HW2 1633   2.819   2.221   3.025
 2223SOL     OW 1634   2.903   2.563   2.291
 2223SOL    HW1 1635   2.929   2.559   2.387
 2223SOL    HW2 1636   2.818   2.512   2.277
 2224SOL     OW 1637   1.938   2.673   2.651
 2224SOL    HW1 1638   2.037   2.661   2.660
 2224SOL    HW2 1639   1.914   2.768   2.672
 2225SOL     OW 1640   1.992   3.683   3.433
 2225SOL    HW1 1641   1.982   3.668   3.532
 2225SOL    HW2 1642   1.906   3.719   3.397
 2226SOL     OW 1643   3.581   2.447   3.693
 2226SOL    HW1 1644   3.555   2.536   3.657
 2226SOL    HW2 1645   3.579   2.379   3.620
 2227SOL     OW 1646   3.224   3.006   2.407
 2227SOL    HW1 1647   3.307   2.977   2.359
 2227SOL    HW2 1648   3.175   3.073   2.351
 2228SOL     OW 1649   2.412   2.058   2.747
 2228SOL    HW1 1650   2.407   2.053   2.847
 2228SOL    HW2 1651   2.414   2.154   2.718
 2229SOL     OW 1652   2.870   3.318   2.339
 2229SOL    HW1 1653   2.824   3.390   2.287
 2229SOL    HW2 1654   2.866   3.338   2.437
 2230SOL     OW 1655   2.213   3.663   2.715
 2230SOL    HW1 1656   2.263   3.577   2.721
 2230SOL    HW2 1657   2.278   3.740   2.712
 2231SOL     OW 1658   3.657   2.928   2.735
 2231SOL    HW1 1659   3.595   2.913   2.659
 2231SOL    HW2 1660   3.605   2.939   2.820
 2232SOL     OW 1661   3.089   3.412   3.368
 2232SOL    HW1 1662   3.095   3.335   3.432
 2232SOL    HW2 1663   3.037   3.386   3.288
 2233SOL     OW 1664   2.183   2.805   2.104
 2233SOL    HW1 1665   2.265   2.844   2.062
 2233SOL    HW2 1666   2.156   2.723   2.055
 2234SOL     OW 1667   3.320   2.597   2.590
 2234SOL    HW1 1668   3.315   2.532   2.665
 2234SOL    HW2 1669   3.400   2.656   2.603
 2235SOL     OW 1670   2.323   3.128   3.589
 2235SOL    HW1 1671   2.273   3.129   3.503
 2235SOL    HW2 1672   2.260   3.110   3.665
 2236SOL     OW 1673   2.973   3.638   2.099
 2236SOL    HW1 1674   2.913   3.576   2.149
 2236SOL    HW2 1675   3.004   3.594   2.014
 2237SOL     OW 1676   2.064   2.147   3.360
 2237SOL    HW1 1677   1.984   2.207   3.347
 2237SOL    HW2 1678   2.054   2.098   3.446
 2238SOL     OW 1679   3.494   3.239   1.943
 2238SOL    HW1 1680   3.462   3.333   1.933
 2238SOL    HW2 1681   3.418   3.176   1.931
 2239SOL     OW 1682   2.326   3.605   2.185
 2239SOL    HW1 1683   2.359   3.644   2.271
 2239SOL    HW2 1684   2.402   3.598   2.120
 2240SOL     OW 1685   3.262   1.969   2.288
 2240SOL    HW1 1686   3.238   1.932   2.198
 2240SOL    HW2 1687   3.361   1.985   2.292
 2241SOL     OW 1688   2.111   3.647   3.103
 2241SOL    HW1 1689   2.168   3.582   3.153
 2241SOL    HW2 1690   2.095   3.614   3.010
 2242SOL     OW 1691   2.802   3.560   2.766
 2242SOL    HW1 1692   2.882   3.503   2.787
 2242SOL    HW2 1693   2.753   3.520   2.689
 2243SOL     OW 1694   3.409   2.084   3.591
 2243SOL    HW1 1695   3.404   2.121   3.683
 2243SOL    HW2 1696   3.337   2.015   3.579
 2244SOL     OW 1697   2.476   1.984   1.979
 2244SOL    HW1 1698   2.574   1.962   1.986
 2244SOL    HW2 1699   2.445   1.967   1.886
 2245SOL     OW 1700   2.643   2.126   3.611
 2245SOL    HW1 1701   2.710   2.065   3.654
 2245SOL    HW2 1702   2.570   2.145   3.676
 2246SOL     OW 1703   2.750   3.376   3.057
 2246SOL    HW1 1704   2.727   3.351   2.963
 2246SOL    HW2 1705   2.811   3.307   3.096
 2247SOL     OW 1706   3.213   2.452   3.295
 2247SOL    HW1 1707   3.241   2.409   3.380
 2247SOL    HW2 1708   3.238   2.548   3.296
 2248SOL     OW 1709   2.665   3.264   2.786
 2248SOL    HW1 1710   2.755   3.278   2.744
 2248SOL    HW2 1711   2.594   3.266   2.715
 2249SOL     OW 1712   2.784   2.365   2.761
 2249SOL    HW1 1713   2.759   2.356   2.665
 2249SOL    HW2 1714   2.832   2.283   2.792
 2250SOL     OW 1715   2.401   1.926   2.374
 2250SOL    HW1 1716   2.320   1.927   2.432
 2250SOL    HW2 1717   2.404   2.009   2.319
 2251SOL     OW 1718   3.296   3.050   1.903
 2251SOL    HW1 1719   3.328   2.974   1.960
 2251SOL    HW2 1720   3.204   3.077   1.933
 2252SOL     OW 1721   2.159   1.897   2.033
 2252SOL    HW1 1722   2.208   1.981   2.012
 2252SOL    HW2 1723   2.221   1.832   2.078
 2253SOL     OW 1724   2.797   2.098   2.342
 2253SOL    HW1 1725   2.749   2.139   2.264
 2253SOL    HW2 1726   2.896   2.096   2.323
 2254SOL     OW 1727   2.938   2.545   3.326
 2254SOL    HW1 1728   2.858   2.484   3.329
 2254SOL    HW2 1729   3.019   2.492   3.302
 2255SOL     OW 1730   3.089   3.432   2.655
 2255SOL    HW1 1731   3.110   3.506   2.590
 2255SOL    HW2 1732   3.157   3.432   2.728
 2256SOL     OW 1733   2.321   3.014   2.603
 2256SOL    HW1 1734   2.250   2.987   2.668
 2256SOL    HW2 1735   2.295   2.986   2.510
 2257SOL     OW 1736   3.133   3.659   2.453
 2257SOL    HW1 1737   3.177   3.723   2.389
 2257SOL    HW2 1738   3.083   3.711   2.523
 2258SOL     OW 1739   2.894   2.411   1.878
 2258SOL    HW1 1740   2.853   2.493   1.839
 2258SOL    HW2 1741   2.958   2.437   1.951
 2259SOL     OW 1742   1.940   2.418   3.248
 2259SOL    HW1 1743   2.032   2.417   3.207
 2259SOL    HW2 1744   1.934   2.492   3.315
 2260SOL     OW 1745   2.423   2.084   3.009
 2260SOL    HW1 1746   2.461   2.000   3.046
 2260SOL    HW2 1747   2.335   2.103   3.053
 2261SOL     OW 1748   2.728   2.316   2.504
 2261SOL    HW1 1749   2.696   2.388   2.442
 2261SOL    HW2 1750   2.752   2.235   2.451
 2262SOL     OW 1751   2.879   1.901   2.615
 2262SOL    HW1 1752   2.807   1.906   2.546
 2262SOL    HW2 1753   2.855   1.832   2.684
 2263SOL     OW 1754   3.291   3.035   2.729
 2263SOL    HW1 1755   3.236   2.951   2.722
 2263SOL    HW2 1756   3.317   3.064   2.637
 2264SOL     OW 1757   3.328   2.452   2.854
 2264SOL    HW1 1758   3.298   2.357   2.861
 2264SOL    HW2 1759   3.401   2.468   2.920
 2265SOL     OW 1760   3.719   2.695   2.239
 2265SOL    HW1 1761   3.761   2.631   2.303
 2265SOL    HW2 1762   3.681   2.644   2.161
 2266SOL     OW 1763   2.350   3.247   2.036
 2266SOL    HW1 1764   2.263   3.232   2.083
 2266SOL    HW2 1765   2.333   3.273   1.941
 2267SOL     OW 1766   3.526   3.142   2.519
 2267SOL    HW1 1767   3.625   3.150   2.533
 2267SOL    HW2 1768   3.481   3.226   2.550
 2268SOL     OW 1769   3.252   2.437   1.940
 2268SOL    HW1 1770   3.198   2.416   2.021
 2268SOL    HW2 1771   3.343   2.396   1.949
 2269SOL     OW 1772   3.616   3.085   3.450
 2269SOL    HW1 1773   3.707   3.046   3.437
 2269SOL    HW2 1774   3.624   3.181   3.474
 2270SOL     OW 1775   2.926   3.209   3.202
 2270SOL    HW1 1776   2.846   3.186   3.257
 2270SOL    HW2 1777   3.009   3.183   3.251
 2272SOL     OW 1778   2.973   3.057   2.962
 2272SOL    HW1 1779   2.933   3.101   3.043
 2272SOL    HW2 1780   2.932   3.094   2.879
 2273SOL     OW 1781   3.500   2.961   2.941
 2273SOL    HW1 1782   3.505   3.042   3.000
 2273SOL    HW2 1783   3.414   2.963   2.890
 2274SOL     OW 1784   2.777   1.951   3.264
 2274SOL    HW1 1785   2.802   1.931   3.169
 2274SOL    HW2 1786   2.849   2.007   3.306
 2275SOL     OW 1787   2.842   2.978   3.581
 2275SOL    HW1 1788   2.743   2.984   3.591
 2275SOL    HW2 1789   2.865   2.898   3.525
 2276SOL     OW 1790   2.567   2.912   2.230
 2276SOL    HW1 1791   2.553   2.919   2.329
 2276SOL    HW2 1792   2.651   2.861   2.212
 2277SOL     OW 1793   2.272   2.675   3.113
 2277SOL    HW1 1794   2.358   2.687   3.163
 2277SOL    HW2 1795   2.230   2.588   3.140
 2278SOL     OW 1796   3.136   2.248   3.124
 2278SOL    HW1 1797   3.157   2.322   3.188
 2278SOL    HW2 1798   3.047   2.265   3.081
 2279SOL     OW 1799   1.926   3.426   3.193
 2279SOL    HW1 1800   1.880   3.508   3.159
 2279SOL    HW2 1801   2.024   3.445   3.202
 2280SOL     OW 1802   2.229   2.962   2.363
 2280SOL    HW1 1803   2.222   3.045   2.307
 2280SOL    HW2 1804   2.233   2.882   2.303
 2281SOL     OW 1805   3.114   3.210   2.250
 2281SOL    HW1 1806   3.164   3.287   2.290
 2281SOL    HW2 1807   3.019   3.212   2.282
 2282SOL     OW 1808   3.134   3.307   3.004
 2282SOL    HW1 1809   3.181   3.320   3.091
 2282SOL    HW2 1810   3.068   3.233   3.013
 2283SOL     OW 1811   3.444   2.501   2.334
 2283SOL    HW1 1812   3.413   2.562   2.407
 2283SOL    HW2 1813   3.494   2.553   2.265
 2284SOL     OW 1814   2.216   3.372   3.191
 2284SOL    HW1 1815   2.195   3.328   3.104
 2284SOL    HW2 1816   2.313   3.398   3.194
 2285SOL     OW 1817   2.264   2.613   3.460
 2285SOL    HW1 1818   2.332   2.668   3.413
 2285SOL    HW2 1819   2.304   2.525   3.487
 2286SOL     OW 1820   3.449   2.641   3.532
 2286SOL    HW1 1821   3.357   2.679   3.527
 2286SOL    HW2 1822   3.509   2.688   3.467
 2287SOL     OW 1823   2.875   1.967   3.632
 2287SOL    HW1 1824   2.881   2.052   3.580
 2287SOL    HW2 1825   2.907   1.891   3.575
 2288SOL     OW 1826   2.366   1.912   3.602
 2288SOL    HW1 1827   2.324   1.855   3.532
 2288SOL    HW2 1828   2.300   1.981   3.634
 2289SOL     OW 1829   2.435   2.732   2.891
 2289SOL    HW1 1830   2.479   2.821   2.882
 2289SOL    HW2 1831   2.372   2.732   2.968
 2290SOL     OW 1832   3.222   2.724   2.907
 2290SOL    HW1 1833   3.147   2.724   2.841
 2290SOL    HW2 1834   3.259   2.632   2.916
 2291SOL     OW 1835   3.071   2.387   2.137
 2291SOL    HW1 1836   3.084   2.303   2.191
 2291SOL    HW2 1837   3.042   2.461   2.197
 2292SOL     OW 1838   2.169   2.075   3.093
 2292SOL    HW1 1839   2.146   2.112   3.183
 2292SOL    HW2 1840   2.139   1.980   3.087
 2293SOL     OW 1841   1.899   3.172   3.144
 2293SOL    HW1 1842   1.952   3.123   3.212
 2293SOL    HW2 1843   1.921   3.270   3.149
 2294SOL     OW 1844   2.594   2.496   2.926
 2294SOL    HW1 1845   2.653   2.470   2.850
 2294SOL    HW2 1846   2.566   2.592   2.915
 2296SOL     OW 1847   2.169   1.925   2.480
 2296SOL    HW1 1848   2.158   2.019   2.513
 2296SOL    HW2 1849   2.164   1.862   2.557
 2297SOL     OW 1850   3.484   2.229   2.236
 2297SOL    HW1 1851   3.486   2.153   2.300
 2297SOL    HW2 1852   3.436   2.306   2.276
 2298SOL     OW 1853   2.885   2.628   2.828
 2298SOL    HW1 1854   2.900   2.649   2.924
 2298SOL    HW2 1855   2.855   2.533   2.819
 2299SOL     OW 1856   2.842   3.435   3.562
 2299SOL    HW1 1857   2.822   3.479   3.474
 2299SOL    HW2 1858   2.881   3.344   3.546
 2301SOL     OW 1859   2.212   2.760   3.666
 2301SOL    HW1 1860   2.288   2.804   3.714
 2301SOL    HW2 1861   2.247   2.713   3.584
 2302SOL     OW 1862   3.402   2.136   1.987
 2302SOL    HW1 1863   3.341   2.061   2.010
 2302SOL    HW2 1864   3.424   2.188   2.070
 2303SOL     OW 1865   3.165   2.700   1.904
 2303SOL    HW1 1866   3.199   2.607   1.919
 2303SOL    HW2 1867   3.183   2.727   1.809
 2304SOL     OW 1868   2.930   3.195   2.711
 2304SOL    HW1 1869   2.937   3.111   2.656
 2304SOL    HW2 1870   2.992   3.264   2.675
 2305SOL     OW 1871   2.181   2.672   2.811
 2305SOL    HW1 1872   2.274   2.708   2.816
 2305SOL    HW2 1873   2.175   2.587   2.863
 2306SOL     OW 1874   3.000   2.242   3.540
 2306SOL    HW1 1875   2.955   2.305   3.604
 2306SOL    HW2 1876   3.093   2.273   3.523
 2307SOL     OW 1877   3.022   2.069   3.339
 2307SOL    HW1 1878   3.022   2.133   3.416
 2307SOL    HW2 1879   3.050   2.117   3.256
 2308SOL     OW 1880   1.870   3.188   2.062
 2308SOL    HW1 1881   1.777   3.209   2.031
 2308SOL    HW2 1882   1.880   3.089   2.075
 2309SOL     OW 1883   1.950   3.663   2.789
 2309SOL    HW1 1884   1.908   3.577   2.762
 2309SOL    HW2 1885   2.044   3.666   2.755
 2310SOL     OW 1886   2.366   3.430   2.772
 2310SOL    HW1 1887   2.432   3.504   2.781
 2310SOL    HW2 1888   2.410   3.351   2.730
 2311SOL     OW 1889   2.864   2.658   3.100
 2311SOL    HW1 1890   2.905   2.626   3.186
 2311SOL    HW2 1891   2.768   2.631   3.097
 2312SOL     OW 1892   1.902   2.406   2.976
 2312SOL    HW1 1893   1.987   2.373   2.935
 2312SOL    HW2 1894   1.915   2.421   3.074
 2313SOL     OW 1895   2.051   2.382   3.584
 2313SOL    HW1 1896   2.110   2.342   3.514
 2313SOL    HW2 1897   1.993   2.453   3.543
 2314SOL     OW 1898   3.231   2.812   3.522
 2314SOL    HW1 1899   3.270   2.901   3.542
 2314SOL    HW2 1900   3.241   2.792   3.425
 2315SOL     OW 1901   3.519   2.466   3.068
 2315SOL    HW1 1902   3.481   2.397   3.130
 2315SOL    HW2 1903   3.601   2.430   3.024
 2316SOL     OW 1904   2.114   3.426   3.606
 2316SOL    HW1 1905   2.084   3.483   3.682
 2316SOL    HW2 1906   2.107   3.329   3.632
 2317SOL     OW 1907   2.533   2.326   3.131
 2317SOL    HW1 1908   2.499   2.237   3.101
 2317SOL    HW2 1909   2.559   2.380   3.051
 2318SOL     OW 1910   2.792   3.540   3.327
 2318SOL    HW1 1911   2.768   3.522   3.232
 2318SOL    HW2 1912   2.822   3.634   3.337
 2319SOL     OW 1913   2.021   2.999   3.328
 2319SOL    HW1 1914   2.043   2.938   3.404
 2319SOL    HW2 1915   2.031   2.950   3.242
 2320SOL     OW 1916   3.209   2.921   3.096
 2320SOL    HW1 1917   3.233   2.858   3.022
 2320SOL    HW2 1918   3.119   2.961   3.078
 2321SOL     OW 1919   3.164   2.717   2.171
 2321SOL    HW1 1920   3.078   2.686   2.213
 2321SOL    HW2 1921   3.160   2.703   2.072
 2323SOL     OW 1922   3.114   3.593   2.990
 2323SOL    HW1 1923   3.198   3.598   2.936
 2323SOL    HW2 1924   3.091   3.497   3.008
 2324SOL     OW 1925   1.945   3.120   2.884
 2324SOL    HW1 1926   1.940   3.119   2.984
 2324SOL    HW2 1927   1.862   3.079   2.846
 2325SOL     OW 1928   2.550   3.524   3.578
 2325SOL    HW1 1929   2.494   3.605   3.587
 2325SOL    HW2 1930   2.602   3.528   3.492
 2326SOL     OW 1931   3.588   1.997   2.385
 2326SOL    HW1 1932   3.661   1.980   2.318
 2326SOL    HW2 1933   3.557   1.910   2.423
 2327SOL     OW 1934   3.250   3.435   2.339
 2327SOL    HW1 1935   3.317   3.447   2.265
 2327SOL    HW2 1936   3.210   3.524   2.362
 2329SOL     OW 1937   3.142   2.789   2.534
 2329SOL    HW1 1938   3.202   2.708   2.536
 2329SOL    HW2 1939   3.182   2.858   2.474
 2330SOL     OW 1940   2.692   3.135   3.284
 2330SOL    HW1 1941   2.687   3.168   3.379
 2330SOL    HW2 1942   2.606   3.154   3.238
 2331SOL     OW 1943   2.534   3.478   2.016
 2331SOL    HW1 1944   2.543   3.488   1.917
 2331SOL    HW2 1945   2.494   3.389   2.037
 2333SOL     OW 1946   3.703   2.037   2.825
 2333SOL    HW1 1947   3.742   1.952   2.789
 2333SOL    HW2 1948   3.605   2.039   2.806
 2334SOL     OW 1949   2.125   2.188   2.582
 2334SOL    HW1 1950   2.046   2.239   2.548
 2334SOL    HW2 1951   2.116   2.173   2.680
 2335SOL     OW 1952   3.056   3.474   1.893
 2335SOL    HW1 1953   3.062   3.381   1.930
 2335SOL    HW2 1954   2.997   3.474   1.813
 2336SOL     OW 1955   2.684   2.864   3.234
 2336SOL    HW1 1956   2.724   2.863   3.142
 2336SOL    HW2 1957   2.694   2.956   3.274
 2337SOL     OW 1958   2.778   2.772   2.153
 2337SOL    HW1 1959   2.841   2.810   2.085
 2337SOL    HW2 1960   2.818   2.689   2.192
 2338SOL     OW 1961   3.366   3.469   1.906
 2338SOL    HW1 1962   3.274   3.506   1.913
 2338SOL    HW2 1963   3.404   3.489   1.816
 2339SOL     OW 1964   2.234   3.150   3.352
 2339SOL    HW1 1965   2.221   3.243   3.318
 2339SOL    HW2 1966   2.150   3.098   3.339
 2340SOL     OW 1967   3.476   3.154   3.151
 2340SOL    HW1 1968   3.536   3.157   3.231
 2340SOL    HW2 1969   3.401   3.218   3.164
 2341SOL     OW 1970   2.901   2.960   2.558
 2341SOL    HW1 1971   2.831   2.913   2.612
 2341SOL    HW2 1972   2.960   2.892   2.515
 2342SOL     OW 1973   2.876   2.098   2.833
 2342SOL    HW1 1974   2.868   2.062   2.740
 2342SOL    HW2 1975   2.874   2.022   2.898
 2343SOL     OW 1976   2.452   3.349   2.353
 2343SOL    HW1 1977   2.494   3.291   2.283
 2343SOL    HW2 1978   2.408   3.428   2.309
 2344SOL     OW 1979   3.571   2.247   3.243
 2344SOL    HW1 1980   3.644   2.316   3.247
 2344SOL    HW2 1981   3.599   2.172   3.184
 2345SOL     OW 1982   2.117   3.210   2.152
 2345SOL    HW1 1983   2.021   3.211   2.125
 2345SOL    HW2 1984   2.129   3.263   2.236
 2346SOL     OW 1985   1.967   2.875   3.588
 2346SOL    HW1 1986   1.890   2.842   3.642
 2346SOL    HW2 1987   2.052   2.845   3.630
 2347SOL     OW 1988   2.534   2.065   3.351
 2347SOL    HW1 1989   2.624   2.049   3.311
 2347SOL    HW2 1990   2.542   2.070   3.450
 2348SOL     OW 1991   1.937   2.207   1.895
 2348SOL    HW1 1992   1.845   2.179   1.866
 2348SOL    HW2 1993   1.968   2.284   1.839
 2349SOL     OW 1994   3.302   2.718   3.260
 2349SOL    HW1 1995   3.245   2.770   3.197
 2349SOL    HW2 1996   3.398   2.730   3.236
 2350SOL     OW 1997   1.934   2.028   2.180
 2350SOL    HW1 1998   1.917   2.111   2.126
 2350SOL    HW2 1999   2.024   1.991   2.158
 2351SOL     OW 2000   3.045   3.197   1.981
 2351SOL    HW1 2001   2.946   3.186   1.983
 2351SOL    HW2 2002   3.079   3.212   2.074
 2352SOL     OW 2003   2.475   2.704   3.293
 2352SOL    HW1 2004   2.531   2.785   3.276
 2352SOL    HW2 2005   2.534   2.624   3.296
 2353SOL     OW 2006   3.355   3.629   2.821
 2353SOL    HW1 2007   3.388   3.693   2.752
 2353SOL    HW2 2008   3.421   3.623   2.896
 2354SOL     OW 2009   2.578   2.427   3.570
 2354SOL    HW1 2010   2.597   2.492   3.644
 2354SOL    HW2 2011   2.638   2.347   3.579
 2355SOL     OW 2012   3.312   3.082   3.495
 2355SOL    HW1 2013   3.303   3.072   3.594
 2355SOL    HW2 2014   3.408   3.075   3.469
 2356SOL     OW 2015   2.252   3.603   3.422
 2356SOL    HW1 2016   2.161   3.644   3.420
 2356SOL    HW2 2017   2.245   3.509   3.454
 2357SOL     OW 2018   3.536   2.745   3.116
 2357SOL    HW1 2019   3.509   2.656   3.079
 2357SOL    HW2 2020   3.537   2.813   3.043
 2358SOL     OW 2021   3.087   2.187   2.311
 2358SOL    HW1 2022   3.152   2.113   2.300
 2358SOL    HW2 2023   3.107   2.237   2.395
 2359SOL     OW 2024   3.639   2.204   3.504
 2359SOL    HW1 2025   3.622   2.235   3.410
 2359SOL    HW2 2026   3.555   2.167   3.542
 2360SOL     OW 2027   3.592   2.796   3.379
 2360SOL    HW1 2028   3.630   2.887   3.394
 2360SOL    HW2 2029   3.584   2.779   3.280
 2361SOL     OW 2030   2.721   3.236   1.878
 2361SOL    HW1 2031   2.675   3.251   1.966
 2361SOL    HW2 2032   2.765   3.321   1.848
 2362SOL     OW 2033   2.523   3.652   2.815
 2362SOL    HW1 2034   2.477   3.740   2.802
 2362SOL    HW2 2035   2.622   3.664   2.808
 2363SOL     OW 2036   2.721   2.818   2.723
 2363SOL    HW1 2037   2.775   2.749   2.771
 2363SOL    HW2 2038   2.689   2.887   2.789
 2364SOL     OW 2039   2.945   2.846   1.949
 2364SOL    HW1 2040   2.922   2.899   1.867
 2364SOL    HW2 2041   3.026   2.790   1.930
 2365SOL     OW 2042   3.723   3.431   2.713
 2365SOL    HW1 2043   3.652   3.419   2.643
 2365SOL    HW2 2044   3.724   3.352   2.773
 2366SOL     OW 2045   2.083   3.176   3.706
 2366SOL    HW1 2046   2.018   3.103   3.685
 2366SOL    HW2 2047   2.087   3.190   3.804
 2367SOL     OW 2048   1.941   3.102   2.515
 2367SOL    HW1 2049   1.940   3.055   2.603
 2367SOL    HW2 2050   2.023   3.074   2.464
 2368SOL     OW 2051   2.534   3.253   3.486
 2368SOL    HW1 2052   2.456   3.203   3.524
 2368SOL    HW2 2053   2.531   3.348   3.517
 2369SOL     OW 2054   3.686   2.054   3.089
 2369SOL    HW1 2055   3.682   1.964   3.133
 2369SOL    HW2 2056   3.689   2.043   2.990
 2370SOL     OW 2057   3.567   3.349   2.966
 2370SOL    HW1 2058   3.474   3.324   2.939
 2370SOL    HW2 2059   3.593   3.299   3.048
 2371SOL     OW 2060   2.179   2.409   3.142
 2371SOL    HW1 2061   2.217   2.350   3.214
 2371SOL    HW2 2062   2.219   2.383   3.054
 2372SOL     OW 2063   2.674   3.448   2.549
 2372SOL    HW1 2064   2.706   3.458   2.455
 2372SOL    HW2 2065   2.595   3.386   2.551
 2373SOL     OW 2066   3.286   2.076   2.974
 2373SOL    HW1 2067   3.338   2.011   3.029
 2373SOL    HW2 2068   3.237   2.139   3.035
 2374SOL     OW 2069   2.863   1.896   3.016
 2374SOL    HW1 2070   2.800   1.824   2.985
 2374SOL    HW2 2071   2.956   1.860   3.016
 2375SOL     OW 2072   2.632   3.192   2.163
 2375SOL    HW1 2073   2.586   3.105   2.180
 2375SOL    HW2 2074   2.723   3.189   2.204
 2376SOL     OW 2075   2.480   3.429   3.146
 2376SOL    HW1 2076   2.475   3.511   3.203
 2376SOL    HW2 2077   2.569   3.426   3.101
 2377SOL     OW 2078   3.214   1.914   2.030
 2377SOL    HW1 2079   3.249   1.873   1.946
 2377SOL    HW2 2080   3.124   1.876   2.050
 2378SOL     OW 2081   3.162   2.315   2.553
 2378SOL    HW1 2082   3.103   2.395   2.557
 2378SOL    HW2 2083   3.177   2.280   2.646
 2379SOL     OW 2084   3.455   2.083   2.744
 2379SOL    HW1 2085   3.371   2.082   2.798
 2379SOL    HW2 2086   3.457   2.166   2.688
 2380SOL     OW 2087   1.901   2.939   2.162
 2380SOL    HW1 2088   2.000   2.928   2.153
 2380SOL    HW2 2089   1.861   2.853   2.194
 2381SOL     OW 2090   2.737   3.508   2.199
 2381SOL    HW1 2091   2.660   3.473   2.145
 2381SOL    HW2 2092   2.705   3.579   2.261
 2382SOL     OW 2093   2.092   2.490   3.837
 2382SOL    HW1 2094   1.999   2.488   3.874
 2382SOL    HW2 2095   2.093   2.451   3.745
 2395SOL     OW 2096   2.468   2.826   3.847
 2395SOL    HW1 2097   2.475   2.910   3.793
 2395SOL    HW2 2098   2.514   2.839   3.935
 2406SOL     OW 2099   2.460   2.591   3.994
 2406SOL    HW1 2100   2.484   2.660   3.926
 2406SOL    HW2 2101   2.382   2.624   4.048
 2411SOL     OW 2102   2.727   2.210   3.919
 2411SOL    HW1 2103   2.786   2.273   3.870
 2411SOL    HW2 2104   2.746   2.116   3.890
 2417SOL     OW 2105   2.183   2.805   3.966
 2417SOL    HW1 2106   2.265   2.844   3.924
 2417SOL    HW2 2107   2.156   2.723   3.917
 2426SOL     OW 2108   2.476   1.984   3.841
 2426SOL    HW1 2109   2.574   1.962   3.848
 2426SOL    HW2 2110   2.445   1.967   3.748
 2430SOL     OW 2111   3.296   3.050   3.765
 2430SOL    HW1 2112   3.328   2.974   3.822
 2430SOL    HW2 2113   3.204   3.077   3.795
 2431SOL     OW 2114   2.159   1.897   3.895
 2431SOL    HW1 2115   2.208   1.981   3.874
 2431SOL    HW2 2116   2.221   1.832   3.940
 2436SOL     OW 2117   2.894   2.411   3.740
 2436SOL    HW1 2118   2.853   2.493   3.701
 2436SOL    HW2 2119   2.958   2.437   3.813
 2442SOL     OW 2120   2.350   3.247   3.898
 2442SOL    HW1 2121   2.263   3.232   3.945
 2442SOL    HW2 2122   2.333   3.273   3.803
 2444SOL     OW 2123   3.252   2.437   3.802
 2444SOL    HW1 2124   3.198   2.416   3.883
 2444SOL    HW2 2125   3.343   2.396   3.811
 2445SOL     OW 2126   2.389   2.118   4.052
 2445SOL    HW1 2127   2.416   2.059   3.977
 2445SOL    HW2 2128   2.389   2.213   4.021
 2447SOL     OW 2129   2.567   2.912   4.092
 2447SOL    HW1 2130   2.553   2.919   4.191
 2447SOL    HW2 2131   2.651   2.861   4.074
 2453SOL     OW 2132   3.071   2.387   3.999
 2453SOL    HW1 2133   3.084   2.303   4.053
 2453SOL    HW2 2134   3.042   2.461   4.059
 2458SOL     OW 2135   3.402   2.136   3.849
 2458SOL    HW1 2136   3.341   2.061   3.872
 2458SOL    HW2 2137   3.424   2.188   3.932
 2459SOL     OW 2138   3.165   2.700   3.766
 2459SOL    HW1 2139   3.199   2.607   3.781
 2459SOL    HW2 2140   3.183   2.727   3.671
 2463SOL     OW 2141   1.870   3.188   3.924
 2463SOL    HW1 2142   1.777   3.209   3.893
 2463SOL    HW2 2143   1.880   3.089   3.937
 2467SOL     OW 2144   2.677   2.434   4.049
 2467SOL    HW1 2145   2.684   2.345   4.003
 2467SOL    HW2 2146   2.583   2.468   4.041
 2469SOL     OW 2147   2.335   2.362   3.915
 2469SOL    HW1 2148   2.396   2.442   3.919
 2469SOL    HW2 2149   2.240   2.393   3.922
 2480SOL     OW 2150   2.778   2.772   4.015
 2480SOL    HW1 2151   2.841   2.810   3.947
 2480SOL    HW2 2152   2.818   2.689   4.054
 2485SOL     OW 2153   1.937   2.207   3.757
 2485SOL    HW1 2154   1.845   2.179   3.728
 2485SOL    HW2 2155   1.968   2.284   3.701
 2486SOL     OW 2156   1.934   2.028   4.042
 2486SOL    HW1 2157   1.917   2.111   3.988
 2486SOL    HW2 2158   2.024   1.991   4.020
 2487SOL     OW 2159   3.045   3.197   3.843
 2487SOL    HW1 2160   2.946   3.186   3.845
 2487SOL    HW2 2161   3.079   3.212   3.936
 2491SOL     OW 2162   2.721   3.236   3.740
 2491SOL    HW1 2163   2.675   3.251   3.828
 2491SOL    HW2 2164   2.765   3.321   3.710
 2494SOL     OW 2165   2.945   2.846   3.811
 2494SOL    HW1 2166   2.922   2.899   3.729
 2494SOL    HW2 2167   3.026   2.790   3.792
 2501SOL     OW 2168   3.214   1.914   3.892
 2501SOL    HW1 2169   3.249   1.873   3.808
 2501SOL    HW2 2170   3.124   1.876   3.912
 2504SOL     OW 2171   1.901   2.939   4.024
 2504SOL    HW1 2172   2.000   2.928   4.015
 2504SOL    HW2 2173   1.861   2.853   4.056
 2525SOL     OW 2174   2.179   3.975   1.801
 2525SOL    HW1 2175   2.250   4.046   1.807
 2525SOL    HW2 2176   2.091   4.014   1.829
 2543SOL     OW 2177   2.643   3.988   1.749
 2543SOL    HW1 2178   2.710   3.927   1.792
 2543SOL    HW2 2179   2.570   4.007   1.814
 2560SOL     OW 2180   2.777   3.813   1.402
 2560SOL    HW1 2181   2.802   3.793   1.307
 2560SOL    HW2 2182   2.849   3.869   1.444
 2567SOL     OW 2183   2.875   3.829   1.770
 2567SOL    HW1 2184   2.881   3.914   1.718
 2567SOL    HW2 2185   2.907   3.753   1.713
 2568SOL     OW 2186   2.366   3.774   1.740
 2568SOL    HW1 2187   2.324   3.717   1.670
 2568SOL    HW2 2188   2.300   3.843   1.772
 2605SOL     OW 2189   2.534   3.927   1.489
 2605SOL    HW1 2190   2.624   3.911   1.449
 2605SOL    HW2 2191   2.542   3.932   1.588
 2630SOL     OW 2192   2.087   3.999   2.858
 2630SOL    HW1 2193   2.122   3.982   2.950
 2630SOL    HW2 2194   1.999   3.954   2.846
 2631SOL     OW 2195   1.881   4.092   2.509
 2631SOL    HW1 2196   1.799   4.135   2.548
 2631SOL    HW2 2197   1.853   4.019   2.446
 2645SOL     OW 2198   2.671   3.728   2.364
 2645SOL    HW1 2199   2.711   3.819   2.355
 2645SOL    HW2 2200   2.571   3.736   2.370
 2657SOL     OW 2201   2.727   4.072   2.057
 2657SOL    HW1 2202   2.786   4.135   2.008
 2657SOL    HW2 2203   2.746   3.978   2.028
 2659SOL     OW 2204   2.412   3.920   2.747
 2659SOL    HW1 2205   2.407   3.915   2.847
 2659SOL    HW2 2206   2.414   4.016   2.718
 2662SOL     OW 2207   3.262   3.831   2.288
 2662SOL    HW1 2208   3.238   3.794   2.198
 2662SOL    HW2 2209   3.361   3.847   2.292
 2665SOL     OW 2210   2.476   3.846   1.979
 2665SOL    HW1 2211   2.574   3.824   1.986
 2665SOL    HW2 2212   2.445   3.829   1.886
 2669SOL     OW 2213   2.401   3.788   2.374
 2669SOL    HW1 2214   2.320   3.789   2.432
 2669SOL    HW2 2215   2.404   3.871   2.319
 2670SOL     OW 2216   2.159   3.759   2.033
 2670SOL    HW1 2217   2.208   3.843   2.012
 2670SOL    HW2 2218   2.221   3.694   2.078
 2671SOL     OW 2219   2.797   3.960   2.342
 2671SOL    HW1 2220   2.749   4.001   2.264
 2671SOL    HW2 2221   2.896   3.958   2.323
 2675SOL     OW 2222   2.423   3.946   3.009
 2675SOL    HW1 2223   2.461   3.862   3.046
 2675SOL    HW2 2224   2.335   3.965   3.053
 2677SOL     OW 2225   2.879   3.763   2.615
 2677SOL    HW1 2226   2.807   3.768   2.546
 2677SOL    HW2 2227   2.855   3.694   2.684
 2682SOL     OW 2228   2.389   3.980   2.190
 2682SOL    HW1 2229   2.416   3.921   2.115
 2682SOL    HW2 2230   2.389   4.075   2.159
 2684SOL     OW 2231   2.777   3.813   3.264
 2684SOL    HW1 2232   2.802   3.793   3.169
 2684SOL    HW2 2233   2.849   3.869   3.306
 2696SOL     OW 2234   2.169   3.937   3.093
 2696SOL    HW1 2235   2.146   3.974   3.183
 2696SOL    HW2 2236   2.139   3.842   3.087
 2699SOL     OW 2237   2.169   3.787   2.480
 2699SOL    HW1 2238   2.158   3.881   2.513
 2699SOL    HW2 2239   2.164   3.724   2.557
 2723SOL     OW 2240   2.125   4.050   2.582
 2723SOL    HW1 2241   2.046   4.101   2.548
 2723SOL    HW2 2242   2.116   4.035   2.680
 2725SOL     OW 2243   2.876   3.960   2.833
 2725SOL    HW1 2244   2.868   3.924   2.740
 2725SOL    HW2 2245   2.874   3.884   2.898
 2728SOL     OW 2246   2.534   3.927   3.351
 2728SOL    HW1 2247   2.624   3.911   3.311
 2728SOL    HW2 2248   2.542   3.932   3.450
 2731SOL     OW 2249   1.934   3.890   2.180
 2731SOL    HW1 2250   1.917   3.973   2.126
 2731SOL    HW2 2251   2.024   3.853   2.158
 2736SOL     OW 2252   3.087   4.049   2.311
 2736SOL    HW1 2253   3.152   3.975   2.300
 2736SOL    HW2 2254   3.107   4.099   2.395
 2744SOL     OW 2255   2.290   4.148   2.382
 2744SOL    HW1 2256   2.320   4.076   2.320
 2744SOL    HW2 2257   2.251   4.108   2.465
 2747SOL     OW 2258   2.863   3.758   3.016
 2747SOL    HW1 2259   2.800   3.686   2.985
 2747SOL    HW2 2260   2.956   3.722   3.016
 2748SOL     OW 2261   3.214   3.776   2.030
 2748SOL    HW1 2262   3.249   3.735   1.946
 2748SOL    HW2 2263   3.124   3.738   2.050
 2852SOL     OW 2264   3.854   1.821   1.571
 2852SOL    HW1 2265   3.844   1.806   1.670
 2852SOL    HW2 2266   3.768   1.857   1.535
 2918SOL     OW 2267   3.854   1.794   1.851
 2918SOL    HW1 2268   3.813   1.720   1.904
 2918SOL    HW2 2269   3.918   1.845   1.909
 2964SOL     OW 2270   3.955   1.713   2.345
 2964SOL    HW1 2271   3.989   1.790   2.399
 2964SOL    HW2 2272   3.999   1.713   2.255
 2970SOL     OW 2273   3.751   1.596   1.979
 2970SOL    HW1 2274   3.732   1.500   2.000
 2970SOL    HW2 2275   3.718   1.654   2.054
 3031SOL     OW 2276   3.732   1.326   2.062
 3031SOL    HW1 2277   3.639   1.347   2.031
 3031SOL    HW2 2278   3.742   1.227   2.075
 3032SOL     OW 2279   3.812   1.801   2.789
 3032SOL    HW1 2280   3.770   1.715   2.762
 3032SOL    HW2 2281   3.906   1.804   2.755
 3171SOL     OW 2282   3.837   2.599   1.597
 3171SOL    HW1 2283   3.925   2.586   1.642
 3171SOL    HW2 2284   3.824   2.696   1.575
 3175SOL     OW 2285   4.041   2.113   1.801
 3175SOL    HW1 2286   4.112   2.184   1.807
 3175SOL    HW2 2287   3.953   2.152   1.829
 3188SOL     OW 2288   3.926   2.147   1.498
 3188SOL    HW1 2289   3.846   2.207   1.485
 3188SOL    HW2 2290   3.916   2.098   1.584
 3203SOL     OW 2291   3.802   2.418   1.386
 3203SOL    HW1 2292   3.894   2.417   1.345
 3203SOL    HW2 2293   3.796   2.492   1.453
 3236SOL     OW 2294   3.913   2.382   1.722
 3236SOL    HW1 2295   3.972   2.342   1.652
 3236SOL    HW2 2296   3.855   2.453   1.681
 3258SOL     OW 2297   3.829   2.875   1.726
 3258SOL    HW1 2298   3.752   2.842   1.780
 3258SOL    HW2 2299   3.914   2.845   1.768
 3282SOL     OW 2300   3.954   2.490   1.975
 3282SOL    HW1 2301   3.861   2.488   2.012
 3282SOL    HW2 2302   3.955   2.451   1.883
 3283SOL     OW 2303   3.949   2.137   2.858
 3283SOL    HW1 2304   3.984   2.120   2.950
 3283SOL    HW2 2305   3.861   2.092   2.846
 3284SOL     OW 2306   3.743   2.230   2.509
 3284SOL    HW1 2307   3.661   2.273   2.548
 3284SOL    HW2 2308   3.715   2.157   2.446
 3293SOL     OW 2309   3.954   3.296   2.400
 3293SOL    HW1 2310   3.928   3.392   2.400
 3293SOL    HW2 2311   3.883   3.242   2.445
 3294SOL     OW 2312   3.964   2.953   2.748
 3294SOL    HW1 2313   3.978   2.869   2.800
 3294SOL    HW2 2314   3.909   3.017   2.803
 3297SOL     OW 2315   3.846   2.505   2.425
 3297SOL    HW1 2316   3.801   2.417   2.442
 3297SOL    HW2 2317   3.845   2.559   2.509
 3298SOL     OW 2318   3.751   3.458   1.979
 3298SOL    HW1 2319   3.732   3.362   2.000
 3298SOL    HW2 2320   3.718   3.516   2.054
 3299SOL     OW 2321   3.837   2.599   3.459
 3299SOL    HW1 2322   3.925   2.586   3.504
 3299SOL    HW2 2323   3.824   2.696   3.437
 3302SOL     OW 2324   3.921   2.838   3.126
 3302SOL    HW1 2325   4.010   2.793   3.112
 3302SOL    HW2 2326   3.848   2.773   3.107
 3308SOL     OW 2327   3.800   2.673   2.651
 3308SOL    HW1 2328   3.899   2.661   2.660
 3308SOL    HW2 2329   3.776   2.768   2.672
 3314SOL     OW 2330   4.045   2.805   2.104
 3314SOL    HW1 2331   4.127   2.844   2.062
 3314SOL    HW2 2332   4.018   2.723   2.055
 3319SOL     OW 2333   4.106   2.562   2.342
 3319SOL    HW1 2334   4.151   2.472   2.339
 3319SOL    HW2 2335   4.012   2.551   2.375
 3326SOL     OW 2336   4.021   1.897   2.033
 3326SOL    HW1 2337   4.070   1.981   2.012
 3326SOL    HW2 2338   4.083   1.832   2.078
 3331SOL     OW 2339   3.802   2.418   3.248
 3331SOL    HW1 2340   3.894   2.417   3.207
 3331SOL    HW2 2341   3.796   2.492   3.315
 3342SOL     OW 2342   4.091   2.962   2.363
 3342SOL    HW1 2343   4.084   3.045   2.307
 3342SOL    HW2 2344   4.095   2.882   2.303
 3350SOL     OW 2345   4.031   2.075   3.093
 3350SOL    HW1 2346   4.008   2.112   3.183
 3350SOL    HW2 2347   4.001   1.980   3.087
 3351SOL     OW 2348   3.761   3.172   3.144
 3351SOL    HW1 2349   3.814   3.123   3.212
 3351SOL    HW2 2350   3.783   3.270   3.149
 3353SOL     OW 2351   4.031   1.925   2.480
 3353SOL    HW1 2352   4.020   2.019   2.513
 3353SOL    HW2 2353   4.026   1.862   2.557
 3357SOL     OW 2354   4.043   2.672   2.811
 3357SOL    HW1 2355   4.136   2.708   2.816
 3357SOL    HW2 2356   4.037   2.587   2.863
 3358SOL     OW 2357   4.063   2.371   2.868
 3358SOL    HW1 2358   4.011   2.288   2.851
 3358SOL    HW2 2359   4.140   2.376   2.804
 3359SOL     OW 2360   3.732   3.188   2.062
 3359SOL    HW1 2361   3.639   3.209   2.031
 3359SOL    HW2 2362   3.742   3.089   2.075
 3363SOL     OW 2363   3.764   2.406   2.976
 3363SOL    HW1 2364   3.849   2.373   2.935
 3363SOL    HW2 2365   3.777   2.421   3.074
 3371SOL     OW 2366   3.807   3.120   2.884
 3371SOL    HW1 2367   3.802   3.119   2.984
 3371SOL    HW2 2368   3.724   3.079   2.846
 3377SOL     OW 2369   3.987   2.188   2.582
 3377SOL    HW1 2370   3.908   2.239   2.548
 3377SOL    HW2 2371   3.978   2.173   2.680
 3384SOL     OW 2372   3.979   3.210   2.152
 3384SOL    HW1 2373   3.883   3.211   2.125
 3384SOL    HW2 2374   3.991   3.263   2.236
 3387SOL     OW 2375   3.799   2.207   1.895
 3387SOL    HW1 2376   3.707   2.179   1.866
 3387SOL    HW2 2377   3.830   2.284   1.839
 3388SOL     OW 2378   3.796   2.028   2.180
 3388SOL    HW1 2379   3.779   2.111   2.126
 3388SOL    HW2 2380   3.886   1.991   2.158
 3398SOL     OW 2381   3.803   3.102   2.515
 3398SOL    HW1 2382   3.802   3.055   2.603
 3398SOL    HW2 2383   3.885   3.074   2.464
 3400SOL     OW 2384   4.152   2.286   2.382
 3400SOL    HW1 2385   4.182   2.214   2.320
 3400SOL    HW2 2386   4.113   2.246   2.465
 3401SOL     OW 2387   4.041   2.409   3.142
 3401SOL    HW1 2388   4.079   2.350   3.214
 3401SOL    HW2 2389   4.081   2.383   3.054
 3406SOL     OW 2390   3.763   2.939   2.162
 3406SOL    HW1 2391   3.862   2.928   2.153
 3406SOL    HW2 2392   3.723   2.853   2.194
   4.80679   4.80679   4.80679
