; mobley_210639_GMX.itp created by acpype (v: 2023.10.27) on Thu May 21 00:12:09 2026

[ atomtypes ]
;name   bond_type     mass     charge   ptype   sigma         epsilon       Amb
 c3       c3          0.00000  0.00000   A     3.39771e-01   4.51035e-01 ; 1.91  0.1078
 i        i           0.00000  0.00000   A     3.84120e-01   2.07317e+00 ; 2.16  0.4955
 hc       hc          0.00000  0.00000   A     2.60018e-01   8.70272e-02 ; 1.46  0.0208
 h1       h1          0.00000  0.00000   A     2.42200e-01   8.70272e-02 ; 1.36  0.0208

[ moleculetype ]
;name            nrexcl
 mobley_210639    3

[ atoms ]
;   nr  type  resi  res  atom  cgnr     charge      mass       ; qtot   bond_type
     1   c3     1   MOL    C1    1    -0.092100     12.01000 ; qtot -0.092
     2   c3     1   MOL    C2    2    -0.092100     12.01000 ; qtot -0.184
     3   c3     1   MOL    C3    3     0.099200     12.01000 ; qtot -0.085
     4    i     1   MOL    I1    4    -0.266902    126.90000 ; qtot -0.352
     5   hc     1   MOL    H1    5     0.046367      1.00800 ; qtot -0.306
     6   hc     1   MOL    H2    6     0.046367      1.00800 ; qtot -0.259
     7   hc     1   MOL    H3    7     0.046367      1.00800 ; qtot -0.213
     8   hc     1   MOL    H4    8     0.046367      1.00800 ; qtot -0.166
     9   hc     1   MOL    H5    9     0.046367      1.00800 ; qtot -0.120
    10   hc     1   MOL    H6   10     0.046367      1.00800 ; qtot -0.074
    11   h1     1   MOL    H7   11     0.073700      1.00800 ; qtot 0.000

[ bonds ]
;   ai     aj funct   r             k
     1      3   1    1.5354e-01    1.9154e+05 ;     C1 - C3    
     1      5   1    1.0962e-01    2.8891e+05 ;     C1 - H1    
     1      6   1    1.0962e-01    2.8891e+05 ;     C1 - H2    
     1      7   1    1.0962e-01    2.8891e+05 ;     C1 - H3    
     2      3   1    1.5354e-01    1.9154e+05 ;     C2 - C3    
     2      8   1    1.0962e-01    2.8891e+05 ;     C2 - H4    
     2      9   1    1.0962e-01    2.8891e+05 ;     C2 - H5    
     2     10   1    1.0962e-01    2.8891e+05 ;     C2 - H6    
     3      4   1    2.2260e-01    7.7295e+04 ;     C3 - I1    
     3     11   1    1.0969e-01    2.8804e+05 ;     C3 - H7    

[ pairs ]
;   ai     aj    funct
     1      8      1 ;     C1 - H4    
     1      9      1 ;     C1 - H5    
     1     10      1 ;     C1 - H6    
     4      8      1 ;     I1 - H4    
     4      9      1 ;     I1 - H5    
     4     10      1 ;     I1 - H6    
     5      2      1 ;     H1 - C2    
     5      4      1 ;     H1 - I1    
     5     11      1 ;     H1 - H7    
     6      2      1 ;     H2 - C2    
     6      4      1 ;     H2 - I1    
     6     11      1 ;     H2 - H7    
     7      2      1 ;     H3 - C2    
     7      4      1 ;     H3 - I1    
     7     11      1 ;     H3 - H7    
     8     11      1 ;     H4 - H7    
     9     11      1 ;     H5 - H7    
    10     11      1 ;     H6 - H7    

[ angles ]
;   ai     aj     ak    funct   theta         cth
     1      3      2      1    1.1263e+02    5.0099e+02 ;     C1 - C3     - C2    
     1      3      4      1    1.1144e+02    4.8785e+02 ;     C1 - C3     - I1    
     1      3     11      1    1.0959e+02    3.6217e+02 ;     C1 - C3     - H7    
     2      3      4      1    1.1144e+02    4.8785e+02 ;     C2 - C3     - I1    
     2      3     11      1    1.0959e+02    3.6217e+02 ;     C2 - C3     - H7    
     3      1      5      1    1.0968e+02    3.6208e+02 ;     C3 - C1     - H1    
     3      1      6      1    1.0968e+02    3.6208e+02 ;     C3 - C1     - H2    
     3      1      7      1    1.0968e+02    3.6208e+02 ;     C3 - C1     - H3    
     3      2      8      1    1.0968e+02    3.6208e+02 ;     C3 - C2     - H4    
     3      2      9      1    1.0968e+02    3.6208e+02 ;     C3 - C2     - H5    
     3      2     10      1    1.0968e+02    3.6208e+02 ;     C3 - C2     - H6    
     4      3     11      1    1.0437e+02    3.1313e+02 ;     I1 - C3     - H7    
     5      1      6      1    1.0773e+02    2.9957e+02 ;     H1 - C1     - H2    
     5      1      7      1    1.0773e+02    2.9957e+02 ;     H1 - C1     - H3    
     6      1      7      1    1.0773e+02    2.9957e+02 ;     H2 - C1     - H3    
     8      2      9      1    1.0773e+02    2.9957e+02 ;     H4 - C2     - H5    
     8      2     10      1    1.0773e+02    2.9957e+02 ;     H4 - C2     - H6    
     9      2     10      1    1.0773e+02    2.9957e+02 ;     H5 - C2     - H6    

[ dihedrals ] ; propers
; for gromacs 4.5 or higher, using funct 9
;    i      j      k      l   func   phase     kd      pn
     1      3      2      8      9     0.00   0.54392   3 ;     C1-    C3-    C2-    H4
     1      3      2      9      9     0.00   0.54392   3 ;     C1-    C3-    C2-    H5
     1      3      2     10      9     0.00   0.54392   3 ;     C1-    C3-    C2-    H6
     4      3      2      8      9     0.00   0.96232   3 ;     I1-    C3-    C2-    H4
     4      3      2      9      9     0.00   0.96232   3 ;     I1-    C3-    C2-    H5
     4      3      2     10      9     0.00   0.96232   3 ;     I1-    C3-    C2-    H6
     5      1      3      2      9     0.00   0.54392   3 ;     H1-    C1-    C3-    C2
     5      1      3      4      9     0.00   0.96232   3 ;     H1-    C1-    C3-    I1
     5      1      3     11      9     0.00   0.65084   3 ;     H1-    C1-    C3-    H7
     6      1      3      2      9     0.00   0.54392   3 ;     H2-    C1-    C3-    C2
     6      1      3      4      9     0.00   0.96232   3 ;     H2-    C1-    C3-    I1
     6      1      3     11      9     0.00   0.65084   3 ;     H2-    C1-    C3-    H7
     7      1      3      2      9     0.00   0.54392   3 ;     H3-    C1-    C3-    C2
     7      1      3      4      9     0.00   0.96232   3 ;     H3-    C1-    C3-    I1
     7      1      3     11      9     0.00   0.65084   3 ;     H3-    C1-    C3-    H7
     8      2      3     11      9     0.00   0.65084   3 ;     H4-    C2-    C3-    H7
     9      2      3     11      9     0.00   0.65084   3 ;     H5-    C2-    C3-    H7
    10      2      3     11      9     0.00   0.65084   3 ;     H6-    C2-    C3-    H7
