; mobley_6115639_GMX.itp created by acpype (v: 2023.10.27) on Thu May 21 00:07:31 2026

[ atomtypes ]
;name   bond_type     mass     charge   ptype   sigma         epsilon       Amb
 c3       c3          0.00000  0.00000   A     3.39771e-01   4.51035e-01 ; 1.91  0.1078
 o        o           0.00000  0.00000   A     3.04812e-01   6.12119e-01 ; 1.71  0.1463
 os       os          0.00000  0.00000   A     3.15610e-01   3.03758e-01 ; 1.77  0.0726
 p5       p5          0.00000  0.00000   A     3.69402e-01   9.60228e-01 ; 2.07  0.2295
 h1       h1          0.00000  0.00000   A     2.42200e-01   8.70272e-02 ; 1.36  0.0208

[ moleculetype ]
;name            nrexcl
 mobley_6115639   3

[ atoms ]
;   nr  type  resi  res  atom  cgnr     charge      mass       ; qtot   bond_type
     1   c3     1   MOL    C1    1     0.150700     12.01000 ; qtot 0.151
     2   c3     1   MOL    C2    2     0.150700     12.01000 ; qtot 0.301
     3   c3     1   MOL    C3    3     0.150700     12.01000 ; qtot 0.452
     4    o     1   MOL    O1    4    -0.801300     16.00000 ; qtot -0.349
     5   os     1   MOL    O2    5    -0.570200     16.00000 ; qtot -0.919
     6   os     1   MOL    O3    6    -0.570200     16.00000 ; qtot -1.490
     7   os     1   MOL    O4    7    -0.570200     16.00000 ; qtot -2.060
     8   p5     1   MOL    P1    8     1.607496     30.97000 ; qtot -0.452
     9   h1     1   MOL    H1    9     0.050256      1.00800 ; qtot -0.402
    10   h1     1   MOL    H2   10     0.050256      1.00800 ; qtot -0.352
    11   h1     1   MOL    H3   11     0.050256      1.00800 ; qtot -0.302
    12   h1     1   MOL    H4   12     0.050256      1.00800 ; qtot -0.251
    13   h1     1   MOL    H5   13     0.050256      1.00800 ; qtot -0.201
    14   h1     1   MOL    H6   14     0.050256      1.00800 ; qtot -0.151
    15   h1     1   MOL    H7   15     0.050256      1.00800 ; qtot -0.101
    16   h1     1   MOL    H8   16     0.050256      1.00800 ; qtot -0.050
    17   h1     1   MOL    H9   17     0.050256      1.00800 ; qtot 0.000

[ bonds ]
;   ai     aj funct   r             k
     1      5   1    1.4273e-01    2.3620e+05 ;     C1 - O2    
     1      9   1    1.0969e-01    2.8804e+05 ;     C1 - H1    
     1     10   1    1.0969e-01    2.8804e+05 ;     C1 - H2    
     1     11   1    1.0969e-01    2.8804e+05 ;     C1 - H3    
     2      6   1    1.4273e-01    2.3620e+05 ;     C2 - O3    
     2     12   1    1.0969e-01    2.8804e+05 ;     C2 - H4    
     2     13   1    1.0969e-01    2.8804e+05 ;     C2 - H5    
     2     14   1    1.0969e-01    2.8804e+05 ;     C2 - H6    
     3      7   1    1.4273e-01    2.3620e+05 ;     C3 - O4    
     3     15   1    1.0969e-01    2.8804e+05 ;     C3 - H7    
     3     16   1    1.0969e-01    2.8804e+05 ;     C3 - H8    
     3     17   1    1.0969e-01    2.8804e+05 ;     C3 - H9    
     4      8   1    1.4885e-01    4.7951e+05 ;     O1 - P1    
     5      8   1    1.6182e-01    3.2434e+05 ;     O2 - P1    
     6      8   1    1.6182e-01    3.2434e+05 ;     O3 - P1    
     7      8   1    1.6182e-01    3.2434e+05 ;     O4 - P1    

[ pairs ]
;   ai     aj    funct
     1      4      1 ;     C1 - O1    
     1      6      1 ;     C1 - O3    
     1      7      1 ;     C1 - O4    
     2      4      1 ;     C2 - O1    
     2      5      1 ;     C2 - O2    
     2      7      1 ;     C2 - O4    
     3      4      1 ;     C3 - O1    
     3      5      1 ;     C3 - O2    
     3      6      1 ;     C3 - O3    
     8     12      1 ;     P1 - H4    
     8     13      1 ;     P1 - H5    
     8     14      1 ;     P1 - H6    
     8     15      1 ;     P1 - H7    
     8     16      1 ;     P1 - H8    
     8     17      1 ;     P1 - H9    
     9      8      1 ;     H1 - P1    
    10      8      1 ;     H2 - P1    
    11      8      1 ;     H3 - P1    

[ angles ]
;   ai     aj     ak    funct   theta         cth
     1      5      8      1    1.1970e+02    4.7396e+02 ;     C1 - O2     - P1    
     2      6      8      1    1.1970e+02    4.7396e+02 ;     C2 - O3     - P1    
     3      7      8      1    1.1970e+02    4.7396e+02 ;     C3 - O4     - P1    
     4      8      5      1    1.1544e+02    8.3931e+02 ;     O1 - P1     - O2    
     4      8      6      1    1.1544e+02    8.3931e+02 ;     O1 - P1     - O3    
     4      8      7      1    1.1544e+02    8.3931e+02 ;     O1 - P1     - O4    
     5      1      9      1    1.1034e+02    4.7028e+02 ;     O2 - C1     - H1    
     5      1     10      1    1.1034e+02    4.7028e+02 ;     O2 - C1     - H2    
     5      1     11      1    1.1034e+02    4.7028e+02 ;     O2 - C1     - H3    
     5      8      6      1    1.0172e+02    8.6123e+02 ;     O2 - P1     - O3    
     5      8      7      1    1.0172e+02    8.6123e+02 ;     O2 - P1     - O4    
     6      2     12      1    1.1034e+02    4.7028e+02 ;     O3 - C2     - H4    
     6      2     13      1    1.1034e+02    4.7028e+02 ;     O3 - C2     - H5    
     6      2     14      1    1.1034e+02    4.7028e+02 ;     O3 - C2     - H6    
     6      8      7      1    1.0172e+02    8.6123e+02 ;     O3 - P1     - O4    
     7      3     15      1    1.1034e+02    4.7028e+02 ;     O4 - C3     - H7    
     7      3     16      1    1.1034e+02    4.7028e+02 ;     O4 - C3     - H8    
     7      3     17      1    1.1034e+02    4.7028e+02 ;     O4 - C3     - H9    
     9      1     10      1    1.0855e+02    2.9824e+02 ;     H1 - C1     - H2    
     9      1     11      1    1.0855e+02    2.9824e+02 ;     H1 - C1     - H3    
    10      1     11      1    1.0855e+02    2.9824e+02 ;     H2 - C1     - H3    
    12      2     13      1    1.0855e+02    2.9824e+02 ;     H4 - C2     - H5    
    12      2     14      1    1.0855e+02    2.9824e+02 ;     H4 - C2     - H6    
    13      2     14      1    1.0855e+02    2.9824e+02 ;     H5 - C2     - H6    
    15      3     16      1    1.0855e+02    2.9824e+02 ;     H7 - C3     - H8    
    15      3     17      1    1.0855e+02    2.9824e+02 ;     H7 - C3     - H9    
    16      3     17      1    1.0855e+02    2.9824e+02 ;     H8 - C3     - H9    

[ dihedrals ] ; propers
; for gromacs 4.5 or higher, using funct 9
;    i      j      k      l   func   phase     kd      pn
     1      5      8      4      9     0.00   2.30120   3 ;     C1-    O2-    P1-    O1
     1      5      8      4      9     0.00   3.34720   2 ;     C1-    O2-    P1-    O1
     1      5      8      6      9     0.00  14.72768   2 ;     C1-    O2-    P1-    O3
     1      5      8      7      9     0.00  14.72768   2 ;     C1-    O2-    P1-    O4
     2      6      8      4      9     0.00   2.30120   3 ;     C2-    O3-    P1-    O1
     2      6      8      4      9     0.00   3.34720   2 ;     C2-    O3-    P1-    O1
     2      6      8      5      9     0.00  14.72768   2 ;     C2-    O3-    P1-    O2
     2      6      8      7      9     0.00  14.72768   2 ;     C2-    O3-    P1-    O4
     3      7      8      4      9     0.00   2.30120   3 ;     C3-    O4-    P1-    O1
     3      7      8      4      9     0.00   3.34720   2 ;     C3-    O4-    P1-    O1
     3      7      8      5      9     0.00  14.72768   2 ;     C3-    O4-    P1-    O2
     3      7      8      6      9     0.00  14.72768   2 ;     C3-    O4-    P1-    O3
     8      6      2     12      9     0.00   0.00000   0 ;     P1-    O3-    C2-    H4
     8      6      2     13      9     0.00   0.00000   0 ;     P1-    O3-    C2-    H5
     8      6      2     14      9     0.00   0.00000   0 ;     P1-    O3-    C2-    H6
     8      7      3     15      9     0.00   0.00000   0 ;     P1-    O4-    C3-    H7
     8      7      3     16      9     0.00   0.00000   0 ;     P1-    O4-    C3-    H8
     8      7      3     17      9     0.00   0.00000   0 ;     P1-    O4-    C3-    H9
     9      1      5      8      9     0.00   0.00000   0 ;     H1-    C1-    O2-    P1
    10      1      5      8      9     0.00   0.00000   0 ;     H2-    C1-    O2-    P1
    11      1      5      8      9     0.00   0.00000   0 ;     H3-    C1-    O2-    P1
