; mobley_3211679_GMX.itp created by acpype (v: 2023.10.27) on Thu May 21 00:17:27 2026

[ atomtypes ]
;name   bond_type     mass     charge   ptype   sigma         epsilon       Amb
 c2       c2          0.00000  0.00000   A     3.31521e-01   4.13379e-01 ; 1.86  0.0988
 c6       c6          0.00000  0.00000   A     3.39771e-01   4.51035e-01 ; 1.91  0.1078
 ha       ha          0.00000  0.00000   A     2.62548e-01   6.73624e-02 ; 1.47  0.0161
 hc       hc          0.00000  0.00000   A     2.60018e-01   8.70272e-02 ; 1.46  0.0208

[ moleculetype ]
;name            nrexcl
 mobley_3211679   3

[ atoms ]
;   nr  type  resi  res  atom  cgnr     charge      mass       ; qtot   bond_type
     1   c2     1   MOL    C1    1    -0.171200     12.01000 ; qtot -0.171
     2   c2     1   MOL    C2    2    -0.171200     12.01000 ; qtot -0.342
     3   c6     1   MOL    C3    3    -0.046200     12.01000 ; qtot -0.389
     4   c6     1   MOL    C4    4    -0.046200     12.01000 ; qtot -0.435
     5   c6     1   MOL    C5    5    -0.075400     12.01000 ; qtot -0.510
     6   c6     1   MOL    C6    6    -0.075400     12.01000 ; qtot -0.586
     7   ha     1   MOL    H1    7     0.119000      1.00800 ; qtot -0.467
     8   ha     1   MOL    H2    8     0.119000      1.00800 ; qtot -0.348
     9   hc     1   MOL    H3    9     0.046700      1.00800 ; qtot -0.301
    10   hc     1   MOL    H4   10     0.046700      1.00800 ; qtot -0.254
    11   hc     1   MOL    H5   11     0.046700      1.00800 ; qtot -0.208
    12   hc     1   MOL    H6   12     0.046700      1.00800 ; qtot -0.161
    13   hc     1   MOL    H7   13     0.040200      1.00800 ; qtot -0.121
    14   hc     1   MOL    H8   14     0.040200      1.00800 ; qtot -0.080
    15   hc     1   MOL    H9   15     0.040200      1.00800 ; qtot -0.040
    16   hc     1   MOL   H10   16     0.040200      1.00800 ; qtot -0.000

[ bonds ]
;   ai     aj funct   r             k
     1      2   1    1.3379e-01    3.6484e+05 ;     C1 - C2    
     1      3   1    1.5133e-01    2.0498e+05 ;     C1 - C3    
     1      7   1    1.0882e-01    2.9898e+05 ;     C1 - H1    
     2      4   1    1.5133e-01    2.0498e+05 ;     C2 - C4    
     2      8   1    1.0882e-01    2.9898e+05 ;     C2 - H2    
     3      5   1    1.5384e-01    1.8979e+05 ;     C3 - C5    
     3      9   1    1.0979e-01    2.8681e+05 ;     C3 - H3    
     3     10   1    1.0979e-01    2.8681e+05 ;     C3 - H4    
     4      6   1    1.5384e-01    1.8979e+05 ;     C4 - C6    
     4     11   1    1.0979e-01    2.8681e+05 ;     C4 - H5    
     4     12   1    1.0979e-01    2.8681e+05 ;     C4 - H6    
     5      6   1    1.5384e-01    1.8979e+05 ;     C5 - C6    
     5     13   1    1.0979e-01    2.8681e+05 ;     C5 - H7    
     5     14   1    1.0979e-01    2.8681e+05 ;     C5 - H8    
     6     15   1    1.0979e-01    2.8681e+05 ;     C6 - H9    
     6     16   1    1.0979e-01    2.8681e+05 ;     C6 - H10   

[ pairs ]
;   ai     aj    funct
     1      6      1 ;     C1 - C6    
     1     11      1 ;     C1 - H5    
     1     12      1 ;     C1 - H6    
     1     13      1 ;     C1 - H7    
     1     14      1 ;     C1 - H8    
     2      5      1 ;     C2 - C5    
     2      9      1 ;     C2 - H3    
     2     10      1 ;     C2 - H4    
     2     15      1 ;     C2 - H9    
     2     16      1 ;     C2 - H10   
     3      4      1 ;     C3 - C4    
     3      8      1 ;     C3 - H2    
     3     15      1 ;     C3 - H9    
     3     16      1 ;     C3 - H10   
     4     13      1 ;     C4 - H7    
     4     14      1 ;     C4 - H8    
     5     11      1 ;     C5 - H5    
     5     12      1 ;     C5 - H6    
     6      8      1 ;     C6 - H2    
     6      9      1 ;     C6 - H3    
     6     10      1 ;     C6 - H4    
     7      4      1 ;     H1 - C4    
     7      5      1 ;     H1 - C5    
     7      8      1 ;     H1 - H2    
     7      9      1 ;     H1 - H3    
     7     10      1 ;     H1 - H4    
     8     11      1 ;     H2 - H5    
     8     12      1 ;     H2 - H6    
     9     13      1 ;     H3 - H7    
     9     14      1 ;     H3 - H8    
    10     13      1 ;     H4 - H7    
    10     14      1 ;     H4 - H8    
    11     15      1 ;     H5 - H9    
    11     16      1 ;     H5 - H10   
    12     15      1 ;     H6 - H9    
    12     16      1 ;     H6 - H10   
    13     15      1 ;     H7 - H9    
    13     16      1 ;     H7 - H10   
    14     15      1 ;     H8 - H9    
    14     16      1 ;     H8 - H10   

[ angles ]
;   ai     aj     ak    funct   theta         cth
     1      2      4      1    1.2302e+02    5.1246e+02 ;     C1 - C2     - C4    
     1      2      8      1    1.2039e+02    3.8802e+02 ;     C1 - C2     - H2    
     1      3      5      1    1.1141e+02    5.0685e+02 ;     C1 - C3     - C5    
     1      3      9      1    1.0931e+02    3.6736e+02 ;     C1 - C3     - H3    
     1      3     10      1    1.0931e+02    3.6736e+02 ;     C1 - C3     - H4    
     2      1      3      1    1.2302e+02    5.1246e+02 ;     C2 - C1     - C3    
     2      1      7      1    1.2039e+02    3.8802e+02 ;     C2 - C1     - H1    
     2      4      6      1    1.1141e+02    5.0685e+02 ;     C2 - C4     - C6    
     2      4     11      1    1.0931e+02    3.6736e+02 ;     C2 - C4     - H5    
     2      4     12      1    1.0931e+02    3.6736e+02 ;     C2 - C4     - H6    
     3      1      7      1    1.1657e+02    3.5606e+02 ;     C3 - C1     - H1    
     3      5      6      1    1.1106e+02    5.0359e+02 ;     C3 - C5     - C6    
     3      5     13      1    1.0945e+02    3.6175e+02 ;     C3 - C5     - H7    
     3      5     14      1    1.0945e+02    3.6175e+02 ;     C3 - C5     - H8    
     4      2      8      1    1.1657e+02    3.5606e+02 ;     C4 - C2     - H2    
     4      6      5      1    1.1106e+02    5.0359e+02 ;     C4 - C6     - C5    
     4      6     15      1    1.0945e+02    3.6175e+02 ;     C4 - C6     - H9    
     4      6     16      1    1.0945e+02    3.6175e+02 ;     C4 - C6     - H10   
     5      3      9      1    1.0945e+02    3.6175e+02 ;     C5 - C3     - H3    
     5      3     10      1    1.0945e+02    3.6175e+02 ;     C5 - C3     - H4    
     5      6     15      1    1.0945e+02    3.6175e+02 ;     C5 - C6     - H9    
     5      6     16      1    1.0945e+02    3.6175e+02 ;     C5 - C6     - H10   
     6      4     11      1    1.0945e+02    3.6175e+02 ;     C6 - C4     - H5    
     6      4     12      1    1.0945e+02    3.6175e+02 ;     C6 - C4     - H6    
     6      5     13      1    1.0945e+02    3.6175e+02 ;     C6 - C5     - H7    
     6      5     14      1    1.0945e+02    3.6175e+02 ;     C6 - C5     - H8    
     9      3     10      1    1.0662e+02    3.0066e+02 ;     H3 - C3     - H4    
    11      4     12      1    1.0662e+02    3.0066e+02 ;     H5 - C4     - H6    
    13      5     14      1    1.0662e+02    3.0066e+02 ;     H7 - C5     - H8    
    15      6     16      1    1.0662e+02    3.0066e+02 ;     H9 - C6     - H10   

[ dihedrals ] ; propers
; for gromacs 4.5 or higher, using funct 9
;    i      j      k      l   func   phase     kd      pn
     1      2      4      6      9     0.00   0.00000   0 ;     C1-    C2-    C4-    C6
     1      2      4     11      9   180.00   1.08784   3 ;     C1-    C2-    C4-    H5
     1      2      4     12      9   180.00   1.08784   3 ;     C1-    C2-    C4-    H6
     1      3      5      6      9     0.00   0.65084   3 ;     C1-    C3-    C5-    C6
     1      3      5     13      9     0.00   0.65084   3 ;     C1-    C3-    C5-    H7
     1      3      5     14      9     0.00   0.65084   3 ;     C1-    C3-    C5-    H8
     2      1      3      5      9     0.00   0.00000   0 ;     C2-    C1-    C3-    C5
     2      1      3      9      9   180.00   1.08784   3 ;     C2-    C1-    C3-    H3
     2      1      3     10      9   180.00   1.08784   3 ;     C2-    C1-    C3-    H4
     2      4      6      5      9     0.00   0.65084   3 ;     C2-    C4-    C6-    C5
     2      4      6     15      9     0.00   0.65084   3 ;     C2-    C4-    C6-    H9
     2      4      6     16      9     0.00   0.65084   3 ;     C2-    C4-    C6-   H10
     3      1      2      4      9     0.00   0.62760   1 ;     C3-    C1-    C2-    C4
     3      1      2      4      9   180.00   5.56472   3 ;     C3-    C1-    C2-    C4
     3      1      2      4      9   180.00  24.18352   2 ;     C3-    C1-    C2-    C4
     3      1      2      8      9   180.00  27.82360   2 ;     C3-    C1-    C2-    H2
     3      5      6      4      9     0.00   2.17568   3 ;     C3-    C5-    C6-    C4
     3      5      6     15      9     0.00   0.54392   3 ;     C3-    C5-    C6-    H9
     3      5      6     16      9     0.00   0.54392   3 ;     C3-    C5-    C6-   H10
     4      6      5     13      9     0.00   0.54392   3 ;     C4-    C6-    C5-    H7
     4      6      5     14      9     0.00   0.54392   3 ;     C4-    C6-    C5-    H8
     5      6      4     11      9     0.00   0.54392   3 ;     C5-    C6-    C4-    H5
     5      6      4     12      9     0.00   0.54392   3 ;     C5-    C6-    C4-    H6
     6      4      2      8      9     0.00   0.00000   0 ;     C6-    C4-    C2-    H2
     6      5      3      9      9     0.00   0.54392   3 ;     C6-    C5-    C3-    H3
     6      5      3     10      9     0.00   0.54392   3 ;     C6-    C5-    C3-    H4
     7      1      2      4      9   180.00  27.82360   2 ;     H1-    C1-    C2-    C4
     7      1      2      8      9   180.00  27.82360   2 ;     H1-    C1-    C2-    H2
     7      1      3      5      9     0.00   0.00000   0 ;     H1-    C1-    C3-    C5
     7      1      3      9      9     0.00   0.00000   0 ;     H1-    C1-    C3-    H3
     7      1      3     10      9     0.00   0.00000   0 ;     H1-    C1-    C3-    H4
     8      2      4     11      9     0.00   0.00000   0 ;     H2-    C2-    C4-    H5
     8      2      4     12      9     0.00   0.00000   0 ;     H2-    C2-    C4-    H6
     9      3      5     13      9     0.00   0.50208   3 ;     H3-    C3-    C5-    H7
     9      3      5     14      9     0.00   0.50208   3 ;     H3-    C3-    C5-    H8
    10      3      5     13      9     0.00   0.50208   3 ;     H4-    C3-    C5-    H7
    10      3      5     14      9     0.00   0.50208   3 ;     H4-    C3-    C5-    H8
    11      4      6     15      9     0.00   0.50208   3 ;     H5-    C4-    C6-    H9
    11      4      6     16      9     0.00   0.50208   3 ;     H5-    C4-    C6-   H10
    12      4      6     15      9     0.00   0.50208   3 ;     H6-    C4-    C6-    H9
    12      4      6     16      9     0.00   0.50208   3 ;     H6-    C4-    C6-   H10
    13      5      6     15      9     0.00   0.50208   3 ;     H7-    C5-    C6-    H9
    13      5      6     16      9     0.00   0.50208   3 ;     H7-    C5-    C6-   H10
    14      5      6     15      9     0.00   0.50208   3 ;     H8-    C5-    C6-    H9
    14      5      6     16      9     0.00   0.50208   3 ;     H8-    C5-    C6-   H10

[ dihedrals ] ; impropers
; treated as propers in GROMACS to use correct AMBER analytical function
;    i      j      k      l   func   phase     kd      pn
     1      4      2      8      4   180.00   4.60240   2 ;     C1-    C4-    C2-    H2
     7      1      3      2      4   180.00   4.60240   2 ;     H1-    C1-    C3-    C2
