; mobley_313406_GMX.top created by acpype (v: 2023.10.27) on Thu May 21 00:06:13 2026

[ defaults ]
; nbfunc        comb-rule       gen-pairs       fudgeLJ fudgeQQ
1               2               yes             0.5     0.8333333333

; Include mobley_313406_GMX.itp topology
#include "mobley_313406_GMX.itp"

; Ligand position restraints
#ifdef POSRES_LIG
#include "posre_mobley_313406.itp"
#endif


#include "/home/carla/github/Solvation-openMM/DADES/common/SOL.TIP3P.itp"

[ system ]
mobley_313406 in water

[ molecules ]
; Compound        nmols
 mobley_313406    1     
SOL 797
