; mobley_7378987_GMX.itp created by acpype (v: 2023.10.27) on Thu May 21 00:21:41 2026

[ atomtypes ]
;name   bond_type     mass     charge   ptype   sigma         epsilon       Amb
 cc       cc          0.00000  0.00000   A     3.31521e-01   4.13379e-01 ; 1.86  0.0988
 cd       cd          0.00000  0.00000   A     3.31521e-01   4.13379e-01 ; 1.86  0.0988
 c        c           0.00000  0.00000   A     3.31521e-01   4.13379e-01 ; 1.86  0.0988
 c3       c3          0.00000  0.00000   A     3.39771e-01   4.51035e-01 ; 1.91  0.1078
 nd       nd          0.00000  0.00000   A     3.38417e-01   3.93714e-01 ; 1.90  0.0941
 na       na          0.00000  0.00000   A     3.20581e-01   8.54373e-01 ; 1.80  0.2042
 n        n           0.00000  0.00000   A     3.18086e-01   6.84502e-01 ; 1.79  0.1636
 o        o           0.00000  0.00000   A     3.04812e-01   6.12119e-01 ; 1.71  0.1463
 h5       h5          0.00000  0.00000   A     2.44730e-01   6.73624e-02 ; 1.37  0.0161
 h1       h1          0.00000  0.00000   A     2.42200e-01   8.70272e-02 ; 1.36  0.0208

[ moleculetype ]
;name            nrexcl
 mobley_7378987   3

[ atoms ]
;   nr  type  resi  res  atom  cgnr     charge      mass       ; qtot   bond_type
     1   cc     1   MOL    C1    1     0.443400     12.01000 ; qtot 0.443
     2   cc     1   MOL    C2    2    -0.350200     12.01000 ; qtot 0.093
     3   cd     1   MOL    C3    3     0.485200     12.01000 ; qtot 0.578
     4    c     1   MOL    C4    4     0.765100     12.01000 ; qtot 1.343
     5    c     1   MOL    C5    5     0.815498     12.01000 ; qtot 2.159
     6   c3     1   MOL    C6    6     0.009600     12.01000 ; qtot 2.169
     7   c3     1   MOL    C7    7     0.090300     12.01000 ; qtot 2.259
     8   c3     1   MOL    C8    8     0.080300     12.01000 ; qtot 2.339
     9   nd     1   MOL    N1    9    -0.685000     14.01000 ; qtot 1.654
    10   na     1   MOL    N2   10    -0.148900     14.01000 ; qtot 1.505
    11    n     1   MOL    N3   11    -0.417300     14.01000 ; qtot 1.088
    12    n     1   MOL    N4   12    -0.483400     14.01000 ; qtot 0.605
    13    o     1   MOL    O1   13    -0.633500     16.00000 ; qtot -0.029
    14    o     1   MOL    O2   14    -0.637500     16.00000 ; qtot -0.666
    15   h5     1   MOL    H1   15     0.071100      1.00800 ; qtot -0.595
    16   h1     1   MOL    H2   16     0.071700      1.00800 ; qtot -0.524
    17   h1     1   MOL    H3   17     0.071700      1.00800 ; qtot -0.452
    18   h1     1   MOL    H4   18     0.071700      1.00800 ; qtot -0.380
    19   h1     1   MOL    H5   19     0.063367      1.00800 ; qtot -0.317
    20   h1     1   MOL    H6   20     0.063367      1.00800 ; qtot -0.253
    21   h1     1   MOL    H7   21     0.063367      1.00800 ; qtot -0.190
    22   h1     1   MOL    H8   22     0.063367      1.00800 ; qtot -0.127
    23   h1     1   MOL    H9   23     0.063367      1.00800 ; qtot -0.063
    24   h1     1   MOL   H10   24     0.063367      1.00800 ; qtot -0.000

[ bonds ]
;   ai     aj funct   r             k
     1      9   1    1.3158e-01    3.5122e+05 ;     C1 - N1    
     1     10   1    1.3803e-01    2.8075e+05 ;     C1 - N2    
     1     15   1    1.0820e-01    3.0708e+05 ;     C1 - H1    
     2      3   1    1.3730e-01    3.2321e+05 ;     C2 - C3    
     2      4   1    1.4687e-01    2.3579e+05 ;     C2 - C4    
     2     10   1    1.3803e-01    2.8075e+05 ;     C2 - N2    
     3      9   1    1.3713e-01    2.8947e+05 ;     C3 - N1    
     3     11   1    1.3807e-01    2.8037e+05 ;     C3 - N3    
     4     12   1    1.3967e-01    2.6565e+05 ;     C4 - N4    
     4     13   1    1.2190e-01    4.9421e+05 ;     C4 - O1    
     5     11   1    1.3967e-01    2.6565e+05 ;     C5 - N3    
     5     12   1    1.3967e-01    2.6565e+05 ;     C5 - N4    
     5     14   1    1.2190e-01    4.9421e+05 ;     C5 - O2    
     6     10   1    1.4639e-01    2.1321e+05 ;     C6 - N2    
     6     16   1    1.0969e-01    2.8804e+05 ;     C6 - H2    
     6     17   1    1.0969e-01    2.8804e+05 ;     C6 - H3    
     6     18   1    1.0969e-01    2.8804e+05 ;     C6 - H4    
     7     11   1    1.4643e-01    2.1293e+05 ;     C7 - N3    
     7     19   1    1.0969e-01    2.8804e+05 ;     C7 - H5    
     7     20   1    1.0969e-01    2.8804e+05 ;     C7 - H6    
     7     21   1    1.0969e-01    2.8804e+05 ;     C7 - H7    
     8     12   1    1.4643e-01    2.1293e+05 ;     C8 - N4    
     8     22   1    1.0969e-01    2.8804e+05 ;     C8 - H8    
     8     23   1    1.0969e-01    2.8804e+05 ;     C8 - H9    
     8     24   1    1.0969e-01    2.8804e+05 ;     C8 - H10   

[ pairs ]
;   ai     aj    funct
     1      4      1 ;     C1 - C4    
     1     11      1 ;     C1 - N3    
     1     16      1 ;     C1 - H2    
     1     17      1 ;     C1 - H3    
     1     18      1 ;     C1 - H4    
     2      5      1 ;     C2 - C5    
     2      7      1 ;     C2 - C7    
     2      8      1 ;     C2 - C8    
     2     16      1 ;     C2 - H2    
     2     17      1 ;     C2 - H3    
     2     18      1 ;     C2 - H4    
     3      6      1 ;     C3 - C6    
     3     12      1 ;     C3 - N4    
     3     13      1 ;     C3 - O1    
     3     14      1 ;     C3 - O2    
     3     19      1 ;     C3 - H5    
     3     20      1 ;     C3 - H6    
     3     21      1 ;     C3 - H7    
     4      6      1 ;     C4 - C6    
     4      9      1 ;     C4 - N1    
     4     11      1 ;     C4 - N3    
     4     14      1 ;     C4 - O2    
     4     22      1 ;     C4 - H8    
     4     23      1 ;     C4 - H9    
     4     24      1 ;     C4 - H10   
     5      9      1 ;     C5 - N1    
     5     13      1 ;     C5 - O1    
     5     19      1 ;     C5 - H5    
     5     20      1 ;     C5 - H6    
     5     21      1 ;     C5 - H7    
     5     22      1 ;     C5 - H8    
     5     23      1 ;     C5 - H9    
     5     24      1 ;     C5 - H10   
     7      9      1 ;     C7 - N1    
     7     12      1 ;     C7 - N4    
     7     14      1 ;     C7 - O2    
     8     11      1 ;     C8 - N3    
     8     13      1 ;     C8 - O1    
     8     14      1 ;     C8 - O2    
     9      6      1 ;     N1 - C6    
    10     11      1 ;     N2 - N3    
    10     12      1 ;     N2 - N4    
    10     13      1 ;     N2 - O1    
    15      2      1 ;     H1 - C2    
    15      3      1 ;     H1 - C3    
    15      6      1 ;     H1 - C6    

[ angles ]
;   ai     aj     ak    funct   theta         cth
     1      9      3      1    1.0537e+02    7.3094e+02 ;     C1 - N1     - C3    
     1     10      2      1    1.1048e+02    6.9546e+02 ;     C1 - N2     - C2    
     1     10      6      1    1.2665e+02    6.2936e+02 ;     C1 - N2     - C6    
     2      3      9      1    1.1158e+02    5.9789e+02 ;     C2 - C3     - N1    
     2      3     11      1    1.2192e+02    5.7003e+02 ;     C2 - C3     - N3    
     2      4     12      1    1.1269e+02    5.6911e+02 ;     C2 - C4     - N4    
     2      4     13      1    1.2406e+02    6.5572e+02 ;     C2 - C4     - O1    
     2     10      6      1    1.2665e+02    6.2936e+02 ;     C2 - N2     - C6    
     3      2      4      1    1.2132e+02    5.2049e+02 ;     C3 - C2     - C4    
     3      2     10      1    1.0675e+02    6.0927e+02 ;     C3 - C2     - N2    
     3     11      5      1    1.2081e+02    6.6099e+02 ;     C3 - N3     - C5    
     3     11      7      1    1.2117e+02    6.4325e+02 ;     C3 - N3     - C7    
     4      2     10      1    1.2760e+02    5.3756e+02 ;     C4 - C2     - N2    
     4     12      5      1    1.2521e+02    6.4559e+02 ;     C4 - N4     - C5    
     4     12      8      1    1.1883e+02    6.4634e+02 ;     C4 - N4     - C8    
     5     11      7      1    1.1883e+02    6.4634e+02 ;     C5 - N3     - C7    
     5     12      8      1    1.1883e+02    6.4634e+02 ;     C5 - N4     - C8    
     9      1     10      1    1.1201e+02    6.4408e+02 ;     N1 - C1     - N2    
     9      1     15      1    1.2562e+02    4.0886e+02 ;     N1 - C1     - H1    
     9      3     11      1    1.2650e+02    5.9446e+02 ;     N1 - C3     - N3    
    10      1     15      1    1.2178e+02    4.0024e+02 ;     N2 - C1     - H1    
    10      6     16      1    1.0876e+02    4.0250e+02 ;     N2 - C6     - H2    
    10      6     17      1    1.0876e+02    4.0250e+02 ;     N2 - C6     - H3    
    10      6     18      1    1.0876e+02    4.0250e+02 ;     N2 - C6     - H4    
    11      5     12      1    1.1617e+02    6.1112e+02 ;     N3 - C5     - N4    
    11      5     14      1    1.2257e+02    7.2534e+02 ;     N3 - C5     - O2    
    11      7     19      1    1.0876e+02    4.0242e+02 ;     N3 - C7     - H5    
    11      7     20      1    1.0876e+02    4.0242e+02 ;     N3 - C7     - H6    
    11      7     21      1    1.0876e+02    4.0242e+02 ;     N3 - C7     - H7    
    12      4     13      1    1.2257e+02    7.2534e+02 ;     N4 - C4     - O1    
    12      5     14      1    1.2257e+02    7.2534e+02 ;     N4 - C5     - O2    
    12      8     22      1    1.0876e+02    4.0242e+02 ;     N4 - C8     - H8    
    12      8     23      1    1.0876e+02    4.0242e+02 ;     N4 - C8     - H9    
    12      8     24      1    1.0876e+02    4.0242e+02 ;     N4 - C8     - H10   
    16      6     17      1    1.0855e+02    2.9824e+02 ;     H2 - C6     - H3    
    16      6     18      1    1.0855e+02    2.9824e+02 ;     H2 - C6     - H4    
    17      6     18      1    1.0855e+02    2.9824e+02 ;     H3 - C6     - H4    
    19      7     20      1    1.0855e+02    2.9824e+02 ;     H5 - C7     - H6    
    19      7     21      1    1.0855e+02    2.9824e+02 ;     H5 - C7     - H7    
    20      7     21      1    1.0855e+02    2.9824e+02 ;     H6 - C7     - H7    
    22      8     23      1    1.0855e+02    2.9824e+02 ;     H8 - C8     - H9    
    22      8     24      1    1.0855e+02    2.9824e+02 ;     H8 - C8     - H10   
    23      8     24      1    1.0855e+02    2.9824e+02 ;     H9 - C8     - H10   

[ dihedrals ] ; propers
; for gromacs 4.5 or higher, using funct 9
;    i      j      k      l   func   phase     kd      pn
     1      9      3      2      9   180.00  19.87400   2 ;     C1-    N1-    C3-    C2
     1      9      3     11      9   180.00  19.87400   2 ;     C1-    N1-    C3-    N3
     1     10      2      3      9   180.00   7.11280   2 ;     C1-    N2-    C2-    C3
     1     10      2      4      9   180.00   7.11280   2 ;     C1-    N2-    C2-    C4
     1     10      6     16      9     0.00   0.00000   0 ;     C1-    N2-    C6-    H2
     1     10      6     17      9     0.00   0.00000   0 ;     C1-    N2-    C6-    H3
     1     10      6     18      9     0.00   0.00000   0 ;     C1-    N2-    C6-    H4
     2      3     11      5      9   180.00   6.90360   2 ;     C2-    C3-    N3-    C5
     2      3     11      7      9   180.00   6.90360   2 ;     C2-    C3-    N3-    C7
     2      4     12      5      9   180.00  10.46000   2 ;     C2-    C4-    N4-    C5
     2      4     12      8      9   180.00  10.46000   2 ;     C2-    C4-    N4-    C8
     2     10      6     16      9     0.00   0.00000   0 ;     C2-    N2-    C6-    H2
     2     10      6     17      9     0.00   0.00000   0 ;     C2-    N2-    C6-    H3
     2     10      6     18      9     0.00   0.00000   0 ;     C2-    N2-    C6-    H4
     3      2      4     12      9   180.00  12.02900   2 ;     C3-    C2-    C4-    N4
     3      2      4     13      9   180.00  12.02900   2 ;     C3-    C2-    C4-    O1
     3      2     10      6      9   180.00   7.11280   2 ;     C3-    C2-    N2-    C6
     3     11      5     12      9   180.00   3.65054   2 ;     C3-    N3-    C5-    N4
     3     11      5     14      9   180.00  10.46000   2 ;     C3-    N3-    C5-    O2
     3     11      7     19      9     0.00   0.00000   0 ;     C3-    N3-    C7-    H5
     3     11      7     20      9     0.00   0.00000   0 ;     C3-    N3-    C7-    H6
     3     11      7     21      9     0.00   0.00000   0 ;     C3-    N3-    C7-    H7
     4      2      3      9      9   180.00  16.73600   2 ;     C4-    C2-    C3-    N1
     4      2      3     11      9   180.00  16.73600   2 ;     C4-    C2-    C3-    N3
     4      2     10      6      9   180.00   7.11280   2 ;     C4-    C2-    N2-    C6
     4     12      5     11      9   180.00  10.46000   2 ;     C4-    N4-    C5-    N3
     4     12      5     14      9   180.00  10.46000   2 ;     C4-    N4-    C5-    O2
     4     12      8     22      9   180.00   0.00000   2 ;     C4-    N4-    C8-    H8
     4     12      8     23      9   180.00   0.00000   2 ;     C4-    N4-    C8-    H9
     4     12      8     24      9   180.00   0.00000   2 ;     C4-    N4-    C8-   H10
     5     11      3      9      9   180.00   6.90360   2 ;     C5-    N3-    C3-    N1
     5     11      7     19      9   180.00   0.00000   2 ;     C5-    N3-    C7-    H5
     5     11      7     20      9   180.00   0.00000   2 ;     C5-    N3-    C7-    H6
     5     11      7     21      9   180.00   0.00000   2 ;     C5-    N3-    C7-    H7
     5     12      4     13      9   180.00  10.46000   2 ;     C5-    N4-    C4-    O1
     5     12      8     22      9   180.00   0.00000   2 ;     C5-    N4-    C8-    H8
     5     12      8     23      9   180.00   0.00000   2 ;     C5-    N4-    C8-    H9
     5     12      8     24      9   180.00   0.00000   2 ;     C5-    N4-    C8-   H10
     7     11      3      9      9   180.00   6.90360   2 ;     C7-    N3-    C3-    N1
     7     11      5     12      9   180.00  10.46000   2 ;     C7-    N3-    C5-    N4
     7     11      5     14      9   180.00  10.46000   2 ;     C7-    N3-    C5-    O2
     8     12      4     13      9   180.00  10.46000   2 ;     C8-    N4-    C4-    O1
     8     12      5     11      9   180.00  10.46000   2 ;     C8-    N4-    C5-    N3
     8     12      5     14      9   180.00  10.46000   2 ;     C8-    N4-    C5-    O2
     9      1     10      2      9   180.00   7.11280   2 ;     N1-    C1-    N2-    C2
     9      1     10      6      9   180.00   7.11280   2 ;     N1-    C1-    N2-    C6
     9      3      2     10      9   180.00  16.73600   2 ;     N1-    C3-    C2-    N2
    10      1      9      3      9   180.00  19.87400   2 ;     N2-    C1-    N1-    C3
    10      2      3     11      9   180.00  16.73600   2 ;     N2-    C2-    C3-    N3
    10      2      4     12      9   180.00  12.02900   2 ;     N2-    C2-    C4-    N4
    10      2      4     13      9   180.00  12.02900   2 ;     N2-    C2-    C4-    O1
    15      1      9      3      9   180.00  19.87400   2 ;     H1-    C1-    N1-    C3
    15      1     10      2      9   180.00   7.11280   2 ;     H1-    C1-    N2-    C2
    15      1     10      6      9   180.00   7.11280   2 ;     H1-    C1-    N2-    C6

[ dihedrals ] ; impropers
; treated as propers in GROMACS to use correct AMBER analytical function
;    i      j      k      l   func   phase     kd      pn
     2     11      3      9      4   180.00   4.60240   2 ;     C2-    N3-    C3-    N1
     2     12      4     13      4   180.00  43.93200   2 ;     C2-    N4-    C4-    O1
     4      3      2     10      4   180.00   4.60240   2 ;     C4-    C3-    C2-    N2
     4      5     12      8      4   180.00   4.60240   2 ;     C4-    C5-    N4-    C8
     5      7     11      3      4   180.00   4.60240   2 ;     C5-    C7-    N3-    C3
     6      1     10      2      4   180.00   4.60240   2 ;     C6-    C1-    N2-    C2
     9      1     10     15      4   180.00   4.60240   2 ;     N1-    C1-    N2-    H1
    11     12      5     14      4   180.00  43.93200   2 ;     N3-    N4-    C5-    O2
