mobley_349850_GMX.gro created by acpype (v: 2023.10.27) on Tue May 19 12:43:49 2026
 2402
    1MOL     C1    1   2.327   2.455   2.381
    1MOL     C2    2   2.539   2.339   2.387
    1MOL     C3    3   2.325   2.458   2.521
    1MOL     C4    4   2.537   2.342   2.526
    1MOL     C5    5   2.434   2.396   2.314
    1MOL     C6    6   2.430   2.402   2.593
    1MOL     C7    7   2.436   2.392   2.169
    1MOL     C8    8   2.428   2.406   2.742
    1MOL     C9    9   2.321   2.453   2.089
    1MOL     O1   10   2.530   2.339   2.106
    1MOL     H1   11   2.244   2.499   2.326
    1MOL     H2   12   2.623   2.292   2.336
    1MOL     H3   13   2.241   2.505   2.572
    1MOL     H4   14   2.619   2.298   2.582
    1MOL     H5   15   2.518   2.455   2.781
    1MOL     H6   16   2.340   2.460   2.780
    1MOL     H7   17   2.423   2.304   2.785
    1MOL     H8   18   2.315   2.560   2.110
    1MOL     H9   19   2.227   2.403   2.114
    1MOL    H10   20   2.338   2.440   1.982
   14SOL     OW   21   1.460   1.505   1.339
   14SOL    HW1   22   1.484   1.599   1.365
   14SOL    HW2   23   1.444   1.451   1.421
   35SOL     OW   24   1.187   1.792   1.616
   35SOL    HW1   25   1.211   1.852   1.540
   35SOL    HW2   26   1.194   1.697   1.586
   56SOL     OW   27   1.227   1.550   1.506
   56SOL    HW1   28   1.233   1.473   1.570
   56SOL    HW2   29   1.175   1.524   1.426
   95SOL     OW   30   1.754   1.223   1.588
   95SOL    HW1   31   1.845   1.184   1.575
   95SOL    HW2   32   1.762   1.319   1.612
   97SOL     OW   33   1.592   1.629   1.625
   97SOL    HW1   34   1.619   1.663   1.535
   97SOL    HW2   35   1.671   1.591   1.671
  122SOL     OW   36   1.728   0.935   1.854
  122SOL    HW1   37   1.682   0.928   1.765
  122SOL    HW2   38   1.666   0.979   1.920
  127SOL     OW   39   1.859   1.518   1.605
  127SOL    HW1   40   1.873   1.545   1.510
  127SOL    HW2   41   1.942   1.540   1.658
  152SOL     OW   42   1.759   1.747   1.154
  152SOL    HW1   43   1.820   1.777   1.081
  152SOL    HW2   44   1.721   1.658   1.132
  163SOL     OW   45   1.650   1.720   1.394
  163SOL    HW1   46   1.703   1.730   1.310
  163SOL    HW2   47   1.623   1.810   1.428
  171SOL     OW   48   1.614   1.292   1.289
  171SOL    HW1   49   1.674   1.295   1.369
  171SOL    HW2   50   1.539   1.356   1.302
  186SOL     OW   51   1.450   1.220   1.633
  186SOL    HW1   52   1.441   1.210   1.732
  186SOL    HW2   53   1.546   1.213   1.607
  203SOL     OW   54   1.705   1.487   1.104
  203SOL    HW1   55   1.612   1.462   1.077
  203SOL    HW2   56   1.731   1.437   1.186
  219SOL     OW   57   1.555   1.511   2.565
  219SOL    HW1   58   1.498   1.495   2.646
  219SOL    HW2   59   1.496   1.521   2.485
  227SOL     OW   60   1.460   1.505   3.201
  227SOL    HW1   61   1.484   1.599   3.227
  227SOL    HW2   62   1.444   1.451   3.283
  238SOL     OW   63   1.842   1.767   2.221
  238SOL    HW1   64   1.896   1.738   2.301
  238SOL    HW2   65   1.872   1.857   2.192
  240SOL     OW   66   1.689   0.922   2.474
  240SOL    HW1   67   1.784   0.893   2.482
  240SOL    HW2   68   1.681   0.987   2.399
  241SOL     OW   69   1.641   1.108   2.294
  241SOL    HW1   70   1.727   1.110   2.242
  241SOL    HW2   71   1.655   1.155   2.382
  247SOL     OW   72   1.525   0.999   2.052
  247SOL    HW1   73   1.462   0.923   2.065
  247SOL    HW2   74   1.573   1.017   2.138
  248SOL     OW   75   1.187   1.792   3.478
  248SOL    HW1   76   1.211   1.852   3.402
  248SOL    HW2   77   1.194   1.697   3.448
  250SOL     OW   78   1.466   1.417   2.815
  250SOL    HW1   79   1.407   1.423   2.895
  250SOL    HW2   80   1.451   1.329   2.769
  251SOL     OW   81   1.667   1.714   2.434
  251SOL    HW1   82   1.626   1.691   2.346
  251SOL    HW2   83   1.649   1.640   2.499
  254SOL     OW   84   1.576   1.662   2.169
  254SOL    HW1   85   1.665   1.708   2.172
  254SOL    HW2   86   1.555   1.638   2.074
  264SOL     OW   87   1.362   1.144   2.407
  264SOL    HW1   88   1.445   1.115   2.359
  264SOL    HW2   89   1.313   1.211   2.351
  266SOL     OW   90   1.008   1.456   2.339
  266SOL    HW1   91   0.962   1.528   2.287
  266SOL    HW2   92   1.004   1.476   2.437
  268SOL     OW   93   1.795   1.066   2.735
  268SOL    HW1   94   1.733   1.051   2.659
  268SOL    HW2   95   1.743   1.077   2.820
  269SOL     OW   96   1.227   1.550   3.368
  269SOL    HW1   97   1.233   1.473   3.432
  269SOL    HW2   98   1.175   1.524   3.288
  273SOL     OW   99   1.111   1.776   2.099
  273SOL    HW1  100   1.051   1.714   2.149
  273SOL    HW2  101   1.142   1.732   2.014
  275SOL     OW  102   1.632   1.377   1.943
  275SOL    HW1  103   1.600   1.471   1.933
  275SOL    HW2  104   1.556   1.314   1.931
  279SOL     OW  105   0.940   1.698   2.766
  279SOL    HW1  106   1.020   1.641   2.787
  279SOL    HW2  107   0.891   1.658   2.689
  289SOL     OW  108   1.434   1.188   1.903
  289SOL    HW1  109   1.466   1.112   1.960
  289SOL    HW2  110   1.342   1.215   1.933
  293SOL     OW  111   1.227   1.570   2.655
  293SOL    HW1  112   1.248   1.644   2.590
  293SOL    HW2  113   1.295   1.570   2.728
  295SOL     OW  114   1.271   1.797   2.453
  295SOL    HW1  115   1.315   1.861   2.389
  295SOL    HW2  116   1.221   1.849   2.523
  301SOL     OW  117   1.429   1.173   2.729
  301SOL    HW1  118   1.374   1.089   2.722
  301SOL    HW2  119   1.455   1.202   2.637
  303SOL     OW  120   1.857   0.833   2.239
  303SOL    HW1  121   1.899   0.769   2.303
  303SOL    HW2  122   1.819   0.782   2.161
  305SOL     OW  123   1.664   1.280   2.519
  305SOL    HW1  124   1.763   1.288   2.533
  305SOL    HW2  125   1.619   1.364   2.550
  308SOL     OW  126   1.754   1.223   3.450
  308SOL    HW1  127   1.845   1.184   3.437
  308SOL    HW2  128   1.762   1.319   3.474
  310SOL     OW  129   1.592   1.629   3.487
  310SOL    HW1  130   1.619   1.663   3.397
  310SOL    HW2  131   1.671   1.591   3.533
  312SOL     OW  132   1.638   1.099   2.941
  312SOL    HW1  133   1.643   1.180   3.000
  312SOL    HW2  134   1.552   1.101   2.890
  321SOL     OW  135   1.252   1.348   2.250
  321SOL    HW1  136   1.302   1.425   2.290
  321SOL    HW2  137   1.157   1.350   2.282
  322SOL     OW  138   1.272   1.445   3.004
  322SOL    HW1  139   1.319   1.458   3.091
  322SOL    HW2  140   1.206   1.371   3.013
  340SOL     OW  141   1.859   1.518   3.467
  340SOL    HW1  142   1.873   1.545   3.372
  340SOL    HW2  143   1.942   1.540   3.520
  344SOL     OW  144   1.068   1.333   2.711
  344SOL    HW1  145   1.075   1.249   2.656
  344SOL    HW2  146   1.130   1.402   2.675
  365SOL     OW  147   1.759   1.747   3.016
  365SOL    HW1  148   1.820   1.777   2.943
  365SOL    HW2  149   1.721   1.658   2.994
  366SOL     OW  150   1.252   1.731   2.990
  366SOL    HW1  151   1.336   1.736   2.936
  366SOL    HW2  152   1.229   1.635   3.008
  370SOL     OW  153   1.388   1.573   2.339
  370SOL    HW1  154   1.455   1.585   2.265
  370SOL    HW2  155   1.348   1.662   2.362
  375SOL     OW  156   1.650   1.720   3.256
  375SOL    HW1  157   1.703   1.730   3.172
  375SOL    HW2  158   1.623   1.810   3.290
  378SOL     OW  159   1.194   1.612   1.893
  378SOL    HW1  160   1.200   1.519   1.930
  378SOL    HW2  161   1.135   1.612   1.813
  381SOL     OW  162   1.504   1.607   1.906
  381SOL    HW1  163   1.412   1.644   1.913
  381SOL    HW2  164   1.542   1.627   1.816
  383SOL     OW  165   1.614   1.292   3.151
  383SOL    HW1  166   1.674   1.295   3.231
  383SOL    HW2  167   1.539   1.356   3.164
  394SOL     OW  168   1.183   1.335   1.981
  394SOL    HW1  169   1.084   1.324   1.983
  394SOL    HW2  170   1.217   1.350   2.074
  396SOL     OW  171   1.493   1.767   2.821
  396SOL    HW1  172   1.526   1.831   2.752
  396SOL    HW2  173   1.559   1.761   2.896
  409SOL     OW  174   1.861   1.569   2.713
  409SOL    HW1  175   1.790   1.557   2.643
  409SOL    HW2  176   1.862   1.490   2.773
  415SOL     OW  177   1.705   1.487   2.966
  415SOL    HW1  178   1.612   1.462   2.939
  415SOL    HW2  179   1.731   1.437   3.048
  426SOL     OW  180   0.875   1.646   2.199
  426SOL    HW1  181   0.798   1.611   2.145
  426SOL    HW2  182   0.843   1.717   2.261
  559SOL     OW  183   0.850   2.660   1.823
  559SOL    HW1  184   0.846   2.736   1.888
  559SOL    HW2  185   0.872   2.696   1.732
  563SOL     OW  186   1.460   3.367   1.339
  563SOL    HW1  187   1.484   3.461   1.365
  563SOL    HW2  188   1.444   3.313   1.421
  567SOL     OW  189   1.127   3.203   1.690
  567SOL    HW1  190   1.174   3.203   1.778
  567SOL    HW2  191   1.079   3.116   1.679
  572SOL     OW  192   1.594   1.976   1.480
  572SOL    HW1  193   1.576   2.043   1.408
  572SOL    HW2  194   1.591   2.022   1.569
  580SOL     OW  195   1.293   3.090   1.423
  580SOL    HW1  196   1.330   3.017   1.365
  580SOL    HW2  197   1.345   3.095   1.508
  592SOL     OW  198   1.394   2.331   1.674
  592SOL    HW1  199   1.374   2.374   1.762
  592SOL    HW2  200   1.472   2.269   1.683
  593SOL     OW  201   0.973   2.752   1.572
  593SOL    HW1  202   1.019   2.668   1.543
  593SOL    HW2  203   0.917   2.786   1.497
  599SOL     OW  204   1.719   2.447   1.831
  599SOL    HW1  205   1.693   2.536   1.795
  599SOL    HW2  206   1.717   2.379   1.758
  604SOL     OW  207   1.795   2.928   0.873
  604SOL    HW1  208   1.733   2.913   0.797
  604SOL    HW2  209   1.743   2.939   0.958
  605SOL     OW  210   1.227   3.412   1.506
  605SOL    HW1  211   1.233   3.335   1.570
  605SOL    HW2  212   1.175   3.386   1.426
  617SOL     OW  213   1.547   2.084   1.729
  617SOL    HW1  214   1.542   2.121   1.821
  617SOL    HW2  215   1.475   2.015   1.717
  619SOL     OW  216   0.781   2.126   1.749
  619SOL    HW1  217   0.848   2.065   1.792
  619SOL    HW2  218   0.708   2.145   1.814
  621SOL     OW  219   1.351   2.452   1.433
  621SOL    HW1  220   1.379   2.409   1.518
  621SOL    HW2  221   1.376   2.548   1.434
  627SOL     OW  222   1.076   2.545   1.464
  627SOL    HW1  223   0.996   2.484   1.467
  627SOL    HW2  224   1.157   2.492   1.440
  637SOL     OW  225   1.466   2.452   0.992
  637SOL    HW1  226   1.436   2.357   0.999
  637SOL    HW2  227   1.539   2.468   1.058
  643SOL     OW  228   1.754   3.085   1.588
  643SOL    HW1  229   1.845   3.046   1.575
  643SOL    HW2  230   1.762   3.181   1.612
  645SOL     OW  231   1.592   3.491   1.625
  645SOL    HW1  232   1.619   3.525   1.535
  645SOL    HW2  233   1.671   3.453   1.671
  647SOL     OW  234   1.638   2.961   1.079
  647SOL    HW1  235   1.643   3.042   1.138
  647SOL    HW2  236   1.552   2.963   1.028
  649SOL     OW  237   0.980   2.978   1.719
  649SOL    HW1  238   0.881   2.984   1.729
  649SOL    HW2  239   1.003   2.898   1.663
  652SOL     OW  240   1.274   2.248   1.262
  652SOL    HW1  241   1.295   2.322   1.326
  652SOL    HW2  242   1.185   2.265   1.219
  661SOL     OW  243   1.587   2.641   1.670
  661SOL    HW1  244   1.495   2.679   1.665
  661SOL    HW2  245   1.647   2.688   1.605
  662SOL     OW  246   1.013   1.967   1.770
  662SOL    HW1  247   1.019   2.052   1.718
  662SOL    HW2  248   1.045   1.891   1.713
  665SOL     OW  249   1.360   2.724   1.045
  665SOL    HW1  250   1.285   2.724   0.979
  665SOL    HW2  251   1.397   2.632   1.054
  670SOL     OW  252   1.728   2.797   1.854
  670SOL    HW1  253   1.682   2.790   1.765
  670SOL    HW2  254   1.666   2.841   1.920
  675SOL     OW  255   1.859   3.380   1.605
  675SOL    HW1  256   1.873   3.407   1.510
  675SOL    HW2  257   1.942   3.402   1.658
  682SOL     OW  258   1.138   2.242   1.678
  682SOL    HW1  259   1.093   2.305   1.742
  682SOL    HW2  260   1.231   2.273   1.661
  683SOL     OW  261   1.160   2.069   1.477
  683SOL    HW1  262   1.160   2.133   1.554
  683SOL    HW2  263   1.188   2.117   1.394
  690SOL     OW  264   1.369   2.812   1.660
  690SOL    HW1  265   1.408   2.901   1.680
  690SOL    HW2  266   1.379   2.792   1.563
  692SOL     OW  267   1.657   2.466   1.206
  692SOL    HW1  268   1.619   2.397   1.268
  692SOL    HW2  269   1.739   2.430   1.162
  698SOL     OW  270   1.347   2.921   1.234
  698SOL    HW1  271   1.371   2.858   1.160
  698SOL    HW2  272   1.257   2.961   1.216
  711SOL     OW  273   1.650   3.582   1.394
  711SOL    HW1  274   1.703   3.592   1.310
  711SOL    HW2  275   1.623   3.672   1.428
  712SOL     OW  276   1.841   2.037   0.963
  712SOL    HW1  277   1.880   1.952   0.927
  712SOL    HW2  278   1.743   2.039   0.944
  719SOL     OW  279   1.614   3.154   1.289
  719SOL    HW1  280   1.674   3.157   1.369
  719SOL    HW2  281   1.539   3.218   1.302
  723SOL     OW  282   1.709   2.247   1.381
  723SOL    HW1  283   1.782   2.316   1.385
  723SOL    HW2  284   1.737   2.172   1.322
  728SOL     OW  285   1.440   2.718   1.398
  728SOL    HW1  286   1.383   2.770   1.335
  728SOL    HW2  287   1.536   2.730   1.374
  734SOL     OW  288   1.450   3.082   1.633
  734SOL    HW1  289   1.441   3.072   1.732
  734SOL    HW2  290   1.546   3.075   1.607
  736SOL     OW  291   1.674   2.745   1.254
  736SOL    HW1  292   1.647   2.656   1.217
  736SOL    HW2  293   1.675   2.813   1.181
  739SOL     OW  294   1.777   2.204   1.642
  739SOL    HW1  295   1.760   2.235   1.548
  739SOL    HW2  296   1.693   2.167   1.680
  740SOL     OW  297   1.730   2.796   1.517
  740SOL    HW1  298   1.768   2.887   1.532
  740SOL    HW2  299   1.722   2.779   1.418
  749SOL     OW  300   1.824   2.054   1.227
  749SOL    HW1  301   1.820   1.964   1.271
  749SOL    HW2  302   1.827   2.043   1.128
  751SOL     OW  303   1.705   3.349   1.104
  751SOL    HW1  304   1.612   3.324   1.077
  751SOL    HW2  305   1.731   3.299   1.186
  754SOL     OW  306   1.424   2.076   1.112
  754SOL    HW1  307   1.476   2.011   1.167
  754SOL    HW2  308   1.375   2.139   1.173
  760SOL     OW  309   1.593   2.083   0.882
  760SOL    HW1  310   1.509   2.082   0.936
  760SOL    HW2  311   1.595   2.166   0.826
  767SOL     OW  312   1.555   3.373   2.565
  767SOL    HW1  313   1.498   3.357   2.646
  767SOL    HW2  314   1.496   3.383   2.485
  768SOL     OW  315   1.135   2.565   2.579
  768SOL    HW1  316   1.192   2.643   2.554
  768SOL    HW2  317   1.075   2.591   2.655
  769SOL     OW  318   1.755   2.469   2.093
  769SOL    HW1  319   1.743   2.456   1.994
  769SOL    HW2  320   1.725   2.388   2.142
  772SOL     OW  321   0.685   2.874   2.527
  772SOL    HW1  322   0.754   2.858   2.597
  772SOL    HW2  323   0.612   2.931   2.565
  775SOL     OW  324   1.460   3.367   3.201
  775SOL    HW1  325   1.484   3.461   3.227
  775SOL    HW2  326   1.444   3.313   3.283
  777SOL     OW  327   1.603   2.309   2.599
  777SOL    HW1  328   1.529   2.355   2.549
  777SOL    HW2  329   1.654   2.377   2.652
  784SOL     OW  330   1.594   1.976   3.342
  784SOL    HW1  331   1.576   2.043   3.270
  784SOL    HW2  332   1.591   2.022   3.431
  786SOL     OW  333   1.842   3.629   2.221
  786SOL    HW1  334   1.896   3.600   2.301
  786SOL    HW2  335   1.872   3.719   2.192
  788SOL     OW  336   1.689   2.784   2.474
  788SOL    HW1  337   1.784   2.755   2.482
  788SOL    HW2  338   1.681   2.849   2.399
  789SOL     OW  339   1.641   2.970   2.294
  789SOL    HW1  340   1.727   2.972   2.242
  789SOL    HW2  341   1.655   3.017   2.382
  792SOL     OW  342   1.293   3.090   3.285
  792SOL    HW1  343   1.330   3.017   3.227
  792SOL    HW2  344   1.345   3.095   3.370
  793SOL     OW  345   0.809   1.866   2.364
  793SOL    HW1  346   0.849   1.957   2.355
  793SOL    HW2  347   0.709   1.874   2.370
  795SOL     OW  348   1.525   2.861   2.052
  795SOL    HW1  349   1.462   2.785   2.065
  795SOL    HW2  350   1.573   2.879   2.138
  798SOL     OW  351   1.466   3.279   2.815
  798SOL    HW1  352   1.407   3.285   2.895
  798SOL    HW2  353   1.451   3.191   2.769
  799SOL     OW  354   1.667   3.576   2.434
  799SOL    HW1  355   1.626   3.553   2.346
  799SOL    HW2  356   1.649   3.502   2.499
  801SOL     OW  357   1.281   2.207   2.806
  801SOL    HW1  358   1.195   2.157   2.793
  801SOL    HW2  359   1.343   2.153   2.862
  802SOL     OW  360   1.576   3.524   2.169
  802SOL    HW1  361   1.665   3.570   2.172
  802SOL    HW2  362   1.555   3.500   2.074
  804SOL     OW  363   1.394   2.331   3.536
  804SOL    HW1  364   1.374   2.374   3.624
  804SOL    HW2  365   1.472   2.269   3.545
  805SOL     OW  366   0.973   2.752   3.434
  805SOL    HW1  367   1.019   2.668   3.405
  805SOL    HW2  368   0.917   2.786   3.359
  806SOL     OW  369   0.991   2.272   3.104
  806SOL    HW1  370   0.914   2.306   3.158
  806SOL    HW2  371   0.957   2.221   3.025
  807SOL     OW  372   1.041   2.563   2.291
  807SOL    HW1  373   1.067   2.559   2.387
  807SOL    HW2  374   0.956   2.512   2.277
  810SOL     OW  375   0.865   2.210   2.057
  810SOL    HW1  376   0.924   2.273   2.008
  810SOL    HW2  377   0.884   2.116   2.028
  811SOL     OW  378   1.719   2.447   3.693
  811SOL    HW1  379   1.693   2.536   3.657
  811SOL    HW2  380   1.717   2.379   3.620
  812SOL     OW  381   1.362   3.006   2.407
  812SOL    HW1  382   1.445   2.977   2.359
  812SOL    HW2  383   1.313   3.073   2.351
  814SOL     OW  384   1.008   3.318   2.339
  814SOL    HW1  385   0.962   3.390   2.287
  814SOL    HW2  386   1.004   3.338   2.437
  816SOL     OW  387   1.795   2.928   2.735
  816SOL    HW1  388   1.733   2.913   2.659
  816SOL    HW2  389   1.743   2.939   2.820
  819SOL     OW  390   1.458   2.597   2.590
  819SOL    HW1  391   1.453   2.532   2.665
  819SOL    HW2  392   1.538   2.656   2.603
  823SOL     OW  393   1.632   3.239   1.943
  823SOL    HW1  394   1.600   3.333   1.933
  823SOL    HW2  395   1.556   3.176   1.931
  825SOL     OW  396   1.400   1.969   2.288
  825SOL    HW1  397   1.376   1.932   2.198
  825SOL    HW2  398   1.499   1.985   2.292
  829SOL     OW  399   1.547   2.084   3.591
  829SOL    HW1  400   1.542   2.121   3.683
  829SOL    HW2  401   1.475   2.015   3.579
  833SOL     OW  402   1.351   2.452   3.295
  833SOL    HW1  403   1.379   2.409   3.380
  833SOL    HW2  404   1.376   2.548   3.296
  835SOL     OW  405   0.922   2.365   2.761
  835SOL    HW1  406   0.897   2.356   2.665
  835SOL    HW2  407   0.970   2.283   2.792
  837SOL     OW  408   1.434   3.050   1.903
  837SOL    HW1  409   1.466   2.974   1.960
  837SOL    HW2  410   1.342   3.077   1.933
  839SOL     OW  411   0.935   2.098   2.342
  839SOL    HW1  412   0.887   2.139   2.264
  839SOL    HW2  413   1.034   2.096   2.323
  840SOL     OW  414   1.076   2.545   3.326
  840SOL    HW1  415   0.996   2.484   3.329
  840SOL    HW2  416   1.157   2.492   3.302
  841SOL     OW  417   1.227   3.432   2.655
  841SOL    HW1  418   1.248   3.506   2.590
  841SOL    HW2  419   1.295   3.432   2.728
  843SOL     OW  420   1.271   3.659   2.453
  843SOL    HW1  421   1.315   3.723   2.389
  843SOL    HW2  422   1.221   3.711   2.523
  844SOL     OW  423   1.032   2.411   1.878
  844SOL    HW1  424   0.991   2.493   1.839
  844SOL    HW2  425   1.096   2.437   1.951
  847SOL     OW  426   0.866   2.316   2.504
  847SOL    HW1  427   0.834   2.388   2.442
  847SOL    HW2  428   0.890   2.235   2.451
  848SOL     OW  429   1.017   1.901   2.615
  848SOL    HW1  430   0.945   1.906   2.546
  848SOL    HW2  431   0.993   1.832   2.684
  849SOL     OW  432   1.429   3.035   2.729
  849SOL    HW1  433   1.374   2.951   2.722
  849SOL    HW2  434   1.455   3.064   2.637
  850SOL     OW  435   1.466   2.452   2.854
  850SOL    HW1  436   1.436   2.357   2.861
  850SOL    HW2  437   1.539   2.468   2.920
  851SOL     OW  438   1.857   2.695   2.239
  851SOL    HW1  439   1.899   2.631   2.303
  851SOL    HW2  440   1.819   2.644   2.161
  853SOL     OW  441   1.664   3.142   2.519
  853SOL    HW1  442   1.763   3.150   2.533
  853SOL    HW2  443   1.619   3.226   2.550
  854SOL     OW  444   1.390   2.437   1.940
  854SOL    HW1  445   1.336   2.416   2.021
  854SOL    HW2  446   1.481   2.396   1.949
  856SOL     OW  447   1.754   3.085   3.450
  856SOL    HW1  448   1.845   3.046   3.437
  856SOL    HW2  449   1.762   3.181   3.474
  857SOL     OW  450   1.064   3.209   3.202
  857SOL    HW1  451   0.984   3.186   3.257
  857SOL    HW2  452   1.147   3.183   3.251
  858SOL     OW  453   1.592   3.491   3.487
  858SOL    HW1  454   1.619   3.525   3.397
  858SOL    HW2  455   1.671   3.453   3.533
  859SOL     OW  456   1.111   3.057   2.962
  859SOL    HW1  457   1.071   3.101   3.043
  859SOL    HW2  458   1.070   3.094   2.879
  860SOL     OW  459   1.638   2.961   2.941
  860SOL    HW1  460   1.643   3.042   3.000
  860SOL    HW2  461   1.552   2.963   2.890
  861SOL     OW  462   0.915   1.951   3.264
  861SOL    HW1  463   0.940   1.931   3.169
  861SOL    HW2  464   0.987   2.007   3.306
  863SOL     OW  465   0.705   2.912   2.230
  863SOL    HW1  466   0.691   2.919   2.329
  863SOL    HW2  467   0.789   2.861   2.212
  865SOL     OW  468   1.274   2.248   3.124
  865SOL    HW1  469   1.295   2.322   3.188
  865SOL    HW2  470   1.185   2.265   3.081
  869SOL     OW  471   1.252   3.210   2.250
  869SOL    HW1  472   1.302   3.287   2.290
  869SOL    HW2  473   1.157   3.212   2.282
  870SOL     OW  474   1.272   3.307   3.004
  870SOL    HW1  475   1.319   3.320   3.091
  870SOL    HW2  476   1.206   3.233   3.013
  871SOL     OW  477   1.582   2.501   2.334
  871SOL    HW1  478   1.551   2.562   2.407
  871SOL    HW2  479   1.632   2.553   2.265
  874SOL     OW  480   1.587   2.641   3.532
  874SOL    HW1  481   1.495   2.679   3.527
  874SOL    HW2  482   1.647   2.688   3.467
  878SOL     OW  483   1.360   2.724   2.907
  878SOL    HW1  484   1.285   2.724   2.841
  878SOL    HW2  485   1.397   2.632   2.916
  879SOL     OW  486   1.209   2.387   2.137
  879SOL    HW1  487   1.222   2.303   2.191
  879SOL    HW2  488   1.180   2.461   2.197
  882SOL     OW  489   0.732   2.496   2.926
  882SOL    HW1  490   0.791   2.470   2.850
  882SOL    HW2  491   0.704   2.592   2.915
  883SOL     OW  492   1.728   2.797   3.716
  883SOL    HW1  493   1.682   2.790   3.627
  883SOL    HW2  494   1.666   2.841   3.782
  885SOL     OW  495   1.622   2.229   2.236
  885SOL    HW1  496   1.624   2.153   2.300
  885SOL    HW2  497   1.574   2.306   2.276
  886SOL     OW  498   1.023   2.628   2.828
  886SOL    HW1  499   1.038   2.649   2.924
  886SOL    HW2  500   0.993   2.533   2.819
  888SOL     OW  501   1.859   3.380   3.467
  888SOL    HW1  502   1.873   3.407   3.372
  888SOL    HW2  503   1.942   3.402   3.520
  890SOL     OW  504   1.540   2.136   1.987
  890SOL    HW1  505   1.479   2.061   2.010
  890SOL    HW2  506   1.562   2.188   2.070
  891SOL     OW  507   1.303   2.700   1.904
  891SOL    HW1  508   1.337   2.607   1.919
  891SOL    HW2  509   1.321   2.727   1.809
  892SOL     OW  510   1.068   3.195   2.711
  892SOL    HW1  511   1.075   3.111   2.656
  892SOL    HW2  512   1.130   3.264   2.675
  895SOL     OW  513   1.138   2.242   3.540
  895SOL    HW1  514   1.093   2.305   3.604
  895SOL    HW2  515   1.231   2.273   3.523
  896SOL     OW  516   1.160   2.069   3.339
  896SOL    HW1  517   1.160   2.133   3.416
  896SOL    HW2  518   1.188   2.117   3.256
  900SOL     OW  519   1.002   2.658   3.100
  900SOL    HW1  520   1.043   2.626   3.186
  900SOL    HW2  521   0.906   2.631   3.097
  903SOL     OW  522   1.369   2.812   3.522
  903SOL    HW1  523   1.408   2.901   3.542
  903SOL    HW2  524   1.379   2.792   3.425
  904SOL     OW  525   0.815   2.434   2.187
  904SOL    HW1  526   0.822   2.345   2.141
  904SOL    HW2  527   0.721   2.468   2.179
  905SOL     OW  528   1.657   2.466   3.068
  905SOL    HW1  529   1.619   2.397   3.130
  905SOL    HW2  530   1.739   2.430   3.024
  911SOL     OW  531   1.347   2.921   3.096
  911SOL    HW1  532   1.371   2.858   3.022
  911SOL    HW2  533   1.257   2.961   3.078
  912SOL     OW  534   1.302   2.717   2.171
  912SOL    HW1  535   1.216   2.686   2.213
  912SOL    HW2  536   1.298   2.703   2.072
  913SOL     OW  537   1.759   3.609   3.016
  913SOL    HW1  538   1.820   3.639   2.943
  913SOL    HW2  539   1.721   3.520   2.994
  914SOL     OW  540   1.252   3.593   2.990
  914SOL    HW1  541   1.336   3.598   2.936
  914SOL    HW2  542   1.229   3.497   3.008
  917SOL     OW  543   1.726   1.997   2.385
  917SOL    HW1  544   1.799   1.980   2.318
  917SOL    HW2  545   1.695   1.910   2.423
  918SOL     OW  546   1.388   3.435   2.339
  918SOL    HW1  547   1.455   3.447   2.265
  918SOL    HW2  548   1.348   3.524   2.362
  920SOL     OW  549   1.280   2.789   2.534
  920SOL    HW1  550   1.340   2.708   2.536
  920SOL    HW2  551   1.320   2.858   2.474
  923SOL     OW  552   1.650   3.582   3.256
  923SOL    HW1  553   1.703   3.592   3.172
  923SOL    HW2  554   1.623   3.672   3.290
  924SOL     OW  555   1.841   2.037   2.825
  924SOL    HW1  556   1.880   1.952   2.789
  924SOL    HW2  557   1.743   2.039   2.806
  926SOL     OW  558   1.194   3.474   1.893
  926SOL    HW1  559   1.200   3.381   1.930
  926SOL    HW2  560   1.135   3.474   1.813
  928SOL     OW  561   0.916   2.772   2.153
  928SOL    HW1  562   0.979   2.810   2.085
  928SOL    HW2  563   0.956   2.689   2.192
  929SOL     OW  564   1.504   3.469   1.906
  929SOL    HW1  565   1.412   3.506   1.913
  929SOL    HW2  566   1.542   3.489   1.816
  931SOL     OW  567   1.614   3.154   3.151
  931SOL    HW1  568   1.674   3.157   3.231
  931SOL    HW2  569   1.539   3.218   3.164
  932SOL     OW  570   1.039   2.960   2.558
  932SOL    HW1  571   0.969   2.913   2.612
  932SOL    HW2  572   1.098   2.892   2.515
  933SOL     OW  573   1.014   2.098   2.833
  933SOL    HW1  574   1.006   2.062   2.740
  933SOL    HW2  575   1.012   2.022   2.898
  935SOL     OW  576   1.709   2.247   3.243
  935SOL    HW1  577   1.782   2.316   3.247
  935SOL    HW2  578   1.737   2.172   3.184
  940SOL     OW  579   1.440   2.718   3.260
  940SOL    HW1  580   1.383   2.770   3.197
  940SOL    HW2  581   1.536   2.730   3.236
  942SOL     OW  582   1.183   3.197   1.981
  942SOL    HW1  583   1.084   3.186   1.983
  942SOL    HW2  584   1.217   3.212   2.074
  944SOL     OW  585   1.493   3.629   2.821
  944SOL    HW1  586   1.526   3.693   2.752
  944SOL    HW2  587   1.559   3.623   2.896
  946SOL     OW  588   1.450   3.082   3.495
  946SOL    HW1  589   1.441   3.072   3.594
  946SOL    HW2  590   1.546   3.075   3.469
  948SOL     OW  591   1.674   2.745   3.116
  948SOL    HW1  592   1.647   2.656   3.079
  948SOL    HW2  593   1.675   2.813   3.043
  949SOL     OW  594   1.225   2.187   2.311
  949SOL    HW1  595   1.290   2.113   2.300
  949SOL    HW2  596   1.245   2.237   2.395
  951SOL     OW  597   1.777   2.204   3.504
  951SOL    HW1  598   1.760   2.235   3.410
  951SOL    HW2  599   1.693   2.167   3.542
  952SOL     OW  600   1.730   2.796   3.379
  952SOL    HW1  601   1.768   2.887   3.394
  952SOL    HW2  602   1.722   2.779   3.280
  955SOL     OW  603   0.859   2.818   2.723
  955SOL    HW1  604   0.913   2.749   2.771
  955SOL    HW2  605   0.827   2.887   2.789
  956SOL     OW  606   1.083   2.846   1.949
  956SOL    HW1  607   1.060   2.899   1.867
  956SOL    HW2  608   1.164   2.790   1.930
  957SOL     OW  609   1.861   3.431   2.713
  957SOL    HW1  610   1.790   3.419   2.643
  957SOL    HW2  611   1.862   3.352   2.773
  961SOL     OW  612   1.824   2.054   3.089
  961SOL    HW1  613   1.820   1.964   3.133
  961SOL    HW2  614   1.827   2.043   2.990
  963SOL     OW  615   1.705   3.349   2.966
  963SOL    HW1  616   1.612   3.324   2.939
  963SOL    HW2  617   1.731   3.299   3.048
  966SOL     OW  618   1.424   2.076   2.974
  966SOL    HW1  619   1.476   2.011   3.029
  966SOL    HW2  620   1.375   2.139   3.035
  967SOL     OW  621   1.001   1.896   3.016
  967SOL    HW1  622   0.938   1.824   2.985
  967SOL    HW2  623   1.094   1.860   3.016
  970SOL     OW  624   1.352   1.914   2.030
  970SOL    HW1  625   1.387   1.873   1.946
  970SOL    HW2  626   1.262   1.876   2.050
  971SOL     OW  627   1.300   2.315   2.553
  971SOL    HW1  628   1.241   2.395   2.557
  971SOL    HW2  629   1.315   2.280   2.646
  972SOL     OW  630   1.593   2.083   2.744
  972SOL    HW1  631   1.509   2.082   2.798
  972SOL    HW2  632   1.595   2.166   2.688
  980SOL     OW  633   1.755   2.469   3.955
  980SOL    HW1  634   1.743   2.456   3.856
  980SOL    HW2  635   1.725   2.388   4.004
 1013SOL     OW  636   1.632   3.239   3.805
 1013SOL    HW1  637   1.600   3.333   3.795
 1013SOL    HW2  638   1.556   3.176   3.793
 1023SOL     OW  639   1.434   3.050   3.765
 1023SOL    HW1  640   1.466   2.974   3.822
 1023SOL    HW2  641   1.342   3.077   3.795
 1037SOL     OW  642   1.390   2.437   3.802
 1037SOL    HW1  643   1.336   2.416   3.883
 1037SOL    HW2  644   1.481   2.396   3.811
 1051SOL     OW  645   1.540   2.136   3.849
 1051SOL    HW1  646   1.479   2.061   3.872
 1051SOL    HW2  647   1.562   2.188   3.932
 1052SOL     OW  648   1.303   2.700   3.766
 1052SOL    HW1  649   1.337   2.607   3.781
 1052SOL    HW2  650   1.321   2.727   3.671
 1259SOL     OW  651   1.400   3.831   2.288
 1259SOL    HW1  652   1.376   3.794   2.198
 1259SOL    HW2  653   1.499   3.847   2.292
 1318SOL     OW  654   1.726   3.859   2.385
 1318SOL    HW1  655   1.799   3.842   2.318
 1318SOL    HW2  656   1.695   3.772   2.423
 1320SOL     OW  657   1.841   3.899   2.825
 1320SOL    HW1  658   1.880   3.814   2.789
 1320SOL    HW2  659   1.743   3.901   2.806
 1341SOL     OW  660   1.824   3.916   3.089
 1341SOL    HW1  661   1.820   3.826   3.133
 1341SOL    HW2  662   1.827   3.905   2.990
 1346SOL     OW  663   1.352   3.776   2.030
 1346SOL    HW1  664   1.387   3.735   1.946
 1346SOL    HW2  665   1.262   3.738   2.050
 1348SOL     OW  666   1.593   3.945   2.744
 1348SOL    HW1  667   1.509   3.944   2.798
 1348SOL    HW2  668   1.595   4.028   2.688
 1429SOL     OW  669   2.431   1.275   1.165
 1429SOL    HW1  670   2.338   1.268   1.128
 1429SOL    HW2  671   2.442   1.364   1.209
 1434SOL     OW  672   2.712   0.798   1.823
 1434SOL    HW1  673   2.708   0.874   1.888
 1434SOL    HW2  674   2.734   0.834   1.732
 1436SOL     OW  675   2.548   1.161   1.803
 1436SOL    HW1  676   2.608   1.240   1.817
 1436SOL    HW2  677   2.462   1.192   1.762
 1437SOL     OW  678   2.197   1.435   1.061
 1437SOL    HW1  679   2.119   1.404   1.008
 1437SOL    HW2  680   2.255   1.493   1.004
 1438SOL     OW  681   3.322   1.505   1.339
 1438SOL    HW1  682   3.346   1.599   1.365
 1438SOL    HW2  683   3.306   1.451   1.421
 1442SOL     OW  684   2.989   1.341   1.690
 1442SOL    HW1  685   3.036   1.341   1.778
 1442SOL    HW2  686   2.941   1.254   1.679
 1445SOL     OW  687   2.482   1.786   1.439
 1445SOL    HW1  688   2.390   1.769   1.474
 1445SOL    HW2  689   2.510   1.878   1.465
 1455SOL     OW  690   3.155   1.228   1.423
 1455SOL    HW1  691   3.192   1.155   1.365
 1455SOL    HW2  692   3.207   1.233   1.508
 1459SOL     OW  693   3.049   1.792   1.616
 1459SOL    HW1  694   3.073   1.852   1.540
 1459SOL    HW2  695   3.056   1.697   1.586
 1468SOL     OW  696   2.835   0.890   1.572
 1468SOL    HW1  697   2.881   0.806   1.543
 1468SOL    HW2  698   2.779   0.924   1.497
 1472SOL     OW  699   1.992   1.821   1.571
 1472SOL    HW1  700   1.982   1.806   1.670
 1472SOL    HW2  701   1.906   1.857   1.535
 1478SOL     OW  702   2.213   1.801   0.853
 1478SOL    HW1  703   2.263   1.715   0.859
 1478SOL    HW2  704   2.278   1.878   0.850
 1480SOL     OW  705   3.089   1.550   1.506
 1480SOL    HW1  706   3.095   1.473   1.570
 1480SOL    HW2  707   3.037   1.524   1.426
 1483SOL     OW  708   2.323   1.266   1.727
 1483SOL    HW1  709   2.273   1.267   1.641
 1483SOL    HW2  710   2.260   1.248   1.803
 1489SOL     OW  711   2.111   1.785   1.241
 1489SOL    HW1  712   2.168   1.720   1.291
 1489SOL    HW2  713   2.095   1.752   1.148
 1490SOL     OW  714   2.802   1.698   0.904
 1490SOL    HW1  715   2.882   1.641   0.925
 1490SOL    HW2  716   2.753   1.658   0.827
 1495SOL     OW  717   2.750   1.514   1.195
 1495SOL    HW1  718   2.727   1.489   1.101
 1495SOL    HW2  719   2.811   1.445   1.234
 1520SOL     OW  720   2.926   1.347   1.340
 1520SOL    HW1  721   2.846   1.324   1.395
 1520SOL    HW2  722   3.009   1.321   1.389
 1521SOL     OW  723   3.454   1.629   1.625
 1521SOL    HW1  724   3.481   1.663   1.535
 1521SOL    HW2  725   3.533   1.591   1.671
 1525SOL     OW  726   2.842   1.116   1.719
 1525SOL    HW1  727   2.743   1.122   1.729
 1525SOL    HW2  728   2.865   1.036   1.663
 1529SOL     OW  729   1.926   1.564   1.331
 1529SOL    HW1  730   1.880   1.646   1.297
 1529SOL    HW2  731   2.024   1.583   1.340
 1533SOL     OW  732   3.134   1.445   1.142
 1533SOL    HW1  733   3.181   1.458   1.229
 1533SOL    HW2  734   3.068   1.371   1.151
 1535SOL     OW  735   2.216   1.510   1.329
 1535SOL    HW1  736   2.195   1.466   1.242
 1535SOL    HW2  737   2.313   1.536   1.332
 1544SOL     OW  738   1.899   1.310   1.282
 1544SOL    HW1  739   1.952   1.261   1.350
 1544SOL    HW2  740   1.921   1.408   1.287
 1550SOL     OW  741   2.842   1.573   1.700
 1550SOL    HW1  742   2.822   1.617   1.612
 1550SOL    HW2  743   2.881   1.482   1.684
 1551SOL     OW  744   3.721   1.518   1.605
 1551SOL    HW1  745   3.735   1.545   1.510
 1551SOL    HW2  746   3.804   1.540   1.658
 1552SOL     OW  747   2.212   0.898   1.804
 1552SOL    HW1  748   2.288   0.942   1.852
 1552SOL    HW2  749   2.247   0.851   1.722
 1561SOL     OW  750   1.950   1.801   0.927
 1561SOL    HW1  751   1.908   1.715   0.900
 1561SOL    HW2  752   2.044   1.804   0.893
 1562SOL     OW  753   2.366   1.568   0.910
 1562SOL    HW1  754   2.432   1.642   0.919
 1562SOL    HW2  755   2.410   1.489   0.868
 1569SOL     OW  756   2.114   1.564   1.744
 1569SOL    HW1  757   2.084   1.621   1.820
 1569SOL    HW2  758   2.107   1.467   1.770
 1571SOL     OW  759   2.792   1.678   1.465
 1571SOL    HW1  760   2.768   1.660   1.370
 1571SOL    HW2  761   2.822   1.772   1.475
 1573SOL     OW  762   2.021   1.137   1.466
 1573SOL    HW1  763   2.043   1.076   1.542
 1573SOL    HW2  764   2.031   1.088   1.380
 1577SOL     OW  765   3.114   1.731   1.128
 1577SOL    HW1  766   3.198   1.736   1.074
 1577SOL    HW2  767   3.091   1.635   1.146
 1579SOL     OW  768   2.550   1.662   1.716
 1579SOL    HW1  769   2.494   1.743   1.725
 1579SOL    HW2  770   2.602   1.666   1.630
 1583SOL     OW  771   1.992   1.794   1.851
 1583SOL    HW1  772   1.951   1.720   1.904
 1583SOL    HW2  773   2.056   1.845   1.909
 1585SOL     OW  774   2.692   1.273   1.422
 1585SOL    HW1  775   2.687   1.306   1.517
 1585SOL    HW2  776   2.606   1.292   1.376
 1587SOL     OW  777   3.512   1.720   1.394
 1587SOL    HW1  778   3.565   1.730   1.310
 1587SOL    HW2  779   3.485   1.810   1.428
 1591SOL     OW  780   2.684   1.002   1.372
 1591SOL    HW1  781   2.724   1.001   1.280
 1591SOL    HW2  782   2.694   1.094   1.412
 1594SOL     OW  783   2.234   1.288   1.490
 1594SOL    HW1  784   2.221   1.381   1.456
 1594SOL    HW2  785   2.150   1.236   1.477
 1601SOL     OW  786   1.967   1.013   1.726
 1601SOL    HW1  787   1.890   0.980   1.780
 1601SOL    HW2  788   2.052   0.983   1.768
 1610SOL     OW  789   3.312   1.220   1.633
 1610SOL    HW1  790   3.303   1.210   1.732
 1610SOL    HW2  791   3.408   1.213   1.607
 1611SOL     OW  792   2.252   1.741   1.560
 1611SOL    HW1  793   2.161   1.782   1.558
 1611SOL    HW2  794   2.245   1.647   1.592
 1618SOL     OW  795   2.523   1.790   0.953
 1618SOL    HW1  796   2.477   1.878   0.940
 1618SOL    HW2  797   2.622   1.802   0.946
 1622SOL     OW  798   2.083   1.314   1.844
 1622SOL    HW1  799   2.018   1.241   1.823
 1622SOL    HW2  800   2.087   1.328   1.942
 1624SOL     OW  801   2.534   1.391   1.624
 1624SOL    HW1  802   2.456   1.341   1.662
 1624SOL    HW2  803   2.531   1.486   1.655
 1633SOL     OW  804   2.480   1.567   1.284
 1633SOL    HW1  805   2.475   1.649   1.341
 1633SOL    HW2  806   2.569   1.564   1.239
 1642SOL     OW  807   2.431   1.275   3.027
 1642SOL    HW1  808   2.338   1.268   2.990
 1642SOL    HW2  809   2.442   1.364   3.071
 1643SOL     OW  810   3.417   1.511   2.565
 1643SOL    HW1  811   3.360   1.495   2.646
 1643SOL    HW2  812   3.358   1.521   2.485
 1646SOL     OW  813   2.630   1.144   2.885
 1646SOL    HW1  814   2.552   1.161   2.945
 1646SOL    HW2  815   2.664   1.231   2.849
 1648SOL     OW  816   2.547   1.012   2.527
 1648SOL    HW1  817   2.616   0.996   2.597
 1648SOL    HW2  818   2.474   1.069   2.565
 1649SOL     OW  819   2.548   1.161   3.665
 1649SOL    HW1  820   2.608   1.240   3.679
 1649SOL    HW2  821   2.462   1.192   3.624
 1650SOL     OW  822   2.197   1.435   2.923
 1650SOL    HW1  823   2.119   1.404   2.870
 1650SOL    HW2  824   2.255   1.493   2.866
 1651SOL     OW  825   3.322   1.505   3.201
 1651SOL    HW1  826   3.346   1.599   3.227
 1651SOL    HW2  827   3.306   1.451   3.283
 1654SOL     OW  828   2.093   1.713   2.345
 1654SOL    HW1  829   2.127   1.790   2.399
 1654SOL    HW2  830   2.137   1.713   2.255
 1655SOL     OW  831   2.989   1.341   3.552
 1655SOL    HW1  832   3.036   1.341   3.640
 1655SOL    HW2  833   2.941   1.254   3.541
 1656SOL     OW  834   2.092   1.434   2.400
 1656SOL    HW1  835   2.066   1.530   2.400
 1656SOL    HW2  836   2.021   1.380   2.445
 1657SOL     OW  837   2.102   1.091   2.748
 1657SOL    HW1  838   2.116   1.007   2.800
 1657SOL    HW2  839   2.047   1.155   2.803
 1658SOL     OW  840   2.482   1.786   3.301
 1658SOL    HW1  841   2.390   1.769   3.336
 1658SOL    HW2  842   2.510   1.878   3.327
 1659SOL     OW  843   2.468   0.964   1.985
 1659SOL    HW1  844   2.475   1.048   1.931
 1659SOL    HW2  845   2.514   0.977   2.073
 1662SOL     OW  846   3.704   1.767   2.221
 1662SOL    HW1  847   3.758   1.738   2.301
 1662SOL    HW2  848   3.734   1.857   2.192
 1663SOL     OW  849   1.889   1.596   1.979
 1663SOL    HW1  850   1.870   1.500   2.000
 1663SOL    HW2  851   1.856   1.654   2.054
 1665SOL     OW  852   3.503   1.108   2.294
 1665SOL    HW1  853   3.589   1.110   2.242
 1665SOL    HW2  854   3.517   1.155   2.382
 1667SOL     OW  855   2.475   1.365   2.588
 1667SOL    HW1  856   2.426   1.278   2.597
 1667SOL    HW2  857   2.452   1.408   2.501
 1668SOL     OW  858   3.155   1.228   3.285
 1668SOL    HW1  859   3.192   1.155   3.227
 1668SOL    HW2  860   3.207   1.233   3.370
 1670SOL     OW  861   2.059   0.976   3.126
 1670SOL    HW1  862   2.148   0.931   3.112
 1670SOL    HW2  863   1.986   0.911   3.107
 1671SOL     OW  864   3.387   0.999   2.052
 1671SOL    HW1  865   3.324   0.923   2.065
 1671SOL    HW2  866   3.435   1.017   2.138
 1672SOL     OW  867   3.049   1.792   3.478
 1672SOL    HW1  868   3.073   1.852   3.402
 1672SOL    HW2  869   3.056   1.697   3.448
 1674SOL     OW  870   3.328   1.417   2.815
 1674SOL    HW1  871   3.269   1.423   2.895
 1674SOL    HW2  872   3.313   1.329   2.769
 1675SOL     OW  873   3.529   1.714   2.434
 1675SOL    HW1  874   3.488   1.691   2.346
 1675SOL    HW2  875   3.511   1.640   2.499
 1676SOL     OW  876   2.460   0.729   2.132
 1676SOL    HW1  877   2.484   0.798   2.064
 1676SOL    HW2  878   2.382   0.762   2.186
 1678SOL     OW  879   3.438   1.662   2.169
 1678SOL    HW1  880   3.527   1.708   2.172
 1678SOL    HW2  881   3.417   1.638   2.074
 1683SOL     OW  882   2.903   0.701   2.291
 1683SOL    HW1  883   2.929   0.697   2.387
 1683SOL    HW2  884   2.818   0.650   2.277
 1684SOL     OW  885   1.938   0.811   2.651
 1684SOL    HW1  886   2.037   0.799   2.660
 1684SOL    HW2  887   1.914   0.906   2.672
 1685SOL     OW  888   1.992   1.821   3.433
 1685SOL    HW1  889   1.982   1.806   3.532
 1685SOL    HW2  890   1.906   1.857   3.397
 1688SOL     OW  891   3.224   1.144   2.407
 1688SOL    HW1  892   3.307   1.115   2.359
 1688SOL    HW2  893   3.175   1.211   2.351
 1690SOL     OW  894   2.870   1.456   2.339
 1690SOL    HW1  895   2.824   1.528   2.287
 1690SOL    HW2  896   2.866   1.476   2.437
 1691SOL     OW  897   2.213   1.801   2.715
 1691SOL    HW1  898   2.263   1.715   2.721
 1691SOL    HW2  899   2.278   1.878   2.712
 1693SOL     OW  900   3.089   1.550   3.368
 1693SOL    HW1  901   3.095   1.473   3.432
 1693SOL    HW2  902   3.037   1.524   3.288
 1694SOL     OW  903   2.183   0.943   2.104
 1694SOL    HW1  904   2.265   0.982   2.062
 1694SOL    HW2  905   2.156   0.861   2.055
 1696SOL     OW  906   2.323   1.266   3.589
 1696SOL    HW1  907   2.273   1.267   3.503
 1696SOL    HW2  908   2.260   1.248   3.665
 1697SOL     OW  909   2.973   1.776   2.099
 1697SOL    HW1  910   2.913   1.714   2.149
 1697SOL    HW2  911   3.004   1.732   2.014
 1699SOL     OW  912   3.494   1.377   1.943
 1699SOL    HW1  913   3.462   1.471   1.933
 1699SOL    HW2  914   3.418   1.314   1.931
 1700SOL     OW  915   2.326   1.743   2.185
 1700SOL    HW1  916   2.359   1.782   2.271
 1700SOL    HW2  917   2.402   1.736   2.120
 1702SOL     OW  918   2.111   1.785   3.103
 1702SOL    HW1  919   2.168   1.720   3.153
 1702SOL    HW2  920   2.095   1.752   3.010
 1703SOL     OW  921   2.802   1.698   2.766
 1703SOL    HW1  922   2.882   1.641   2.787
 1703SOL    HW2  923   2.753   1.658   2.689
 1704SOL     OW  924   2.244   0.700   2.342
 1704SOL    HW1  925   2.289   0.610   2.339
 1704SOL    HW2  926   2.150   0.689   2.375
 1708SOL     OW  927   2.750   1.514   3.057
 1708SOL    HW1  928   2.727   1.489   2.963
 1708SOL    HW2  929   2.811   1.445   3.096
 1710SOL     OW  930   2.665   1.402   2.786
 1710SOL    HW1  931   2.755   1.416   2.744
 1710SOL    HW2  932   2.594   1.404   2.715
 1713SOL     OW  933   3.296   1.188   1.903
 1713SOL    HW1  934   3.328   1.112   1.960
 1713SOL    HW2  935   3.204   1.215   1.933
 1717SOL     OW  936   3.089   1.570   2.655
 1717SOL    HW1  937   3.110   1.644   2.590
 1717SOL    HW2  938   3.157   1.570   2.728
 1718SOL     OW  939   2.321   1.152   2.603
 1718SOL    HW1  940   2.250   1.125   2.668
 1718SOL    HW2  941   2.295   1.124   2.510
 1719SOL     OW  942   3.133   1.797   2.453
 1719SOL    HW1  943   3.177   1.861   2.389
 1719SOL    HW2  944   3.083   1.849   2.523
 1725SOL     OW  945   3.291   1.173   2.729
 1725SOL    HW1  946   3.236   1.089   2.722
 1725SOL    HW2  947   3.317   1.202   2.637
 1728SOL     OW  948   2.350   1.385   2.036
 1728SOL    HW1  949   2.263   1.370   2.083
 1728SOL    HW2  950   2.333   1.411   1.941
 1729SOL     OW  951   3.526   1.280   2.519
 1729SOL    HW1  952   3.625   1.288   2.533
 1729SOL    HW2  953   3.481   1.364   2.550
 1733SOL     OW  954   2.926   1.347   3.202
 1733SOL    HW1  955   2.846   1.324   3.257
 1733SOL    HW2  956   3.009   1.321   3.251
 1734SOL     OW  957   3.454   1.629   3.487
 1734SOL    HW1  958   3.481   1.663   3.397
 1734SOL    HW2  959   3.533   1.591   3.533
 1735SOL     OW  960   2.973   1.195   2.962
 1735SOL    HW1  961   2.933   1.239   3.043
 1735SOL    HW2  962   2.932   1.232   2.879
 1736SOL     OW  963   3.500   1.099   2.941
 1736SOL    HW1  964   3.505   1.180   3.000
 1736SOL    HW2  965   3.414   1.101   2.890
 1738SOL     OW  966   2.842   1.116   3.581
 1738SOL    HW1  967   2.743   1.122   3.591
 1738SOL    HW2  968   2.865   1.036   3.525
 1739SOL     OW  969   2.567   1.050   2.230
 1739SOL    HW1  970   2.553   1.057   2.329
 1739SOL    HW2  971   2.651   0.999   2.212
 1740SOL     OW  972   2.272   0.813   3.113
 1740SOL    HW1  973   2.358   0.825   3.163
 1740SOL    HW2  974   2.230   0.726   3.140
 1742SOL     OW  975   1.926   1.564   3.193
 1742SOL    HW1  976   1.880   1.646   3.159
 1742SOL    HW2  977   2.024   1.583   3.202
 1743SOL     OW  978   2.229   1.100   2.363
 1743SOL    HW1  979   2.222   1.183   2.307
 1743SOL    HW2  980   2.233   1.020   2.303
 1745SOL     OW  981   3.114   1.348   2.250
 1745SOL    HW1  982   3.164   1.425   2.290
 1745SOL    HW2  983   3.019   1.350   2.282
 1746SOL     OW  984   3.134   1.445   3.004
 1746SOL    HW1  985   3.181   1.458   3.091
 1746SOL    HW2  986   3.068   1.371   3.013
 1748SOL     OW  987   2.216   1.510   3.191
 1748SOL    HW1  988   2.195   1.466   3.104
 1748SOL    HW2  989   2.313   1.536   3.194
 1753SOL     OW  990   2.435   0.870   2.891
 1753SOL    HW1  991   2.479   0.959   2.882
 1753SOL    HW2  992   2.372   0.870   2.968
 1757SOL     OW  993   1.899   1.310   3.144
 1757SOL    HW1  994   1.952   1.261   3.212
 1757SOL    HW2  995   1.921   1.408   3.149
 1762SOL     OW  996   2.885   0.766   2.828
 1762SOL    HW1  997   2.900   0.787   2.924
 1762SOL    HW2  998   2.855   0.671   2.819
 1763SOL     OW  999   2.842   1.573   3.562
 1763SOL    HW1 1000   2.822   1.617   3.474
 1763SOL    HW2 1001   2.881   1.482   3.546
 1768SOL     OW 1002   2.930   1.333   2.711
 1768SOL    HW1 1003   2.937   1.249   2.656
 1768SOL    HW2 1004   2.992   1.402   2.675
 1769SOL     OW 1005   2.181   0.810   2.811
 1769SOL    HW1 1006   2.274   0.846   2.816
 1769SOL    HW2 1007   2.175   0.725   2.863
 1773SOL     OW 1008   1.870   1.326   2.062
 1773SOL    HW1 1009   1.777   1.347   2.031
 1773SOL    HW2 1010   1.880   1.227   2.075
 1774SOL     OW 1011   1.950   1.801   2.789
 1774SOL    HW1 1012   1.908   1.715   2.762
 1774SOL    HW2 1013   2.044   1.804   2.755
 1775SOL     OW 1014   2.366   1.568   2.772
 1775SOL    HW1 1015   2.432   1.642   2.781
 1775SOL    HW2 1016   2.410   1.489   2.730
 1782SOL     OW 1017   2.114   1.564   3.606
 1782SOL    HW1 1018   2.084   1.621   3.682
 1782SOL    HW2 1019   2.107   1.467   3.632
 1784SOL     OW 1020   2.792   1.678   3.327
 1784SOL    HW1 1021   2.768   1.660   3.232
 1784SOL    HW2 1022   2.822   1.772   3.337
 1786SOL     OW 1023   2.021   1.137   3.328
 1786SOL    HW1 1024   2.043   1.076   3.404
 1786SOL    HW2 1025   2.031   1.088   3.242
 1787SOL     OW 1026   3.209   1.059   3.096
 1787SOL    HW1 1027   3.233   0.996   3.022
 1787SOL    HW2 1028   3.119   1.099   3.078
 1788SOL     OW 1029   3.164   0.855   2.171
 1788SOL    HW1 1030   3.078   0.824   2.213
 1788SOL    HW2 1031   3.160   0.841   2.072
 1789SOL     OW 1032   3.621   1.747   3.016
 1789SOL    HW1 1033   3.682   1.777   2.943
 1789SOL    HW2 1034   3.583   1.658   2.994
 1790SOL     OW 1035   3.114   1.731   2.990
 1790SOL    HW1 1036   3.198   1.736   2.936
 1790SOL    HW2 1037   3.091   1.635   3.008
 1791SOL     OW 1038   1.945   1.258   2.884
 1791SOL    HW1 1039   1.940   1.257   2.984
 1791SOL    HW2 1040   1.862   1.217   2.846
 1792SOL     OW 1041   2.550   1.662   3.578
 1792SOL    HW1 1042   2.494   1.743   3.587
 1792SOL    HW2 1043   2.602   1.666   3.492
 1794SOL     OW 1044   3.250   1.573   2.339
 1794SOL    HW1 1045   3.317   1.585   2.265
 1794SOL    HW2 1046   3.210   1.662   2.362
 1795SOL     OW 1047   1.992   1.794   3.713
 1795SOL    HW1 1048   1.951   1.720   3.766
 1795SOL    HW2 1049   2.056   1.845   3.771
 1796SOL     OW 1050   3.142   0.927   2.534
 1796SOL    HW1 1051   3.202   0.846   2.536
 1796SOL    HW2 1052   3.182   0.996   2.474
 1797SOL     OW 1053   2.692   1.273   3.284
 1797SOL    HW1 1054   2.687   1.306   3.379
 1797SOL    HW2 1055   2.606   1.292   3.238
 1798SOL     OW 1056   2.534   1.616   2.016
 1798SOL    HW1 1057   2.543   1.626   1.917
 1798SOL    HW2 1058   2.494   1.527   2.037
 1799SOL     OW 1059   3.512   1.720   3.256
 1799SOL    HW1 1060   3.565   1.730   3.172
 1799SOL    HW2 1061   3.485   1.810   3.290
 1802SOL     OW 1062   3.056   1.612   1.893
 1802SOL    HW1 1063   3.062   1.519   1.930
 1802SOL    HW2 1064   2.997   1.612   1.813
 1803SOL     OW 1065   2.684   1.002   3.234
 1803SOL    HW1 1066   2.724   1.001   3.142
 1803SOL    HW2 1067   2.694   1.094   3.274
 1804SOL     OW 1068   2.778   0.910   2.153
 1804SOL    HW1 1069   2.841   0.948   2.085
 1804SOL    HW2 1070   2.818   0.827   2.192
 1805SOL     OW 1071   3.366   1.607   1.906
 1805SOL    HW1 1072   3.274   1.644   1.913
 1805SOL    HW2 1073   3.404   1.627   1.816
 1806SOL     OW 1074   2.234   1.288   3.352
 1806SOL    HW1 1075   2.221   1.381   3.318
 1806SOL    HW2 1076   2.150   1.236   3.339
 1807SOL     OW 1077   3.476   1.292   3.151
 1807SOL    HW1 1078   3.536   1.295   3.231
 1807SOL    HW2 1079   3.401   1.356   3.164
 1808SOL     OW 1080   2.901   1.098   2.558
 1808SOL    HW1 1081   2.831   1.051   2.612
 1808SOL    HW2 1082   2.960   1.030   2.515
 1810SOL     OW 1083   2.452   1.487   2.353
 1810SOL    HW1 1084   2.494   1.429   2.283
 1810SOL    HW2 1085   2.408   1.566   2.309
 1812SOL     OW 1086   2.117   1.348   2.152
 1812SOL    HW1 1087   2.021   1.349   2.125
 1812SOL    HW2 1088   2.129   1.401   2.236
 1818SOL     OW 1089   3.045   1.335   1.981
 1818SOL    HW1 1090   2.946   1.324   1.983
 1818SOL    HW2 1091   3.079   1.350   2.074
 1820SOL     OW 1092   3.355   1.767   2.821
 1820SOL    HW1 1093   3.388   1.831   2.752
 1820SOL    HW2 1094   3.421   1.761   2.896
 1823SOL     OW 1095   2.252   1.741   3.422
 1823SOL    HW1 1096   2.161   1.782   3.420
 1823SOL    HW2 1097   2.245   1.647   3.454
 1826SOL     OW 1098   2.456   0.745   2.514
 1826SOL    HW1 1099   2.506   0.830   2.495
 1826SOL    HW2 1100   2.368   0.747   2.466
 1829SOL     OW 1101   2.721   1.374   1.878
 1829SOL    HW1 1102   2.675   1.389   1.966
 1829SOL    HW2 1103   2.765   1.459   1.848
 1830SOL     OW 1104   2.523   1.790   2.815
 1830SOL    HW1 1105   2.477   1.878   2.802
 1830SOL    HW2 1106   2.622   1.802   2.808
 1831SOL     OW 1107   2.721   0.956   2.723
 1831SOL    HW1 1108   2.775   0.887   2.771
 1831SOL    HW2 1109   2.689   1.025   2.789
 1832SOL     OW 1110   2.945   0.984   1.949
 1832SOL    HW1 1111   2.922   1.037   1.867
 1832SOL    HW2 1112   3.026   0.928   1.930
 1833SOL     OW 1113   3.723   1.569   2.713
 1833SOL    HW1 1114   3.652   1.557   2.643
 1833SOL    HW2 1115   3.724   1.490   2.773
 1834SOL     OW 1116   2.083   1.314   3.706
 1834SOL    HW1 1117   2.018   1.241   3.685
 1834SOL    HW2 1118   2.087   1.328   3.804
 1835SOL     OW 1119   1.941   1.240   2.515
 1835SOL    HW1 1120   1.940   1.193   2.603
 1835SOL    HW2 1121   2.023   1.212   2.464
 1836SOL     OW 1122   2.534   1.391   3.486
 1836SOL    HW1 1123   2.456   1.341   3.524
 1836SOL    HW2 1124   2.531   1.486   3.517
 1839SOL     OW 1125   3.567   1.487   2.966
 1839SOL    HW1 1126   3.474   1.462   2.939
 1839SOL    HW2 1127   3.593   1.437   3.048
 1841SOL     OW 1128   2.674   1.586   2.549
 1841SOL    HW1 1129   2.706   1.596   2.455
 1841SOL    HW2 1130   2.595   1.524   2.551
 1844SOL     OW 1131   2.632   1.330   2.163
 1844SOL    HW1 1132   2.586   1.243   2.180
 1844SOL    HW2 1133   2.723   1.327   2.204
 1845SOL     OW 1134   2.480   1.567   3.146
 1845SOL    HW1 1135   2.475   1.649   3.203
 1845SOL    HW2 1136   2.569   1.564   3.101
 1849SOL     OW 1137   1.901   1.077   2.162
 1849SOL    HW1 1138   2.000   1.066   2.153
 1849SOL    HW2 1139   1.861   0.991   2.194
 1850SOL     OW 1140   2.737   1.646   2.199
 1850SOL    HW1 1141   2.660   1.611   2.145
 1850SOL    HW2 1142   2.705   1.717   2.261
 1867SOL     OW 1143   1.889   1.596   3.841
 1867SOL    HW1 1144   1.870   1.500   3.862
 1867SOL    HW2 1145   1.856   1.654   3.916
 1888SOL     OW 1146   2.973   1.776   3.961
 1888SOL    HW1 1147   2.913   1.714   4.011
 1888SOL    HW2 1148   3.004   1.732   3.876
 1890SOL     OW 1149   2.326   1.743   4.047
 1890SOL    HW1 1150   2.359   1.782   4.133
 1890SOL    HW2 1151   2.402   1.736   3.982
 1944SOL     OW 1152   2.534   1.616   3.878
 1944SOL    HW1 1153   2.543   1.626   3.779
 1944SOL    HW2 1154   2.494   1.527   3.899
 1947SOL     OW 1155   3.056   1.612   3.755
 1947SOL    HW1 1156   3.062   1.519   3.792
 1947SOL    HW2 1157   2.997   1.612   3.675
 1960SOL     OW 1158   2.721   1.374   3.740
 1960SOL    HW1 1159   2.675   1.389   3.828
 1960SOL    HW2 1160   2.765   1.459   3.710
 1976SOL     OW 1161   2.087   2.137   0.996
 1976SOL    HW1 1162   2.122   2.120   1.088
 1976SOL    HW2 1163   1.999   2.092   0.984
 1978SOL     OW 1164   2.431   3.137   1.165
 1978SOL    HW1 1165   2.338   3.130   1.128
 1978SOL    HW2 1166   2.442   3.226   1.209
 1980SOL     OW 1167   2.997   2.565   0.717
 1980SOL    HW1 1168   3.054   2.643   0.692
 1980SOL    HW2 1169   2.937   2.591   0.793
 1982SOL     OW 1170   2.630   3.006   1.023
 1982SOL    HW1 1171   2.552   3.023   1.083
 1982SOL    HW2 1172   2.664   3.093   0.987
 1983SOL     OW 1173   2.712   2.660   1.823
 1983SOL    HW1 1174   2.708   2.736   1.888
 1983SOL    HW2 1175   2.734   2.696   1.732
 1985SOL     OW 1176   2.548   3.023   1.803
 1985SOL    HW1 1177   2.608   3.102   1.817
 1985SOL    HW2 1178   2.462   3.054   1.762
 1986SOL     OW 1179   2.197   3.297   1.061
 1986SOL    HW1 1180   2.119   3.266   1.008
 1986SOL    HW2 1181   2.255   3.355   1.004
 1987SOL     OW 1182   3.322   3.367   1.339
 1987SOL    HW1 1183   3.346   3.461   1.365
 1987SOL    HW2 1184   3.306   3.313   1.421
 1988SOL     OW 1185   2.300   2.254   1.499
 1988SOL    HW1 1186   2.382   2.198   1.508
 1988SOL    HW2 1187   2.219   2.196   1.503
 1991SOL     OW 1188   2.989   3.203   1.690
 1991SOL    HW1 1189   3.036   3.203   1.778
 1991SOL    HW2 1190   2.941   3.116   1.679
 1993SOL     OW 1191   2.102   2.953   0.886
 1993SOL    HW1 1192   2.116   2.869   0.938
 1993SOL    HW2 1193   2.047   3.017   0.941
 1994SOL     OW 1194   2.482   3.648   1.439
 1994SOL    HW1 1195   2.390   3.631   1.474
 1994SOL    HW2 1196   2.510   3.740   1.465
 1996SOL     OW 1197   3.456   1.976   1.480
 1996SOL    HW1 1198   3.438   2.043   1.408
 1996SOL    HW2 1199   3.453   2.022   1.569
 2002SOL     OW 1200   1.975   2.599   1.597
 2002SOL    HW1 1201   2.063   2.586   1.642
 2002SOL    HW2 1202   1.962   2.696   1.575
 2004SOL     OW 1203   3.155   3.090   1.423
 2004SOL    HW1 1204   3.192   3.017   1.365
 2004SOL    HW2 1205   3.207   3.095   1.508
 2006SOL     OW 1206   2.059   2.838   1.264
 2006SOL    HW1 1207   2.148   2.793   1.250
 2006SOL    HW2 1208   1.986   2.773   1.245
 2008SOL     OW 1209   3.049   3.654   1.616
 2008SOL    HW1 1210   3.073   3.714   1.540
 2008SOL    HW2 1211   3.056   3.559   1.586
 2009SOL     OW 1212   2.179   2.113   1.801
 2009SOL    HW1 1213   2.250   2.184   1.807
 2009SOL    HW2 1214   2.091   2.152   1.829
 2013SOL     OW 1215   3.143   2.207   0.944
 2013SOL    HW1 1216   3.057   2.157   0.931
 2013SOL    HW2 1217   3.205   2.153   1.000
 2015SOL     OW 1218   2.669   2.467   1.465
 2015SOL    HW1 1219   2.622   2.464   1.554
 2015SOL    HW2 1220   2.618   2.412   1.399
 2016SOL     OW 1221   3.256   2.331   1.674
 2016SOL    HW1 1222   3.236   2.374   1.762
 2016SOL    HW2 1223   3.334   2.269   1.683
 2017SOL     OW 1224   2.835   2.752   1.572
 2017SOL    HW1 1225   2.881   2.668   1.543
 2017SOL    HW2 1226   2.779   2.786   1.497
 2018SOL     OW 1227   2.853   2.272   1.242
 2018SOL    HW1 1228   2.776   2.306   1.296
 2018SOL    HW2 1229   2.819   2.221   1.163
 2020SOL     OW 1230   1.938   2.673   0.789
 2020SOL    HW1 1231   2.037   2.661   0.798
 2020SOL    HW2 1232   1.914   2.768   0.810
 2021SOL     OW 1233   1.992   3.683   1.571
 2021SOL    HW1 1234   1.982   3.668   1.670
 2021SOL    HW2 1235   1.906   3.719   1.535
 2023SOL     OW 1236   3.581   2.447   1.831
 2023SOL    HW1 1237   3.555   2.536   1.795
 2023SOL    HW2 1238   3.579   2.379   1.758
 2025SOL     OW 1239   2.412   2.058   0.885
 2025SOL    HW1 1240   2.407   2.053   0.985
 2025SOL    HW2 1241   2.414   2.154   0.856
 2029SOL     OW 1242   3.089   3.412   1.506
 2029SOL    HW1 1243   3.095   3.335   1.570
 2029SOL    HW2 1244   3.037   3.386   1.426
 2032SOL     OW 1245   2.323   3.128   1.727
 2032SOL    HW1 1246   2.273   3.129   1.641
 2032SOL    HW2 1247   2.260   3.110   1.803
 2034SOL     OW 1248   2.064   2.147   1.498
 2034SOL    HW1 1249   1.984   2.207   1.485
 2034SOL    HW2 1250   2.054   2.098   1.584
 2038SOL     OW 1251   2.111   3.647   1.241
 2038SOL    HW1 1252   2.168   3.582   1.291
 2038SOL    HW2 1253   2.095   3.614   1.148
 2041SOL     OW 1254   3.409   2.084   1.729
 2041SOL    HW1 1255   3.404   2.121   1.821
 2041SOL    HW2 1256   3.337   2.015   1.717
 2043SOL     OW 1257   2.643   2.126   1.749
 2043SOL    HW1 1258   2.710   2.065   1.792
 2043SOL    HW2 1259   2.570   2.145   1.814
 2044SOL     OW 1260   2.750   3.376   1.195
 2044SOL    HW1 1261   2.727   3.351   1.101
 2044SOL    HW2 1262   2.811   3.307   1.234
 2045SOL     OW 1263   3.213   2.452   1.433
 2045SOL    HW1 1264   3.241   2.409   1.518
 2045SOL    HW2 1265   3.238   2.548   1.434
 2046SOL     OW 1266   2.665   3.264   0.924
 2046SOL    HW1 1267   2.755   3.278   0.882
 2046SOL    HW2 1268   2.594   3.266   0.853
 2047SOL     OW 1269   2.784   2.365   0.899
 2047SOL    HW1 1270   2.759   2.356   0.803
 2047SOL    HW2 1271   2.832   2.283   0.930
 2051SOL     OW 1272   2.938   2.545   1.464
 2051SOL    HW1 1273   2.858   2.484   1.467
 2051SOL    HW2 1274   3.019   2.492   1.440
 2053SOL     OW 1275   2.321   3.014   0.741
 2053SOL    HW1 1276   2.250   2.987   0.806
 2053SOL    HW2 1277   2.295   2.986   0.648
 2056SOL     OW 1278   1.940   2.418   1.386
 2056SOL    HW1 1279   2.032   2.417   1.345
 2056SOL    HW2 1280   1.934   2.492   1.453
 2057SOL     OW 1281   2.423   2.084   1.147
 2057SOL    HW1 1282   2.461   2.000   1.184
 2057SOL    HW2 1283   2.335   2.103   1.191
 2058SOL     OW 1284   2.728   2.316   0.642
 2058SOL    HW1 1285   2.696   2.388   0.580
 2058SOL    HW2 1286   2.752   2.235   0.589
 2059SOL     OW 1287   2.879   1.901   0.753
 2059SOL    HW1 1288   2.807   1.906   0.684
 2059SOL    HW2 1289   2.855   1.832   0.822
 2061SOL     OW 1290   3.328   2.452   0.992
 2061SOL    HW1 1291   3.298   2.357   0.999
 2061SOL    HW2 1292   3.401   2.468   1.058
 2067SOL     OW 1293   3.616   3.085   1.588
 2067SOL    HW1 1294   3.707   3.046   1.575
 2067SOL    HW2 1295   3.624   3.181   1.612
 2068SOL     OW 1296   2.926   3.209   1.340
 2068SOL    HW1 1297   2.846   3.186   1.395
 2068SOL    HW2 1298   3.009   3.183   1.389
 2069SOL     OW 1299   3.454   3.491   1.625
 2069SOL    HW1 1300   3.481   3.525   1.535
 2069SOL    HW2 1301   3.533   3.453   1.671
 2070SOL     OW 1302   2.973   3.057   1.100
 2070SOL    HW1 1303   2.933   3.101   1.181
 2070SOL    HW2 1304   2.932   3.094   1.017
 2072SOL     OW 1305   2.777   1.951   1.402
 2072SOL    HW1 1306   2.802   1.931   1.307
 2072SOL    HW2 1307   2.849   2.007   1.444
 2073SOL     OW 1308   2.842   2.978   1.719
 2073SOL    HW1 1309   2.743   2.984   1.729
 2073SOL    HW2 1310   2.865   2.898   1.663
 2075SOL     OW 1311   2.272   2.675   1.251
 2075SOL    HW1 1312   2.358   2.687   1.301
 2075SOL    HW2 1313   2.230   2.588   1.278
 2076SOL     OW 1314   3.136   2.248   1.262
 2076SOL    HW1 1315   3.157   2.322   1.326
 2076SOL    HW2 1316   3.047   2.265   1.219
 2077SOL     OW 1317   1.926   3.426   1.331
 2077SOL    HW1 1318   1.880   3.508   1.297
 2077SOL    HW2 1319   2.024   3.445   1.340
 2079SOL     OW 1320   2.428   2.399   0.865
 2079SOL    HW1 1321   2.440   2.465   0.791
 2079SOL    HW2 1322   2.474   2.433   0.948
 2081SOL     OW 1323   3.134   3.307   1.142
 2081SOL    HW1 1324   3.181   3.320   1.229
 2081SOL    HW2 1325   3.068   3.233   1.151
 2083SOL     OW 1326   2.216   3.372   1.329
 2083SOL    HW1 1327   2.195   3.328   1.242
 2083SOL    HW2 1328   2.313   3.398   1.332
 2084SOL     OW 1329   2.264   2.613   1.598
 2084SOL    HW1 1330   2.332   2.668   1.551
 2084SOL    HW2 1331   2.304   2.525   1.625
 2085SOL     OW 1332   3.449   2.641   1.670
 2085SOL    HW1 1333   3.357   2.679   1.665
 2085SOL    HW2 1334   3.509   2.688   1.605
 2086SOL     OW 1335   2.875   1.967   1.770
 2086SOL    HW1 1336   2.881   2.052   1.718
 2086SOL    HW2 1337   2.907   1.891   1.713
 2087SOL     OW 1338   2.366   1.912   1.740
 2087SOL    HW1 1339   2.324   1.855   1.670
 2087SOL    HW2 1340   2.300   1.981   1.772
 2088SOL     OW 1341   2.435   2.732   1.029
 2088SOL    HW1 1342   2.479   2.821   1.020
 2088SOL    HW2 1343   2.372   2.732   1.106
 2089SOL     OW 1344   3.222   2.724   1.045
 2089SOL    HW1 1345   3.147   2.724   0.979
 2089SOL    HW2 1346   3.259   2.632   1.054
 2091SOL     OW 1347   2.169   2.075   1.231
 2091SOL    HW1 1348   2.146   2.112   1.321
 2091SOL    HW2 1349   2.139   1.980   1.225
 2092SOL     OW 1350   1.899   3.172   1.282
 2092SOL    HW1 1351   1.952   3.123   1.350
 2092SOL    HW2 1352   1.921   3.270   1.287
 2093SOL     OW 1353   2.594   2.496   1.064
 2093SOL    HW1 1354   2.653   2.470   0.988
 2093SOL    HW2 1355   2.566   2.592   1.053
 2094SOL     OW 1356   3.590   2.797   1.854
 2094SOL    HW1 1357   3.544   2.790   1.765
 2094SOL    HW2 1358   3.528   2.841   1.920
 2097SOL     OW 1359   2.885   2.628   0.966
 2097SOL    HW1 1360   2.900   2.649   1.062
 2097SOL    HW2 1361   2.855   2.533   0.957
 2098SOL     OW 1362   2.842   3.435   1.700
 2098SOL    HW1 1363   2.822   3.479   1.612
 2098SOL    HW2 1364   2.881   3.344   1.684
 2100SOL     OW 1365   2.212   2.760   1.804
 2100SOL    HW1 1366   2.288   2.804   1.852
 2100SOL    HW2 1367   2.247   2.713   1.722
 2104SOL     OW 1368   2.181   2.672   0.949
 2104SOL    HW1 1369   2.274   2.708   0.954
 2104SOL    HW2 1370   2.175   2.587   1.001
 2105SOL     OW 1371   2.201   2.371   1.006
 2105SOL    HW1 1372   2.149   2.288   0.989
 2105SOL    HW2 1373   2.278   2.376   0.942
 2106SOL     OW 1374   3.000   2.242   1.678
 2106SOL    HW1 1375   2.955   2.305   1.742
 2106SOL    HW2 1376   3.093   2.273   1.661
 2107SOL     OW 1377   3.022   2.069   1.477
 2107SOL    HW1 1378   3.022   2.133   1.554
 2107SOL    HW2 1379   3.050   2.117   1.394
 2111SOL     OW 1380   2.864   2.658   1.238
 2111SOL    HW1 1381   2.905   2.626   1.324
 2111SOL    HW2 1382   2.768   2.631   1.235
 2112SOL     OW 1383   1.902   2.406   1.114
 2112SOL    HW1 1384   1.987   2.373   1.073
 2112SOL    HW2 1385   1.915   2.421   1.212
 2113SOL     OW 1386   2.051   2.382   1.722
 2113SOL    HW1 1387   2.110   2.342   1.652
 2113SOL    HW2 1388   1.993   2.453   1.681
 2114SOL     OW 1389   3.231   2.812   1.660
 2114SOL    HW1 1390   3.270   2.901   1.680
 2114SOL    HW2 1391   3.241   2.792   1.563
 2116SOL     OW 1392   3.519   2.466   1.206
 2116SOL    HW1 1393   3.481   2.397   1.268
 2116SOL    HW2 1394   3.601   2.430   1.162
 2117SOL     OW 1395   2.114   3.426   1.744
 2117SOL    HW1 1396   2.084   3.483   1.820
 2117SOL    HW2 1397   2.107   3.329   1.770
 2118SOL     OW 1398   2.533   2.326   1.269
 2118SOL    HW1 1399   2.499   2.237   1.239
 2118SOL    HW2 1400   2.559   2.380   1.189
 2119SOL     OW 1401   2.792   3.540   1.465
 2119SOL    HW1 1402   2.768   3.522   1.370
 2119SOL    HW2 1403   2.822   3.634   1.475
 2121SOL     OW 1404   2.021   2.999   1.466
 2121SOL    HW1 1405   2.043   2.938   1.542
 2121SOL    HW2 1406   2.031   2.950   1.380
 2122SOL     OW 1407   3.209   2.921   1.234
 2122SOL    HW1 1408   3.233   2.858   1.160
 2122SOL    HW2 1409   3.119   2.961   1.216
 2126SOL     OW 1410   1.945   3.120   1.022
 2126SOL    HW1 1411   1.940   3.119   1.122
 2126SOL    HW2 1412   1.862   3.079   0.984
 2127SOL     OW 1413   2.550   3.524   1.716
 2127SOL    HW1 1414   2.494   3.605   1.725
 2127SOL    HW2 1415   2.602   3.528   1.630
 2131SOL     OW 1416   1.992   3.656   1.851
 2131SOL    HW1 1417   1.951   3.582   1.904
 2131SOL    HW2 1418   2.056   3.707   1.909
 2133SOL     OW 1419   2.692   3.135   1.422
 2133SOL    HW1 1420   2.687   3.168   1.517
 2133SOL    HW2 1421   2.606   3.154   1.376
 2137SOL     OW 1422   2.125   2.188   0.720
 2137SOL    HW1 1423   2.046   2.239   0.686
 2137SOL    HW2 1424   2.116   2.173   0.818
 2139SOL     OW 1425   2.684   2.864   1.372
 2139SOL    HW1 1426   2.724   2.863   1.280
 2139SOL    HW2 1427   2.694   2.956   1.412
 2142SOL     OW 1428   2.234   3.150   1.490
 2142SOL    HW1 1429   2.221   3.243   1.456
 2142SOL    HW2 1430   2.150   3.098   1.477
 2143SOL     OW 1431   3.476   3.154   1.289
 2143SOL    HW1 1432   3.536   3.157   1.369
 2143SOL    HW2 1433   3.401   3.218   1.302
 2145SOL     OW 1434   2.876   2.098   0.971
 2145SOL    HW1 1435   2.868   2.062   0.878
 2145SOL    HW2 1436   2.874   2.022   1.036
 2147SOL     OW 1437   3.571   2.247   1.381
 2147SOL    HW1 1438   3.644   2.316   1.385
 2147SOL    HW2 1439   3.599   2.172   1.322
 2149SOL     OW 1440   1.967   2.875   1.726
 2149SOL    HW1 1441   1.890   2.842   1.780
 2149SOL    HW2 1442   2.052   2.845   1.768
 2150SOL     OW 1443   2.534   2.065   1.489
 2150SOL    HW1 1444   2.624   2.049   1.449
 2150SOL    HW2 1445   2.542   2.070   1.588
 2152SOL     OW 1446   3.302   2.718   1.398
 2152SOL    HW1 1447   3.245   2.770   1.335
 2152SOL    HW2 1448   3.398   2.730   1.374
 2155SOL     OW 1449   2.475   2.704   1.431
 2155SOL    HW1 1450   2.531   2.785   1.414
 2155SOL    HW2 1451   2.534   2.624   1.434
 2157SOL     OW 1452   2.578   2.427   1.708
 2157SOL    HW1 1453   2.597   2.492   1.782
 2157SOL    HW2 1454   2.638   2.347   1.717
 2158SOL     OW 1455   3.312   3.082   1.633
 2158SOL    HW1 1456   3.303   3.072   1.732
 2158SOL    HW2 1457   3.408   3.075   1.607
 2159SOL     OW 1458   2.252   3.603   1.560
 2159SOL    HW1 1459   2.161   3.644   1.558
 2159SOL    HW2 1460   2.245   3.509   1.592
 2160SOL     OW 1461   3.536   2.745   1.254
 2160SOL    HW1 1462   3.509   2.656   1.217
 2160SOL    HW2 1463   3.537   2.813   1.181
 2162SOL     OW 1464   2.456   2.607   0.652
 2162SOL    HW1 1465   2.506   2.692   0.633
 2162SOL    HW2 1466   2.368   2.609   0.604
 2163SOL     OW 1467   3.639   2.204   1.642
 2163SOL    HW1 1468   3.622   2.235   1.548
 2163SOL    HW2 1469   3.555   2.167   1.680
 2164SOL     OW 1470   3.592   2.796   1.517
 2164SOL    HW1 1471   3.630   2.887   1.532
 2164SOL    HW2 1472   3.584   2.779   1.418
 2167SOL     OW 1473   2.721   2.818   0.861
 2167SOL    HW1 1474   2.775   2.749   0.909
 2167SOL    HW2 1475   2.689   2.887   0.927
 2170SOL     OW 1476   2.083   3.176   1.844
 2170SOL    HW1 1477   2.018   3.103   1.823
 2170SOL    HW2 1478   2.087   3.190   1.942
 2172SOL     OW 1479   2.534   3.253   1.624
 2172SOL    HW1 1480   2.456   3.203   1.662
 2172SOL    HW2 1481   2.531   3.348   1.655
 2173SOL     OW 1482   3.686   2.054   1.227
 2173SOL    HW1 1483   3.682   1.964   1.271
 2173SOL    HW2 1484   3.689   2.043   1.128
 2176SOL     OW 1485   2.179   2.409   1.280
 2176SOL    HW1 1486   2.217   2.350   1.352
 2176SOL    HW2 1487   2.219   2.383   1.192
 2178SOL     OW 1488   3.286   2.076   1.112
 2178SOL    HW1 1489   3.338   2.011   1.167
 2178SOL    HW2 1490   3.237   2.139   1.173
 2179SOL     OW 1491   2.863   1.896   1.154
 2179SOL    HW1 1492   2.800   1.824   1.123
 2179SOL    HW2 1493   2.956   1.860   1.154
 2181SOL     OW 1494   2.480   3.429   1.284
 2181SOL    HW1 1495   2.475   3.511   1.341
 2181SOL    HW2 1496   2.569   3.426   1.239
 2187SOL     OW 1497   2.092   2.490   1.975
 2187SOL    HW1 1498   1.999   2.488   2.012
 2187SOL    HW2 1499   2.093   2.451   1.883
 2188SOL     OW 1500   2.087   2.137   2.858
 2188SOL    HW1 1501   2.122   2.120   2.950
 2188SOL    HW2 1502   1.999   2.092   2.846
 2189SOL     OW 1503   1.881   2.230   2.509
 2189SOL    HW1 1504   1.799   2.273   2.548
 2189SOL    HW2 1505   1.853   2.157   2.446
 2190SOL     OW 1506   2.431   3.137   3.027
 2190SOL    HW1 1507   2.338   3.130   2.990
 2190SOL    HW2 1508   2.442   3.226   3.071
 2191SOL     OW 1509   3.417   3.373   2.565
 2191SOL    HW1 1510   3.360   3.357   2.646
 2191SOL    HW2 1511   3.358   3.383   2.485
 2192SOL     OW 1512   2.997   2.565   2.579
 2192SOL    HW1 1513   3.054   2.643   2.554
 2192SOL    HW2 1514   2.937   2.591   2.655
 2193SOL     OW 1515   3.617   2.469   2.093
 2193SOL    HW1 1516   3.605   2.456   1.994
 2193SOL    HW2 1517   3.587   2.388   2.142
 2194SOL     OW 1518   2.630   3.006   2.885
 2194SOL    HW1 1519   2.552   3.023   2.945
 2194SOL    HW2 1520   2.664   3.093   2.849
 2195SOL     OW 1521   2.712   2.660   3.685
 2195SOL    HW1 1522   2.708   2.736   3.750
 2195SOL    HW2 1523   2.734   2.696   3.594
 2196SOL     OW 1524   2.547   2.874   2.527
 2196SOL    HW1 1525   2.616   2.858   2.597
 2196SOL    HW2 1526   2.474   2.931   2.565
 2197SOL     OW 1527   2.548   3.023   3.665
 2197SOL    HW1 1528   2.608   3.102   3.679
 2197SOL    HW2 1529   2.462   3.054   3.624
 2198SOL     OW 1530   2.197   3.297   2.923
 2198SOL    HW1 1531   2.119   3.266   2.870
 2198SOL    HW2 1532   2.255   3.355   2.866
 2199SOL     OW 1533   3.322   3.367   3.201
 2199SOL    HW1 1534   3.346   3.461   3.227
 2199SOL    HW2 1535   3.306   3.313   3.283
 2200SOL     OW 1536   2.300   2.254   3.361
 2200SOL    HW1 1537   2.382   2.198   3.370
 2200SOL    HW2 1538   2.219   2.196   3.365
 2201SOL     OW 1539   3.465   2.309   2.599
 2201SOL    HW1 1540   3.391   2.355   2.549
 2201SOL    HW2 1541   3.516   2.377   2.652
 2202SOL     OW 1542   2.093   3.575   2.345
 2202SOL    HW1 1543   2.127   3.652   2.399
 2202SOL    HW2 1544   2.137   3.575   2.255
 2203SOL     OW 1545   2.989   3.203   3.552
 2203SOL    HW1 1546   3.036   3.203   3.640
 2203SOL    HW2 1547   2.941   3.116   3.541
 2204SOL     OW 1548   2.092   3.296   2.400
 2204SOL    HW1 1549   2.066   3.392   2.400
 2204SOL    HW2 1550   2.021   3.242   2.445
 2205SOL     OW 1551   2.102   2.953   2.748
 2205SOL    HW1 1552   2.116   2.869   2.800
 2205SOL    HW2 1553   2.047   3.017   2.803
 2206SOL     OW 1554   2.482   3.648   3.301
 2206SOL    HW1 1555   2.390   3.631   3.336
 2206SOL    HW2 1556   2.510   3.740   3.327
 2207SOL     OW 1557   2.468   2.826   1.985
 2207SOL    HW1 1558   2.475   2.910   1.931
 2207SOL    HW2 1559   2.514   2.839   2.073
 2208SOL     OW 1560   3.456   1.976   3.342
 2208SOL    HW1 1561   3.438   2.043   3.270
 2208SOL    HW2 1562   3.453   2.022   3.431
 2209SOL     OW 1563   1.984   2.505   2.425
 2209SOL    HW1 1564   1.939   2.417   2.442
 2209SOL    HW2 1565   1.983   2.559   2.509
 2210SOL     OW 1566   3.704   3.629   2.221
 2210SOL    HW1 1567   3.758   3.600   2.301
 2210SOL    HW2 1568   3.734   3.719   2.192
 2211SOL     OW 1569   1.889   3.458   1.979
 2211SOL    HW1 1570   1.870   3.362   2.000
 2211SOL    HW2 1571   1.856   3.516   2.054
 2212SOL     OW 1572   3.551   2.784   2.474
 2212SOL    HW1 1573   3.646   2.755   2.482
 2212SOL    HW2 1574   3.543   2.849   2.399
 2213SOL     OW 1575   3.503   2.970   2.294
 2213SOL    HW1 1576   3.589   2.972   2.242
 2213SOL    HW2 1577   3.517   3.017   2.382
 2214SOL     OW 1578   1.975   2.599   3.459
 2214SOL    HW1 1579   2.063   2.586   3.504
 2214SOL    HW2 1580   1.962   2.696   3.437
 2215SOL     OW 1581   2.475   3.227   2.588
 2215SOL    HW1 1582   2.426   3.140   2.597
 2215SOL    HW2 1583   2.452   3.270   2.501
 2216SOL     OW 1584   3.155   3.090   3.285
 2216SOL    HW1 1585   3.192   3.017   3.227
 2216SOL    HW2 1586   3.207   3.095   3.370
 2217SOL     OW 1587   2.671   1.866   2.364
 2217SOL    HW1 1588   2.711   1.957   2.355
 2217SOL    HW2 1589   2.571   1.874   2.370
 2218SOL     OW 1590   2.059   2.838   3.126
 2218SOL    HW1 1591   2.148   2.793   3.112
 2218SOL    HW2 1592   1.986   2.773   3.107
 2219SOL     OW 1593   3.387   2.861   2.052
 2219SOL    HW1 1594   3.324   2.785   2.065
 2219SOL    HW2 1595   3.435   2.879   2.138
 2220SOL     OW 1596   3.049   3.654   3.478
 2220SOL    HW1 1597   3.073   3.714   3.402
 2220SOL    HW2 1598   3.056   3.559   3.448
 2221SOL     OW 1599   2.179   2.113   3.663
 2221SOL    HW1 1600   2.250   2.184   3.669
 2221SOL    HW2 1601   2.091   2.152   3.691
 2222SOL     OW 1602   3.328   3.279   2.815
 2222SOL    HW1 1603   3.269   3.285   2.895
 2222SOL    HW2 1604   3.313   3.191   2.769
 2223SOL     OW 1605   3.529   3.576   2.434
 2223SOL    HW1 1606   3.488   3.553   2.346
 2223SOL    HW2 1607   3.511   3.502   2.499
 2224SOL     OW 1608   3.143   2.207   2.806
 2224SOL    HW1 1609   3.057   2.157   2.793
 2224SOL    HW2 1610   3.205   2.153   2.862
 2225SOL     OW 1611   3.438   3.524   2.169
 2225SOL    HW1 1612   3.527   3.570   2.172
 2225SOL    HW2 1613   3.417   3.500   2.074
 2226SOL     OW 1614   2.669   2.467   3.327
 2226SOL    HW1 1615   2.622   2.464   3.416
 2226SOL    HW2 1616   2.618   2.412   3.261
 2227SOL     OW 1617   3.256   2.331   3.536
 2227SOL    HW1 1618   3.236   2.374   3.624
 2227SOL    HW2 1619   3.334   2.269   3.545
 2228SOL     OW 1620   2.835   2.752   3.434
 2228SOL    HW1 1621   2.881   2.668   3.405
 2228SOL    HW2 1622   2.779   2.786   3.359
 2229SOL     OW 1623   2.853   2.272   3.104
 2229SOL    HW1 1624   2.776   2.306   3.158
 2229SOL    HW2 1625   2.819   2.221   3.025
 2230SOL     OW 1626   2.903   2.563   2.291
 2230SOL    HW1 1627   2.929   2.559   2.387
 2230SOL    HW2 1628   2.818   2.512   2.277
 2231SOL     OW 1629   1.938   2.673   2.651
 2231SOL    HW1 1630   2.037   2.661   2.660
 2231SOL    HW2 1631   1.914   2.768   2.672
 2232SOL     OW 1632   1.992   3.683   3.433
 2232SOL    HW1 1633   1.982   3.668   3.532
 2232SOL    HW2 1634   1.906   3.719   3.397
 2233SOL     OW 1635   2.727   2.210   2.057
 2233SOL    HW1 1636   2.786   2.273   2.008
 2233SOL    HW2 1637   2.746   2.116   2.028
 2234SOL     OW 1638   3.581   2.447   3.693
 2234SOL    HW1 1639   3.555   2.536   3.657
 2234SOL    HW2 1640   3.579   2.379   3.620
 2235SOL     OW 1641   3.224   3.006   2.407
 2235SOL    HW1 1642   3.307   2.977   2.359
 2235SOL    HW2 1643   3.175   3.073   2.351
 2236SOL     OW 1644   2.412   2.058   2.747
 2236SOL    HW1 1645   2.407   2.053   2.847
 2236SOL    HW2 1646   2.414   2.154   2.718
 2237SOL     OW 1647   2.870   3.318   2.339
 2237SOL    HW1 1648   2.824   3.390   2.287
 2237SOL    HW2 1649   2.866   3.338   2.437
 2238SOL     OW 1650   2.213   3.663   2.715
 2238SOL    HW1 1651   2.263   3.577   2.721
 2238SOL    HW2 1652   2.278   3.740   2.712
 2239SOL     OW 1653   3.657   2.928   2.735
 2239SOL    HW1 1654   3.595   2.913   2.659
 2239SOL    HW2 1655   3.605   2.939   2.820
 2240SOL     OW 1656   3.089   3.412   3.368
 2240SOL    HW1 1657   3.095   3.335   3.432
 2240SOL    HW2 1658   3.037   3.386   3.288
 2241SOL     OW 1659   2.183   2.805   2.104
 2241SOL    HW1 1660   2.265   2.844   2.062
 2241SOL    HW2 1661   2.156   2.723   2.055
 2242SOL     OW 1662   3.320   2.597   2.590
 2242SOL    HW1 1663   3.315   2.532   2.665
 2242SOL    HW2 1664   3.400   2.656   2.603
 2243SOL     OW 1665   2.323   3.128   3.589
 2243SOL    HW1 1666   2.273   3.129   3.503
 2243SOL    HW2 1667   2.260   3.110   3.665
 2244SOL     OW 1668   2.973   3.638   2.099
 2244SOL    HW1 1669   2.913   3.576   2.149
 2244SOL    HW2 1670   3.004   3.594   2.014
 2245SOL     OW 1671   2.064   2.147   3.360
 2245SOL    HW1 1672   1.984   2.207   3.347
 2245SOL    HW2 1673   2.054   2.098   3.446
 2246SOL     OW 1674   3.494   3.239   1.943
 2246SOL    HW1 1675   3.462   3.333   1.933
 2246SOL    HW2 1676   3.418   3.176   1.931
 2247SOL     OW 1677   2.326   3.605   2.185
 2247SOL    HW1 1678   2.359   3.644   2.271
 2247SOL    HW2 1679   2.402   3.598   2.120
 2248SOL     OW 1680   3.262   1.969   2.288
 2248SOL    HW1 1681   3.238   1.932   2.198
 2248SOL    HW2 1682   3.361   1.985   2.292
 2249SOL     OW 1683   2.111   3.647   3.103
 2249SOL    HW1 1684   2.168   3.582   3.153
 2249SOL    HW2 1685   2.095   3.614   3.010
 2250SOL     OW 1686   2.802   3.560   2.766
 2250SOL    HW1 1687   2.882   3.503   2.787
 2250SOL    HW2 1688   2.753   3.520   2.689
 2251SOL     OW 1689   3.409   2.084   3.591
 2251SOL    HW1 1690   3.404   2.121   3.683
 2251SOL    HW2 1691   3.337   2.015   3.579
 2252SOL     OW 1692   2.476   1.984   1.979
 2252SOL    HW1 1693   2.574   1.962   1.986
 2252SOL    HW2 1694   2.445   1.967   1.886
 2253SOL     OW 1695   2.643   2.126   3.611
 2253SOL    HW1 1696   2.710   2.065   3.654
 2253SOL    HW2 1697   2.570   2.145   3.676
 2254SOL     OW 1698   2.750   3.376   3.057
 2254SOL    HW1 1699   2.727   3.351   2.963
 2254SOL    HW2 1700   2.811   3.307   3.096
 2255SOL     OW 1701   3.213   2.452   3.295
 2255SOL    HW1 1702   3.241   2.409   3.380
 2255SOL    HW2 1703   3.238   2.548   3.296
 2256SOL     OW 1704   2.665   3.264   2.786
 2256SOL    HW1 1705   2.755   3.278   2.744
 2256SOL    HW2 1706   2.594   3.266   2.715
 2257SOL     OW 1707   2.784   2.365   2.761
 2257SOL    HW1 1708   2.759   2.356   2.665
 2257SOL    HW2 1709   2.832   2.283   2.792
 2258SOL     OW 1710   2.401   1.926   2.374
 2258SOL    HW1 1711   2.320   1.927   2.432
 2258SOL    HW2 1712   2.404   2.009   2.319
 2259SOL     OW 1713   3.296   3.050   1.903
 2259SOL    HW1 1714   3.328   2.974   1.960
 2259SOL    HW2 1715   3.204   3.077   1.933
 2260SOL     OW 1716   2.159   1.897   2.033
 2260SOL    HW1 1717   2.208   1.981   2.012
 2260SOL    HW2 1718   2.221   1.832   2.078
 2261SOL     OW 1719   2.797   2.098   2.342
 2261SOL    HW1 1720   2.749   2.139   2.264
 2261SOL    HW2 1721   2.896   2.096   2.323
 2262SOL     OW 1722   2.938   2.545   3.326
 2262SOL    HW1 1723   2.858   2.484   3.329
 2262SOL    HW2 1724   3.019   2.492   3.302
 2263SOL     OW 1725   3.089   3.432   2.655
 2263SOL    HW1 1726   3.110   3.506   2.590
 2263SOL    HW2 1727   3.157   3.432   2.728
 2264SOL     OW 1728   2.321   3.014   2.603
 2264SOL    HW1 1729   2.250   2.987   2.668
 2264SOL    HW2 1730   2.295   2.986   2.510
 2265SOL     OW 1731   3.133   3.659   2.453
 2265SOL    HW1 1732   3.177   3.723   2.389
 2265SOL    HW2 1733   3.083   3.711   2.523
 2266SOL     OW 1734   2.894   2.411   1.878
 2266SOL    HW1 1735   2.853   2.493   1.839
 2266SOL    HW2 1736   2.958   2.437   1.951
 2267SOL     OW 1737   1.940   2.418   3.248
 2267SOL    HW1 1738   2.032   2.417   3.207
 2267SOL    HW2 1739   1.934   2.492   3.315
 2268SOL     OW 1740   2.423   2.084   3.009
 2268SOL    HW1 1741   2.461   2.000   3.046
 2268SOL    HW2 1742   2.335   2.103   3.053
 2269SOL     OW 1743   2.879   1.901   2.615
 2269SOL    HW1 1744   2.807   1.906   2.546
 2269SOL    HW2 1745   2.855   1.832   2.684
 2270SOL     OW 1746   3.291   3.035   2.729
 2270SOL    HW1 1747   3.236   2.951   2.722
 2270SOL    HW2 1748   3.317   3.064   2.637
 2271SOL     OW 1749   3.328   2.452   2.854
 2271SOL    HW1 1750   3.298   2.357   2.861
 2271SOL    HW2 1751   3.401   2.468   2.920
 2272SOL     OW 1752   3.719   2.695   2.239
 2272SOL    HW1 1753   3.761   2.631   2.303
 2272SOL    HW2 1754   3.681   2.644   2.161
 2273SOL     OW 1755   2.350   3.247   2.036
 2273SOL    HW1 1756   2.263   3.232   2.083
 2273SOL    HW2 1757   2.333   3.273   1.941
 2274SOL     OW 1758   3.526   3.142   2.519
 2274SOL    HW1 1759   3.625   3.150   2.533
 2274SOL    HW2 1760   3.481   3.226   2.550
 2275SOL     OW 1761   3.252   2.437   1.940
 2275SOL    HW1 1762   3.198   2.416   2.021
 2275SOL    HW2 1763   3.343   2.396   1.949
 2276SOL     OW 1764   2.389   2.118   2.190
 2276SOL    HW1 1765   2.416   2.059   2.115
 2276SOL    HW2 1766   2.389   2.213   2.159
 2277SOL     OW 1767   3.616   3.085   3.450
 2277SOL    HW1 1768   3.707   3.046   3.437
 2277SOL    HW2 1769   3.624   3.181   3.474
 2278SOL     OW 1770   2.926   3.209   3.202
 2278SOL    HW1 1771   2.846   3.186   3.257
 2278SOL    HW2 1772   3.009   3.183   3.251
 2280SOL     OW 1773   2.973   3.057   2.962
 2280SOL    HW1 1774   2.933   3.101   3.043
 2280SOL    HW2 1775   2.932   3.094   2.879
 2281SOL     OW 1776   3.500   2.961   2.941
 2281SOL    HW1 1777   3.505   3.042   3.000
 2281SOL    HW2 1778   3.414   2.963   2.890
 2282SOL     OW 1779   2.777   1.951   3.264
 2282SOL    HW1 1780   2.802   1.931   3.169
 2282SOL    HW2 1781   2.849   2.007   3.306
 2283SOL     OW 1782   2.842   2.978   3.581
 2283SOL    HW1 1783   2.743   2.984   3.591
 2283SOL    HW2 1784   2.865   2.898   3.525
 2284SOL     OW 1785   2.567   2.912   2.230
 2284SOL    HW1 1786   2.553   2.919   2.329
 2284SOL    HW2 1787   2.651   2.861   2.212
 2285SOL     OW 1788   2.272   2.675   3.113
 2285SOL    HW1 1789   2.358   2.687   3.163
 2285SOL    HW2 1790   2.230   2.588   3.140
 2286SOL     OW 1791   3.136   2.248   3.124
 2286SOL    HW1 1792   3.157   2.322   3.188
 2286SOL    HW2 1793   3.047   2.265   3.081
 2287SOL     OW 1794   1.926   3.426   3.193
 2287SOL    HW1 1795   1.880   3.508   3.159
 2287SOL    HW2 1796   2.024   3.445   3.202
 2288SOL     OW 1797   2.229   2.962   2.363
 2288SOL    HW1 1798   2.222   3.045   2.307
 2288SOL    HW2 1799   2.233   2.882   2.303
 2289SOL     OW 1800   3.114   3.210   2.250
 2289SOL    HW1 1801   3.164   3.287   2.290
 2289SOL    HW2 1802   3.019   3.212   2.282
 2290SOL     OW 1803   3.134   3.307   3.004
 2290SOL    HW1 1804   3.181   3.320   3.091
 2290SOL    HW2 1805   3.068   3.233   3.013
 2291SOL     OW 1806   3.444   2.501   2.334
 2291SOL    HW1 1807   3.413   2.562   2.407
 2291SOL    HW2 1808   3.494   2.553   2.265
 2292SOL     OW 1809   2.216   3.372   3.191
 2292SOL    HW1 1810   2.195   3.328   3.104
 2292SOL    HW2 1811   2.313   3.398   3.194
 2293SOL     OW 1812   2.264   2.613   3.460
 2293SOL    HW1 1813   2.332   2.668   3.413
 2293SOL    HW2 1814   2.304   2.525   3.487
 2294SOL     OW 1815   3.449   2.641   3.532
 2294SOL    HW1 1816   3.357   2.679   3.527
 2294SOL    HW2 1817   3.509   2.688   3.467
 2295SOL     OW 1818   2.875   1.967   3.632
 2295SOL    HW1 1819   2.881   2.052   3.580
 2295SOL    HW2 1820   2.907   1.891   3.575
 2296SOL     OW 1821   2.366   1.912   3.602
 2296SOL    HW1 1822   2.324   1.855   3.532
 2296SOL    HW2 1823   2.300   1.981   3.634
 2297SOL     OW 1824   2.435   2.732   2.891
 2297SOL    HW1 1825   2.479   2.821   2.882
 2297SOL    HW2 1826   2.372   2.732   2.968
 2298SOL     OW 1827   3.222   2.724   2.907
 2298SOL    HW1 1828   3.147   2.724   2.841
 2298SOL    HW2 1829   3.259   2.632   2.916
 2299SOL     OW 1830   3.071   2.387   2.137
 2299SOL    HW1 1831   3.084   2.303   2.191
 2299SOL    HW2 1832   3.042   2.461   2.197
 2300SOL     OW 1833   2.169   2.075   3.093
 2300SOL    HW1 1834   2.146   2.112   3.183
 2300SOL    HW2 1835   2.139   1.980   3.087
 2301SOL     OW 1836   1.899   3.172   3.144
 2301SOL    HW1 1837   1.952   3.123   3.212
 2301SOL    HW2 1838   1.921   3.270   3.149
 2302SOL     OW 1839   2.594   2.496   2.926
 2302SOL    HW1 1840   2.653   2.470   2.850
 2302SOL    HW2 1841   2.566   2.592   2.915
 2304SOL     OW 1842   2.169   1.925   2.480
 2304SOL    HW1 1843   2.158   2.019   2.513
 2304SOL    HW2 1844   2.164   1.862   2.557
 2305SOL     OW 1845   3.484   2.229   2.236
 2305SOL    HW1 1846   3.486   2.153   2.300
 2305SOL    HW2 1847   3.436   2.306   2.276
 2306SOL     OW 1848   2.885   2.628   2.828
 2306SOL    HW1 1849   2.900   2.649   2.924
 2306SOL    HW2 1850   2.855   2.533   2.819
 2307SOL     OW 1851   2.842   3.435   3.562
 2307SOL    HW1 1852   2.822   3.479   3.474
 2307SOL    HW2 1853   2.881   3.344   3.546
 2309SOL     OW 1854   2.212   2.760   3.666
 2309SOL    HW1 1855   2.288   2.804   3.714
 2309SOL    HW2 1856   2.247   2.713   3.584
 2310SOL     OW 1857   3.402   2.136   1.987
 2310SOL    HW1 1858   3.341   2.061   2.010
 2310SOL    HW2 1859   3.424   2.188   2.070
 2311SOL     OW 1860   3.165   2.700   1.904
 2311SOL    HW1 1861   3.199   2.607   1.919
 2311SOL    HW2 1862   3.183   2.727   1.809
 2312SOL     OW 1863   2.930   3.195   2.711
 2312SOL    HW1 1864   2.937   3.111   2.656
 2312SOL    HW2 1865   2.992   3.264   2.675
 2313SOL     OW 1866   2.181   2.672   2.811
 2313SOL    HW1 1867   2.274   2.708   2.816
 2313SOL    HW2 1868   2.175   2.587   2.863
 2314SOL     OW 1869   3.000   2.242   3.540
 2314SOL    HW1 1870   2.955   2.305   3.604
 2314SOL    HW2 1871   3.093   2.273   3.523
 2315SOL     OW 1872   3.022   2.069   3.339
 2315SOL    HW1 1873   3.022   2.133   3.416
 2315SOL    HW2 1874   3.050   2.117   3.256
 2316SOL     OW 1875   1.870   3.188   2.062
 2316SOL    HW1 1876   1.777   3.209   2.031
 2316SOL    HW2 1877   1.880   3.089   2.075
 2317SOL     OW 1878   1.950   3.663   2.789
 2317SOL    HW1 1879   1.908   3.577   2.762
 2317SOL    HW2 1880   2.044   3.666   2.755
 2318SOL     OW 1881   2.366   3.430   2.772
 2318SOL    HW1 1882   2.432   3.504   2.781
 2318SOL    HW2 1883   2.410   3.351   2.730
 2319SOL     OW 1884   2.864   2.658   3.100
 2319SOL    HW1 1885   2.905   2.626   3.186
 2319SOL    HW2 1886   2.768   2.631   3.097
 2320SOL     OW 1887   1.902   2.406   2.976
 2320SOL    HW1 1888   1.987   2.373   2.935
 2320SOL    HW2 1889   1.915   2.421   3.074
 2321SOL     OW 1890   2.051   2.382   3.584
 2321SOL    HW1 1891   2.110   2.342   3.514
 2321SOL    HW2 1892   1.993   2.453   3.543
 2322SOL     OW 1893   3.231   2.812   3.522
 2322SOL    HW1 1894   3.270   2.901   3.542
 2322SOL    HW2 1895   3.241   2.792   3.425
 2323SOL     OW 1896   2.677   2.434   2.187
 2323SOL    HW1 1897   2.684   2.345   2.141
 2323SOL    HW2 1898   2.583   2.468   2.179
 2324SOL     OW 1899   3.519   2.466   3.068
 2324SOL    HW1 1900   3.481   2.397   3.130
 2324SOL    HW2 1901   3.601   2.430   3.024
 2325SOL     OW 1902   2.114   3.426   3.606
 2325SOL    HW1 1903   2.084   3.483   3.682
 2325SOL    HW2 1904   2.107   3.329   3.632
 2326SOL     OW 1905   2.533   2.326   3.131
 2326SOL    HW1 1906   2.499   2.237   3.101
 2326SOL    HW2 1907   2.559   2.380   3.051
 2327SOL     OW 1908   2.792   3.540   3.327
 2327SOL    HW1 1909   2.768   3.522   3.232
 2327SOL    HW2 1910   2.822   3.634   3.337
 2328SOL     OW 1911   2.021   2.999   3.328
 2328SOL    HW1 1912   2.043   2.938   3.404
 2328SOL    HW2 1913   2.031   2.950   3.242
 2329SOL     OW 1914   3.209   2.921   3.096
 2329SOL    HW1 1915   3.233   2.858   3.022
 2329SOL    HW2 1916   3.119   2.961   3.078
 2330SOL     OW 1917   3.164   2.717   2.171
 2330SOL    HW1 1918   3.078   2.686   2.213
 2330SOL    HW2 1919   3.160   2.703   2.072
 2332SOL     OW 1920   3.114   3.593   2.990
 2332SOL    HW1 1921   3.198   3.598   2.936
 2332SOL    HW2 1922   3.091   3.497   3.008
 2333SOL     OW 1923   1.945   3.120   2.884
 2333SOL    HW1 1924   1.940   3.119   2.984
 2333SOL    HW2 1925   1.862   3.079   2.846
 2334SOL     OW 1926   2.550   3.524   3.578
 2334SOL    HW1 1927   2.494   3.605   3.587
 2334SOL    HW2 1928   2.602   3.528   3.492
 2335SOL     OW 1929   3.588   1.997   2.385
 2335SOL    HW1 1930   3.661   1.980   2.318
 2335SOL    HW2 1931   3.557   1.910   2.423
 2336SOL     OW 1932   3.250   3.435   2.339
 2336SOL    HW1 1933   3.317   3.447   2.265
 2336SOL    HW2 1934   3.210   3.524   2.362
 2338SOL     OW 1935   3.142   2.789   2.534
 2338SOL    HW1 1936   3.202   2.708   2.536
 2338SOL    HW2 1937   3.182   2.858   2.474
 2339SOL     OW 1938   2.692   3.135   3.284
 2339SOL    HW1 1939   2.687   3.168   3.379
 2339SOL    HW2 1940   2.606   3.154   3.238
 2340SOL     OW 1941   2.534   3.478   2.016
 2340SOL    HW1 1942   2.543   3.488   1.917
 2340SOL    HW2 1943   2.494   3.389   2.037
 2342SOL     OW 1944   3.703   2.037   2.825
 2342SOL    HW1 1945   3.742   1.952   2.789
 2342SOL    HW2 1946   3.605   2.039   2.806
 2343SOL     OW 1947   2.125   2.188   2.582
 2343SOL    HW1 1948   2.046   2.239   2.548
 2343SOL    HW2 1949   2.116   2.173   2.680
 2344SOL     OW 1950   3.056   3.474   1.893
 2344SOL    HW1 1951   3.062   3.381   1.930
 2344SOL    HW2 1952   2.997   3.474   1.813
 2345SOL     OW 1953   2.684   2.864   3.234
 2345SOL    HW1 1954   2.724   2.863   3.142
 2345SOL    HW2 1955   2.694   2.956   3.274
 2346SOL     OW 1956   2.778   2.772   2.153
 2346SOL    HW1 1957   2.841   2.810   2.085
 2346SOL    HW2 1958   2.818   2.689   2.192
 2347SOL     OW 1959   3.366   3.469   1.906
 2347SOL    HW1 1960   3.274   3.506   1.913
 2347SOL    HW2 1961   3.404   3.489   1.816
 2348SOL     OW 1962   2.234   3.150   3.352
 2348SOL    HW1 1963   2.221   3.243   3.318
 2348SOL    HW2 1964   2.150   3.098   3.339
 2349SOL     OW 1965   3.476   3.154   3.151
 2349SOL    HW1 1966   3.536   3.157   3.231
 2349SOL    HW2 1967   3.401   3.218   3.164
 2350SOL     OW 1968   2.901   2.960   2.558
 2350SOL    HW1 1969   2.831   2.913   2.612
 2350SOL    HW2 1970   2.960   2.892   2.515
 2351SOL     OW 1971   2.876   2.098   2.833
 2351SOL    HW1 1972   2.868   2.062   2.740
 2351SOL    HW2 1973   2.874   2.022   2.898
 2352SOL     OW 1974   2.452   3.349   2.353
 2352SOL    HW1 1975   2.494   3.291   2.283
 2352SOL    HW2 1976   2.408   3.428   2.309
 2353SOL     OW 1977   3.571   2.247   3.243
 2353SOL    HW1 1978   3.644   2.316   3.247
 2353SOL    HW2 1979   3.599   2.172   3.184
 2354SOL     OW 1980   2.117   3.210   2.152
 2354SOL    HW1 1981   2.021   3.211   2.125
 2354SOL    HW2 1982   2.129   3.263   2.236
 2355SOL     OW 1983   1.967   2.875   3.588
 2355SOL    HW1 1984   1.890   2.842   3.642
 2355SOL    HW2 1985   2.052   2.845   3.630
 2356SOL     OW 1986   2.534   2.065   3.351
 2356SOL    HW1 1987   2.624   2.049   3.311
 2356SOL    HW2 1988   2.542   2.070   3.450
 2357SOL     OW 1989   1.937   2.207   1.895
 2357SOL    HW1 1990   1.845   2.179   1.866
 2357SOL    HW2 1991   1.968   2.284   1.839
 2358SOL     OW 1992   3.302   2.718   3.260
 2358SOL    HW1 1993   3.245   2.770   3.197
 2358SOL    HW2 1994   3.398   2.730   3.236
 2359SOL     OW 1995   1.934   2.028   2.180
 2359SOL    HW1 1996   1.917   2.111   2.126
 2359SOL    HW2 1997   2.024   1.991   2.158
 2360SOL     OW 1998   3.045   3.197   1.981
 2360SOL    HW1 1999   2.946   3.186   1.983
 2360SOL    HW2 2000   3.079   3.212   2.074
 2361SOL     OW 2001   2.475   2.704   3.293
 2361SOL    HW1 2002   2.531   2.785   3.276
 2361SOL    HW2 2003   2.534   2.624   3.296
 2362SOL     OW 2004   3.355   3.629   2.821
 2362SOL    HW1 2005   3.388   3.693   2.752
 2362SOL    HW2 2006   3.421   3.623   2.896
 2363SOL     OW 2007   2.578   2.427   3.570
 2363SOL    HW1 2008   2.597   2.492   3.644
 2363SOL    HW2 2009   2.638   2.347   3.579
 2364SOL     OW 2010   3.312   3.082   3.495
 2364SOL    HW1 2011   3.303   3.072   3.594
 2364SOL    HW2 2012   3.408   3.075   3.469
 2365SOL     OW 2013   2.252   3.603   3.422
 2365SOL    HW1 2014   2.161   3.644   3.420
 2365SOL    HW2 2015   2.245   3.509   3.454
 2366SOL     OW 2016   3.536   2.745   3.116
 2366SOL    HW1 2017   3.509   2.656   3.079
 2366SOL    HW2 2018   3.537   2.813   3.043
 2367SOL     OW 2019   3.087   2.187   2.311
 2367SOL    HW1 2020   3.152   2.113   2.300
 2367SOL    HW2 2021   3.107   2.237   2.395
 2368SOL     OW 2022   2.456   2.607   2.514
 2368SOL    HW1 2023   2.506   2.692   2.495
 2368SOL    HW2 2024   2.368   2.609   2.466
 2369SOL     OW 2025   3.639   2.204   3.504
 2369SOL    HW1 2026   3.622   2.235   3.410
 2369SOL    HW2 2027   3.555   2.167   3.542
 2370SOL     OW 2028   3.592   2.796   3.379
 2370SOL    HW1 2029   3.630   2.887   3.394
 2370SOL    HW2 2030   3.584   2.779   3.280
 2371SOL     OW 2031   2.721   3.236   1.878
 2371SOL    HW1 2032   2.675   3.251   1.966
 2371SOL    HW2 2033   2.765   3.321   1.848
 2372SOL     OW 2034   2.523   3.652   2.815
 2372SOL    HW1 2035   2.477   3.740   2.802
 2372SOL    HW2 2036   2.622   3.664   2.808
 2373SOL     OW 2037   2.721   2.818   2.723
 2373SOL    HW1 2038   2.775   2.749   2.771
 2373SOL    HW2 2039   2.689   2.887   2.789
 2374SOL     OW 2040   2.945   2.846   1.949
 2374SOL    HW1 2041   2.922   2.899   1.867
 2374SOL    HW2 2042   3.026   2.790   1.930
 2375SOL     OW 2043   3.723   3.431   2.713
 2375SOL    HW1 2044   3.652   3.419   2.643
 2375SOL    HW2 2045   3.724   3.352   2.773
 2376SOL     OW 2046   2.083   3.176   3.706
 2376SOL    HW1 2047   2.018   3.103   3.685
 2376SOL    HW2 2048   2.087   3.190   3.804
 2377SOL     OW 2049   1.941   3.102   2.515
 2377SOL    HW1 2050   1.940   3.055   2.603
 2377SOL    HW2 2051   2.023   3.074   2.464
 2378SOL     OW 2052   2.534   3.253   3.486
 2378SOL    HW1 2053   2.456   3.203   3.524
 2378SOL    HW2 2054   2.531   3.348   3.517
 2379SOL     OW 2055   3.686   2.054   3.089
 2379SOL    HW1 2056   3.682   1.964   3.133
 2379SOL    HW2 2057   3.689   2.043   2.990
 2380SOL     OW 2058   3.567   3.349   2.966
 2380SOL    HW1 2059   3.474   3.324   2.939
 2380SOL    HW2 2060   3.593   3.299   3.048
 2381SOL     OW 2061   2.179   2.409   3.142
 2381SOL    HW1 2062   2.217   2.350   3.214
 2381SOL    HW2 2063   2.219   2.383   3.054
 2382SOL     OW 2064   2.674   3.448   2.549
 2382SOL    HW1 2065   2.706   3.458   2.455
 2382SOL    HW2 2066   2.595   3.386   2.551
 2383SOL     OW 2067   3.286   2.076   2.974
 2383SOL    HW1 2068   3.338   2.011   3.029
 2383SOL    HW2 2069   3.237   2.139   3.035
 2384SOL     OW 2070   2.863   1.896   3.016
 2384SOL    HW1 2071   2.800   1.824   2.985
 2384SOL    HW2 2072   2.956   1.860   3.016
 2385SOL     OW 2073   2.632   3.192   2.163
 2385SOL    HW1 2074   2.586   3.105   2.180
 2385SOL    HW2 2075   2.723   3.189   2.204
 2386SOL     OW 2076   2.480   3.429   3.146
 2386SOL    HW1 2077   2.475   3.511   3.203
 2386SOL    HW2 2078   2.569   3.426   3.101
 2387SOL     OW 2079   3.214   1.914   2.030
 2387SOL    HW1 2080   3.249   1.873   1.946
 2387SOL    HW2 2081   3.124   1.876   2.050
 2388SOL     OW 2082   3.162   2.315   2.553
 2388SOL    HW1 2083   3.103   2.395   2.557
 2388SOL    HW2 2084   3.177   2.280   2.646
 2389SOL     OW 2085   3.455   2.083   2.744
 2389SOL    HW1 2086   3.371   2.082   2.798
 2389SOL    HW2 2087   3.457   2.166   2.688
 2390SOL     OW 2088   1.901   2.939   2.162
 2390SOL    HW1 2089   2.000   2.928   2.153
 2390SOL    HW2 2090   1.861   2.853   2.194
 2391SOL     OW 2091   2.737   3.508   2.199
 2391SOL    HW1 2092   2.660   3.473   2.145
 2391SOL    HW2 2093   2.705   3.579   2.261
 2392SOL     OW 2094   2.092   2.490   3.837
 2392SOL    HW1 2095   1.999   2.488   3.874
 2392SOL    HW2 2096   2.093   2.451   3.745
 2405SOL     OW 2097   2.468   2.826   3.847
 2405SOL    HW1 2098   2.475   2.910   3.793
 2405SOL    HW2 2099   2.514   2.839   3.935
 2416SOL     OW 2100   2.460   2.591   3.994
 2416SOL    HW1 2101   2.484   2.660   3.926
 2416SOL    HW2 2102   2.382   2.624   4.048
 2421SOL     OW 2103   2.727   2.210   3.919
 2421SOL    HW1 2104   2.786   2.273   3.870
 2421SOL    HW2 2105   2.746   2.116   3.890
 2427SOL     OW 2106   2.183   2.805   3.966
 2427SOL    HW1 2107   2.265   2.844   3.924
 2427SOL    HW2 2108   2.156   2.723   3.917
 2436SOL     OW 2109   2.476   1.984   3.841
 2436SOL    HW1 2110   2.574   1.962   3.848
 2436SOL    HW2 2111   2.445   1.967   3.748
 2440SOL     OW 2112   3.296   3.050   3.765
 2440SOL    HW1 2113   3.328   2.974   3.822
 2440SOL    HW2 2114   3.204   3.077   3.795
 2441SOL     OW 2115   2.159   1.897   3.895
 2441SOL    HW1 2116   2.208   1.981   3.874
 2441SOL    HW2 2117   2.221   1.832   3.940
 2446SOL     OW 2118   2.894   2.411   3.740
 2446SOL    HW1 2119   2.853   2.493   3.701
 2446SOL    HW2 2120   2.958   2.437   3.813
 2452SOL     OW 2121   2.350   3.247   3.898
 2452SOL    HW1 2122   2.263   3.232   3.945
 2452SOL    HW2 2123   2.333   3.273   3.803
 2454SOL     OW 2124   3.252   2.437   3.802
 2454SOL    HW1 2125   3.198   2.416   3.883
 2454SOL    HW2 2126   3.343   2.396   3.811
 2455SOL     OW 2127   2.389   2.118   4.052
 2455SOL    HW1 2128   2.416   2.059   3.977
 2455SOL    HW2 2129   2.389   2.213   4.021
 2457SOL     OW 2130   2.567   2.912   4.092
 2457SOL    HW1 2131   2.553   2.919   4.191
 2457SOL    HW2 2132   2.651   2.861   4.074
 2463SOL     OW 2133   3.071   2.387   3.999
 2463SOL    HW1 2134   3.084   2.303   4.053
 2463SOL    HW2 2135   3.042   2.461   4.059
 2468SOL     OW 2136   3.402   2.136   3.849
 2468SOL    HW1 2137   3.341   2.061   3.872
 2468SOL    HW2 2138   3.424   2.188   3.932
 2469SOL     OW 2139   3.165   2.700   3.766
 2469SOL    HW1 2140   3.199   2.607   3.781
 2469SOL    HW2 2141   3.183   2.727   3.671
 2473SOL     OW 2142   1.870   3.188   3.924
 2473SOL    HW1 2143   1.777   3.209   3.893
 2473SOL    HW2 2144   1.880   3.089   3.937
 2477SOL     OW 2145   2.677   2.434   4.049
 2477SOL    HW1 2146   2.684   2.345   4.003
 2477SOL    HW2 2147   2.583   2.468   4.041
 2479SOL     OW 2148   2.335   2.362   3.915
 2479SOL    HW1 2149   2.396   2.442   3.919
 2479SOL    HW2 2150   2.240   2.393   3.922
 2490SOL     OW 2151   2.778   2.772   4.015
 2490SOL    HW1 2152   2.841   2.810   3.947
 2490SOL    HW2 2153   2.818   2.689   4.054
 2496SOL     OW 2154   1.937   2.207   3.757
 2496SOL    HW1 2155   1.845   2.179   3.728
 2496SOL    HW2 2156   1.968   2.284   3.701
 2497SOL     OW 2157   1.934   2.028   4.042
 2497SOL    HW1 2158   1.917   2.111   3.988
 2497SOL    HW2 2159   2.024   1.991   4.020
 2498SOL     OW 2160   3.045   3.197   3.843
 2498SOL    HW1 2161   2.946   3.186   3.845
 2498SOL    HW2 2162   3.079   3.212   3.936
 2502SOL     OW 2163   2.721   3.236   3.740
 2502SOL    HW1 2164   2.675   3.251   3.828
 2502SOL    HW2 2165   2.765   3.321   3.710
 2505SOL     OW 2166   2.945   2.846   3.811
 2505SOL    HW1 2167   2.922   2.899   3.729
 2505SOL    HW2 2168   3.026   2.790   3.792
 2512SOL     OW 2169   3.214   1.914   3.892
 2512SOL    HW1 2170   3.249   1.873   3.808
 2512SOL    HW2 2171   3.124   1.876   3.912
 2515SOL     OW 2172   1.901   2.939   4.024
 2515SOL    HW1 2173   2.000   2.928   4.015
 2515SOL    HW2 2174   1.861   2.853   4.056
 2536SOL     OW 2175   2.179   3.975   1.801
 2536SOL    HW1 2176   2.250   4.046   1.807
 2536SOL    HW2 2177   2.091   4.014   1.829
 2555SOL     OW 2178   2.643   3.988   1.749
 2555SOL    HW1 2179   2.710   3.927   1.792
 2555SOL    HW2 2180   2.570   4.007   1.814
 2572SOL     OW 2181   2.777   3.813   1.402
 2572SOL    HW1 2182   2.802   3.793   1.307
 2572SOL    HW2 2183   2.849   3.869   1.444
 2579SOL     OW 2184   2.875   3.829   1.770
 2579SOL    HW1 2185   2.881   3.914   1.718
 2579SOL    HW2 2186   2.907   3.753   1.713
 2580SOL     OW 2187   2.366   3.774   1.740
 2580SOL    HW1 2188   2.324   3.717   1.670
 2580SOL    HW2 2189   2.300   3.843   1.772
 2617SOL     OW 2190   2.534   3.927   1.489
 2617SOL    HW1 2191   2.624   3.911   1.449
 2617SOL    HW2 2192   2.542   3.932   1.588
 2642SOL     OW 2193   2.087   3.999   2.858
 2642SOL    HW1 2194   2.122   3.982   2.950
 2642SOL    HW2 2195   1.999   3.954   2.846
 2643SOL     OW 2196   1.881   4.092   2.509
 2643SOL    HW1 2197   1.799   4.135   2.548
 2643SOL    HW2 2198   1.853   4.019   2.446
 2657SOL     OW 2199   2.671   3.728   2.364
 2657SOL    HW1 2200   2.711   3.819   2.355
 2657SOL    HW2 2201   2.571   3.736   2.370
 2669SOL     OW 2202   2.727   4.072   2.057
 2669SOL    HW1 2203   2.786   4.135   2.008
 2669SOL    HW2 2204   2.746   3.978   2.028
 2671SOL     OW 2205   2.412   3.920   2.747
 2671SOL    HW1 2206   2.407   3.915   2.847
 2671SOL    HW2 2207   2.414   4.016   2.718
 2675SOL     OW 2208   3.262   3.831   2.288
 2675SOL    HW1 2209   3.238   3.794   2.198
 2675SOL    HW2 2210   3.361   3.847   2.292
 2678SOL     OW 2211   2.476   3.846   1.979
 2678SOL    HW1 2212   2.574   3.824   1.986
 2678SOL    HW2 2213   2.445   3.829   1.886
 2682SOL     OW 2214   2.401   3.788   2.374
 2682SOL    HW1 2215   2.320   3.789   2.432
 2682SOL    HW2 2216   2.404   3.871   2.319
 2683SOL     OW 2217   2.159   3.759   2.033
 2683SOL    HW1 2218   2.208   3.843   2.012
 2683SOL    HW2 2219   2.221   3.694   2.078
 2684SOL     OW 2220   2.797   3.960   2.342
 2684SOL    HW1 2221   2.749   4.001   2.264
 2684SOL    HW2 2222   2.896   3.958   2.323
 2688SOL     OW 2223   2.423   3.946   3.009
 2688SOL    HW1 2224   2.461   3.862   3.046
 2688SOL    HW2 2225   2.335   3.965   3.053
 2689SOL     OW 2226   2.728   4.178   2.504
 2689SOL    HW1 2227   2.696   4.250   2.442
 2689SOL    HW2 2228   2.752   4.097   2.451
 2690SOL     OW 2229   2.879   3.763   2.615
 2690SOL    HW1 2230   2.807   3.768   2.546
 2690SOL    HW2 2231   2.855   3.694   2.684
 2695SOL     OW 2232   2.389   3.980   2.190
 2695SOL    HW1 2233   2.416   3.921   2.115
 2695SOL    HW2 2234   2.389   4.075   2.159
 2697SOL     OW 2235   2.777   3.813   3.264
 2697SOL    HW1 2236   2.802   3.793   3.169
 2697SOL    HW2 2237   2.849   3.869   3.306
 2709SOL     OW 2238   2.169   3.937   3.093
 2709SOL    HW1 2239   2.146   3.974   3.183
 2709SOL    HW2 2240   2.139   3.842   3.087
 2712SOL     OW 2241   2.169   3.787   2.480
 2712SOL    HW1 2242   2.158   3.881   2.513
 2712SOL    HW2 2243   2.164   3.724   2.557
 2736SOL     OW 2244   2.125   4.050   2.582
 2736SOL    HW1 2245   2.046   4.101   2.548
 2736SOL    HW2 2246   2.116   4.035   2.680
 2738SOL     OW 2247   2.876   3.960   2.833
 2738SOL    HW1 2248   2.868   3.924   2.740
 2738SOL    HW2 2249   2.874   3.884   2.898
 2741SOL     OW 2250   2.534   3.927   3.351
 2741SOL    HW1 2251   2.624   3.911   3.311
 2741SOL    HW2 2252   2.542   3.932   3.450
 2744SOL     OW 2253   1.934   3.890   2.180
 2744SOL    HW1 2254   1.917   3.973   2.126
 2744SOL    HW2 2255   2.024   3.853   2.158
 2749SOL     OW 2256   3.087   4.049   2.311
 2749SOL    HW1 2257   3.152   3.975   2.300
 2749SOL    HW2 2258   3.107   4.099   2.395
 2757SOL     OW 2259   2.290   4.148   2.382
 2757SOL    HW1 2260   2.320   4.076   2.320
 2757SOL    HW2 2261   2.251   4.108   2.465
 2760SOL     OW 2262   2.863   3.758   3.016
 2760SOL    HW1 2263   2.800   3.686   2.985
 2760SOL    HW2 2264   2.956   3.722   3.016
 2761SOL     OW 2265   3.214   3.776   2.030
 2761SOL    HW1 2266   3.249   3.735   1.946
 2761SOL    HW2 2267   3.124   3.738   2.050
 2869SOL     OW 2268   3.854   1.821   1.571
 2869SOL    HW1 2269   3.844   1.806   1.670
 2869SOL    HW2 2270   3.768   1.857   1.535
 2936SOL     OW 2271   3.854   1.794   1.851
 2936SOL    HW1 2272   3.813   1.720   1.904
 2936SOL    HW2 2273   3.918   1.845   1.909
 2982SOL     OW 2274   3.955   1.713   2.345
 2982SOL    HW1 2275   3.989   1.790   2.399
 2982SOL    HW2 2276   3.999   1.713   2.255
 2988SOL     OW 2277   3.751   1.596   1.979
 2988SOL    HW1 2278   3.732   1.500   2.000
 2988SOL    HW2 2279   3.718   1.654   2.054
 3004SOL     OW 2280   4.075   1.801   2.715
 3004SOL    HW1 2281   4.125   1.715   2.721
 3004SOL    HW2 2282   4.140   1.878   2.712
 3033SOL     OW 2283   3.788   1.564   3.193
 3033SOL    HW1 2284   3.742   1.646   3.159
 3033SOL    HW2 2285   3.886   1.583   3.202
 3051SOL     OW 2286   3.732   1.326   2.062
 3051SOL    HW1 2287   3.639   1.347   2.031
 3051SOL    HW2 2288   3.742   1.227   2.075
 3052SOL     OW 2289   3.812   1.801   2.789
 3052SOL    HW1 2290   3.770   1.715   2.762
 3052SOL    HW2 2291   3.906   1.804   2.755
 3194SOL     OW 2292   3.837   2.599   1.597
 3194SOL    HW1 2293   3.925   2.586   1.642
 3194SOL    HW2 2294   3.824   2.696   1.575
 3198SOL     OW 2295   4.041   2.113   1.801
 3198SOL    HW1 2296   4.112   2.184   1.807
 3198SOL    HW2 2297   3.953   2.152   1.829
 3212SOL     OW 2298   3.926   2.147   1.498
 3212SOL    HW1 2299   3.846   2.207   1.485
 3212SOL    HW2 2300   3.916   2.098   1.584
 3228SOL     OW 2301   3.802   2.418   1.386
 3228SOL    HW1 2302   3.894   2.417   1.345
 3228SOL    HW2 2303   3.796   2.492   1.453
 3261SOL     OW 2304   3.913   2.382   1.722
 3261SOL    HW1 2305   3.972   2.342   1.652
 3261SOL    HW2 2306   3.855   2.453   1.681
 3283SOL     OW 2307   3.829   2.875   1.726
 3283SOL    HW1 2308   3.752   2.842   1.780
 3283SOL    HW2 2309   3.914   2.845   1.768
 3307SOL     OW 2310   3.954   2.490   1.975
 3307SOL    HW1 2311   3.861   2.488   2.012
 3307SOL    HW2 2312   3.955   2.451   1.883
 3308SOL     OW 2313   3.949   2.137   2.858
 3308SOL    HW1 2314   3.984   2.120   2.950
 3308SOL    HW2 2315   3.861   2.092   2.846
 3309SOL     OW 2316   3.743   2.230   2.509
 3309SOL    HW1 2317   3.661   2.273   2.548
 3309SOL    HW2 2318   3.715   2.157   2.446
 3318SOL     OW 2319   3.954   3.296   2.400
 3318SOL    HW1 2320   3.928   3.392   2.400
 3318SOL    HW2 2321   3.883   3.242   2.445
 3319SOL     OW 2322   3.964   2.953   2.748
 3319SOL    HW1 2323   3.978   2.869   2.800
 3319SOL    HW2 2324   3.909   3.017   2.803
 3322SOL     OW 2325   3.846   2.505   2.425
 3322SOL    HW1 2326   3.801   2.417   2.442
 3322SOL    HW2 2327   3.845   2.559   2.509
 3323SOL     OW 2328   3.751   3.458   1.979
 3323SOL    HW1 2329   3.732   3.362   2.000
 3323SOL    HW2 2330   3.718   3.516   2.054
 3324SOL     OW 2331   3.837   2.599   3.459
 3324SOL    HW1 2332   3.925   2.586   3.504
 3324SOL    HW2 2333   3.824   2.696   3.437
 3327SOL     OW 2334   3.921   2.838   3.126
 3327SOL    HW1 2335   4.010   2.793   3.112
 3327SOL    HW2 2336   3.848   2.773   3.107
 3334SOL     OW 2337   3.800   2.673   2.651
 3334SOL    HW1 2338   3.899   2.661   2.660
 3334SOL    HW2 2339   3.776   2.768   2.672
 3340SOL     OW 2340   4.045   2.805   2.104
 3340SOL    HW1 2341   4.127   2.844   2.062
 3340SOL    HW2 2342   4.018   2.723   2.055
 3346SOL     OW 2343   4.106   2.562   2.342
 3346SOL    HW1 2344   4.151   2.472   2.339
 3346SOL    HW2 2345   4.012   2.551   2.375
 3353SOL     OW 2346   4.021   1.897   2.033
 3353SOL    HW1 2347   4.070   1.981   2.012
 3353SOL    HW2 2348   4.083   1.832   2.078
 3358SOL     OW 2349   3.802   2.418   3.248
 3358SOL    HW1 2350   3.894   2.417   3.207
 3358SOL    HW2 2351   3.796   2.492   3.315
 3369SOL     OW 2352   4.091   2.962   2.363
 3369SOL    HW1 2353   4.084   3.045   2.307
 3369SOL    HW2 2354   4.095   2.882   2.303
 3377SOL     OW 2355   4.031   2.075   3.093
 3377SOL    HW1 2356   4.008   2.112   3.183
 3377SOL    HW2 2357   4.001   1.980   3.087
 3378SOL     OW 2358   3.761   3.172   3.144
 3378SOL    HW1 2359   3.814   3.123   3.212
 3378SOL    HW2 2360   3.783   3.270   3.149
 3380SOL     OW 2361   4.031   1.925   2.480
 3380SOL    HW1 2362   4.020   2.019   2.513
 3380SOL    HW2 2363   4.026   1.862   2.557
 3384SOL     OW 2364   4.043   2.672   2.811
 3384SOL    HW1 2365   4.136   2.708   2.816
 3384SOL    HW2 2366   4.037   2.587   2.863
 3385SOL     OW 2367   4.063   2.371   2.868
 3385SOL    HW1 2368   4.011   2.288   2.851
 3385SOL    HW2 2369   4.140   2.376   2.804
 3386SOL     OW 2370   3.732   3.188   2.062
 3386SOL    HW1 2371   3.639   3.209   2.031
 3386SOL    HW2 2372   3.742   3.089   2.075
 3390SOL     OW 2373   3.764   2.406   2.976
 3390SOL    HW1 2374   3.849   2.373   2.935
 3390SOL    HW2 2375   3.777   2.421   3.074
 3398SOL     OW 2376   3.807   3.120   2.884
 3398SOL    HW1 2377   3.802   3.119   2.984
 3398SOL    HW2 2378   3.724   3.079   2.846
 3404SOL     OW 2379   3.987   2.188   2.582
 3404SOL    HW1 2380   3.908   2.239   2.548
 3404SOL    HW2 2381   3.978   2.173   2.680
 3411SOL     OW 2382   3.979   3.210   2.152
 3411SOL    HW1 2383   3.883   3.211   2.125
 3411SOL    HW2 2384   3.991   3.263   2.236
 3414SOL     OW 2385   3.799   2.207   1.895
 3414SOL    HW1 2386   3.707   2.179   1.866
 3414SOL    HW2 2387   3.830   2.284   1.839
 3415SOL     OW 2388   3.796   2.028   2.180
 3415SOL    HW1 2389   3.779   2.111   2.126
 3415SOL    HW2 2390   3.886   1.991   2.158
 3425SOL     OW 2391   3.803   3.102   2.515
 3425SOL    HW1 2392   3.802   3.055   2.603
 3425SOL    HW2 2393   3.885   3.074   2.464
 3427SOL     OW 2394   4.152   2.286   2.382
 3427SOL    HW1 2395   4.182   2.214   2.320
 3427SOL    HW2 2396   4.113   2.246   2.465
 3428SOL     OW 2397   4.041   2.409   3.142
 3428SOL    HW1 2398   4.079   2.350   3.214
 3428SOL    HW2 2399   4.081   2.383   3.054
 3433SOL     OW 2400   3.763   2.939   2.162
 3433SOL    HW1 2401   3.862   2.928   2.153
 3433SOL    HW2 2402   3.723   2.853   2.194
   4.81916   4.81916   4.81916
