mobley_1838110_GMX.gro created by acpype (v: 2023.10.27) on Tue May 19 12:32:50 2026
 2405
    1MOL     C1    1   2.270   2.196   2.226
    1MOL     C2    2   2.132   2.193   2.162
    1MOL     F1    3   2.308   2.069   2.257
    1MOL     F2    4   2.361   2.241   2.134
    1MOL     F3    5   2.141   2.116   2.049
    1MOL    CL1    6   2.281   2.297   2.372
    1MOL    CL2    7   2.078   2.356   2.113
    1MOL    CL3    8   2.011   2.118   2.270
    6SOL     OW    9   1.555   1.511   0.703
    6SOL    HW1   10   1.498   1.495   0.784
    6SOL    HW2   11   1.496   1.521   0.623
   14SOL     OW   12   1.460   1.505   1.339
   14SOL    HW1   13   1.484   1.599   1.365
   14SOL    HW2   14   1.444   1.451   1.421
   18SOL     OW   15   1.127   1.341   1.690
   18SOL    HW1   16   1.174   1.341   1.778
   18SOL    HW2   17   1.079   1.254   1.679
   21SOL     OW   18   0.620   1.786   1.439
   21SOL    HW1   19   0.528   1.769   1.474
   21SOL    HW2   20   0.648   1.878   1.465
   31SOL     OW   21   1.293   1.228   1.423
   31SOL    HW1   22   1.330   1.155   1.365
   31SOL    HW2   23   1.345   1.233   1.508
   35SOL     OW   24   1.187   1.792   1.616
   35SOL    HW1   25   1.211   1.852   1.540
   35SOL    HW2   26   1.194   1.697   1.586
   37SOL     OW   27   1.466   1.417   0.953
   37SOL    HW1   28   1.407   1.423   1.033
   37SOL    HW2   29   1.451   1.329   0.907
   38SOL     OW   30   1.667   1.714   0.572
   38SOL    HW1   31   1.626   1.691   0.484
   38SOL    HW2   32   1.649   1.640   0.637
   50SOL     OW   33   1.719   0.585   1.831
   50SOL    HW1   34   1.693   0.674   1.795
   50SOL    HW2   35   1.717   0.517   1.758
   55SOL     OW   36   1.795   1.066   0.873
   55SOL    HW1   37   1.733   1.051   0.797
   55SOL    HW2   38   1.743   1.077   0.958
   56SOL     OW   39   1.227   1.550   1.506
   56SOL    HW1   40   1.233   1.473   1.570
   56SOL    HW2   41   1.175   1.524   1.426
   71SOL     OW   42   0.888   1.514   1.195
   71SOL    HW1   43   0.865   1.489   1.101
   71SOL    HW2   44   0.949   1.445   1.234
   95SOL     OW   45   1.754   1.223   1.588
   95SOL    HW1   46   1.845   1.184   1.575
   95SOL    HW2   47   1.762   1.319   1.612
   96SOL     OW   48   1.064   1.347   1.340
   96SOL    HW1   49   0.984   1.324   1.395
   96SOL    HW2   50   1.147   1.321   1.389
   97SOL     OW   51   1.592   1.629   1.625
   97SOL    HW1   52   1.619   1.663   1.535
   97SOL    HW2   53   1.671   1.591   1.671
   99SOL     OW   54   1.638   1.099   1.079
   99SOL    HW1   55   1.643   1.180   1.138
   99SOL    HW2   56   1.552   1.101   1.028
  101SOL     OW   57   0.980   1.116   1.719
  101SOL    HW1   58   0.881   1.122   1.729
  101SOL    HW2   59   1.003   1.036   1.663
  109SOL     OW   60   1.272   1.445   1.142
  109SOL    HW1   61   1.319   1.458   1.229
  109SOL    HW2   62   1.206   1.371   1.151
  113SOL     OW   63   1.587   0.779   1.670
  113SOL    HW1   64   1.495   0.817   1.665
  113SOL    HW2   65   1.647   0.826   1.605
  122SOL     OW   66   1.728   0.935   1.854
  122SOL    HW1   67   1.682   0.928   1.765
  122SOL    HW2   68   1.666   0.979   1.920
  126SOL     OW   69   0.980   1.573   1.700
  126SOL    HW1   70   0.960   1.617   1.612
  126SOL    HW2   71   1.019   1.482   1.684
  127SOL     OW   72   1.859   1.518   1.605
  127SOL    HW1   73   1.873   1.545   1.510
  127SOL    HW2   74   1.942   1.540   1.658
  142SOL     OW   75   1.369   0.950   1.660
  142SOL    HW1   76   1.408   1.039   1.680
  142SOL    HW2   77   1.379   0.930   1.563
  147SOL     OW   78   0.930   1.678   1.465
  147SOL    HW1   79   0.906   1.660   1.370
  147SOL    HW2   80   0.960   1.772   1.475
  150SOL     OW   81   1.347   1.059   1.234
  150SOL    HW1   82   1.371   0.996   1.160
  150SOL    HW2   83   1.257   1.099   1.216
  152SOL     OW   84   1.759   1.747   1.154
  152SOL    HW1   85   1.820   1.777   1.081
  152SOL    HW2   86   1.721   1.658   1.132
  153SOL     OW   87   1.252   1.731   1.128
  153SOL    HW1   88   1.336   1.736   1.074
  153SOL    HW2   89   1.229   1.635   1.146
  155SOL     OW   90   0.688   1.662   1.716
  155SOL    HW1   91   0.632   1.743   1.725
  155SOL    HW2   92   0.740   1.666   1.630
  163SOL     OW   93   1.650   1.720   1.394
  163SOL    HW1   94   1.703   1.730   1.310
  163SOL    HW2   95   1.623   1.810   1.428
  171SOL     OW   96   1.614   1.292   1.289
  171SOL    HW1   97   1.674   1.295   1.369
  171SOL    HW2   98   1.539   1.356   1.302
  180SOL     OW   99   1.440   0.856   1.398
  180SOL    HW1  100   1.383   0.908   1.335
  180SOL    HW2  101   1.536   0.868   1.374
  184SOL     OW  102   1.493   1.767   0.959
  184SOL    HW1  103   1.526   1.831   0.890
  184SOL    HW2  104   1.559   1.761   1.034
  186SOL     OW  105   1.450   1.220   1.633
  186SOL    HW1  106   1.441   1.210   1.732
  186SOL    HW2  107   1.546   1.213   1.607
  188SOL     OW  108   1.674   0.883   1.254
  188SOL    HW1  109   1.647   0.794   1.217
  188SOL    HW2  110   1.675   0.951   1.181
  192SOL     OW  111   1.730   0.934   1.517
  192SOL    HW1  112   1.768   1.025   1.532
  192SOL    HW2  113   1.722   0.917   1.418
  197SOL     OW  114   1.861   1.569   0.851
  197SOL    HW1  115   1.790   1.557   0.781
  197SOL    HW2  116   1.862   1.490   0.911
  203SOL     OW  117   1.705   1.487   1.104
  203SOL    HW1  118   1.612   1.462   1.077
  203SOL    HW2  119   1.731   1.437   1.186
  219SOL     OW  120   1.555   1.511   2.565
  219SOL    HW1  121   1.498   1.495   2.646
  219SOL    HW2  122   1.496   1.521   2.485
  221SOL     OW  123   1.755   0.607   2.093
  221SOL    HW1  124   1.743   0.594   1.994
  221SOL    HW2  125   1.725   0.526   2.142
  227SOL     OW  126   1.460   1.505   3.201
  227SOL    HW1  127   1.484   1.599   3.227
  227SOL    HW2  128   1.444   1.451   3.283
  238SOL     OW  129   1.842   1.767   2.221
  238SOL    HW1  130   1.896   1.738   2.301
  238SOL    HW2  131   1.872   1.857   2.192
  240SOL     OW  132   1.689   0.922   2.474
  240SOL    HW1  133   1.784   0.893   2.482
  240SOL    HW2  134   1.681   0.987   2.399
  241SOL     OW  135   1.641   1.108   2.294
  241SOL    HW1  136   1.727   1.110   2.242
  241SOL    HW2  137   1.655   1.155   2.382
  244SOL     OW  138   1.293   1.228   3.285
  244SOL    HW1  139   1.330   1.155   3.227
  244SOL    HW2  140   1.345   1.233   3.370
  247SOL     OW  141   1.525   0.999   2.052
  247SOL    HW1  142   1.462   0.923   2.065
  247SOL    HW2  143   1.573   1.017   2.138
  248SOL     OW  144   1.187   1.792   3.478
  248SOL    HW1  145   1.211   1.852   3.402
  248SOL    HW2  146   1.194   1.697   3.448
  250SOL     OW  147   1.466   1.417   2.815
  250SOL    HW1  148   1.407   1.423   2.895
  250SOL    HW2  149   1.451   1.329   2.769
  251SOL     OW  150   1.667   1.714   2.434
  251SOL    HW1  151   1.626   1.691   2.346
  251SOL    HW2  152   1.649   1.640   2.499
  254SOL     OW  153   1.576   1.662   2.169
  254SOL    HW1  154   1.665   1.708   2.172
  254SOL    HW2  155   1.555   1.638   2.074
  264SOL     OW  156   1.362   1.144   2.407
  264SOL    HW1  157   1.445   1.115   2.359
  264SOL    HW2  158   1.313   1.211   2.351
  266SOL     OW  159   1.008   1.456   2.339
  266SOL    HW1  160   0.962   1.528   2.287
  266SOL    HW2  161   1.004   1.476   2.437
  268SOL     OW  162   1.795   1.066   2.735
  268SOL    HW1  163   1.733   1.051   2.659
  268SOL    HW2  164   1.743   1.077   2.820
  269SOL     OW  165   1.227   1.550   3.368
  269SOL    HW1  166   1.233   1.473   3.432
  269SOL    HW2  167   1.175   1.524   3.288
  271SOL     OW  168   1.458   0.735   2.590
  271SOL    HW1  169   1.453   0.670   2.665
  271SOL    HW2  170   1.538   0.794   2.603
  273SOL     OW  171   1.111   1.776   2.099
  273SOL    HW1  172   1.051   1.714   2.149
  273SOL    HW2  173   1.142   1.732   2.014
  275SOL     OW  174   1.632   1.377   1.943
  275SOL    HW1  175   1.600   1.471   1.933
  275SOL    HW2  176   1.556   1.314   1.931
  276SOL     OW  177   0.464   1.743   2.185
  276SOL    HW1  178   0.497   1.782   2.271
  276SOL    HW2  179   0.540   1.736   2.120
  279SOL     OW  180   0.940   1.698   2.766
  279SOL    HW1  181   1.020   1.641   2.787
  279SOL    HW2  182   0.891   1.658   2.689
  284SOL     OW  183   0.888   1.514   3.057
  284SOL    HW1  184   0.865   1.489   2.963
  284SOL    HW2  185   0.949   1.445   3.096
  286SOL     OW  186   0.803   1.402   2.786
  286SOL    HW1  187   0.893   1.416   2.744
  286SOL    HW2  188   0.732   1.404   2.715
  289SOL     OW  189   1.434   1.188   1.903
  289SOL    HW1  190   1.466   1.112   1.960
  289SOL    HW2  191   1.342   1.215   1.933
  293SOL     OW  192   1.227   1.570   2.655
  293SOL    HW1  193   1.248   1.644   2.590
  293SOL    HW2  194   1.295   1.570   2.728
  295SOL     OW  195   1.271   1.797   2.453
  295SOL    HW1  196   1.315   1.861   2.389
  295SOL    HW2  197   1.221   1.849   2.523
  301SOL     OW  198   1.429   1.173   2.729
  301SOL    HW1  199   1.374   1.089   2.722
  301SOL    HW2  200   1.455   1.202   2.637
  303SOL     OW  201   1.857   0.833   2.239
  303SOL    HW1  202   1.899   0.769   2.303
  303SOL    HW2  203   1.819   0.782   2.161
  305SOL     OW  204   1.664   1.280   2.519
  305SOL    HW1  205   1.763   1.288   2.533
  305SOL    HW2  206   1.619   1.364   2.550
  308SOL     OW  207   1.754   1.223   3.450
  308SOL    HW1  208   1.845   1.184   3.437
  308SOL    HW2  209   1.762   1.319   3.474
  309SOL     OW  210   1.064   1.347   3.202
  309SOL    HW1  211   0.984   1.324   3.257
  309SOL    HW2  212   1.147   1.321   3.251
  310SOL     OW  213   1.592   1.629   3.487
  310SOL    HW1  214   1.619   1.663   3.397
  310SOL    HW2  215   1.671   1.591   3.533
  311SOL     OW  216   1.111   1.195   2.962
  311SOL    HW1  217   1.071   1.239   3.043
  311SOL    HW2  218   1.070   1.232   2.879
  312SOL     OW  219   1.638   1.099   2.941
  312SOL    HW1  220   1.643   1.180   3.000
  312SOL    HW2  221   1.552   1.101   2.890
  321SOL     OW  222   1.252   1.348   2.250
  321SOL    HW1  223   1.302   1.425   2.290
  321SOL    HW2  224   1.157   1.350   2.282
  322SOL     OW  225   1.272   1.445   3.004
  322SOL    HW1  226   1.319   1.458   3.091
  322SOL    HW2  227   1.206   1.371   3.013
  323SOL     OW  228   1.582   0.639   2.334
  323SOL    HW1  229   1.551   0.700   2.407
  323SOL    HW2  230   1.632   0.691   2.265
  330SOL     OW  231   1.360   0.862   2.907
  330SOL    HW1  232   1.285   0.862   2.841
  330SOL    HW2  233   1.397   0.770   2.916
  340SOL     OW  234   1.859   1.518   3.467
  340SOL    HW1  235   1.873   1.545   3.372
  340SOL    HW2  236   1.942   1.540   3.520
  343SOL     OW  237   1.303   0.838   1.904
  343SOL    HW1  238   1.337   0.745   1.919
  343SOL    HW2  239   1.321   0.865   1.809
  344SOL     OW  240   1.068   1.333   2.711
  344SOL    HW1  241   1.075   1.249   2.656
  344SOL    HW2  242   1.130   1.402   2.675
  360SOL     OW  243   0.930   1.678   3.327
  360SOL    HW1  244   0.906   1.660   3.232
  360SOL    HW2  245   0.960   1.772   3.337
  363SOL     OW  246   1.347   1.059   3.096
  363SOL    HW1  247   1.371   0.996   3.022
  363SOL    HW2  248   1.257   1.099   3.078
  364SOL     OW  249   1.302   0.855   2.171
  364SOL    HW1  250   1.216   0.824   2.213
  364SOL    HW2  251   1.298   0.841   2.072
  365SOL     OW  252   1.759   1.747   3.016
  365SOL    HW1  253   1.820   1.777   2.943
  365SOL    HW2  254   1.721   1.658   2.994
  366SOL     OW  255   1.252   1.731   2.990
  366SOL    HW1  256   1.336   1.736   2.936
  366SOL    HW2  257   1.229   1.635   3.008
  370SOL     OW  258   1.388   1.573   2.339
  370SOL    HW1  259   1.455   1.585   2.265
  370SOL    HW2  260   1.348   1.662   2.362
  372SOL     OW  261   1.280   0.927   2.534
  372SOL    HW1  262   1.340   0.846   2.536
  372SOL    HW2  263   1.320   0.996   2.474
  374SOL     OW  264   0.672   1.616   2.016
  374SOL    HW1  265   0.681   1.626   1.917
  374SOL    HW2  266   0.632   1.527   2.037
  375SOL     OW  267   1.650   1.720   3.256
  375SOL    HW1  268   1.703   1.730   3.172
  375SOL    HW2  269   1.623   1.810   3.290
  378SOL     OW  270   1.194   1.612   1.893
  378SOL    HW1  271   1.200   1.519   1.930
  378SOL    HW2  272   1.135   1.612   1.813
  381SOL     OW  273   1.504   1.607   1.906
  381SOL    HW1  274   1.412   1.644   1.913
  381SOL    HW2  275   1.542   1.627   1.816
  383SOL     OW  276   1.614   1.292   3.151
  383SOL    HW1  277   1.674   1.295   3.231
  383SOL    HW2  278   1.539   1.356   3.164
  384SOL     OW  279   1.039   1.098   2.558
  384SOL    HW1  280   0.969   1.051   2.612
  384SOL    HW2  281   1.098   1.030   2.515
  386SOL     OW  282   0.590   1.487   2.353
  386SOL    HW1  283   0.632   1.429   2.283
  386SOL    HW2  284   0.546   1.566   2.309
  394SOL     OW  285   1.183   1.335   1.981
  394SOL    HW1  286   1.084   1.324   1.983
  394SOL    HW2  287   1.217   1.350   2.074
  396SOL     OW  288   1.493   1.767   2.821
  396SOL    HW1  289   1.526   1.831   2.752
  396SOL    HW2  290   1.559   1.761   2.896
  398SOL     OW  291   1.450   1.220   3.495
  398SOL    HW1  292   1.441   1.210   3.594
  398SOL    HW2  293   1.546   1.213   3.469
  400SOL     OW  294   1.674   0.883   3.116
  400SOL    HW1  295   1.647   0.794   3.079
  400SOL    HW2  296   1.675   0.951   3.043
  404SOL     OW  297   1.730   0.934   3.379
  404SOL    HW1  298   1.768   1.025   3.394
  404SOL    HW2  299   1.722   0.917   3.280
  405SOL     OW  300   0.859   1.374   1.878
  405SOL    HW1  301   0.813   1.389   1.966
  405SOL    HW2  302   0.903   1.459   1.848
  406SOL     OW  303   0.661   1.790   2.815
  406SOL    HW1  304   0.615   1.878   2.802
  406SOL    HW2  305   0.760   1.802   2.808
  408SOL     OW  306   1.083   0.984   1.949
  408SOL    HW1  307   1.060   1.037   1.867
  408SOL    HW2  308   1.164   0.928   1.930
  409SOL     OW  309   1.861   1.569   2.713
  409SOL    HW1  310   1.790   1.557   2.643
  409SOL    HW2  311   1.862   1.490   2.773
  415SOL     OW  312   1.705   1.487   2.966
  415SOL    HW1  313   1.612   1.462   2.939
  415SOL    HW2  314   1.731   1.437   3.048
  417SOL     OW  315   0.812   1.586   2.549
  417SOL    HW1  316   0.844   1.596   2.455
  417SOL    HW2  317   0.733   1.524   2.551
  420SOL     OW  318   0.770   1.330   2.163
  420SOL    HW1  319   0.724   1.243   2.180
  420SOL    HW2  320   0.861   1.327   2.204
  426SOL     OW  321   0.875   1.646   2.199
  426SOL    HW1  322   0.798   1.611   2.145
  426SOL    HW2  323   0.843   1.717   2.261
  506SOL     OW  324   0.850   2.660   1.823
  506SOL    HW1  325   0.846   2.736   1.888
  506SOL    HW2  326   0.872   2.696   1.732
  508SOL     OW  327   0.686   3.023   1.803
  508SOL    HW1  328   0.746   3.102   1.817
  508SOL    HW2  329   0.600   3.054   1.762
  510SOL     OW  330   1.460   3.367   1.339
  510SOL    HW1  331   1.484   3.461   1.365
  510SOL    HW2  332   1.444   3.313   1.421
  512SOL     OW  333   1.603   2.309   0.737
  512SOL    HW1  334   1.529   2.355   0.687
  512SOL    HW2  335   1.654   2.377   0.790
  514SOL     OW  336   1.127   3.203   1.690
  514SOL    HW1  337   1.174   3.203   1.778
  514SOL    HW2  338   1.079   3.116   1.679
  519SOL     OW  339   1.594   1.976   1.480
  519SOL    HW1  340   1.576   2.043   1.408
  519SOL    HW2  341   1.591   2.022   1.569
  523SOL     OW  342   1.689   2.784   0.612
  523SOL    HW1  343   1.784   2.755   0.620
  523SOL    HW2  344   1.681   2.849   0.537
  527SOL     OW  345   1.293   3.090   1.423
  527SOL    HW1  346   1.330   3.017   1.365
  527SOL    HW2  347   1.345   3.095   1.508
  536SOL     OW  348   1.281   2.207   0.944
  536SOL    HW1  349   1.195   2.157   0.931
  536SOL    HW2  350   1.343   2.153   1.000
  538SOL     OW  351   0.807   2.467   1.465
  538SOL    HW1  352   0.760   2.464   1.554
  538SOL    HW2  353   0.756   2.412   1.399
  539SOL     OW  354   1.394   2.331   1.674
  539SOL    HW1  355   1.374   2.374   1.762
  539SOL    HW2  356   1.472   2.269   1.683
  540SOL     OW  357   0.973   2.752   1.572
  540SOL    HW1  358   1.019   2.668   1.543
  540SOL    HW2  359   0.917   2.786   1.497
  541SOL     OW  360   0.991   2.272   1.242
  541SOL    HW1  361   0.914   2.306   1.296
  541SOL    HW2  362   0.957   2.221   1.163
  546SOL     OW  363   1.719   2.447   1.831
  546SOL    HW1  364   1.693   2.536   1.795
  546SOL    HW2  365   1.717   2.379   1.758
  551SOL     OW  366   1.795   2.928   0.873
  551SOL    HW1  367   1.733   2.913   0.797
  551SOL    HW2  368   1.743   2.939   0.958
  552SOL     OW  369   1.227   3.412   1.506
  552SOL    HW1  370   1.233   3.335   1.570
  552SOL    HW2  371   1.175   3.386   1.426
  554SOL     OW  372   1.458   2.597   0.728
  554SOL    HW1  373   1.453   2.532   0.803
  554SOL    HW2  374   1.538   2.656   0.741
  564SOL     OW  375   1.547   2.084   1.729
  564SOL    HW1  376   1.542   2.121   1.821
  564SOL    HW2  377   1.475   2.015   1.717
  566SOL     OW  378   0.781   2.126   1.749
  566SOL    HW1  379   0.848   2.065   1.792
  566SOL    HW2  380   0.708   2.145   1.814
  568SOL     OW  381   1.351   2.452   1.433
  568SOL    HW1  382   1.379   2.409   1.518
  568SOL    HW2  383   1.376   2.548   1.434
  575SOL     OW  384   1.076   2.545   1.464
  575SOL    HW1  385   0.996   2.484   1.467
  575SOL    HW2  386   1.157   2.492   1.440
  584SOL     OW  387   1.429   3.035   0.867
  584SOL    HW1  388   1.374   2.951   0.860
  584SOL    HW2  389   1.455   3.064   0.775
  585SOL     OW  390   1.466   2.452   0.992
  585SOL    HW1  391   1.436   2.357   0.999
  585SOL    HW2  392   1.539   2.468   1.058
  591SOL     OW  393   1.754   3.085   1.588
  591SOL    HW1  394   1.845   3.046   1.575
  591SOL    HW2  395   1.762   3.181   1.612
  592SOL     OW  396   1.064   3.209   1.340
  592SOL    HW1  397   0.984   3.186   1.395
  592SOL    HW2  398   1.147   3.183   1.389
  593SOL     OW  399   1.592   3.491   1.625
  593SOL    HW1  400   1.619   3.525   1.535
  593SOL    HW2  401   1.671   3.453   1.671
  594SOL     OW  402   1.111   3.057   1.100
  594SOL    HW1  403   1.071   3.101   1.181
  594SOL    HW2  404   1.070   3.094   1.017
  595SOL     OW  405   1.638   2.961   1.079
  595SOL    HW1  406   1.643   3.042   1.138
  595SOL    HW2  407   1.552   2.963   1.028
  596SOL     OW  408   0.915   1.951   1.402
  596SOL    HW1  409   0.940   1.931   1.307
  596SOL    HW2  410   0.987   2.007   1.444
  597SOL     OW  411   0.980   2.978   1.719
  597SOL    HW1  412   0.881   2.984   1.729
  597SOL    HW2  413   1.003   2.898   1.663
  600SOL     OW  414   1.274   2.248   1.262
  600SOL    HW1  415   1.295   2.322   1.326
  600SOL    HW2  416   1.185   2.265   1.219
  605SOL     OW  417   1.272   3.307   1.142
  605SOL    HW1  418   1.319   3.320   1.229
  605SOL    HW2  419   1.206   3.233   1.151
  609SOL     OW  420   1.587   2.641   1.670
  609SOL    HW1  421   1.495   2.679   1.665
  609SOL    HW2  422   1.647   2.688   1.605
  610SOL     OW  423   1.013   1.967   1.770
  610SOL    HW1  424   1.019   2.052   1.718
  610SOL    HW2  425   1.045   1.891   1.713
  611SOL     OW  426   0.504   1.912   1.740
  611SOL    HW1  427   0.462   1.855   1.670
  611SOL    HW2  428   0.438   1.981   1.772
  613SOL     OW  429   1.360   2.724   1.045
  613SOL    HW1  430   1.285   2.724   0.979
  613SOL    HW2  431   1.397   2.632   1.054
  618SOL     OW  432   1.728   2.797   1.854
  618SOL    HW1  433   1.682   2.790   1.765
  618SOL    HW2  434   1.666   2.841   1.920
  621SOL     OW  435   1.023   2.628   0.966
  621SOL    HW1  436   1.038   2.649   1.062
  621SOL    HW2  437   0.993   2.533   0.957
  623SOL     OW  438   1.859   3.380   1.605
  623SOL    HW1  439   1.873   3.407   1.510
  623SOL    HW2  440   1.942   3.402   1.658
  630SOL     OW  441   1.138   2.242   1.678
  630SOL    HW1  442   1.093   2.305   1.742
  630SOL    HW2  443   1.231   2.273   1.661
  631SOL     OW  444   1.160   2.069   1.477
  631SOL    HW1  445   1.160   2.133   1.554
  631SOL    HW2  446   1.188   2.117   1.394
  635SOL     OW  447   1.002   2.658   1.238
  635SOL    HW1  448   1.043   2.626   1.324
  635SOL    HW2  449   0.906   2.631   1.235
  638SOL     OW  450   1.369   2.812   1.660
  638SOL    HW1  451   1.408   2.901   1.680
  638SOL    HW2  452   1.379   2.792   1.563
  640SOL     OW  453   1.657   2.466   1.206
  640SOL    HW1  454   1.619   2.397   1.268
  640SOL    HW2  455   1.739   2.430   1.162
  642SOL     OW  456   0.671   2.326   1.269
  642SOL    HW1  457   0.637   2.237   1.239
  642SOL    HW2  458   0.697   2.380   1.189
  646SOL     OW  459   1.347   2.921   1.234
  646SOL    HW1  460   1.371   2.858   1.160
  646SOL    HW2  461   1.257   2.961   1.216
  653SOL     OW  462   1.726   1.997   0.523
  653SOL    HW1  463   1.799   1.980   0.456
  653SOL    HW2  464   1.695   1.910   0.561
  659SOL     OW  465   1.650   3.582   1.394
  659SOL    HW1  466   1.703   3.592   1.310
  659SOL    HW2  467   1.623   3.672   1.428
  660SOL     OW  468   1.841   2.037   0.963
  660SOL    HW1  469   1.880   1.952   0.927
  660SOL    HW2  470   1.743   2.039   0.944
  663SOL     OW  471   0.822   2.864   1.372
  663SOL    HW1  472   0.862   2.863   1.280
  663SOL    HW2  473   0.832   2.956   1.412
  667SOL     OW  474   1.614   3.154   1.289
  667SOL    HW1  475   1.674   3.157   1.369
  667SOL    HW2  476   1.539   3.218   1.302
  669SOL     OW  477   1.014   2.098   0.971
  669SOL    HW1  478   1.006   2.062   0.878
  669SOL    HW2  479   1.012   2.022   1.036
  671SOL     OW  480   1.709   2.247   1.381
  671SOL    HW1  481   1.782   2.316   1.385
  671SOL    HW2  482   1.737   2.172   1.322
  674SOL     OW  483   0.672   2.065   1.489
  674SOL    HW1  484   0.762   2.049   1.449
  674SOL    HW2  485   0.680   2.070   1.588
  676SOL     OW  486   1.440   2.718   1.398
  676SOL    HW1  487   1.383   2.770   1.335
  676SOL    HW2  488   1.536   2.730   1.374
  681SOL     OW  489   0.716   2.427   1.708
  681SOL    HW1  490   0.735   2.492   1.782
  681SOL    HW2  491   0.776   2.347   1.717
  682SOL     OW  492   1.450   3.082   1.633
  682SOL    HW1  493   1.441   3.072   1.732
  682SOL    HW2  494   1.546   3.075   1.607
  684SOL     OW  495   1.674   2.745   1.254
  684SOL    HW1  496   1.647   2.656   1.217
  684SOL    HW2  497   1.675   2.813   1.181
  687SOL     OW  498   1.777   2.204   1.642
  687SOL    HW1  499   1.760   2.235   1.548
  687SOL    HW2  500   1.693   2.167   1.680
  688SOL     OW  501   1.730   2.796   1.517
  688SOL    HW1  502   1.768   2.887   1.532
  688SOL    HW2  503   1.722   2.779   1.418
  697SOL     OW  504   1.824   2.054   1.227
  697SOL    HW1  505   1.820   1.964   1.271
  697SOL    HW2  506   1.827   2.043   1.128
  699SOL     OW  507   1.705   3.349   1.104
  699SOL    HW1  508   1.612   3.324   1.077
  699SOL    HW2  509   1.731   3.299   1.186
  702SOL     OW  510   1.424   2.076   1.112
  702SOL    HW1  511   1.476   2.011   1.167
  702SOL    HW2  512   1.375   2.139   1.173
  703SOL     OW  513   1.001   1.896   1.154
  703SOL    HW1  514   0.938   1.824   1.123
  703SOL    HW2  515   1.094   1.860   1.154
  707SOL     OW  516   1.300   2.315   0.691
  707SOL    HW1  517   1.241   2.395   0.695
  707SOL    HW2  518   1.315   2.280   0.784
  708SOL     OW  519   1.593   2.083   0.882
  708SOL    HW1  520   1.509   2.082   0.936
  708SOL    HW2  521   1.595   2.166   0.826
  715SOL     OW  522   1.555   3.373   2.565
  715SOL    HW1  523   1.498   3.357   2.646
  715SOL    HW2  524   1.496   3.383   2.485
  716SOL     OW  525   1.135   2.565   2.579
  716SOL    HW1  526   1.192   2.643   2.554
  716SOL    HW2  527   1.075   2.591   2.655
  717SOL     OW  528   1.755   2.469   2.093
  717SOL    HW1  529   1.743   2.456   1.994
  717SOL    HW2  530   1.725   2.388   2.142
  718SOL     OW  531   0.768   3.006   2.885
  718SOL    HW1  532   0.690   3.023   2.945
  718SOL    HW2  533   0.802   3.093   2.849
  720SOL     OW  534   0.685   2.874   2.527
  720SOL    HW1  535   0.754   2.858   2.597
  720SOL    HW2  536   0.612   2.931   2.565
  723SOL     OW  537   1.460   3.367   3.201
  723SOL    HW1  538   1.484   3.461   3.227
  723SOL    HW2  539   1.444   3.313   3.283
  725SOL     OW  540   1.603   2.309   2.599
  725SOL    HW1  541   1.529   2.355   2.549
  725SOL    HW2  542   1.654   2.377   2.652
  731SOL     OW  543   0.606   2.826   1.985
  731SOL    HW1  544   0.613   2.910   1.931
  731SOL    HW2  545   0.652   2.839   2.073
  732SOL     OW  546   1.594   1.976   3.342
  732SOL    HW1  547   1.576   2.043   3.270
  732SOL    HW2  548   1.591   2.022   3.431
  734SOL     OW  549   1.842   3.629   2.221
  734SOL    HW1  550   1.896   3.600   2.301
  734SOL    HW2  551   1.872   3.719   2.192
  736SOL     OW  552   1.689   2.784   2.474
  736SOL    HW1  553   1.784   2.755   2.482
  736SOL    HW2  554   1.681   2.849   2.399
  737SOL     OW  555   1.641   2.970   2.294
  737SOL    HW1  556   1.727   2.972   2.242
  737SOL    HW2  557   1.655   3.017   2.382
  740SOL     OW  558   1.293   3.090   3.285
  740SOL    HW1  559   1.330   3.017   3.227
  740SOL    HW2  560   1.345   3.095   3.370
  741SOL     OW  561   0.809   1.866   2.364
  741SOL    HW1  562   0.849   1.957   2.355
  741SOL    HW2  563   0.709   1.874   2.370
  743SOL     OW  564   1.525   2.861   2.052
  743SOL    HW1  565   1.462   2.785   2.065
  743SOL    HW2  566   1.573   2.879   2.138
  746SOL     OW  567   1.466   3.279   2.815
  746SOL    HW1  568   1.407   3.285   2.895
  746SOL    HW2  569   1.451   3.191   2.769
  747SOL     OW  570   1.667   3.576   2.434
  747SOL    HW1  571   1.626   3.553   2.346
  747SOL    HW2  572   1.649   3.502   2.499
  748SOL     OW  573   0.598   2.591   2.132
  748SOL    HW1  574   0.622   2.660   2.064
  748SOL    HW2  575   0.520   2.624   2.186
  749SOL     OW  576   1.281   2.207   2.806
  749SOL    HW1  577   1.195   2.157   2.793
  749SOL    HW2  578   1.343   2.153   2.862
  750SOL     OW  579   1.576   3.524   2.169
  750SOL    HW1  580   1.665   3.570   2.172
  750SOL    HW2  581   1.555   3.500   2.074
  752SOL     OW  582   1.394   2.331   3.536
  752SOL    HW1  583   1.374   2.374   3.624
  752SOL    HW2  584   1.472   2.269   3.545
  754SOL     OW  585   0.991   2.272   3.104
  754SOL    HW1  586   0.914   2.306   3.158
  754SOL    HW2  587   0.957   2.221   3.025
  755SOL     OW  588   1.041   2.563   2.291
  755SOL    HW1  589   1.067   2.559   2.387
  755SOL    HW2  590   0.956   2.512   2.277
  758SOL     OW  591   0.865   2.210   2.057
  758SOL    HW1  592   0.924   2.273   2.008
  758SOL    HW2  593   0.884   2.116   2.028
  759SOL     OW  594   1.719   2.447   3.693
  759SOL    HW1  595   1.693   2.536   3.657
  759SOL    HW2  596   1.717   2.379   3.620
  760SOL     OW  597   1.362   3.006   2.407
  760SOL    HW1  598   1.445   2.977   2.359
  760SOL    HW2  599   1.313   3.073   2.351
  761SOL     OW  600   0.550   2.058   2.747
  761SOL    HW1  601   0.545   2.053   2.847
  761SOL    HW2  602   0.552   2.154   2.718
  762SOL     OW  603   1.008   3.318   2.339
  762SOL    HW1  604   0.962   3.390   2.287
  762SOL    HW2  605   1.004   3.338   2.437
  764SOL     OW  606   1.795   2.928   2.735
  764SOL    HW1  607   1.733   2.913   2.659
  764SOL    HW2  608   1.743   2.939   2.820
  767SOL     OW  609   1.458   2.597   2.590
  767SOL    HW1  610   1.453   2.532   2.665
  767SOL    HW2  611   1.538   2.656   2.603
  771SOL     OW  612   1.632   3.239   1.943
  771SOL    HW1  613   1.600   3.333   1.933
  771SOL    HW2  614   1.556   3.176   1.931
  773SOL     OW  615   1.400   1.969   2.288
  773SOL    HW1  616   1.376   1.932   2.198
  773SOL    HW2  617   1.499   1.985   2.292
  777SOL     OW  618   1.547   2.084   3.591
  777SOL    HW1  619   1.542   2.121   3.683
  777SOL    HW2  620   1.475   2.015   3.579
  778SOL     OW  621   0.614   1.984   1.979
  778SOL    HW1  622   0.712   1.962   1.986
  778SOL    HW2  623   0.583   1.967   1.886
  781SOL     OW  624   1.351   2.452   3.295
  781SOL    HW1  625   1.379   2.409   3.380
  781SOL    HW2  626   1.376   2.548   3.296
  783SOL     OW  627   0.922   2.365   2.761
  783SOL    HW1  628   0.897   2.356   2.665
  783SOL    HW2  629   0.970   2.283   2.792
  784SOL     OW  630   0.539   1.926   2.374
  784SOL    HW1  631   0.458   1.927   2.432
  784SOL    HW2  632   0.542   2.009   2.319
  785SOL     OW  633   1.434   3.050   1.903
  785SOL    HW1  634   1.466   2.974   1.960
  785SOL    HW2  635   1.342   3.077   1.933
  787SOL     OW  636   0.935   2.098   2.342
  787SOL    HW1  637   0.887   2.139   2.264
  787SOL    HW2  638   1.034   2.096   2.323
  788SOL     OW  639   1.076   2.545   3.326
  788SOL    HW1  640   0.996   2.484   3.329
  788SOL    HW2  641   1.157   2.492   3.302
  789SOL     OW  642   1.227   3.432   2.655
  789SOL    HW1  643   1.248   3.506   2.590
  789SOL    HW2  644   1.295   3.432   2.728
  791SOL     OW  645   1.271   3.659   2.453
  791SOL    HW1  646   1.315   3.723   2.389
  791SOL    HW2  647   1.221   3.711   2.523
  792SOL     OW  648   1.032   2.411   1.878
  792SOL    HW1  649   0.991   2.493   1.839
  792SOL    HW2  650   1.096   2.437   1.951
  795SOL     OW  651   0.866   2.316   2.504
  795SOL    HW1  652   0.834   2.388   2.442
  795SOL    HW2  653   0.890   2.235   2.451
  796SOL     OW  654   1.017   1.901   2.615
  796SOL    HW1  655   0.945   1.906   2.546
  796SOL    HW2  656   0.993   1.832   2.684
  797SOL     OW  657   1.429   3.035   2.729
  797SOL    HW1  658   1.374   2.951   2.722
  797SOL    HW2  659   1.455   3.064   2.637
  798SOL     OW  660   1.466   2.452   2.854
  798SOL    HW1  661   1.436   2.357   2.861
  798SOL    HW2  662   1.539   2.468   2.920
  799SOL     OW  663   1.857   2.695   2.239
  799SOL    HW1  664   1.899   2.631   2.303
  799SOL    HW2  665   1.819   2.644   2.161
  801SOL     OW  666   1.664   3.142   2.519
  801SOL    HW1  667   1.763   3.150   2.533
  801SOL    HW2  668   1.619   3.226   2.550
  802SOL     OW  669   1.390   2.437   1.940
  802SOL    HW1  670   1.336   2.416   2.021
  802SOL    HW2  671   1.481   2.396   1.949
  803SOL     OW  672   0.527   2.118   2.190
  803SOL    HW1  673   0.554   2.059   2.115
  803SOL    HW2  674   0.527   2.213   2.159
  804SOL     OW  675   1.754   3.085   3.450
  804SOL    HW1  676   1.845   3.046   3.437
  804SOL    HW2  677   1.762   3.181   3.474
  807SOL     OW  678   1.111   3.057   2.962
  807SOL    HW1  679   1.071   3.101   3.043
  807SOL    HW2  680   1.070   3.094   2.879
  808SOL     OW  681   1.638   2.961   2.941
  808SOL    HW1  682   1.643   3.042   3.000
  808SOL    HW2  683   1.552   2.963   2.890
  809SOL     OW  684   0.915   1.951   3.264
  809SOL    HW1  685   0.940   1.931   3.169
  809SOL    HW2  686   0.987   2.007   3.306
  811SOL     OW  687   0.705   2.912   2.230
  811SOL    HW1  688   0.691   2.919   2.329
  811SOL    HW2  689   0.789   2.861   2.212
  813SOL     OW  690   1.274   2.248   3.124
  813SOL    HW1  691   1.295   2.322   3.188
  813SOL    HW2  692   1.185   2.265   3.081
  816SOL     OW  693   0.566   2.399   2.727
  816SOL    HW1  694   0.578   2.465   2.653
  816SOL    HW2  695   0.612   2.433   2.810
  817SOL     OW  696   1.252   3.210   2.250
  817SOL    HW1  697   1.302   3.287   2.290
  817SOL    HW2  698   1.157   3.212   2.282
  818SOL     OW  699   1.272   3.307   3.004
  818SOL    HW1  700   1.319   3.320   3.091
  818SOL    HW2  701   1.206   3.233   3.013
  819SOL     OW  702   1.582   2.501   2.334
  819SOL    HW1  703   1.551   2.562   2.407
  819SOL    HW2  704   1.632   2.553   2.265
  822SOL     OW  705   1.587   2.641   3.532
  822SOL    HW1  706   1.495   2.679   3.527
  822SOL    HW2  707   1.647   2.688   3.467
  826SOL     OW  708   1.360   2.724   2.907
  826SOL    HW1  709   1.285   2.724   2.841
  826SOL    HW2  710   1.397   2.632   2.916
  827SOL     OW  711   1.209   2.387   2.137
  827SOL    HW1  712   1.222   2.303   2.191
  827SOL    HW2  713   1.180   2.461   2.197
  830SOL     OW  714   0.732   2.496   2.926
  830SOL    HW1  715   0.791   2.470   2.850
  830SOL    HW2  716   0.704   2.592   2.915
  831SOL     OW  717   1.728   2.797   3.716
  831SOL    HW1  718   1.682   2.790   3.627
  831SOL    HW2  719   1.666   2.841   3.782
  833SOL     OW  720   1.622   2.229   2.236
  833SOL    HW1  721   1.624   2.153   2.300
  833SOL    HW2  722   1.574   2.306   2.276
  834SOL     OW  723   1.023   2.628   2.828
  834SOL    HW1  724   1.038   2.649   2.924
  834SOL    HW2  725   0.993   2.533   2.819
  836SOL     OW  726   1.859   3.380   3.467
  836SOL    HW1  727   1.873   3.407   3.372
  836SOL    HW2  728   1.942   3.402   3.520
  838SOL     OW  729   1.540   2.136   1.987
  838SOL    HW1  730   1.479   2.061   2.010
  838SOL    HW2  731   1.562   2.188   2.070
  839SOL     OW  732   1.303   2.700   1.904
  839SOL    HW1  733   1.337   2.607   1.919
  839SOL    HW2  734   1.321   2.727   1.809
  840SOL     OW  735   1.068   3.195   2.711
  840SOL    HW1  736   1.075   3.111   2.656
  840SOL    HW2  737   1.130   3.264   2.675
  843SOL     OW  738   1.138   2.242   3.540
  843SOL    HW1  739   1.093   2.305   3.604
  843SOL    HW2  740   1.231   2.273   3.523
  844SOL     OW  741   1.160   2.069   3.339
  844SOL    HW1  742   1.160   2.133   3.416
  844SOL    HW2  743   1.188   2.117   3.256
  848SOL     OW  744   1.002   2.658   3.100
  848SOL    HW1  745   1.043   2.626   3.186
  848SOL    HW2  746   0.906   2.631   3.097
  851SOL     OW  747   1.369   2.812   3.522
  851SOL    HW1  748   1.408   2.901   3.542
  851SOL    HW2  749   1.379   2.792   3.425
  852SOL     OW  750   0.815   2.434   2.187
  852SOL    HW1  751   0.822   2.345   2.141
  852SOL    HW2  752   0.721   2.468   2.179
  853SOL     OW  753   1.657   2.466   3.068
  853SOL    HW1  754   1.619   2.397   3.130
  853SOL    HW2  755   1.739   2.430   3.024
  855SOL     OW  756   0.671   2.326   3.131
  855SOL    HW1  757   0.637   2.237   3.101
  855SOL    HW2  758   0.697   2.380   3.051
  857SOL     OW  759   0.473   2.362   2.053
  857SOL    HW1  760   0.534   2.442   2.057
  857SOL    HW2  761   0.378   2.393   2.060
  859SOL     OW  762   1.347   2.921   3.096
  859SOL    HW1  763   1.371   2.858   3.022
  859SOL    HW2  764   1.257   2.961   3.078
  860SOL     OW  765   1.302   2.717   2.171
  860SOL    HW1  766   1.216   2.686   2.213
  860SOL    HW2  767   1.298   2.703   2.072
  861SOL     OW  768   1.759   3.609   3.016
  861SOL    HW1  769   1.820   3.639   2.943
  861SOL    HW2  770   1.721   3.520   2.994
  865SOL     OW  771   1.726   1.997   2.385
  865SOL    HW1  772   1.799   1.980   2.318
  865SOL    HW2  773   1.695   1.910   2.423
  866SOL     OW  774   1.388   3.435   2.339
  866SOL    HW1  775   1.455   3.447   2.265
  866SOL    HW2  776   1.348   3.524   2.362
  868SOL     OW  777   1.280   2.789   2.534
  868SOL    HW1  778   1.340   2.708   2.536
  868SOL    HW2  779   1.320   2.858   2.474
  872SOL     OW  780   1.841   2.037   2.825
  872SOL    HW1  781   1.880   1.952   2.789
  872SOL    HW2  782   1.743   2.039   2.806
  874SOL     OW  783   1.194   3.474   1.893
  874SOL    HW1  784   1.200   3.381   1.930
  874SOL    HW2  785   1.135   3.474   1.813
  876SOL     OW  786   0.916   2.772   2.153
  876SOL    HW1  787   0.979   2.810   2.085
  876SOL    HW2  788   0.956   2.689   2.192
  877SOL     OW  789   1.504   3.469   1.906
  877SOL    HW1  790   1.412   3.506   1.913
  877SOL    HW2  791   1.542   3.489   1.816
  879SOL     OW  792   1.614   3.154   3.151
  879SOL    HW1  793   1.674   3.157   3.231
  879SOL    HW2  794   1.539   3.218   3.164
  880SOL     OW  795   1.039   2.960   2.558
  880SOL    HW1  796   0.969   2.913   2.612
  880SOL    HW2  797   1.098   2.892   2.515
  881SOL     OW  798   1.014   2.098   2.833
  881SOL    HW1  799   1.006   2.062   2.740
  881SOL    HW2  800   1.012   2.022   2.898
  883SOL     OW  801   1.709   2.247   3.243
  883SOL    HW1  802   1.782   2.316   3.247
  883SOL    HW2  803   1.737   2.172   3.184
  888SOL     OW  804   1.440   2.718   3.260
  888SOL    HW1  805   1.383   2.770   3.197
  888SOL    HW2  806   1.536   2.730   3.236
  890SOL     OW  807   1.183   3.197   1.981
  890SOL    HW1  808   1.084   3.186   1.983
  890SOL    HW2  809   1.217   3.212   2.074
  892SOL     OW  810   1.493   3.629   2.821
  892SOL    HW1  811   1.526   3.693   2.752
  892SOL    HW2  812   1.559   3.623   2.896
  894SOL     OW  813   1.450   3.082   3.495
  894SOL    HW1  814   1.441   3.072   3.594
  894SOL    HW2  815   1.546   3.075   3.469
  896SOL     OW  816   1.674   2.745   3.116
  896SOL    HW1  817   1.647   2.656   3.079
  896SOL    HW2  818   1.675   2.813   3.043
  897SOL     OW  819   1.225   2.187   2.311
  897SOL    HW1  820   1.290   2.113   2.300
  897SOL    HW2  821   1.245   2.237   2.395
  898SOL     OW  822   0.594   2.607   2.514
  898SOL    HW1  823   0.644   2.692   2.495
  898SOL    HW2  824   0.506   2.609   2.466
  899SOL     OW  825   1.777   2.204   3.504
  899SOL    HW1  826   1.760   2.235   3.410
  899SOL    HW2  827   1.693   2.167   3.542
  900SOL     OW  828   1.730   2.796   3.379
  900SOL    HW1  829   1.768   2.887   3.394
  900SOL    HW2  830   1.722   2.779   3.280
  901SOL     OW  831   0.859   3.236   1.878
  901SOL    HW1  832   0.813   3.251   1.966
  901SOL    HW2  833   0.903   3.321   1.848
  903SOL     OW  834   0.859   2.818   2.723
  903SOL    HW1  835   0.913   2.749   2.771
  903SOL    HW2  836   0.827   2.887   2.789
  904SOL     OW  837   1.083   2.846   1.949
  904SOL    HW1  838   1.060   2.899   1.867
  904SOL    HW2  839   1.164   2.790   1.930
  905SOL     OW  840   1.861   3.431   2.713
  905SOL    HW1  841   1.790   3.419   2.643
  905SOL    HW2  842   1.862   3.352   2.773
  909SOL     OW  843   1.824   2.054   3.089
  909SOL    HW1  844   1.820   1.964   3.133
  909SOL    HW2  845   1.827   2.043   2.990
  910SOL     OW  846   0.428   2.286   2.382
  910SOL    HW1  847   0.458   2.214   2.320
  910SOL    HW2  848   0.389   2.246   2.465
  911SOL     OW  849   1.705   3.349   2.966
  911SOL    HW1  850   1.612   3.324   2.939
  911SOL    HW2  851   1.731   3.299   3.048
  914SOL     OW  852   1.424   2.076   2.974
  914SOL    HW1  853   1.476   2.011   3.029
  914SOL    HW2  854   1.375   2.139   3.035
  915SOL     OW  855   1.001   1.896   3.016
  915SOL    HW1  856   0.938   1.824   2.985
  915SOL    HW2  857   1.094   1.860   3.016
  916SOL     OW  858   0.770   3.192   2.163
  916SOL    HW1  859   0.724   3.105   2.180
  916SOL    HW2  860   0.861   3.189   2.204
  918SOL     OW  861   1.352   1.914   2.030
  918SOL    HW1  862   1.387   1.873   1.946
  918SOL    HW2  863   1.262   1.876   2.050
  919SOL     OW  864   1.300   2.315   2.553
  919SOL    HW1  865   1.241   2.395   2.557
  919SOL    HW2  866   1.315   2.280   2.646
  920SOL     OW  867   1.593   2.083   2.744
  920SOL    HW1  868   1.509   2.082   2.798
  920SOL    HW2  869   1.595   2.166   2.688
  966SOL     OW  870   1.540   2.136   3.849
  966SOL    HW1  871   1.479   2.061   3.872
  966SOL    HW2  872   1.562   2.188   3.932
 1128SOL     OW  873   1.726   3.859   2.385
 1128SOL    HW1  874   1.799   3.842   2.318
 1128SOL    HW2  875   1.695   3.772   2.423
 1145SOL     OW  876   1.352   3.776   2.030
 1145SOL    HW1  877   1.387   3.735   1.946
 1145SOL    HW2  878   1.262   3.738   2.050
 1177SOL     OW  879   2.431   1.275   1.165
 1177SOL    HW1  880   2.338   1.268   1.128
 1177SOL    HW2  881   2.442   1.364   1.209
 1181SOL     OW  882   2.630   1.144   1.023
 1181SOL    HW1  883   2.552   1.161   1.083
 1181SOL    HW2  884   2.664   1.231   0.987
 1182SOL     OW  885   2.712   0.798   1.823
 1182SOL    HW1  886   2.708   0.874   1.888
 1182SOL    HW2  887   2.734   0.834   1.732
 1184SOL     OW  888   2.548   1.161   1.803
 1184SOL    HW1  889   2.608   1.240   1.817
 1184SOL    HW2  890   2.462   1.192   1.762
 1185SOL     OW  891   2.197   1.435   1.061
 1185SOL    HW1  892   2.119   1.404   1.008
 1185SOL    HW2  893   2.255   1.493   1.004
 1186SOL     OW  894   3.322   1.505   1.339
 1186SOL    HW1  895   3.346   1.599   1.365
 1186SOL    HW2  896   3.306   1.451   1.421
 1189SOL     OW  897   2.093   1.713   0.483
 1189SOL    HW1  898   2.127   1.790   0.537
 1189SOL    HW2  899   2.137   1.713   0.393
 1190SOL     OW  900   2.989   1.341   1.690
 1190SOL    HW1  901   3.036   1.341   1.778
 1190SOL    HW2  902   2.941   1.254   1.679
 1192SOL     OW  903   2.102   1.091   0.886
 1192SOL    HW1  904   2.116   1.007   0.938
 1192SOL    HW2  905   2.047   1.155   0.941
 1193SOL     OW  906   2.482   1.786   1.439
 1193SOL    HW1  907   2.390   1.769   1.474
 1193SOL    HW2  908   2.510   1.878   1.465
 1201SOL     OW  909   1.975   0.737   1.597
 1201SOL    HW1  910   2.063   0.724   1.642
 1201SOL    HW2  911   1.962   0.834   1.575
 1202SOL     OW  912   2.475   1.365   0.726
 1202SOL    HW1  913   2.426   1.278   0.735
 1202SOL    HW2  914   2.452   1.408   0.639
 1203SOL     OW  915   3.155   1.228   1.423
 1203SOL    HW1  916   3.192   1.155   1.365
 1203SOL    HW2  917   3.207   1.233   1.508
 1205SOL     OW  918   2.059   0.976   1.264
 1205SOL    HW1  919   2.148   0.931   1.250
 1205SOL    HW2  920   1.986   0.911   1.245
 1207SOL     OW  921   3.049   1.792   1.616
 1207SOL    HW1  922   3.073   1.852   1.540
 1207SOL    HW2  923   3.056   1.697   1.586
 1216SOL     OW  924   2.835   0.890   1.572
 1216SOL    HW1  925   2.881   0.806   1.543
 1216SOL    HW2  926   2.779   0.924   1.497
 1220SOL     OW  927   1.992   1.821   1.571
 1220SOL    HW1  928   1.982   1.806   1.670
 1220SOL    HW2  929   1.906   1.857   1.535
 1226SOL     OW  930   2.213   1.801   0.853
 1226SOL    HW1  931   2.263   1.715   0.859
 1226SOL    HW2  932   2.278   1.878   0.850
 1228SOL     OW  933   3.089   1.550   1.506
 1228SOL    HW1  934   3.095   1.473   1.570
 1228SOL    HW2  935   3.037   1.524   1.426
 1231SOL     OW  936   2.323   1.266   1.727
 1231SOL    HW1  937   2.273   1.267   1.641
 1231SOL    HW2  938   2.260   1.248   1.803
 1237SOL     OW  939   2.111   1.785   1.241
 1237SOL    HW1  940   2.168   1.720   1.291
 1237SOL    HW2  941   2.095   1.752   1.148
 1238SOL     OW  942   2.802   1.698   0.904
 1238SOL    HW1  943   2.882   1.641   0.925
 1238SOL    HW2  944   2.753   1.658   0.827
 1243SOL     OW  945   2.750   1.514   1.195
 1243SOL    HW1  946   2.727   1.489   1.101
 1243SOL    HW2  947   2.811   1.445   1.234
 1245SOL     OW  948   2.665   1.402   0.924
 1245SOL    HW1  949   2.755   1.416   0.882
 1245SOL    HW2  950   2.594   1.404   0.853
 1252SOL     OW  951   3.089   1.570   0.793
 1252SOL    HW1  952   3.110   1.644   0.728
 1252SOL    HW2  953   3.157   1.570   0.866
 1253SOL     OW  954   2.321   1.152   0.741
 1253SOL    HW1  955   2.250   1.125   0.806
 1253SOL    HW2  956   2.295   1.124   0.648
 1268SOL     OW  957   2.926   1.347   1.340
 1268SOL    HW1  958   2.846   1.324   1.395
 1268SOL    HW2  959   3.009   1.321   1.389
 1269SOL     OW  960   3.454   1.629   1.625
 1269SOL    HW1  961   3.481   1.663   1.535
 1269SOL    HW2  962   3.533   1.591   1.671
 1270SOL     OW  963   2.973   1.195   1.100
 1270SOL    HW1  964   2.933   1.239   1.181
 1270SOL    HW2  965   2.932   1.232   1.017
 1273SOL     OW  966   2.842   1.116   1.719
 1273SOL    HW1  967   2.743   1.122   1.729
 1273SOL    HW2  968   2.865   1.036   1.663
 1275SOL     OW  969   2.272   0.813   1.251
 1275SOL    HW1  970   2.358   0.825   1.301
 1275SOL    HW2  971   2.230   0.726   1.278
 1277SOL     OW  972   1.926   1.564   1.331
 1277SOL    HW1  973   1.880   1.646   1.297
 1277SOL    HW2  974   2.024   1.583   1.340
 1281SOL     OW  975   3.134   1.445   1.142
 1281SOL    HW1  976   3.181   1.458   1.229
 1281SOL    HW2  977   3.068   1.371   1.151
 1283SOL     OW  978   2.216   1.510   1.329
 1283SOL    HW1  979   2.195   1.466   1.242
 1283SOL    HW2  980   2.313   1.536   1.332
 1284SOL     OW  981   2.264   0.751   1.598
 1284SOL    HW1  982   2.332   0.806   1.551
 1284SOL    HW2  983   2.304   0.663   1.625
 1288SOL     OW  984   2.435   0.870   1.029
 1288SOL    HW1  985   2.479   0.959   1.020
 1288SOL    HW2  986   2.372   0.870   1.106
 1292SOL     OW  987   1.899   1.310   1.282
 1292SOL    HW1  988   1.952   1.261   1.350
 1292SOL    HW2  989   1.921   1.408   1.287
 1298SOL     OW  990   2.842   1.573   1.700
 1298SOL    HW1  991   2.822   1.617   1.612
 1298SOL    HW2  992   2.881   1.482   1.684
 1299SOL     OW  993   3.721   1.518   1.605
 1299SOL    HW1  994   3.735   1.545   1.510
 1299SOL    HW2  995   3.804   1.540   1.658
 1300SOL     OW  996   2.212   0.898   1.804
 1300SOL    HW1  997   2.288   0.942   1.852
 1300SOL    HW2  998   2.247   0.851   1.722
 1303SOL     OW  999   2.930   1.333   0.849
 1303SOL    HW1 1000   2.937   1.249   0.794
 1303SOL    HW2 1001   2.992   1.402   0.813
 1309SOL     OW 1002   1.950   1.801   0.927
 1309SOL    HW1 1003   1.908   1.715   0.900
 1309SOL    HW2 1004   2.044   1.804   0.893
 1310SOL     OW 1005   2.366   1.568   0.910
 1310SOL    HW1 1006   2.432   1.642   0.919
 1310SOL    HW2 1007   2.410   1.489   0.868
 1313SOL     OW 1008   2.051   0.520   1.722
 1313SOL    HW1 1009   2.110   0.480   1.652
 1313SOL    HW2 1010   1.993   0.591   1.681
 1314SOL     OW 1011   3.231   0.950   1.660
 1314SOL    HW1 1012   3.270   1.039   1.680
 1314SOL    HW2 1013   3.241   0.930   1.563
 1317SOL     OW 1014   2.114   1.564   1.744
 1317SOL    HW1 1015   2.084   1.621   1.820
 1317SOL    HW2 1016   2.107   1.467   1.770
 1319SOL     OW 1017   2.792   1.678   1.465
 1319SOL    HW1 1018   2.768   1.660   1.370
 1319SOL    HW2 1019   2.822   1.772   1.475
 1321SOL     OW 1020   2.021   1.137   1.466
 1321SOL    HW1 1021   2.043   1.076   1.542
 1321SOL    HW2 1022   2.031   1.088   1.380
 1325SOL     OW 1023   3.114   1.731   1.128
 1325SOL    HW1 1024   3.198   1.736   1.074
 1325SOL    HW2 1025   3.091   1.635   1.146
 1326SOL     OW 1026   1.945   1.258   1.022
 1326SOL    HW1 1027   1.940   1.257   1.122
 1326SOL    HW2 1028   1.862   1.217   0.984
 1327SOL     OW 1029   2.550   1.662   1.716
 1327SOL    HW1 1030   2.494   1.743   1.725
 1327SOL    HW2 1031   2.602   1.666   1.630
 1331SOL     OW 1032   1.992   1.794   1.851
 1331SOL    HW1 1033   1.951   1.720   1.904
 1331SOL    HW2 1034   2.056   1.845   1.909
 1333SOL     OW 1035   2.692   1.273   1.422
 1333SOL    HW1 1036   2.687   1.306   1.517
 1333SOL    HW2 1037   2.606   1.292   1.376
 1335SOL     OW 1038   3.512   1.720   1.394
 1335SOL    HW1 1039   3.565   1.730   1.310
 1335SOL    HW2 1040   3.485   1.810   1.428
 1339SOL     OW 1041   2.684   1.002   1.372
 1339SOL    HW1 1042   2.724   1.001   1.280
 1339SOL    HW2 1043   2.694   1.094   1.412
 1342SOL     OW 1044   2.234   1.288   1.490
 1342SOL    HW1 1045   2.221   1.381   1.456
 1342SOL    HW2 1046   2.150   1.236   1.477
 1349SOL     OW 1047   1.967   1.013   1.726
 1349SOL    HW1 1048   1.890   0.980   1.780
 1349SOL    HW2 1049   2.052   0.983   1.768
 1354SOL     OW 1050   2.475   0.842   1.431
 1354SOL    HW1 1051   2.531   0.923   1.414
 1354SOL    HW2 1052   2.534   0.762   1.434
 1355SOL     OW 1053   3.355   1.767   0.959
 1355SOL    HW1 1054   3.388   1.831   0.890
 1355SOL    HW2 1055   3.421   1.761   1.034
 1356SOL     OW 1056   2.578   0.565   1.708
 1356SOL    HW1 1057   2.597   0.630   1.782
 1356SOL    HW2 1058   2.638   0.485   1.717
 1357SOL     OW 1059   3.312   1.220   1.633
 1357SOL    HW1 1060   3.303   1.210   1.732
 1357SOL    HW2 1061   3.408   1.213   1.607
 1358SOL     OW 1062   2.252   1.741   1.560
 1358SOL    HW1 1063   2.161   1.782   1.558
 1358SOL    HW2 1064   2.245   1.647   1.592
 1365SOL     OW 1065   2.523   1.790   0.953
 1365SOL    HW1 1066   2.477   1.878   0.940
 1365SOL    HW2 1067   2.622   1.802   0.946
 1369SOL     OW 1068   2.083   1.314   1.844
 1369SOL    HW1 1069   2.018   1.241   1.823
 1369SOL    HW2 1070   2.087   1.328   1.942
 1371SOL     OW 1071   2.534   1.391   1.624
 1371SOL    HW1 1072   2.456   1.341   1.662
 1371SOL    HW2 1073   2.531   1.486   1.655
 1376SOL     OW 1074   2.674   1.586   0.687
 1376SOL    HW1 1075   2.706   1.596   0.593
 1376SOL    HW2 1076   2.595   1.524   0.689
 1380SOL     OW 1077   2.480   1.567   1.284
 1380SOL    HW1 1078   2.475   1.649   1.341
 1380SOL    HW2 1079   2.569   1.564   1.239
 1386SOL     OW 1080   2.092   0.628   1.975
 1386SOL    HW1 1081   1.999   0.626   2.012
 1386SOL    HW2 1082   2.093   0.589   1.883
 1389SOL     OW 1083   2.431   1.275   3.027
 1389SOL    HW1 1084   2.338   1.268   2.990
 1389SOL    HW2 1085   2.442   1.364   3.071
 1390SOL     OW 1086   3.417   1.511   2.565
 1390SOL    HW1 1087   3.360   1.495   2.646
 1390SOL    HW2 1088   3.358   1.521   2.485
 1391SOL     OW 1089   2.997   0.703   2.579
 1391SOL    HW1 1090   3.054   0.781   2.554
 1391SOL    HW2 1091   2.937   0.729   2.655
 1393SOL     OW 1092   2.630   1.144   2.885
 1393SOL    HW1 1093   2.552   1.161   2.945
 1393SOL    HW2 1094   2.664   1.231   2.849
 1395SOL     OW 1095   2.547   1.012   2.527
 1395SOL    HW1 1096   2.616   0.996   2.597
 1395SOL    HW2 1097   2.474   1.069   2.565
 1397SOL     OW 1098   2.197   1.435   2.923
 1397SOL    HW1 1099   2.119   1.404   2.870
 1397SOL    HW2 1100   2.255   1.493   2.866
 1398SOL     OW 1101   3.322   1.505   3.201
 1398SOL    HW1 1102   3.346   1.599   3.227
 1398SOL    HW2 1103   3.306   1.451   3.283
 1401SOL     OW 1104   2.093   1.713   2.345
 1401SOL    HW1 1105   2.127   1.790   2.399
 1401SOL    HW2 1106   2.137   1.713   2.255
 1402SOL     OW 1107   2.989   1.341   3.552
 1402SOL    HW1 1108   3.036   1.341   3.640
 1402SOL    HW2 1109   2.941   1.254   3.541
 1403SOL     OW 1110   2.092   1.434   2.400
 1403SOL    HW1 1111   2.066   1.530   2.400
 1403SOL    HW2 1112   2.021   1.380   2.445
 1404SOL     OW 1113   2.102   1.091   2.748
 1404SOL    HW1 1114   2.116   1.007   2.800
 1404SOL    HW2 1115   2.047   1.155   2.803
 1405SOL     OW 1116   2.482   1.786   3.301
 1405SOL    HW1 1117   2.390   1.769   3.336
 1405SOL    HW2 1118   2.510   1.878   3.327
 1406SOL     OW 1119   2.468   0.964   1.985
 1406SOL    HW1 1120   2.475   1.048   1.931
 1406SOL    HW2 1121   2.514   0.977   2.073
 1408SOL     OW 1122   1.984   0.643   2.425
 1408SOL    HW1 1123   1.939   0.555   2.442
 1408SOL    HW2 1124   1.983   0.697   2.509
 1409SOL     OW 1125   3.704   1.767   2.221
 1409SOL    HW1 1126   3.758   1.738   2.301
 1409SOL    HW2 1127   3.734   1.857   2.192
 1410SOL     OW 1128   1.889   1.596   1.979
 1410SOL    HW1 1129   1.870   1.500   2.000
 1410SOL    HW2 1130   1.856   1.654   2.054
 1412SOL     OW 1131   3.503   1.108   2.294
 1412SOL    HW1 1132   3.589   1.110   2.242
 1412SOL    HW2 1133   3.517   1.155   2.382
 1414SOL     OW 1134   2.475   1.365   2.588
 1414SOL    HW1 1135   2.426   1.278   2.597
 1414SOL    HW2 1136   2.452   1.408   2.501
 1415SOL     OW 1137   3.155   1.228   3.285
 1415SOL    HW1 1138   3.192   1.155   3.227
 1415SOL    HW2 1139   3.207   1.233   3.370
 1417SOL     OW 1140   2.059   0.976   3.126
 1417SOL    HW1 1141   2.148   0.931   3.112
 1417SOL    HW2 1142   1.986   0.911   3.107
 1418SOL     OW 1143   3.387   0.999   2.052
 1418SOL    HW1 1144   3.324   0.923   2.065
 1418SOL    HW2 1145   3.435   1.017   2.138
 1419SOL     OW 1146   3.049   1.792   3.478
 1419SOL    HW1 1147   3.073   1.852   3.402
 1419SOL    HW2 1148   3.056   1.697   3.448
 1421SOL     OW 1149   3.328   1.417   2.815
 1421SOL    HW1 1150   3.269   1.423   2.895
 1421SOL    HW2 1151   3.313   1.329   2.769
 1422SOL     OW 1152   3.529   1.714   2.434
 1422SOL    HW1 1153   3.488   1.691   2.346
 1422SOL    HW2 1154   3.511   1.640   2.499
 1423SOL     OW 1155   2.460   0.729   2.132
 1423SOL    HW1 1156   2.484   0.798   2.064
 1423SOL    HW2 1157   2.382   0.762   2.186
 1425SOL     OW 1158   3.438   1.662   2.169
 1425SOL    HW1 1159   3.527   1.708   2.172
 1425SOL    HW2 1160   3.417   1.638   2.074
 1430SOL     OW 1161   2.903   0.701   2.291
 1430SOL    HW1 1162   2.929   0.697   2.387
 1430SOL    HW2 1163   2.818   0.650   2.277
 1431SOL     OW 1164   1.938   0.811   2.651
 1431SOL    HW1 1165   2.037   0.799   2.660
 1431SOL    HW2 1166   1.914   0.906   2.672
 1432SOL     OW 1167   1.992   1.821   3.433
 1432SOL    HW1 1168   1.982   1.806   3.532
 1432SOL    HW2 1169   1.906   1.857   3.397
 1435SOL     OW 1170   3.224   1.144   2.407
 1435SOL    HW1 1171   3.307   1.115   2.359
 1435SOL    HW2 1172   3.175   1.211   2.351
 1437SOL     OW 1173   2.870   1.456   2.339
 1437SOL    HW1 1174   2.824   1.528   2.287
 1437SOL    HW2 1175   2.866   1.476   2.437
 1438SOL     OW 1176   2.213   1.801   2.715
 1438SOL    HW1 1177   2.263   1.715   2.721
 1438SOL    HW2 1178   2.278   1.878   2.712
 1440SOL     OW 1179   3.089   1.550   3.368
 1440SOL    HW1 1180   3.095   1.473   3.432
 1440SOL    HW2 1181   3.037   1.524   3.288
 1441SOL     OW 1182   2.183   0.943   2.104
 1441SOL    HW1 1183   2.265   0.982   2.062
 1441SOL    HW2 1184   2.156   0.861   2.055
 1443SOL     OW 1185   2.323   1.266   3.589
 1443SOL    HW1 1186   2.273   1.267   3.503
 1443SOL    HW2 1187   2.260   1.248   3.665
 1444SOL     OW 1188   2.973   1.776   2.099
 1444SOL    HW1 1189   2.913   1.714   2.149
 1444SOL    HW2 1190   3.004   1.732   2.014
 1446SOL     OW 1191   3.494   1.377   1.943
 1446SOL    HW1 1192   3.462   1.471   1.933
 1446SOL    HW2 1193   3.418   1.314   1.931
 1447SOL     OW 1194   2.326   1.743   2.185
 1447SOL    HW1 1195   2.359   1.782   2.271
 1447SOL    HW2 1196   2.402   1.736   2.120
 1449SOL     OW 1197   2.111   1.785   3.103
 1449SOL    HW1 1198   2.168   1.720   3.153
 1449SOL    HW2 1199   2.095   1.752   3.010
 1450SOL     OW 1200   2.802   1.698   2.766
 1450SOL    HW1 1201   2.882   1.641   2.787
 1450SOL    HW2 1202   2.753   1.658   2.689
 1451SOL     OW 1203   2.244   0.700   2.342
 1451SOL    HW1 1204   2.289   0.610   2.339
 1451SOL    HW2 1205   2.150   0.689   2.375
 1455SOL     OW 1206   2.750   1.514   3.057
 1455SOL    HW1 1207   2.727   1.489   2.963
 1455SOL    HW2 1208   2.811   1.445   3.096
 1457SOL     OW 1209   2.665   1.402   2.786
 1457SOL    HW1 1210   2.755   1.416   2.744
 1457SOL    HW2 1211   2.594   1.404   2.715
 1460SOL     OW 1212   3.296   1.188   1.903
 1460SOL    HW1 1213   3.328   1.112   1.960
 1460SOL    HW2 1214   3.204   1.215   1.933
 1464SOL     OW 1215   3.089   1.570   2.655
 1464SOL    HW1 1216   3.110   1.644   2.590
 1464SOL    HW2 1217   3.157   1.570   2.728
 1465SOL     OW 1218   2.321   1.152   2.603
 1465SOL    HW1 1219   2.250   1.125   2.668
 1465SOL    HW2 1220   2.295   1.124   2.510
 1466SOL     OW 1221   3.133   1.797   2.453
 1466SOL    HW1 1222   3.177   1.861   2.389
 1466SOL    HW2 1223   3.083   1.849   2.523
 1472SOL     OW 1224   3.291   1.173   2.729
 1472SOL    HW1 1225   3.236   1.089   2.722
 1472SOL    HW2 1226   3.317   1.202   2.637
 1475SOL     OW 1227   2.350   1.385   2.036
 1475SOL    HW1 1228   2.263   1.370   2.083
 1475SOL    HW2 1229   2.333   1.411   1.941
 1476SOL     OW 1230   3.526   1.280   2.519
 1476SOL    HW1 1231   3.625   1.288   2.533
 1476SOL    HW2 1232   3.481   1.364   2.550
 1480SOL     OW 1233   2.926   1.347   3.202
 1480SOL    HW1 1234   2.846   1.324   3.257
 1480SOL    HW2 1235   3.009   1.321   3.251
 1482SOL     OW 1236   2.973   1.195   2.962
 1482SOL    HW1 1237   2.933   1.239   3.043
 1482SOL    HW2 1238   2.932   1.232   2.879
 1486SOL     OW 1239   2.567   1.050   2.230
 1486SOL    HW1 1240   2.553   1.057   2.329
 1486SOL    HW2 1241   2.651   0.999   2.212
 1487SOL     OW 1242   2.272   0.813   3.113
 1487SOL    HW1 1243   2.358   0.825   3.163
 1487SOL    HW2 1244   2.230   0.726   3.140
 1489SOL     OW 1245   1.926   1.564   3.193
 1489SOL    HW1 1246   1.880   1.646   3.159
 1489SOL    HW2 1247   2.024   1.583   3.202
 1490SOL     OW 1248   2.229   1.100   2.363
 1490SOL    HW1 1249   2.222   1.183   2.307
 1490SOL    HW2 1250   2.233   1.020   2.303
 1491SOL     OW 1251   2.428   0.537   2.727
 1491SOL    HW1 1252   2.440   0.603   2.653
 1491SOL    HW2 1253   2.474   0.571   2.810
 1492SOL     OW 1254   3.114   1.348   2.250
 1492SOL    HW1 1255   3.164   1.425   2.290
 1492SOL    HW2 1256   3.019   1.350   2.282
 1493SOL     OW 1257   3.134   1.445   3.004
 1493SOL    HW1 1258   3.181   1.458   3.091
 1493SOL    HW2 1259   3.068   1.371   3.013
 1495SOL     OW 1260   2.216   1.510   3.191
 1495SOL    HW1 1261   2.195   1.466   3.104
 1495SOL    HW2 1262   2.313   1.536   3.194
 1500SOL     OW 1263   2.435   0.870   2.891
 1500SOL    HW1 1264   2.479   0.959   2.882
 1500SOL    HW2 1265   2.372   0.870   2.968
 1504SOL     OW 1266   1.899   1.310   3.144
 1504SOL    HW1 1267   1.952   1.261   3.212
 1504SOL    HW2 1268   1.921   1.408   3.149
 1505SOL     OW 1269   2.594   0.634   2.926
 1505SOL    HW1 1270   2.653   0.608   2.850
 1505SOL    HW2 1271   2.566   0.730   2.915
 1509SOL     OW 1272   2.885   0.766   2.828
 1509SOL    HW1 1273   2.900   0.787   2.924
 1509SOL    HW2 1274   2.855   0.671   2.819
 1510SOL     OW 1275   2.842   1.573   3.562
 1510SOL    HW1 1276   2.822   1.617   3.474
 1510SOL    HW2 1277   2.881   1.482   3.546
 1514SOL     OW 1278   3.165   0.838   1.904
 1514SOL    HW1 1279   3.199   0.745   1.919
 1514SOL    HW2 1280   3.183   0.865   1.809
 1515SOL     OW 1281   2.930   1.333   2.711
 1515SOL    HW1 1282   2.937   1.249   2.656
 1515SOL    HW2 1283   2.992   1.402   2.675
 1516SOL     OW 1284   2.181   0.810   2.811
 1516SOL    HW1 1285   2.274   0.846   2.816
 1516SOL    HW2 1286   2.175   0.725   2.863
 1520SOL     OW 1287   1.870   1.326   2.062
 1520SOL    HW1 1288   1.777   1.347   2.031
 1520SOL    HW2 1289   1.880   1.227   2.075
 1521SOL     OW 1290   1.950   1.801   2.789
 1521SOL    HW1 1291   1.908   1.715   2.762
 1521SOL    HW2 1292   2.044   1.804   2.755
 1522SOL     OW 1293   2.366   1.568   2.772
 1522SOL    HW1 1294   2.432   1.642   2.781
 1522SOL    HW2 1295   2.410   1.489   2.730
 1523SOL     OW 1296   2.864   0.796   3.100
 1523SOL    HW1 1297   2.905   0.764   3.186
 1523SOL    HW2 1298   2.768   0.769   3.097
 1527SOL     OW 1299   2.677   0.572   2.187
 1527SOL    HW1 1300   2.684   0.483   2.141
 1527SOL    HW2 1301   2.583   0.606   2.179
 1529SOL     OW 1302   2.114   1.564   3.606
 1529SOL    HW1 1303   2.084   1.621   3.682
 1529SOL    HW2 1304   2.107   1.467   3.632
 1531SOL     OW 1305   2.792   1.678   3.327
 1531SOL    HW1 1306   2.768   1.660   3.232
 1531SOL    HW2 1307   2.822   1.772   3.337
 1532SOL     OW 1308   2.335   0.500   2.053
 1532SOL    HW1 1309   2.396   0.580   2.057
 1532SOL    HW2 1310   2.240   0.531   2.060
 1533SOL     OW 1311   2.021   1.137   3.328
 1533SOL    HW1 1312   2.043   1.076   3.404
 1533SOL    HW2 1313   2.031   1.088   3.242
 1534SOL     OW 1314   3.209   1.059   3.096
 1534SOL    HW1 1315   3.233   0.996   3.022
 1534SOL    HW2 1316   3.119   1.099   3.078
 1535SOL     OW 1317   3.164   0.855   2.171
 1535SOL    HW1 1318   3.078   0.824   2.213
 1535SOL    HW2 1319   3.160   0.841   2.072
 1536SOL     OW 1320   3.621   1.747   3.016
 1536SOL    HW1 1321   3.682   1.777   2.943
 1536SOL    HW2 1322   3.583   1.658   2.994
 1537SOL     OW 1323   3.114   1.731   2.990
 1537SOL    HW1 1324   3.198   1.736   2.936
 1537SOL    HW2 1325   3.091   1.635   3.008
 1538SOL     OW 1326   1.945   1.258   2.884
 1538SOL    HW1 1327   1.940   1.257   2.984
 1538SOL    HW2 1328   1.862   1.217   2.846
 1539SOL     OW 1329   2.550   1.662   3.578
 1539SOL    HW1 1330   2.494   1.743   3.587
 1539SOL    HW2 1331   2.602   1.666   3.492
 1541SOL     OW 1332   3.250   1.573   2.339
 1541SOL    HW1 1333   3.317   1.585   2.265
 1541SOL    HW2 1334   3.210   1.662   2.362
 1542SOL     OW 1335   1.992   1.794   3.713
 1542SOL    HW1 1336   1.951   1.720   3.766
 1542SOL    HW2 1337   2.056   1.845   3.771
 1543SOL     OW 1338   3.142   0.927   2.534
 1543SOL    HW1 1339   3.202   0.846   2.536
 1543SOL    HW2 1340   3.182   0.996   2.474
 1544SOL     OW 1341   2.692   1.273   3.284
 1544SOL    HW1 1342   2.687   1.306   3.379
 1544SOL    HW2 1343   2.606   1.292   3.238
 1545SOL     OW 1344   2.534   1.616   2.016
 1545SOL    HW1 1345   2.543   1.626   1.917
 1545SOL    HW2 1346   2.494   1.527   2.037
 1546SOL     OW 1347   3.512   1.720   3.256
 1546SOL    HW1 1348   3.565   1.730   3.172
 1546SOL    HW2 1349   3.485   1.810   3.290
 1549SOL     OW 1350   3.056   1.612   1.893
 1549SOL    HW1 1351   3.062   1.519   1.930
 1549SOL    HW2 1352   2.997   1.612   1.813
 1550SOL     OW 1353   2.684   1.002   3.234
 1550SOL    HW1 1354   2.724   1.001   3.142
 1550SOL    HW2 1355   2.694   1.094   3.274
 1551SOL     OW 1356   2.778   0.910   2.153
 1551SOL    HW1 1357   2.841   0.948   2.085
 1551SOL    HW2 1358   2.818   0.827   2.192
 1552SOL     OW 1359   3.366   1.607   1.906
 1552SOL    HW1 1360   3.274   1.644   1.913
 1552SOL    HW2 1361   3.404   1.627   1.816
 1553SOL     OW 1362   2.234   1.288   3.352
 1553SOL    HW1 1363   2.221   1.381   3.318
 1553SOL    HW2 1364   2.150   1.236   3.339
 1555SOL     OW 1365   2.901   1.098   2.558
 1555SOL    HW1 1366   2.831   1.051   2.612
 1555SOL    HW2 1367   2.960   1.030   2.515
 1557SOL     OW 1368   2.452   1.487   2.353
 1557SOL    HW1 1369   2.494   1.429   2.283
 1557SOL    HW2 1370   2.408   1.566   2.309
 1559SOL     OW 1371   2.117   1.348   2.152
 1559SOL    HW1 1372   2.021   1.349   2.125
 1559SOL    HW2 1373   2.129   1.401   2.236
 1565SOL     OW 1374   3.045   1.335   1.981
 1565SOL    HW1 1375   2.946   1.324   1.983
 1565SOL    HW2 1376   3.079   1.350   2.074
 1566SOL     OW 1377   2.475   0.842   3.293
 1566SOL    HW1 1378   2.531   0.923   3.276
 1566SOL    HW2 1379   2.534   0.762   3.296
 1567SOL     OW 1380   3.355   1.767   2.821
 1567SOL    HW1 1381   3.388   1.831   2.752
 1567SOL    HW2 1382   3.421   1.761   2.896
 1570SOL     OW 1383   2.252   1.741   3.422
 1570SOL    HW1 1384   2.161   1.782   3.420
 1570SOL    HW2 1385   2.245   1.647   3.454
 1573SOL     OW 1386   2.456   0.745   2.514
 1573SOL    HW1 1387   2.506   0.830   2.495
 1573SOL    HW2 1388   2.368   0.747   2.466
 1576SOL     OW 1389   2.721   1.374   1.878
 1576SOL    HW1 1390   2.675   1.389   1.966
 1576SOL    HW2 1391   2.765   1.459   1.848
 1577SOL     OW 1392   2.523   1.790   2.815
 1577SOL    HW1 1393   2.477   1.878   2.802
 1577SOL    HW2 1394   2.622   1.802   2.808
 1578SOL     OW 1395   2.721   0.956   2.723
 1578SOL    HW1 1396   2.775   0.887   2.771
 1578SOL    HW2 1397   2.689   1.025   2.789
 1579SOL     OW 1398   2.945   0.984   1.949
 1579SOL    HW1 1399   2.922   1.037   1.867
 1579SOL    HW2 1400   3.026   0.928   1.930
 1580SOL     OW 1401   3.723   1.569   2.713
 1580SOL    HW1 1402   3.652   1.557   2.643
 1580SOL    HW2 1403   3.724   1.490   2.773
 1581SOL     OW 1404   2.083   1.314   3.706
 1581SOL    HW1 1405   2.018   1.241   3.685
 1581SOL    HW2 1406   2.087   1.328   3.804
 1582SOL     OW 1407   1.941   1.240   2.515
 1582SOL    HW1 1408   1.940   1.193   2.603
 1582SOL    HW2 1409   2.023   1.212   2.464
 1583SOL     OW 1410   2.534   1.391   3.486
 1583SOL    HW1 1411   2.456   1.341   3.524
 1583SOL    HW2 1412   2.531   1.486   3.517
 1585SOL     OW 1413   2.290   0.424   2.382
 1585SOL    HW1 1414   2.320   0.352   2.320
 1585SOL    HW2 1415   2.251   0.384   2.465
 1586SOL     OW 1416   3.567   1.487   2.966
 1586SOL    HW1 1417   3.474   1.462   2.939
 1586SOL    HW2 1418   3.593   1.437   3.048
 1588SOL     OW 1419   2.674   1.586   2.549
 1588SOL    HW1 1420   2.706   1.596   2.455
 1588SOL    HW2 1421   2.595   1.524   2.551
 1591SOL     OW 1422   2.632   1.330   2.163
 1591SOL    HW1 1423   2.586   1.243   2.180
 1591SOL    HW2 1424   2.723   1.327   2.204
 1592SOL     OW 1425   2.480   1.567   3.146
 1592SOL    HW1 1426   2.475   1.649   3.203
 1592SOL    HW2 1427   2.569   1.564   3.101
 1596SOL     OW 1428   1.901   1.077   2.162
 1596SOL    HW1 1429   2.000   1.066   2.153
 1596SOL    HW2 1430   1.861   0.991   2.194
 1597SOL     OW 1431   2.737   1.646   2.199
 1597SOL    HW1 1432   2.660   1.611   2.145
 1597SOL    HW2 1433   2.705   1.717   2.261
 1605SOL     OW 1434   1.889   1.596   3.841
 1605SOL    HW1 1435   1.870   1.500   3.862
 1605SOL    HW2 1436   1.856   1.654   3.916
 1670SOL     OW 1437   2.087   2.137   0.996
 1670SOL    HW1 1438   2.122   2.120   1.088
 1670SOL    HW2 1439   1.999   2.092   0.984
 1671SOL     OW 1440   1.881   2.230   0.647
 1671SOL    HW1 1441   1.799   2.273   0.686
 1671SOL    HW2 1442   1.853   2.157   0.584
 1672SOL     OW 1443   2.431   3.137   1.165
 1672SOL    HW1 1444   2.338   3.130   1.128
 1672SOL    HW2 1445   2.442   3.226   1.209
 1674SOL     OW 1446   2.997   2.565   0.717
 1674SOL    HW1 1447   3.054   2.643   0.692
 1674SOL    HW2 1448   2.937   2.591   0.793
 1676SOL     OW 1449   2.630   3.006   1.023
 1676SOL    HW1 1450   2.552   3.023   1.083
 1676SOL    HW2 1451   2.664   3.093   0.987
 1677SOL     OW 1452   2.712   2.660   1.823
 1677SOL    HW1 1453   2.708   2.736   1.888
 1677SOL    HW2 1454   2.734   2.696   1.732
 1678SOL     OW 1455   2.547   2.874   0.665
 1678SOL    HW1 1456   2.616   2.858   0.735
 1678SOL    HW2 1457   2.474   2.931   0.703
 1679SOL     OW 1458   2.548   3.023   1.803
 1679SOL    HW1 1459   2.608   3.102   1.817
 1679SOL    HW2 1460   2.462   3.054   1.762
 1680SOL     OW 1461   2.197   3.297   1.061
 1680SOL    HW1 1462   2.119   3.266   1.008
 1680SOL    HW2 1463   2.255   3.355   1.004
 1682SOL     OW 1464   2.300   2.254   1.499
 1682SOL    HW1 1465   2.382   2.198   1.508
 1682SOL    HW2 1466   2.219   2.196   1.503
 1685SOL     OW 1467   2.989   3.203   1.690
 1685SOL    HW1 1468   3.036   3.203   1.778
 1685SOL    HW2 1469   2.941   3.116   1.679
 1687SOL     OW 1470   2.102   2.953   0.886
 1687SOL    HW1 1471   2.116   2.869   0.938
 1687SOL    HW2 1472   2.047   3.017   0.941
 1688SOL     OW 1473   2.482   3.648   1.439
 1688SOL    HW1 1474   2.390   3.631   1.474
 1688SOL    HW2 1475   2.510   3.740   1.465
 1690SOL     OW 1476   3.456   1.976   1.480
 1690SOL    HW1 1477   3.438   2.043   1.408
 1690SOL    HW2 1478   3.453   2.022   1.569
 1691SOL     OW 1479   1.984   2.505   0.563
 1691SOL    HW1 1480   1.939   2.417   0.580
 1691SOL    HW2 1481   1.983   2.559   0.647
 1696SOL     OW 1482   1.975   2.599   1.597
 1696SOL    HW1 1483   2.063   2.586   1.642
 1696SOL    HW2 1484   1.962   2.696   1.575
 1698SOL     OW 1485   3.155   3.090   1.423
 1698SOL    HW1 1486   3.192   3.017   1.365
 1698SOL    HW2 1487   3.207   3.095   1.508
 1699SOL     OW 1488   2.671   1.866   0.502
 1699SOL    HW1 1489   2.711   1.957   0.493
 1699SOL    HW2 1490   2.571   1.874   0.508
 1700SOL     OW 1491   2.059   2.838   1.264
 1700SOL    HW1 1492   2.148   2.793   1.250
 1700SOL    HW2 1493   1.986   2.773   1.245
 1702SOL     OW 1494   3.049   3.654   1.616
 1702SOL    HW1 1495   3.073   3.714   1.540
 1702SOL    HW2 1496   3.056   3.559   1.586
 1703SOL     OW 1497   2.179   2.113   1.801
 1703SOL    HW1 1498   2.250   2.184   1.807
 1703SOL    HW2 1499   2.091   2.152   1.829
 1707SOL     OW 1500   3.143   2.207   0.944
 1707SOL    HW1 1501   3.057   2.157   0.931
 1707SOL    HW2 1502   3.205   2.153   1.000
 1709SOL     OW 1503   2.669   2.467   1.465
 1709SOL    HW1 1504   2.622   2.464   1.554
 1709SOL    HW2 1505   2.618   2.412   1.399
 1710SOL     OW 1506   3.256   2.331   1.674
 1710SOL    HW1 1507   3.236   2.374   1.762
 1710SOL    HW2 1508   3.334   2.269   1.683
 1711SOL     OW 1509   2.835   2.752   1.572
 1711SOL    HW1 1510   2.881   2.668   1.543
 1711SOL    HW2 1511   2.779   2.786   1.497
 1712SOL     OW 1512   2.853   2.272   1.242
 1712SOL    HW1 1513   2.776   2.306   1.296
 1712SOL    HW2 1514   2.819   2.221   1.163
 1714SOL     OW 1515   1.938   2.673   0.789
 1714SOL    HW1 1516   2.037   2.661   0.798
 1714SOL    HW2 1517   1.914   2.768   0.810
 1715SOL     OW 1518   1.992   3.683   1.571
 1715SOL    HW1 1519   1.982   3.668   1.670
 1715SOL    HW2 1520   1.906   3.719   1.535
 1717SOL     OW 1521   3.581   2.447   1.831
 1717SOL    HW1 1522   3.555   2.536   1.795
 1717SOL    HW2 1523   3.579   2.379   1.758
 1719SOL     OW 1524   2.412   2.058   0.885
 1719SOL    HW1 1525   2.407   2.053   0.985
 1719SOL    HW2 1526   2.414   2.154   0.856
 1723SOL     OW 1527   3.089   3.412   1.506
 1723SOL    HW1 1528   3.095   3.335   1.570
 1723SOL    HW2 1529   3.037   3.386   1.426
 1726SOL     OW 1530   2.323   3.128   1.727
 1726SOL    HW1 1531   2.273   3.129   1.641
 1726SOL    HW2 1532   2.260   3.110   1.803
 1728SOL     OW 1533   2.064   2.147   1.498
 1728SOL    HW1 1534   1.984   2.207   1.485
 1728SOL    HW2 1535   2.054   2.098   1.584
 1732SOL     OW 1536   2.111   3.647   1.241
 1732SOL    HW1 1537   2.168   3.582   1.291
 1732SOL    HW2 1538   2.095   3.614   1.148
 1734SOL     OW 1539   2.244   2.562   0.480
 1734SOL    HW1 1540   2.289   2.472   0.477
 1734SOL    HW2 1541   2.150   2.551   0.513
 1735SOL     OW 1542   3.409   2.084   1.729
 1735SOL    HW1 1543   3.404   2.121   1.821
 1735SOL    HW2 1544   3.337   2.015   1.717
 1737SOL     OW 1545   2.643   2.126   1.749
 1737SOL    HW1 1546   2.710   2.065   1.792
 1737SOL    HW2 1547   2.570   2.145   1.814
 1738SOL     OW 1548   2.750   3.376   1.195
 1738SOL    HW1 1549   2.727   3.351   1.101
 1738SOL    HW2 1550   2.811   3.307   1.234
 1739SOL     OW 1551   3.213   2.452   1.433
 1739SOL    HW1 1552   3.241   2.409   1.518
 1739SOL    HW2 1553   3.238   2.548   1.434
 1740SOL     OW 1554   2.665   3.264   0.924
 1740SOL    HW1 1555   2.755   3.278   0.882
 1740SOL    HW2 1556   2.594   3.266   0.853
 1741SOL     OW 1557   2.784   2.365   0.899
 1741SOL    HW1 1558   2.759   2.356   0.803
 1741SOL    HW2 1559   2.832   2.283   0.930
 1742SOL     OW 1560   2.401   1.926   0.512
 1742SOL    HW1 1561   2.320   1.927   0.570
 1742SOL    HW2 1562   2.404   2.009   0.457
 1746SOL     OW 1563   2.938   2.545   1.464
 1746SOL    HW1 1564   2.858   2.484   1.467
 1746SOL    HW2 1565   3.019   2.492   1.440
 1748SOL     OW 1566   2.321   3.014   0.741
 1748SOL    HW1 1567   2.250   2.987   0.806
 1748SOL    HW2 1568   2.295   2.986   0.648
 1751SOL     OW 1569   1.940   2.418   1.386
 1751SOL    HW1 1570   2.032   2.417   1.345
 1751SOL    HW2 1571   1.934   2.492   1.453
 1752SOL     OW 1572   2.423   2.084   1.147
 1752SOL    HW1 1573   2.461   2.000   1.184
 1752SOL    HW2 1574   2.335   2.103   1.191
 1753SOL     OW 1575   2.728   2.316   0.642
 1753SOL    HW1 1576   2.696   2.388   0.580
 1753SOL    HW2 1577   2.752   2.235   0.589
 1754SOL     OW 1578   2.879   1.901   0.753
 1754SOL    HW1 1579   2.807   1.906   0.684
 1754SOL    HW2 1580   2.855   1.832   0.822
 1756SOL     OW 1581   3.328   2.452   0.992
 1756SOL    HW1 1582   3.298   2.357   0.999
 1756SOL    HW2 1583   3.401   2.468   1.058
 1762SOL     OW 1584   3.616   3.085   1.588
 1762SOL    HW1 1585   3.707   3.046   1.575
 1762SOL    HW2 1586   3.624   3.181   1.612
 1763SOL     OW 1587   2.926   3.209   1.340
 1763SOL    HW1 1588   2.846   3.186   1.395
 1763SOL    HW2 1589   3.009   3.183   1.389
 1765SOL     OW 1590   2.973   3.057   1.100
 1765SOL    HW1 1591   2.933   3.101   1.181
 1765SOL    HW2 1592   2.932   3.094   1.017
 1767SOL     OW 1593   2.777   1.951   1.402
 1767SOL    HW1 1594   2.802   1.931   1.307
 1767SOL    HW2 1595   2.849   2.007   1.444
 1768SOL     OW 1596   2.842   2.978   1.719
 1768SOL    HW1 1597   2.743   2.984   1.729
 1768SOL    HW2 1598   2.865   2.898   1.663
 1770SOL     OW 1599   2.272   2.675   1.251
 1770SOL    HW1 1600   2.358   2.687   1.301
 1770SOL    HW2 1601   2.230   2.588   1.278
 1771SOL     OW 1602   3.136   2.248   1.262
 1771SOL    HW1 1603   3.157   2.322   1.326
 1771SOL    HW2 1604   3.047   2.265   1.219
 1772SOL     OW 1605   1.926   3.426   1.331
 1772SOL    HW1 1606   1.880   3.508   1.297
 1772SOL    HW2 1607   2.024   3.445   1.340
 1774SOL     OW 1608   2.428   2.399   0.865
 1774SOL    HW1 1609   2.440   2.465   0.791
 1774SOL    HW2 1610   2.474   2.433   0.948
 1776SOL     OW 1611   3.134   3.307   1.142
 1776SOL    HW1 1612   3.181   3.320   1.229
 1776SOL    HW2 1613   3.068   3.233   1.151
 1778SOL     OW 1614   2.216   3.372   1.329
 1778SOL    HW1 1615   2.195   3.328   1.242
 1778SOL    HW2 1616   2.313   3.398   1.332
 1779SOL     OW 1617   2.264   2.613   1.598
 1779SOL    HW1 1618   2.332   2.668   1.551
 1779SOL    HW2 1619   2.304   2.525   1.625
 1780SOL     OW 1620   3.449   2.641   1.670
 1780SOL    HW1 1621   3.357   2.679   1.665
 1780SOL    HW2 1622   3.509   2.688   1.605
 1781SOL     OW 1623   2.875   1.967   1.770
 1781SOL    HW1 1624   2.881   2.052   1.718
 1781SOL    HW2 1625   2.907   1.891   1.713
 1782SOL     OW 1626   2.366   1.912   1.740
 1782SOL    HW1 1627   2.324   1.855   1.670
 1782SOL    HW2 1628   2.300   1.981   1.772
 1783SOL     OW 1629   2.435   2.732   1.029
 1783SOL    HW1 1630   2.479   2.821   1.020
 1783SOL    HW2 1631   2.372   2.732   1.106
 1784SOL     OW 1632   3.222   2.724   1.045
 1784SOL    HW1 1633   3.147   2.724   0.979
 1784SOL    HW2 1634   3.259   2.632   1.054
 1786SOL     OW 1635   2.169   2.075   1.231
 1786SOL    HW1 1636   2.146   2.112   1.321
 1786SOL    HW2 1637   2.139   1.980   1.225
 1787SOL     OW 1638   1.899   3.172   1.282
 1787SOL    HW1 1639   1.952   3.123   1.350
 1787SOL    HW2 1640   1.921   3.270   1.287
 1788SOL     OW 1641   2.594   2.496   1.064
 1788SOL    HW1 1642   2.653   2.470   0.988
 1788SOL    HW2 1643   2.566   2.592   1.053
 1789SOL     OW 1644   3.590   2.797   1.854
 1789SOL    HW1 1645   3.544   2.790   1.765
 1789SOL    HW2 1646   3.528   2.841   1.920
 1790SOL     OW 1647   2.169   1.925   0.618
 1790SOL    HW1 1648   2.158   2.019   0.651
 1790SOL    HW2 1649   2.164   1.862   0.695
 1792SOL     OW 1650   2.885   2.628   0.966
 1792SOL    HW1 1651   2.900   2.649   1.062
 1792SOL    HW2 1652   2.855   2.533   0.957
 1793SOL     OW 1653   2.842   3.435   1.700
 1793SOL    HW1 1654   2.822   3.479   1.612
 1793SOL    HW2 1655   2.881   3.344   1.684
 1795SOL     OW 1656   2.212   2.760   1.804
 1795SOL    HW1 1657   2.288   2.804   1.852
 1795SOL    HW2 1658   2.247   2.713   1.722
 1799SOL     OW 1659   2.181   2.672   0.949
 1799SOL    HW1 1660   2.274   2.708   0.954
 1799SOL    HW2 1661   2.175   2.587   1.001
 1800SOL     OW 1662   2.201   2.371   1.006
 1800SOL    HW1 1663   2.149   2.288   0.989
 1800SOL    HW2 1664   2.278   2.376   0.942
 1801SOL     OW 1665   3.000   2.242   1.678
 1801SOL    HW1 1666   2.955   2.305   1.742
 1801SOL    HW2 1667   3.093   2.273   1.661
 1802SOL     OW 1668   3.022   2.069   1.477
 1802SOL    HW1 1669   3.022   2.133   1.554
 1802SOL    HW2 1670   3.050   2.117   1.394
 1805SOL     OW 1671   2.366   3.430   0.910
 1805SOL    HW1 1672   2.432   3.504   0.919
 1805SOL    HW2 1673   2.410   3.351   0.868
 1806SOL     OW 1674   2.864   2.658   1.238
 1806SOL    HW1 1675   2.905   2.626   1.324
 1806SOL    HW2 1676   2.768   2.631   1.235
 1807SOL     OW 1677   1.902   2.406   1.114
 1807SOL    HW1 1678   1.987   2.373   1.073
 1807SOL    HW2 1679   1.915   2.421   1.212
 1808SOL     OW 1680   2.051   2.382   1.722
 1808SOL    HW1 1681   2.110   2.342   1.652
 1808SOL    HW2 1682   1.993   2.453   1.681
 1809SOL     OW 1683   3.231   2.812   1.660
 1809SOL    HW1 1684   3.270   2.901   1.680
 1809SOL    HW2 1685   3.241   2.792   1.563
 1811SOL     OW 1686   3.519   2.466   1.206
 1811SOL    HW1 1687   3.481   2.397   1.268
 1811SOL    HW2 1688   3.601   2.430   1.162
 1812SOL     OW 1689   2.114   3.426   1.744
 1812SOL    HW1 1690   2.084   3.483   1.820
 1812SOL    HW2 1691   2.107   3.329   1.770
 1813SOL     OW 1692   2.533   2.326   1.269
 1813SOL    HW1 1693   2.499   2.237   1.239
 1813SOL    HW2 1694   2.559   2.380   1.189
 1814SOL     OW 1695   2.792   3.540   1.465
 1814SOL    HW1 1696   2.768   3.522   1.370
 1814SOL    HW2 1697   2.822   3.634   1.475
 1816SOL     OW 1698   2.021   2.999   1.466
 1816SOL    HW1 1699   2.043   2.938   1.542
 1816SOL    HW2 1700   2.031   2.950   1.380
 1817SOL     OW 1701   3.209   2.921   1.234
 1817SOL    HW1 1702   3.233   2.858   1.160
 1817SOL    HW2 1703   3.119   2.961   1.216
 1821SOL     OW 1704   1.945   3.120   1.022
 1821SOL    HW1 1705   1.940   3.119   1.122
 1821SOL    HW2 1706   1.862   3.079   0.984
 1822SOL     OW 1707   2.550   3.524   1.716
 1822SOL    HW1 1708   2.494   3.605   1.725
 1822SOL    HW2 1709   2.602   3.528   1.630
 1826SOL     OW 1710   1.992   3.656   1.851
 1826SOL    HW1 1711   1.951   3.582   1.904
 1826SOL    HW2 1712   2.056   3.707   1.909
 1828SOL     OW 1713   2.692   3.135   1.422
 1828SOL    HW1 1714   2.687   3.168   1.517
 1828SOL    HW2 1715   2.606   3.154   1.376
 1832SOL     OW 1716   2.125   2.188   0.720
 1832SOL    HW1 1717   2.046   2.239   0.686
 1832SOL    HW2 1718   2.116   2.173   0.818
 1834SOL     OW 1719   2.684   2.864   1.372
 1834SOL    HW1 1720   2.724   2.863   1.280
 1834SOL    HW2 1721   2.694   2.956   1.412
 1837SOL     OW 1722   2.234   3.150   1.490
 1837SOL    HW1 1723   2.221   3.243   1.456
 1837SOL    HW2 1724   2.150   3.098   1.477
 1840SOL     OW 1725   2.876   2.098   0.971
 1840SOL    HW1 1726   2.868   2.062   0.878
 1840SOL    HW2 1727   2.874   2.022   1.036
 1842SOL     OW 1728   3.571   2.247   1.381
 1842SOL    HW1 1729   3.644   2.316   1.385
 1842SOL    HW2 1730   3.599   2.172   1.322
 1844SOL     OW 1731   1.967   2.875   1.726
 1844SOL    HW1 1732   1.890   2.842   1.780
 1844SOL    HW2 1733   2.052   2.845   1.768
 1845SOL     OW 1734   2.534   2.065   1.489
 1845SOL    HW1 1735   2.624   2.049   1.449
 1845SOL    HW2 1736   2.542   2.070   1.588
 1847SOL     OW 1737   3.302   2.718   1.398
 1847SOL    HW1 1738   3.245   2.770   1.335
 1847SOL    HW2 1739   3.398   2.730   1.374
 1850SOL     OW 1740   2.475   2.704   1.431
 1850SOL    HW1 1741   2.531   2.785   1.414
 1850SOL    HW2 1742   2.534   2.624   1.434
 1852SOL     OW 1743   2.578   2.427   1.708
 1852SOL    HW1 1744   2.597   2.492   1.782
 1852SOL    HW2 1745   2.638   2.347   1.717
 1853SOL     OW 1746   3.312   3.082   1.633
 1853SOL    HW1 1747   3.303   3.072   1.732
 1853SOL    HW2 1748   3.408   3.075   1.607
 1854SOL     OW 1749   2.252   3.603   1.560
 1854SOL    HW1 1750   2.161   3.644   1.558
 1854SOL    HW2 1751   2.245   3.509   1.592
 1855SOL     OW 1752   3.536   2.745   1.254
 1855SOL    HW1 1753   3.509   2.656   1.217
 1855SOL    HW2 1754   3.537   2.813   1.181
 1857SOL     OW 1755   2.456   2.607   0.652
 1857SOL    HW1 1756   2.506   2.692   0.633
 1857SOL    HW2 1757   2.368   2.609   0.604
 1858SOL     OW 1758   3.639   2.204   1.642
 1858SOL    HW1 1759   3.622   2.235   1.548
 1858SOL    HW2 1760   3.555   2.167   1.680
 1859SOL     OW 1761   3.592   2.796   1.517
 1859SOL    HW1 1762   3.630   2.887   1.532
 1859SOL    HW2 1763   3.584   2.779   1.418
 1862SOL     OW 1764   2.721   2.818   0.861
 1862SOL    HW1 1765   2.775   2.749   0.909
 1862SOL    HW2 1766   2.689   2.887   0.927
 1865SOL     OW 1767   2.083   3.176   1.844
 1865SOL    HW1 1768   2.018   3.103   1.823
 1865SOL    HW2 1769   2.087   3.190   1.942
 1867SOL     OW 1770   2.534   3.253   1.624
 1867SOL    HW1 1771   2.456   3.203   1.662
 1867SOL    HW2 1772   2.531   3.348   1.655
 1868SOL     OW 1773   3.686   2.054   1.227
 1868SOL    HW1 1774   3.682   1.964   1.271
 1868SOL    HW2 1775   3.689   2.043   1.128
 1869SOL     OW 1776   2.290   2.286   0.520
 1869SOL    HW1 1777   2.320   2.214   0.458
 1869SOL    HW2 1778   2.251   2.246   0.603
 1871SOL     OW 1779   2.179   2.409   1.280
 1871SOL    HW1 1780   2.217   2.350   1.352
 1871SOL    HW2 1781   2.219   2.383   1.192
 1873SOL     OW 1782   3.286   2.076   1.112
 1873SOL    HW1 1783   3.338   2.011   1.167
 1873SOL    HW2 1784   3.237   2.139   1.173
 1874SOL     OW 1785   2.863   1.896   1.154
 1874SOL    HW1 1786   2.800   1.824   1.123
 1874SOL    HW2 1787   2.956   1.860   1.154
 1876SOL     OW 1788   2.480   3.429   1.284
 1876SOL    HW1 1789   2.475   3.511   1.341
 1876SOL    HW2 1790   2.569   3.426   1.239
 1878SOL     OW 1791   3.162   2.315   0.691
 1878SOL    HW1 1792   3.103   2.395   0.695
 1878SOL    HW2 1793   3.177   2.280   0.784
 1882SOL     OW 1794   2.092   2.490   1.975
 1882SOL    HW1 1795   1.999   2.488   2.012
 1882SOL    HW2 1796   2.093   2.451   1.883
 1883SOL     OW 1797   2.087   2.137   2.858
 1883SOL    HW1 1798   2.122   2.120   2.950
 1883SOL    HW2 1799   1.999   2.092   2.846
 1884SOL     OW 1800   1.881   2.230   2.509
 1884SOL    HW1 1801   1.799   2.273   2.548
 1884SOL    HW2 1802   1.853   2.157   2.446
 1885SOL     OW 1803   2.431   3.137   3.027
 1885SOL    HW1 1804   2.338   3.130   2.990
 1885SOL    HW2 1805   2.442   3.226   3.071
 1886SOL     OW 1806   3.417   3.373   2.565
 1886SOL    HW1 1807   3.360   3.357   2.646
 1886SOL    HW2 1808   3.358   3.383   2.485
 1887SOL     OW 1809   2.997   2.565   2.579
 1887SOL    HW1 1810   3.054   2.643   2.554
 1887SOL    HW2 1811   2.937   2.591   2.655
 1888SOL     OW 1812   3.617   2.469   2.093
 1888SOL    HW1 1813   3.605   2.456   1.994
 1888SOL    HW2 1814   3.587   2.388   2.142
 1889SOL     OW 1815   2.630   3.006   2.885
 1889SOL    HW1 1816   2.552   3.023   2.945
 1889SOL    HW2 1817   2.664   3.093   2.849
 1890SOL     OW 1818   2.712   2.660   3.685
 1890SOL    HW1 1819   2.708   2.736   3.750
 1890SOL    HW2 1820   2.734   2.696   3.594
 1891SOL     OW 1821   2.547   2.874   2.527
 1891SOL    HW1 1822   2.616   2.858   2.597
 1891SOL    HW2 1823   2.474   2.931   2.565
 1892SOL     OW 1824   2.548   3.023   3.665
 1892SOL    HW1 1825   2.608   3.102   3.679
 1892SOL    HW2 1826   2.462   3.054   3.624
 1893SOL     OW 1827   2.197   3.297   2.923
 1893SOL    HW1 1828   2.119   3.266   2.870
 1893SOL    HW2 1829   2.255   3.355   2.866
 1895SOL     OW 1830   2.300   2.254   3.361
 1895SOL    HW1 1831   2.382   2.198   3.370
 1895SOL    HW2 1832   2.219   2.196   3.365
 1896SOL     OW 1833   3.465   2.309   2.599
 1896SOL    HW1 1834   3.391   2.355   2.549
 1896SOL    HW2 1835   3.516   2.377   2.652
 1897SOL     OW 1836   2.093   3.575   2.345
 1897SOL    HW1 1837   2.127   3.652   2.399
 1897SOL    HW2 1838   2.137   3.575   2.255
 1899SOL     OW 1839   2.092   3.296   2.400
 1899SOL    HW1 1840   2.066   3.392   2.400
 1899SOL    HW2 1841   2.021   3.242   2.445
 1900SOL     OW 1842   2.102   2.953   2.748
 1900SOL    HW1 1843   2.116   2.869   2.800
 1900SOL    HW2 1844   2.047   3.017   2.803
 1902SOL     OW 1845   2.468   2.826   1.985
 1902SOL    HW1 1846   2.475   2.910   1.931
 1902SOL    HW2 1847   2.514   2.839   2.073
 1903SOL     OW 1848   3.456   1.976   3.342
 1903SOL    HW1 1849   3.438   2.043   3.270
 1903SOL    HW2 1850   3.453   2.022   3.431
 1904SOL     OW 1851   1.984   2.505   2.425
 1904SOL    HW1 1852   1.939   2.417   2.442
 1904SOL    HW2 1853   1.983   2.559   2.509
 1906SOL     OW 1854   1.889   3.458   1.979
 1906SOL    HW1 1855   1.870   3.362   2.000
 1906SOL    HW2 1856   1.856   3.516   2.054
 1907SOL     OW 1857   3.551   2.784   2.474
 1907SOL    HW1 1858   3.646   2.755   2.482
 1907SOL    HW2 1859   3.543   2.849   2.399
 1908SOL     OW 1860   3.503   2.970   2.294
 1908SOL    HW1 1861   3.589   2.972   2.242
 1908SOL    HW2 1862   3.517   3.017   2.382
 1909SOL     OW 1863   1.975   2.599   3.459
 1909SOL    HW1 1864   2.063   2.586   3.504
 1909SOL    HW2 1865   1.962   2.696   3.437
 1910SOL     OW 1866   2.475   3.227   2.588
 1910SOL    HW1 1867   2.426   3.140   2.597
 1910SOL    HW2 1868   2.452   3.270   2.501
 1911SOL     OW 1869   3.155   3.090   3.285
 1911SOL    HW1 1870   3.192   3.017   3.227
 1911SOL    HW2 1871   3.207   3.095   3.370
 1912SOL     OW 1872   2.671   1.866   2.364
 1912SOL    HW1 1873   2.711   1.957   2.355
 1912SOL    HW2 1874   2.571   1.874   2.370
 1913SOL     OW 1875   2.059   2.838   3.126
 1913SOL    HW1 1876   2.148   2.793   3.112
 1913SOL    HW2 1877   1.986   2.773   3.107
 1914SOL     OW 1878   3.387   2.861   2.052
 1914SOL    HW1 1879   3.324   2.785   2.065
 1914SOL    HW2 1880   3.435   2.879   2.138
 1916SOL     OW 1881   2.179   2.113   3.663
 1916SOL    HW1 1882   2.250   2.184   3.669
 1916SOL    HW2 1883   2.091   2.152   3.691
 1917SOL     OW 1884   3.328   3.279   2.815
 1917SOL    HW1 1885   3.269   3.285   2.895
 1917SOL    HW2 1886   3.313   3.191   2.769
 1919SOL     OW 1887   2.460   2.591   2.132
 1919SOL    HW1 1888   2.484   2.660   2.064
 1919SOL    HW2 1889   2.382   2.624   2.186
 1920SOL     OW 1890   3.143   2.207   2.806
 1920SOL    HW1 1891   3.057   2.157   2.793
 1920SOL    HW2 1892   3.205   2.153   2.862
 1922SOL     OW 1893   2.669   2.467   3.327
 1922SOL    HW1 1894   2.622   2.464   3.416
 1922SOL    HW2 1895   2.618   2.412   3.261
 1923SOL     OW 1896   3.256   2.331   3.536
 1923SOL    HW1 1897   3.236   2.374   3.624
 1923SOL    HW2 1898   3.334   2.269   3.545
 1924SOL     OW 1899   2.835   2.752   3.434
 1924SOL    HW1 1900   2.881   2.668   3.405
 1924SOL    HW2 1901   2.779   2.786   3.359
 1925SOL     OW 1902   2.853   2.272   3.104
 1925SOL    HW1 1903   2.776   2.306   3.158
 1925SOL    HW2 1904   2.819   2.221   3.025
 1926SOL     OW 1905   2.903   2.563   2.291
 1926SOL    HW1 1906   2.929   2.559   2.387
 1926SOL    HW2 1907   2.818   2.512   2.277
 1927SOL     OW 1908   1.938   2.673   2.651
 1927SOL    HW1 1909   2.037   2.661   2.660
 1927SOL    HW2 1910   1.914   2.768   2.672
 1929SOL     OW 1911   2.727   2.210   2.057
 1929SOL    HW1 1912   2.786   2.273   2.008
 1929SOL    HW2 1913   2.746   2.116   2.028
 1931SOL     OW 1914   3.224   3.006   2.407
 1931SOL    HW1 1915   3.307   2.977   2.359
 1931SOL    HW2 1916   3.175   3.073   2.351
 1932SOL     OW 1917   2.412   2.058   2.747
 1932SOL    HW1 1918   2.407   2.053   2.847
 1932SOL    HW2 1919   2.414   2.154   2.718
 1933SOL     OW 1920   2.870   3.318   2.339
 1933SOL    HW1 1921   2.824   3.390   2.287
 1933SOL    HW2 1922   2.866   3.338   2.437
 1934SOL     OW 1923   2.213   3.663   2.715
 1934SOL    HW1 1924   2.263   3.577   2.721
 1934SOL    HW2 1925   2.278   3.740   2.712
 1935SOL     OW 1926   3.657   2.928   2.735
 1935SOL    HW1 1927   3.595   2.913   2.659
 1935SOL    HW2 1928   3.605   2.939   2.820
 1937SOL     OW 1929   2.183   2.805   2.104
 1937SOL    HW1 1930   2.265   2.844   2.062
 1937SOL    HW2 1931   2.156   2.723   2.055
 1938SOL     OW 1932   3.320   2.597   2.590
 1938SOL    HW1 1933   3.315   2.532   2.665
 1938SOL    HW2 1934   3.400   2.656   2.603
 1939SOL     OW 1935   2.323   3.128   3.589
 1939SOL    HW1 1936   2.273   3.129   3.503
 1939SOL    HW2 1937   2.260   3.110   3.665
 1940SOL     OW 1938   2.973   3.638   2.099
 1940SOL    HW1 1939   2.913   3.576   2.149
 1940SOL    HW2 1940   3.004   3.594   2.014
 1941SOL     OW 1941   2.064   2.147   3.360
 1941SOL    HW1 1942   1.984   2.207   3.347
 1941SOL    HW2 1943   2.054   2.098   3.446
 1942SOL     OW 1944   3.494   3.239   1.943
 1942SOL    HW1 1945   3.462   3.333   1.933
 1942SOL    HW2 1946   3.418   3.176   1.931
 1943SOL     OW 1947   2.326   3.605   2.185
 1943SOL    HW1 1948   2.359   3.644   2.271
 1943SOL    HW2 1949   2.402   3.598   2.120
 1944SOL     OW 1950   3.262   1.969   2.288
 1944SOL    HW1 1951   3.238   1.932   2.198
 1944SOL    HW2 1952   3.361   1.985   2.292
 1945SOL     OW 1953   2.111   3.647   3.103
 1945SOL    HW1 1954   2.168   3.582   3.153
 1945SOL    HW2 1955   2.095   3.614   3.010
 1946SOL     OW 1956   2.802   3.560   2.766
 1946SOL    HW1 1957   2.882   3.503   2.787
 1946SOL    HW2 1958   2.753   3.520   2.689
 1947SOL     OW 1959   2.244   2.562   2.342
 1947SOL    HW1 1960   2.289   2.472   2.339
 1947SOL    HW2 1961   2.150   2.551   2.375
 1949SOL     OW 1962   2.476   1.984   1.979
 1949SOL    HW1 1963   2.574   1.962   1.986
 1949SOL    HW2 1964   2.445   1.967   1.886
 1950SOL     OW 1965   2.643   2.126   3.611
 1950SOL    HW1 1966   2.710   2.065   3.654
 1950SOL    HW2 1967   2.570   2.145   3.676
 1951SOL     OW 1968   2.750   3.376   3.057
 1951SOL    HW1 1969   2.727   3.351   2.963
 1951SOL    HW2 1970   2.811   3.307   3.096
 1952SOL     OW 1971   3.213   2.452   3.295
 1952SOL    HW1 1972   3.241   2.409   3.380
 1952SOL    HW2 1973   3.238   2.548   3.296
 1953SOL     OW 1974   2.665   3.264   2.786
 1953SOL    HW1 1975   2.755   3.278   2.744
 1953SOL    HW2 1976   2.594   3.266   2.715
 1954SOL     OW 1977   2.784   2.365   2.761
 1954SOL    HW1 1978   2.759   2.356   2.665
 1954SOL    HW2 1979   2.832   2.283   2.792
 1955SOL     OW 1980   3.296   3.050   1.903
 1955SOL    HW1 1981   3.328   2.974   1.960
 1955SOL    HW2 1982   3.204   3.077   1.933
 1956SOL     OW 1983   2.159   1.897   2.033
 1956SOL    HW1 1984   2.208   1.981   2.012
 1956SOL    HW2 1985   2.221   1.832   2.078
 1957SOL     OW 1986   2.797   2.098   2.342
 1957SOL    HW1 1987   2.749   2.139   2.264
 1957SOL    HW2 1988   2.896   2.096   2.323
 1958SOL     OW 1989   2.938   2.545   3.326
 1958SOL    HW1 1990   2.858   2.484   3.329
 1958SOL    HW2 1991   3.019   2.492   3.302
 1959SOL     OW 1992   3.089   3.432   2.655
 1959SOL    HW1 1993   3.110   3.506   2.590
 1959SOL    HW2 1994   3.157   3.432   2.728
 1960SOL     OW 1995   2.321   3.014   2.603
 1960SOL    HW1 1996   2.250   2.987   2.668
 1960SOL    HW2 1997   2.295   2.986   2.510
 1961SOL     OW 1998   3.133   3.659   2.453
 1961SOL    HW1 1999   3.177   3.723   2.389
 1961SOL    HW2 2000   3.083   3.711   2.523
 1962SOL     OW 2001   2.894   2.411   1.878
 1962SOL    HW1 2002   2.853   2.493   1.839
 1962SOL    HW2 2003   2.958   2.437   1.951
 1963SOL     OW 2004   1.940   2.418   3.248
 1963SOL    HW1 2005   2.032   2.417   3.207
 1963SOL    HW2 2006   1.934   2.492   3.315
 1964SOL     OW 2007   2.423   2.084   3.009
 1964SOL    HW1 2008   2.461   2.000   3.046
 1964SOL    HW2 2009   2.335   2.103   3.053
 1965SOL     OW 2010   2.728   2.316   2.504
 1965SOL    HW1 2011   2.696   2.388   2.442
 1965SOL    HW2 2012   2.752   2.235   2.451
 1966SOL     OW 2013   2.879   1.901   2.615
 1966SOL    HW1 2014   2.807   1.906   2.546
 1966SOL    HW2 2015   2.855   1.832   2.684
 1967SOL     OW 2016   3.291   3.035   2.729
 1967SOL    HW1 2017   3.236   2.951   2.722
 1967SOL    HW2 2018   3.317   3.064   2.637
 1968SOL     OW 2019   3.328   2.452   2.854
 1968SOL    HW1 2020   3.298   2.357   2.861
 1968SOL    HW2 2021   3.401   2.468   2.920
 1969SOL     OW 2022   3.719   2.695   2.239
 1969SOL    HW1 2023   3.761   2.631   2.303
 1969SOL    HW2 2024   3.681   2.644   2.161
 1970SOL     OW 2025   2.350   3.247   2.036
 1970SOL    HW1 2026   2.263   3.232   2.083
 1970SOL    HW2 2027   2.333   3.273   1.941
 1971SOL     OW 2028   3.526   3.142   2.519
 1971SOL    HW1 2029   3.625   3.150   2.533
 1971SOL    HW2 2030   3.481   3.226   2.550
 1972SOL     OW 2031   3.252   2.437   1.940
 1972SOL    HW1 2032   3.198   2.416   2.021
 1972SOL    HW2 2033   3.343   2.396   1.949
 1974SOL     OW 2034   2.926   3.209   3.202
 1974SOL    HW1 2035   2.846   3.186   3.257
 1974SOL    HW2 2036   3.009   3.183   3.251
 1976SOL     OW 2037   2.973   3.057   2.962
 1976SOL    HW1 2038   2.933   3.101   3.043
 1976SOL    HW2 2039   2.932   3.094   2.879
 1977SOL     OW 2040   3.500   2.961   2.941
 1977SOL    HW1 2041   3.505   3.042   3.000
 1977SOL    HW2 2042   3.414   2.963   2.890
 1978SOL     OW 2043   2.777   1.951   3.264
 1978SOL    HW1 2044   2.802   1.931   3.169
 1978SOL    HW2 2045   2.849   2.007   3.306
 1979SOL     OW 2046   2.842   2.978   3.581
 1979SOL    HW1 2047   2.743   2.984   3.591
 1979SOL    HW2 2048   2.865   2.898   3.525
 1980SOL     OW 2049   2.567   2.912   2.230
 1980SOL    HW1 2050   2.553   2.919   2.329
 1980SOL    HW2 2051   2.651   2.861   2.212
 1981SOL     OW 2052   2.272   2.675   3.113
 1981SOL    HW1 2053   2.358   2.687   3.163
 1981SOL    HW2 2054   2.230   2.588   3.140
 1982SOL     OW 2055   3.136   2.248   3.124
 1982SOL    HW1 2056   3.157   2.322   3.188
 1982SOL    HW2 2057   3.047   2.265   3.081
 1983SOL     OW 2058   1.926   3.426   3.193
 1983SOL    HW1 2059   1.880   3.508   3.159
 1983SOL    HW2 2060   2.024   3.445   3.202
 1984SOL     OW 2061   2.229   2.962   2.363
 1984SOL    HW1 2062   2.222   3.045   2.307
 1984SOL    HW2 2063   2.233   2.882   2.303
 1985SOL     OW 2064   2.428   2.399   2.727
 1985SOL    HW1 2065   2.440   2.465   2.653
 1985SOL    HW2 2066   2.474   2.433   2.810
 1986SOL     OW 2067   3.114   3.210   2.250
 1986SOL    HW1 2068   3.164   3.287   2.290
 1986SOL    HW2 2069   3.019   3.212   2.282
 1987SOL     OW 2070   3.134   3.307   3.004
 1987SOL    HW1 2071   3.181   3.320   3.091
 1987SOL    HW2 2072   3.068   3.233   3.013
 1988SOL     OW 2073   3.444   2.501   2.334
 1988SOL    HW1 2074   3.413   2.562   2.407
 1988SOL    HW2 2075   3.494   2.553   2.265
 1989SOL     OW 2076   2.216   3.372   3.191
 1989SOL    HW1 2077   2.195   3.328   3.104
 1989SOL    HW2 2078   2.313   3.398   3.194
 1990SOL     OW 2079   2.264   2.613   3.460
 1990SOL    HW1 2080   2.332   2.668   3.413
 1990SOL    HW2 2081   2.304   2.525   3.487
 1992SOL     OW 2082   2.875   1.967   3.632
 1992SOL    HW1 2083   2.881   2.052   3.580
 1992SOL    HW2 2084   2.907   1.891   3.575
 1993SOL     OW 2085   2.366   1.912   3.602
 1993SOL    HW1 2086   2.324   1.855   3.532
 1993SOL    HW2 2087   2.300   1.981   3.634
 1994SOL     OW 2088   2.435   2.732   2.891
 1994SOL    HW1 2089   2.479   2.821   2.882
 1994SOL    HW2 2090   2.372   2.732   2.968
 1995SOL     OW 2091   3.222   2.724   2.907
 1995SOL    HW1 2092   3.147   2.724   2.841
 1995SOL    HW2 2093   3.259   2.632   2.916
 1996SOL     OW 2094   3.071   2.387   2.137
 1996SOL    HW1 2095   3.084   2.303   2.191
 1996SOL    HW2 2096   3.042   2.461   2.197
 1997SOL     OW 2097   2.169   2.075   3.093
 1997SOL    HW1 2098   2.146   2.112   3.183
 1997SOL    HW2 2099   2.139   1.980   3.087
 1998SOL     OW 2100   1.899   3.172   3.144
 1998SOL    HW1 2101   1.952   3.123   3.212
 1998SOL    HW2 2102   1.921   3.270   3.149
 1999SOL     OW 2103   2.594   2.496   2.926
 1999SOL    HW1 2104   2.653   2.470   2.850
 1999SOL    HW2 2105   2.566   2.592   2.915
 2001SOL     OW 2106   2.169   1.925   2.480
 2001SOL    HW1 2107   2.158   2.019   2.513
 2001SOL    HW2 2108   2.164   1.862   2.557
 2002SOL     OW 2109   3.484   2.229   2.236
 2002SOL    HW1 2110   3.486   2.153   2.300
 2002SOL    HW2 2111   3.436   2.306   2.276
 2003SOL     OW 2112   2.885   2.628   2.828
 2003SOL    HW1 2113   2.900   2.649   2.924
 2003SOL    HW2 2114   2.855   2.533   2.819
 2006SOL     OW 2115   2.212   2.760   3.666
 2006SOL    HW1 2116   2.288   2.804   3.714
 2006SOL    HW2 2117   2.247   2.713   3.584
 2007SOL     OW 2118   3.402   2.136   1.987
 2007SOL    HW1 2119   3.341   2.061   2.010
 2007SOL    HW2 2120   3.424   2.188   2.070
 2008SOL     OW 2121   3.165   2.700   1.904
 2008SOL    HW1 2122   3.199   2.607   1.919
 2008SOL    HW2 2123   3.183   2.727   1.809
 2009SOL     OW 2124   2.930   3.195   2.711
 2009SOL    HW1 2125   2.937   3.111   2.656
 2009SOL    HW2 2126   2.992   3.264   2.675
 2010SOL     OW 2127   2.181   2.672   2.811
 2010SOL    HW1 2128   2.274   2.708   2.816
 2010SOL    HW2 2129   2.175   2.587   2.863
 2011SOL     OW 2130   2.201   2.371   2.868
 2011SOL    HW1 2131   2.149   2.288   2.851
 2011SOL    HW2 2132   2.278   2.376   2.804
 2012SOL     OW 2133   3.000   2.242   3.540
 2012SOL    HW1 2134   2.955   2.305   3.604
 2012SOL    HW2 2135   3.093   2.273   3.523
 2013SOL     OW 2136   3.022   2.069   3.339
 2013SOL    HW1 2137   3.022   2.133   3.416
 2013SOL    HW2 2138   3.050   2.117   3.256
 2014SOL     OW 2139   1.870   3.188   2.062
 2014SOL    HW1 2140   1.777   3.209   2.031
 2014SOL    HW2 2141   1.880   3.089   2.075
 2015SOL     OW 2142   1.950   3.663   2.789
 2015SOL    HW1 2143   1.908   3.577   2.762
 2015SOL    HW2 2144   2.044   3.666   2.755
 2016SOL     OW 2145   2.366   3.430   2.772
 2016SOL    HW1 2146   2.432   3.504   2.781
 2016SOL    HW2 2147   2.410   3.351   2.730
 2017SOL     OW 2148   2.864   2.658   3.100
 2017SOL    HW1 2149   2.905   2.626   3.186
 2017SOL    HW2 2150   2.768   2.631   3.097
 2018SOL     OW 2151   1.902   2.406   2.976
 2018SOL    HW1 2152   1.987   2.373   2.935
 2018SOL    HW2 2153   1.915   2.421   3.074
 2019SOL     OW 2154   2.051   2.382   3.584
 2019SOL    HW1 2155   2.110   2.342   3.514
 2019SOL    HW2 2156   1.993   2.453   3.543
 2020SOL     OW 2157   3.231   2.812   3.522
 2020SOL    HW1 2158   3.270   2.901   3.542
 2020SOL    HW2 2159   3.241   2.792   3.425
 2021SOL     OW 2160   2.677   2.434   2.187
 2021SOL    HW1 2161   2.684   2.345   2.141
 2021SOL    HW2 2162   2.583   2.468   2.179
 2022SOL     OW 2163   3.519   2.466   3.068
 2022SOL    HW1 2164   3.481   2.397   3.130
 2022SOL    HW2 2165   3.601   2.430   3.024
 2024SOL     OW 2166   2.533   2.326   3.131
 2024SOL    HW1 2167   2.499   2.237   3.101
 2024SOL    HW2 2168   2.559   2.380   3.051
 2026SOL     OW 2169   2.021   2.999   3.328
 2026SOL    HW1 2170   2.043   2.938   3.404
 2026SOL    HW2 2171   2.031   2.950   3.242
 2027SOL     OW 2172   3.209   2.921   3.096
 2027SOL    HW1 2173   3.233   2.858   3.022
 2027SOL    HW2 2174   3.119   2.961   3.078
 2028SOL     OW 2175   3.164   2.717   2.171
 2028SOL    HW1 2176   3.078   2.686   2.213
 2028SOL    HW2 2177   3.160   2.703   2.072
 2031SOL     OW 2178   1.945   3.120   2.884
 2031SOL    HW1 2179   1.940   3.119   2.984
 2031SOL    HW2 2180   1.862   3.079   2.846
 2033SOL     OW 2181   3.588   1.997   2.385
 2033SOL    HW1 2182   3.661   1.980   2.318
 2033SOL    HW2 2183   3.557   1.910   2.423
 2034SOL     OW 2184   3.250   3.435   2.339
 2034SOL    HW1 2185   3.317   3.447   2.265
 2034SOL    HW2 2186   3.210   3.524   2.362
 2036SOL     OW 2187   3.142   2.789   2.534
 2036SOL    HW1 2188   3.202   2.708   2.536
 2036SOL    HW2 2189   3.182   2.858   2.474
 2037SOL     OW 2190   2.692   3.135   3.284
 2037SOL    HW1 2191   2.687   3.168   3.379
 2037SOL    HW2 2192   2.606   3.154   3.238
 2038SOL     OW 2193   2.534   3.478   2.016
 2038SOL    HW1 2194   2.543   3.488   1.917
 2038SOL    HW2 2195   2.494   3.389   2.037
 2040SOL     OW 2196   3.703   2.037   2.825
 2040SOL    HW1 2197   3.742   1.952   2.789
 2040SOL    HW2 2198   3.605   2.039   2.806
 2041SOL     OW 2199   2.125   2.188   2.582
 2041SOL    HW1 2200   2.046   2.239   2.548
 2041SOL    HW2 2201   2.116   2.173   2.680
 2042SOL     OW 2202   3.056   3.474   1.893
 2042SOL    HW1 2203   3.062   3.381   1.930
 2042SOL    HW2 2204   2.997   3.474   1.813
 2043SOL     OW 2205   2.684   2.864   3.234
 2043SOL    HW1 2206   2.724   2.863   3.142
 2043SOL    HW2 2207   2.694   2.956   3.274
 2044SOL     OW 2208   2.778   2.772   2.153
 2044SOL    HW1 2209   2.841   2.810   2.085
 2044SOL    HW2 2210   2.818   2.689   2.192
 2045SOL     OW 2211   3.366   3.469   1.906
 2045SOL    HW1 2212   3.274   3.506   1.913
 2045SOL    HW2 2213   3.404   3.489   1.816
 2046SOL     OW 2214   2.234   3.150   3.352
 2046SOL    HW1 2215   2.221   3.243   3.318
 2046SOL    HW2 2216   2.150   3.098   3.339
 2048SOL     OW 2217   2.901   2.960   2.558
 2048SOL    HW1 2218   2.831   2.913   2.612
 2048SOL    HW2 2219   2.960   2.892   2.515
 2049SOL     OW 2220   2.876   2.098   2.833
 2049SOL    HW1 2221   2.868   2.062   2.740
 2049SOL    HW2 2222   2.874   2.022   2.898
 2050SOL     OW 2223   2.452   3.349   2.353
 2050SOL    HW1 2224   2.494   3.291   2.283
 2050SOL    HW2 2225   2.408   3.428   2.309
 2051SOL     OW 2226   3.571   2.247   3.243
 2051SOL    HW1 2227   3.644   2.316   3.247
 2051SOL    HW2 2228   3.599   2.172   3.184
 2052SOL     OW 2229   2.117   3.210   2.152
 2052SOL    HW1 2230   2.021   3.211   2.125
 2052SOL    HW2 2231   2.129   3.263   2.236
 2053SOL     OW 2232   1.967   2.875   3.588
 2053SOL    HW1 2233   1.890   2.842   3.642
 2053SOL    HW2 2234   2.052   2.845   3.630
 2054SOL     OW 2235   2.534   2.065   3.351
 2054SOL    HW1 2236   2.624   2.049   3.311
 2054SOL    HW2 2237   2.542   2.070   3.450
 2055SOL     OW 2238   1.937   2.207   1.895
 2055SOL    HW1 2239   1.845   2.179   1.866
 2055SOL    HW2 2240   1.968   2.284   1.839
 2056SOL     OW 2241   3.302   2.718   3.260
 2056SOL    HW1 2242   3.245   2.770   3.197
 2056SOL    HW2 2243   3.398   2.730   3.236
 2057SOL     OW 2244   3.045   3.197   1.981
 2057SOL    HW1 2245   2.946   3.186   1.983
 2057SOL    HW2 2246   3.079   3.212   2.074
 2058SOL     OW 2247   2.475   2.704   3.293
 2058SOL    HW1 2248   2.531   2.785   3.276
 2058SOL    HW2 2249   2.534   2.624   3.296
 2060SOL     OW 2250   2.578   2.427   3.570
 2060SOL    HW1 2251   2.597   2.492   3.644
 2060SOL    HW2 2252   2.638   2.347   3.579
 2063SOL     OW 2253   3.536   2.745   3.116
 2063SOL    HW1 2254   3.509   2.656   3.079
 2063SOL    HW2 2255   3.537   2.813   3.043
 2064SOL     OW 2256   3.087   2.187   2.311
 2064SOL    HW1 2257   3.152   2.113   2.300
 2064SOL    HW2 2258   3.107   2.237   2.395
 2065SOL     OW 2259   2.456   2.607   2.514
 2065SOL    HW1 2260   2.506   2.692   2.495
 2065SOL    HW2 2261   2.368   2.609   2.466
 2068SOL     OW 2262   2.721   3.236   1.878
 2068SOL    HW1 2263   2.675   3.251   1.966
 2068SOL    HW2 2264   2.765   3.321   1.848
 2069SOL     OW 2265   2.523   3.652   2.815
 2069SOL    HW1 2266   2.477   3.740   2.802
 2069SOL    HW2 2267   2.622   3.664   2.808
 2070SOL     OW 2268   2.721   2.818   2.723
 2070SOL    HW1 2269   2.775   2.749   2.771
 2070SOL    HW2 2270   2.689   2.887   2.789
 2071SOL     OW 2271   2.945   2.846   1.949
 2071SOL    HW1 2272   2.922   2.899   1.867
 2071SOL    HW2 2273   3.026   2.790   1.930
 2074SOL     OW 2274   1.941   3.102   2.515
 2074SOL    HW1 2275   1.940   3.055   2.603
 2074SOL    HW2 2276   2.023   3.074   2.464
 2075SOL     OW 2277   2.534   3.253   3.486
 2075SOL    HW1 2278   2.456   3.203   3.524
 2075SOL    HW2 2279   2.531   3.348   3.517
 2076SOL     OW 2280   3.686   2.054   3.089
 2076SOL    HW1 2281   3.682   1.964   3.133
 2076SOL    HW2 2282   3.689   2.043   2.990
 2078SOL     OW 2283   2.179   2.409   3.142
 2078SOL    HW1 2284   2.217   2.350   3.214
 2078SOL    HW2 2285   2.219   2.383   3.054
 2079SOL     OW 2286   2.674   3.448   2.549
 2079SOL    HW1 2287   2.706   3.458   2.455
 2079SOL    HW2 2288   2.595   3.386   2.551
 2080SOL     OW 2289   3.286   2.076   2.974
 2080SOL    HW1 2290   3.338   2.011   3.029
 2080SOL    HW2 2291   3.237   2.139   3.035
 2081SOL     OW 2292   2.863   1.896   3.016
 2081SOL    HW1 2293   2.800   1.824   2.985
 2081SOL    HW2 2294   2.956   1.860   3.016
 2082SOL     OW 2295   2.632   3.192   2.163
 2082SOL    HW1 2296   2.586   3.105   2.180
 2082SOL    HW2 2297   2.723   3.189   2.204
 2083SOL     OW 2298   2.480   3.429   3.146
 2083SOL    HW1 2299   2.475   3.511   3.203
 2083SOL    HW2 2300   2.569   3.426   3.101
 2084SOL     OW 2301   3.214   1.914   2.030
 2084SOL    HW1 2302   3.249   1.873   1.946
 2084SOL    HW2 2303   3.124   1.876   2.050
 2085SOL     OW 2304   3.162   2.315   2.553
 2085SOL    HW1 2305   3.103   2.395   2.557
 2085SOL    HW2 2306   3.177   2.280   2.646
 2086SOL     OW 2307   3.455   2.083   2.744
 2086SOL    HW1 2308   3.371   2.082   2.798
 2086SOL    HW2 2309   3.457   2.166   2.688
 2087SOL     OW 2310   1.901   2.939   2.162
 2087SOL    HW1 2311   2.000   2.928   2.153
 2087SOL    HW2 2312   1.861   2.853   2.194
 2088SOL     OW 2313   2.737   3.508   2.199
 2088SOL    HW1 2314   2.660   3.473   2.145
 2088SOL    HW2 2315   2.705   3.579   2.261
 2089SOL     OW 2316   2.092   2.490   3.837
 2089SOL    HW1 2317   1.999   2.488   3.874
 2089SOL    HW2 2318   2.093   2.451   3.745
 2093SOL     OW 2319   2.468   2.826   3.847
 2093SOL    HW1 2320   2.475   2.910   3.793
 2093SOL    HW2 2321   2.514   2.839   3.935
 2113SOL     OW 2322   2.476   1.984   3.841
 2113SOL    HW1 2323   2.574   1.962   3.848
 2113SOL    HW2 2324   2.445   1.967   3.748
 2116SOL     OW 2325   2.159   1.897   3.895
 2116SOL    HW1 2326   2.208   1.981   3.874
 2116SOL    HW2 2327   2.221   1.832   3.940
 2120SOL     OW 2328   2.894   2.411   3.740
 2120SOL    HW1 2329   2.853   2.493   3.701
 2120SOL    HW2 2330   2.958   2.437   3.813
 2136SOL     OW 2331   2.335   2.362   3.915
 2136SOL    HW1 2332   2.396   2.442   3.919
 2136SOL    HW2 2333   2.240   2.393   3.922
 2146SOL     OW 2334   1.937   2.207   3.757
 2146SOL    HW1 2335   1.845   2.179   3.728
 2146SOL    HW2 2336   1.968   2.284   3.701
 2201SOL     OW 2337   2.366   3.774   1.740
 2201SOL    HW1 2338   2.324   3.717   1.670
 2201SOL    HW2 2339   2.300   3.843   1.772
 2244SOL     OW 2340   2.671   3.728   2.364
 2244SOL    HW1 2341   2.711   3.819   2.355
 2244SOL    HW2 2342   2.571   3.736   2.370
 2259SOL     OW 2343   2.476   3.846   1.979
 2259SOL    HW1 2344   2.574   3.824   1.986
 2259SOL    HW2 2345   2.445   3.829   1.886
 2263SOL     OW 2346   2.401   3.788   2.374
 2263SOL    HW1 2347   2.320   3.789   2.432
 2263SOL    HW2 2348   2.404   3.871   2.319
 2264SOL     OW 2349   2.159   3.759   2.033
 2264SOL    HW1 2350   2.208   3.843   2.012
 2264SOL    HW2 2351   2.221   3.694   2.078
 2271SOL     OW 2352   2.879   3.763   2.615
 2271SOL    HW1 2353   2.807   3.768   2.546
 2271SOL    HW2 2354   2.855   3.694   2.684
 2273SOL     OW 2355   2.389   3.980   2.190
 2273SOL    HW1 2356   2.416   3.921   2.115
 2273SOL    HW2 2357   2.389   4.075   2.159
 2283SOL     OW 2358   2.169   3.787   2.480
 2283SOL    HW1 2359   2.158   3.881   2.513
 2283SOL    HW2 2360   2.164   3.724   2.557
 2301SOL     OW 2361   1.934   3.890   2.180
 2301SOL    HW1 2362   1.917   3.973   2.126
 2301SOL    HW2 2363   2.024   3.853   2.158
 2400SOL     OW 2364   3.854   1.794   1.851
 2400SOL    HW1 2365   3.813   1.720   1.904
 2400SOL    HW2 2366   3.918   1.845   1.909
 2428SOL     OW 2367   3.751   1.596   1.979
 2428SOL    HW1 2368   3.732   1.500   2.000
 2428SOL    HW2 2369   3.718   1.654   2.054
 2467SOL     OW 2370   3.732   1.326   2.062
 2467SOL    HW1 2371   3.639   1.347   2.031
 2467SOL    HW2 2372   3.742   1.227   2.075
 2468SOL     OW 2373   3.812   1.801   2.789
 2468SOL    HW1 2374   3.770   1.715   2.762
 2468SOL    HW2 2375   3.906   1.804   2.755
 2538SOL     OW 2376   3.837   2.599   1.597
 2538SOL    HW1 2377   3.925   2.586   1.642
 2538SOL    HW2 2378   3.824   2.696   1.575
 2579SOL     OW 2379   3.913   2.382   1.722
 2579SOL    HW1 2380   3.972   2.342   1.652
 2579SOL    HW2 2381   3.855   2.453   1.681
 2604SOL     OW 2382   3.954   2.490   1.975
 2604SOL    HW1 2383   3.861   2.488   2.012
 2604SOL    HW2 2384   3.955   2.451   1.883
 2606SOL     OW 2385   3.743   2.230   2.509
 2606SOL    HW1 2386   3.661   2.273   2.548
 2606SOL    HW2 2387   3.715   2.157   2.446
 2614SOL     OW 2388   3.846   2.505   2.425
 2614SOL    HW1 2389   3.801   2.417   2.442
 2614SOL    HW2 2390   3.845   2.559   2.509
 2621SOL     OW 2391   3.800   2.673   2.651
 2621SOL    HW1 2392   3.899   2.661   2.660
 2621SOL    HW2 2393   3.776   2.768   2.672
 2657SOL     OW 2394   3.764   2.406   2.976
 2657SOL    HW1 2395   3.849   2.373   2.935
 2657SOL    HW2 2396   3.777   2.421   3.074
 2672SOL     OW 2397   3.799   2.207   1.895
 2672SOL    HW1 2398   3.707   2.179   1.866
 2672SOL    HW2 2399   3.830   2.284   1.839
 2673SOL     OW 2400   3.796   2.028   2.180
 2673SOL    HW1 2401   3.779   2.111   2.126
 2673SOL    HW2 2402   3.886   1.991   2.158
 2682SOL     OW 2403   3.763   2.939   2.162
 2682SOL    HW1 2404   3.862   2.928   2.153
 2682SOL    HW2 2405   3.723   2.853   2.194
   4.39584   4.39584   4.39584
