mobley_7608435_GMX.gro created by acpype (v: 2023.10.27) on Wed May 20 23:52:37 2026
 2408
    1MOL     C1    1   2.755   2.300   2.621
    1MOL     C2    2   2.479   3.144   2.669
    1MOL     C3    3   2.839   2.081   2.648
    1MOL     C4    4   2.722   2.426   2.699
    1MOL     C5    5   2.511   3.019   2.590
    1MOL     C6    6   2.673   2.540   2.610
    1MOL     C7    7   2.566   2.908   2.679
    1MOL     C8    8   2.647   2.669   2.690
    1MOL     C9    9   2.595   2.781   2.600
    1MOL     O1   10   2.746   2.288   2.499
    1MOL     O2   11   2.801   2.205   2.707
    1MOL     H1   12   2.568   3.183   2.718
    1MOL     H2   13   2.403   3.123   2.746
    1MOL     H3   14   2.440   3.222   2.603
    1MOL     H4   15   2.869   2.011   2.726
    1MOL     H5   16   2.922   2.098   2.578
    1MOL     H6   17   2.754   2.040   2.593
    1MOL     H7   18   2.814   2.457   2.750
    1MOL     H8   19   2.647   2.402   2.774
    1MOL     H9   20   2.421   2.984   2.539
    1MOL    H10   21   2.584   3.043   2.512
    1MOL    H11   22   2.582   2.511   2.557
    1MOL    H12   23   2.750   2.561   2.534
    1MOL    H13   24   2.658   2.942   2.728
    1MOL    H14   25   2.494   2.886   2.759
    1MOL    H15   26   2.740   2.701   2.739
    1MOL    H16   27   2.574   2.650   2.770
    1MOL    H17   28   2.670   2.802   2.522
    1MOL    H18   29   2.504   2.747   2.549
   97SOL     OW   30   1.592   1.629   1.625
   97SOL    HW1   31   1.619   1.663   1.535
   97SOL    HW2   32   1.671   1.591   1.671
  127SOL     OW   33   1.859   1.518   1.605
  127SOL    HW1   34   1.873   1.545   1.510
  127SOL    HW2   35   1.942   1.540   1.658
  219SOL     OW   36   1.555   1.511   2.565
  219SOL    HW1   37   1.498   1.495   2.646
  219SOL    HW2   38   1.496   1.521   2.485
  227SOL     OW   39   1.460   1.505   3.201
  227SOL    HW1   40   1.484   1.599   3.227
  227SOL    HW2   41   1.444   1.451   3.283
  238SOL     OW   42   1.842   1.767   2.221
  238SOL    HW1   43   1.896   1.738   2.301
  238SOL    HW2   44   1.872   1.857   2.192
  250SOL     OW   45   1.466   1.417   2.815
  250SOL    HW1   46   1.407   1.423   2.895
  250SOL    HW2   47   1.451   1.329   2.769
  251SOL     OW   48   1.667   1.714   2.434
  251SOL    HW1   49   1.626   1.691   2.346
  251SOL    HW2   50   1.649   1.640   2.499
  254SOL     OW   51   1.576   1.662   2.169
  254SOL    HW1   52   1.665   1.708   2.172
  254SOL    HW2   53   1.555   1.638   2.074
  268SOL     OW   54   1.795   1.066   2.735
  268SOL    HW1   55   1.733   1.051   2.659
  268SOL    HW2   56   1.743   1.077   2.820
  275SOL     OW   57   1.632   1.377   1.943
  275SOL    HW1   58   1.600   1.471   1.933
  275SOL    HW2   59   1.556   1.314   1.931
  293SOL     OW   60   1.227   1.570   2.655
  293SOL    HW1   61   1.248   1.644   2.590
  293SOL    HW2   62   1.295   1.570   2.728
  295SOL     OW   63   1.271   1.797   2.453
  295SOL    HW1   64   1.315   1.861   2.389
  295SOL    HW2   65   1.221   1.849   2.523
  305SOL     OW   66   1.664   1.280   2.519
  305SOL    HW1   67   1.763   1.288   2.533
  305SOL    HW2   68   1.619   1.364   2.550
  310SOL     OW   69   1.592   1.629   3.487
  310SOL    HW1   70   1.619   1.663   3.397
  310SOL    HW2   71   1.671   1.591   3.533
  340SOL     OW   72   1.859   1.518   3.467
  340SOL    HW1   73   1.873   1.545   3.372
  340SOL    HW2   74   1.942   1.540   3.520
  365SOL     OW   75   1.759   1.747   3.016
  365SOL    HW1   76   1.820   1.777   2.943
  365SOL    HW2   77   1.721   1.658   2.994
  366SOL     OW   78   1.252   1.731   2.990
  366SOL    HW1   79   1.336   1.736   2.936
  366SOL    HW2   80   1.229   1.635   3.008
  370SOL     OW   81   1.388   1.573   2.339
  370SOL    HW1   82   1.455   1.585   2.265
  370SOL    HW2   83   1.348   1.662   2.362
  375SOL     OW   84   1.650   1.720   3.256
  375SOL    HW1   85   1.703   1.730   3.172
  375SOL    HW2   86   1.623   1.810   3.290
  381SOL     OW   87   1.504   1.607   1.906
  381SOL    HW1   88   1.412   1.644   1.913
  381SOL    HW2   89   1.542   1.627   1.816
  383SOL     OW   90   1.614   1.292   3.151
  383SOL    HW1   91   1.674   1.295   3.231
  383SOL    HW2   92   1.539   1.356   3.164
  396SOL     OW   93   1.493   1.767   2.821
  396SOL    HW1   94   1.526   1.831   2.752
  396SOL    HW2   95   1.559   1.761   2.896
  409SOL     OW   96   1.861   1.569   2.713
  409SOL    HW1   97   1.790   1.557   2.643
  409SOL    HW2   98   1.862   1.490   2.773
  415SOL     OW   99   1.705   1.487   2.966
  415SOL    HW1  100   1.612   1.462   2.939
  415SOL    HW2  101   1.731   1.437   3.048
  624SOL     OW  102   1.594   1.976   1.480
  624SOL    HW1  103   1.576   2.043   1.408
  624SOL    HW2  104   1.591   2.022   1.569
  644SOL     OW  105   1.394   2.331   1.674
  644SOL    HW1  106   1.374   2.374   1.762
  644SOL    HW2  107   1.472   2.269   1.683
  651SOL     OW  108   1.719   2.447   1.831
  651SOL    HW1  109   1.693   2.536   1.795
  651SOL    HW2  110   1.717   2.379   1.758
  669SOL     OW  111   1.547   2.084   1.729
  669SOL    HW1  112   1.542   2.121   1.821
  669SOL    HW2  113   1.475   2.015   1.717
  673SOL     OW  114   1.351   2.452   1.433
  673SOL    HW1  115   1.379   2.409   1.518
  673SOL    HW2  116   1.376   2.548   1.434
  696SOL     OW  117   1.754   3.085   1.588
  696SOL    HW1  118   1.845   3.046   1.575
  696SOL    HW2  119   1.762   3.181   1.612
  698SOL     OW  120   1.592   3.491   1.625
  698SOL    HW1  121   1.619   3.525   1.535
  698SOL    HW2  122   1.671   3.453   1.671
  714SOL     OW  123   1.587   2.641   1.670
  714SOL    HW1  124   1.495   2.679   1.665
  714SOL    HW2  125   1.647   2.688   1.605
  723SOL     OW  126   1.728   2.797   1.854
  723SOL    HW1  127   1.682   2.790   1.765
  723SOL    HW2  128   1.666   2.841   1.920
  728SOL     OW  129   1.859   3.380   1.605
  728SOL    HW1  130   1.873   3.407   1.510
  728SOL    HW2  131   1.942   3.402   1.658
  743SOL     OW  132   1.369   2.812   1.660
  743SOL    HW1  133   1.408   2.901   1.680
  743SOL    HW2  134   1.379   2.792   1.563
  745SOL     OW  135   1.657   2.466   1.206
  745SOL    HW1  136   1.619   2.397   1.268
  745SOL    HW2  137   1.739   2.430   1.162
  772SOL     OW  138   1.614   3.154   1.289
  772SOL    HW1  139   1.674   3.157   1.369
  772SOL    HW2  140   1.539   3.218   1.302
  776SOL     OW  141   1.709   2.247   1.381
  776SOL    HW1  142   1.782   2.316   1.385
  776SOL    HW2  143   1.737   2.172   1.322
  781SOL     OW  144   1.440   2.718   1.398
  781SOL    HW1  145   1.383   2.770   1.335
  781SOL    HW2  146   1.536   2.730   1.374
  787SOL     OW  147   1.450   3.082   1.633
  787SOL    HW1  148   1.441   3.072   1.732
  787SOL    HW2  149   1.546   3.075   1.607
  789SOL     OW  150   1.674   2.745   1.254
  789SOL    HW1  151   1.647   2.656   1.217
  789SOL    HW2  152   1.675   2.813   1.181
  792SOL     OW  153   1.777   2.204   1.642
  792SOL    HW1  154   1.760   2.235   1.548
  792SOL    HW2  155   1.693   2.167   1.680
  793SOL     OW  156   1.730   2.796   1.517
  793SOL    HW1  157   1.768   2.887   1.532
  793SOL    HW2  158   1.722   2.779   1.418
  802SOL     OW  159   1.824   2.054   1.227
  802SOL    HW1  160   1.820   1.964   1.271
  802SOL    HW2  161   1.827   2.043   1.128
  820SOL     OW  162   1.555   3.373   2.565
  820SOL    HW1  163   1.498   3.357   2.646
  820SOL    HW2  164   1.496   3.383   2.485
  821SOL     OW  165   1.135   2.565   2.579
  821SOL    HW1  166   1.192   2.643   2.554
  821SOL    HW2  167   1.075   2.591   2.655
  822SOL     OW  168   1.755   2.469   2.093
  822SOL    HW1  169   1.743   2.456   1.994
  822SOL    HW2  170   1.725   2.388   2.142
  828SOL     OW  171   1.460   3.367   3.201
  828SOL    HW1  172   1.484   3.461   3.227
  828SOL    HW2  173   1.444   3.313   3.283
  830SOL     OW  174   1.603   2.309   2.599
  830SOL    HW1  175   1.529   2.355   2.549
  830SOL    HW2  176   1.654   2.377   2.652
  837SOL     OW  177   1.594   1.976   3.342
  837SOL    HW1  178   1.576   2.043   3.270
  837SOL    HW2  179   1.591   2.022   3.431
  839SOL     OW  180   1.842   3.629   2.221
  839SOL    HW1  181   1.896   3.600   2.301
  839SOL    HW2  182   1.872   3.719   2.192
  841SOL     OW  183   1.689   2.784   2.474
  841SOL    HW1  184   1.784   2.755   2.482
  841SOL    HW2  185   1.681   2.849   2.399
  842SOL     OW  186   1.641   2.970   2.294
  842SOL    HW1  187   1.727   2.972   2.242
  842SOL    HW2  188   1.655   3.017   2.382
  845SOL     OW  189   1.293   3.090   3.285
  845SOL    HW1  190   1.330   3.017   3.227
  845SOL    HW2  191   1.345   3.095   3.370
  848SOL     OW  192   1.525   2.861   2.052
  848SOL    HW1  193   1.462   2.785   2.065
  848SOL    HW2  194   1.573   2.879   2.138
  851SOL     OW  195   1.466   3.279   2.815
  851SOL    HW1  196   1.407   3.285   2.895
  851SOL    HW2  197   1.451   3.191   2.769
  852SOL     OW  198   1.667   3.576   2.434
  852SOL    HW1  199   1.626   3.553   2.346
  852SOL    HW2  200   1.649   3.502   2.499
  854SOL     OW  201   1.281   2.207   2.806
  854SOL    HW1  202   1.195   2.157   2.793
  854SOL    HW2  203   1.343   2.153   2.862
  855SOL     OW  204   1.576   3.524   2.169
  855SOL    HW1  205   1.665   3.570   2.172
  855SOL    HW2  206   1.555   3.500   2.074
  857SOL     OW  207   1.394   2.331   3.536
  857SOL    HW1  208   1.374   2.374   3.624
  857SOL    HW2  209   1.472   2.269   3.545
  859SOL     OW  210   0.991   2.272   3.104
  859SOL    HW1  211   0.914   2.306   3.158
  859SOL    HW2  212   0.957   2.221   3.025
  860SOL     OW  213   1.041   2.563   2.291
  860SOL    HW1  214   1.067   2.559   2.387
  860SOL    HW2  215   0.956   2.512   2.277
  864SOL     OW  216   1.719   2.447   3.693
  864SOL    HW1  217   1.693   2.536   3.657
  864SOL    HW2  218   1.717   2.379   3.620
  865SOL     OW  219   1.362   3.006   2.407
  865SOL    HW1  220   1.445   2.977   2.359
  865SOL    HW2  221   1.313   3.073   2.351
  867SOL     OW  222   1.008   3.318   2.339
  867SOL    HW1  223   0.962   3.390   2.287
  867SOL    HW2  224   1.004   3.338   2.437
  869SOL     OW  225   1.795   2.928   2.735
  869SOL    HW1  226   1.733   2.913   2.659
  869SOL    HW2  227   1.743   2.939   2.820
  870SOL     OW  228   1.227   3.412   3.368
  870SOL    HW1  229   1.233   3.335   3.432
  870SOL    HW2  230   1.175   3.386   3.288
  872SOL     OW  231   1.458   2.597   2.590
  872SOL    HW1  232   1.453   2.532   2.665
  872SOL    HW2  233   1.538   2.656   2.603
  876SOL     OW  234   1.632   3.239   1.943
  876SOL    HW1  235   1.600   3.333   1.933
  876SOL    HW2  236   1.556   3.176   1.931
  878SOL     OW  237   1.400   1.969   2.288
  878SOL    HW1  238   1.376   1.932   2.198
  878SOL    HW2  239   1.499   1.985   2.292
  882SOL     OW  240   1.547   2.084   3.591
  882SOL    HW1  241   1.542   2.121   3.683
  882SOL    HW2  242   1.475   2.015   3.579
  886SOL     OW  243   1.351   2.452   3.295
  886SOL    HW1  244   1.379   2.409   3.380
  886SOL    HW2  245   1.376   2.548   3.296
  888SOL     OW  246   0.922   2.365   2.761
  888SOL    HW1  247   0.897   2.356   2.665
  888SOL    HW2  248   0.970   2.283   2.792
  890SOL     OW  249   1.434   3.050   1.903
  890SOL    HW1  250   1.466   2.974   1.960
  890SOL    HW2  251   1.342   3.077   1.933
  893SOL     OW  252   1.076   2.545   3.326
  893SOL    HW1  253   0.996   2.484   3.329
  893SOL    HW2  254   1.157   2.492   3.302
  894SOL     OW  255   1.227   3.432   2.655
  894SOL    HW1  256   1.248   3.506   2.590
  894SOL    HW2  257   1.295   3.432   2.728
  896SOL     OW  258   1.271   3.659   2.453
  896SOL    HW1  259   1.315   3.723   2.389
  896SOL    HW2  260   1.221   3.711   2.523
  901SOL     OW  261   1.017   1.901   2.615
  901SOL    HW1  262   0.945   1.906   2.546
  901SOL    HW2  263   0.993   1.832   2.684
  902SOL     OW  264   1.429   3.035   2.729
  902SOL    HW1  265   1.374   2.951   2.722
  902SOL    HW2  266   1.455   3.064   2.637
  903SOL     OW  267   1.466   2.452   2.854
  903SOL    HW1  268   1.436   2.357   2.861
  903SOL    HW2  269   1.539   2.468   2.920
  904SOL     OW  270   1.857   2.695   2.239
  904SOL    HW1  271   1.899   2.631   2.303
  904SOL    HW2  272   1.819   2.644   2.161
  906SOL     OW  273   1.664   3.142   2.519
  906SOL    HW1  274   1.763   3.150   2.533
  906SOL    HW2  275   1.619   3.226   2.550
  907SOL     OW  276   1.390   2.437   1.940
  907SOL    HW1  277   1.336   2.416   2.021
  907SOL    HW2  278   1.481   2.396   1.949
  909SOL     OW  279   1.754   3.085   3.450
  909SOL    HW1  280   1.845   3.046   3.437
  909SOL    HW2  281   1.762   3.181   3.474
  910SOL     OW  282   1.064   3.209   3.202
  910SOL    HW1  283   0.984   3.186   3.257
  910SOL    HW2  284   1.147   3.183   3.251
  911SOL     OW  285   1.592   3.491   3.487
  911SOL    HW1  286   1.619   3.525   3.397
  911SOL    HW2  287   1.671   3.453   3.533
  912SOL     OW  288   1.111   3.057   2.962
  912SOL    HW1  289   1.071   3.101   3.043
  912SOL    HW2  290   1.070   3.094   2.879
  913SOL     OW  291   1.638   2.961   2.941
  913SOL    HW1  292   1.643   3.042   3.000
  913SOL    HW2  293   1.552   2.963   2.890
  918SOL     OW  294   1.274   2.248   3.124
  918SOL    HW1  295   1.295   2.322   3.188
  918SOL    HW2  296   1.185   2.265   3.081
  922SOL     OW  297   1.252   3.210   2.250
  922SOL    HW1  298   1.302   3.287   2.290
  922SOL    HW2  299   1.157   3.212   2.282
  923SOL     OW  300   1.272   3.307   3.004
  923SOL    HW1  301   1.319   3.320   3.091
  923SOL    HW2  302   1.206   3.233   3.013
  924SOL     OW  303   1.582   2.501   2.334
  924SOL    HW1  304   1.551   2.562   2.407
  924SOL    HW2  305   1.632   2.553   2.265
  927SOL     OW  306   1.587   2.641   3.532
  927SOL    HW1  307   1.495   2.679   3.527
  927SOL    HW2  308   1.647   2.688   3.467
  931SOL     OW  309   1.360   2.724   2.907
  931SOL    HW1  310   1.285   2.724   2.841
  931SOL    HW2  311   1.397   2.632   2.916
  932SOL     OW  312   1.209   2.387   2.137
  932SOL    HW1  313   1.222   2.303   2.191
  932SOL    HW2  314   1.180   2.461   2.197
  936SOL     OW  315   1.728   2.797   3.716
  936SOL    HW1  316   1.682   2.790   3.627
  936SOL    HW2  317   1.666   2.841   3.782
  938SOL     OW  318   1.622   2.229   2.236
  938SOL    HW1  319   1.624   2.153   2.300
  938SOL    HW2  320   1.574   2.306   2.276
  939SOL     OW  321   1.023   2.628   2.828
  939SOL    HW1  322   1.038   2.649   2.924
  939SOL    HW2  323   0.993   2.533   2.819
  941SOL     OW  324   1.859   3.380   3.467
  941SOL    HW1  325   1.873   3.407   3.372
  941SOL    HW2  326   1.942   3.402   3.520
  943SOL     OW  327   1.540   2.136   1.987
  943SOL    HW1  328   1.479   2.061   2.010
  943SOL    HW2  329   1.562   2.188   2.070
  944SOL     OW  330   1.303   2.700   1.904
  944SOL    HW1  331   1.337   2.607   1.919
  944SOL    HW2  332   1.321   2.727   1.809
  945SOL     OW  333   1.068   3.195   2.711
  945SOL    HW1  334   1.075   3.111   2.656
  945SOL    HW2  335   1.130   3.264   2.675
  948SOL     OW  336   1.138   2.242   3.540
  948SOL    HW1  337   1.093   2.305   3.604
  948SOL    HW2  338   1.231   2.273   3.523
  949SOL     OW  339   1.160   2.069   3.339
  949SOL    HW1  340   1.160   2.133   3.416
  949SOL    HW2  341   1.188   2.117   3.256
  953SOL     OW  342   1.002   2.658   3.100
  953SOL    HW1  343   1.043   2.626   3.186
  953SOL    HW2  344   0.906   2.631   3.097
  956SOL     OW  345   1.369   2.812   3.522
  956SOL    HW1  346   1.408   2.901   3.542
  956SOL    HW2  347   1.379   2.792   3.425
  958SOL     OW  348   1.657   2.466   3.068
  958SOL    HW1  349   1.619   2.397   3.130
  958SOL    HW2  350   1.739   2.430   3.024
  964SOL     OW  351   1.347   2.921   3.096
  964SOL    HW1  352   1.371   2.858   3.022
  964SOL    HW2  353   1.257   2.961   3.078
  965SOL     OW  354   1.302   2.717   2.171
  965SOL    HW1  355   1.216   2.686   2.213
  965SOL    HW2  356   1.298   2.703   2.072
  966SOL     OW  357   1.759   3.609   3.016
  966SOL    HW1  358   1.820   3.639   2.943
  966SOL    HW2  359   1.721   3.520   2.994
  967SOL     OW  360   1.252   3.593   2.990
  967SOL    HW1  361   1.336   3.598   2.936
  967SOL    HW2  362   1.229   3.497   3.008
  970SOL     OW  363   1.726   1.997   2.385
  970SOL    HW1  364   1.799   1.980   2.318
  970SOL    HW2  365   1.695   1.910   2.423
  971SOL     OW  366   1.388   3.435   2.339
  971SOL    HW1  367   1.455   3.447   2.265
  971SOL    HW2  368   1.348   3.524   2.362
  973SOL     OW  369   1.280   2.789   2.534
  973SOL    HW1  370   1.340   2.708   2.536
  973SOL    HW2  371   1.320   2.858   2.474
  976SOL     OW  372   1.650   3.582   3.256
  976SOL    HW1  373   1.703   3.592   3.172
  976SOL    HW2  374   1.623   3.672   3.290
  977SOL     OW  375   1.841   2.037   2.825
  977SOL    HW1  376   1.880   1.952   2.789
  977SOL    HW2  377   1.743   2.039   2.806
  982SOL     OW  378   1.504   3.469   1.906
  982SOL    HW1  379   1.412   3.506   1.913
  982SOL    HW2  380   1.542   3.489   1.816
  984SOL     OW  381   1.614   3.154   3.151
  984SOL    HW1  382   1.674   3.157   3.231
  984SOL    HW2  383   1.539   3.218   3.164
  985SOL     OW  384   1.039   2.960   2.558
  985SOL    HW1  385   0.969   2.913   2.612
  985SOL    HW2  386   1.098   2.892   2.515
  986SOL     OW  387   1.014   2.098   2.833
  986SOL    HW1  388   1.006   2.062   2.740
  986SOL    HW2  389   1.012   2.022   2.898
  988SOL     OW  390   1.709   2.247   3.243
  988SOL    HW1  391   1.782   2.316   3.247
  988SOL    HW2  392   1.737   2.172   3.184
  993SOL     OW  393   1.440   2.718   3.260
  993SOL    HW1  394   1.383   2.770   3.197
  993SOL    HW2  395   1.536   2.730   3.236
  995SOL     OW  396   1.183   3.197   1.981
  995SOL    HW1  397   1.084   3.186   1.983
  995SOL    HW2  398   1.217   3.212   2.074
  997SOL     OW  399   1.493   3.629   2.821
  997SOL    HW1  400   1.526   3.693   2.752
  997SOL    HW2  401   1.559   3.623   2.896
  999SOL     OW  402   1.450   3.082   3.495
  999SOL    HW1  403   1.441   3.072   3.594
  999SOL    HW2  404   1.546   3.075   3.469
 1001SOL     OW  405   1.674   2.745   3.116
 1001SOL    HW1  406   1.647   2.656   3.079
 1001SOL    HW2  407   1.675   2.813   3.043
 1002SOL     OW  408   1.225   2.187   2.311
 1002SOL    HW1  409   1.290   2.113   2.300
 1002SOL    HW2  410   1.245   2.237   2.395
 1004SOL     OW  411   1.777   2.204   3.504
 1004SOL    HW1  412   1.760   2.235   3.410
 1004SOL    HW2  413   1.693   2.167   3.542
 1005SOL     OW  414   1.730   2.796   3.379
 1005SOL    HW1  415   1.768   2.887   3.394
 1005SOL    HW2  416   1.722   2.779   3.280
 1008SOL     OW  417   0.859   2.818   2.723
 1008SOL    HW1  418   0.913   2.749   2.771
 1008SOL    HW2  419   0.827   2.887   2.789
 1009SOL     OW  420   1.083   2.846   1.949
 1009SOL    HW1  421   1.060   2.899   1.867
 1009SOL    HW2  422   1.164   2.790   1.930
 1010SOL     OW  423   1.861   3.431   2.713
 1010SOL    HW1  424   1.790   3.419   2.643
 1010SOL    HW2  425   1.862   3.352   2.773
 1014SOL     OW  426   1.824   2.054   3.089
 1014SOL    HW1  427   1.820   1.964   3.133
 1014SOL    HW2  428   1.827   2.043   2.990
 1016SOL     OW  429   1.705   3.349   2.966
 1016SOL    HW1  430   1.612   3.324   2.939
 1016SOL    HW2  431   1.731   3.299   3.048
 1019SOL     OW  432   1.424   2.076   2.974
 1019SOL    HW1  433   1.476   2.011   3.029
 1019SOL    HW2  434   1.375   2.139   3.035
 1023SOL     OW  435   1.352   1.914   2.030
 1023SOL    HW1  436   1.387   1.873   1.946
 1023SOL    HW2  437   1.262   1.876   2.050
 1024SOL     OW  438   1.300   2.315   2.553
 1024SOL    HW1  439   1.241   2.395   2.557
 1024SOL    HW2  440   1.315   2.280   2.646
 1025SOL     OW  441   1.593   2.083   2.744
 1025SOL    HW1  442   1.509   2.082   2.798
 1025SOL    HW2  443   1.595   2.166   2.688
 1034SOL     OW  444   1.755   2.469   3.955
 1034SOL    HW1  445   1.743   2.456   3.856
 1034SOL    HW2  446   1.725   2.388   4.004
 1055SOL     OW  447   1.525   2.861   3.914
 1055SOL    HW1  448   1.462   2.785   3.927
 1055SOL    HW2  449   1.573   2.879   4.000
 1076SOL     OW  450   1.632   3.239   3.805
 1076SOL    HW1  451   1.600   3.333   3.795
 1076SOL    HW2  452   1.556   3.176   3.793
 1087SOL     OW  453   1.434   3.050   3.765
 1087SOL    HW1  454   1.466   2.974   3.822
 1087SOL    HW2  455   1.342   3.077   3.795
 1100SOL     OW  456   1.857   2.695   4.101
 1100SOL    HW1  457   1.899   2.631   4.165
 1100SOL    HW2  458   1.819   2.644   4.023
 1103SOL     OW  459   1.390   2.437   3.802
 1103SOL    HW1  460   1.336   2.416   3.883
 1103SOL    HW2  461   1.481   2.396   3.811
 1131SOL     OW  462   1.540   2.136   3.849
 1131SOL    HW1  463   1.479   2.061   3.872
 1131SOL    HW2  464   1.562   2.188   3.932
 1132SOL     OW  465   1.303   2.700   3.766
 1132SOL    HW1  466   1.337   2.607   3.781
 1132SOL    HW2  467   1.321   2.727   3.671
 1402SOL     OW  468   1.594   3.838   3.342
 1402SOL    HW1  469   1.576   3.905   3.270
 1402SOL    HW2  470   1.591   3.884   3.431
 1436SOL     OW  471   1.400   3.831   2.288
 1436SOL    HW1  472   1.376   3.794   2.198
 1436SOL    HW2  473   1.499   3.847   2.292
 1516SOL     OW  474   1.726   3.859   2.385
 1516SOL    HW1  475   1.799   3.842   2.318
 1516SOL    HW2  476   1.695   3.772   2.423
 1519SOL     OW  477   1.841   3.899   2.825
 1519SOL    HW1  478   1.880   3.814   2.789
 1519SOL    HW2  479   1.743   3.901   2.806
 1549SOL     OW  480   1.824   3.916   3.089
 1549SOL    HW1  481   1.820   3.826   3.133
 1549SOL    HW2  482   1.827   3.905   2.990
 1559SOL     OW  483   1.593   3.945   2.744
 1559SOL    HW1  484   1.509   3.944   2.798
 1559SOL    HW2  485   1.595   4.028   2.688
 1718SOL     OW  486   2.548   1.161   1.803
 1718SOL    HW1  487   2.608   1.240   1.817
 1718SOL    HW2  488   2.462   1.192   1.762
 1724SOL     OW  489   2.989   1.341   1.690
 1724SOL    HW1  490   3.036   1.341   1.778
 1724SOL    HW2  491   2.941   1.254   1.679
 1727SOL     OW  492   2.482   1.786   1.439
 1727SOL    HW1  493   2.390   1.769   1.474
 1727SOL    HW2  494   2.510   1.878   1.465
 1741SOL     OW  495   3.049   1.792   1.616
 1741SOL    HW1  496   3.073   1.852   1.540
 1741SOL    HW2  497   3.056   1.697   1.586
 1754SOL     OW  498   1.992   1.821   1.571
 1754SOL    HW1  499   1.982   1.806   1.670
 1754SOL    HW2  500   1.906   1.857   1.535
 1762SOL     OW  501   3.089   1.550   1.506
 1762SOL    HW1  502   3.095   1.473   1.570
 1762SOL    HW2  503   3.037   1.524   1.426
 1765SOL     OW  504   2.323   1.266   1.727
 1765SOL    HW1  505   2.273   1.267   1.641
 1765SOL    HW2  506   2.260   1.248   1.803
 1771SOL     OW  507   2.111   1.785   1.241
 1771SOL    HW1  508   2.168   1.720   1.291
 1771SOL    HW2  509   2.095   1.752   1.148
 1803SOL     OW  510   3.454   1.629   1.625
 1803SOL    HW1  511   3.481   1.663   1.535
 1803SOL    HW2  512   3.533   1.591   1.671
 1807SOL     OW  513   2.842   1.116   1.719
 1807SOL    HW1  514   2.743   1.122   1.729
 1807SOL    HW2  515   2.865   1.036   1.663
 1817SOL     OW  516   2.216   1.510   1.329
 1817SOL    HW1  517   2.195   1.466   1.242
 1817SOL    HW2  518   2.313   1.536   1.332
 1832SOL     OW  519   2.842   1.573   1.700
 1832SOL    HW1  520   2.822   1.617   1.612
 1832SOL    HW2  521   2.881   1.482   1.684
 1851SOL     OW  522   2.114   1.564   1.744
 1851SOL    HW1  523   2.084   1.621   1.820
 1851SOL    HW2  524   2.107   1.467   1.770
 1853SOL     OW  525   2.792   1.678   1.465
 1853SOL    HW1  526   2.768   1.660   1.370
 1853SOL    HW2  527   2.822   1.772   1.475
 1861SOL     OW  528   2.550   1.662   1.716
 1861SOL    HW1  529   2.494   1.743   1.725
 1861SOL    HW2  530   2.602   1.666   1.630
 1865SOL     OW  531   1.992   1.794   1.851
 1865SOL    HW1  532   1.951   1.720   1.904
 1865SOL    HW2  533   2.056   1.845   1.909
 1869SOL     OW  534   3.512   1.720   1.394
 1869SOL    HW1  535   3.565   1.730   1.310
 1869SOL    HW2  536   3.485   1.810   1.428
 1892SOL     OW  537   2.252   1.741   1.560
 1892SOL    HW1  538   2.161   1.782   1.558
 1892SOL    HW2  539   2.245   1.647   1.592
 1903SOL     OW  540   2.083   1.314   1.844
 1903SOL    HW1  541   2.018   1.241   1.823
 1903SOL    HW2  542   2.087   1.328   1.942
 1905SOL     OW  543   2.534   1.391   1.624
 1905SOL    HW1  544   2.456   1.341   1.662
 1905SOL    HW2  545   2.531   1.486   1.655
 1914SOL     OW  546   2.480   1.567   1.284
 1914SOL    HW1  547   2.475   1.649   1.341
 1914SOL    HW2  548   2.569   1.564   1.239
 1923SOL     OW  549   2.431   1.275   3.027
 1923SOL    HW1  550   2.338   1.268   2.990
 1923SOL    HW2  551   2.442   1.364   3.071
 1924SOL     OW  552   3.417   1.511   2.565
 1924SOL    HW1  553   3.360   1.495   2.646
 1924SOL    HW2  554   3.358   1.521   2.485
 1927SOL     OW  555   2.630   1.144   2.885
 1927SOL    HW1  556   2.552   1.161   2.945
 1927SOL    HW2  557   2.664   1.231   2.849
 1929SOL     OW  558   2.547   1.012   2.527
 1929SOL    HW1  559   2.616   0.996   2.597
 1929SOL    HW2  560   2.474   1.069   2.565
 1931SOL     OW  561   2.197   1.435   2.923
 1931SOL    HW1  562   2.119   1.404   2.870
 1931SOL    HW2  563   2.255   1.493   2.866
 1932SOL     OW  564   3.322   1.505   3.201
 1932SOL    HW1  565   3.346   1.599   3.227
 1932SOL    HW2  566   3.306   1.451   3.283
 1935SOL     OW  567   2.093   1.713   2.345
 1935SOL    HW1  568   2.127   1.790   2.399
 1935SOL    HW2  569   2.137   1.713   2.255
 1936SOL     OW  570   2.989   1.341   3.552
 1936SOL    HW1  571   3.036   1.341   3.640
 1936SOL    HW2  572   2.941   1.254   3.541
 1937SOL     OW  573   2.092   1.434   2.400
 1937SOL    HW1  574   2.066   1.530   2.400
 1937SOL    HW2  575   2.021   1.380   2.445
 1938SOL     OW  576   2.102   1.091   2.748
 1938SOL    HW1  577   2.116   1.007   2.800
 1938SOL    HW2  578   2.047   1.155   2.803
 1939SOL     OW  579   2.482   1.786   3.301
 1939SOL    HW1  580   2.390   1.769   3.336
 1939SOL    HW2  581   2.510   1.878   3.327
 1943SOL     OW  582   3.704   1.767   2.221
 1943SOL    HW1  583   3.758   1.738   2.301
 1943SOL    HW2  584   3.734   1.857   2.192
 1944SOL     OW  585   1.889   1.596   1.979
 1944SOL    HW1  586   1.870   1.500   2.000
 1944SOL    HW2  587   1.856   1.654   2.054
 1946SOL     OW  588   3.503   1.108   2.294
 1946SOL    HW1  589   3.589   1.110   2.242
 1946SOL    HW2  590   3.517   1.155   2.382
 1948SOL     OW  591   2.475   1.365   2.588
 1948SOL    HW1  592   2.426   1.278   2.597
 1948SOL    HW2  593   2.452   1.408   2.501
 1949SOL     OW  594   3.155   1.228   3.285
 1949SOL    HW1  595   3.192   1.155   3.227
 1949SOL    HW2  596   3.207   1.233   3.370
 1953SOL     OW  597   3.049   1.792   3.478
 1953SOL    HW1  598   3.073   1.852   3.402
 1953SOL    HW2  599   3.056   1.697   3.448
 1955SOL     OW  600   3.328   1.417   2.815
 1955SOL    HW1  601   3.269   1.423   2.895
 1955SOL    HW2  602   3.313   1.329   2.769
 1956SOL     OW  603   3.529   1.714   2.434
 1956SOL    HW1  604   3.488   1.691   2.346
 1956SOL    HW2  605   3.511   1.640   2.499
 1959SOL     OW  606   3.438   1.662   2.169
 1959SOL    HW1  607   3.527   1.708   2.172
 1959SOL    HW2  608   3.417   1.638   2.074
 1966SOL     OW  609   1.992   1.821   3.433
 1966SOL    HW1  610   1.982   1.806   3.532
 1966SOL    HW2  611   1.906   1.857   3.397
 1969SOL     OW  612   3.224   1.144   2.407
 1969SOL    HW1  613   3.307   1.115   2.359
 1969SOL    HW2  614   3.175   1.211   2.351
 1971SOL     OW  615   2.870   1.456   2.339
 1971SOL    HW1  616   2.824   1.528   2.287
 1971SOL    HW2  617   2.866   1.476   2.437
 1972SOL     OW  618   2.213   1.801   2.715
 1972SOL    HW1  619   2.263   1.715   2.721
 1972SOL    HW2  620   2.278   1.878   2.712
 1974SOL     OW  621   3.089   1.550   3.368
 1974SOL    HW1  622   3.095   1.473   3.432
 1974SOL    HW2  623   3.037   1.524   3.288
 1977SOL     OW  624   2.323   1.266   3.589
 1977SOL    HW1  625   2.273   1.267   3.503
 1977SOL    HW2  626   2.260   1.248   3.665
 1978SOL     OW  627   2.973   1.776   2.099
 1978SOL    HW1  628   2.913   1.714   2.149
 1978SOL    HW2  629   3.004   1.732   2.014
 1980SOL     OW  630   3.494   1.377   1.943
 1980SOL    HW1  631   3.462   1.471   1.933
 1980SOL    HW2  632   3.418   1.314   1.931
 1981SOL     OW  633   2.326   1.743   2.185
 1981SOL    HW1  634   2.359   1.782   2.271
 1981SOL    HW2  635   2.402   1.736   2.120
 1983SOL     OW  636   2.111   1.785   3.103
 1983SOL    HW1  637   2.168   1.720   3.153
 1983SOL    HW2  638   2.095   1.752   3.010
 1984SOL     OW  639   2.802   1.698   2.766
 1984SOL    HW1  640   2.882   1.641   2.787
 1984SOL    HW2  641   2.753   1.658   2.689
 1989SOL     OW  642   2.750   1.514   3.057
 1989SOL    HW1  643   2.727   1.489   2.963
 1989SOL    HW2  644   2.811   1.445   3.096
 1991SOL     OW  645   2.665   1.402   2.786
 1991SOL    HW1  646   2.755   1.416   2.744
 1991SOL    HW2  647   2.594   1.404   2.715
 1994SOL     OW  648   3.296   1.188   1.903
 1994SOL    HW1  649   3.328   1.112   1.960
 1994SOL    HW2  650   3.204   1.215   1.933
 1998SOL     OW  651   3.089   1.570   2.655
 1998SOL    HW1  652   3.110   1.644   2.590
 1998SOL    HW2  653   3.157   1.570   2.728
 1999SOL     OW  654   2.321   1.152   2.603
 1999SOL    HW1  655   2.250   1.125   2.668
 1999SOL    HW2  656   2.295   1.124   2.510
 2000SOL     OW  657   3.133   1.797   2.453
 2000SOL    HW1  658   3.177   1.861   2.389
 2000SOL    HW2  659   3.083   1.849   2.523
 2006SOL     OW  660   3.291   1.173   2.729
 2006SOL    HW1  661   3.236   1.089   2.722
 2006SOL    HW2  662   3.317   1.202   2.637
 2009SOL     OW  663   2.350   1.385   2.036
 2009SOL    HW1  664   2.263   1.370   2.083
 2009SOL    HW2  665   2.333   1.411   1.941
 2010SOL     OW  666   3.526   1.280   2.519
 2010SOL    HW1  667   3.625   1.288   2.533
 2010SOL    HW2  668   3.481   1.364   2.550
 2014SOL     OW  669   2.926   1.347   3.202
 2014SOL    HW1  670   2.846   1.324   3.257
 2014SOL    HW2  671   3.009   1.321   3.251
 2015SOL     OW  672   3.454   1.629   3.487
 2015SOL    HW1  673   3.481   1.663   3.397
 2015SOL    HW2  674   3.533   1.591   3.533
 2016SOL     OW  675   2.973   1.195   2.962
 2016SOL    HW1  676   2.933   1.239   3.043
 2016SOL    HW2  677   2.932   1.232   2.879
 2017SOL     OW  678   3.500   1.099   2.941
 2017SOL    HW1  679   3.505   1.180   3.000
 2017SOL    HW2  680   3.414   1.101   2.890
 2020SOL     OW  681   2.567   1.050   2.230
 2020SOL    HW1  682   2.553   1.057   2.329
 2020SOL    HW2  683   2.651   0.999   2.212
 2023SOL     OW  684   1.926   1.564   3.193
 2023SOL    HW1  685   1.880   1.646   3.159
 2023SOL    HW2  686   2.024   1.583   3.202
 2024SOL     OW  687   2.229   1.100   2.363
 2024SOL    HW1  688   2.222   1.183   2.307
 2024SOL    HW2  689   2.233   1.020   2.303
 2026SOL     OW  690   3.114   1.348   2.250
 2026SOL    HW1  691   3.164   1.425   2.290
 2026SOL    HW2  692   3.019   1.350   2.282
 2027SOL     OW  693   3.134   1.445   3.004
 2027SOL    HW1  694   3.181   1.458   3.091
 2027SOL    HW2  695   3.068   1.371   3.013
 2029SOL     OW  696   2.216   1.510   3.191
 2029SOL    HW1  697   2.195   1.466   3.104
 2029SOL    HW2  698   2.313   1.536   3.194
 2038SOL     OW  699   1.899   1.310   3.144
 2038SOL    HW1  700   1.952   1.261   3.212
 2038SOL    HW2  701   1.921   1.408   3.149
 2044SOL     OW  702   2.842   1.573   3.562
 2044SOL    HW1  703   2.822   1.617   3.474
 2044SOL    HW2  704   2.881   1.482   3.546
 2045SOL     OW  705   3.721   1.518   3.467
 2045SOL    HW1  706   3.735   1.545   3.372
 2045SOL    HW2  707   3.804   1.540   3.520
 2049SOL     OW  708   2.930   1.333   2.711
 2049SOL    HW1  709   2.937   1.249   2.656
 2049SOL    HW2  710   2.992   1.402   2.675
 2054SOL     OW  711   1.870   1.326   2.062
 2054SOL    HW1  712   1.777   1.347   2.031
 2054SOL    HW2  713   1.880   1.227   2.075
 2055SOL     OW  714   1.950   1.801   2.789
 2055SOL    HW1  715   1.908   1.715   2.762
 2055SOL    HW2  716   2.044   1.804   2.755
 2056SOL     OW  717   2.366   1.568   2.772
 2056SOL    HW1  718   2.432   1.642   2.781
 2056SOL    HW2  719   2.410   1.489   2.730
 2063SOL     OW  720   2.114   1.564   3.606
 2063SOL    HW1  721   2.084   1.621   3.682
 2063SOL    HW2  722   2.107   1.467   3.632
 2065SOL     OW  723   2.792   1.678   3.327
 2065SOL    HW1  724   2.768   1.660   3.232
 2065SOL    HW2  725   2.822   1.772   3.337
 2067SOL     OW  726   2.021   1.137   3.328
 2067SOL    HW1  727   2.043   1.076   3.404
 2067SOL    HW2  728   2.031   1.088   3.242
 2068SOL     OW  729   3.209   1.059   3.096
 2068SOL    HW1  730   3.233   0.996   3.022
 2068SOL    HW2  731   3.119   1.099   3.078
 2070SOL     OW  732   3.621   1.747   3.016
 2070SOL    HW1  733   3.682   1.777   2.943
 2070SOL    HW2  734   3.583   1.658   2.994
 2071SOL     OW  735   3.114   1.731   2.990
 2071SOL    HW1  736   3.198   1.736   2.936
 2071SOL    HW2  737   3.091   1.635   3.008
 2072SOL     OW  738   1.945   1.258   2.884
 2072SOL    HW1  739   1.940   1.257   2.984
 2072SOL    HW2  740   1.862   1.217   2.846
 2073SOL     OW  741   2.550   1.662   3.578
 2073SOL    HW1  742   2.494   1.743   3.587
 2073SOL    HW2  743   2.602   1.666   3.492
 2075SOL     OW  744   3.250   1.573   2.339
 2075SOL    HW1  745   3.317   1.585   2.265
 2075SOL    HW2  746   3.210   1.662   2.362
 2076SOL     OW  747   1.992   1.794   3.713
 2076SOL    HW1  748   1.951   1.720   3.766
 2076SOL    HW2  749   2.056   1.845   3.771
 2077SOL     OW  750   3.142   0.927   2.534
 2077SOL    HW1  751   3.202   0.846   2.536
 2077SOL    HW2  752   3.182   0.996   2.474
 2078SOL     OW  753   2.692   1.273   3.284
 2078SOL    HW1  754   2.687   1.306   3.379
 2078SOL    HW2  755   2.606   1.292   3.238
 2079SOL     OW  756   2.534   1.616   2.016
 2079SOL    HW1  757   2.543   1.626   1.917
 2079SOL    HW2  758   2.494   1.527   2.037
 2080SOL     OW  759   3.512   1.720   3.256
 2080SOL    HW1  760   3.565   1.730   3.172
 2080SOL    HW2  761   3.485   1.810   3.290
 2083SOL     OW  762   3.056   1.612   1.893
 2083SOL    HW1  763   3.062   1.519   1.930
 2083SOL    HW2  764   2.997   1.612   1.813
 2084SOL     OW  765   2.684   1.002   3.234
 2084SOL    HW1  766   2.724   1.001   3.142
 2084SOL    HW2  767   2.694   1.094   3.274
 2086SOL     OW  768   3.366   1.607   1.906
 2086SOL    HW1  769   3.274   1.644   1.913
 2086SOL    HW2  770   3.404   1.627   1.816
 2087SOL     OW  771   2.234   1.288   3.352
 2087SOL    HW1  772   2.221   1.381   3.318
 2087SOL    HW2  773   2.150   1.236   3.339
 2088SOL     OW  774   3.476   1.292   3.151
 2088SOL    HW1  775   3.536   1.295   3.231
 2088SOL    HW2  776   3.401   1.356   3.164
 2089SOL     OW  777   2.901   1.098   2.558
 2089SOL    HW1  778   2.831   1.051   2.612
 2089SOL    HW2  779   2.960   1.030   2.515
 2091SOL     OW  780   2.452   1.487   2.353
 2091SOL    HW1  781   2.494   1.429   2.283
 2091SOL    HW2  782   2.408   1.566   2.309
 2093SOL     OW  783   2.117   1.348   2.152
 2093SOL    HW1  784   2.021   1.349   2.125
 2093SOL    HW2  785   2.129   1.401   2.236
 2099SOL     OW  786   3.045   1.335   1.981
 2099SOL    HW1  787   2.946   1.324   1.983
 2099SOL    HW2  788   3.079   1.350   2.074
 2101SOL     OW  789   3.355   1.767   2.821
 2101SOL    HW1  790   3.388   1.831   2.752
 2101SOL    HW2  791   3.421   1.761   2.896
 2103SOL     OW  792   3.312   1.220   3.495
 2103SOL    HW1  793   3.303   1.210   3.594
 2103SOL    HW2  794   3.408   1.213   3.469
 2104SOL     OW  795   2.252   1.741   3.422
 2104SOL    HW1  796   2.161   1.782   3.420
 2104SOL    HW2  797   2.245   1.647   3.454
 2110SOL     OW  798   2.721   1.374   1.878
 2110SOL    HW1  799   2.675   1.389   1.966
 2110SOL    HW2  800   2.765   1.459   1.848
 2111SOL     OW  801   2.523   1.790   2.815
 2111SOL    HW1  802   2.477   1.878   2.802
 2111SOL    HW2  803   2.622   1.802   2.808
 2112SOL     OW  804   2.721   0.956   2.723
 2112SOL    HW1  805   2.775   0.887   2.771
 2112SOL    HW2  806   2.689   1.025   2.789
 2114SOL     OW  807   3.723   1.569   2.713
 2114SOL    HW1  808   3.652   1.557   2.643
 2114SOL    HW2  809   3.724   1.490   2.773
 2115SOL     OW  810   2.083   1.314   3.706
 2115SOL    HW1  811   2.018   1.241   3.685
 2115SOL    HW2  812   2.087   1.328   3.804
 2116SOL     OW  813   1.941   1.240   2.515
 2116SOL    HW1  814   1.940   1.193   2.603
 2116SOL    HW2  815   2.023   1.212   2.464
 2117SOL     OW  816   2.534   1.391   3.486
 2117SOL    HW1  817   2.456   1.341   3.524
 2117SOL    HW2  818   2.531   1.486   3.517
 2120SOL     OW  819   3.567   1.487   2.966
 2120SOL    HW1  820   3.474   1.462   2.939
 2120SOL    HW2  821   3.593   1.437   3.048
 2122SOL     OW  822   2.674   1.586   2.549
 2122SOL    HW1  823   2.706   1.596   2.455
 2122SOL    HW2  824   2.595   1.524   2.551
 2125SOL     OW  825   2.632   1.330   2.163
 2125SOL    HW1  826   2.586   1.243   2.180
 2125SOL    HW2  827   2.723   1.327   2.204
 2126SOL     OW  828   2.480   1.567   3.146
 2126SOL    HW1  829   2.475   1.649   3.203
 2126SOL    HW2  830   2.569   1.564   3.101
 2131SOL     OW  831   2.737   1.646   2.199
 2131SOL    HW1  832   2.660   1.611   2.145
 2131SOL    HW2  833   2.705   1.717   2.261
 2153SOL     OW  834   1.889   1.596   3.841
 2153SOL    HW1  835   1.870   1.500   3.862
 2153SOL    HW2  836   1.856   1.654   3.916
 2179SOL     OW  837   2.973   1.776   3.961
 2179SOL    HW1  838   2.913   1.714   4.011
 2179SOL    HW2  839   3.004   1.732   3.876
 2182SOL     OW  840   2.326   1.743   4.047
 2182SOL    HW1  841   2.359   1.782   4.133
 2182SOL    HW2  842   2.402   1.736   3.982
 2262SOL     OW  843   2.534   1.616   3.878
 2262SOL    HW1  844   2.543   1.626   3.779
 2262SOL    HW2  845   2.494   1.527   3.899
 2266SOL     OW  846   3.056   1.612   3.755
 2266SOL    HW1  847   3.062   1.519   3.792
 2266SOL    HW2  848   2.997   1.612   3.675
 2269SOL     OW  849   3.366   1.607   3.768
 2269SOL    HW1  850   3.274   1.644   3.775
 2269SOL    HW2  851   3.404   1.627   3.678
 2289SOL     OW  852   2.721   1.374   3.740
 2289SOL    HW1  853   2.675   1.389   3.828
 2289SOL    HW2  854   2.765   1.459   3.710
 2308SOL     OW  855   2.737   1.646   4.061
 2308SOL    HW1  856   2.660   1.611   4.007
 2308SOL    HW2  857   2.705   1.717   4.123
 2312SOL     OW  858   2.431   3.137   1.165
 2312SOL    HW1  859   2.338   3.130   1.128
 2312SOL    HW2  860   2.442   3.226   1.209
 2316SOL     OW  861   2.630   3.006   1.023
 2316SOL    HW1  862   2.552   3.023   1.083
 2316SOL    HW2  863   2.664   3.093   0.987
 2317SOL     OW  864   2.712   2.660   1.823
 2317SOL    HW1  865   2.708   2.736   1.888
 2317SOL    HW2  866   2.734   2.696   1.732
 2319SOL     OW  867   2.548   3.023   1.803
 2319SOL    HW1  868   2.608   3.102   1.817
 2319SOL    HW2  869   2.462   3.054   1.762
 2320SOL     OW  870   2.197   3.297   1.061
 2320SOL    HW1  871   2.119   3.266   1.008
 2320SOL    HW2  872   2.255   3.355   1.004
 2321SOL     OW  873   3.322   3.367   1.339
 2321SOL    HW1  874   3.346   3.461   1.365
 2321SOL    HW2  875   3.306   3.313   1.421
 2322SOL     OW  876   2.300   2.254   1.499
 2322SOL    HW1  877   2.382   2.198   1.508
 2322SOL    HW2  878   2.219   2.196   1.503
 2325SOL     OW  879   2.989   3.203   1.690
 2325SOL    HW1  880   3.036   3.203   1.778
 2325SOL    HW2  881   2.941   3.116   1.679
 2328SOL     OW  882   2.482   3.648   1.439
 2328SOL    HW1  883   2.390   3.631   1.474
 2328SOL    HW2  884   2.510   3.740   1.465
 2330SOL     OW  885   3.456   1.976   1.480
 2330SOL    HW1  886   3.438   2.043   1.408
 2330SOL    HW2  887   3.453   2.022   1.569
 2336SOL     OW  888   1.975   2.599   1.597
 2336SOL    HW1  889   2.063   2.586   1.642
 2336SOL    HW2  890   1.962   2.696   1.575
 2338SOL     OW  891   3.155   3.090   1.423
 2338SOL    HW1  892   3.192   3.017   1.365
 2338SOL    HW2  893   3.207   3.095   1.508
 2340SOL     OW  894   2.059   2.838   1.264
 2340SOL    HW1  895   2.148   2.793   1.250
 2340SOL    HW2  896   1.986   2.773   1.245
 2342SOL     OW  897   3.049   3.654   1.616
 2342SOL    HW1  898   3.073   3.714   1.540
 2342SOL    HW2  899   3.056   3.559   1.586
 2343SOL     OW  900   2.179   2.113   1.801
 2343SOL    HW1  901   2.250   2.184   1.807
 2343SOL    HW2  902   2.091   2.152   1.829
 2349SOL     OW  903   2.669   2.467   1.465
 2349SOL    HW1  904   2.622   2.464   1.554
 2349SOL    HW2  905   2.618   2.412   1.399
 2350SOL     OW  906   3.256   2.331   1.674
 2350SOL    HW1  907   3.236   2.374   1.762
 2350SOL    HW2  908   3.334   2.269   1.683
 2351SOL     OW  909   2.835   2.752   1.572
 2351SOL    HW1  910   2.881   2.668   1.543
 2351SOL    HW2  911   2.779   2.786   1.497
 2352SOL     OW  912   2.853   2.272   1.242
 2352SOL    HW1  913   2.776   2.306   1.296
 2352SOL    HW2  914   2.819   2.221   1.163
 2355SOL     OW  915   1.992   3.683   1.571
 2355SOL    HW1  916   1.982   3.668   1.670
 2355SOL    HW2  917   1.906   3.719   1.535
 2357SOL     OW  918   3.581   2.447   1.831
 2357SOL    HW1  919   3.555   2.536   1.795
 2357SOL    HW2  920   3.579   2.379   1.758
 2363SOL     OW  921   3.089   3.412   1.506
 2363SOL    HW1  922   3.095   3.335   1.570
 2363SOL    HW2  923   3.037   3.386   1.426
 2366SOL     OW  924   2.323   3.128   1.727
 2366SOL    HW1  925   2.273   3.129   1.641
 2366SOL    HW2  926   2.260   3.110   1.803
 2368SOL     OW  927   2.064   2.147   1.498
 2368SOL    HW1  928   1.984   2.207   1.485
 2368SOL    HW2  929   2.054   2.098   1.584
 2375SOL     OW  930   3.409   2.084   1.729
 2375SOL    HW1  931   3.404   2.121   1.821
 2375SOL    HW2  932   3.337   2.015   1.717
 2377SOL     OW  933   2.643   2.126   1.749
 2377SOL    HW1  934   2.710   2.065   1.792
 2377SOL    HW2  935   2.570   2.145   1.814
 2378SOL     OW  936   2.750   3.376   1.195
 2378SOL    HW1  937   2.727   3.351   1.101
 2378SOL    HW2  938   2.811   3.307   1.234
 2379SOL     OW  939   3.213   2.452   1.433
 2379SOL    HW1  940   3.241   2.409   1.518
 2379SOL    HW2  941   3.238   2.548   1.434
 2381SOL     OW  942   2.784   2.365   0.899
 2381SOL    HW1  943   2.759   2.356   0.803
 2381SOL    HW2  944   2.832   2.283   0.930
 2386SOL     OW  945   2.938   2.545   1.464
 2386SOL    HW1  946   2.858   2.484   1.467
 2386SOL    HW2  947   3.019   2.492   1.440
 2391SOL     OW  948   1.940   2.418   1.386
 2391SOL    HW1  949   2.032   2.417   1.345
 2391SOL    HW2  950   1.934   2.492   1.453
 2392SOL     OW  951   2.423   2.084   1.147
 2392SOL    HW1  952   2.461   2.000   1.184
 2392SOL    HW2  953   2.335   2.103   1.191
 2396SOL     OW  954   3.328   2.452   0.992
 2396SOL    HW1  955   3.298   2.357   0.999
 2396SOL    HW2  956   3.401   2.468   1.058
 2402SOL     OW  957   3.616   3.085   1.588
 2402SOL    HW1  958   3.707   3.046   1.575
 2402SOL    HW2  959   3.624   3.181   1.612
 2403SOL     OW  960   2.926   3.209   1.340
 2403SOL    HW1  961   2.846   3.186   1.395
 2403SOL    HW2  962   3.009   3.183   1.389
 2404SOL     OW  963   3.454   3.491   1.625
 2404SOL    HW1  964   3.481   3.525   1.535
 2404SOL    HW2  965   3.533   3.453   1.671
 2405SOL     OW  966   2.973   3.057   1.100
 2405SOL    HW1  967   2.933   3.101   1.181
 2405SOL    HW2  968   2.932   3.094   1.017
 2407SOL     OW  969   2.777   1.951   1.402
 2407SOL    HW1  970   2.802   1.931   1.307
 2407SOL    HW2  971   2.849   2.007   1.444
 2408SOL     OW  972   2.842   2.978   1.719
 2408SOL    HW1  973   2.743   2.984   1.729
 2408SOL    HW2  974   2.865   2.898   1.663
 2410SOL     OW  975   2.272   2.675   1.251
 2410SOL    HW1  976   2.358   2.687   1.301
 2410SOL    HW2  977   2.230   2.588   1.278
 2411SOL     OW  978   3.136   2.248   1.262
 2411SOL    HW1  979   3.157   2.322   1.326
 2411SOL    HW2  980   3.047   2.265   1.219
 2412SOL     OW  981   1.926   3.426   1.331
 2412SOL    HW1  982   1.880   3.508   1.297
 2412SOL    HW2  983   2.024   3.445   1.340
 2416SOL     OW  984   3.134   3.307   1.142
 2416SOL    HW1  985   3.181   3.320   1.229
 2416SOL    HW2  986   3.068   3.233   1.151
 2418SOL     OW  987   2.216   3.372   1.329
 2418SOL    HW1  988   2.195   3.328   1.242
 2418SOL    HW2  989   2.313   3.398   1.332
 2419SOL     OW  990   2.264   2.613   1.598
 2419SOL    HW1  991   2.332   2.668   1.551
 2419SOL    HW2  992   2.304   2.525   1.625
 2420SOL     OW  993   3.449   2.641   1.670
 2420SOL    HW1  994   3.357   2.679   1.665
 2420SOL    HW2  995   3.509   2.688   1.605
 2421SOL     OW  996   2.875   1.967   1.770
 2421SOL    HW1  997   2.881   2.052   1.718
 2421SOL    HW2  998   2.907   1.891   1.713
 2422SOL     OW  999   2.366   1.912   1.740
 2422SOL    HW1 1000   2.324   1.855   1.670
 2422SOL    HW2 1001   2.300   1.981   1.772
 2423SOL     OW 1002   2.435   2.732   1.029
 2423SOL    HW1 1003   2.479   2.821   1.020
 2423SOL    HW2 1004   2.372   2.732   1.106
 2424SOL     OW 1005   3.222   2.724   1.045
 2424SOL    HW1 1006   3.147   2.724   0.979
 2424SOL    HW2 1007   3.259   2.632   1.054
 2426SOL     OW 1008   2.169   2.075   1.231
 2426SOL    HW1 1009   2.146   2.112   1.321
 2426SOL    HW2 1010   2.139   1.980   1.225
 2427SOL     OW 1011   1.899   3.172   1.282
 2427SOL    HW1 1012   1.952   3.123   1.350
 2427SOL    HW2 1013   1.921   3.270   1.287
 2428SOL     OW 1014   2.594   2.496   1.064
 2428SOL    HW1 1015   2.653   2.470   0.988
 2428SOL    HW2 1016   2.566   2.592   1.053
 2429SOL     OW 1017   3.590   2.797   1.854
 2429SOL    HW1 1018   3.544   2.790   1.765
 2429SOL    HW2 1019   3.528   2.841   1.920
 2432SOL     OW 1020   2.885   2.628   0.966
 2432SOL    HW1 1021   2.900   2.649   1.062
 2432SOL    HW2 1022   2.855   2.533   0.957
 2433SOL     OW 1023   2.842   3.435   1.700
 2433SOL    HW1 1024   2.822   3.479   1.612
 2433SOL    HW2 1025   2.881   3.344   1.684
 2434SOL     OW 1026   3.721   3.380   1.605
 2434SOL    HW1 1027   3.735   3.407   1.510
 2434SOL    HW2 1028   3.804   3.402   1.658
 2435SOL     OW 1029   2.212   2.760   1.804
 2435SOL    HW1 1030   2.288   2.804   1.852
 2435SOL    HW2 1031   2.247   2.713   1.722
 2439SOL     OW 1032   2.181   2.672   0.949
 2439SOL    HW1 1033   2.274   2.708   0.954
 2439SOL    HW2 1034   2.175   2.587   1.001
 2440SOL     OW 1035   2.201   2.371   1.006
 2440SOL    HW1 1036   2.149   2.288   0.989
 2440SOL    HW2 1037   2.278   2.376   0.942
 2441SOL     OW 1038   3.000   2.242   1.678
 2441SOL    HW1 1039   2.955   2.305   1.742
 2441SOL    HW2 1040   3.093   2.273   1.661
 2442SOL     OW 1041   3.022   2.069   1.477
 2442SOL    HW1 1042   3.022   2.133   1.554
 2442SOL    HW2 1043   3.050   2.117   1.394
 2446SOL     OW 1044   2.864   2.658   1.238
 2446SOL    HW1 1045   2.905   2.626   1.324
 2446SOL    HW2 1046   2.768   2.631   1.235
 2447SOL     OW 1047   1.902   2.406   1.114
 2447SOL    HW1 1048   1.987   2.373   1.073
 2447SOL    HW2 1049   1.915   2.421   1.212
 2448SOL     OW 1050   2.051   2.382   1.722
 2448SOL    HW1 1051   2.110   2.342   1.652
 2448SOL    HW2 1052   1.993   2.453   1.681
 2449SOL     OW 1053   3.231   2.812   1.660
 2449SOL    HW1 1054   3.270   2.901   1.680
 2449SOL    HW2 1055   3.241   2.792   1.563
 2451SOL     OW 1056   3.519   2.466   1.206
 2451SOL    HW1 1057   3.481   2.397   1.268
 2451SOL    HW2 1058   3.601   2.430   1.162
 2452SOL     OW 1059   2.114   3.426   1.744
 2452SOL    HW1 1060   2.084   3.483   1.820
 2452SOL    HW2 1061   2.107   3.329   1.770
 2453SOL     OW 1062   2.533   2.326   1.269
 2453SOL    HW1 1063   2.499   2.237   1.239
 2453SOL    HW2 1064   2.559   2.380   1.189
 2454SOL     OW 1065   2.792   3.540   1.465
 2454SOL    HW1 1066   2.768   3.522   1.370
 2454SOL    HW2 1067   2.822   3.634   1.475
 2456SOL     OW 1068   2.021   2.999   1.466
 2456SOL    HW1 1069   2.043   2.938   1.542
 2456SOL    HW2 1070   2.031   2.950   1.380
 2457SOL     OW 1071   3.209   2.921   1.234
 2457SOL    HW1 1072   3.233   2.858   1.160
 2457SOL    HW2 1073   3.119   2.961   1.216
 2462SOL     OW 1074   2.550   3.524   1.716
 2462SOL    HW1 1075   2.494   3.605   1.725
 2462SOL    HW2 1076   2.602   3.528   1.630
 2466SOL     OW 1077   1.992   3.656   1.851
 2466SOL    HW1 1078   1.951   3.582   1.904
 2466SOL    HW2 1079   2.056   3.707   1.909
 2468SOL     OW 1080   2.692   3.135   1.422
 2468SOL    HW1 1081   2.687   3.168   1.517
 2468SOL    HW2 1082   2.606   3.154   1.376
 2470SOL     OW 1083   3.512   3.582   1.394
 2470SOL    HW1 1084   3.565   3.592   1.310
 2470SOL    HW2 1085   3.485   3.672   1.428
 2474SOL     OW 1086   2.684   2.864   1.372
 2474SOL    HW1 1087   2.724   2.863   1.280
 2474SOL    HW2 1088   2.694   2.956   1.412
 2477SOL     OW 1089   2.234   3.150   1.490
 2477SOL    HW1 1090   2.221   3.243   1.456
 2477SOL    HW2 1091   2.150   3.098   1.477
 2478SOL     OW 1092   3.476   3.154   1.289
 2478SOL    HW1 1093   3.536   3.157   1.369
 2478SOL    HW2 1094   3.401   3.218   1.302
 2480SOL     OW 1095   2.876   2.098   0.971
 2480SOL    HW1 1096   2.868   2.062   0.878
 2480SOL    HW2 1097   2.874   2.022   1.036
 2482SOL     OW 1098   3.571   2.247   1.381
 2482SOL    HW1 1099   3.644   2.316   1.385
 2482SOL    HW2 1100   3.599   2.172   1.322
 2484SOL     OW 1101   1.967   2.875   1.726
 2484SOL    HW1 1102   1.890   2.842   1.780
 2484SOL    HW2 1103   2.052   2.845   1.768
 2485SOL     OW 1104   2.534   2.065   1.489
 2485SOL    HW1 1105   2.624   2.049   1.449
 2485SOL    HW2 1106   2.542   2.070   1.588
 2487SOL     OW 1107   3.302   2.718   1.398
 2487SOL    HW1 1108   3.245   2.770   1.335
 2487SOL    HW2 1109   3.398   2.730   1.374
 2490SOL     OW 1110   2.475   2.704   1.431
 2490SOL    HW1 1111   2.531   2.785   1.414
 2490SOL    HW2 1112   2.534   2.624   1.434
 2492SOL     OW 1113   2.578   2.427   1.708
 2492SOL    HW1 1114   2.597   2.492   1.782
 2492SOL    HW2 1115   2.638   2.347   1.717
 2493SOL     OW 1116   3.312   3.082   1.633
 2493SOL    HW1 1117   3.303   3.072   1.732
 2493SOL    HW2 1118   3.408   3.075   1.607
 2494SOL     OW 1119   2.252   3.603   1.560
 2494SOL    HW1 1120   2.161   3.644   1.558
 2494SOL    HW2 1121   2.245   3.509   1.592
 2495SOL     OW 1122   3.536   2.745   1.254
 2495SOL    HW1 1123   3.509   2.656   1.217
 2495SOL    HW2 1124   3.537   2.813   1.181
 2498SOL     OW 1125   3.639   2.204   1.642
 2498SOL    HW1 1126   3.622   2.235   1.548
 2498SOL    HW2 1127   3.555   2.167   1.680
 2499SOL     OW 1128   3.592   2.796   1.517
 2499SOL    HW1 1129   3.630   2.887   1.532
 2499SOL    HW2 1130   3.584   2.779   1.418
 2502SOL     OW 1131   2.721   2.818   0.861
 2502SOL    HW1 1132   2.775   2.749   0.909
 2502SOL    HW2 1133   2.689   2.887   0.927
 2505SOL     OW 1134   2.083   3.176   1.844
 2505SOL    HW1 1135   2.018   3.103   1.823
 2505SOL    HW2 1136   2.087   3.190   1.942
 2507SOL     OW 1137   2.534   3.253   1.624
 2507SOL    HW1 1138   2.456   3.203   1.662
 2507SOL    HW2 1139   2.531   3.348   1.655
 2511SOL     OW 1140   2.179   2.409   1.280
 2511SOL    HW1 1141   2.217   2.350   1.352
 2511SOL    HW2 1142   2.219   2.383   1.192
 2513SOL     OW 1143   3.286   2.076   1.112
 2513SOL    HW1 1144   3.338   2.011   1.167
 2513SOL    HW2 1145   3.237   2.139   1.173
 2514SOL     OW 1146   2.863   1.896   1.154
 2514SOL    HW1 1147   2.800   1.824   1.123
 2514SOL    HW2 1148   2.956   1.860   1.154
 2516SOL     OW 1149   2.480   3.429   1.284
 2516SOL    HW1 1150   2.475   3.511   1.341
 2516SOL    HW2 1151   2.569   3.426   1.239
 2522SOL     OW 1152   2.092   2.490   1.975
 2522SOL    HW1 1153   1.999   2.488   2.012
 2522SOL    HW2 1154   2.093   2.451   1.883
 2523SOL     OW 1155   2.087   2.137   2.858
 2523SOL    HW1 1156   2.122   2.120   2.950
 2523SOL    HW2 1157   1.999   2.092   2.846
 2524SOL     OW 1158   1.881   2.230   2.509
 2524SOL    HW1 1159   1.799   2.273   2.548
 2524SOL    HW2 1160   1.853   2.157   2.446
 2525SOL     OW 1161   2.431   3.137   3.027
 2525SOL    HW1 1162   2.338   3.130   2.990
 2525SOL    HW2 1163   2.442   3.226   3.071
 2526SOL     OW 1164   3.417   3.373   2.565
 2526SOL    HW1 1165   3.360   3.357   2.646
 2526SOL    HW2 1166   3.358   3.383   2.485
 2527SOL     OW 1167   2.997   2.565   2.579
 2527SOL    HW1 1168   3.054   2.643   2.554
 2527SOL    HW2 1169   2.937   2.591   2.655
 2528SOL     OW 1170   3.617   2.469   2.093
 2528SOL    HW1 1171   3.605   2.456   1.994
 2528SOL    HW2 1172   3.587   2.388   2.142
 2529SOL     OW 1173   2.630   3.006   2.885
 2529SOL    HW1 1174   2.552   3.023   2.945
 2529SOL    HW2 1175   2.664   3.093   2.849
 2530SOL     OW 1176   2.712   2.660   3.685
 2530SOL    HW1 1177   2.708   2.736   3.750
 2530SOL    HW2 1178   2.734   2.696   3.594
 2531SOL     OW 1179   2.548   3.023   3.665
 2531SOL    HW1 1180   2.608   3.102   3.679
 2531SOL    HW2 1181   2.462   3.054   3.624
 2532SOL     OW 1182   2.197   3.297   2.923
 2532SOL    HW1 1183   2.119   3.266   2.870
 2532SOL    HW2 1184   2.255   3.355   2.866
 2533SOL     OW 1185   3.322   3.367   3.201
 2533SOL    HW1 1186   3.346   3.461   3.227
 2533SOL    HW2 1187   3.306   3.313   3.283
 2534SOL     OW 1188   2.300   2.254   3.361
 2534SOL    HW1 1189   2.382   2.198   3.370
 2534SOL    HW2 1190   2.219   2.196   3.365
 2535SOL     OW 1191   3.465   2.309   2.599
 2535SOL    HW1 1192   3.391   2.355   2.549
 2535SOL    HW2 1193   3.516   2.377   2.652
 2536SOL     OW 1194   2.093   3.575   2.345
 2536SOL    HW1 1195   2.127   3.652   2.399
 2536SOL    HW2 1196   2.137   3.575   2.255
 2537SOL     OW 1197   2.989   3.203   3.552
 2537SOL    HW1 1198   3.036   3.203   3.640
 2537SOL    HW2 1199   2.941   3.116   3.541
 2538SOL     OW 1200   2.092   3.296   2.400
 2538SOL    HW1 1201   2.066   3.392   2.400
 2538SOL    HW2 1202   2.021   3.242   2.445
 2539SOL     OW 1203   2.102   2.953   2.748
 2539SOL    HW1 1204   2.116   2.869   2.800
 2539SOL    HW2 1205   2.047   3.017   2.803
 2540SOL     OW 1206   2.482   3.648   3.301
 2540SOL    HW1 1207   2.390   3.631   3.336
 2540SOL    HW2 1208   2.510   3.740   3.327
 2541SOL     OW 1209   2.468   2.826   1.985
 2541SOL    HW1 1210   2.475   2.910   1.931
 2541SOL    HW2 1211   2.514   2.839   2.073
 2542SOL     OW 1212   3.456   1.976   3.342
 2542SOL    HW1 1213   3.438   2.043   3.270
 2542SOL    HW2 1214   3.453   2.022   3.431
 2543SOL     OW 1215   1.984   2.505   2.425
 2543SOL    HW1 1216   1.939   2.417   2.442
 2543SOL    HW2 1217   1.983   2.559   2.509
 2544SOL     OW 1218   3.704   3.629   2.221
 2544SOL    HW1 1219   3.758   3.600   2.301
 2544SOL    HW2 1220   3.734   3.719   2.192
 2545SOL     OW 1221   1.889   3.458   1.979
 2545SOL    HW1 1222   1.870   3.362   2.000
 2545SOL    HW2 1223   1.856   3.516   2.054
 2546SOL     OW 1224   3.551   2.784   2.474
 2546SOL    HW1 1225   3.646   2.755   2.482
 2546SOL    HW2 1226   3.543   2.849   2.399
 2547SOL     OW 1227   3.503   2.970   2.294
 2547SOL    HW1 1228   3.589   2.972   2.242
 2547SOL    HW2 1229   3.517   3.017   2.382
 2548SOL     OW 1230   1.975   2.599   3.459
 2548SOL    HW1 1231   2.063   2.586   3.504
 2548SOL    HW2 1232   1.962   2.696   3.437
 2549SOL     OW 1233   3.155   3.090   3.285
 2549SOL    HW1 1234   3.192   3.017   3.227
 2549SOL    HW2 1235   3.207   3.095   3.370
 2550SOL     OW 1236   2.671   1.866   2.364
 2550SOL    HW1 1237   2.711   1.957   2.355
 2550SOL    HW2 1238   2.571   1.874   2.370
 2551SOL     OW 1239   2.059   2.838   3.126
 2551SOL    HW1 1240   2.148   2.793   3.112
 2551SOL    HW2 1241   1.986   2.773   3.107
 2552SOL     OW 1242   3.387   2.861   2.052
 2552SOL    HW1 1243   3.324   2.785   2.065
 2552SOL    HW2 1244   3.435   2.879   2.138
 2553SOL     OW 1245   3.049   3.654   3.478
 2553SOL    HW1 1246   3.073   3.714   3.402
 2553SOL    HW2 1247   3.056   3.559   3.448
 2554SOL     OW 1248   2.179   2.113   3.663
 2554SOL    HW1 1249   2.250   2.184   3.669
 2554SOL    HW2 1250   2.091   2.152   3.691
 2555SOL     OW 1251   3.328   3.279   2.815
 2555SOL    HW1 1252   3.269   3.285   2.895
 2555SOL    HW2 1253   3.313   3.191   2.769
 2556SOL     OW 1254   3.529   3.576   2.434
 2556SOL    HW1 1255   3.488   3.553   2.346
 2556SOL    HW2 1256   3.511   3.502   2.499
 2557SOL     OW 1257   2.460   2.591   2.132
 2557SOL    HW1 1258   2.484   2.660   2.064
 2557SOL    HW2 1259   2.382   2.624   2.186
 2558SOL     OW 1260   3.143   2.207   2.806
 2558SOL    HW1 1261   3.057   2.157   2.793
 2558SOL    HW2 1262   3.205   2.153   2.862
 2559SOL     OW 1263   3.438   3.524   2.169
 2559SOL    HW1 1264   3.527   3.570   2.172
 2559SOL    HW2 1265   3.417   3.500   2.074
 2560SOL     OW 1266   2.669   2.467   3.327
 2560SOL    HW1 1267   2.622   2.464   3.416
 2560SOL    HW2 1268   2.618   2.412   3.261
 2561SOL     OW 1269   3.256   2.331   3.536
 2561SOL    HW1 1270   3.236   2.374   3.624
 2561SOL    HW2 1271   3.334   2.269   3.545
 2562SOL     OW 1272   2.835   2.752   3.434
 2562SOL    HW1 1273   2.881   2.668   3.405
 2562SOL    HW2 1274   2.779   2.786   3.359
 2563SOL     OW 1275   2.853   2.272   3.104
 2563SOL    HW1 1276   2.776   2.306   3.158
 2563SOL    HW2 1277   2.819   2.221   3.025
 2564SOL     OW 1278   2.903   2.563   2.291
 2564SOL    HW1 1279   2.929   2.559   2.387
 2564SOL    HW2 1280   2.818   2.512   2.277
 2565SOL     OW 1281   1.938   2.673   2.651
 2565SOL    HW1 1282   2.037   2.661   2.660
 2565SOL    HW2 1283   1.914   2.768   2.672
 2566SOL     OW 1284   1.992   3.683   3.433
 2566SOL    HW1 1285   1.982   3.668   3.532
 2566SOL    HW2 1286   1.906   3.719   3.397
 2567SOL     OW 1287   2.727   2.210   2.057
 2567SOL    HW1 1288   2.786   2.273   2.008
 2567SOL    HW2 1289   2.746   2.116   2.028
 2568SOL     OW 1290   3.581   2.447   3.693
 2568SOL    HW1 1291   3.555   2.536   3.657
 2568SOL    HW2 1292   3.579   2.379   3.620
 2569SOL     OW 1293   3.224   3.006   2.407
 2569SOL    HW1 1294   3.307   2.977   2.359
 2569SOL    HW2 1295   3.175   3.073   2.351
 2570SOL     OW 1296   2.412   2.058   2.747
 2570SOL    HW1 1297   2.407   2.053   2.847
 2570SOL    HW2 1298   2.414   2.154   2.718
 2571SOL     OW 1299   2.870   3.318   2.339
 2571SOL    HW1 1300   2.824   3.390   2.287
 2571SOL    HW2 1301   2.866   3.338   2.437
 2572SOL     OW 1302   2.213   3.663   2.715
 2572SOL    HW1 1303   2.263   3.577   2.721
 2572SOL    HW2 1304   2.278   3.740   2.712
 2573SOL     OW 1305   3.657   2.928   2.735
 2573SOL    HW1 1306   3.595   2.913   2.659
 2573SOL    HW2 1307   3.605   2.939   2.820
 2574SOL     OW 1308   3.089   3.412   3.368
 2574SOL    HW1 1309   3.095   3.335   3.432
 2574SOL    HW2 1310   3.037   3.386   3.288
 2575SOL     OW 1311   2.183   2.805   2.104
 2575SOL    HW1 1312   2.265   2.844   2.062
 2575SOL    HW2 1313   2.156   2.723   2.055
 2576SOL     OW 1314   3.320   2.597   2.590
 2576SOL    HW1 1315   3.315   2.532   2.665
 2576SOL    HW2 1316   3.400   2.656   2.603
 2577SOL     OW 1317   2.323   3.128   3.589
 2577SOL    HW1 1318   2.273   3.129   3.503
 2577SOL    HW2 1319   2.260   3.110   3.665
 2578SOL     OW 1320   2.973   3.638   2.099
 2578SOL    HW1 1321   2.913   3.576   2.149
 2578SOL    HW2 1322   3.004   3.594   2.014
 2579SOL     OW 1323   2.064   2.147   3.360
 2579SOL    HW1 1324   1.984   2.207   3.347
 2579SOL    HW2 1325   2.054   2.098   3.446
 2580SOL     OW 1326   3.494   3.239   1.943
 2580SOL    HW1 1327   3.462   3.333   1.933
 2580SOL    HW2 1328   3.418   3.176   1.931
 2581SOL     OW 1329   2.326   3.605   2.185
 2581SOL    HW1 1330   2.359   3.644   2.271
 2581SOL    HW2 1331   2.402   3.598   2.120
 2582SOL     OW 1332   3.262   1.969   2.288
 2582SOL    HW1 1333   3.238   1.932   2.198
 2582SOL    HW2 1334   3.361   1.985   2.292
 2583SOL     OW 1335   2.111   3.647   3.103
 2583SOL    HW1 1336   2.168   3.582   3.153
 2583SOL    HW2 1337   2.095   3.614   3.010
 2584SOL     OW 1338   2.802   3.560   2.766
 2584SOL    HW1 1339   2.882   3.503   2.787
 2584SOL    HW2 1340   2.753   3.520   2.689
 2585SOL     OW 1341   2.244   2.562   2.342
 2585SOL    HW1 1342   2.289   2.472   2.339
 2585SOL    HW2 1343   2.150   2.551   2.375
 2586SOL     OW 1344   3.409   2.084   3.591
 2586SOL    HW1 1345   3.404   2.121   3.683
 2586SOL    HW2 1346   3.337   2.015   3.579
 2587SOL     OW 1347   2.476   1.984   1.979
 2587SOL    HW1 1348   2.574   1.962   1.986
 2587SOL    HW2 1349   2.445   1.967   1.886
 2588SOL     OW 1350   2.643   2.126   3.611
 2588SOL    HW1 1351   2.710   2.065   3.654
 2588SOL    HW2 1352   2.570   2.145   3.676
 2589SOL     OW 1353   2.750   3.376   3.057
 2589SOL    HW1 1354   2.727   3.351   2.963
 2589SOL    HW2 1355   2.811   3.307   3.096
 2590SOL     OW 1356   3.213   2.452   3.295
 2590SOL    HW1 1357   3.241   2.409   3.380
 2590SOL    HW2 1358   3.238   2.548   3.296
 2591SOL     OW 1359   2.401   1.926   2.374
 2591SOL    HW1 1360   2.320   1.927   2.432
 2591SOL    HW2 1361   2.404   2.009   2.319
 2592SOL     OW 1362   3.296   3.050   1.903
 2592SOL    HW1 1363   3.328   2.974   1.960
 2592SOL    HW2 1364   3.204   3.077   1.933
 2593SOL     OW 1365   2.159   1.897   2.033
 2593SOL    HW1 1366   2.208   1.981   2.012
 2593SOL    HW2 1367   2.221   1.832   2.078
 2594SOL     OW 1368   2.797   2.098   2.342
 2594SOL    HW1 1369   2.749   2.139   2.264
 2594SOL    HW2 1370   2.896   2.096   2.323
 2595SOL     OW 1371   2.938   2.545   3.326
 2595SOL    HW1 1372   2.858   2.484   3.329
 2595SOL    HW2 1373   3.019   2.492   3.302
 2596SOL     OW 1374   3.089   3.432   2.655
 2596SOL    HW1 1375   3.110   3.506   2.590
 2596SOL    HW2 1376   3.157   3.432   2.728
 2597SOL     OW 1377   3.133   3.659   2.453
 2597SOL    HW1 1378   3.177   3.723   2.389
 2597SOL    HW2 1379   3.083   3.711   2.523
 2598SOL     OW 1380   2.894   2.411   1.878
 2598SOL    HW1 1381   2.853   2.493   1.839
 2598SOL    HW2 1382   2.958   2.437   1.951
 2599SOL     OW 1383   1.940   2.418   3.248
 2599SOL    HW1 1384   2.032   2.417   3.207
 2599SOL    HW2 1385   1.934   2.492   3.315
 2600SOL     OW 1386   2.423   2.084   3.009
 2600SOL    HW1 1387   2.461   2.000   3.046
 2600SOL    HW2 1388   2.335   2.103   3.053
 2601SOL     OW 1389   2.879   1.901   2.615
 2601SOL    HW1 1390   2.807   1.906   2.546
 2601SOL    HW2 1391   2.855   1.832   2.684
 2602SOL     OW 1392   3.291   3.035   2.729
 2602SOL    HW1 1393   3.236   2.951   2.722
 2602SOL    HW2 1394   3.317   3.064   2.637
 2603SOL     OW 1395   3.328   2.452   2.854
 2603SOL    HW1 1396   3.298   2.357   2.861
 2603SOL    HW2 1397   3.401   2.468   2.920
 2604SOL     OW 1398   3.719   2.695   2.239
 2604SOL    HW1 1399   3.761   2.631   2.303
 2604SOL    HW2 1400   3.681   2.644   2.161
 2605SOL     OW 1401   2.350   3.247   2.036
 2605SOL    HW1 1402   2.263   3.232   2.083
 2605SOL    HW2 1403   2.333   3.273   1.941
 2606SOL     OW 1404   3.526   3.142   2.519
 2606SOL    HW1 1405   3.625   3.150   2.533
 2606SOL    HW2 1406   3.481   3.226   2.550
 2607SOL     OW 1407   3.252   2.437   1.940
 2607SOL    HW1 1408   3.198   2.416   2.021
 2607SOL    HW2 1409   3.343   2.396   1.949
 2608SOL     OW 1410   2.389   2.118   2.190
 2608SOL    HW1 1411   2.416   2.059   2.115
 2608SOL    HW2 1412   2.389   2.213   2.159
 2609SOL     OW 1413   3.616   3.085   3.450
 2609SOL    HW1 1414   3.707   3.046   3.437
 2609SOL    HW2 1415   3.624   3.181   3.474
 2610SOL     OW 1416   2.926   3.209   3.202
 2610SOL    HW1 1417   2.846   3.186   3.257
 2610SOL    HW2 1418   3.009   3.183   3.251
 2611SOL     OW 1419   3.454   3.491   3.487
 2611SOL    HW1 1420   3.481   3.525   3.397
 2611SOL    HW2 1421   3.533   3.453   3.533
 2612SOL     OW 1422   2.973   3.057   2.962
 2612SOL    HW1 1423   2.933   3.101   3.043
 2612SOL    HW2 1424   2.932   3.094   2.879
 2613SOL     OW 1425   3.500   2.961   2.941
 2613SOL    HW1 1426   3.505   3.042   3.000
 2613SOL    HW2 1427   3.414   2.963   2.890
 2614SOL     OW 1428   2.777   1.951   3.264
 2614SOL    HW1 1429   2.802   1.931   3.169
 2614SOL    HW2 1430   2.849   2.007   3.306
 2615SOL     OW 1431   2.842   2.978   3.581
 2615SOL    HW1 1432   2.743   2.984   3.591
 2615SOL    HW2 1433   2.865   2.898   3.525
 2616SOL     OW 1434   2.567   2.912   2.230
 2616SOL    HW1 1435   2.553   2.919   2.329
 2616SOL    HW2 1436   2.651   2.861   2.212
 2617SOL     OW 1437   2.272   2.675   3.113
 2617SOL    HW1 1438   2.358   2.687   3.163
 2617SOL    HW2 1439   2.230   2.588   3.140
 2618SOL     OW 1440   3.136   2.248   3.124
 2618SOL    HW1 1441   3.157   2.322   3.188
 2618SOL    HW2 1442   3.047   2.265   3.081
 2619SOL     OW 1443   1.926   3.426   3.193
 2619SOL    HW1 1444   1.880   3.508   3.159
 2619SOL    HW2 1445   2.024   3.445   3.202
 2620SOL     OW 1446   2.229   2.962   2.363
 2620SOL    HW1 1447   2.222   3.045   2.307
 2620SOL    HW2 1448   2.233   2.882   2.303
 2621SOL     OW 1449   2.428   2.399   2.727
 2621SOL    HW1 1450   2.440   2.465   2.653
 2621SOL    HW2 1451   2.474   2.433   2.810
 2622SOL     OW 1452   3.114   3.210   2.250
 2622SOL    HW1 1453   3.164   3.287   2.290
 2622SOL    HW2 1454   3.019   3.212   2.282
 2623SOL     OW 1455   3.134   3.307   3.004
 2623SOL    HW1 1456   3.181   3.320   3.091
 2623SOL    HW2 1457   3.068   3.233   3.013
 2624SOL     OW 1458   3.444   2.501   2.334
 2624SOL    HW1 1459   3.413   2.562   2.407
 2624SOL    HW2 1460   3.494   2.553   2.265
 2625SOL     OW 1461   2.216   3.372   3.191
 2625SOL    HW1 1462   2.195   3.328   3.104
 2625SOL    HW2 1463   2.313   3.398   3.194
 2626SOL     OW 1464   2.264   2.613   3.460
 2626SOL    HW1 1465   2.332   2.668   3.413
 2626SOL    HW2 1466   2.304   2.525   3.487
 2627SOL     OW 1467   3.449   2.641   3.532
 2627SOL    HW1 1468   3.357   2.679   3.527
 2627SOL    HW2 1469   3.509   2.688   3.467
 2628SOL     OW 1470   2.875   1.967   3.632
 2628SOL    HW1 1471   2.881   2.052   3.580
 2628SOL    HW2 1472   2.907   1.891   3.575
 2629SOL     OW 1473   2.366   1.912   3.602
 2629SOL    HW1 1474   2.324   1.855   3.532
 2629SOL    HW2 1475   2.300   1.981   3.634
 2630SOL     OW 1476   2.435   2.732   2.891
 2630SOL    HW1 1477   2.479   2.821   2.882
 2630SOL    HW2 1478   2.372   2.732   2.968
 2631SOL     OW 1479   3.222   2.724   2.907
 2631SOL    HW1 1480   3.147   2.724   2.841
 2631SOL    HW2 1481   3.259   2.632   2.916
 2632SOL     OW 1482   3.071   2.387   2.137
 2632SOL    HW1 1483   3.084   2.303   2.191
 2632SOL    HW2 1484   3.042   2.461   2.197
 2633SOL     OW 1485   2.169   2.075   3.093
 2633SOL    HW1 1486   2.146   2.112   3.183
 2633SOL    HW2 1487   2.139   1.980   3.087
 2634SOL     OW 1488   1.899   3.172   3.144
 2634SOL    HW1 1489   1.952   3.123   3.212
 2634SOL    HW2 1490   1.921   3.270   3.149
 2635SOL     OW 1491   3.590   2.797   3.716
 2635SOL    HW1 1492   3.544   2.790   3.627
 2635SOL    HW2 1493   3.528   2.841   3.782
 2636SOL     OW 1494   2.169   1.925   2.480
 2636SOL    HW1 1495   2.158   2.019   2.513
 2636SOL    HW2 1496   2.164   1.862   2.557
 2637SOL     OW 1497   3.484   2.229   2.236
 2637SOL    HW1 1498   3.486   2.153   2.300
 2637SOL    HW2 1499   3.436   2.306   2.276
 2638SOL     OW 1500   2.842   3.435   3.562
 2638SOL    HW1 1501   2.822   3.479   3.474
 2638SOL    HW2 1502   2.881   3.344   3.546
 2639SOL     OW 1503   3.721   3.380   3.467
 2639SOL    HW1 1504   3.735   3.407   3.372
 2639SOL    HW2 1505   3.804   3.402   3.520
 2640SOL     OW 1506   2.212   2.760   3.666
 2640SOL    HW1 1507   2.288   2.804   3.714
 2640SOL    HW2 1508   2.247   2.713   3.584
 2641SOL     OW 1509   3.402   2.136   1.987
 2641SOL    HW1 1510   3.341   2.061   2.010
 2641SOL    HW2 1511   3.424   2.188   2.070
 2642SOL     OW 1512   3.165   2.700   1.904
 2642SOL    HW1 1513   3.199   2.607   1.919
 2642SOL    HW2 1514   3.183   2.727   1.809
 2643SOL     OW 1515   2.930   3.195   2.711
 2643SOL    HW1 1516   2.937   3.111   2.656
 2643SOL    HW2 1517   2.992   3.264   2.675
 2644SOL     OW 1518   2.181   2.672   2.811
 2644SOL    HW1 1519   2.274   2.708   2.816
 2644SOL    HW2 1520   2.175   2.587   2.863
 2645SOL     OW 1521   2.201   2.371   2.868
 2645SOL    HW1 1522   2.149   2.288   2.851
 2645SOL    HW2 1523   2.278   2.376   2.804
 2646SOL     OW 1524   3.000   2.242   3.540
 2646SOL    HW1 1525   2.955   2.305   3.604
 2646SOL    HW2 1526   3.093   2.273   3.523
 2647SOL     OW 1527   3.022   2.069   3.339
 2647SOL    HW1 1528   3.022   2.133   3.416
 2647SOL    HW2 1529   3.050   2.117   3.256
 2648SOL     OW 1530   1.870   3.188   2.062
 2648SOL    HW1 1531   1.777   3.209   2.031
 2648SOL    HW2 1532   1.880   3.089   2.075
 2649SOL     OW 1533   1.950   3.663   2.789
 2649SOL    HW1 1534   1.908   3.577   2.762
 2649SOL    HW2 1535   2.044   3.666   2.755
 2650SOL     OW 1536   2.366   3.430   2.772
 2650SOL    HW1 1537   2.432   3.504   2.781
 2650SOL    HW2 1538   2.410   3.351   2.730
 2651SOL     OW 1539   2.864   2.658   3.100
 2651SOL    HW1 1540   2.905   2.626   3.186
 2651SOL    HW2 1541   2.768   2.631   3.097
 2652SOL     OW 1542   1.902   2.406   2.976
 2652SOL    HW1 1543   1.987   2.373   2.935
 2652SOL    HW2 1544   1.915   2.421   3.074
 2653SOL     OW 1545   2.051   2.382   3.584
 2653SOL    HW1 1546   2.110   2.342   3.514
 2653SOL    HW2 1547   1.993   2.453   3.543
 2654SOL     OW 1548   3.231   2.812   3.522
 2654SOL    HW1 1549   3.270   2.901   3.542
 2654SOL    HW2 1550   3.241   2.792   3.425
 2655SOL     OW 1551   2.677   2.434   2.187
 2655SOL    HW1 1552   2.684   2.345   2.141
 2655SOL    HW2 1553   2.583   2.468   2.179
 2656SOL     OW 1554   3.519   2.466   3.068
 2656SOL    HW1 1555   3.481   2.397   3.130
 2656SOL    HW2 1556   3.601   2.430   3.024
 2657SOL     OW 1557   2.114   3.426   3.606
 2657SOL    HW1 1558   2.084   3.483   3.682
 2657SOL    HW2 1559   2.107   3.329   3.632
 2658SOL     OW 1560   2.533   2.326   3.131
 2658SOL    HW1 1561   2.499   2.237   3.101
 2658SOL    HW2 1562   2.559   2.380   3.051
 2659SOL     OW 1563   2.792   3.540   3.327
 2659SOL    HW1 1564   2.768   3.522   3.232
 2659SOL    HW2 1565   2.822   3.634   3.337
 2660SOL     OW 1566   2.335   2.362   2.053
 2660SOL    HW1 1567   2.396   2.442   2.057
 2660SOL    HW2 1568   2.240   2.393   2.060
 2661SOL     OW 1569   2.021   2.999   3.328
 2661SOL    HW1 1570   2.043   2.938   3.404
 2661SOL    HW2 1571   2.031   2.950   3.242
 2662SOL     OW 1572   3.209   2.921   3.096
 2662SOL    HW1 1573   3.233   2.858   3.022
 2662SOL    HW2 1574   3.119   2.961   3.078
 2663SOL     OW 1575   3.164   2.717   2.171
 2663SOL    HW1 1576   3.078   2.686   2.213
 2663SOL    HW2 1577   3.160   2.703   2.072
 2664SOL     OW 1578   3.621   3.609   3.016
 2664SOL    HW1 1579   3.682   3.639   2.943
 2664SOL    HW2 1580   3.583   3.520   2.994
 2665SOL     OW 1581   3.114   3.593   2.990
 2665SOL    HW1 1582   3.198   3.598   2.936
 2665SOL    HW2 1583   3.091   3.497   3.008
 2666SOL     OW 1584   1.945   3.120   2.884
 2666SOL    HW1 1585   1.940   3.119   2.984
 2666SOL    HW2 1586   1.862   3.079   2.846
 2667SOL     OW 1587   2.550   3.524   3.578
 2667SOL    HW1 1588   2.494   3.605   3.587
 2667SOL    HW2 1589   2.602   3.528   3.492
 2668SOL     OW 1590   3.588   1.997   2.385
 2668SOL    HW1 1591   3.661   1.980   2.318
 2668SOL    HW2 1592   3.557   1.910   2.423
 2669SOL     OW 1593   3.250   3.435   2.339
 2669SOL    HW1 1594   3.317   3.447   2.265
 2669SOL    HW2 1595   3.210   3.524   2.362
 2670SOL     OW 1596   1.992   3.656   3.713
 2670SOL    HW1 1597   1.951   3.582   3.766
 2670SOL    HW2 1598   2.056   3.707   3.771
 2671SOL     OW 1599   3.142   2.789   2.534
 2671SOL    HW1 1600   3.202   2.708   2.536
 2671SOL    HW2 1601   3.182   2.858   2.474
 2672SOL     OW 1602   2.692   3.135   3.284
 2672SOL    HW1 1603   2.687   3.168   3.379
 2672SOL    HW2 1604   2.606   3.154   3.238
 2673SOL     OW 1605   2.534   3.478   2.016
 2673SOL    HW1 1606   2.543   3.488   1.917
 2673SOL    HW2 1607   2.494   3.389   2.037
 2674SOL     OW 1608   3.512   3.582   3.256
 2674SOL    HW1 1609   3.565   3.592   3.172
 2674SOL    HW2 1610   3.485   3.672   3.290
 2675SOL     OW 1611   3.703   2.037   2.825
 2675SOL    HW1 1612   3.742   1.952   2.789
 2675SOL    HW2 1613   3.605   2.039   2.806
 2676SOL     OW 1614   2.125   2.188   2.582
 2676SOL    HW1 1615   2.046   2.239   2.548
 2676SOL    HW2 1616   2.116   2.173   2.680
 2677SOL     OW 1617   3.056   3.474   1.893
 2677SOL    HW1 1618   3.062   3.381   1.930
 2677SOL    HW2 1619   2.997   3.474   1.813
 2678SOL     OW 1620   2.684   2.864   3.234
 2678SOL    HW1 1621   2.724   2.863   3.142
 2678SOL    HW2 1622   2.694   2.956   3.274
 2679SOL     OW 1623   2.778   2.772   2.153
 2679SOL    HW1 1624   2.841   2.810   2.085
 2679SOL    HW2 1625   2.818   2.689   2.192
 2680SOL     OW 1626   3.366   3.469   1.906
 2680SOL    HW1 1627   3.274   3.506   1.913
 2680SOL    HW2 1628   3.404   3.489   1.816
 2681SOL     OW 1629   2.234   3.150   3.352
 2681SOL    HW1 1630   2.221   3.243   3.318
 2681SOL    HW2 1631   2.150   3.098   3.339
 2682SOL     OW 1632   3.476   3.154   3.151
 2682SOL    HW1 1633   3.536   3.157   3.231
 2682SOL    HW2 1634   3.401   3.218   3.164
 2683SOL     OW 1635   2.901   2.960   2.558
 2683SOL    HW1 1636   2.831   2.913   2.612
 2683SOL    HW2 1637   2.960   2.892   2.515
 2684SOL     OW 1638   2.452   3.349   2.353
 2684SOL    HW1 1639   2.494   3.291   2.283
 2684SOL    HW2 1640   2.408   3.428   2.309
 2685SOL     OW 1641   3.571   2.247   3.243
 2685SOL    HW1 1642   3.644   2.316   3.247
 2685SOL    HW2 1643   3.599   2.172   3.184
 2686SOL     OW 1644   2.117   3.210   2.152
 2686SOL    HW1 1645   2.021   3.211   2.125
 2686SOL    HW2 1646   2.129   3.263   2.236
 2687SOL     OW 1647   1.967   2.875   3.588
 2687SOL    HW1 1648   1.890   2.842   3.642
 2687SOL    HW2 1649   2.052   2.845   3.630
 2688SOL     OW 1650   2.534   2.065   3.351
 2688SOL    HW1 1651   2.624   2.049   3.311
 2688SOL    HW2 1652   2.542   2.070   3.450
 2689SOL     OW 1653   1.937   2.207   1.895
 2689SOL    HW1 1654   1.845   2.179   1.866
 2689SOL    HW2 1655   1.968   2.284   1.839
 2690SOL     OW 1656   3.302   2.718   3.260
 2690SOL    HW1 1657   3.245   2.770   3.197
 2690SOL    HW2 1658   3.398   2.730   3.236
 2691SOL     OW 1659   1.934   2.028   2.180
 2691SOL    HW1 1660   1.917   2.111   2.126
 2691SOL    HW2 1661   2.024   1.991   2.158
 2692SOL     OW 1662   3.045   3.197   1.981
 2692SOL    HW1 1663   2.946   3.186   1.983
 2692SOL    HW2 1664   3.079   3.212   2.074
 2693SOL     OW 1665   2.475   2.704   3.293
 2693SOL    HW1 1666   2.531   2.785   3.276
 2693SOL    HW2 1667   2.534   2.624   3.296
 2694SOL     OW 1668   3.355   3.629   2.821
 2694SOL    HW1 1669   3.388   3.693   2.752
 2694SOL    HW2 1670   3.421   3.623   2.896
 2695SOL     OW 1671   2.578   2.427   3.570
 2695SOL    HW1 1672   2.597   2.492   3.644
 2695SOL    HW2 1673   2.638   2.347   3.579
 2696SOL     OW 1674   3.312   3.082   3.495
 2696SOL    HW1 1675   3.303   3.072   3.594
 2696SOL    HW2 1676   3.408   3.075   3.469
 2697SOL     OW 1677   2.252   3.603   3.422
 2697SOL    HW1 1678   2.161   3.644   3.420
 2697SOL    HW2 1679   2.245   3.509   3.454
 2698SOL     OW 1680   3.536   2.745   3.116
 2698SOL    HW1 1681   3.509   2.656   3.079
 2698SOL    HW2 1682   3.537   2.813   3.043
 2699SOL     OW 1683   3.087   2.187   2.311
 2699SOL    HW1 1684   3.152   2.113   2.300
 2699SOL    HW2 1685   3.107   2.237   2.395
 2700SOL     OW 1686   3.639   2.204   3.504
 2700SOL    HW1 1687   3.622   2.235   3.410
 2700SOL    HW2 1688   3.555   2.167   3.542
 2701SOL     OW 1689   3.592   2.796   3.379
 2701SOL    HW1 1690   3.630   2.887   3.394
 2701SOL    HW2 1691   3.584   2.779   3.280
 2702SOL     OW 1692   2.721   3.236   1.878
 2702SOL    HW1 1693   2.675   3.251   1.966
 2702SOL    HW2 1694   2.765   3.321   1.848
 2703SOL     OW 1695   2.523   3.652   2.815
 2703SOL    HW1 1696   2.477   3.740   2.802
 2703SOL    HW2 1697   2.622   3.664   2.808
 2704SOL     OW 1698   2.945   2.846   1.949
 2704SOL    HW1 1699   2.922   2.899   1.867
 2704SOL    HW2 1700   3.026   2.790   1.930
 2705SOL     OW 1701   3.723   3.431   2.713
 2705SOL    HW1 1702   3.652   3.419   2.643
 2705SOL    HW2 1703   3.724   3.352   2.773
 2706SOL     OW 1704   2.083   3.176   3.706
 2706SOL    HW1 1705   2.018   3.103   3.685
 2706SOL    HW2 1706   2.087   3.190   3.804
 2707SOL     OW 1707   1.941   3.102   2.515
 2707SOL    HW1 1708   1.940   3.055   2.603
 2707SOL    HW2 1709   2.023   3.074   2.464
 2708SOL     OW 1710   2.534   3.253   3.486
 2708SOL    HW1 1711   2.456   3.203   3.524
 2708SOL    HW2 1712   2.531   3.348   3.517
 2709SOL     OW 1713   3.686   2.054   3.089
 2709SOL    HW1 1714   3.682   1.964   3.133
 2709SOL    HW2 1715   3.689   2.043   2.990
 2710SOL     OW 1716   2.290   2.286   2.382
 2710SOL    HW1 1717   2.320   2.214   2.320
 2710SOL    HW2 1718   2.251   2.246   2.465
 2711SOL     OW 1719   3.567   3.349   2.966
 2711SOL    HW1 1720   3.474   3.324   2.939
 2711SOL    HW2 1721   3.593   3.299   3.048
 2712SOL     OW 1722   2.179   2.409   3.142
 2712SOL    HW1 1723   2.217   2.350   3.214
 2712SOL    HW2 1724   2.219   2.383   3.054
 2713SOL     OW 1725   2.674   3.448   2.549
 2713SOL    HW1 1726   2.706   3.458   2.455
 2713SOL    HW2 1727   2.595   3.386   2.551
 2714SOL     OW 1728   3.286   2.076   2.974
 2714SOL    HW1 1729   3.338   2.011   3.029
 2714SOL    HW2 1730   3.237   2.139   3.035
 2715SOL     OW 1731   2.863   1.896   3.016
 2715SOL    HW1 1732   2.800   1.824   2.985
 2715SOL    HW2 1733   2.956   1.860   3.016
 2716SOL     OW 1734   2.632   3.192   2.163
 2716SOL    HW1 1735   2.586   3.105   2.180
 2716SOL    HW2 1736   2.723   3.189   2.204
 2717SOL     OW 1737   2.480   3.429   3.146
 2717SOL    HW1 1738   2.475   3.511   3.203
 2717SOL    HW2 1739   2.569   3.426   3.101
 2718SOL     OW 1740   3.214   1.914   2.030
 2718SOL    HW1 1741   3.249   1.873   1.946
 2718SOL    HW2 1742   3.124   1.876   2.050
 2719SOL     OW 1743   3.162   2.315   2.553
 2719SOL    HW1 1744   3.103   2.395   2.557
 2719SOL    HW2 1745   3.177   2.280   2.646
 2720SOL     OW 1746   3.455   2.083   2.744
 2720SOL    HW1 1747   3.371   2.082   2.798
 2720SOL    HW2 1748   3.457   2.166   2.688
 2721SOL     OW 1749   1.901   2.939   2.162
 2721SOL    HW1 1750   2.000   2.928   2.153
 2721SOL    HW2 1751   1.861   2.853   2.194
 2722SOL     OW 1752   2.737   3.508   2.199
 2722SOL    HW1 1753   2.660   3.473   2.145
 2722SOL    HW2 1754   2.705   3.579   2.261
 2723SOL     OW 1755   2.092   2.490   3.837
 2723SOL    HW1 1756   1.999   2.488   3.874
 2723SOL    HW2 1757   2.093   2.451   3.745
 2729SOL     OW 1758   3.617   2.469   3.955
 2729SOL    HW1 1759   3.605   2.456   3.856
 2729SOL    HW2 1760   3.587   2.388   4.004
 2731SOL     OW 1761   2.547   2.874   4.389
 2731SOL    HW1 1762   2.616   2.858   4.459
 2731SOL    HW2 1763   2.474   2.931   4.427
 2740SOL     OW 1764   2.468   2.826   3.847
 2740SOL    HW1 1765   2.475   2.910   3.793
 2740SOL    HW2 1766   2.514   2.839   3.935
 2742SOL     OW 1767   1.984   2.505   4.287
 2742SOL    HW1 1768   1.939   2.417   4.304
 2742SOL    HW2 1769   1.983   2.559   4.371
 2744SOL     OW 1770   1.889   3.458   3.841
 2744SOL    HW1 1771   1.870   3.362   3.862
 2744SOL    HW2 1772   1.856   3.516   3.916
 2746SOL     OW 1773   3.503   2.970   4.156
 2746SOL    HW1 1774   3.589   2.972   4.104
 2746SOL    HW2 1775   3.517   3.017   4.244
 2748SOL     OW 1776   2.671   1.866   4.226
 2748SOL    HW1 1777   2.711   1.957   4.217
 2748SOL    HW2 1778   2.571   1.874   4.232
 2750SOL     OW 1779   3.387   2.861   3.914
 2750SOL    HW1 1780   3.324   2.785   3.927
 2750SOL    HW2 1781   3.435   2.879   4.000
 2754SOL     OW 1782   2.460   2.591   3.994
 2754SOL    HW1 1783   2.484   2.660   3.926
 2754SOL    HW2 1784   2.382   2.624   4.048
 2759SOL     OW 1785   2.903   2.563   4.153
 2759SOL    HW1 1786   2.929   2.559   4.249
 2759SOL    HW2 1787   2.818   2.512   4.139
 2762SOL     OW 1788   2.727   2.210   3.919
 2762SOL    HW1 1789   2.786   2.273   3.870
 2762SOL    HW2 1790   2.746   2.116   3.890
 2763SOL     OW 1791   3.224   3.006   4.269
 2763SOL    HW1 1792   3.307   2.977   4.221
 2763SOL    HW2 1793   3.175   3.073   4.213
 2765SOL     OW 1794   2.870   3.318   4.201
 2765SOL    HW1 1795   2.824   3.390   4.149
 2765SOL    HW2 1796   2.866   3.338   4.299
 2768SOL     OW 1797   2.183   2.805   3.966
 2768SOL    HW1 1798   2.265   2.844   3.924
 2768SOL    HW2 1799   2.156   2.723   3.917
 2770SOL     OW 1800   2.973   3.638   3.961
 2770SOL    HW1 1801   2.913   3.576   4.011
 2770SOL    HW2 1802   3.004   3.594   3.876
 2771SOL     OW 1803   3.494   3.239   3.805
 2771SOL    HW1 1804   3.462   3.333   3.795
 2771SOL    HW2 1805   3.418   3.176   3.793
 2772SOL     OW 1806   2.326   3.605   4.047
 2772SOL    HW1 1807   2.359   3.644   4.133
 2772SOL    HW2 1808   2.402   3.598   3.982
 2773SOL     OW 1809   3.262   1.969   4.150
 2773SOL    HW1 1810   3.238   1.932   4.060
 2773SOL    HW2 1811   3.361   1.985   4.154
 2776SOL     OW 1812   2.244   2.562   4.204
 2776SOL    HW1 1813   2.289   2.472   4.201
 2776SOL    HW2 1814   2.150   2.551   4.237
 2777SOL     OW 1815   2.476   1.984   3.841
 2777SOL    HW1 1816   2.574   1.962   3.848
 2777SOL    HW2 1817   2.445   1.967   3.748
 2781SOL     OW 1818   2.401   1.926   4.236
 2781SOL    HW1 1819   2.320   1.927   4.294
 2781SOL    HW2 1820   2.404   2.009   4.181
 2782SOL     OW 1821   3.296   3.050   3.765
 2782SOL    HW1 1822   3.328   2.974   3.822
 2782SOL    HW2 1823   3.204   3.077   3.795
 2783SOL     OW 1824   2.159   1.897   3.895
 2783SOL    HW1 1825   2.208   1.981   3.874
 2783SOL    HW2 1826   2.221   1.832   3.940
 2784SOL     OW 1827   2.797   2.098   4.204
 2784SOL    HW1 1828   2.749   2.139   4.126
 2784SOL    HW2 1829   2.896   2.096   4.185
 2788SOL     OW 1830   2.894   2.411   3.740
 2788SOL    HW1 1831   2.853   2.493   3.701
 2788SOL    HW2 1832   2.958   2.437   3.813
 2791SOL     OW 1833   2.728   2.316   4.366
 2791SOL    HW1 1834   2.696   2.388   4.304
 2791SOL    HW2 1835   2.752   2.235   4.313
 2796SOL     OW 1836   2.350   3.247   3.898
 2796SOL    HW1 1837   2.263   3.232   3.945
 2796SOL    HW2 1838   2.333   3.273   3.803
 2798SOL     OW 1839   3.252   2.437   3.802
 2798SOL    HW1 1840   3.198   2.416   3.883
 2798SOL    HW2 1841   3.343   2.396   3.811
 2799SOL     OW 1842   2.389   2.118   4.052
 2799SOL    HW1 1843   2.416   2.059   3.977
 2799SOL    HW2 1844   2.389   2.213   4.021
 2804SOL     OW 1845   2.567   2.912   4.092
 2804SOL    HW1 1846   2.553   2.919   4.191
 2804SOL    HW2 1847   2.651   2.861   4.074
 2808SOL     OW 1848   2.229   2.962   4.225
 2808SOL    HW1 1849   2.222   3.045   4.169
 2808SOL    HW2 1850   2.233   2.882   4.165
 2810SOL     OW 1851   3.114   3.210   4.112
 2810SOL    HW1 1852   3.164   3.287   4.152
 2810SOL    HW2 1853   3.019   3.212   4.144
 2812SOL     OW 1854   3.444   2.501   4.196
 2812SOL    HW1 1855   3.413   2.562   4.269
 2812SOL    HW2 1856   3.494   2.553   4.127
 2818SOL     OW 1857   3.071   2.387   3.999
 2818SOL    HW1 1858   3.084   2.303   4.053
 2818SOL    HW2 1859   3.042   2.461   4.059
 2823SOL     OW 1860   3.484   2.229   4.098
 2823SOL    HW1 1861   3.486   2.153   4.162
 2823SOL    HW2 1862   3.436   2.306   4.138
 2826SOL     OW 1863   3.402   2.136   3.849
 2826SOL    HW1 1864   3.341   2.061   3.872
 2826SOL    HW2 1865   3.424   2.188   3.932
 2827SOL     OW 1866   3.165   2.700   3.766
 2827SOL    HW1 1867   3.199   2.607   3.781
 2827SOL    HW2 1868   3.183   2.727   3.671
 2833SOL     OW 1869   1.870   3.188   3.924
 2833SOL    HW1 1870   1.777   3.209   3.893
 2833SOL    HW2 1871   1.880   3.089   3.937
 2838SOL     OW 1872   2.677   2.434   4.049
 2838SOL    HW1 1873   2.684   2.345   4.003
 2838SOL    HW2 1874   2.583   2.468   4.041
 2842SOL     OW 1875   2.335   2.362   3.915
 2842SOL    HW1 1876   2.396   2.442   3.919
 2842SOL    HW2 1877   2.240   2.393   3.922
 2845SOL     OW 1878   3.164   2.717   4.033
 2845SOL    HW1 1879   3.078   2.686   4.075
 2845SOL    HW2 1880   3.160   2.703   3.934
 2852SOL     OW 1881   2.534   3.478   3.878
 2852SOL    HW1 1882   2.543   3.488   3.779
 2852SOL    HW2 1883   2.494   3.389   3.899
 2856SOL     OW 1884   3.056   3.474   3.755
 2856SOL    HW1 1885   3.062   3.381   3.792
 2856SOL    HW2 1886   2.997   3.474   3.675
 2858SOL     OW 1887   2.778   2.772   4.015
 2858SOL    HW1 1888   2.841   2.810   3.947
 2858SOL    HW2 1889   2.818   2.689   4.054
 2859SOL     OW 1890   3.366   3.469   3.768
 2859SOL    HW1 1891   3.274   3.506   3.775
 2859SOL    HW2 1892   3.404   3.489   3.678
 2864SOL     OW 1893   2.452   3.349   4.215
 2864SOL    HW1 1894   2.494   3.291   4.145
 2864SOL    HW2 1895   2.408   3.428   4.171
 2866SOL     OW 1896   2.117   3.210   4.014
 2866SOL    HW1 1897   2.021   3.211   3.987
 2866SOL    HW2 1898   2.129   3.263   4.098
 2867SOL     OW 1899   1.937   2.207   3.757
 2867SOL    HW1 1900   1.845   2.179   3.728
 2867SOL    HW2 1901   1.968   2.284   3.701
 2869SOL     OW 1902   1.934   2.028   4.042
 2869SOL    HW1 1903   1.917   2.111   3.988
 2869SOL    HW2 1904   2.024   1.991   4.020
 2870SOL     OW 1905   3.045   3.197   3.843
 2870SOL    HW1 1906   2.946   3.186   3.845
 2870SOL    HW2 1907   3.079   3.212   3.936
 2875SOL     OW 1908   3.087   2.187   4.173
 2875SOL    HW1 1909   3.152   2.113   4.162
 2875SOL    HW2 1910   3.107   2.237   4.257
 2876SOL     OW 1911   2.456   2.607   4.376
 2876SOL    HW1 1912   2.506   2.692   4.357
 2876SOL    HW2 1913   2.368   2.609   4.328
 2878SOL     OW 1914   2.721   3.236   3.740
 2878SOL    HW1 1915   2.675   3.251   3.828
 2878SOL    HW2 1916   2.765   3.321   3.710
 2881SOL     OW 1917   2.945   2.846   3.811
 2881SOL    HW1 1918   2.922   2.899   3.729
 2881SOL    HW2 1919   3.026   2.790   3.792
 2885SOL     OW 1920   2.290   2.286   4.244
 2885SOL    HW1 1921   2.320   2.214   4.182
 2885SOL    HW2 1922   2.251   2.246   4.327
 2891SOL     OW 1923   2.632   3.192   4.025
 2891SOL    HW1 1924   2.586   3.105   4.042
 2891SOL    HW2 1925   2.723   3.189   4.066
 2893SOL     OW 1926   3.214   1.914   3.892
 2893SOL    HW1 1927   3.249   1.873   3.808
 2893SOL    HW2 1928   3.124   1.876   3.912
 2896SOL     OW 1929   1.901   2.939   4.024
 2896SOL    HW1 1930   2.000   2.928   4.015
 2896SOL    HW2 1931   1.861   2.853   4.056
 2897SOL     OW 1932   2.737   3.508   4.061
 2897SOL    HW1 1933   2.660   3.473   4.007
 2897SOL    HW2 1934   2.705   3.579   4.123
 2928SOL     OW 1935   2.179   3.975   1.801
 2928SOL    HW1 1936   2.250   4.046   1.807
 2928SOL    HW2 1937   2.091   4.014   1.829
 2953SOL     OW 1938   3.409   3.946   1.729
 2953SOL    HW1 1939   3.404   3.983   1.821
 2953SOL    HW2 1940   3.337   3.877   1.717
 2955SOL     OW 1941   2.643   3.988   1.749
 2955SOL    HW1 1942   2.710   3.927   1.792
 2955SOL    HW2 1943   2.570   4.007   1.814
 2982SOL     OW 1944   2.777   3.813   1.402
 2982SOL    HW1 1945   2.802   3.793   1.307
 2982SOL    HW2 1946   2.849   3.869   1.444
 2995SOL     OW 1947   2.875   3.829   1.770
 2995SOL    HW1 1948   2.881   3.914   1.718
 2995SOL    HW2 1949   2.907   3.753   1.713
 2996SOL     OW 1950   2.366   3.774   1.740
 2996SOL    HW1 1951   2.324   3.717   1.670
 2996SOL    HW2 1952   2.300   3.843   1.772
 3014SOL     OW 1953   3.000   4.104   1.678
 3014SOL    HW1 1954   2.955   4.167   1.742
 3014SOL    HW2 1955   3.093   4.135   1.661
 3015SOL     OW 1956   3.022   3.931   1.477
 3015SOL    HW1 1957   3.022   3.995   1.554
 3015SOL    HW2 1958   3.050   3.979   1.394
 3046SOL     OW 1959   2.534   3.927   1.489
 3046SOL    HW1 1960   2.624   3.911   1.449
 3046SOL    HW2 1961   2.542   3.932   1.588
 3077SOL     OW 1962   2.087   3.999   2.858
 3077SOL    HW1 1963   2.122   3.982   2.950
 3077SOL    HW2 1964   1.999   3.954   2.846
 3078SOL     OW 1965   1.881   4.092   2.509
 3078SOL    HW1 1966   1.799   4.135   2.548
 3078SOL    HW2 1967   1.853   4.019   2.446
 3089SOL     OW 1968   2.300   4.116   3.361
 3089SOL    HW1 1969   2.382   4.060   3.370
 3089SOL    HW2 1970   2.219   4.058   3.365
 3090SOL     OW 1971   3.465   4.171   2.599
 3090SOL    HW1 1972   3.391   4.217   2.549
 3090SOL    HW2 1973   3.516   4.239   2.652
 3095SOL     OW 1974   3.456   3.838   3.342
 3095SOL    HW1 1975   3.438   3.905   3.270
 3095SOL    HW2 1976   3.453   3.884   3.431
 3103SOL     OW 1977   2.671   3.728   2.364
 3103SOL    HW1 1978   2.711   3.819   2.355
 3103SOL    HW2 1979   2.571   3.736   2.370
 3106SOL     OW 1980   2.179   3.975   3.663
 3106SOL    HW1 1981   2.250   4.046   3.669
 3106SOL    HW2 1982   2.091   4.014   3.691
 3109SOL     OW 1983   3.143   4.069   2.806
 3109SOL    HW1 1984   3.057   4.019   2.793
 3109SOL    HW2 1985   3.205   4.015   2.862
 3113SOL     OW 1986   2.853   4.134   3.104
 3113SOL    HW1 1987   2.776   4.168   3.158
 3113SOL    HW2 1988   2.819   4.083   3.025
 3116SOL     OW 1989   2.727   4.072   2.057
 3116SOL    HW1 1990   2.786   4.135   2.008
 3116SOL    HW2 1991   2.746   3.978   2.028
 3119SOL     OW 1992   2.412   3.920   2.747
 3119SOL    HW1 1993   2.407   3.915   2.847
 3119SOL    HW2 1994   2.414   4.016   2.718
 3127SOL     OW 1995   2.064   4.009   3.360
 3127SOL    HW1 1996   1.984   4.069   3.347
 3127SOL    HW2 1997   2.054   3.960   3.446
 3129SOL     OW 1998   3.262   3.831   2.288
 3129SOL    HW1 1999   3.238   3.794   2.198
 3129SOL    HW2 2000   3.361   3.847   2.292
 3131SOL     OW 2001   3.409   3.946   3.591
 3131SOL    HW1 2002   3.404   3.983   3.683
 3131SOL    HW2 2003   3.337   3.877   3.579
 3132SOL     OW 2004   2.476   3.846   1.979
 3132SOL    HW1 2005   2.574   3.824   1.986
 3132SOL    HW2 2006   2.445   3.829   1.886
 3133SOL     OW 2007   2.643   3.988   3.611
 3133SOL    HW1 2008   2.710   3.927   3.654
 3133SOL    HW2 2009   2.570   4.007   3.676
 3136SOL     OW 2010   2.784   4.227   2.761
 3136SOL    HW1 2011   2.759   4.218   2.665
 3136SOL    HW2 2012   2.832   4.145   2.792
 3137SOL     OW 2013   2.401   3.788   2.374
 3137SOL    HW1 2014   2.320   3.789   2.432
 3137SOL    HW2 2015   2.404   3.871   2.319
 3139SOL     OW 2016   2.159   3.759   2.033
 3139SOL    HW1 2017   2.208   3.843   2.012
 3139SOL    HW2 2018   2.221   3.694   2.078
 3140SOL     OW 2019   2.797   3.960   2.342
 3140SOL    HW1 2020   2.749   4.001   2.264
 3140SOL    HW2 2021   2.896   3.958   2.323
 3146SOL     OW 2022   2.423   3.946   3.009
 3146SOL    HW1 2023   2.461   3.862   3.046
 3146SOL    HW2 2024   2.335   3.965   3.053
 3147SOL     OW 2025   2.728   4.178   2.504
 3147SOL    HW1 2026   2.696   4.250   2.442
 3147SOL    HW2 2027   2.752   4.097   2.451
 3148SOL     OW 2028   2.879   3.763   2.615
 3148SOL    HW1 2029   2.807   3.768   2.546
 3148SOL    HW2 2030   2.855   3.694   2.684
 3155SOL     OW 2031   2.389   3.980   2.190
 3155SOL    HW1 2032   2.416   3.921   2.115
 3155SOL    HW2 2033   2.389   4.075   2.159
 3160SOL     OW 2034   2.777   3.813   3.264
 3160SOL    HW1 2035   2.802   3.793   3.169
 3160SOL    HW2 2036   2.849   3.869   3.306
 3164SOL     OW 2037   3.136   4.110   3.124
 3164SOL    HW1 2038   3.157   4.184   3.188
 3164SOL    HW2 2039   3.047   4.127   3.081
 3166SOL     OW 2040   2.428   4.261   2.727
 3166SOL    HW1 2041   2.440   4.327   2.653
 3166SOL    HW2 2042   2.474   4.295   2.810
 3173SOL     OW 2043   2.875   3.829   3.632
 3173SOL    HW1 2044   2.881   3.914   3.580
 3173SOL    HW2 2045   2.907   3.753   3.575
 3174SOL     OW 2046   2.366   3.774   3.602
 3174SOL    HW1 2047   2.324   3.717   3.532
 3174SOL    HW2 2048   2.300   3.843   3.634
 3177SOL     OW 2049   3.071   4.249   2.137
 3177SOL    HW1 2050   3.084   4.165   2.191
 3177SOL    HW2 2051   3.042   4.323   2.197
 3178SOL     OW 2052   2.169   3.937   3.093
 3178SOL    HW1 2053   2.146   3.974   3.183
 3178SOL    HW2 2054   2.139   3.842   3.087
 3180SOL     OW 2055   2.594   4.358   2.926
 3180SOL    HW1 2056   2.653   4.332   2.850
 3180SOL    HW2 2057   2.566   4.454   2.915
 3182SOL     OW 2058   2.169   3.787   2.480
 3182SOL    HW1 2059   2.158   3.881   2.513
 3182SOL    HW2 2060   2.164   3.724   2.557
 3183SOL     OW 2061   3.484   4.091   2.236
 3183SOL    HW1 2062   3.486   4.015   2.300
 3183SOL    HW2 2063   3.436   4.168   2.276
 3187SOL     OW 2064   3.402   3.998   1.987
 3187SOL    HW1 2065   3.341   3.923   2.010
 3187SOL    HW2 2066   3.424   4.050   2.070
 3191SOL     OW 2067   2.201   4.233   2.868
 3191SOL    HW1 2068   2.149   4.150   2.851
 3191SOL    HW2 2069   2.278   4.238   2.804
 3192SOL     OW 2070   3.000   4.104   3.540
 3192SOL    HW1 2071   2.955   4.167   3.604
 3192SOL    HW2 2072   3.093   4.135   3.523
 3193SOL     OW 2073   3.022   3.931   3.339
 3193SOL    HW1 2074   3.022   3.995   3.416
 3193SOL    HW2 2075   3.050   3.979   3.256
 3199SOL     OW 2076   2.677   4.296   2.187
 3199SOL    HW1 2077   2.684   4.207   2.141
 3199SOL    HW2 2078   2.583   4.330   2.179
 3202SOL     OW 2079   2.533   4.188   3.131
 3202SOL    HW1 2080   2.499   4.099   3.101
 3202SOL    HW2 2081   2.559   4.242   3.051
 3203SOL     OW 2082   2.335   4.224   2.053
 3203SOL    HW1 2083   2.396   4.304   2.057
 3203SOL    HW2 2084   2.240   4.255   2.060
 3208SOL     OW 2085   3.588   3.859   2.385
 3208SOL    HW1 2086   3.661   3.842   2.318
 3208SOL    HW2 2087   3.557   3.772   2.423
 3211SOL     OW 2088   3.703   3.899   2.825
 3211SOL    HW1 2089   3.742   3.814   2.789
 3211SOL    HW2 2090   3.605   3.901   2.806
 3212SOL     OW 2091   2.125   4.050   2.582
 3212SOL    HW1 2092   2.046   4.101   2.548
 3212SOL    HW2 2093   2.116   4.035   2.680
 3218SOL     OW 2094   2.876   3.960   2.833
 3218SOL    HW1 2095   2.868   3.924   2.740
 3218SOL    HW2 2096   2.874   3.884   2.898
 3222SOL     OW 2097   2.534   3.927   3.351
 3222SOL    HW1 2098   2.624   3.911   3.311
 3222SOL    HW2 2099   2.542   3.932   3.450
 3223SOL     OW 2100   1.937   4.069   1.895
 3223SOL    HW1 2101   1.845   4.041   1.866
 3223SOL    HW2 2102   1.968   4.146   1.839
 3225SOL     OW 2103   1.934   3.890   2.180
 3225SOL    HW1 2104   1.917   3.973   2.126
 3225SOL    HW2 2105   2.024   3.853   2.158
 3231SOL     OW 2106   3.087   4.049   2.311
 3231SOL    HW1 2107   3.152   3.975   2.300
 3231SOL    HW2 2108   3.107   4.099   2.395
 3241SOL     OW 2109   3.686   3.916   3.089
 3241SOL    HW1 2110   3.682   3.826   3.133
 3241SOL    HW2 2111   3.689   3.905   2.990
 3242SOL     OW 2112   2.290   4.148   2.382
 3242SOL    HW1 2113   2.320   4.076   2.320
 3242SOL    HW2 2114   2.251   4.108   2.465
 3244SOL     OW 2115   2.179   4.271   3.142
 3244SOL    HW1 2116   2.217   4.212   3.214
 3244SOL    HW2 2117   2.219   4.245   3.054
 3245SOL     OW 2118   3.286   3.938   2.974
 3245SOL    HW1 2119   3.338   3.873   3.029
 3245SOL    HW2 2120   3.237   4.001   3.035
 3246SOL     OW 2121   2.863   3.758   3.016
 3246SOL    HW1 2122   2.800   3.686   2.985
 3246SOL    HW2 2123   2.956   3.722   3.016
 3249SOL     OW 2124   3.214   3.776   2.030
 3249SOL    HW1 2125   3.249   3.735   1.946
 3249SOL    HW2 2126   3.124   3.738   2.050
 3250SOL     OW 2127   3.162   4.177   2.553
 3250SOL    HW1 2128   3.103   4.257   2.557
 3250SOL    HW2 2129   3.177   4.142   2.646
 3251SOL     OW 2130   3.455   3.945   2.744
 3251SOL    HW1 2131   3.371   3.944   2.798
 3251SOL    HW2 2132   3.457   4.028   2.688
 3299SOL     OW 2133   2.476   3.846   3.841
 3299SOL    HW1 2134   2.574   3.824   3.848
 3299SOL    HW2 2135   2.445   3.829   3.748
 3304SOL     OW 2136   2.159   3.759   3.895
 3304SOL    HW1 2137   2.208   3.843   3.874
 3304SOL    HW2 2138   2.221   3.694   3.940
 3396SOL     OW 2139   3.214   3.776   3.892
 3396SOL    HW1 2140   3.249   3.735   3.808
 3396SOL    HW2 2141   3.124   3.738   3.912
 3531SOL     OW 2142   3.854   1.794   1.851
 3531SOL    HW1 2143   3.813   1.720   1.904
 3531SOL    HW2 2144   3.918   1.845   1.909
 3586SOL     OW 2145   3.955   1.713   2.345
 3586SOL    HW1 2146   3.989   1.790   2.399
 3586SOL    HW2 2147   3.999   1.713   2.255
 3588SOL     OW 2148   3.954   1.434   2.400
 3588SOL    HW1 2149   3.928   1.530   2.400
 3588SOL    HW2 2150   3.883   1.380   2.445
 3594SOL     OW 2151   3.751   1.596   1.979
 3594SOL    HW1 2152   3.732   1.500   2.000
 3594SOL    HW2 2153   3.718   1.654   2.054
 3612SOL     OW 2154   3.854   1.821   3.433
 3612SOL    HW1 2155   3.844   1.806   3.532
 3612SOL    HW2 2156   3.768   1.857   3.397
 3617SOL     OW 2157   4.075   1.801   2.715
 3617SOL    HW1 2158   4.125   1.715   2.721
 3617SOL    HW2 2159   4.140   1.878   2.712
 3625SOL     OW 2160   3.973   1.785   3.103
 3625SOL    HW1 2161   4.030   1.720   3.153
 3625SOL    HW2 2162   3.957   1.752   3.010
 3659SOL     OW 2163   3.788   1.564   3.193
 3659SOL    HW1 2164   3.742   1.646   3.159
 3659SOL    HW2 2165   3.886   1.583   3.202
 3686SOL     OW 2166   3.812   1.801   2.789
 3686SOL    HW1 2167   3.770   1.715   2.762
 3686SOL    HW2 2168   3.906   1.804   2.755
 3914SOL     OW 2169   3.837   2.599   1.597
 3914SOL    HW1 2170   3.925   2.586   1.642
 3914SOL    HW2 2171   3.824   2.696   1.575
 3920SOL     OW 2172   4.041   2.113   1.801
 3920SOL    HW1 2173   4.112   2.184   1.807
 3920SOL    HW2 2174   3.953   2.152   1.829
 3940SOL     OW 2175   3.926   2.147   1.498
 3940SOL    HW1 2176   3.846   2.207   1.485
 3940SOL    HW2 2177   3.916   2.098   1.584
 3961SOL     OW 2178   3.802   2.418   1.386
 3961SOL    HW1 2179   3.894   2.417   1.345
 3961SOL    HW2 2180   3.796   2.492   1.453
 3996SOL     OW 2181   4.074   2.760   1.804
 3996SOL    HW1 2182   4.150   2.804   1.852
 3996SOL    HW2 2183   4.109   2.713   1.722
 4008SOL     OW 2184   3.913   2.382   1.722
 4008SOL    HW1 2185   3.972   2.342   1.652
 4008SOL    HW2 2186   3.855   2.453   1.681
 4011SOL     OW 2187   3.976   3.426   1.744
 4011SOL    HW1 2188   3.946   3.483   1.820
 4011SOL    HW2 2189   3.969   3.329   1.770
 4015SOL     OW 2190   3.883   2.999   1.466
 4015SOL    HW1 2191   3.905   2.938   1.542
 4015SOL    HW2 2192   3.893   2.950   1.380
 4024SOL     OW 2193   3.854   3.656   1.851
 4024SOL    HW1 2194   3.813   3.582   1.904
 4024SOL    HW2 2195   3.918   3.707   1.909
 4037SOL     OW 2196   3.829   2.875   1.726
 4037SOL    HW1 2197   3.752   2.842   1.780
 4037SOL    HW2 2198   3.914   2.845   1.768
 4053SOL     OW 2199   3.945   3.176   1.844
 4053SOL    HW1 2200   3.880   3.103   1.823
 4053SOL    HW2 2201   3.949   3.190   1.942
 4068SOL     OW 2202   3.954   2.490   1.975
 4068SOL    HW1 2203   3.861   2.488   2.012
 4068SOL    HW2 2204   3.955   2.451   1.883
 4069SOL     OW 2205   3.949   2.137   2.858
 4069SOL    HW1 2206   3.984   2.120   2.950
 4069SOL    HW2 2207   3.861   2.092   2.846
 4070SOL     OW 2208   3.743   2.230   2.509
 4070SOL    HW1 2209   3.661   2.273   2.548
 4070SOL    HW2 2210   3.715   2.157   2.446
 4071SOL     OW 2211   4.293   3.137   3.027
 4071SOL    HW1 2212   4.200   3.130   2.990
 4071SOL    HW2 2213   4.304   3.226   3.071
 4076SOL     OW 2214   4.409   2.874   2.527
 4076SOL    HW1 2215   4.478   2.858   2.597
 4076SOL    HW2 2216   4.336   2.931   2.565
 4078SOL     OW 2217   4.059   3.297   2.923
 4078SOL    HW1 2218   3.981   3.266   2.870
 4078SOL    HW2 2219   4.117   3.355   2.866
 4079SOL     OW 2220   4.162   2.254   3.361
 4079SOL    HW1 2221   4.244   2.198   3.370
 4079SOL    HW2 2222   4.081   2.196   3.365
 4080SOL     OW 2223   3.955   3.575   2.345
 4080SOL    HW1 2224   3.989   3.652   2.399
 4080SOL    HW2 2225   3.999   3.575   2.255
 4082SOL     OW 2226   3.954   3.296   2.400
 4082SOL    HW1 2227   3.928   3.392   2.400
 4082SOL    HW2 2228   3.883   3.242   2.445
 4083SOL     OW 2229   3.964   2.953   2.748
 4083SOL    HW1 2230   3.978   2.869   2.800
 4083SOL    HW2 2231   3.909   3.017   2.803
 4086SOL     OW 2232   3.846   2.505   2.425
 4086SOL    HW1 2233   3.801   2.417   2.442
 4086SOL    HW2 2234   3.845   2.559   2.509
 4087SOL     OW 2235   3.751   3.458   1.979
 4087SOL    HW1 2236   3.732   3.362   2.000
 4087SOL    HW2 2237   3.718   3.516   2.054
 4089SOL     OW 2238   3.837   2.599   3.459
 4089SOL    HW1 2239   3.925   2.586   3.504
 4089SOL    HW2 2240   3.824   2.696   3.437
 4090SOL     OW 2241   4.337   3.227   2.588
 4090SOL    HW1 2242   4.288   3.140   2.597
 4090SOL    HW2 2243   4.314   3.270   2.501
 4093SOL     OW 2244   3.921   2.838   3.126
 4093SOL    HW1 2245   4.010   2.793   3.112
 4093SOL    HW2 2246   3.848   2.773   3.107
 4097SOL     OW 2247   4.322   2.591   2.132
 4097SOL    HW1 2248   4.346   2.660   2.064
 4097SOL    HW2 2249   4.244   2.624   2.186
 4104SOL     OW 2250   3.800   2.673   2.651
 4104SOL    HW1 2251   3.899   2.661   2.660
 4104SOL    HW2 2252   3.776   2.768   2.672
 4105SOL     OW 2253   3.854   3.683   3.433
 4105SOL    HW1 2254   3.844   3.668   3.532
 4105SOL    HW2 2255   3.768   3.719   3.397
 4108SOL     OW 2256   4.274   2.058   2.747
 4108SOL    HW1 2257   4.269   2.053   2.847
 4108SOL    HW2 2258   4.276   2.154   2.718
 4110SOL     OW 2259   4.075   3.663   2.715
 4110SOL    HW1 2260   4.125   3.577   2.721
 4110SOL    HW2 2261   4.140   3.740   2.712
 4112SOL     OW 2262   4.045   2.805   2.104
 4112SOL    HW1 2263   4.127   2.844   2.062
 4112SOL    HW2 2264   4.018   2.723   2.055
 4115SOL     OW 2265   3.926   2.147   3.360
 4115SOL    HW1 2266   3.846   2.207   3.347
 4115SOL    HW2 2267   3.916   2.098   3.446
 4118SOL     OW 2268   3.973   3.647   3.103
 4118SOL    HW1 2269   4.030   3.582   3.153
 4118SOL    HW2 2270   3.957   3.614   3.010
 4120SOL     OW 2271   4.106   2.562   2.342
 4120SOL    HW1 2272   4.151   2.472   2.339
 4120SOL    HW2 2273   4.012   2.551   2.375
 4127SOL     OW 2274   4.263   1.926   2.374
 4127SOL    HW1 2275   4.182   1.927   2.432
 4127SOL    HW2 2276   4.266   2.009   2.319
 4129SOL     OW 2277   4.021   1.897   2.033
 4129SOL    HW1 2278   4.070   1.981   2.012
 4129SOL    HW2 2279   4.083   1.832   2.078
 4133SOL     OW 2280   4.183   3.014   2.603
 4133SOL    HW1 2281   4.112   2.987   2.668
 4133SOL    HW2 2282   4.157   2.986   2.510
 4136SOL     OW 2283   3.802   2.418   3.248
 4136SOL    HW1 2284   3.894   2.417   3.207
 4136SOL    HW2 2285   3.796   2.492   3.315
 4137SOL     OW 2286   4.285   2.084   3.009
 4137SOL    HW1 2287   4.323   2.000   3.046
 4137SOL    HW2 2288   4.197   2.103   3.053
 4141SOL     OW 2289   4.212   3.247   2.036
 4141SOL    HW1 2290   4.125   3.232   2.083
 4141SOL    HW2 2291   4.195   3.273   1.941
 4143SOL     OW 2292   4.251   2.118   2.190
 4143SOL    HW1 2293   4.278   2.059   2.115
 4143SOL    HW2 2294   4.251   2.213   2.159
 4150SOL     OW 2295   4.134   2.675   3.113
 4150SOL    HW1 2296   4.220   2.687   3.163
 4150SOL    HW2 2297   4.092   2.588   3.140
 4152SOL     OW 2298   3.788   3.426   3.193
 4152SOL    HW1 2299   3.742   3.508   3.159
 4152SOL    HW2 2300   3.886   3.445   3.202
 4153SOL     OW 2301   4.091   2.962   2.363
 4153SOL    HW1 2302   4.084   3.045   2.307
 4153SOL    HW2 2303   4.095   2.882   2.303
 4154SOL     OW 2304   4.290   2.399   2.727
 4154SOL    HW1 2305   4.302   2.465   2.653
 4154SOL    HW2 2306   4.336   2.433   2.810
 4157SOL     OW 2307   4.078   3.372   3.191
 4157SOL    HW1 2308   4.057   3.328   3.104
 4157SOL    HW2 2309   4.175   3.398   3.194
 4158SOL     OW 2310   4.126   2.613   3.460
 4158SOL    HW1 2311   4.194   2.668   3.413
 4158SOL    HW2 2312   4.166   2.525   3.487
 4161SOL     OW 2313   4.297   2.732   2.891
 4161SOL    HW1 2314   4.341   2.821   2.882
 4161SOL    HW2 2315   4.234   2.732   2.968
 4164SOL     OW 2316   4.031   2.075   3.093
 4164SOL    HW1 2317   4.008   2.112   3.183
 4164SOL    HW2 2318   4.001   1.980   3.087
 4165SOL     OW 2319   3.761   3.172   3.144
 4165SOL    HW1 2320   3.814   3.123   3.212
 4165SOL    HW2 2321   3.783   3.270   3.149
 4167SOL     OW 2322   4.031   1.925   2.480
 4167SOL    HW1 2323   4.020   2.019   2.513
 4167SOL    HW2 2324   4.026   1.862   2.557
 4171SOL     OW 2325   4.074   2.760   3.666
 4171SOL    HW1 2326   4.150   2.804   3.714
 4171SOL    HW2 2327   4.109   2.713   3.584
 4174SOL     OW 2328   4.043   2.672   2.811
 4174SOL    HW1 2329   4.136   2.708   2.816
 4174SOL    HW2 2330   4.037   2.587   2.863
 4175SOL     OW 2331   4.063   2.371   2.868
 4175SOL    HW1 2332   4.011   2.288   2.851
 4175SOL    HW2 2333   4.140   2.376   2.804
 4178SOL     OW 2334   3.732   3.188   2.062
 4178SOL    HW1 2335   3.639   3.209   2.031
 4178SOL    HW2 2336   3.742   3.089   2.075
 4179SOL     OW 2337   3.812   3.663   2.789
 4179SOL    HW1 2338   3.770   3.577   2.762
 4179SOL    HW2 2339   3.906   3.666   2.755
 4180SOL     OW 2340   4.228   3.430   2.772
 4180SOL    HW1 2341   4.294   3.504   2.781
 4180SOL    HW2 2342   4.272   3.351   2.730
 4182SOL     OW 2343   3.764   2.406   2.976
 4182SOL    HW1 2344   3.849   2.373   2.935
 4182SOL    HW2 2345   3.777   2.421   3.074
 4183SOL     OW 2346   3.913   2.382   3.584
 4183SOL    HW1 2347   3.972   2.342   3.514
 4183SOL    HW2 2348   3.855   2.453   3.543
 4189SOL     OW 2349   4.197   2.362   2.053
 4189SOL    HW1 2350   4.258   2.442   2.057
 4189SOL    HW2 2351   4.102   2.393   2.060
 4190SOL     OW 2352   3.883   2.999   3.328
 4190SOL    HW1 2353   3.905   2.938   3.404
 4190SOL    HW2 2354   3.893   2.950   3.242
 4194SOL     OW 2355   3.807   3.120   2.884
 4194SOL    HW1 2356   3.802   3.119   2.984
 4194SOL    HW2 2357   3.724   3.079   2.846
 4202SOL     OW 2358   3.987   2.188   2.582
 4202SOL    HW1 2359   3.908   2.239   2.548
 4202SOL    HW2 2360   3.978   2.173   2.680
 4206SOL     OW 2361   4.096   3.150   3.352
 4206SOL    HW1 2362   4.083   3.243   3.318
 4206SOL    HW2 2363   4.012   3.098   3.339
 4210SOL     OW 2364   3.979   3.210   2.152
 4210SOL    HW1 2365   3.883   3.211   2.125
 4210SOL    HW2 2366   3.991   3.263   2.236
 4211SOL     OW 2367   3.829   2.875   3.588
 4211SOL    HW1 2368   3.752   2.842   3.642
 4211SOL    HW2 2369   3.914   2.845   3.630
 4213SOL     OW 2370   3.799   2.207   1.895
 4213SOL    HW1 2371   3.707   2.179   1.866
 4213SOL    HW2 2372   3.830   2.284   1.839
 4215SOL     OW 2373   3.796   2.028   2.180
 4215SOL    HW1 2374   3.779   2.111   2.126
 4215SOL    HW2 2375   3.886   1.991   2.158
 4222SOL     OW 2376   4.318   2.607   2.514
 4222SOL    HW1 2377   4.368   2.692   2.495
 4222SOL    HW2 2378   4.230   2.609   2.466
 4227SOL     OW 2379   3.945   3.176   3.706
 4227SOL    HW1 2380   3.880   3.103   3.685
 4227SOL    HW2 2381   3.949   3.190   3.804
 4228SOL     OW 2382   3.803   3.102   2.515
 4228SOL    HW1 2383   3.802   3.055   2.603
 4228SOL    HW2 2384   3.885   3.074   2.464
 4230SOL     OW 2385   4.152   2.286   2.382
 4230SOL    HW1 2386   4.182   2.214   2.320
 4230SOL    HW2 2387   4.113   2.246   2.465
 4232SOL     OW 2388   4.041   2.409   3.142
 4232SOL    HW1 2389   4.079   2.350   3.214
 4232SOL    HW2 2390   4.081   2.383   3.054
 4240SOL     OW 2391   3.763   2.939   2.162
 4240SOL    HW1 2392   3.862   2.928   2.153
 4240SOL    HW2 2393   3.723   2.853   2.194
 4242SOL     OW 2394   3.954   2.490   3.837
 4242SOL    HW1 2395   3.861   2.488   3.874
 4242SOL    HW2 2396   3.955   2.451   3.745
 4334SOL     OW 2397   3.732   3.188   3.924
 4334SOL    HW1 2398   3.639   3.209   3.893
 4334SOL    HW2 2399   3.742   3.089   3.937
 4361SOL     OW 2400   3.799   2.207   3.757
 4361SOL    HW1 2401   3.707   2.179   3.728
 4361SOL    HW2 2402   3.830   2.284   3.701
 4384SOL     OW 2403   3.763   2.939   4.024
 4384SOL    HW1 2404   3.862   2.928   4.015
 4384SOL    HW2 2405   3.723   2.853   4.056
 4660SOL     OW 2406   3.796   3.890   2.180
 4660SOL    HW1 2407   3.779   3.973   2.126
 4660SOL    HW2 2408   3.886   3.853   2.158
   5.29062   5.29062   5.29062
