mobley_9653690_GMX.gro created by acpype (v: 2023.10.27) on Tue May 19 14:14:23 2026
 2424
    1MOL     C1    1   2.387   2.390   2.230
    1MOL     C2    2   2.497   2.467   2.231
    1MOL     C3    3   2.215   2.427   2.685
    1MOL     C4    4   2.301   2.364   2.603
    1MOL     C5    5   2.312   2.349   2.354
    1MOL     C6    6   2.506   2.444   2.484
    1MOL     C7    7   2.560   2.515   2.359
    1MOL     C8    8   2.353   2.429   2.479
    1MOL     C9    9   2.566   2.506   2.103
    1MOL    C10   10   2.350   2.225   2.631
    1MOL     O1   11   2.535   2.655   2.373
    1MOL     H1   12   2.346   2.355   2.136
    1MOL     H2   13   2.177   2.379   2.775
    1MOL     H3   14   2.180   2.527   2.664
    1MOL     H4   15   2.205   2.363   2.336
    1MOL     H5   16   2.329   2.242   2.369
    1MOL     H6   17   2.552   2.345   2.492
    1MOL     H7   18   2.535   2.500   2.574
    1MOL     H8   19   2.668   2.501   2.356
    1MOL     H9   20   2.308   2.529   2.473
    1MOL    H10   21   2.524   2.599   2.067
    1MOL    H11   22   2.551   2.428   2.028
    1MOL    H12   23   2.673   2.518   2.122
    1MOL    H13   24   2.283   2.151   2.585
    1MOL    H14   25   2.450   2.211   2.590
    1MOL    H15   26   2.354   2.203   2.738
    1MOL    H16   27   2.577   2.682   2.457
   14SOL     OW   28   1.460   1.505   1.339
   14SOL    HW1   29   1.484   1.599   1.365
   14SOL    HW2   30   1.444   1.451   1.421
   35SOL     OW   31   1.187   1.792   1.616
   35SOL    HW1   32   1.211   1.852   1.540
   35SOL    HW2   33   1.194   1.697   1.586
   56SOL     OW   34   1.227   1.550   1.506
   56SOL    HW1   35   1.233   1.473   1.570
   56SOL    HW2   36   1.175   1.524   1.426
   95SOL     OW   37   1.754   1.223   1.588
   95SOL    HW1   38   1.845   1.184   1.575
   95SOL    HW2   39   1.762   1.319   1.612
   97SOL     OW   40   1.592   1.629   1.625
   97SOL    HW1   41   1.619   1.663   1.535
   97SOL    HW2   42   1.671   1.591   1.671
  122SOL     OW   43   1.728   0.935   1.854
  122SOL    HW1   44   1.682   0.928   1.765
  122SOL    HW2   45   1.666   0.979   1.920
  127SOL     OW   46   1.859   1.518   1.605
  127SOL    HW1   47   1.873   1.545   1.510
  127SOL    HW2   48   1.942   1.540   1.658
  152SOL     OW   49   1.759   1.747   1.154
  152SOL    HW1   50   1.820   1.777   1.081
  152SOL    HW2   51   1.721   1.658   1.132
  163SOL     OW   52   1.650   1.720   1.394
  163SOL    HW1   53   1.703   1.730   1.310
  163SOL    HW2   54   1.623   1.810   1.428
  171SOL     OW   55   1.614   1.292   1.289
  171SOL    HW1   56   1.674   1.295   1.369
  171SOL    HW2   57   1.539   1.356   1.302
  186SOL     OW   58   1.450   1.220   1.633
  186SOL    HW1   59   1.441   1.210   1.732
  186SOL    HW2   60   1.546   1.213   1.607
  203SOL     OW   61   1.705   1.487   1.104
  203SOL    HW1   62   1.612   1.462   1.077
  203SOL    HW2   63   1.731   1.437   1.186
  219SOL     OW   64   1.555   1.511   2.565
  219SOL    HW1   65   1.498   1.495   2.646
  219SOL    HW2   66   1.496   1.521   2.485
  227SOL     OW   67   1.460   1.505   3.201
  227SOL    HW1   68   1.484   1.599   3.227
  227SOL    HW2   69   1.444   1.451   3.283
  238SOL     OW   70   1.842   1.767   2.221
  238SOL    HW1   71   1.896   1.738   2.301
  238SOL    HW2   72   1.872   1.857   2.192
  240SOL     OW   73   1.689   0.922   2.474
  240SOL    HW1   74   1.784   0.893   2.482
  240SOL    HW2   75   1.681   0.987   2.399
  241SOL     OW   76   1.641   1.108   2.294
  241SOL    HW1   77   1.727   1.110   2.242
  241SOL    HW2   78   1.655   1.155   2.382
  247SOL     OW   79   1.525   0.999   2.052
  247SOL    HW1   80   1.462   0.923   2.065
  247SOL    HW2   81   1.573   1.017   2.138
  248SOL     OW   82   1.187   1.792   3.478
  248SOL    HW1   83   1.211   1.852   3.402
  248SOL    HW2   84   1.194   1.697   3.448
  250SOL     OW   85   1.466   1.417   2.815
  250SOL    HW1   86   1.407   1.423   2.895
  250SOL    HW2   87   1.451   1.329   2.769
  251SOL     OW   88   1.667   1.714   2.434
  251SOL    HW1   89   1.626   1.691   2.346
  251SOL    HW2   90   1.649   1.640   2.499
  254SOL     OW   91   1.576   1.662   2.169
  254SOL    HW1   92   1.665   1.708   2.172
  254SOL    HW2   93   1.555   1.638   2.074
  264SOL     OW   94   1.362   1.144   2.407
  264SOL    HW1   95   1.445   1.115   2.359
  264SOL    HW2   96   1.313   1.211   2.351
  266SOL     OW   97   1.008   1.456   2.339
  266SOL    HW1   98   0.962   1.528   2.287
  266SOL    HW2   99   1.004   1.476   2.437
  268SOL     OW  100   1.795   1.066   2.735
  268SOL    HW1  101   1.733   1.051   2.659
  268SOL    HW2  102   1.743   1.077   2.820
  269SOL     OW  103   1.227   1.550   3.368
  269SOL    HW1  104   1.233   1.473   3.432
  269SOL    HW2  105   1.175   1.524   3.288
  273SOL     OW  106   1.111   1.776   2.099
  273SOL    HW1  107   1.051   1.714   2.149
  273SOL    HW2  108   1.142   1.732   2.014
  275SOL     OW  109   1.632   1.377   1.943
  275SOL    HW1  110   1.600   1.471   1.933
  275SOL    HW2  111   1.556   1.314   1.931
  279SOL     OW  112   0.940   1.698   2.766
  279SOL    HW1  113   1.020   1.641   2.787
  279SOL    HW2  114   0.891   1.658   2.689
  289SOL     OW  115   1.434   1.188   1.903
  289SOL    HW1  116   1.466   1.112   1.960
  289SOL    HW2  117   1.342   1.215   1.933
  293SOL     OW  118   1.227   1.570   2.655
  293SOL    HW1  119   1.248   1.644   2.590
  293SOL    HW2  120   1.295   1.570   2.728
  295SOL     OW  121   1.271   1.797   2.453
  295SOL    HW1  122   1.315   1.861   2.389
  295SOL    HW2  123   1.221   1.849   2.523
  301SOL     OW  124   1.429   1.173   2.729
  301SOL    HW1  125   1.374   1.089   2.722
  301SOL    HW2  126   1.455   1.202   2.637
  303SOL     OW  127   1.857   0.833   2.239
  303SOL    HW1  128   1.899   0.769   2.303
  303SOL    HW2  129   1.819   0.782   2.161
  305SOL     OW  130   1.664   1.280   2.519
  305SOL    HW1  131   1.763   1.288   2.533
  305SOL    HW2  132   1.619   1.364   2.550
  308SOL     OW  133   1.754   1.223   3.450
  308SOL    HW1  134   1.845   1.184   3.437
  308SOL    HW2  135   1.762   1.319   3.474
  310SOL     OW  136   1.592   1.629   3.487
  310SOL    HW1  137   1.619   1.663   3.397
  310SOL    HW2  138   1.671   1.591   3.533
  312SOL     OW  139   1.638   1.099   2.941
  312SOL    HW1  140   1.643   1.180   3.000
  312SOL    HW2  141   1.552   1.101   2.890
  321SOL     OW  142   1.252   1.348   2.250
  321SOL    HW1  143   1.302   1.425   2.290
  321SOL    HW2  144   1.157   1.350   2.282
  322SOL     OW  145   1.272   1.445   3.004
  322SOL    HW1  146   1.319   1.458   3.091
  322SOL    HW2  147   1.206   1.371   3.013
  340SOL     OW  148   1.859   1.518   3.467
  340SOL    HW1  149   1.873   1.545   3.372
  340SOL    HW2  150   1.942   1.540   3.520
  344SOL     OW  151   1.068   1.333   2.711
  344SOL    HW1  152   1.075   1.249   2.656
  344SOL    HW2  153   1.130   1.402   2.675
  365SOL     OW  154   1.759   1.747   3.016
  365SOL    HW1  155   1.820   1.777   2.943
  365SOL    HW2  156   1.721   1.658   2.994
  366SOL     OW  157   1.252   1.731   2.990
  366SOL    HW1  158   1.336   1.736   2.936
  366SOL    HW2  159   1.229   1.635   3.008
  370SOL     OW  160   1.388   1.573   2.339
  370SOL    HW1  161   1.455   1.585   2.265
  370SOL    HW2  162   1.348   1.662   2.362
  375SOL     OW  163   1.650   1.720   3.256
  375SOL    HW1  164   1.703   1.730   3.172
  375SOL    HW2  165   1.623   1.810   3.290
  378SOL     OW  166   1.194   1.612   1.893
  378SOL    HW1  167   1.200   1.519   1.930
  378SOL    HW2  168   1.135   1.612   1.813
  381SOL     OW  169   1.504   1.607   1.906
  381SOL    HW1  170   1.412   1.644   1.913
  381SOL    HW2  171   1.542   1.627   1.816
  383SOL     OW  172   1.614   1.292   3.151
  383SOL    HW1  173   1.674   1.295   3.231
  383SOL    HW2  174   1.539   1.356   3.164
  394SOL     OW  175   1.183   1.335   1.981
  394SOL    HW1  176   1.084   1.324   1.983
  394SOL    HW2  177   1.217   1.350   2.074
  396SOL     OW  178   1.493   1.767   2.821
  396SOL    HW1  179   1.526   1.831   2.752
  396SOL    HW2  180   1.559   1.761   2.896
  409SOL     OW  181   1.861   1.569   2.713
  409SOL    HW1  182   1.790   1.557   2.643
  409SOL    HW2  183   1.862   1.490   2.773
  415SOL     OW  184   1.705   1.487   2.966
  415SOL    HW1  185   1.612   1.462   2.939
  415SOL    HW2  186   1.731   1.437   3.048
  426SOL     OW  187   0.875   1.646   2.199
  426SOL    HW1  188   0.798   1.611   2.145
  426SOL    HW2  189   0.843   1.717   2.261
  561SOL     OW  190   0.850   2.660   1.823
  561SOL    HW1  191   0.846   2.736   1.888
  561SOL    HW2  192   0.872   2.696   1.732
  565SOL     OW  193   1.460   3.367   1.339
  565SOL    HW1  194   1.484   3.461   1.365
  565SOL    HW2  195   1.444   3.313   1.421
  569SOL     OW  196   1.127   3.203   1.690
  569SOL    HW1  197   1.174   3.203   1.778
  569SOL    HW2  198   1.079   3.116   1.679
  574SOL     OW  199   1.594   1.976   1.480
  574SOL    HW1  200   1.576   2.043   1.408
  574SOL    HW2  201   1.591   2.022   1.569
  582SOL     OW  202   1.293   3.090   1.423
  582SOL    HW1  203   1.330   3.017   1.365
  582SOL    HW2  204   1.345   3.095   1.508
  594SOL     OW  205   1.394   2.331   1.674
  594SOL    HW1  206   1.374   2.374   1.762
  594SOL    HW2  207   1.472   2.269   1.683
  595SOL     OW  208   0.973   2.752   1.572
  595SOL    HW1  209   1.019   2.668   1.543
  595SOL    HW2  210   0.917   2.786   1.497
  601SOL     OW  211   1.719   2.447   1.831
  601SOL    HW1  212   1.693   2.536   1.795
  601SOL    HW2  213   1.717   2.379   1.758
  606SOL     OW  214   1.795   2.928   0.873
  606SOL    HW1  215   1.733   2.913   0.797
  606SOL    HW2  216   1.743   2.939   0.958
  607SOL     OW  217   1.227   3.412   1.506
  607SOL    HW1  218   1.233   3.335   1.570
  607SOL    HW2  219   1.175   3.386   1.426
  619SOL     OW  220   1.547   2.084   1.729
  619SOL    HW1  221   1.542   2.121   1.821
  619SOL    HW2  222   1.475   2.015   1.717
  621SOL     OW  223   0.781   2.126   1.749
  621SOL    HW1  224   0.848   2.065   1.792
  621SOL    HW2  225   0.708   2.145   1.814
  623SOL     OW  226   1.351   2.452   1.433
  623SOL    HW1  227   1.379   2.409   1.518
  623SOL    HW2  228   1.376   2.548   1.434
  629SOL     OW  229   1.076   2.545   1.464
  629SOL    HW1  230   0.996   2.484   1.467
  629SOL    HW2  231   1.157   2.492   1.440
  639SOL     OW  232   1.466   2.452   0.992
  639SOL    HW1  233   1.436   2.357   0.999
  639SOL    HW2  234   1.539   2.468   1.058
  645SOL     OW  235   1.754   3.085   1.588
  645SOL    HW1  236   1.845   3.046   1.575
  645SOL    HW2  237   1.762   3.181   1.612
  647SOL     OW  238   1.592   3.491   1.625
  647SOL    HW1  239   1.619   3.525   1.535
  647SOL    HW2  240   1.671   3.453   1.671
  649SOL     OW  241   1.638   2.961   1.079
  649SOL    HW1  242   1.643   3.042   1.138
  649SOL    HW2  243   1.552   2.963   1.028
  651SOL     OW  244   0.980   2.978   1.719
  651SOL    HW1  245   0.881   2.984   1.729
  651SOL    HW2  246   1.003   2.898   1.663
  654SOL     OW  247   1.274   2.248   1.262
  654SOL    HW1  248   1.295   2.322   1.326
  654SOL    HW2  249   1.185   2.265   1.219
  663SOL     OW  250   1.587   2.641   1.670
  663SOL    HW1  251   1.495   2.679   1.665
  663SOL    HW2  252   1.647   2.688   1.605
  664SOL     OW  253   1.013   1.967   1.770
  664SOL    HW1  254   1.019   2.052   1.718
  664SOL    HW2  255   1.045   1.891   1.713
  667SOL     OW  256   1.360   2.724   1.045
  667SOL    HW1  257   1.285   2.724   0.979
  667SOL    HW2  258   1.397   2.632   1.054
  672SOL     OW  259   1.728   2.797   1.854
  672SOL    HW1  260   1.682   2.790   1.765
  672SOL    HW2  261   1.666   2.841   1.920
  677SOL     OW  262   1.859   3.380   1.605
  677SOL    HW1  263   1.873   3.407   1.510
  677SOL    HW2  264   1.942   3.402   1.658
  684SOL     OW  265   1.138   2.242   1.678
  684SOL    HW1  266   1.093   2.305   1.742
  684SOL    HW2  267   1.231   2.273   1.661
  685SOL     OW  268   1.160   2.069   1.477
  685SOL    HW1  269   1.160   2.133   1.554
  685SOL    HW2  270   1.188   2.117   1.394
  692SOL     OW  271   1.369   2.812   1.660
  692SOL    HW1  272   1.408   2.901   1.680
  692SOL    HW2  273   1.379   2.792   1.563
  694SOL     OW  274   1.657   2.466   1.206
  694SOL    HW1  275   1.619   2.397   1.268
  694SOL    HW2  276   1.739   2.430   1.162
  700SOL     OW  277   1.347   2.921   1.234
  700SOL    HW1  278   1.371   2.858   1.160
  700SOL    HW2  279   1.257   2.961   1.216
  713SOL     OW  280   1.650   3.582   1.394
  713SOL    HW1  281   1.703   3.592   1.310
  713SOL    HW2  282   1.623   3.672   1.428
  714SOL     OW  283   1.841   2.037   0.963
  714SOL    HW1  284   1.880   1.952   0.927
  714SOL    HW2  285   1.743   2.039   0.944
  721SOL     OW  286   1.614   3.154   1.289
  721SOL    HW1  287   1.674   3.157   1.369
  721SOL    HW2  288   1.539   3.218   1.302
  725SOL     OW  289   1.709   2.247   1.381
  725SOL    HW1  290   1.782   2.316   1.385
  725SOL    HW2  291   1.737   2.172   1.322
  730SOL     OW  292   1.440   2.718   1.398
  730SOL    HW1  293   1.383   2.770   1.335
  730SOL    HW2  294   1.536   2.730   1.374
  736SOL     OW  295   1.450   3.082   1.633
  736SOL    HW1  296   1.441   3.072   1.732
  736SOL    HW2  297   1.546   3.075   1.607
  738SOL     OW  298   1.674   2.745   1.254
  738SOL    HW1  299   1.647   2.656   1.217
  738SOL    HW2  300   1.675   2.813   1.181
  741SOL     OW  301   1.777   2.204   1.642
  741SOL    HW1  302   1.760   2.235   1.548
  741SOL    HW2  303   1.693   2.167   1.680
  742SOL     OW  304   1.730   2.796   1.517
  742SOL    HW1  305   1.768   2.887   1.532
  742SOL    HW2  306   1.722   2.779   1.418
  751SOL     OW  307   1.824   2.054   1.227
  751SOL    HW1  308   1.820   1.964   1.271
  751SOL    HW2  309   1.827   2.043   1.128
  753SOL     OW  310   1.705   3.349   1.104
  753SOL    HW1  311   1.612   3.324   1.077
  753SOL    HW2  312   1.731   3.299   1.186
  756SOL     OW  313   1.424   2.076   1.112
  756SOL    HW1  314   1.476   2.011   1.167
  756SOL    HW2  315   1.375   2.139   1.173
  762SOL     OW  316   1.593   2.083   0.882
  762SOL    HW1  317   1.509   2.082   0.936
  762SOL    HW2  318   1.595   2.166   0.826
  769SOL     OW  319   1.555   3.373   2.565
  769SOL    HW1  320   1.498   3.357   2.646
  769SOL    HW2  321   1.496   3.383   2.485
  770SOL     OW  322   1.135   2.565   2.579
  770SOL    HW1  323   1.192   2.643   2.554
  770SOL    HW2  324   1.075   2.591   2.655
  771SOL     OW  325   1.755   2.469   2.093
  771SOL    HW1  326   1.743   2.456   1.994
  771SOL    HW2  327   1.725   2.388   2.142
  774SOL     OW  328   0.685   2.874   2.527
  774SOL    HW1  329   0.754   2.858   2.597
  774SOL    HW2  330   0.612   2.931   2.565
  777SOL     OW  331   1.460   3.367   3.201
  777SOL    HW1  332   1.484   3.461   3.227
  777SOL    HW2  333   1.444   3.313   3.283
  779SOL     OW  334   1.603   2.309   2.599
  779SOL    HW1  335   1.529   2.355   2.549
  779SOL    HW2  336   1.654   2.377   2.652
  786SOL     OW  337   1.594   1.976   3.342
  786SOL    HW1  338   1.576   2.043   3.270
  786SOL    HW2  339   1.591   2.022   3.431
  788SOL     OW  340   1.842   3.629   2.221
  788SOL    HW1  341   1.896   3.600   2.301
  788SOL    HW2  342   1.872   3.719   2.192
  790SOL     OW  343   1.689   2.784   2.474
  790SOL    HW1  344   1.784   2.755   2.482
  790SOL    HW2  345   1.681   2.849   2.399
  791SOL     OW  346   1.641   2.970   2.294
  791SOL    HW1  347   1.727   2.972   2.242
  791SOL    HW2  348   1.655   3.017   2.382
  794SOL     OW  349   1.293   3.090   3.285
  794SOL    HW1  350   1.330   3.017   3.227
  794SOL    HW2  351   1.345   3.095   3.370
  795SOL     OW  352   0.809   1.866   2.364
  795SOL    HW1  353   0.849   1.957   2.355
  795SOL    HW2  354   0.709   1.874   2.370
  797SOL     OW  355   1.525   2.861   2.052
  797SOL    HW1  356   1.462   2.785   2.065
  797SOL    HW2  357   1.573   2.879   2.138
  800SOL     OW  358   1.466   3.279   2.815
  800SOL    HW1  359   1.407   3.285   2.895
  800SOL    HW2  360   1.451   3.191   2.769
  801SOL     OW  361   1.667   3.576   2.434
  801SOL    HW1  362   1.626   3.553   2.346
  801SOL    HW2  363   1.649   3.502   2.499
  803SOL     OW  364   1.281   2.207   2.806
  803SOL    HW1  365   1.195   2.157   2.793
  803SOL    HW2  366   1.343   2.153   2.862
  804SOL     OW  367   1.576   3.524   2.169
  804SOL    HW1  368   1.665   3.570   2.172
  804SOL    HW2  369   1.555   3.500   2.074
  806SOL     OW  370   1.394   2.331   3.536
  806SOL    HW1  371   1.374   2.374   3.624
  806SOL    HW2  372   1.472   2.269   3.545
  807SOL     OW  373   0.973   2.752   3.434
  807SOL    HW1  374   1.019   2.668   3.405
  807SOL    HW2  375   0.917   2.786   3.359
  808SOL     OW  376   0.991   2.272   3.104
  808SOL    HW1  377   0.914   2.306   3.158
  808SOL    HW2  378   0.957   2.221   3.025
  809SOL     OW  379   1.041   2.563   2.291
  809SOL    HW1  380   1.067   2.559   2.387
  809SOL    HW2  381   0.956   2.512   2.277
  812SOL     OW  382   0.865   2.210   2.057
  812SOL    HW1  383   0.924   2.273   2.008
  812SOL    HW2  384   0.884   2.116   2.028
  813SOL     OW  385   1.719   2.447   3.693
  813SOL    HW1  386   1.693   2.536   3.657
  813SOL    HW2  387   1.717   2.379   3.620
  814SOL     OW  388   1.362   3.006   2.407
  814SOL    HW1  389   1.445   2.977   2.359
  814SOL    HW2  390   1.313   3.073   2.351
  816SOL     OW  391   1.008   3.318   2.339
  816SOL    HW1  392   0.962   3.390   2.287
  816SOL    HW2  393   1.004   3.338   2.437
  818SOL     OW  394   1.795   2.928   2.735
  818SOL    HW1  395   1.733   2.913   2.659
  818SOL    HW2  396   1.743   2.939   2.820
  821SOL     OW  397   1.458   2.597   2.590
  821SOL    HW1  398   1.453   2.532   2.665
  821SOL    HW2  399   1.538   2.656   2.603
  825SOL     OW  400   1.632   3.239   1.943
  825SOL    HW1  401   1.600   3.333   1.933
  825SOL    HW2  402   1.556   3.176   1.931
  827SOL     OW  403   1.400   1.969   2.288
  827SOL    HW1  404   1.376   1.932   2.198
  827SOL    HW2  405   1.499   1.985   2.292
  831SOL     OW  406   1.547   2.084   3.591
  831SOL    HW1  407   1.542   2.121   3.683
  831SOL    HW2  408   1.475   2.015   3.579
  835SOL     OW  409   1.351   2.452   3.295
  835SOL    HW1  410   1.379   2.409   3.380
  835SOL    HW2  411   1.376   2.548   3.296
  837SOL     OW  412   0.922   2.365   2.761
  837SOL    HW1  413   0.897   2.356   2.665
  837SOL    HW2  414   0.970   2.283   2.792
  839SOL     OW  415   1.434   3.050   1.903
  839SOL    HW1  416   1.466   2.974   1.960
  839SOL    HW2  417   1.342   3.077   1.933
  841SOL     OW  418   0.935   2.098   2.342
  841SOL    HW1  419   0.887   2.139   2.264
  841SOL    HW2  420   1.034   2.096   2.323
  842SOL     OW  421   1.076   2.545   3.326
  842SOL    HW1  422   0.996   2.484   3.329
  842SOL    HW2  423   1.157   2.492   3.302
  843SOL     OW  424   1.227   3.432   2.655
  843SOL    HW1  425   1.248   3.506   2.590
  843SOL    HW2  426   1.295   3.432   2.728
  845SOL     OW  427   1.271   3.659   2.453
  845SOL    HW1  428   1.315   3.723   2.389
  845SOL    HW2  429   1.221   3.711   2.523
  846SOL     OW  430   1.032   2.411   1.878
  846SOL    HW1  431   0.991   2.493   1.839
  846SOL    HW2  432   1.096   2.437   1.951
  849SOL     OW  433   0.866   2.316   2.504
  849SOL    HW1  434   0.834   2.388   2.442
  849SOL    HW2  435   0.890   2.235   2.451
  850SOL     OW  436   1.017   1.901   2.615
  850SOL    HW1  437   0.945   1.906   2.546
  850SOL    HW2  438   0.993   1.832   2.684
  851SOL     OW  439   1.429   3.035   2.729
  851SOL    HW1  440   1.374   2.951   2.722
  851SOL    HW2  441   1.455   3.064   2.637
  852SOL     OW  442   1.466   2.452   2.854
  852SOL    HW1  443   1.436   2.357   2.861
  852SOL    HW2  444   1.539   2.468   2.920
  853SOL     OW  445   1.857   2.695   2.239
  853SOL    HW1  446   1.899   2.631   2.303
  853SOL    HW2  447   1.819   2.644   2.161
  855SOL     OW  448   1.664   3.142   2.519
  855SOL    HW1  449   1.763   3.150   2.533
  855SOL    HW2  450   1.619   3.226   2.550
  856SOL     OW  451   1.390   2.437   1.940
  856SOL    HW1  452   1.336   2.416   2.021
  856SOL    HW2  453   1.481   2.396   1.949
  858SOL     OW  454   1.754   3.085   3.450
  858SOL    HW1  455   1.845   3.046   3.437
  858SOL    HW2  456   1.762   3.181   3.474
  859SOL     OW  457   1.064   3.209   3.202
  859SOL    HW1  458   0.984   3.186   3.257
  859SOL    HW2  459   1.147   3.183   3.251
  860SOL     OW  460   1.592   3.491   3.487
  860SOL    HW1  461   1.619   3.525   3.397
  860SOL    HW2  462   1.671   3.453   3.533
  861SOL     OW  463   1.111   3.057   2.962
  861SOL    HW1  464   1.071   3.101   3.043
  861SOL    HW2  465   1.070   3.094   2.879
  862SOL     OW  466   1.638   2.961   2.941
  862SOL    HW1  467   1.643   3.042   3.000
  862SOL    HW2  468   1.552   2.963   2.890
  863SOL     OW  469   0.915   1.951   3.264
  863SOL    HW1  470   0.940   1.931   3.169
  863SOL    HW2  471   0.987   2.007   3.306
  865SOL     OW  472   0.705   2.912   2.230
  865SOL    HW1  473   0.691   2.919   2.329
  865SOL    HW2  474   0.789   2.861   2.212
  867SOL     OW  475   1.274   2.248   3.124
  867SOL    HW1  476   1.295   2.322   3.188
  867SOL    HW2  477   1.185   2.265   3.081
  871SOL     OW  478   1.252   3.210   2.250
  871SOL    HW1  479   1.302   3.287   2.290
  871SOL    HW2  480   1.157   3.212   2.282
  872SOL     OW  481   1.272   3.307   3.004
  872SOL    HW1  482   1.319   3.320   3.091
  872SOL    HW2  483   1.206   3.233   3.013
  873SOL     OW  484   1.582   2.501   2.334
  873SOL    HW1  485   1.551   2.562   2.407
  873SOL    HW2  486   1.632   2.553   2.265
  876SOL     OW  487   1.587   2.641   3.532
  876SOL    HW1  488   1.495   2.679   3.527
  876SOL    HW2  489   1.647   2.688   3.467
  880SOL     OW  490   1.360   2.724   2.907
  880SOL    HW1  491   1.285   2.724   2.841
  880SOL    HW2  492   1.397   2.632   2.916
  881SOL     OW  493   1.209   2.387   2.137
  881SOL    HW1  494   1.222   2.303   2.191
  881SOL    HW2  495   1.180   2.461   2.197
  884SOL     OW  496   0.732   2.496   2.926
  884SOL    HW1  497   0.791   2.470   2.850
  884SOL    HW2  498   0.704   2.592   2.915
  885SOL     OW  499   1.728   2.797   3.716
  885SOL    HW1  500   1.682   2.790   3.627
  885SOL    HW2  501   1.666   2.841   3.782
  887SOL     OW  502   1.622   2.229   2.236
  887SOL    HW1  503   1.624   2.153   2.300
  887SOL    HW2  504   1.574   2.306   2.276
  888SOL     OW  505   1.023   2.628   2.828
  888SOL    HW1  506   1.038   2.649   2.924
  888SOL    HW2  507   0.993   2.533   2.819
  890SOL     OW  508   1.859   3.380   3.467
  890SOL    HW1  509   1.873   3.407   3.372
  890SOL    HW2  510   1.942   3.402   3.520
  892SOL     OW  511   1.540   2.136   1.987
  892SOL    HW1  512   1.479   2.061   2.010
  892SOL    HW2  513   1.562   2.188   2.070
  893SOL     OW  514   1.303   2.700   1.904
  893SOL    HW1  515   1.337   2.607   1.919
  893SOL    HW2  516   1.321   2.727   1.809
  894SOL     OW  517   1.068   3.195   2.711
  894SOL    HW1  518   1.075   3.111   2.656
  894SOL    HW2  519   1.130   3.264   2.675
  897SOL     OW  520   1.138   2.242   3.540
  897SOL    HW1  521   1.093   2.305   3.604
  897SOL    HW2  522   1.231   2.273   3.523
  898SOL     OW  523   1.160   2.069   3.339
  898SOL    HW1  524   1.160   2.133   3.416
  898SOL    HW2  525   1.188   2.117   3.256
  902SOL     OW  526   1.002   2.658   3.100
  902SOL    HW1  527   1.043   2.626   3.186
  902SOL    HW2  528   0.906   2.631   3.097
  905SOL     OW  529   1.369   2.812   3.522
  905SOL    HW1  530   1.408   2.901   3.542
  905SOL    HW2  531   1.379   2.792   3.425
  906SOL     OW  532   0.815   2.434   2.187
  906SOL    HW1  533   0.822   2.345   2.141
  906SOL    HW2  534   0.721   2.468   2.179
  907SOL     OW  535   1.657   2.466   3.068
  907SOL    HW1  536   1.619   2.397   3.130
  907SOL    HW2  537   1.739   2.430   3.024
  913SOL     OW  538   1.347   2.921   3.096
  913SOL    HW1  539   1.371   2.858   3.022
  913SOL    HW2  540   1.257   2.961   3.078
  914SOL     OW  541   1.302   2.717   2.171
  914SOL    HW1  542   1.216   2.686   2.213
  914SOL    HW2  543   1.298   2.703   2.072
  915SOL     OW  544   1.759   3.609   3.016
  915SOL    HW1  545   1.820   3.639   2.943
  915SOL    HW2  546   1.721   3.520   2.994
  916SOL     OW  547   1.252   3.593   2.990
  916SOL    HW1  548   1.336   3.598   2.936
  916SOL    HW2  549   1.229   3.497   3.008
  919SOL     OW  550   1.726   1.997   2.385
  919SOL    HW1  551   1.799   1.980   2.318
  919SOL    HW2  552   1.695   1.910   2.423
  920SOL     OW  553   1.388   3.435   2.339
  920SOL    HW1  554   1.455   3.447   2.265
  920SOL    HW2  555   1.348   3.524   2.362
  922SOL     OW  556   1.280   2.789   2.534
  922SOL    HW1  557   1.340   2.708   2.536
  922SOL    HW2  558   1.320   2.858   2.474
  925SOL     OW  559   1.650   3.582   3.256
  925SOL    HW1  560   1.703   3.592   3.172
  925SOL    HW2  561   1.623   3.672   3.290
  926SOL     OW  562   1.841   2.037   2.825
  926SOL    HW1  563   1.880   1.952   2.789
  926SOL    HW2  564   1.743   2.039   2.806
  928SOL     OW  565   1.194   3.474   1.893
  928SOL    HW1  566   1.200   3.381   1.930
  928SOL    HW2  567   1.135   3.474   1.813
  930SOL     OW  568   0.916   2.772   2.153
  930SOL    HW1  569   0.979   2.810   2.085
  930SOL    HW2  570   0.956   2.689   2.192
  931SOL     OW  571   1.504   3.469   1.906
  931SOL    HW1  572   1.412   3.506   1.913
  931SOL    HW2  573   1.542   3.489   1.816
  933SOL     OW  574   1.614   3.154   3.151
  933SOL    HW1  575   1.674   3.157   3.231
  933SOL    HW2  576   1.539   3.218   3.164
  934SOL     OW  577   1.039   2.960   2.558
  934SOL    HW1  578   0.969   2.913   2.612
  934SOL    HW2  579   1.098   2.892   2.515
  935SOL     OW  580   1.014   2.098   2.833
  935SOL    HW1  581   1.006   2.062   2.740
  935SOL    HW2  582   1.012   2.022   2.898
  937SOL     OW  583   1.709   2.247   3.243
  937SOL    HW1  584   1.782   2.316   3.247
  937SOL    HW2  585   1.737   2.172   3.184
  942SOL     OW  586   1.440   2.718   3.260
  942SOL    HW1  587   1.383   2.770   3.197
  942SOL    HW2  588   1.536   2.730   3.236
  944SOL     OW  589   1.183   3.197   1.981
  944SOL    HW1  590   1.084   3.186   1.983
  944SOL    HW2  591   1.217   3.212   2.074
  946SOL     OW  592   1.493   3.629   2.821
  946SOL    HW1  593   1.526   3.693   2.752
  946SOL    HW2  594   1.559   3.623   2.896
  948SOL     OW  595   1.450   3.082   3.495
  948SOL    HW1  596   1.441   3.072   3.594
  948SOL    HW2  597   1.546   3.075   3.469
  950SOL     OW  598   1.674   2.745   3.116
  950SOL    HW1  599   1.647   2.656   3.079
  950SOL    HW2  600   1.675   2.813   3.043
  951SOL     OW  601   1.225   2.187   2.311
  951SOL    HW1  602   1.290   2.113   2.300
  951SOL    HW2  603   1.245   2.237   2.395
  953SOL     OW  604   1.777   2.204   3.504
  953SOL    HW1  605   1.760   2.235   3.410
  953SOL    HW2  606   1.693   2.167   3.542
  954SOL     OW  607   1.730   2.796   3.379
  954SOL    HW1  608   1.768   2.887   3.394
  954SOL    HW2  609   1.722   2.779   3.280
  957SOL     OW  610   0.859   2.818   2.723
  957SOL    HW1  611   0.913   2.749   2.771
  957SOL    HW2  612   0.827   2.887   2.789
  958SOL     OW  613   1.083   2.846   1.949
  958SOL    HW1  614   1.060   2.899   1.867
  958SOL    HW2  615   1.164   2.790   1.930
  959SOL     OW  616   1.861   3.431   2.713
  959SOL    HW1  617   1.790   3.419   2.643
  959SOL    HW2  618   1.862   3.352   2.773
  963SOL     OW  619   1.824   2.054   3.089
  963SOL    HW1  620   1.820   1.964   3.133
  963SOL    HW2  621   1.827   2.043   2.990
  965SOL     OW  622   1.705   3.349   2.966
  965SOL    HW1  623   1.612   3.324   2.939
  965SOL    HW2  624   1.731   3.299   3.048
  968SOL     OW  625   1.424   2.076   2.974
  968SOL    HW1  626   1.476   2.011   3.029
  968SOL    HW2  627   1.375   2.139   3.035
  969SOL     OW  628   1.001   1.896   3.016
  969SOL    HW1  629   0.938   1.824   2.985
  969SOL    HW2  630   1.094   1.860   3.016
  972SOL     OW  631   1.352   1.914   2.030
  972SOL    HW1  632   1.387   1.873   1.946
  972SOL    HW2  633   1.262   1.876   2.050
  973SOL     OW  634   1.300   2.315   2.553
  973SOL    HW1  635   1.241   2.395   2.557
  973SOL    HW2  636   1.315   2.280   2.646
  974SOL     OW  637   1.593   2.083   2.744
  974SOL    HW1  638   1.509   2.082   2.798
  974SOL    HW2  639   1.595   2.166   2.688
  982SOL     OW  640   1.755   2.469   3.955
  982SOL    HW1  641   1.743   2.456   3.856
  982SOL    HW2  642   1.725   2.388   4.004
  998SOL     OW  643   1.525   2.861   3.914
  998SOL    HW1  644   1.462   2.785   3.927
  998SOL    HW2  645   1.573   2.879   4.000
 1015SOL     OW  646   1.632   3.239   3.805
 1015SOL    HW1  647   1.600   3.333   3.795
 1015SOL    HW2  648   1.556   3.176   3.793
 1025SOL     OW  649   1.434   3.050   3.765
 1025SOL    HW1  650   1.466   2.974   3.822
 1025SOL    HW2  651   1.342   3.077   3.795
 1036SOL     OW  652   1.857   2.695   4.101
 1036SOL    HW1  653   1.899   2.631   4.165
 1036SOL    HW2  654   1.819   2.644   4.023
 1039SOL     OW  655   1.390   2.437   3.802
 1039SOL    HW1  656   1.336   2.416   3.883
 1039SOL    HW2  657   1.481   2.396   3.811
 1054SOL     OW  658   1.540   2.136   3.849
 1054SOL    HW1  659   1.479   2.061   3.872
 1054SOL    HW2  660   1.562   2.188   3.932
 1055SOL     OW  661   1.303   2.700   3.766
 1055SOL    HW1  662   1.337   2.607   3.781
 1055SOL    HW2  663   1.321   2.727   3.671
 1262SOL     OW  664   1.400   3.831   2.288
 1262SOL    HW1  665   1.376   3.794   2.198
 1262SOL    HW2  666   1.499   3.847   2.292
 1321SOL     OW  667   1.726   3.859   2.385
 1321SOL    HW1  668   1.799   3.842   2.318
 1321SOL    HW2  669   1.695   3.772   2.423
 1323SOL     OW  670   1.841   3.899   2.825
 1323SOL    HW1  671   1.880   3.814   2.789
 1323SOL    HW2  672   1.743   3.901   2.806
 1343SOL     OW  673   1.824   3.916   3.089
 1343SOL    HW1  674   1.820   3.826   3.133
 1343SOL    HW2  675   1.827   3.905   2.990
 1348SOL     OW  676   1.352   3.776   2.030
 1348SOL    HW1  677   1.387   3.735   1.946
 1348SOL    HW2  678   1.262   3.738   2.050
 1350SOL     OW  679   1.593   3.945   2.744
 1350SOL    HW1  680   1.509   3.944   2.798
 1350SOL    HW2  681   1.595   4.028   2.688
 1431SOL     OW  682   2.431   1.275   1.165
 1431SOL    HW1  683   2.338   1.268   1.128
 1431SOL    HW2  684   2.442   1.364   1.209
 1436SOL     OW  685   2.712   0.798   1.823
 1436SOL    HW1  686   2.708   0.874   1.888
 1436SOL    HW2  687   2.734   0.834   1.732
 1438SOL     OW  688   2.548   1.161   1.803
 1438SOL    HW1  689   2.608   1.240   1.817
 1438SOL    HW2  690   2.462   1.192   1.762
 1439SOL     OW  691   2.197   1.435   1.061
 1439SOL    HW1  692   2.119   1.404   1.008
 1439SOL    HW2  693   2.255   1.493   1.004
 1440SOL     OW  694   3.322   1.505   1.339
 1440SOL    HW1  695   3.346   1.599   1.365
 1440SOL    HW2  696   3.306   1.451   1.421
 1444SOL     OW  697   2.989   1.341   1.690
 1444SOL    HW1  698   3.036   1.341   1.778
 1444SOL    HW2  699   2.941   1.254   1.679
 1447SOL     OW  700   2.482   1.786   1.439
 1447SOL    HW1  701   2.390   1.769   1.474
 1447SOL    HW2  702   2.510   1.878   1.465
 1457SOL     OW  703   3.155   1.228   1.423
 1457SOL    HW1  704   3.192   1.155   1.365
 1457SOL    HW2  705   3.207   1.233   1.508
 1461SOL     OW  706   3.049   1.792   1.616
 1461SOL    HW1  707   3.073   1.852   1.540
 1461SOL    HW2  708   3.056   1.697   1.586
 1470SOL     OW  709   2.835   0.890   1.572
 1470SOL    HW1  710   2.881   0.806   1.543
 1470SOL    HW2  711   2.779   0.924   1.497
 1474SOL     OW  712   1.992   1.821   1.571
 1474SOL    HW1  713   1.982   1.806   1.670
 1474SOL    HW2  714   1.906   1.857   1.535
 1480SOL     OW  715   2.213   1.801   0.853
 1480SOL    HW1  716   2.263   1.715   0.859
 1480SOL    HW2  717   2.278   1.878   0.850
 1482SOL     OW  718   3.089   1.550   1.506
 1482SOL    HW1  719   3.095   1.473   1.570
 1482SOL    HW2  720   3.037   1.524   1.426
 1485SOL     OW  721   2.323   1.266   1.727
 1485SOL    HW1  722   2.273   1.267   1.641
 1485SOL    HW2  723   2.260   1.248   1.803
 1491SOL     OW  724   2.111   1.785   1.241
 1491SOL    HW1  725   2.168   1.720   1.291
 1491SOL    HW2  726   2.095   1.752   1.148
 1492SOL     OW  727   2.802   1.698   0.904
 1492SOL    HW1  728   2.882   1.641   0.925
 1492SOL    HW2  729   2.753   1.658   0.827
 1497SOL     OW  730   2.750   1.514   1.195
 1497SOL    HW1  731   2.727   1.489   1.101
 1497SOL    HW2  732   2.811   1.445   1.234
 1522SOL     OW  733   2.926   1.347   1.340
 1522SOL    HW1  734   2.846   1.324   1.395
 1522SOL    HW2  735   3.009   1.321   1.389
 1523SOL     OW  736   3.454   1.629   1.625
 1523SOL    HW1  737   3.481   1.663   1.535
 1523SOL    HW2  738   3.533   1.591   1.671
 1527SOL     OW  739   2.842   1.116   1.719
 1527SOL    HW1  740   2.743   1.122   1.729
 1527SOL    HW2  741   2.865   1.036   1.663
 1531SOL     OW  742   1.926   1.564   1.331
 1531SOL    HW1  743   1.880   1.646   1.297
 1531SOL    HW2  744   2.024   1.583   1.340
 1535SOL     OW  745   3.134   1.445   1.142
 1535SOL    HW1  746   3.181   1.458   1.229
 1535SOL    HW2  747   3.068   1.371   1.151
 1537SOL     OW  748   2.216   1.510   1.329
 1537SOL    HW1  749   2.195   1.466   1.242
 1537SOL    HW2  750   2.313   1.536   1.332
 1546SOL     OW  751   1.899   1.310   1.282
 1546SOL    HW1  752   1.952   1.261   1.350
 1546SOL    HW2  753   1.921   1.408   1.287
 1552SOL     OW  754   2.842   1.573   1.700
 1552SOL    HW1  755   2.822   1.617   1.612
 1552SOL    HW2  756   2.881   1.482   1.684
 1553SOL     OW  757   3.721   1.518   1.605
 1553SOL    HW1  758   3.735   1.545   1.510
 1553SOL    HW2  759   3.804   1.540   1.658
 1554SOL     OW  760   2.212   0.898   1.804
 1554SOL    HW1  761   2.288   0.942   1.852
 1554SOL    HW2  762   2.247   0.851   1.722
 1563SOL     OW  763   1.950   1.801   0.927
 1563SOL    HW1  764   1.908   1.715   0.900
 1563SOL    HW2  765   2.044   1.804   0.893
 1564SOL     OW  766   2.366   1.568   0.910
 1564SOL    HW1  767   2.432   1.642   0.919
 1564SOL    HW2  768   2.410   1.489   0.868
 1571SOL     OW  769   2.114   1.564   1.744
 1571SOL    HW1  770   2.084   1.621   1.820
 1571SOL    HW2  771   2.107   1.467   1.770
 1573SOL     OW  772   2.792   1.678   1.465
 1573SOL    HW1  773   2.768   1.660   1.370
 1573SOL    HW2  774   2.822   1.772   1.475
 1575SOL     OW  775   2.021   1.137   1.466
 1575SOL    HW1  776   2.043   1.076   1.542
 1575SOL    HW2  777   2.031   1.088   1.380
 1579SOL     OW  778   3.114   1.731   1.128
 1579SOL    HW1  779   3.198   1.736   1.074
 1579SOL    HW2  780   3.091   1.635   1.146
 1581SOL     OW  781   2.550   1.662   1.716
 1581SOL    HW1  782   2.494   1.743   1.725
 1581SOL    HW2  783   2.602   1.666   1.630
 1585SOL     OW  784   1.992   1.794   1.851
 1585SOL    HW1  785   1.951   1.720   1.904
 1585SOL    HW2  786   2.056   1.845   1.909
 1587SOL     OW  787   2.692   1.273   1.422
 1587SOL    HW1  788   2.687   1.306   1.517
 1587SOL    HW2  789   2.606   1.292   1.376
 1589SOL     OW  790   3.512   1.720   1.394
 1589SOL    HW1  791   3.565   1.730   1.310
 1589SOL    HW2  792   3.485   1.810   1.428
 1593SOL     OW  793   2.684   1.002   1.372
 1593SOL    HW1  794   2.724   1.001   1.280
 1593SOL    HW2  795   2.694   1.094   1.412
 1596SOL     OW  796   2.234   1.288   1.490
 1596SOL    HW1  797   2.221   1.381   1.456
 1596SOL    HW2  798   2.150   1.236   1.477
 1603SOL     OW  799   1.967   1.013   1.726
 1603SOL    HW1  800   1.890   0.980   1.780
 1603SOL    HW2  801   2.052   0.983   1.768
 1612SOL     OW  802   3.312   1.220   1.633
 1612SOL    HW1  803   3.303   1.210   1.732
 1612SOL    HW2  804   3.408   1.213   1.607
 1613SOL     OW  805   2.252   1.741   1.560
 1613SOL    HW1  806   2.161   1.782   1.558
 1613SOL    HW2  807   2.245   1.647   1.592
 1620SOL     OW  808   2.523   1.790   0.953
 1620SOL    HW1  809   2.477   1.878   0.940
 1620SOL    HW2  810   2.622   1.802   0.946
 1624SOL     OW  811   2.083   1.314   1.844
 1624SOL    HW1  812   2.018   1.241   1.823
 1624SOL    HW2  813   2.087   1.328   1.942
 1626SOL     OW  814   2.534   1.391   1.624
 1626SOL    HW1  815   2.456   1.341   1.662
 1626SOL    HW2  816   2.531   1.486   1.655
 1635SOL     OW  817   2.480   1.567   1.284
 1635SOL    HW1  818   2.475   1.649   1.341
 1635SOL    HW2  819   2.569   1.564   1.239
 1644SOL     OW  820   2.431   1.275   3.027
 1644SOL    HW1  821   2.338   1.268   2.990
 1644SOL    HW2  822   2.442   1.364   3.071
 1645SOL     OW  823   3.417   1.511   2.565
 1645SOL    HW1  824   3.360   1.495   2.646
 1645SOL    HW2  825   3.358   1.521   2.485
 1648SOL     OW  826   2.630   1.144   2.885
 1648SOL    HW1  827   2.552   1.161   2.945
 1648SOL    HW2  828   2.664   1.231   2.849
 1650SOL     OW  829   2.547   1.012   2.527
 1650SOL    HW1  830   2.616   0.996   2.597
 1650SOL    HW2  831   2.474   1.069   2.565
 1651SOL     OW  832   2.548   1.161   3.665
 1651SOL    HW1  833   2.608   1.240   3.679
 1651SOL    HW2  834   2.462   1.192   3.624
 1652SOL     OW  835   2.197   1.435   2.923
 1652SOL    HW1  836   2.119   1.404   2.870
 1652SOL    HW2  837   2.255   1.493   2.866
 1653SOL     OW  838   3.322   1.505   3.201
 1653SOL    HW1  839   3.346   1.599   3.227
 1653SOL    HW2  840   3.306   1.451   3.283
 1656SOL     OW  841   2.093   1.713   2.345
 1656SOL    HW1  842   2.127   1.790   2.399
 1656SOL    HW2  843   2.137   1.713   2.255
 1657SOL     OW  844   2.989   1.341   3.552
 1657SOL    HW1  845   3.036   1.341   3.640
 1657SOL    HW2  846   2.941   1.254   3.541
 1658SOL     OW  847   2.092   1.434   2.400
 1658SOL    HW1  848   2.066   1.530   2.400
 1658SOL    HW2  849   2.021   1.380   2.445
 1659SOL     OW  850   2.102   1.091   2.748
 1659SOL    HW1  851   2.116   1.007   2.800
 1659SOL    HW2  852   2.047   1.155   2.803
 1660SOL     OW  853   2.482   1.786   3.301
 1660SOL    HW1  854   2.390   1.769   3.336
 1660SOL    HW2  855   2.510   1.878   3.327
 1661SOL     OW  856   2.468   0.964   1.985
 1661SOL    HW1  857   2.475   1.048   1.931
 1661SOL    HW2  858   2.514   0.977   2.073
 1664SOL     OW  859   3.704   1.767   2.221
 1664SOL    HW1  860   3.758   1.738   2.301
 1664SOL    HW2  861   3.734   1.857   2.192
 1665SOL     OW  862   1.889   1.596   1.979
 1665SOL    HW1  863   1.870   1.500   2.000
 1665SOL    HW2  864   1.856   1.654   2.054
 1667SOL     OW  865   3.503   1.108   2.294
 1667SOL    HW1  866   3.589   1.110   2.242
 1667SOL    HW2  867   3.517   1.155   2.382
 1669SOL     OW  868   2.475   1.365   2.588
 1669SOL    HW1  869   2.426   1.278   2.597
 1669SOL    HW2  870   2.452   1.408   2.501
 1670SOL     OW  871   3.155   1.228   3.285
 1670SOL    HW1  872   3.192   1.155   3.227
 1670SOL    HW2  873   3.207   1.233   3.370
 1672SOL     OW  874   2.059   0.976   3.126
 1672SOL    HW1  875   2.148   0.931   3.112
 1672SOL    HW2  876   1.986   0.911   3.107
 1673SOL     OW  877   3.387   0.999   2.052
 1673SOL    HW1  878   3.324   0.923   2.065
 1673SOL    HW2  879   3.435   1.017   2.138
 1674SOL     OW  880   3.049   1.792   3.478
 1674SOL    HW1  881   3.073   1.852   3.402
 1674SOL    HW2  882   3.056   1.697   3.448
 1676SOL     OW  883   3.328   1.417   2.815
 1676SOL    HW1  884   3.269   1.423   2.895
 1676SOL    HW2  885   3.313   1.329   2.769
 1677SOL     OW  886   3.529   1.714   2.434
 1677SOL    HW1  887   3.488   1.691   2.346
 1677SOL    HW2  888   3.511   1.640   2.499
 1678SOL     OW  889   2.460   0.729   2.132
 1678SOL    HW1  890   2.484   0.798   2.064
 1678SOL    HW2  891   2.382   0.762   2.186
 1680SOL     OW  892   3.438   1.662   2.169
 1680SOL    HW1  893   3.527   1.708   2.172
 1680SOL    HW2  894   3.417   1.638   2.074
 1685SOL     OW  895   2.903   0.701   2.291
 1685SOL    HW1  896   2.929   0.697   2.387
 1685SOL    HW2  897   2.818   0.650   2.277
 1686SOL     OW  898   1.938   0.811   2.651
 1686SOL    HW1  899   2.037   0.799   2.660
 1686SOL    HW2  900   1.914   0.906   2.672
 1687SOL     OW  901   1.992   1.821   3.433
 1687SOL    HW1  902   1.982   1.806   3.532
 1687SOL    HW2  903   1.906   1.857   3.397
 1690SOL     OW  904   3.224   1.144   2.407
 1690SOL    HW1  905   3.307   1.115   2.359
 1690SOL    HW2  906   3.175   1.211   2.351
 1692SOL     OW  907   2.870   1.456   2.339
 1692SOL    HW1  908   2.824   1.528   2.287
 1692SOL    HW2  909   2.866   1.476   2.437
 1693SOL     OW  910   2.213   1.801   2.715
 1693SOL    HW1  911   2.263   1.715   2.721
 1693SOL    HW2  912   2.278   1.878   2.712
 1695SOL     OW  913   3.089   1.550   3.368
 1695SOL    HW1  914   3.095   1.473   3.432
 1695SOL    HW2  915   3.037   1.524   3.288
 1696SOL     OW  916   2.183   0.943   2.104
 1696SOL    HW1  917   2.265   0.982   2.062
 1696SOL    HW2  918   2.156   0.861   2.055
 1698SOL     OW  919   2.323   1.266   3.589
 1698SOL    HW1  920   2.273   1.267   3.503
 1698SOL    HW2  921   2.260   1.248   3.665
 1699SOL     OW  922   2.973   1.776   2.099
 1699SOL    HW1  923   2.913   1.714   2.149
 1699SOL    HW2  924   3.004   1.732   2.014
 1701SOL     OW  925   3.494   1.377   1.943
 1701SOL    HW1  926   3.462   1.471   1.933
 1701SOL    HW2  927   3.418   1.314   1.931
 1702SOL     OW  928   2.326   1.743   2.185
 1702SOL    HW1  929   2.359   1.782   2.271
 1702SOL    HW2  930   2.402   1.736   2.120
 1704SOL     OW  931   2.111   1.785   3.103
 1704SOL    HW1  932   2.168   1.720   3.153
 1704SOL    HW2  933   2.095   1.752   3.010
 1705SOL     OW  934   2.802   1.698   2.766
 1705SOL    HW1  935   2.882   1.641   2.787
 1705SOL    HW2  936   2.753   1.658   2.689
 1706SOL     OW  937   2.244   0.700   2.342
 1706SOL    HW1  938   2.289   0.610   2.339
 1706SOL    HW2  939   2.150   0.689   2.375
 1710SOL     OW  940   2.750   1.514   3.057
 1710SOL    HW1  941   2.727   1.489   2.963
 1710SOL    HW2  942   2.811   1.445   3.096
 1712SOL     OW  943   2.665   1.402   2.786
 1712SOL    HW1  944   2.755   1.416   2.744
 1712SOL    HW2  945   2.594   1.404   2.715
 1715SOL     OW  946   3.296   1.188   1.903
 1715SOL    HW1  947   3.328   1.112   1.960
 1715SOL    HW2  948   3.204   1.215   1.933
 1719SOL     OW  949   3.089   1.570   2.655
 1719SOL    HW1  950   3.110   1.644   2.590
 1719SOL    HW2  951   3.157   1.570   2.728
 1720SOL     OW  952   2.321   1.152   2.603
 1720SOL    HW1  953   2.250   1.125   2.668
 1720SOL    HW2  954   2.295   1.124   2.510
 1721SOL     OW  955   3.133   1.797   2.453
 1721SOL    HW1  956   3.177   1.861   2.389
 1721SOL    HW2  957   3.083   1.849   2.523
 1727SOL     OW  958   3.291   1.173   2.729
 1727SOL    HW1  959   3.236   1.089   2.722
 1727SOL    HW2  960   3.317   1.202   2.637
 1730SOL     OW  961   2.350   1.385   2.036
 1730SOL    HW1  962   2.263   1.370   2.083
 1730SOL    HW2  963   2.333   1.411   1.941
 1731SOL     OW  964   3.526   1.280   2.519
 1731SOL    HW1  965   3.625   1.288   2.533
 1731SOL    HW2  966   3.481   1.364   2.550
 1735SOL     OW  967   2.926   1.347   3.202
 1735SOL    HW1  968   2.846   1.324   3.257
 1735SOL    HW2  969   3.009   1.321   3.251
 1736SOL     OW  970   3.454   1.629   3.487
 1736SOL    HW1  971   3.481   1.663   3.397
 1736SOL    HW2  972   3.533   1.591   3.533
 1737SOL     OW  973   2.973   1.195   2.962
 1737SOL    HW1  974   2.933   1.239   3.043
 1737SOL    HW2  975   2.932   1.232   2.879
 1738SOL     OW  976   3.500   1.099   2.941
 1738SOL    HW1  977   3.505   1.180   3.000
 1738SOL    HW2  978   3.414   1.101   2.890
 1740SOL     OW  979   2.842   1.116   3.581
 1740SOL    HW1  980   2.743   1.122   3.591
 1740SOL    HW2  981   2.865   1.036   3.525
 1741SOL     OW  982   2.567   1.050   2.230
 1741SOL    HW1  983   2.553   1.057   2.329
 1741SOL    HW2  984   2.651   0.999   2.212
 1742SOL     OW  985   2.272   0.813   3.113
 1742SOL    HW1  986   2.358   0.825   3.163
 1742SOL    HW2  987   2.230   0.726   3.140
 1744SOL     OW  988   1.926   1.564   3.193
 1744SOL    HW1  989   1.880   1.646   3.159
 1744SOL    HW2  990   2.024   1.583   3.202
 1745SOL     OW  991   2.229   1.100   2.363
 1745SOL    HW1  992   2.222   1.183   2.307
 1745SOL    HW2  993   2.233   1.020   2.303
 1747SOL     OW  994   3.114   1.348   2.250
 1747SOL    HW1  995   3.164   1.425   2.290
 1747SOL    HW2  996   3.019   1.350   2.282
 1748SOL     OW  997   3.134   1.445   3.004
 1748SOL    HW1  998   3.181   1.458   3.091
 1748SOL    HW2  999   3.068   1.371   3.013
 1750SOL     OW 1000   2.216   1.510   3.191
 1750SOL    HW1 1001   2.195   1.466   3.104
 1750SOL    HW2 1002   2.313   1.536   3.194
 1755SOL     OW 1003   2.435   0.870   2.891
 1755SOL    HW1 1004   2.479   0.959   2.882
 1755SOL    HW2 1005   2.372   0.870   2.968
 1759SOL     OW 1006   1.899   1.310   3.144
 1759SOL    HW1 1007   1.952   1.261   3.212
 1759SOL    HW2 1008   1.921   1.408   3.149
 1764SOL     OW 1009   2.885   0.766   2.828
 1764SOL    HW1 1010   2.900   0.787   2.924
 1764SOL    HW2 1011   2.855   0.671   2.819
 1765SOL     OW 1012   2.842   1.573   3.562
 1765SOL    HW1 1013   2.822   1.617   3.474
 1765SOL    HW2 1014   2.881   1.482   3.546
 1770SOL     OW 1015   2.930   1.333   2.711
 1770SOL    HW1 1016   2.937   1.249   2.656
 1770SOL    HW2 1017   2.992   1.402   2.675
 1771SOL     OW 1018   2.181   0.810   2.811
 1771SOL    HW1 1019   2.274   0.846   2.816
 1771SOL    HW2 1020   2.175   0.725   2.863
 1775SOL     OW 1021   1.870   1.326   2.062
 1775SOL    HW1 1022   1.777   1.347   2.031
 1775SOL    HW2 1023   1.880   1.227   2.075
 1776SOL     OW 1024   1.950   1.801   2.789
 1776SOL    HW1 1025   1.908   1.715   2.762
 1776SOL    HW2 1026   2.044   1.804   2.755
 1777SOL     OW 1027   2.366   1.568   2.772
 1777SOL    HW1 1028   2.432   1.642   2.781
 1777SOL    HW2 1029   2.410   1.489   2.730
 1784SOL     OW 1030   2.114   1.564   3.606
 1784SOL    HW1 1031   2.084   1.621   3.682
 1784SOL    HW2 1032   2.107   1.467   3.632
 1786SOL     OW 1033   2.792   1.678   3.327
 1786SOL    HW1 1034   2.768   1.660   3.232
 1786SOL    HW2 1035   2.822   1.772   3.337
 1788SOL     OW 1036   2.021   1.137   3.328
 1788SOL    HW1 1037   2.043   1.076   3.404
 1788SOL    HW2 1038   2.031   1.088   3.242
 1789SOL     OW 1039   3.209   1.059   3.096
 1789SOL    HW1 1040   3.233   0.996   3.022
 1789SOL    HW2 1041   3.119   1.099   3.078
 1790SOL     OW 1042   3.164   0.855   2.171
 1790SOL    HW1 1043   3.078   0.824   2.213
 1790SOL    HW2 1044   3.160   0.841   2.072
 1791SOL     OW 1045   3.621   1.747   3.016
 1791SOL    HW1 1046   3.682   1.777   2.943
 1791SOL    HW2 1047   3.583   1.658   2.994
 1792SOL     OW 1048   3.114   1.731   2.990
 1792SOL    HW1 1049   3.198   1.736   2.936
 1792SOL    HW2 1050   3.091   1.635   3.008
 1793SOL     OW 1051   1.945   1.258   2.884
 1793SOL    HW1 1052   1.940   1.257   2.984
 1793SOL    HW2 1053   1.862   1.217   2.846
 1794SOL     OW 1054   2.550   1.662   3.578
 1794SOL    HW1 1055   2.494   1.743   3.587
 1794SOL    HW2 1056   2.602   1.666   3.492
 1796SOL     OW 1057   3.250   1.573   2.339
 1796SOL    HW1 1058   3.317   1.585   2.265
 1796SOL    HW2 1059   3.210   1.662   2.362
 1797SOL     OW 1060   1.992   1.794   3.713
 1797SOL    HW1 1061   1.951   1.720   3.766
 1797SOL    HW2 1062   2.056   1.845   3.771
 1798SOL     OW 1063   3.142   0.927   2.534
 1798SOL    HW1 1064   3.202   0.846   2.536
 1798SOL    HW2 1065   3.182   0.996   2.474
 1799SOL     OW 1066   2.692   1.273   3.284
 1799SOL    HW1 1067   2.687   1.306   3.379
 1799SOL    HW2 1068   2.606   1.292   3.238
 1800SOL     OW 1069   2.534   1.616   2.016
 1800SOL    HW1 1070   2.543   1.626   1.917
 1800SOL    HW2 1071   2.494   1.527   2.037
 1801SOL     OW 1072   3.512   1.720   3.256
 1801SOL    HW1 1073   3.565   1.730   3.172
 1801SOL    HW2 1074   3.485   1.810   3.290
 1804SOL     OW 1075   3.056   1.612   1.893
 1804SOL    HW1 1076   3.062   1.519   1.930
 1804SOL    HW2 1077   2.997   1.612   1.813
 1805SOL     OW 1078   2.684   1.002   3.234
 1805SOL    HW1 1079   2.724   1.001   3.142
 1805SOL    HW2 1080   2.694   1.094   3.274
 1806SOL     OW 1081   2.778   0.910   2.153
 1806SOL    HW1 1082   2.841   0.948   2.085
 1806SOL    HW2 1083   2.818   0.827   2.192
 1807SOL     OW 1084   3.366   1.607   1.906
 1807SOL    HW1 1085   3.274   1.644   1.913
 1807SOL    HW2 1086   3.404   1.627   1.816
 1808SOL     OW 1087   2.234   1.288   3.352
 1808SOL    HW1 1088   2.221   1.381   3.318
 1808SOL    HW2 1089   2.150   1.236   3.339
 1809SOL     OW 1090   3.476   1.292   3.151
 1809SOL    HW1 1091   3.536   1.295   3.231
 1809SOL    HW2 1092   3.401   1.356   3.164
 1810SOL     OW 1093   2.901   1.098   2.558
 1810SOL    HW1 1094   2.831   1.051   2.612
 1810SOL    HW2 1095   2.960   1.030   2.515
 1812SOL     OW 1096   2.452   1.487   2.353
 1812SOL    HW1 1097   2.494   1.429   2.283
 1812SOL    HW2 1098   2.408   1.566   2.309
 1814SOL     OW 1099   2.117   1.348   2.152
 1814SOL    HW1 1100   2.021   1.349   2.125
 1814SOL    HW2 1101   2.129   1.401   2.236
 1820SOL     OW 1102   3.045   1.335   1.981
 1820SOL    HW1 1103   2.946   1.324   1.983
 1820SOL    HW2 1104   3.079   1.350   2.074
 1822SOL     OW 1105   3.355   1.767   2.821
 1822SOL    HW1 1106   3.388   1.831   2.752
 1822SOL    HW2 1107   3.421   1.761   2.896
 1825SOL     OW 1108   2.252   1.741   3.422
 1825SOL    HW1 1109   2.161   1.782   3.420
 1825SOL    HW2 1110   2.245   1.647   3.454
 1828SOL     OW 1111   2.456   0.745   2.514
 1828SOL    HW1 1112   2.506   0.830   2.495
 1828SOL    HW2 1113   2.368   0.747   2.466
 1831SOL     OW 1114   2.721   1.374   1.878
 1831SOL    HW1 1115   2.675   1.389   1.966
 1831SOL    HW2 1116   2.765   1.459   1.848
 1832SOL     OW 1117   2.523   1.790   2.815
 1832SOL    HW1 1118   2.477   1.878   2.802
 1832SOL    HW2 1119   2.622   1.802   2.808
 1833SOL     OW 1120   2.721   0.956   2.723
 1833SOL    HW1 1121   2.775   0.887   2.771
 1833SOL    HW2 1122   2.689   1.025   2.789
 1834SOL     OW 1123   2.945   0.984   1.949
 1834SOL    HW1 1124   2.922   1.037   1.867
 1834SOL    HW2 1125   3.026   0.928   1.930
 1835SOL     OW 1126   3.723   1.569   2.713
 1835SOL    HW1 1127   3.652   1.557   2.643
 1835SOL    HW2 1128   3.724   1.490   2.773
 1836SOL     OW 1129   2.083   1.314   3.706
 1836SOL    HW1 1130   2.018   1.241   3.685
 1836SOL    HW2 1131   2.087   1.328   3.804
 1837SOL     OW 1132   1.941   1.240   2.515
 1837SOL    HW1 1133   1.940   1.193   2.603
 1837SOL    HW2 1134   2.023   1.212   2.464
 1838SOL     OW 1135   2.534   1.391   3.486
 1838SOL    HW1 1136   2.456   1.341   3.524
 1838SOL    HW2 1137   2.531   1.486   3.517
 1841SOL     OW 1138   3.567   1.487   2.966
 1841SOL    HW1 1139   3.474   1.462   2.939
 1841SOL    HW2 1140   3.593   1.437   3.048
 1843SOL     OW 1141   2.674   1.586   2.549
 1843SOL    HW1 1142   2.706   1.596   2.455
 1843SOL    HW2 1143   2.595   1.524   2.551
 1846SOL     OW 1144   2.632   1.330   2.163
 1846SOL    HW1 1145   2.586   1.243   2.180
 1846SOL    HW2 1146   2.723   1.327   2.204
 1847SOL     OW 1147   2.480   1.567   3.146
 1847SOL    HW1 1148   2.475   1.649   3.203
 1847SOL    HW2 1149   2.569   1.564   3.101
 1851SOL     OW 1150   1.901   1.077   2.162
 1851SOL    HW1 1151   2.000   1.066   2.153
 1851SOL    HW2 1152   1.861   0.991   2.194
 1852SOL     OW 1153   2.737   1.646   2.199
 1852SOL    HW1 1154   2.660   1.611   2.145
 1852SOL    HW2 1155   2.705   1.717   2.261
 1869SOL     OW 1156   1.889   1.596   3.841
 1869SOL    HW1 1157   1.870   1.500   3.862
 1869SOL    HW2 1158   1.856   1.654   3.916
 1890SOL     OW 1159   2.973   1.776   3.961
 1890SOL    HW1 1160   2.913   1.714   4.011
 1890SOL    HW2 1161   3.004   1.732   3.876
 1892SOL     OW 1162   2.326   1.743   4.047
 1892SOL    HW1 1163   2.359   1.782   4.133
 1892SOL    HW2 1164   2.402   1.736   3.982
 1947SOL     OW 1165   2.534   1.616   3.878
 1947SOL    HW1 1166   2.543   1.626   3.779
 1947SOL    HW2 1167   2.494   1.527   3.899
 1950SOL     OW 1168   3.056   1.612   3.755
 1950SOL    HW1 1169   3.062   1.519   3.792
 1950SOL    HW2 1170   2.997   1.612   3.675
 1964SOL     OW 1171   2.721   1.374   3.740
 1964SOL    HW1 1172   2.675   1.389   3.828
 1964SOL    HW2 1173   2.765   1.459   3.710
 1980SOL     OW 1174   2.087   2.137   0.996
 1980SOL    HW1 1175   2.122   2.120   1.088
 1980SOL    HW2 1176   1.999   2.092   0.984
 1982SOL     OW 1177   2.431   3.137   1.165
 1982SOL    HW1 1178   2.338   3.130   1.128
 1982SOL    HW2 1179   2.442   3.226   1.209
 1986SOL     OW 1180   2.630   3.006   1.023
 1986SOL    HW1 1181   2.552   3.023   1.083
 1986SOL    HW2 1182   2.664   3.093   0.987
 1987SOL     OW 1183   2.712   2.660   1.823
 1987SOL    HW1 1184   2.708   2.736   1.888
 1987SOL    HW2 1185   2.734   2.696   1.732
 1989SOL     OW 1186   2.548   3.023   1.803
 1989SOL    HW1 1187   2.608   3.102   1.817
 1989SOL    HW2 1188   2.462   3.054   1.762
 1990SOL     OW 1189   2.197   3.297   1.061
 1990SOL    HW1 1190   2.119   3.266   1.008
 1990SOL    HW2 1191   2.255   3.355   1.004
 1991SOL     OW 1192   3.322   3.367   1.339
 1991SOL    HW1 1193   3.346   3.461   1.365
 1991SOL    HW2 1194   3.306   3.313   1.421
 1992SOL     OW 1195   2.300   2.254   1.499
 1992SOL    HW1 1196   2.382   2.198   1.508
 1992SOL    HW2 1197   2.219   2.196   1.503
 1995SOL     OW 1198   2.989   3.203   1.690
 1995SOL    HW1 1199   3.036   3.203   1.778
 1995SOL    HW2 1200   2.941   3.116   1.679
 1997SOL     OW 1201   2.102   2.953   0.886
 1997SOL    HW1 1202   2.116   2.869   0.938
 1997SOL    HW2 1203   2.047   3.017   0.941
 1998SOL     OW 1204   2.482   3.648   1.439
 1998SOL    HW1 1205   2.390   3.631   1.474
 1998SOL    HW2 1206   2.510   3.740   1.465
 2000SOL     OW 1207   3.456   1.976   1.480
 2000SOL    HW1 1208   3.438   2.043   1.408
 2000SOL    HW2 1209   3.453   2.022   1.569
 2006SOL     OW 1210   1.975   2.599   1.597
 2006SOL    HW1 1211   2.063   2.586   1.642
 2006SOL    HW2 1212   1.962   2.696   1.575
 2008SOL     OW 1213   3.155   3.090   1.423
 2008SOL    HW1 1214   3.192   3.017   1.365
 2008SOL    HW2 1215   3.207   3.095   1.508
 2010SOL     OW 1216   2.059   2.838   1.264
 2010SOL    HW1 1217   2.148   2.793   1.250
 2010SOL    HW2 1218   1.986   2.773   1.245
 2012SOL     OW 1219   3.049   3.654   1.616
 2012SOL    HW1 1220   3.073   3.714   1.540
 2012SOL    HW2 1221   3.056   3.559   1.586
 2013SOL     OW 1222   2.179   2.113   1.801
 2013SOL    HW1 1223   2.250   2.184   1.807
 2013SOL    HW2 1224   2.091   2.152   1.829
 2017SOL     OW 1225   3.143   2.207   0.944
 2017SOL    HW1 1226   3.057   2.157   0.931
 2017SOL    HW2 1227   3.205   2.153   1.000
 2019SOL     OW 1228   2.669   2.467   1.465
 2019SOL    HW1 1229   2.622   2.464   1.554
 2019SOL    HW2 1230   2.618   2.412   1.399
 2020SOL     OW 1231   3.256   2.331   1.674
 2020SOL    HW1 1232   3.236   2.374   1.762
 2020SOL    HW2 1233   3.334   2.269   1.683
 2021SOL     OW 1234   2.835   2.752   1.572
 2021SOL    HW1 1235   2.881   2.668   1.543
 2021SOL    HW2 1236   2.779   2.786   1.497
 2022SOL     OW 1237   2.853   2.272   1.242
 2022SOL    HW1 1238   2.776   2.306   1.296
 2022SOL    HW2 1239   2.819   2.221   1.163
 2024SOL     OW 1240   1.938   2.673   0.789
 2024SOL    HW1 1241   2.037   2.661   0.798
 2024SOL    HW2 1242   1.914   2.768   0.810
 2025SOL     OW 1243   1.992   3.683   1.571
 2025SOL    HW1 1244   1.982   3.668   1.670
 2025SOL    HW2 1245   1.906   3.719   1.535
 2027SOL     OW 1246   3.581   2.447   1.831
 2027SOL    HW1 1247   3.555   2.536   1.795
 2027SOL    HW2 1248   3.579   2.379   1.758
 2029SOL     OW 1249   2.412   2.058   0.885
 2029SOL    HW1 1250   2.407   2.053   0.985
 2029SOL    HW2 1251   2.414   2.154   0.856
 2033SOL     OW 1252   3.089   3.412   1.506
 2033SOL    HW1 1253   3.095   3.335   1.570
 2033SOL    HW2 1254   3.037   3.386   1.426
 2036SOL     OW 1255   2.323   3.128   1.727
 2036SOL    HW1 1256   2.273   3.129   1.641
 2036SOL    HW2 1257   2.260   3.110   1.803
 2038SOL     OW 1258   2.064   2.147   1.498
 2038SOL    HW1 1259   1.984   2.207   1.485
 2038SOL    HW2 1260   2.054   2.098   1.584
 2042SOL     OW 1261   2.111   3.647   1.241
 2042SOL    HW1 1262   2.168   3.582   1.291
 2042SOL    HW2 1263   2.095   3.614   1.148
 2045SOL     OW 1264   3.409   2.084   1.729
 2045SOL    HW1 1265   3.404   2.121   1.821
 2045SOL    HW2 1266   3.337   2.015   1.717
 2047SOL     OW 1267   2.643   2.126   1.749
 2047SOL    HW1 1268   2.710   2.065   1.792
 2047SOL    HW2 1269   2.570   2.145   1.814
 2048SOL     OW 1270   2.750   3.376   1.195
 2048SOL    HW1 1271   2.727   3.351   1.101
 2048SOL    HW2 1272   2.811   3.307   1.234
 2049SOL     OW 1273   3.213   2.452   1.433
 2049SOL    HW1 1274   3.241   2.409   1.518
 2049SOL    HW2 1275   3.238   2.548   1.434
 2050SOL     OW 1276   2.665   3.264   0.924
 2050SOL    HW1 1277   2.755   3.278   0.882
 2050SOL    HW2 1278   2.594   3.266   0.853
 2051SOL     OW 1279   2.784   2.365   0.899
 2051SOL    HW1 1280   2.759   2.356   0.803
 2051SOL    HW2 1281   2.832   2.283   0.930
 2055SOL     OW 1282   2.938   2.545   1.464
 2055SOL    HW1 1283   2.858   2.484   1.467
 2055SOL    HW2 1284   3.019   2.492   1.440
 2057SOL     OW 1285   2.321   3.014   0.741
 2057SOL    HW1 1286   2.250   2.987   0.806
 2057SOL    HW2 1287   2.295   2.986   0.648
 2060SOL     OW 1288   1.940   2.418   1.386
 2060SOL    HW1 1289   2.032   2.417   1.345
 2060SOL    HW2 1290   1.934   2.492   1.453
 2061SOL     OW 1291   2.423   2.084   1.147
 2061SOL    HW1 1292   2.461   2.000   1.184
 2061SOL    HW2 1293   2.335   2.103   1.191
 2065SOL     OW 1294   3.328   2.452   0.992
 2065SOL    HW1 1295   3.298   2.357   0.999
 2065SOL    HW2 1296   3.401   2.468   1.058
 2071SOL     OW 1297   3.616   3.085   1.588
 2071SOL    HW1 1298   3.707   3.046   1.575
 2071SOL    HW2 1299   3.624   3.181   1.612
 2072SOL     OW 1300   2.926   3.209   1.340
 2072SOL    HW1 1301   2.846   3.186   1.395
 2072SOL    HW2 1302   3.009   3.183   1.389
 2073SOL     OW 1303   3.454   3.491   1.625
 2073SOL    HW1 1304   3.481   3.525   1.535
 2073SOL    HW2 1305   3.533   3.453   1.671
 2074SOL     OW 1306   2.973   3.057   1.100
 2074SOL    HW1 1307   2.933   3.101   1.181
 2074SOL    HW2 1308   2.932   3.094   1.017
 2076SOL     OW 1309   2.777   1.951   1.402
 2076SOL    HW1 1310   2.802   1.931   1.307
 2076SOL    HW2 1311   2.849   2.007   1.444
 2077SOL     OW 1312   2.842   2.978   1.719
 2077SOL    HW1 1313   2.743   2.984   1.729
 2077SOL    HW2 1314   2.865   2.898   1.663
 2079SOL     OW 1315   2.272   2.675   1.251
 2079SOL    HW1 1316   2.358   2.687   1.301
 2079SOL    HW2 1317   2.230   2.588   1.278
 2080SOL     OW 1318   3.136   2.248   1.262
 2080SOL    HW1 1319   3.157   2.322   1.326
 2080SOL    HW2 1320   3.047   2.265   1.219
 2081SOL     OW 1321   1.926   3.426   1.331
 2081SOL    HW1 1322   1.880   3.508   1.297
 2081SOL    HW2 1323   2.024   3.445   1.340
 2083SOL     OW 1324   2.428   2.399   0.865
 2083SOL    HW1 1325   2.440   2.465   0.791
 2083SOL    HW2 1326   2.474   2.433   0.948
 2085SOL     OW 1327   3.134   3.307   1.142
 2085SOL    HW1 1328   3.181   3.320   1.229
 2085SOL    HW2 1329   3.068   3.233   1.151
 2087SOL     OW 1330   2.216   3.372   1.329
 2087SOL    HW1 1331   2.195   3.328   1.242
 2087SOL    HW2 1332   2.313   3.398   1.332
 2088SOL     OW 1333   2.264   2.613   1.598
 2088SOL    HW1 1334   2.332   2.668   1.551
 2088SOL    HW2 1335   2.304   2.525   1.625
 2089SOL     OW 1336   3.449   2.641   1.670
 2089SOL    HW1 1337   3.357   2.679   1.665
 2089SOL    HW2 1338   3.509   2.688   1.605
 2090SOL     OW 1339   2.875   1.967   1.770
 2090SOL    HW1 1340   2.881   2.052   1.718
 2090SOL    HW2 1341   2.907   1.891   1.713
 2091SOL     OW 1342   2.366   1.912   1.740
 2091SOL    HW1 1343   2.324   1.855   1.670
 2091SOL    HW2 1344   2.300   1.981   1.772
 2092SOL     OW 1345   2.435   2.732   1.029
 2092SOL    HW1 1346   2.479   2.821   1.020
 2092SOL    HW2 1347   2.372   2.732   1.106
 2093SOL     OW 1348   3.222   2.724   1.045
 2093SOL    HW1 1349   3.147   2.724   0.979
 2093SOL    HW2 1350   3.259   2.632   1.054
 2095SOL     OW 1351   2.169   2.075   1.231
 2095SOL    HW1 1352   2.146   2.112   1.321
 2095SOL    HW2 1353   2.139   1.980   1.225
 2096SOL     OW 1354   1.899   3.172   1.282
 2096SOL    HW1 1355   1.952   3.123   1.350
 2096SOL    HW2 1356   1.921   3.270   1.287
 2097SOL     OW 1357   2.594   2.496   1.064
 2097SOL    HW1 1358   2.653   2.470   0.988
 2097SOL    HW2 1359   2.566   2.592   1.053
 2098SOL     OW 1360   3.590   2.797   1.854
 2098SOL    HW1 1361   3.544   2.790   1.765
 2098SOL    HW2 1362   3.528   2.841   1.920
 2101SOL     OW 1363   2.885   2.628   0.966
 2101SOL    HW1 1364   2.900   2.649   1.062
 2101SOL    HW2 1365   2.855   2.533   0.957
 2102SOL     OW 1366   2.842   3.435   1.700
 2102SOL    HW1 1367   2.822   3.479   1.612
 2102SOL    HW2 1368   2.881   3.344   1.684
 2104SOL     OW 1369   2.212   2.760   1.804
 2104SOL    HW1 1370   2.288   2.804   1.852
 2104SOL    HW2 1371   2.247   2.713   1.722
 2108SOL     OW 1372   2.181   2.672   0.949
 2108SOL    HW1 1373   2.274   2.708   0.954
 2108SOL    HW2 1374   2.175   2.587   1.001
 2109SOL     OW 1375   2.201   2.371   1.006
 2109SOL    HW1 1376   2.149   2.288   0.989
 2109SOL    HW2 1377   2.278   2.376   0.942
 2110SOL     OW 1378   3.000   2.242   1.678
 2110SOL    HW1 1379   2.955   2.305   1.742
 2110SOL    HW2 1380   3.093   2.273   1.661
 2111SOL     OW 1381   3.022   2.069   1.477
 2111SOL    HW1 1382   3.022   2.133   1.554
 2111SOL    HW2 1383   3.050   2.117   1.394
 2115SOL     OW 1384   2.864   2.658   1.238
 2115SOL    HW1 1385   2.905   2.626   1.324
 2115SOL    HW2 1386   2.768   2.631   1.235
 2116SOL     OW 1387   1.902   2.406   1.114
 2116SOL    HW1 1388   1.987   2.373   1.073
 2116SOL    HW2 1389   1.915   2.421   1.212
 2117SOL     OW 1390   2.051   2.382   1.722
 2117SOL    HW1 1391   2.110   2.342   1.652
 2117SOL    HW2 1392   1.993   2.453   1.681
 2118SOL     OW 1393   3.231   2.812   1.660
 2118SOL    HW1 1394   3.270   2.901   1.680
 2118SOL    HW2 1395   3.241   2.792   1.563
 2120SOL     OW 1396   3.519   2.466   1.206
 2120SOL    HW1 1397   3.481   2.397   1.268
 2120SOL    HW2 1398   3.601   2.430   1.162
 2121SOL     OW 1399   2.114   3.426   1.744
 2121SOL    HW1 1400   2.084   3.483   1.820
 2121SOL    HW2 1401   2.107   3.329   1.770
 2122SOL     OW 1402   2.533   2.326   1.269
 2122SOL    HW1 1403   2.499   2.237   1.239
 2122SOL    HW2 1404   2.559   2.380   1.189
 2123SOL     OW 1405   2.792   3.540   1.465
 2123SOL    HW1 1406   2.768   3.522   1.370
 2123SOL    HW2 1407   2.822   3.634   1.475
 2125SOL     OW 1408   2.021   2.999   1.466
 2125SOL    HW1 1409   2.043   2.938   1.542
 2125SOL    HW2 1410   2.031   2.950   1.380
 2126SOL     OW 1411   3.209   2.921   1.234
 2126SOL    HW1 1412   3.233   2.858   1.160
 2126SOL    HW2 1413   3.119   2.961   1.216
 2130SOL     OW 1414   1.945   3.120   1.022
 2130SOL    HW1 1415   1.940   3.119   1.122
 2130SOL    HW2 1416   1.862   3.079   0.984
 2131SOL     OW 1417   2.550   3.524   1.716
 2131SOL    HW1 1418   2.494   3.605   1.725
 2131SOL    HW2 1419   2.602   3.528   1.630
 2135SOL     OW 1420   1.992   3.656   1.851
 2135SOL    HW1 1421   1.951   3.582   1.904
 2135SOL    HW2 1422   2.056   3.707   1.909
 2137SOL     OW 1423   2.692   3.135   1.422
 2137SOL    HW1 1424   2.687   3.168   1.517
 2137SOL    HW2 1425   2.606   3.154   1.376
 2141SOL     OW 1426   2.125   2.188   0.720
 2141SOL    HW1 1427   2.046   2.239   0.686
 2141SOL    HW2 1428   2.116   2.173   0.818
 2143SOL     OW 1429   2.684   2.864   1.372
 2143SOL    HW1 1430   2.724   2.863   1.280
 2143SOL    HW2 1431   2.694   2.956   1.412
 2146SOL     OW 1432   2.234   3.150   1.490
 2146SOL    HW1 1433   2.221   3.243   1.456
 2146SOL    HW2 1434   2.150   3.098   1.477
 2147SOL     OW 1435   3.476   3.154   1.289
 2147SOL    HW1 1436   3.536   3.157   1.369
 2147SOL    HW2 1437   3.401   3.218   1.302
 2149SOL     OW 1438   2.876   2.098   0.971
 2149SOL    HW1 1439   2.868   2.062   0.878
 2149SOL    HW2 1440   2.874   2.022   1.036
 2151SOL     OW 1441   3.571   2.247   1.381
 2151SOL    HW1 1442   3.644   2.316   1.385
 2151SOL    HW2 1443   3.599   2.172   1.322
 2153SOL     OW 1444   1.967   2.875   1.726
 2153SOL    HW1 1445   1.890   2.842   1.780
 2153SOL    HW2 1446   2.052   2.845   1.768
 2154SOL     OW 1447   2.534   2.065   1.489
 2154SOL    HW1 1448   2.624   2.049   1.449
 2154SOL    HW2 1449   2.542   2.070   1.588
 2156SOL     OW 1450   3.302   2.718   1.398
 2156SOL    HW1 1451   3.245   2.770   1.335
 2156SOL    HW2 1452   3.398   2.730   1.374
 2159SOL     OW 1453   2.475   2.704   1.431
 2159SOL    HW1 1454   2.531   2.785   1.414
 2159SOL    HW2 1455   2.534   2.624   1.434
 2161SOL     OW 1456   2.578   2.427   1.708
 2161SOL    HW1 1457   2.597   2.492   1.782
 2161SOL    HW2 1458   2.638   2.347   1.717
 2162SOL     OW 1459   3.312   3.082   1.633
 2162SOL    HW1 1460   3.303   3.072   1.732
 2162SOL    HW2 1461   3.408   3.075   1.607
 2163SOL     OW 1462   2.252   3.603   1.560
 2163SOL    HW1 1463   2.161   3.644   1.558
 2163SOL    HW2 1464   2.245   3.509   1.592
 2164SOL     OW 1465   3.536   2.745   1.254
 2164SOL    HW1 1466   3.509   2.656   1.217
 2164SOL    HW2 1467   3.537   2.813   1.181
 2166SOL     OW 1468   2.456   2.607   0.652
 2166SOL    HW1 1469   2.506   2.692   0.633
 2166SOL    HW2 1470   2.368   2.609   0.604
 2167SOL     OW 1471   3.639   2.204   1.642
 2167SOL    HW1 1472   3.622   2.235   1.548
 2167SOL    HW2 1473   3.555   2.167   1.680
 2168SOL     OW 1474   3.592   2.796   1.517
 2168SOL    HW1 1475   3.630   2.887   1.532
 2168SOL    HW2 1476   3.584   2.779   1.418
 2171SOL     OW 1477   2.721   2.818   0.861
 2171SOL    HW1 1478   2.775   2.749   0.909
 2171SOL    HW2 1479   2.689   2.887   0.927
 2174SOL     OW 1480   2.083   3.176   1.844
 2174SOL    HW1 1481   2.018   3.103   1.823
 2174SOL    HW2 1482   2.087   3.190   1.942
 2176SOL     OW 1483   2.534   3.253   1.624
 2176SOL    HW1 1484   2.456   3.203   1.662
 2176SOL    HW2 1485   2.531   3.348   1.655
 2177SOL     OW 1486   3.686   2.054   1.227
 2177SOL    HW1 1487   3.682   1.964   1.271
 2177SOL    HW2 1488   3.689   2.043   1.128
 2180SOL     OW 1489   2.179   2.409   1.280
 2180SOL    HW1 1490   2.217   2.350   1.352
 2180SOL    HW2 1491   2.219   2.383   1.192
 2182SOL     OW 1492   3.286   2.076   1.112
 2182SOL    HW1 1493   3.338   2.011   1.167
 2182SOL    HW2 1494   3.237   2.139   1.173
 2183SOL     OW 1495   2.863   1.896   1.154
 2183SOL    HW1 1496   2.800   1.824   1.123
 2183SOL    HW2 1497   2.956   1.860   1.154
 2185SOL     OW 1498   2.480   3.429   1.284
 2185SOL    HW1 1499   2.475   3.511   1.341
 2185SOL    HW2 1500   2.569   3.426   1.239
 2191SOL     OW 1501   2.092   2.490   1.975
 2191SOL    HW1 1502   1.999   2.488   2.012
 2191SOL    HW2 1503   2.093   2.451   1.883
 2192SOL     OW 1504   2.087   2.137   2.858
 2192SOL    HW1 1505   2.122   2.120   2.950
 2192SOL    HW2 1506   1.999   2.092   2.846
 2193SOL     OW 1507   1.881   2.230   2.509
 2193SOL    HW1 1508   1.799   2.273   2.548
 2193SOL    HW2 1509   1.853   2.157   2.446
 2194SOL     OW 1510   2.431   3.137   3.027
 2194SOL    HW1 1511   2.338   3.130   2.990
 2194SOL    HW2 1512   2.442   3.226   3.071
 2195SOL     OW 1513   3.417   3.373   2.565
 2195SOL    HW1 1514   3.360   3.357   2.646
 2195SOL    HW2 1515   3.358   3.383   2.485
 2196SOL     OW 1516   2.997   2.565   2.579
 2196SOL    HW1 1517   3.054   2.643   2.554
 2196SOL    HW2 1518   2.937   2.591   2.655
 2197SOL     OW 1519   3.617   2.469   2.093
 2197SOL    HW1 1520   3.605   2.456   1.994
 2197SOL    HW2 1521   3.587   2.388   2.142
 2198SOL     OW 1522   2.630   3.006   2.885
 2198SOL    HW1 1523   2.552   3.023   2.945
 2198SOL    HW2 1524   2.664   3.093   2.849
 2199SOL     OW 1525   2.712   2.660   3.685
 2199SOL    HW1 1526   2.708   2.736   3.750
 2199SOL    HW2 1527   2.734   2.696   3.594
 2200SOL     OW 1528   2.547   2.874   2.527
 2200SOL    HW1 1529   2.616   2.858   2.597
 2200SOL    HW2 1530   2.474   2.931   2.565
 2201SOL     OW 1531   2.548   3.023   3.665
 2201SOL    HW1 1532   2.608   3.102   3.679
 2201SOL    HW2 1533   2.462   3.054   3.624
 2202SOL     OW 1534   2.197   3.297   2.923
 2202SOL    HW1 1535   2.119   3.266   2.870
 2202SOL    HW2 1536   2.255   3.355   2.866
 2203SOL     OW 1537   3.322   3.367   3.201
 2203SOL    HW1 1538   3.346   3.461   3.227
 2203SOL    HW2 1539   3.306   3.313   3.283
 2204SOL     OW 1540   2.300   2.254   3.361
 2204SOL    HW1 1541   2.382   2.198   3.370
 2204SOL    HW2 1542   2.219   2.196   3.365
 2205SOL     OW 1543   3.465   2.309   2.599
 2205SOL    HW1 1544   3.391   2.355   2.549
 2205SOL    HW2 1545   3.516   2.377   2.652
 2206SOL     OW 1546   2.093   3.575   2.345
 2206SOL    HW1 1547   2.127   3.652   2.399
 2206SOL    HW2 1548   2.137   3.575   2.255
 2207SOL     OW 1549   2.989   3.203   3.552
 2207SOL    HW1 1550   3.036   3.203   3.640
 2207SOL    HW2 1551   2.941   3.116   3.541
 2208SOL     OW 1552   2.092   3.296   2.400
 2208SOL    HW1 1553   2.066   3.392   2.400
 2208SOL    HW2 1554   2.021   3.242   2.445
 2209SOL     OW 1555   2.102   2.953   2.748
 2209SOL    HW1 1556   2.116   2.869   2.800
 2209SOL    HW2 1557   2.047   3.017   2.803
 2210SOL     OW 1558   2.482   3.648   3.301
 2210SOL    HW1 1559   2.390   3.631   3.336
 2210SOL    HW2 1560   2.510   3.740   3.327
 2211SOL     OW 1561   2.468   2.826   1.985
 2211SOL    HW1 1562   2.475   2.910   1.931
 2211SOL    HW2 1563   2.514   2.839   2.073
 2212SOL     OW 1564   3.456   1.976   3.342
 2212SOL    HW1 1565   3.438   2.043   3.270
 2212SOL    HW2 1566   3.453   2.022   3.431
 2213SOL     OW 1567   1.984   2.505   2.425
 2213SOL    HW1 1568   1.939   2.417   2.442
 2213SOL    HW2 1569   1.983   2.559   2.509
 2214SOL     OW 1570   3.704   3.629   2.221
 2214SOL    HW1 1571   3.758   3.600   2.301
 2214SOL    HW2 1572   3.734   3.719   2.192
 2215SOL     OW 1573   1.889   3.458   1.979
 2215SOL    HW1 1574   1.870   3.362   2.000
 2215SOL    HW2 1575   1.856   3.516   2.054
 2216SOL     OW 1576   3.551   2.784   2.474
 2216SOL    HW1 1577   3.646   2.755   2.482
 2216SOL    HW2 1578   3.543   2.849   2.399
 2217SOL     OW 1579   3.503   2.970   2.294
 2217SOL    HW1 1580   3.589   2.972   2.242
 2217SOL    HW2 1581   3.517   3.017   2.382
 2218SOL     OW 1582   1.975   2.599   3.459
 2218SOL    HW1 1583   2.063   2.586   3.504
 2218SOL    HW2 1584   1.962   2.696   3.437
 2219SOL     OW 1585   2.475   3.227   2.588
 2219SOL    HW1 1586   2.426   3.140   2.597
 2219SOL    HW2 1587   2.452   3.270   2.501
 2220SOL     OW 1588   3.155   3.090   3.285
 2220SOL    HW1 1589   3.192   3.017   3.227
 2220SOL    HW2 1590   3.207   3.095   3.370
 2221SOL     OW 1591   2.671   1.866   2.364
 2221SOL    HW1 1592   2.711   1.957   2.355
 2221SOL    HW2 1593   2.571   1.874   2.370
 2222SOL     OW 1594   2.059   2.838   3.126
 2222SOL    HW1 1595   2.148   2.793   3.112
 2222SOL    HW2 1596   1.986   2.773   3.107
 2223SOL     OW 1597   3.387   2.861   2.052
 2223SOL    HW1 1598   3.324   2.785   2.065
 2223SOL    HW2 1599   3.435   2.879   2.138
 2224SOL     OW 1600   3.049   3.654   3.478
 2224SOL    HW1 1601   3.073   3.714   3.402
 2224SOL    HW2 1602   3.056   3.559   3.448
 2225SOL     OW 1603   2.179   2.113   3.663
 2225SOL    HW1 1604   2.250   2.184   3.669
 2225SOL    HW2 1605   2.091   2.152   3.691
 2226SOL     OW 1606   3.328   3.279   2.815
 2226SOL    HW1 1607   3.269   3.285   2.895
 2226SOL    HW2 1608   3.313   3.191   2.769
 2227SOL     OW 1609   3.529   3.576   2.434
 2227SOL    HW1 1610   3.488   3.553   2.346
 2227SOL    HW2 1611   3.511   3.502   2.499
 2228SOL     OW 1612   3.143   2.207   2.806
 2228SOL    HW1 1613   3.057   2.157   2.793
 2228SOL    HW2 1614   3.205   2.153   2.862
 2229SOL     OW 1615   3.438   3.524   2.169
 2229SOL    HW1 1616   3.527   3.570   2.172
 2229SOL    HW2 1617   3.417   3.500   2.074
 2230SOL     OW 1618   2.669   2.467   3.327
 2230SOL    HW1 1619   2.622   2.464   3.416
 2230SOL    HW2 1620   2.618   2.412   3.261
 2231SOL     OW 1621   3.256   2.331   3.536
 2231SOL    HW1 1622   3.236   2.374   3.624
 2231SOL    HW2 1623   3.334   2.269   3.545
 2232SOL     OW 1624   2.835   2.752   3.434
 2232SOL    HW1 1625   2.881   2.668   3.405
 2232SOL    HW2 1626   2.779   2.786   3.359
 2233SOL     OW 1627   2.853   2.272   3.104
 2233SOL    HW1 1628   2.776   2.306   3.158
 2233SOL    HW2 1629   2.819   2.221   3.025
 2234SOL     OW 1630   2.903   2.563   2.291
 2234SOL    HW1 1631   2.929   2.559   2.387
 2234SOL    HW2 1632   2.818   2.512   2.277
 2235SOL     OW 1633   1.938   2.673   2.651
 2235SOL    HW1 1634   2.037   2.661   2.660
 2235SOL    HW2 1635   1.914   2.768   2.672
 2236SOL     OW 1636   1.992   3.683   3.433
 2236SOL    HW1 1637   1.982   3.668   3.532
 2236SOL    HW2 1638   1.906   3.719   3.397
 2237SOL     OW 1639   2.727   2.210   2.057
 2237SOL    HW1 1640   2.786   2.273   2.008
 2237SOL    HW2 1641   2.746   2.116   2.028
 2238SOL     OW 1642   3.581   2.447   3.693
 2238SOL    HW1 1643   3.555   2.536   3.657
 2238SOL    HW2 1644   3.579   2.379   3.620
 2239SOL     OW 1645   3.224   3.006   2.407
 2239SOL    HW1 1646   3.307   2.977   2.359
 2239SOL    HW2 1647   3.175   3.073   2.351
 2240SOL     OW 1648   2.870   3.318   2.339
 2240SOL    HW1 1649   2.824   3.390   2.287
 2240SOL    HW2 1650   2.866   3.338   2.437
 2241SOL     OW 1651   2.213   3.663   2.715
 2241SOL    HW1 1652   2.263   3.577   2.721
 2241SOL    HW2 1653   2.278   3.740   2.712
 2242SOL     OW 1654   3.657   2.928   2.735
 2242SOL    HW1 1655   3.595   2.913   2.659
 2242SOL    HW2 1656   3.605   2.939   2.820
 2243SOL     OW 1657   3.089   3.412   3.368
 2243SOL    HW1 1658   3.095   3.335   3.432
 2243SOL    HW2 1659   3.037   3.386   3.288
 2244SOL     OW 1660   2.183   2.805   2.104
 2244SOL    HW1 1661   2.265   2.844   2.062
 2244SOL    HW2 1662   2.156   2.723   2.055
 2245SOL     OW 1663   3.320   2.597   2.590
 2245SOL    HW1 1664   3.315   2.532   2.665
 2245SOL    HW2 1665   3.400   2.656   2.603
 2246SOL     OW 1666   2.323   3.128   3.589
 2246SOL    HW1 1667   2.273   3.129   3.503
 2246SOL    HW2 1668   2.260   3.110   3.665
 2247SOL     OW 1669   2.973   3.638   2.099
 2247SOL    HW1 1670   2.913   3.576   2.149
 2247SOL    HW2 1671   3.004   3.594   2.014
 2248SOL     OW 1672   2.064   2.147   3.360
 2248SOL    HW1 1673   1.984   2.207   3.347
 2248SOL    HW2 1674   2.054   2.098   3.446
 2249SOL     OW 1675   3.494   3.239   1.943
 2249SOL    HW1 1676   3.462   3.333   1.933
 2249SOL    HW2 1677   3.418   3.176   1.931
 2250SOL     OW 1678   2.326   3.605   2.185
 2250SOL    HW1 1679   2.359   3.644   2.271
 2250SOL    HW2 1680   2.402   3.598   2.120
 2251SOL     OW 1681   3.262   1.969   2.288
 2251SOL    HW1 1682   3.238   1.932   2.198
 2251SOL    HW2 1683   3.361   1.985   2.292
 2252SOL     OW 1684   2.111   3.647   3.103
 2252SOL    HW1 1685   2.168   3.582   3.153
 2252SOL    HW2 1686   2.095   3.614   3.010
 2253SOL     OW 1687   2.802   3.560   2.766
 2253SOL    HW1 1688   2.882   3.503   2.787
 2253SOL    HW2 1689   2.753   3.520   2.689
 2254SOL     OW 1690   3.409   2.084   3.591
 2254SOL    HW1 1691   3.404   2.121   3.683
 2254SOL    HW2 1692   3.337   2.015   3.579
 2255SOL     OW 1693   2.476   1.984   1.979
 2255SOL    HW1 1694   2.574   1.962   1.986
 2255SOL    HW2 1695   2.445   1.967   1.886
 2256SOL     OW 1696   2.643   2.126   3.611
 2256SOL    HW1 1697   2.710   2.065   3.654
 2256SOL    HW2 1698   2.570   2.145   3.676
 2257SOL     OW 1699   2.750   3.376   3.057
 2257SOL    HW1 1700   2.727   3.351   2.963
 2257SOL    HW2 1701   2.811   3.307   3.096
 2258SOL     OW 1702   3.213   2.452   3.295
 2258SOL    HW1 1703   3.241   2.409   3.380
 2258SOL    HW2 1704   3.238   2.548   3.296
 2259SOL     OW 1705   2.665   3.264   2.786
 2259SOL    HW1 1706   2.755   3.278   2.744
 2259SOL    HW2 1707   2.594   3.266   2.715
 2260SOL     OW 1708   2.784   2.365   2.761
 2260SOL    HW1 1709   2.759   2.356   2.665
 2260SOL    HW2 1710   2.832   2.283   2.792
 2261SOL     OW 1711   2.401   1.926   2.374
 2261SOL    HW1 1712   2.320   1.927   2.432
 2261SOL    HW2 1713   2.404   2.009   2.319
 2262SOL     OW 1714   3.296   3.050   1.903
 2262SOL    HW1 1715   3.328   2.974   1.960
 2262SOL    HW2 1716   3.204   3.077   1.933
 2263SOL     OW 1717   2.159   1.897   2.033
 2263SOL    HW1 1718   2.208   1.981   2.012
 2263SOL    HW2 1719   2.221   1.832   2.078
 2264SOL     OW 1720   2.797   2.098   2.342
 2264SOL    HW1 1721   2.749   2.139   2.264
 2264SOL    HW2 1722   2.896   2.096   2.323
 2265SOL     OW 1723   2.938   2.545   3.326
 2265SOL    HW1 1724   2.858   2.484   3.329
 2265SOL    HW2 1725   3.019   2.492   3.302
 2266SOL     OW 1726   3.089   3.432   2.655
 2266SOL    HW1 1727   3.110   3.506   2.590
 2266SOL    HW2 1728   3.157   3.432   2.728
 2267SOL     OW 1729   2.321   3.014   2.603
 2267SOL    HW1 1730   2.250   2.987   2.668
 2267SOL    HW2 1731   2.295   2.986   2.510
 2268SOL     OW 1732   3.133   3.659   2.453
 2268SOL    HW1 1733   3.177   3.723   2.389
 2268SOL    HW2 1734   3.083   3.711   2.523
 2269SOL     OW 1735   2.894   2.411   1.878
 2269SOL    HW1 1736   2.853   2.493   1.839
 2269SOL    HW2 1737   2.958   2.437   1.951
 2270SOL     OW 1738   1.940   2.418   3.248
 2270SOL    HW1 1739   2.032   2.417   3.207
 2270SOL    HW2 1740   1.934   2.492   3.315
 2271SOL     OW 1741   2.423   2.084   3.009
 2271SOL    HW1 1742   2.461   2.000   3.046
 2271SOL    HW2 1743   2.335   2.103   3.053
 2272SOL     OW 1744   2.728   2.316   2.504
 2272SOL    HW1 1745   2.696   2.388   2.442
 2272SOL    HW2 1746   2.752   2.235   2.451
 2273SOL     OW 1747   2.879   1.901   2.615
 2273SOL    HW1 1748   2.807   1.906   2.546
 2273SOL    HW2 1749   2.855   1.832   2.684
 2274SOL     OW 1750   3.291   3.035   2.729
 2274SOL    HW1 1751   3.236   2.951   2.722
 2274SOL    HW2 1752   3.317   3.064   2.637
 2275SOL     OW 1753   3.328   2.452   2.854
 2275SOL    HW1 1754   3.298   2.357   2.861
 2275SOL    HW2 1755   3.401   2.468   2.920
 2276SOL     OW 1756   3.719   2.695   2.239
 2276SOL    HW1 1757   3.761   2.631   2.303
 2276SOL    HW2 1758   3.681   2.644   2.161
 2277SOL     OW 1759   2.350   3.247   2.036
 2277SOL    HW1 1760   2.263   3.232   2.083
 2277SOL    HW2 1761   2.333   3.273   1.941
 2278SOL     OW 1762   3.526   3.142   2.519
 2278SOL    HW1 1763   3.625   3.150   2.533
 2278SOL    HW2 1764   3.481   3.226   2.550
 2279SOL     OW 1765   3.252   2.437   1.940
 2279SOL    HW1 1766   3.198   2.416   2.021
 2279SOL    HW2 1767   3.343   2.396   1.949
 2280SOL     OW 1768   2.389   2.118   2.190
 2280SOL    HW1 1769   2.416   2.059   2.115
 2280SOL    HW2 1770   2.389   2.213   2.159
 2281SOL     OW 1771   3.616   3.085   3.450
 2281SOL    HW1 1772   3.707   3.046   3.437
 2281SOL    HW2 1773   3.624   3.181   3.474
 2282SOL     OW 1774   2.926   3.209   3.202
 2282SOL    HW1 1775   2.846   3.186   3.257
 2282SOL    HW2 1776   3.009   3.183   3.251
 2284SOL     OW 1777   2.973   3.057   2.962
 2284SOL    HW1 1778   2.933   3.101   3.043
 2284SOL    HW2 1779   2.932   3.094   2.879
 2285SOL     OW 1780   3.500   2.961   2.941
 2285SOL    HW1 1781   3.505   3.042   3.000
 2285SOL    HW2 1782   3.414   2.963   2.890
 2286SOL     OW 1783   2.777   1.951   3.264
 2286SOL    HW1 1784   2.802   1.931   3.169
 2286SOL    HW2 1785   2.849   2.007   3.306
 2287SOL     OW 1786   2.842   2.978   3.581
 2287SOL    HW1 1787   2.743   2.984   3.591
 2287SOL    HW2 1788   2.865   2.898   3.525
 2288SOL     OW 1789   2.567   2.912   2.230
 2288SOL    HW1 1790   2.553   2.919   2.329
 2288SOL    HW2 1791   2.651   2.861   2.212
 2289SOL     OW 1792   2.272   2.675   3.113
 2289SOL    HW1 1793   2.358   2.687   3.163
 2289SOL    HW2 1794   2.230   2.588   3.140
 2290SOL     OW 1795   3.136   2.248   3.124
 2290SOL    HW1 1796   3.157   2.322   3.188
 2290SOL    HW2 1797   3.047   2.265   3.081
 2291SOL     OW 1798   1.926   3.426   3.193
 2291SOL    HW1 1799   1.880   3.508   3.159
 2291SOL    HW2 1800   2.024   3.445   3.202
 2292SOL     OW 1801   2.229   2.962   2.363
 2292SOL    HW1 1802   2.222   3.045   2.307
 2292SOL    HW2 1803   2.233   2.882   2.303
 2293SOL     OW 1804   3.114   3.210   2.250
 2293SOL    HW1 1805   3.164   3.287   2.290
 2293SOL    HW2 1806   3.019   3.212   2.282
 2294SOL     OW 1807   3.134   3.307   3.004
 2294SOL    HW1 1808   3.181   3.320   3.091
 2294SOL    HW2 1809   3.068   3.233   3.013
 2295SOL     OW 1810   3.444   2.501   2.334
 2295SOL    HW1 1811   3.413   2.562   2.407
 2295SOL    HW2 1812   3.494   2.553   2.265
 2296SOL     OW 1813   2.216   3.372   3.191
 2296SOL    HW1 1814   2.195   3.328   3.104
 2296SOL    HW2 1815   2.313   3.398   3.194
 2297SOL     OW 1816   2.264   2.613   3.460
 2297SOL    HW1 1817   2.332   2.668   3.413
 2297SOL    HW2 1818   2.304   2.525   3.487
 2298SOL     OW 1819   3.449   2.641   3.532
 2298SOL    HW1 1820   3.357   2.679   3.527
 2298SOL    HW2 1821   3.509   2.688   3.467
 2299SOL     OW 1822   2.875   1.967   3.632
 2299SOL    HW1 1823   2.881   2.052   3.580
 2299SOL    HW2 1824   2.907   1.891   3.575
 2300SOL     OW 1825   2.366   1.912   3.602
 2300SOL    HW1 1826   2.324   1.855   3.532
 2300SOL    HW2 1827   2.300   1.981   3.634
 2301SOL     OW 1828   2.435   2.732   2.891
 2301SOL    HW1 1829   2.479   2.821   2.882
 2301SOL    HW2 1830   2.372   2.732   2.968
 2302SOL     OW 1831   3.222   2.724   2.907
 2302SOL    HW1 1832   3.147   2.724   2.841
 2302SOL    HW2 1833   3.259   2.632   2.916
 2303SOL     OW 1834   3.071   2.387   2.137
 2303SOL    HW1 1835   3.084   2.303   2.191
 2303SOL    HW2 1836   3.042   2.461   2.197
 2304SOL     OW 1837   2.169   2.075   3.093
 2304SOL    HW1 1838   2.146   2.112   3.183
 2304SOL    HW2 1839   2.139   1.980   3.087
 2305SOL     OW 1840   1.899   3.172   3.144
 2305SOL    HW1 1841   1.952   3.123   3.212
 2305SOL    HW2 1842   1.921   3.270   3.149
 2306SOL     OW 1843   2.594   2.496   2.926
 2306SOL    HW1 1844   2.653   2.470   2.850
 2306SOL    HW2 1845   2.566   2.592   2.915
 2307SOL     OW 1846   3.590   2.797   3.716
 2307SOL    HW1 1847   3.544   2.790   3.627
 2307SOL    HW2 1848   3.528   2.841   3.782
 2308SOL     OW 1849   2.169   1.925   2.480
 2308SOL    HW1 1850   2.158   2.019   2.513
 2308SOL    HW2 1851   2.164   1.862   2.557
 2309SOL     OW 1852   3.484   2.229   2.236
 2309SOL    HW1 1853   3.486   2.153   2.300
 2309SOL    HW2 1854   3.436   2.306   2.276
 2310SOL     OW 1855   2.885   2.628   2.828
 2310SOL    HW1 1856   2.900   2.649   2.924
 2310SOL    HW2 1857   2.855   2.533   2.819
 2311SOL     OW 1858   2.842   3.435   3.562
 2311SOL    HW1 1859   2.822   3.479   3.474
 2311SOL    HW2 1860   2.881   3.344   3.546
 2313SOL     OW 1861   2.212   2.760   3.666
 2313SOL    HW1 1862   2.288   2.804   3.714
 2313SOL    HW2 1863   2.247   2.713   3.584
 2314SOL     OW 1864   3.402   2.136   1.987
 2314SOL    HW1 1865   3.341   2.061   2.010
 2314SOL    HW2 1866   3.424   2.188   2.070
 2315SOL     OW 1867   3.165   2.700   1.904
 2315SOL    HW1 1868   3.199   2.607   1.919
 2315SOL    HW2 1869   3.183   2.727   1.809
 2316SOL     OW 1870   2.930   3.195   2.711
 2316SOL    HW1 1871   2.937   3.111   2.656
 2316SOL    HW2 1872   2.992   3.264   2.675
 2317SOL     OW 1873   2.181   2.672   2.811
 2317SOL    HW1 1874   2.274   2.708   2.816
 2317SOL    HW2 1875   2.175   2.587   2.863
 2318SOL     OW 1876   3.000   2.242   3.540
 2318SOL    HW1 1877   2.955   2.305   3.604
 2318SOL    HW2 1878   3.093   2.273   3.523
 2319SOL     OW 1879   3.022   2.069   3.339
 2319SOL    HW1 1880   3.022   2.133   3.416
 2319SOL    HW2 1881   3.050   2.117   3.256
 2320SOL     OW 1882   1.870   3.188   2.062
 2320SOL    HW1 1883   1.777   3.209   2.031
 2320SOL    HW2 1884   1.880   3.089   2.075
 2321SOL     OW 1885   1.950   3.663   2.789
 2321SOL    HW1 1886   1.908   3.577   2.762
 2321SOL    HW2 1887   2.044   3.666   2.755
 2322SOL     OW 1888   2.366   3.430   2.772
 2322SOL    HW1 1889   2.432   3.504   2.781
 2322SOL    HW2 1890   2.410   3.351   2.730
 2323SOL     OW 1891   2.864   2.658   3.100
 2323SOL    HW1 1892   2.905   2.626   3.186
 2323SOL    HW2 1893   2.768   2.631   3.097
 2324SOL     OW 1894   1.902   2.406   2.976
 2324SOL    HW1 1895   1.987   2.373   2.935
 2324SOL    HW2 1896   1.915   2.421   3.074
 2325SOL     OW 1897   2.051   2.382   3.584
 2325SOL    HW1 1898   2.110   2.342   3.514
 2325SOL    HW2 1899   1.993   2.453   3.543
 2326SOL     OW 1900   3.231   2.812   3.522
 2326SOL    HW1 1901   3.270   2.901   3.542
 2326SOL    HW2 1902   3.241   2.792   3.425
 2327SOL     OW 1903   3.519   2.466   3.068
 2327SOL    HW1 1904   3.481   2.397   3.130
 2327SOL    HW2 1905   3.601   2.430   3.024
 2328SOL     OW 1906   2.114   3.426   3.606
 2328SOL    HW1 1907   2.084   3.483   3.682
 2328SOL    HW2 1908   2.107   3.329   3.632
 2329SOL     OW 1909   2.533   2.326   3.131
 2329SOL    HW1 1910   2.499   2.237   3.101
 2329SOL    HW2 1911   2.559   2.380   3.051
 2330SOL     OW 1912   2.792   3.540   3.327
 2330SOL    HW1 1913   2.768   3.522   3.232
 2330SOL    HW2 1914   2.822   3.634   3.337
 2331SOL     OW 1915   2.021   2.999   3.328
 2331SOL    HW1 1916   2.043   2.938   3.404
 2331SOL    HW2 1917   2.031   2.950   3.242
 2332SOL     OW 1918   3.209   2.921   3.096
 2332SOL    HW1 1919   3.233   2.858   3.022
 2332SOL    HW2 1920   3.119   2.961   3.078
 2333SOL     OW 1921   3.164   2.717   2.171
 2333SOL    HW1 1922   3.078   2.686   2.213
 2333SOL    HW2 1923   3.160   2.703   2.072
 2334SOL     OW 1924   3.621   3.609   3.016
 2334SOL    HW1 1925   3.682   3.639   2.943
 2334SOL    HW2 1926   3.583   3.520   2.994
 2335SOL     OW 1927   3.114   3.593   2.990
 2335SOL    HW1 1928   3.198   3.598   2.936
 2335SOL    HW2 1929   3.091   3.497   3.008
 2336SOL     OW 1930   1.945   3.120   2.884
 2336SOL    HW1 1931   1.940   3.119   2.984
 2336SOL    HW2 1932   1.862   3.079   2.846
 2337SOL     OW 1933   2.550   3.524   3.578
 2337SOL    HW1 1934   2.494   3.605   3.587
 2337SOL    HW2 1935   2.602   3.528   3.492
 2338SOL     OW 1936   3.588   1.997   2.385
 2338SOL    HW1 1937   3.661   1.980   2.318
 2338SOL    HW2 1938   3.557   1.910   2.423
 2339SOL     OW 1939   3.250   3.435   2.339
 2339SOL    HW1 1940   3.317   3.447   2.265
 2339SOL    HW2 1941   3.210   3.524   2.362
 2341SOL     OW 1942   3.142   2.789   2.534
 2341SOL    HW1 1943   3.202   2.708   2.536
 2341SOL    HW2 1944   3.182   2.858   2.474
 2342SOL     OW 1945   2.692   3.135   3.284
 2342SOL    HW1 1946   2.687   3.168   3.379
 2342SOL    HW2 1947   2.606   3.154   3.238
 2343SOL     OW 1948   2.534   3.478   2.016
 2343SOL    HW1 1949   2.543   3.488   1.917
 2343SOL    HW2 1950   2.494   3.389   2.037
 2345SOL     OW 1951   3.703   2.037   2.825
 2345SOL    HW1 1952   3.742   1.952   2.789
 2345SOL    HW2 1953   3.605   2.039   2.806
 2346SOL     OW 1954   2.125   2.188   2.582
 2346SOL    HW1 1955   2.046   2.239   2.548
 2346SOL    HW2 1956   2.116   2.173   2.680
 2347SOL     OW 1957   3.056   3.474   1.893
 2347SOL    HW1 1958   3.062   3.381   1.930
 2347SOL    HW2 1959   2.997   3.474   1.813
 2348SOL     OW 1960   2.684   2.864   3.234
 2348SOL    HW1 1961   2.724   2.863   3.142
 2348SOL    HW2 1962   2.694   2.956   3.274
 2349SOL     OW 1963   2.778   2.772   2.153
 2349SOL    HW1 1964   2.841   2.810   2.085
 2349SOL    HW2 1965   2.818   2.689   2.192
 2350SOL     OW 1966   3.366   3.469   1.906
 2350SOL    HW1 1967   3.274   3.506   1.913
 2350SOL    HW2 1968   3.404   3.489   1.816
 2351SOL     OW 1969   2.234   3.150   3.352
 2351SOL    HW1 1970   2.221   3.243   3.318
 2351SOL    HW2 1971   2.150   3.098   3.339
 2352SOL     OW 1972   3.476   3.154   3.151
 2352SOL    HW1 1973   3.536   3.157   3.231
 2352SOL    HW2 1974   3.401   3.218   3.164
 2353SOL     OW 1975   2.901   2.960   2.558
 2353SOL    HW1 1976   2.831   2.913   2.612
 2353SOL    HW2 1977   2.960   2.892   2.515
 2354SOL     OW 1978   2.876   2.098   2.833
 2354SOL    HW1 1979   2.868   2.062   2.740
 2354SOL    HW2 1980   2.874   2.022   2.898
 2355SOL     OW 1981   2.452   3.349   2.353
 2355SOL    HW1 1982   2.494   3.291   2.283
 2355SOL    HW2 1983   2.408   3.428   2.309
 2356SOL     OW 1984   3.571   2.247   3.243
 2356SOL    HW1 1985   3.644   2.316   3.247
 2356SOL    HW2 1986   3.599   2.172   3.184
 2357SOL     OW 1987   2.117   3.210   2.152
 2357SOL    HW1 1988   2.021   3.211   2.125
 2357SOL    HW2 1989   2.129   3.263   2.236
 2358SOL     OW 1990   1.967   2.875   3.588
 2358SOL    HW1 1991   1.890   2.842   3.642
 2358SOL    HW2 1992   2.052   2.845   3.630
 2359SOL     OW 1993   2.534   2.065   3.351
 2359SOL    HW1 1994   2.624   2.049   3.311
 2359SOL    HW2 1995   2.542   2.070   3.450
 2360SOL     OW 1996   1.937   2.207   1.895
 2360SOL    HW1 1997   1.845   2.179   1.866
 2360SOL    HW2 1998   1.968   2.284   1.839
 2361SOL     OW 1999   3.302   2.718   3.260
 2361SOL    HW1 2000   3.245   2.770   3.197
 2361SOL    HW2 2001   3.398   2.730   3.236
 2362SOL     OW 2002   1.934   2.028   2.180
 2362SOL    HW1 2003   1.917   2.111   2.126
 2362SOL    HW2 2004   2.024   1.991   2.158
 2363SOL     OW 2005   3.045   3.197   1.981
 2363SOL    HW1 2006   2.946   3.186   1.983
 2363SOL    HW2 2007   3.079   3.212   2.074
 2364SOL     OW 2008   2.475   2.704   3.293
 2364SOL    HW1 2009   2.531   2.785   3.276
 2364SOL    HW2 2010   2.534   2.624   3.296
 2365SOL     OW 2011   3.355   3.629   2.821
 2365SOL    HW1 2012   3.388   3.693   2.752
 2365SOL    HW2 2013   3.421   3.623   2.896
 2366SOL     OW 2014   2.578   2.427   3.570
 2366SOL    HW1 2015   2.597   2.492   3.644
 2366SOL    HW2 2016   2.638   2.347   3.579
 2367SOL     OW 2017   3.312   3.082   3.495
 2367SOL    HW1 2018   3.303   3.072   3.594
 2367SOL    HW2 2019   3.408   3.075   3.469
 2368SOL     OW 2020   2.252   3.603   3.422
 2368SOL    HW1 2021   2.161   3.644   3.420
 2368SOL    HW2 2022   2.245   3.509   3.454
 2369SOL     OW 2023   3.536   2.745   3.116
 2369SOL    HW1 2024   3.509   2.656   3.079
 2369SOL    HW2 2025   3.537   2.813   3.043
 2370SOL     OW 2026   3.087   2.187   2.311
 2370SOL    HW1 2027   3.152   2.113   2.300
 2370SOL    HW2 2028   3.107   2.237   2.395
 2371SOL     OW 2029   3.639   2.204   3.504
 2371SOL    HW1 2030   3.622   2.235   3.410
 2371SOL    HW2 2031   3.555   2.167   3.542
 2372SOL     OW 2032   3.592   2.796   3.379
 2372SOL    HW1 2033   3.630   2.887   3.394
 2372SOL    HW2 2034   3.584   2.779   3.280
 2373SOL     OW 2035   2.721   3.236   1.878
 2373SOL    HW1 2036   2.675   3.251   1.966
 2373SOL    HW2 2037   2.765   3.321   1.848
 2374SOL     OW 2038   2.523   3.652   2.815
 2374SOL    HW1 2039   2.477   3.740   2.802
 2374SOL    HW2 2040   2.622   3.664   2.808
 2375SOL     OW 2041   2.721   2.818   2.723
 2375SOL    HW1 2042   2.775   2.749   2.771
 2375SOL    HW2 2043   2.689   2.887   2.789
 2376SOL     OW 2044   2.945   2.846   1.949
 2376SOL    HW1 2045   2.922   2.899   1.867
 2376SOL    HW2 2046   3.026   2.790   1.930
 2377SOL     OW 2047   3.723   3.431   2.713
 2377SOL    HW1 2048   3.652   3.419   2.643
 2377SOL    HW2 2049   3.724   3.352   2.773
 2378SOL     OW 2050   2.083   3.176   3.706
 2378SOL    HW1 2051   2.018   3.103   3.685
 2378SOL    HW2 2052   2.087   3.190   3.804
 2379SOL     OW 2053   1.941   3.102   2.515
 2379SOL    HW1 2054   1.940   3.055   2.603
 2379SOL    HW2 2055   2.023   3.074   2.464
 2380SOL     OW 2056   2.534   3.253   3.486
 2380SOL    HW1 2057   2.456   3.203   3.524
 2380SOL    HW2 2058   2.531   3.348   3.517
 2381SOL     OW 2059   3.686   2.054   3.089
 2381SOL    HW1 2060   3.682   1.964   3.133
 2381SOL    HW2 2061   3.689   2.043   2.990
 2382SOL     OW 2062   3.567   3.349   2.966
 2382SOL    HW1 2063   3.474   3.324   2.939
 2382SOL    HW2 2064   3.593   3.299   3.048
 2383SOL     OW 2065   2.179   2.409   3.142
 2383SOL    HW1 2066   2.217   2.350   3.214
 2383SOL    HW2 2067   2.219   2.383   3.054
 2384SOL     OW 2068   2.674   3.448   2.549
 2384SOL    HW1 2069   2.706   3.458   2.455
 2384SOL    HW2 2070   2.595   3.386   2.551
 2385SOL     OW 2071   3.286   2.076   2.974
 2385SOL    HW1 2072   3.338   2.011   3.029
 2385SOL    HW2 2073   3.237   2.139   3.035
 2386SOL     OW 2074   2.863   1.896   3.016
 2386SOL    HW1 2075   2.800   1.824   2.985
 2386SOL    HW2 2076   2.956   1.860   3.016
 2387SOL     OW 2077   2.632   3.192   2.163
 2387SOL    HW1 2078   2.586   3.105   2.180
 2387SOL    HW2 2079   2.723   3.189   2.204
 2388SOL     OW 2080   2.480   3.429   3.146
 2388SOL    HW1 2081   2.475   3.511   3.203
 2388SOL    HW2 2082   2.569   3.426   3.101
 2389SOL     OW 2083   3.214   1.914   2.030
 2389SOL    HW1 2084   3.249   1.873   1.946
 2389SOL    HW2 2085   3.124   1.876   2.050
 2390SOL     OW 2086   3.162   2.315   2.553
 2390SOL    HW1 2087   3.103   2.395   2.557
 2390SOL    HW2 2088   3.177   2.280   2.646
 2391SOL     OW 2089   3.455   2.083   2.744
 2391SOL    HW1 2090   3.371   2.082   2.798
 2391SOL    HW2 2091   3.457   2.166   2.688
 2392SOL     OW 2092   1.901   2.939   2.162
 2392SOL    HW1 2093   2.000   2.928   2.153
 2392SOL    HW2 2094   1.861   2.853   2.194
 2393SOL     OW 2095   2.737   3.508   2.199
 2393SOL    HW1 2096   2.660   3.473   2.145
 2393SOL    HW2 2097   2.705   3.579   2.261
 2394SOL     OW 2098   2.092   2.490   3.837
 2394SOL    HW1 2099   1.999   2.488   3.874
 2394SOL    HW2 2100   2.093   2.451   3.745
 2407SOL     OW 2101   2.468   2.826   3.847
 2407SOL    HW1 2102   2.475   2.910   3.793
 2407SOL    HW2 2103   2.514   2.839   3.935
 2418SOL     OW 2104   2.460   2.591   3.994
 2418SOL    HW1 2105   2.484   2.660   3.926
 2418SOL    HW2 2106   2.382   2.624   4.048
 2423SOL     OW 2107   2.727   2.210   3.919
 2423SOL    HW1 2108   2.786   2.273   3.870
 2423SOL    HW2 2109   2.746   2.116   3.890
 2429SOL     OW 2110   2.183   2.805   3.966
 2429SOL    HW1 2111   2.265   2.844   3.924
 2429SOL    HW2 2112   2.156   2.723   3.917
 2437SOL     OW 2113   2.244   2.562   4.204
 2437SOL    HW1 2114   2.289   2.472   4.201
 2437SOL    HW2 2115   2.150   2.551   4.237
 2438SOL     OW 2116   2.476   1.984   3.841
 2438SOL    HW1 2117   2.574   1.962   3.848
 2438SOL    HW2 2118   2.445   1.967   3.748
 2442SOL     OW 2119   3.296   3.050   3.765
 2442SOL    HW1 2120   3.328   2.974   3.822
 2442SOL    HW2 2121   3.204   3.077   3.795
 2443SOL     OW 2122   2.159   1.897   3.895
 2443SOL    HW1 2123   2.208   1.981   3.874
 2443SOL    HW2 2124   2.221   1.832   3.940
 2448SOL     OW 2125   2.894   2.411   3.740
 2448SOL    HW1 2126   2.853   2.493   3.701
 2448SOL    HW2 2127   2.958   2.437   3.813
 2454SOL     OW 2128   2.350   3.247   3.898
 2454SOL    HW1 2129   2.263   3.232   3.945
 2454SOL    HW2 2130   2.333   3.273   3.803
 2456SOL     OW 2131   3.252   2.437   3.802
 2456SOL    HW1 2132   3.198   2.416   3.883
 2456SOL    HW2 2133   3.343   2.396   3.811
 2457SOL     OW 2134   2.389   2.118   4.052
 2457SOL    HW1 2135   2.416   2.059   3.977
 2457SOL    HW2 2136   2.389   2.213   4.021
 2459SOL     OW 2137   2.567   2.912   4.092
 2459SOL    HW1 2138   2.553   2.919   4.191
 2459SOL    HW2 2139   2.651   2.861   4.074
 2465SOL     OW 2140   3.071   2.387   3.999
 2465SOL    HW1 2141   3.084   2.303   4.053
 2465SOL    HW2 2142   3.042   2.461   4.059
 2471SOL     OW 2143   3.402   2.136   3.849
 2471SOL    HW1 2144   3.341   2.061   3.872
 2471SOL    HW2 2145   3.424   2.188   3.932
 2472SOL     OW 2146   3.165   2.700   3.766
 2472SOL    HW1 2147   3.199   2.607   3.781
 2472SOL    HW2 2148   3.183   2.727   3.671
 2476SOL     OW 2149   1.870   3.188   3.924
 2476SOL    HW1 2150   1.777   3.209   3.893
 2476SOL    HW2 2151   1.880   3.089   3.937
 2480SOL     OW 2152   2.677   2.434   4.049
 2480SOL    HW1 2153   2.684   2.345   4.003
 2480SOL    HW2 2154   2.583   2.468   4.041
 2482SOL     OW 2155   2.335   2.362   3.915
 2482SOL    HW1 2156   2.396   2.442   3.919
 2482SOL    HW2 2157   2.240   2.393   3.922
 2493SOL     OW 2158   2.778   2.772   4.015
 2493SOL    HW1 2159   2.841   2.810   3.947
 2493SOL    HW2 2160   2.818   2.689   4.054
 2499SOL     OW 2161   1.937   2.207   3.757
 2499SOL    HW1 2162   1.845   2.179   3.728
 2499SOL    HW2 2163   1.968   2.284   3.701
 2500SOL     OW 2164   1.934   2.028   4.042
 2500SOL    HW1 2165   1.917   2.111   3.988
 2500SOL    HW2 2166   2.024   1.991   4.020
 2501SOL     OW 2167   3.045   3.197   3.843
 2501SOL    HW1 2168   2.946   3.186   3.845
 2501SOL    HW2 2169   3.079   3.212   3.936
 2506SOL     OW 2170   2.721   3.236   3.740
 2506SOL    HW1 2171   2.675   3.251   3.828
 2506SOL    HW2 2172   2.765   3.321   3.710
 2509SOL     OW 2173   2.945   2.846   3.811
 2509SOL    HW1 2174   2.922   2.899   3.729
 2509SOL    HW2 2175   3.026   2.790   3.792
 2515SOL     OW 2176   2.632   3.192   4.025
 2515SOL    HW1 2177   2.586   3.105   4.042
 2515SOL    HW2 2178   2.723   3.189   4.066
 2516SOL     OW 2179   3.214   1.914   3.892
 2516SOL    HW1 2180   3.249   1.873   3.808
 2516SOL    HW2 2181   3.124   1.876   3.912
 2519SOL     OW 2182   1.901   2.939   4.024
 2519SOL    HW1 2183   2.000   2.928   4.015
 2519SOL    HW2 2184   1.861   2.853   4.056
 2540SOL     OW 2185   2.179   3.975   1.801
 2540SOL    HW1 2186   2.250   4.046   1.807
 2540SOL    HW2 2187   2.091   4.014   1.829
 2559SOL     OW 2188   2.643   3.988   1.749
 2559SOL    HW1 2189   2.710   3.927   1.792
 2559SOL    HW2 2190   2.570   4.007   1.814
 2576SOL     OW 2191   2.777   3.813   1.402
 2576SOL    HW1 2192   2.802   3.793   1.307
 2576SOL    HW2 2193   2.849   3.869   1.444
 2583SOL     OW 2194   2.875   3.829   1.770
 2583SOL    HW1 2195   2.881   3.914   1.718
 2583SOL    HW2 2196   2.907   3.753   1.713
 2584SOL     OW 2197   2.366   3.774   1.740
 2584SOL    HW1 2198   2.324   3.717   1.670
 2584SOL    HW2 2199   2.300   3.843   1.772
 2621SOL     OW 2200   2.534   3.927   1.489
 2621SOL    HW1 2201   2.624   3.911   1.449
 2621SOL    HW2 2202   2.542   3.932   1.588
 2645SOL     OW 2203   2.087   3.999   2.858
 2645SOL    HW1 2204   2.122   3.982   2.950
 2645SOL    HW2 2205   1.999   3.954   2.846
 2646SOL     OW 2206   1.881   4.092   2.509
 2646SOL    HW1 2207   1.799   4.135   2.548
 2646SOL    HW2 2208   1.853   4.019   2.446
 2660SOL     OW 2209   2.671   3.728   2.364
 2660SOL    HW1 2210   2.711   3.819   2.355
 2660SOL    HW2 2211   2.571   3.736   2.370
 2672SOL     OW 2212   2.727   4.072   2.057
 2672SOL    HW1 2213   2.786   4.135   2.008
 2672SOL    HW2 2214   2.746   3.978   2.028
 2674SOL     OW 2215   2.412   3.920   2.747
 2674SOL    HW1 2216   2.407   3.915   2.847
 2674SOL    HW2 2217   2.414   4.016   2.718
 2678SOL     OW 2218   3.262   3.831   2.288
 2678SOL    HW1 2219   3.238   3.794   2.198
 2678SOL    HW2 2220   3.361   3.847   2.292
 2681SOL     OW 2221   2.476   3.846   1.979
 2681SOL    HW1 2222   2.574   3.824   1.986
 2681SOL    HW2 2223   2.445   3.829   1.886
 2685SOL     OW 2224   2.401   3.788   2.374
 2685SOL    HW1 2225   2.320   3.789   2.432
 2685SOL    HW2 2226   2.404   3.871   2.319
 2686SOL     OW 2227   2.159   3.759   2.033
 2686SOL    HW1 2228   2.208   3.843   2.012
 2686SOL    HW2 2229   2.221   3.694   2.078
 2687SOL     OW 2230   2.797   3.960   2.342
 2687SOL    HW1 2231   2.749   4.001   2.264
 2687SOL    HW2 2232   2.896   3.958   2.323
 2691SOL     OW 2233   2.423   3.946   3.009
 2691SOL    HW1 2234   2.461   3.862   3.046
 2691SOL    HW2 2235   2.335   3.965   3.053
 2692SOL     OW 2236   2.728   4.178   2.504
 2692SOL    HW1 2237   2.696   4.250   2.442
 2692SOL    HW2 2238   2.752   4.097   2.451
 2693SOL     OW 2239   2.879   3.763   2.615
 2693SOL    HW1 2240   2.807   3.768   2.546
 2693SOL    HW2 2241   2.855   3.694   2.684
 2698SOL     OW 2242   2.389   3.980   2.190
 2698SOL    HW1 2243   2.416   3.921   2.115
 2698SOL    HW2 2244   2.389   4.075   2.159
 2700SOL     OW 2245   2.777   3.813   3.264
 2700SOL    HW1 2246   2.802   3.793   3.169
 2700SOL    HW2 2247   2.849   3.869   3.306
 2712SOL     OW 2248   2.169   3.937   3.093
 2712SOL    HW1 2249   2.146   3.974   3.183
 2712SOL    HW2 2250   2.139   3.842   3.087
 2715SOL     OW 2251   2.169   3.787   2.480
 2715SOL    HW1 2252   2.158   3.881   2.513
 2715SOL    HW2 2253   2.164   3.724   2.557
 2739SOL     OW 2254   2.125   4.050   2.582
 2739SOL    HW1 2255   2.046   4.101   2.548
 2739SOL    HW2 2256   2.116   4.035   2.680
 2741SOL     OW 2257   2.876   3.960   2.833
 2741SOL    HW1 2258   2.868   3.924   2.740
 2741SOL    HW2 2259   2.874   3.884   2.898
 2744SOL     OW 2260   2.534   3.927   3.351
 2744SOL    HW1 2261   2.624   3.911   3.311
 2744SOL    HW2 2262   2.542   3.932   3.450
 2745SOL     OW 2263   1.937   4.069   1.895
 2745SOL    HW1 2264   1.845   4.041   1.866
 2745SOL    HW2 2265   1.968   4.146   1.839
 2747SOL     OW 2266   1.934   3.890   2.180
 2747SOL    HW1 2267   1.917   3.973   2.126
 2747SOL    HW2 2268   2.024   3.853   2.158
 2752SOL     OW 2269   3.087   4.049   2.311
 2752SOL    HW1 2270   3.152   3.975   2.300
 2752SOL    HW2 2271   3.107   4.099   2.395
 2759SOL     OW 2272   2.290   4.148   2.382
 2759SOL    HW1 2273   2.320   4.076   2.320
 2759SOL    HW2 2274   2.251   4.108   2.465
 2762SOL     OW 2275   2.863   3.758   3.016
 2762SOL    HW1 2276   2.800   3.686   2.985
 2762SOL    HW2 2277   2.956   3.722   3.016
 2763SOL     OW 2278   3.214   3.776   2.030
 2763SOL    HW1 2279   3.249   3.735   1.946
 2763SOL    HW2 2280   3.124   3.738   2.050
 2872SOL     OW 2281   3.854   1.821   1.571
 2872SOL    HW1 2282   3.844   1.806   1.670
 2872SOL    HW2 2283   3.768   1.857   1.535
 2940SOL     OW 2284   3.854   1.794   1.851
 2940SOL    HW1 2285   3.813   1.720   1.904
 2940SOL    HW2 2286   3.918   1.845   1.909
 2986SOL     OW 2287   3.955   1.713   2.345
 2986SOL    HW1 2288   3.989   1.790   2.399
 2986SOL    HW2 2289   3.999   1.713   2.255
 2993SOL     OW 2290   3.751   1.596   1.979
 2993SOL    HW1 2291   3.732   1.500   2.000
 2993SOL    HW2 2292   3.718   1.654   2.054
 3009SOL     OW 2293   4.075   1.801   2.715
 3009SOL    HW1 2294   4.125   1.715   2.721
 3009SOL    HW2 2295   4.140   1.878   2.712
 3038SOL     OW 2296   3.788   1.564   3.193
 3038SOL    HW1 2297   3.742   1.646   3.159
 3038SOL    HW2 2298   3.886   1.583   3.202
 3057SOL     OW 2299   3.732   1.326   2.062
 3057SOL    HW1 2300   3.639   1.347   2.031
 3057SOL    HW2 2301   3.742   1.227   2.075
 3058SOL     OW 2302   3.812   1.801   2.789
 3058SOL    HW1 2303   3.770   1.715   2.762
 3058SOL    HW2 2304   3.906   1.804   2.755
 3203SOL     OW 2305   3.837   2.599   1.597
 3203SOL    HW1 2306   3.925   2.586   1.642
 3203SOL    HW2 2307   3.824   2.696   1.575
 3207SOL     OW 2308   4.041   2.113   1.801
 3207SOL    HW1 2309   4.112   2.184   1.807
 3207SOL    HW2 2310   3.953   2.152   1.829
 3221SOL     OW 2311   3.926   2.147   1.498
 3221SOL    HW1 2312   3.846   2.207   1.485
 3221SOL    HW2 2313   3.916   2.098   1.584
 3237SOL     OW 2314   3.802   2.418   1.386
 3237SOL    HW1 2315   3.894   2.417   1.345
 3237SOL    HW2 2316   3.796   2.492   1.453
 3262SOL     OW 2317   4.074   2.760   1.804
 3262SOL    HW1 2318   4.150   2.804   1.852
 3262SOL    HW2 2319   4.109   2.713   1.722
 3271SOL     OW 2320   3.913   2.382   1.722
 3271SOL    HW1 2321   3.972   2.342   1.652
 3271SOL    HW2 2322   3.855   2.453   1.681
 3293SOL     OW 2323   3.829   2.875   1.726
 3293SOL    HW1 2324   3.752   2.842   1.780
 3293SOL    HW2 2325   3.914   2.845   1.768
 3306SOL     OW 2326   3.945   3.176   1.844
 3306SOL    HW1 2327   3.880   3.103   1.823
 3306SOL    HW2 2328   3.949   3.190   1.942
 3317SOL     OW 2329   3.954   2.490   1.975
 3317SOL    HW1 2330   3.861   2.488   2.012
 3317SOL    HW2 2331   3.955   2.451   1.883
 3318SOL     OW 2332   3.949   2.137   2.858
 3318SOL    HW1 2333   3.984   2.120   2.950
 3318SOL    HW2 2334   3.861   2.092   2.846
 3319SOL     OW 2335   3.743   2.230   2.509
 3319SOL    HW1 2336   3.661   2.273   2.548
 3319SOL    HW2 2337   3.715   2.157   2.446
 3329SOL     OW 2338   3.954   3.296   2.400
 3329SOL    HW1 2339   3.928   3.392   2.400
 3329SOL    HW2 2340   3.883   3.242   2.445
 3330SOL     OW 2341   3.964   2.953   2.748
 3330SOL    HW1 2342   3.978   2.869   2.800
 3330SOL    HW2 2343   3.909   3.017   2.803
 3333SOL     OW 2344   3.846   2.505   2.425
 3333SOL    HW1 2345   3.801   2.417   2.442
 3333SOL    HW2 2346   3.845   2.559   2.509
 3334SOL     OW 2347   3.751   3.458   1.979
 3334SOL    HW1 2348   3.732   3.362   2.000
 3334SOL    HW2 2349   3.718   3.516   2.054
 3335SOL     OW 2350   3.837   2.599   3.459
 3335SOL    HW1 2351   3.925   2.586   3.504
 3335SOL    HW2 2352   3.824   2.696   3.437
 3338SOL     OW 2353   3.921   2.838   3.126
 3338SOL    HW1 2354   4.010   2.793   3.112
 3338SOL    HW2 2355   3.848   2.773   3.107
 3345SOL     OW 2356   3.800   2.673   2.651
 3345SOL    HW1 2357   3.899   2.661   2.660
 3345SOL    HW2 2358   3.776   2.768   2.672
 3351SOL     OW 2359   4.045   2.805   2.104
 3351SOL    HW1 2360   4.127   2.844   2.062
 3351SOL    HW2 2361   4.018   2.723   2.055
 3353SOL     OW 2362   3.926   2.147   3.360
 3353SOL    HW1 2363   3.846   2.207   3.347
 3353SOL    HW2 2364   3.916   2.098   3.446
 3357SOL     OW 2365   4.106   2.562   2.342
 3357SOL    HW1 2366   4.151   2.472   2.339
 3357SOL    HW2 2367   4.012   2.551   2.375
 3364SOL     OW 2368   4.021   1.897   2.033
 3364SOL    HW1 2369   4.070   1.981   2.012
 3364SOL    HW2 2370   4.083   1.832   2.078
 3369SOL     OW 2371   3.802   2.418   3.248
 3369SOL    HW1 2372   3.894   2.417   3.207
 3369SOL    HW2 2373   3.796   2.492   3.315
 3380SOL     OW 2374   4.091   2.962   2.363
 3380SOL    HW1 2375   4.084   3.045   2.307
 3380SOL    HW2 2376   4.095   2.882   2.303
 3388SOL     OW 2377   4.031   2.075   3.093
 3388SOL    HW1 2378   4.008   2.112   3.183
 3388SOL    HW2 2379   4.001   1.980   3.087
 3389SOL     OW 2380   3.761   3.172   3.144
 3389SOL    HW1 2381   3.814   3.123   3.212
 3389SOL    HW2 2382   3.783   3.270   3.149
 3391SOL     OW 2383   4.031   1.925   2.480
 3391SOL    HW1 2384   4.020   2.019   2.513
 3391SOL    HW2 2385   4.026   1.862   2.557
 3396SOL     OW 2386   4.043   2.672   2.811
 3396SOL    HW1 2387   4.136   2.708   2.816
 3396SOL    HW2 2388   4.037   2.587   2.863
 3397SOL     OW 2389   4.063   2.371   2.868
 3397SOL    HW1 2390   4.011   2.288   2.851
 3397SOL    HW2 2391   4.140   2.376   2.804
 3398SOL     OW 2392   3.732   3.188   2.062
 3398SOL    HW1 2393   3.639   3.209   2.031
 3398SOL    HW2 2394   3.742   3.089   2.075
 3402SOL     OW 2395   3.764   2.406   2.976
 3402SOL    HW1 2396   3.849   2.373   2.935
 3402SOL    HW2 2397   3.777   2.421   3.074
 3410SOL     OW 2398   3.807   3.120   2.884
 3410SOL    HW1 2399   3.802   3.119   2.984
 3410SOL    HW2 2400   3.724   3.079   2.846
 3416SOL     OW 2401   3.987   2.188   2.582
 3416SOL    HW1 2402   3.908   2.239   2.548
 3416SOL    HW2 2403   3.978   2.173   2.680
 3423SOL     OW 2404   3.979   3.210   2.152
 3423SOL    HW1 2405   3.883   3.211   2.125
 3423SOL    HW2 2406   3.991   3.263   2.236
 3426SOL     OW 2407   3.799   2.207   1.895
 3426SOL    HW1 2408   3.707   2.179   1.866
 3426SOL    HW2 2409   3.830   2.284   1.839
 3427SOL     OW 2410   3.796   2.028   2.180
 3427SOL    HW1 2411   3.779   2.111   2.126
 3427SOL    HW2 2412   3.886   1.991   2.158
 3437SOL     OW 2413   3.803   3.102   2.515
 3437SOL    HW1 2414   3.802   3.055   2.603
 3437SOL    HW2 2415   3.885   3.074   2.464
 3439SOL     OW 2416   4.152   2.286   2.382
 3439SOL    HW1 2417   4.182   2.214   2.320
 3439SOL    HW2 2418   4.113   2.246   2.465
 3440SOL     OW 2419   4.041   2.409   3.142
 3440SOL    HW1 2420   4.079   2.350   3.214
 3440SOL    HW2 2421   4.081   2.383   3.054
 3445SOL     OW 2422   3.763   2.939   2.162
 3445SOL    HW1 2423   3.862   2.928   2.153
 3445SOL    HW2 2424   3.723   2.853   2.194
   4.83683   4.83683   4.83683
