mobley_9617923_GMX.gro created by acpype (v: 2023.10.27) on Thu May 21 00:07:46 2026
 2386
    1MOL     C1    1   2.888   3.007   2.472
    1MOL     C2    2   2.922   3.077   2.343
    1MOL     C3    3   2.409   2.265   2.962
    1MOL     C4    4   2.794   2.888   2.462
    1MOL     C5    5   2.437   2.329   2.827
    1MOL     C6    6   2.769   2.822   2.597
    1MOL     C7    7   2.534   2.446   2.840
    1MOL     C8    8   2.677   2.701   2.583
    1MOL     C9    9   2.559   2.513   2.705
    1MOL    C10   10   2.654   2.632   2.718
    1MOL     O1   11   2.936   3.046   2.579
    1MOL     H1   12   2.969   3.006   2.274
    1MOL     H2   13   2.830   3.117   2.298
    1MOL     H3   14   2.991   3.159   2.362
    1MOL     H4   15   2.501   2.226   3.007
    1MOL     H5   16   2.339   2.181   2.950
    1MOL     H6   17   2.364   2.337   3.031
    1MOL     H7   18   2.700   2.924   2.420
    1MOL     H8   19   2.839   2.816   2.393
    1MOL     H9   20   2.343   2.364   2.783
    1MOL    H10   21   2.478   2.254   2.759
    1MOL    H11   22   2.724   2.895   2.666
    1MOL    H12   23   2.864   2.791   2.642
    1MOL    H13   24   2.629   2.411   2.882
    1MOL    H14   25   2.493   2.520   2.910
    1MOL    H15   26   2.580   2.732   2.541
    1MOL    H16   27   2.721   2.629   2.513
    1MOL    H17   28   2.602   2.440   2.635
    1MOL    H18   29   2.464   2.546   2.662
    1MOL    H19   30   2.750   2.599   2.759
    1MOL    H20   31   2.612   2.704   2.789
  127SOL     OW   32   1.859   1.518   1.605
  127SOL    HW1   33   1.873   1.545   1.510
  127SOL    HW2   34   1.942   1.540   1.658
  219SOL     OW   35   1.555   1.511   2.565
  219SOL    HW1   36   1.498   1.495   2.646
  219SOL    HW2   37   1.496   1.521   2.485
  227SOL     OW   38   1.460   1.505   3.201
  227SOL    HW1   39   1.484   1.599   3.227
  227SOL    HW2   40   1.444   1.451   3.283
  238SOL     OW   41   1.842   1.767   2.221
  238SOL    HW1   42   1.896   1.738   2.301
  238SOL    HW2   43   1.872   1.857   2.192
  250SOL     OW   44   1.466   1.417   2.815
  250SOL    HW1   45   1.407   1.423   2.895
  250SOL    HW2   46   1.451   1.329   2.769
  251SOL     OW   47   1.667   1.714   2.434
  251SOL    HW1   48   1.626   1.691   2.346
  251SOL    HW2   49   1.649   1.640   2.499
  254SOL     OW   50   1.576   1.662   2.169
  254SOL    HW1   51   1.665   1.708   2.172
  254SOL    HW2   52   1.555   1.638   2.074
  275SOL     OW   53   1.632   1.377   1.943
  275SOL    HW1   54   1.600   1.471   1.933
  275SOL    HW2   55   1.556   1.314   1.931
  293SOL     OW   56   1.227   1.570   2.655
  293SOL    HW1   57   1.248   1.644   2.590
  293SOL    HW2   58   1.295   1.570   2.728
  295SOL     OW   59   1.271   1.797   2.453
  295SOL    HW1   60   1.315   1.861   2.389
  295SOL    HW2   61   1.221   1.849   2.523
  305SOL     OW   62   1.664   1.280   2.519
  305SOL    HW1   63   1.763   1.288   2.533
  305SOL    HW2   64   1.619   1.364   2.550
  310SOL     OW   65   1.592   1.629   3.487
  310SOL    HW1   66   1.619   1.663   3.397
  310SOL    HW2   67   1.671   1.591   3.533
  340SOL     OW   68   1.859   1.518   3.467
  340SOL    HW1   69   1.873   1.545   3.372
  340SOL    HW2   70   1.942   1.540   3.520
  365SOL     OW   71   1.759   1.747   3.016
  365SOL    HW1   72   1.820   1.777   2.943
  365SOL    HW2   73   1.721   1.658   2.994
  366SOL     OW   74   1.252   1.731   2.990
  366SOL    HW1   75   1.336   1.736   2.936
  366SOL    HW2   76   1.229   1.635   3.008
  370SOL     OW   77   1.388   1.573   2.339
  370SOL    HW1   78   1.455   1.585   2.265
  370SOL    HW2   79   1.348   1.662   2.362
  375SOL     OW   80   1.650   1.720   3.256
  375SOL    HW1   81   1.703   1.730   3.172
  375SOL    HW2   82   1.623   1.810   3.290
  381SOL     OW   83   1.504   1.607   1.906
  381SOL    HW1   84   1.412   1.644   1.913
  381SOL    HW2   85   1.542   1.627   1.816
  383SOL     OW   86   1.614   1.292   3.151
  383SOL    HW1   87   1.674   1.295   3.231
  383SOL    HW2   88   1.539   1.356   3.164
  396SOL     OW   89   1.493   1.767   2.821
  396SOL    HW1   90   1.526   1.831   2.752
  396SOL    HW2   91   1.559   1.761   2.896
  409SOL     OW   92   1.861   1.569   2.713
  409SOL    HW1   93   1.790   1.557   2.643
  409SOL    HW2   94   1.862   1.490   2.773
  415SOL     OW   95   1.705   1.487   2.966
  415SOL    HW1   96   1.612   1.462   2.939
  415SOL    HW2   97   1.731   1.437   3.048
  627SOL     OW   98   1.594   1.976   1.480
  627SOL    HW1   99   1.576   2.043   1.408
  627SOL    HW2  100   1.591   2.022   1.569
  647SOL     OW  101   1.394   2.331   1.674
  647SOL    HW1  102   1.374   2.374   1.762
  647SOL    HW2  103   1.472   2.269   1.683
  654SOL     OW  104   1.719   2.447   1.831
  654SOL    HW1  105   1.693   2.536   1.795
  654SOL    HW2  106   1.717   2.379   1.758
  672SOL     OW  107   1.547   2.084   1.729
  672SOL    HW1  108   1.542   2.121   1.821
  672SOL    HW2  109   1.475   2.015   1.717
  699SOL     OW  110   1.754   3.085   1.588
  699SOL    HW1  111   1.845   3.046   1.575
  699SOL    HW2  112   1.762   3.181   1.612
  701SOL     OW  113   1.592   3.491   1.625
  701SOL    HW1  114   1.619   3.525   1.535
  701SOL    HW2  115   1.671   3.453   1.671
  717SOL     OW  116   1.587   2.641   1.670
  717SOL    HW1  117   1.495   2.679   1.665
  717SOL    HW2  118   1.647   2.688   1.605
  726SOL     OW  119   1.728   2.797   1.854
  726SOL    HW1  120   1.682   2.790   1.765
  726SOL    HW2  121   1.666   2.841   1.920
  731SOL     OW  122   1.859   3.380   1.605
  731SOL    HW1  123   1.873   3.407   1.510
  731SOL    HW2  124   1.942   3.402   1.658
  746SOL     OW  125   1.369   2.812   1.660
  746SOL    HW1  126   1.408   2.901   1.680
  746SOL    HW2  127   1.379   2.792   1.563
  748SOL     OW  128   1.657   2.466   1.206
  748SOL    HW1  129   1.619   2.397   1.268
  748SOL    HW2  130   1.739   2.430   1.162
  775SOL     OW  131   1.614   3.154   1.289
  775SOL    HW1  132   1.674   3.157   1.369
  775SOL    HW2  133   1.539   3.218   1.302
  779SOL     OW  134   1.709   2.247   1.381
  779SOL    HW1  135   1.782   2.316   1.385
  779SOL    HW2  136   1.737   2.172   1.322
  784SOL     OW  137   1.440   2.718   1.398
  784SOL    HW1  138   1.383   2.770   1.335
  784SOL    HW2  139   1.536   2.730   1.374
  790SOL     OW  140   1.450   3.082   1.633
  790SOL    HW1  141   1.441   3.072   1.732
  790SOL    HW2  142   1.546   3.075   1.607
  792SOL     OW  143   1.674   2.745   1.254
  792SOL    HW1  144   1.647   2.656   1.217
  792SOL    HW2  145   1.675   2.813   1.181
  795SOL     OW  146   1.777   2.204   1.642
  795SOL    HW1  147   1.760   2.235   1.548
  795SOL    HW2  148   1.693   2.167   1.680
  796SOL     OW  149   1.730   2.796   1.517
  796SOL    HW1  150   1.768   2.887   1.532
  796SOL    HW2  151   1.722   2.779   1.418
  805SOL     OW  152   1.824   2.054   1.227
  805SOL    HW1  153   1.820   1.964   1.271
  805SOL    HW2  154   1.827   2.043   1.128
  823SOL     OW  155   1.555   3.373   2.565
  823SOL    HW1  156   1.498   3.357   2.646
  823SOL    HW2  157   1.496   3.383   2.485
  824SOL     OW  158   1.135   2.565   2.579
  824SOL    HW1  159   1.192   2.643   2.554
  824SOL    HW2  160   1.075   2.591   2.655
  825SOL     OW  161   1.755   2.469   2.093
  825SOL    HW1  162   1.743   2.456   1.994
  825SOL    HW2  163   1.725   2.388   2.142
  831SOL     OW  164   1.460   3.367   3.201
  831SOL    HW1  165   1.484   3.461   3.227
  831SOL    HW2  166   1.444   3.313   3.283
  833SOL     OW  167   1.603   2.309   2.599
  833SOL    HW1  168   1.529   2.355   2.549
  833SOL    HW2  169   1.654   2.377   2.652
  840SOL     OW  170   1.594   1.976   3.342
  840SOL    HW1  171   1.576   2.043   3.270
  840SOL    HW2  172   1.591   2.022   3.431
  842SOL     OW  173   1.842   3.629   2.221
  842SOL    HW1  174   1.896   3.600   2.301
  842SOL    HW2  175   1.872   3.719   2.192
  844SOL     OW  176   1.689   2.784   2.474
  844SOL    HW1  177   1.784   2.755   2.482
  844SOL    HW2  178   1.681   2.849   2.399
  845SOL     OW  179   1.641   2.970   2.294
  845SOL    HW1  180   1.727   2.972   2.242
  845SOL    HW2  181   1.655   3.017   2.382
  848SOL     OW  182   1.293   3.090   3.285
  848SOL    HW1  183   1.330   3.017   3.227
  848SOL    HW2  184   1.345   3.095   3.370
  851SOL     OW  185   1.525   2.861   2.052
  851SOL    HW1  186   1.462   2.785   2.065
  851SOL    HW2  187   1.573   2.879   2.138
  854SOL     OW  188   1.466   3.279   2.815
  854SOL    HW1  189   1.407   3.285   2.895
  854SOL    HW2  190   1.451   3.191   2.769
  855SOL     OW  191   1.667   3.576   2.434
  855SOL    HW1  192   1.626   3.553   2.346
  855SOL    HW2  193   1.649   3.502   2.499
  857SOL     OW  194   1.281   2.207   2.806
  857SOL    HW1  195   1.195   2.157   2.793
  857SOL    HW2  196   1.343   2.153   2.862
  858SOL     OW  197   1.576   3.524   2.169
  858SOL    HW1  198   1.665   3.570   2.172
  858SOL    HW2  199   1.555   3.500   2.074
  860SOL     OW  200   1.394   2.331   3.536
  860SOL    HW1  201   1.374   2.374   3.624
  860SOL    HW2  202   1.472   2.269   3.545
  862SOL     OW  203   0.991   2.272   3.104
  862SOL    HW1  204   0.914   2.306   3.158
  862SOL    HW2  205   0.957   2.221   3.025
  863SOL     OW  206   1.041   2.563   2.291
  863SOL    HW1  207   1.067   2.559   2.387
  863SOL    HW2  208   0.956   2.512   2.277
  867SOL     OW  209   1.719   2.447   3.693
  867SOL    HW1  210   1.693   2.536   3.657
  867SOL    HW2  211   1.717   2.379   3.620
  868SOL     OW  212   1.362   3.006   2.407
  868SOL    HW1  213   1.445   2.977   2.359
  868SOL    HW2  214   1.313   3.073   2.351
  872SOL     OW  215   1.795   2.928   2.735
  872SOL    HW1  216   1.733   2.913   2.659
  872SOL    HW2  217   1.743   2.939   2.820
  873SOL     OW  218   1.227   3.412   3.368
  873SOL    HW1  219   1.233   3.335   3.432
  873SOL    HW2  220   1.175   3.386   3.288
  875SOL     OW  221   1.458   2.597   2.590
  875SOL    HW1  222   1.453   2.532   2.665
  875SOL    HW2  223   1.538   2.656   2.603
  879SOL     OW  224   1.632   3.239   1.943
  879SOL    HW1  225   1.600   3.333   1.933
  879SOL    HW2  226   1.556   3.176   1.931
  881SOL     OW  227   1.400   1.969   2.288
  881SOL    HW1  228   1.376   1.932   2.198
  881SOL    HW2  229   1.499   1.985   2.292
  885SOL     OW  230   1.547   2.084   3.591
  885SOL    HW1  231   1.542   2.121   3.683
  885SOL    HW2  232   1.475   2.015   3.579
  889SOL     OW  233   1.351   2.452   3.295
  889SOL    HW1  234   1.379   2.409   3.380
  889SOL    HW2  235   1.376   2.548   3.296
  891SOL     OW  236   0.922   2.365   2.761
  891SOL    HW1  237   0.897   2.356   2.665
  891SOL    HW2  238   0.970   2.283   2.792
  893SOL     OW  239   1.434   3.050   1.903
  893SOL    HW1  240   1.466   2.974   1.960
  893SOL    HW2  241   1.342   3.077   1.933
  896SOL     OW  242   1.076   2.545   3.326
  896SOL    HW1  243   0.996   2.484   3.329
  896SOL    HW2  244   1.157   2.492   3.302
  897SOL     OW  245   1.227   3.432   2.655
  897SOL    HW1  246   1.248   3.506   2.590
  897SOL    HW2  247   1.295   3.432   2.728
  899SOL     OW  248   1.271   3.659   2.453
  899SOL    HW1  249   1.315   3.723   2.389
  899SOL    HW2  250   1.221   3.711   2.523
  905SOL     OW  251   1.429   3.035   2.729
  905SOL    HW1  252   1.374   2.951   2.722
  905SOL    HW2  253   1.455   3.064   2.637
  906SOL     OW  254   1.466   2.452   2.854
  906SOL    HW1  255   1.436   2.357   2.861
  906SOL    HW2  256   1.539   2.468   2.920
  907SOL     OW  257   1.857   2.695   2.239
  907SOL    HW1  258   1.899   2.631   2.303
  907SOL    HW2  259   1.819   2.644   2.161
  909SOL     OW  260   1.664   3.142   2.519
  909SOL    HW1  261   1.763   3.150   2.533
  909SOL    HW2  262   1.619   3.226   2.550
  910SOL     OW  263   1.390   2.437   1.940
  910SOL    HW1  264   1.336   2.416   2.021
  910SOL    HW2  265   1.481   2.396   1.949
  912SOL     OW  266   1.754   3.085   3.450
  912SOL    HW1  267   1.845   3.046   3.437
  912SOL    HW2  268   1.762   3.181   3.474
  913SOL     OW  269   1.064   3.209   3.202
  913SOL    HW1  270   0.984   3.186   3.257
  913SOL    HW2  271   1.147   3.183   3.251
  914SOL     OW  272   1.592   3.491   3.487
  914SOL    HW1  273   1.619   3.525   3.397
  914SOL    HW2  274   1.671   3.453   3.533
  915SOL     OW  275   1.111   3.057   2.962
  915SOL    HW1  276   1.071   3.101   3.043
  915SOL    HW2  277   1.070   3.094   2.879
  916SOL     OW  278   1.638   2.961   2.941
  916SOL    HW1  279   1.643   3.042   3.000
  916SOL    HW2  280   1.552   2.963   2.890
  921SOL     OW  281   1.274   2.248   3.124
  921SOL    HW1  282   1.295   2.322   3.188
  921SOL    HW2  283   1.185   2.265   3.081
  925SOL     OW  284   1.252   3.210   2.250
  925SOL    HW1  285   1.302   3.287   2.290
  925SOL    HW2  286   1.157   3.212   2.282
  926SOL     OW  287   1.272   3.307   3.004
  926SOL    HW1  288   1.319   3.320   3.091
  926SOL    HW2  289   1.206   3.233   3.013
  927SOL     OW  290   1.582   2.501   2.334
  927SOL    HW1  291   1.551   2.562   2.407
  927SOL    HW2  292   1.632   2.553   2.265
  930SOL     OW  293   1.587   2.641   3.532
  930SOL    HW1  294   1.495   2.679   3.527
  930SOL    HW2  295   1.647   2.688   3.467
  934SOL     OW  296   1.360   2.724   2.907
  934SOL    HW1  297   1.285   2.724   2.841
  934SOL    HW2  298   1.397   2.632   2.916
  935SOL     OW  299   1.209   2.387   2.137
  935SOL    HW1  300   1.222   2.303   2.191
  935SOL    HW2  301   1.180   2.461   2.197
  939SOL     OW  302   1.728   2.797   3.716
  939SOL    HW1  303   1.682   2.790   3.627
  939SOL    HW2  304   1.666   2.841   3.782
  941SOL     OW  305   1.622   2.229   2.236
  941SOL    HW1  306   1.624   2.153   2.300
  941SOL    HW2  307   1.574   2.306   2.276
  942SOL     OW  308   1.023   2.628   2.828
  942SOL    HW1  309   1.038   2.649   2.924
  942SOL    HW2  310   0.993   2.533   2.819
  944SOL     OW  311   1.859   3.380   3.467
  944SOL    HW1  312   1.873   3.407   3.372
  944SOL    HW2  313   1.942   3.402   3.520
  946SOL     OW  314   1.540   2.136   1.987
  946SOL    HW1  315   1.479   2.061   2.010
  946SOL    HW2  316   1.562   2.188   2.070
  947SOL     OW  317   1.303   2.700   1.904
  947SOL    HW1  318   1.337   2.607   1.919
  947SOL    HW2  319   1.321   2.727   1.809
  948SOL     OW  320   1.068   3.195   2.711
  948SOL    HW1  321   1.075   3.111   2.656
  948SOL    HW2  322   1.130   3.264   2.675
  952SOL     OW  323   1.160   2.069   3.339
  952SOL    HW1  324   1.160   2.133   3.416
  952SOL    HW2  325   1.188   2.117   3.256
  956SOL     OW  326   1.002   2.658   3.100
  956SOL    HW1  327   1.043   2.626   3.186
  956SOL    HW2  328   0.906   2.631   3.097
  959SOL     OW  329   1.369   2.812   3.522
  959SOL    HW1  330   1.408   2.901   3.542
  959SOL    HW2  331   1.379   2.792   3.425
  961SOL     OW  332   1.657   2.466   3.068
  961SOL    HW1  333   1.619   2.397   3.130
  961SOL    HW2  334   1.739   2.430   3.024
  967SOL     OW  335   1.347   2.921   3.096
  967SOL    HW1  336   1.371   2.858   3.022
  967SOL    HW2  337   1.257   2.961   3.078
  968SOL     OW  338   1.302   2.717   2.171
  968SOL    HW1  339   1.216   2.686   2.213
  968SOL    HW2  340   1.298   2.703   2.072
  969SOL     OW  341   1.759   3.609   3.016
  969SOL    HW1  342   1.820   3.639   2.943
  969SOL    HW2  343   1.721   3.520   2.994
  970SOL     OW  344   1.252   3.593   2.990
  970SOL    HW1  345   1.336   3.598   2.936
  970SOL    HW2  346   1.229   3.497   3.008
  973SOL     OW  347   1.726   1.997   2.385
  973SOL    HW1  348   1.799   1.980   2.318
  973SOL    HW2  349   1.695   1.910   2.423
  974SOL     OW  350   1.388   3.435   2.339
  974SOL    HW1  351   1.455   3.447   2.265
  974SOL    HW2  352   1.348   3.524   2.362
  976SOL     OW  353   1.280   2.789   2.534
  976SOL    HW1  354   1.340   2.708   2.536
  976SOL    HW2  355   1.320   2.858   2.474
  979SOL     OW  356   1.650   3.582   3.256
  979SOL    HW1  357   1.703   3.592   3.172
  979SOL    HW2  358   1.623   3.672   3.290
  980SOL     OW  359   1.841   2.037   2.825
  980SOL    HW1  360   1.880   1.952   2.789
  980SOL    HW2  361   1.743   2.039   2.806
  985SOL     OW  362   1.504   3.469   1.906
  985SOL    HW1  363   1.412   3.506   1.913
  985SOL    HW2  364   1.542   3.489   1.816
  987SOL     OW  365   1.614   3.154   3.151
  987SOL    HW1  366   1.674   3.157   3.231
  987SOL    HW2  367   1.539   3.218   3.164
  988SOL     OW  368   1.039   2.960   2.558
  988SOL    HW1  369   0.969   2.913   2.612
  988SOL    HW2  370   1.098   2.892   2.515
  989SOL     OW  371   1.014   2.098   2.833
  989SOL    HW1  372   1.006   2.062   2.740
  989SOL    HW2  373   1.012   2.022   2.898
  991SOL     OW  374   1.709   2.247   3.243
  991SOL    HW1  375   1.782   2.316   3.247
  991SOL    HW2  376   1.737   2.172   3.184
  996SOL     OW  377   1.440   2.718   3.260
  996SOL    HW1  378   1.383   2.770   3.197
  996SOL    HW2  379   1.536   2.730   3.236
  998SOL     OW  380   1.183   3.197   1.981
  998SOL    HW1  381   1.084   3.186   1.983
  998SOL    HW2  382   1.217   3.212   2.074
 1000SOL     OW  383   1.493   3.629   2.821
 1000SOL    HW1  384   1.526   3.693   2.752
 1000SOL    HW2  385   1.559   3.623   2.896
 1002SOL     OW  386   1.450   3.082   3.495
 1002SOL    HW1  387   1.441   3.072   3.594
 1002SOL    HW2  388   1.546   3.075   3.469
 1004SOL     OW  389   1.674   2.745   3.116
 1004SOL    HW1  390   1.647   2.656   3.079
 1004SOL    HW2  391   1.675   2.813   3.043
 1005SOL     OW  392   1.225   2.187   2.311
 1005SOL    HW1  393   1.290   2.113   2.300
 1005SOL    HW2  394   1.245   2.237   2.395
 1007SOL     OW  395   1.777   2.204   3.504
 1007SOL    HW1  396   1.760   2.235   3.410
 1007SOL    HW2  397   1.693   2.167   3.542
 1008SOL     OW  398   1.730   2.796   3.379
 1008SOL    HW1  399   1.768   2.887   3.394
 1008SOL    HW2  400   1.722   2.779   3.280
 1012SOL     OW  401   1.083   2.846   1.949
 1012SOL    HW1  402   1.060   2.899   1.867
 1012SOL    HW2  403   1.164   2.790   1.930
 1013SOL     OW  404   1.861   3.431   2.713
 1013SOL    HW1  405   1.790   3.419   2.643
 1013SOL    HW2  406   1.862   3.352   2.773
 1017SOL     OW  407   1.824   2.054   3.089
 1017SOL    HW1  408   1.820   1.964   3.133
 1017SOL    HW2  409   1.827   2.043   2.990
 1019SOL     OW  410   1.705   3.349   2.966
 1019SOL    HW1  411   1.612   3.324   2.939
 1019SOL    HW2  412   1.731   3.299   3.048
 1022SOL     OW  413   1.424   2.076   2.974
 1022SOL    HW1  414   1.476   2.011   3.029
 1022SOL    HW2  415   1.375   2.139   3.035
 1026SOL     OW  416   1.352   1.914   2.030
 1026SOL    HW1  417   1.387   1.873   1.946
 1026SOL    HW2  418   1.262   1.876   2.050
 1027SOL     OW  419   1.300   2.315   2.553
 1027SOL    HW1  420   1.241   2.395   2.557
 1027SOL    HW2  421   1.315   2.280   2.646
 1028SOL     OW  422   1.593   2.083   2.744
 1028SOL    HW1  423   1.509   2.082   2.798
 1028SOL    HW2  424   1.595   2.166   2.688
 1037SOL     OW  425   1.755   2.469   3.955
 1037SOL    HW1  426   1.743   2.456   3.856
 1037SOL    HW2  427   1.725   2.388   4.004
 1059SOL     OW  428   1.525   2.861   3.914
 1059SOL    HW1  429   1.462   2.785   3.927
 1059SOL    HW2  430   1.573   2.879   4.000
 1080SOL     OW  431   1.632   3.239   3.805
 1080SOL    HW1  432   1.600   3.333   3.795
 1080SOL    HW2  433   1.556   3.176   3.793
 1091SOL     OW  434   1.434   3.050   3.765
 1091SOL    HW1  435   1.466   2.974   3.822
 1091SOL    HW2  436   1.342   3.077   3.795
 1104SOL     OW  437   1.857   2.695   4.101
 1104SOL    HW1  438   1.899   2.631   4.165
 1104SOL    HW2  439   1.819   2.644   4.023
 1107SOL     OW  440   1.390   2.437   3.802
 1107SOL    HW1  441   1.336   2.416   3.883
 1107SOL    HW2  442   1.481   2.396   3.811
 1135SOL     OW  443   1.540   2.136   3.849
 1135SOL    HW1  444   1.479   2.061   3.872
 1135SOL    HW2  445   1.562   2.188   3.932
 1136SOL     OW  446   1.303   2.700   3.766
 1136SOL    HW1  447   1.337   2.607   3.781
 1136SOL    HW2  448   1.321   2.727   3.671
 1169SOL     OW  449   1.504   3.469   3.768
 1169SOL    HW1  450   1.412   3.506   3.775
 1169SOL    HW2  451   1.542   3.489   3.678
 1410SOL     OW  452   1.594   3.838   3.342
 1410SOL    HW1  453   1.576   3.905   3.270
 1410SOL    HW2  454   1.591   3.884   3.431
 1444SOL     OW  455   1.400   3.831   2.288
 1444SOL    HW1  456   1.376   3.794   2.198
 1444SOL    HW2  457   1.499   3.847   2.292
 1525SOL     OW  458   1.726   3.859   2.385
 1525SOL    HW1  459   1.799   3.842   2.318
 1525SOL    HW2  460   1.695   3.772   2.423
 1528SOL     OW  461   1.841   3.899   2.825
 1528SOL    HW1  462   1.880   3.814   2.789
 1528SOL    HW2  463   1.743   3.901   2.806
 1558SOL     OW  464   1.824   3.916   3.089
 1558SOL    HW1  465   1.820   3.826   3.133
 1558SOL    HW2  466   1.827   3.905   2.990
 1568SOL     OW  467   1.593   3.945   2.744
 1568SOL    HW1  468   1.509   3.944   2.798
 1568SOL    HW2  469   1.595   4.028   2.688
 1729SOL     OW  470   2.548   1.161   1.803
 1729SOL    HW1  471   2.608   1.240   1.817
 1729SOL    HW2  472   2.462   1.192   1.762
 1735SOL     OW  473   2.989   1.341   1.690
 1735SOL    HW1  474   3.036   1.341   1.778
 1735SOL    HW2  475   2.941   1.254   1.679
 1738SOL     OW  476   2.482   1.786   1.439
 1738SOL    HW1  477   2.390   1.769   1.474
 1738SOL    HW2  478   2.510   1.878   1.465
 1752SOL     OW  479   3.049   1.792   1.616
 1752SOL    HW1  480   3.073   1.852   1.540
 1752SOL    HW2  481   3.056   1.697   1.586
 1765SOL     OW  482   1.992   1.821   1.571
 1765SOL    HW1  483   1.982   1.806   1.670
 1765SOL    HW2  484   1.906   1.857   1.535
 1773SOL     OW  485   3.089   1.550   1.506
 1773SOL    HW1  486   3.095   1.473   1.570
 1773SOL    HW2  487   3.037   1.524   1.426
 1776SOL     OW  488   2.323   1.266   1.727
 1776SOL    HW1  489   2.273   1.267   1.641
 1776SOL    HW2  490   2.260   1.248   1.803
 1782SOL     OW  491   2.111   1.785   1.241
 1782SOL    HW1  492   2.168   1.720   1.291
 1782SOL    HW2  493   2.095   1.752   1.148
 1814SOL     OW  494   3.454   1.629   1.625
 1814SOL    HW1  495   3.481   1.663   1.535
 1814SOL    HW2  496   3.533   1.591   1.671
 1843SOL     OW  497   2.842   1.573   1.700
 1843SOL    HW1  498   2.822   1.617   1.612
 1843SOL    HW2  499   2.881   1.482   1.684
 1862SOL     OW  500   2.114   1.564   1.744
 1862SOL    HW1  501   2.084   1.621   1.820
 1862SOL    HW2  502   2.107   1.467   1.770
 1864SOL     OW  503   2.792   1.678   1.465
 1864SOL    HW1  504   2.768   1.660   1.370
 1864SOL    HW2  505   2.822   1.772   1.475
 1872SOL     OW  506   2.550   1.662   1.716
 1872SOL    HW1  507   2.494   1.743   1.725
 1872SOL    HW2  508   2.602   1.666   1.630
 1876SOL     OW  509   1.992   1.794   1.851
 1876SOL    HW1  510   1.951   1.720   1.904
 1876SOL    HW2  511   2.056   1.845   1.909
 1880SOL     OW  512   3.512   1.720   1.394
 1880SOL    HW1  513   3.565   1.730   1.310
 1880SOL    HW2  514   3.485   1.810   1.428
 1903SOL     OW  515   2.252   1.741   1.560
 1903SOL    HW1  516   2.161   1.782   1.558
 1903SOL    HW2  517   2.245   1.647   1.592
 1914SOL     OW  518   2.083   1.314   1.844
 1914SOL    HW1  519   2.018   1.241   1.823
 1914SOL    HW2  520   2.087   1.328   1.942
 1916SOL     OW  521   2.534   1.391   1.624
 1916SOL    HW1  522   2.456   1.341   1.662
 1916SOL    HW2  523   2.531   1.486   1.655
 1925SOL     OW  524   2.480   1.567   1.284
 1925SOL    HW1  525   2.475   1.649   1.341
 1925SOL    HW2  526   2.569   1.564   1.239
 1934SOL     OW  527   2.431   1.275   3.027
 1934SOL    HW1  528   2.338   1.268   2.990
 1934SOL    HW2  529   2.442   1.364   3.071
 1935SOL     OW  530   3.417   1.511   2.565
 1935SOL    HW1  531   3.360   1.495   2.646
 1935SOL    HW2  532   3.358   1.521   2.485
 1938SOL     OW  533   2.630   1.144   2.885
 1938SOL    HW1  534   2.552   1.161   2.945
 1938SOL    HW2  535   2.664   1.231   2.849
 1940SOL     OW  536   2.547   1.012   2.527
 1940SOL    HW1  537   2.616   0.996   2.597
 1940SOL    HW2  538   2.474   1.069   2.565
 1942SOL     OW  539   2.197   1.435   2.923
 1942SOL    HW1  540   2.119   1.404   2.870
 1942SOL    HW2  541   2.255   1.493   2.866
 1943SOL     OW  542   3.322   1.505   3.201
 1943SOL    HW1  543   3.346   1.599   3.227
 1943SOL    HW2  544   3.306   1.451   3.283
 1946SOL     OW  545   2.093   1.713   2.345
 1946SOL    HW1  546   2.127   1.790   2.399
 1946SOL    HW2  547   2.137   1.713   2.255
 1947SOL     OW  548   2.989   1.341   3.552
 1947SOL    HW1  549   3.036   1.341   3.640
 1947SOL    HW2  550   2.941   1.254   3.541
 1948SOL     OW  551   2.092   1.434   2.400
 1948SOL    HW1  552   2.066   1.530   2.400
 1948SOL    HW2  553   2.021   1.380   2.445
 1949SOL     OW  554   2.102   1.091   2.748
 1949SOL    HW1  555   2.116   1.007   2.800
 1949SOL    HW2  556   2.047   1.155   2.803
 1950SOL     OW  557   2.482   1.786   3.301
 1950SOL    HW1  558   2.390   1.769   3.336
 1950SOL    HW2  559   2.510   1.878   3.327
 1954SOL     OW  560   3.704   1.767   2.221
 1954SOL    HW1  561   3.758   1.738   2.301
 1954SOL    HW2  562   3.734   1.857   2.192
 1955SOL     OW  563   1.889   1.596   1.979
 1955SOL    HW1  564   1.870   1.500   2.000
 1955SOL    HW2  565   1.856   1.654   2.054
 1959SOL     OW  566   2.475   1.365   2.588
 1959SOL    HW1  567   2.426   1.278   2.597
 1959SOL    HW2  568   2.452   1.408   2.501
 1960SOL     OW  569   3.155   1.228   3.285
 1960SOL    HW1  570   3.192   1.155   3.227
 1960SOL    HW2  571   3.207   1.233   3.370
 1964SOL     OW  572   3.049   1.792   3.478
 1964SOL    HW1  573   3.073   1.852   3.402
 1964SOL    HW2  574   3.056   1.697   3.448
 1966SOL     OW  575   3.328   1.417   2.815
 1966SOL    HW1  576   3.269   1.423   2.895
 1966SOL    HW2  577   3.313   1.329   2.769
 1967SOL     OW  578   3.529   1.714   2.434
 1967SOL    HW1  579   3.488   1.691   2.346
 1967SOL    HW2  580   3.511   1.640   2.499
 1970SOL     OW  581   3.438   1.662   2.169
 1970SOL    HW1  582   3.527   1.708   2.172
 1970SOL    HW2  583   3.417   1.638   2.074
 1977SOL     OW  584   1.992   1.821   3.433
 1977SOL    HW1  585   1.982   1.806   3.532
 1977SOL    HW2  586   1.906   1.857   3.397
 1980SOL     OW  587   3.224   1.144   2.407
 1980SOL    HW1  588   3.307   1.115   2.359
 1980SOL    HW2  589   3.175   1.211   2.351
 1982SOL     OW  590   2.870   1.456   2.339
 1982SOL    HW1  591   2.824   1.528   2.287
 1982SOL    HW2  592   2.866   1.476   2.437
 1983SOL     OW  593   2.213   1.801   2.715
 1983SOL    HW1  594   2.263   1.715   2.721
 1983SOL    HW2  595   2.278   1.878   2.712
 1985SOL     OW  596   3.089   1.550   3.368
 1985SOL    HW1  597   3.095   1.473   3.432
 1985SOL    HW2  598   3.037   1.524   3.288
 1988SOL     OW  599   2.323   1.266   3.589
 1988SOL    HW1  600   2.273   1.267   3.503
 1988SOL    HW2  601   2.260   1.248   3.665
 1989SOL     OW  602   2.973   1.776   2.099
 1989SOL    HW1  603   2.913   1.714   2.149
 1989SOL    HW2  604   3.004   1.732   2.014
 1991SOL     OW  605   3.494   1.377   1.943
 1991SOL    HW1  606   3.462   1.471   1.933
 1991SOL    HW2  607   3.418   1.314   1.931
 1992SOL     OW  608   2.326   1.743   2.185
 1992SOL    HW1  609   2.359   1.782   2.271
 1992SOL    HW2  610   2.402   1.736   2.120
 1994SOL     OW  611   2.111   1.785   3.103
 1994SOL    HW1  612   2.168   1.720   3.153
 1994SOL    HW2  613   2.095   1.752   3.010
 1995SOL     OW  614   2.802   1.698   2.766
 1995SOL    HW1  615   2.882   1.641   2.787
 1995SOL    HW2  616   2.753   1.658   2.689
 2000SOL     OW  617   2.750   1.514   3.057
 2000SOL    HW1  618   2.727   1.489   2.963
 2000SOL    HW2  619   2.811   1.445   3.096
 2002SOL     OW  620   2.665   1.402   2.786
 2002SOL    HW1  621   2.755   1.416   2.744
 2002SOL    HW2  622   2.594   1.404   2.715
 2005SOL     OW  623   3.296   1.188   1.903
 2005SOL    HW1  624   3.328   1.112   1.960
 2005SOL    HW2  625   3.204   1.215   1.933
 2009SOL     OW  626   3.089   1.570   2.655
 2009SOL    HW1  627   3.110   1.644   2.590
 2009SOL    HW2  628   3.157   1.570   2.728
 2010SOL     OW  629   2.321   1.152   2.603
 2010SOL    HW1  630   2.250   1.125   2.668
 2010SOL    HW2  631   2.295   1.124   2.510
 2011SOL     OW  632   3.133   1.797   2.453
 2011SOL    HW1  633   3.177   1.861   2.389
 2011SOL    HW2  634   3.083   1.849   2.523
 2017SOL     OW  635   3.291   1.173   2.729
 2017SOL    HW1  636   3.236   1.089   2.722
 2017SOL    HW2  637   3.317   1.202   2.637
 2020SOL     OW  638   2.350   1.385   2.036
 2020SOL    HW1  639   2.263   1.370   2.083
 2020SOL    HW2  640   2.333   1.411   1.941
 2021SOL     OW  641   3.526   1.280   2.519
 2021SOL    HW1  642   3.625   1.288   2.533
 2021SOL    HW2  643   3.481   1.364   2.550
 2025SOL     OW  644   2.926   1.347   3.202
 2025SOL    HW1  645   2.846   1.324   3.257
 2025SOL    HW2  646   3.009   1.321   3.251
 2026SOL     OW  647   3.454   1.629   3.487
 2026SOL    HW1  648   3.481   1.663   3.397
 2026SOL    HW2  649   3.533   1.591   3.533
 2027SOL     OW  650   2.973   1.195   2.962
 2027SOL    HW1  651   2.933   1.239   3.043
 2027SOL    HW2  652   2.932   1.232   2.879
 2028SOL     OW  653   3.500   1.099   2.941
 2028SOL    HW1  654   3.505   1.180   3.000
 2028SOL    HW2  655   3.414   1.101   2.890
 2031SOL     OW  656   2.567   1.050   2.230
 2031SOL    HW1  657   2.553   1.057   2.329
 2031SOL    HW2  658   2.651   0.999   2.212
 2034SOL     OW  659   1.926   1.564   3.193
 2034SOL    HW1  660   1.880   1.646   3.159
 2034SOL    HW2  661   2.024   1.583   3.202
 2035SOL     OW  662   2.229   1.100   2.363
 2035SOL    HW1  663   2.222   1.183   2.307
 2035SOL    HW2  664   2.233   1.020   2.303
 2037SOL     OW  665   3.114   1.348   2.250
 2037SOL    HW1  666   3.164   1.425   2.290
 2037SOL    HW2  667   3.019   1.350   2.282
 2038SOL     OW  668   3.134   1.445   3.004
 2038SOL    HW1  669   3.181   1.458   3.091
 2038SOL    HW2  670   3.068   1.371   3.013
 2040SOL     OW  671   2.216   1.510   3.191
 2040SOL    HW1  672   2.195   1.466   3.104
 2040SOL    HW2  673   2.313   1.536   3.194
 2049SOL     OW  674   1.899   1.310   3.144
 2049SOL    HW1  675   1.952   1.261   3.212
 2049SOL    HW2  676   1.921   1.408   3.149
 2055SOL     OW  677   2.842   1.573   3.562
 2055SOL    HW1  678   2.822   1.617   3.474
 2055SOL    HW2  679   2.881   1.482   3.546
 2056SOL     OW  680   3.721   1.518   3.467
 2056SOL    HW1  681   3.735   1.545   3.372
 2056SOL    HW2  682   3.804   1.540   3.520
 2060SOL     OW  683   2.930   1.333   2.711
 2060SOL    HW1  684   2.937   1.249   2.656
 2060SOL    HW2  685   2.992   1.402   2.675
 2065SOL     OW  686   1.870   1.326   2.062
 2065SOL    HW1  687   1.777   1.347   2.031
 2065SOL    HW2  688   1.880   1.227   2.075
 2066SOL     OW  689   1.950   1.801   2.789
 2066SOL    HW1  690   1.908   1.715   2.762
 2066SOL    HW2  691   2.044   1.804   2.755
 2067SOL     OW  692   2.366   1.568   2.772
 2067SOL    HW1  693   2.432   1.642   2.781
 2067SOL    HW2  694   2.410   1.489   2.730
 2074SOL     OW  695   2.114   1.564   3.606
 2074SOL    HW1  696   2.084   1.621   3.682
 2074SOL    HW2  697   2.107   1.467   3.632
 2076SOL     OW  698   2.792   1.678   3.327
 2076SOL    HW1  699   2.768   1.660   3.232
 2076SOL    HW2  700   2.822   1.772   3.337
 2078SOL     OW  701   2.021   1.137   3.328
 2078SOL    HW1  702   2.043   1.076   3.404
 2078SOL    HW2  703   2.031   1.088   3.242
 2079SOL     OW  704   3.209   1.059   3.096
 2079SOL    HW1  705   3.233   0.996   3.022
 2079SOL    HW2  706   3.119   1.099   3.078
 2081SOL     OW  707   3.621   1.747   3.016
 2081SOL    HW1  708   3.682   1.777   2.943
 2081SOL    HW2  709   3.583   1.658   2.994
 2082SOL     OW  710   3.114   1.731   2.990
 2082SOL    HW1  711   3.198   1.736   2.936
 2082SOL    HW2  712   3.091   1.635   3.008
 2083SOL     OW  713   1.945   1.258   2.884
 2083SOL    HW1  714   1.940   1.257   2.984
 2083SOL    HW2  715   1.862   1.217   2.846
 2084SOL     OW  716   2.550   1.662   3.578
 2084SOL    HW1  717   2.494   1.743   3.587
 2084SOL    HW2  718   2.602   1.666   3.492
 2086SOL     OW  719   3.250   1.573   2.339
 2086SOL    HW1  720   3.317   1.585   2.265
 2086SOL    HW2  721   3.210   1.662   2.362
 2087SOL     OW  722   1.992   1.794   3.713
 2087SOL    HW1  723   1.951   1.720   3.766
 2087SOL    HW2  724   2.056   1.845   3.771
 2089SOL     OW  725   2.692   1.273   3.284
 2089SOL    HW1  726   2.687   1.306   3.379
 2089SOL    HW2  727   2.606   1.292   3.238
 2090SOL     OW  728   2.534   1.616   2.016
 2090SOL    HW1  729   2.543   1.626   1.917
 2090SOL    HW2  730   2.494   1.527   2.037
 2091SOL     OW  731   3.512   1.720   3.256
 2091SOL    HW1  732   3.565   1.730   3.172
 2091SOL    HW2  733   3.485   1.810   3.290
 2094SOL     OW  734   3.056   1.612   1.893
 2094SOL    HW1  735   3.062   1.519   1.930
 2094SOL    HW2  736   2.997   1.612   1.813
 2095SOL     OW  737   2.684   1.002   3.234
 2095SOL    HW1  738   2.724   1.001   3.142
 2095SOL    HW2  739   2.694   1.094   3.274
 2097SOL     OW  740   3.366   1.607   1.906
 2097SOL    HW1  741   3.274   1.644   1.913
 2097SOL    HW2  742   3.404   1.627   1.816
 2098SOL     OW  743   2.234   1.288   3.352
 2098SOL    HW1  744   2.221   1.381   3.318
 2098SOL    HW2  745   2.150   1.236   3.339
 2099SOL     OW  746   3.476   1.292   3.151
 2099SOL    HW1  747   3.536   1.295   3.231
 2099SOL    HW2  748   3.401   1.356   3.164
 2100SOL     OW  749   2.901   1.098   2.558
 2100SOL    HW1  750   2.831   1.051   2.612
 2100SOL    HW2  751   2.960   1.030   2.515
 2102SOL     OW  752   2.452   1.487   2.353
 2102SOL    HW1  753   2.494   1.429   2.283
 2102SOL    HW2  754   2.408   1.566   2.309
 2104SOL     OW  755   2.117   1.348   2.152
 2104SOL    HW1  756   2.021   1.349   2.125
 2104SOL    HW2  757   2.129   1.401   2.236
 2110SOL     OW  758   3.045   1.335   1.981
 2110SOL    HW1  759   2.946   1.324   1.983
 2110SOL    HW2  760   3.079   1.350   2.074
 2112SOL     OW  761   3.355   1.767   2.821
 2112SOL    HW1  762   3.388   1.831   2.752
 2112SOL    HW2  763   3.421   1.761   2.896
 2114SOL     OW  764   3.312   1.220   3.495
 2114SOL    HW1  765   3.303   1.210   3.594
 2114SOL    HW2  766   3.408   1.213   3.469
 2115SOL     OW  767   2.252   1.741   3.422
 2115SOL    HW1  768   2.161   1.782   3.420
 2115SOL    HW2  769   2.245   1.647   3.454
 2121SOL     OW  770   2.721   1.374   1.878
 2121SOL    HW1  771   2.675   1.389   1.966
 2121SOL    HW2  772   2.765   1.459   1.848
 2122SOL     OW  773   2.523   1.790   2.815
 2122SOL    HW1  774   2.477   1.878   2.802
 2122SOL    HW2  775   2.622   1.802   2.808
 2123SOL     OW  776   2.721   0.956   2.723
 2123SOL    HW1  777   2.775   0.887   2.771
 2123SOL    HW2  778   2.689   1.025   2.789
 2125SOL     OW  779   3.723   1.569   2.713
 2125SOL    HW1  780   3.652   1.557   2.643
 2125SOL    HW2  781   3.724   1.490   2.773
 2126SOL     OW  782   2.083   1.314   3.706
 2126SOL    HW1  783   2.018   1.241   3.685
 2126SOL    HW2  784   2.087   1.328   3.804
 2127SOL     OW  785   1.941   1.240   2.515
 2127SOL    HW1  786   1.940   1.193   2.603
 2127SOL    HW2  787   2.023   1.212   2.464
 2128SOL     OW  788   2.534   1.391   3.486
 2128SOL    HW1  789   2.456   1.341   3.524
 2128SOL    HW2  790   2.531   1.486   3.517
 2131SOL     OW  791   3.567   1.487   2.966
 2131SOL    HW1  792   3.474   1.462   2.939
 2131SOL    HW2  793   3.593   1.437   3.048
 2133SOL     OW  794   2.674   1.586   2.549
 2133SOL    HW1  795   2.706   1.596   2.455
 2133SOL    HW2  796   2.595   1.524   2.551
 2136SOL     OW  797   2.632   1.330   2.163
 2136SOL    HW1  798   2.586   1.243   2.180
 2136SOL    HW2  799   2.723   1.327   2.204
 2137SOL     OW  800   2.480   1.567   3.146
 2137SOL    HW1  801   2.475   1.649   3.203
 2137SOL    HW2  802   2.569   1.564   3.101
 2142SOL     OW  803   2.737   1.646   2.199
 2142SOL    HW1  804   2.660   1.611   2.145
 2142SOL    HW2  805   2.705   1.717   2.261
 2164SOL     OW  806   1.889   1.596   3.841
 2164SOL    HW1  807   1.870   1.500   3.862
 2164SOL    HW2  808   1.856   1.654   3.916
 2191SOL     OW  809   2.973   1.776   3.961
 2191SOL    HW1  810   2.913   1.714   4.011
 2191SOL    HW2  811   3.004   1.732   3.876
 2194SOL     OW  812   2.326   1.743   4.047
 2194SOL    HW1  813   2.359   1.782   4.133
 2194SOL    HW2  814   2.402   1.736   3.982
 2275SOL     OW  815   2.534   1.616   3.878
 2275SOL    HW1  816   2.543   1.626   3.779
 2275SOL    HW2  817   2.494   1.527   3.899
 2279SOL     OW  818   3.056   1.612   3.755
 2279SOL    HW1  819   3.062   1.519   3.792
 2279SOL    HW2  820   2.997   1.612   3.675
 2282SOL     OW  821   3.366   1.607   3.768
 2282SOL    HW1  822   3.274   1.644   3.775
 2282SOL    HW2  823   3.404   1.627   3.678
 2303SOL     OW  824   2.721   1.374   3.740
 2303SOL    HW1  825   2.675   1.389   3.828
 2303SOL    HW2  826   2.765   1.459   3.710
 2322SOL     OW  827   2.737   1.646   4.061
 2322SOL    HW1  828   2.660   1.611   4.007
 2322SOL    HW2  829   2.705   1.717   4.123
 2326SOL     OW  830   2.431   3.137   1.165
 2326SOL    HW1  831   2.338   3.130   1.128
 2326SOL    HW2  832   2.442   3.226   1.209
 2330SOL     OW  833   2.630   3.006   1.023
 2330SOL    HW1  834   2.552   3.023   1.083
 2330SOL    HW2  835   2.664   3.093   0.987
 2331SOL     OW  836   2.712   2.660   1.823
 2331SOL    HW1  837   2.708   2.736   1.888
 2331SOL    HW2  838   2.734   2.696   1.732
 2333SOL     OW  839   2.548   3.023   1.803
 2333SOL    HW1  840   2.608   3.102   1.817
 2333SOL    HW2  841   2.462   3.054   1.762
 2334SOL     OW  842   2.197   3.297   1.061
 2334SOL    HW1  843   2.119   3.266   1.008
 2334SOL    HW2  844   2.255   3.355   1.004
 2335SOL     OW  845   3.322   3.367   1.339
 2335SOL    HW1  846   3.346   3.461   1.365
 2335SOL    HW2  847   3.306   3.313   1.421
 2336SOL     OW  848   2.300   2.254   1.499
 2336SOL    HW1  849   2.382   2.198   1.508
 2336SOL    HW2  850   2.219   2.196   1.503
 2339SOL     OW  851   2.989   3.203   1.690
 2339SOL    HW1  852   3.036   3.203   1.778
 2339SOL    HW2  853   2.941   3.116   1.679
 2342SOL     OW  854   2.482   3.648   1.439
 2342SOL    HW1  855   2.390   3.631   1.474
 2342SOL    HW2  856   2.510   3.740   1.465
 2344SOL     OW  857   3.456   1.976   1.480
 2344SOL    HW1  858   3.438   2.043   1.408
 2344SOL    HW2  859   3.453   2.022   1.569
 2350SOL     OW  860   1.975   2.599   1.597
 2350SOL    HW1  861   2.063   2.586   1.642
 2350SOL    HW2  862   1.962   2.696   1.575
 2352SOL     OW  863   3.155   3.090   1.423
 2352SOL    HW1  864   3.192   3.017   1.365
 2352SOL    HW2  865   3.207   3.095   1.508
 2354SOL     OW  866   2.059   2.838   1.264
 2354SOL    HW1  867   2.148   2.793   1.250
 2354SOL    HW2  868   1.986   2.773   1.245
 2356SOL     OW  869   3.049   3.654   1.616
 2356SOL    HW1  870   3.073   3.714   1.540
 2356SOL    HW2  871   3.056   3.559   1.586
 2357SOL     OW  872   2.179   2.113   1.801
 2357SOL    HW1  873   2.250   2.184   1.807
 2357SOL    HW2  874   2.091   2.152   1.829
 2363SOL     OW  875   2.669   2.467   1.465
 2363SOL    HW1  876   2.622   2.464   1.554
 2363SOL    HW2  877   2.618   2.412   1.399
 2364SOL     OW  878   3.256   2.331   1.674
 2364SOL    HW1  879   3.236   2.374   1.762
 2364SOL    HW2  880   3.334   2.269   1.683
 2365SOL     OW  881   2.835   2.752   1.572
 2365SOL    HW1  882   2.881   2.668   1.543
 2365SOL    HW2  883   2.779   2.786   1.497
 2366SOL     OW  884   2.853   2.272   1.242
 2366SOL    HW1  885   2.776   2.306   1.296
 2366SOL    HW2  886   2.819   2.221   1.163
 2369SOL     OW  887   1.992   3.683   1.571
 2369SOL    HW1  888   1.982   3.668   1.670
 2369SOL    HW2  889   1.906   3.719   1.535
 2371SOL     OW  890   3.581   2.447   1.831
 2371SOL    HW1  891   3.555   2.536   1.795
 2371SOL    HW2  892   3.579   2.379   1.758
 2377SOL     OW  893   3.089   3.412   1.506
 2377SOL    HW1  894   3.095   3.335   1.570
 2377SOL    HW2  895   3.037   3.386   1.426
 2380SOL     OW  896   2.323   3.128   1.727
 2380SOL    HW1  897   2.273   3.129   1.641
 2380SOL    HW2  898   2.260   3.110   1.803
 2382SOL     OW  899   2.064   2.147   1.498
 2382SOL    HW1  900   1.984   2.207   1.485
 2382SOL    HW2  901   2.054   2.098   1.584
 2389SOL     OW  902   3.409   2.084   1.729
 2389SOL    HW1  903   3.404   2.121   1.821
 2389SOL    HW2  904   3.337   2.015   1.717
 2391SOL     OW  905   2.643   2.126   1.749
 2391SOL    HW1  906   2.710   2.065   1.792
 2391SOL    HW2  907   2.570   2.145   1.814
 2392SOL     OW  908   2.750   3.376   1.195
 2392SOL    HW1  909   2.727   3.351   1.101
 2392SOL    HW2  910   2.811   3.307   1.234
 2393SOL     OW  911   3.213   2.452   1.433
 2393SOL    HW1  912   3.241   2.409   1.518
 2393SOL    HW2  913   3.238   2.548   1.434
 2395SOL     OW  914   2.784   2.365   0.899
 2395SOL    HW1  915   2.759   2.356   0.803
 2395SOL    HW2  916   2.832   2.283   0.930
 2400SOL     OW  917   2.938   2.545   1.464
 2400SOL    HW1  918   2.858   2.484   1.467
 2400SOL    HW2  919   3.019   2.492   1.440
 2405SOL     OW  920   1.940   2.418   1.386
 2405SOL    HW1  921   2.032   2.417   1.345
 2405SOL    HW2  922   1.934   2.492   1.453
 2406SOL     OW  923   2.423   2.084   1.147
 2406SOL    HW1  924   2.461   2.000   1.184
 2406SOL    HW2  925   2.335   2.103   1.191
 2416SOL     OW  926   3.616   3.085   1.588
 2416SOL    HW1  927   3.707   3.046   1.575
 2416SOL    HW2  928   3.624   3.181   1.612
 2417SOL     OW  929   2.926   3.209   1.340
 2417SOL    HW1  930   2.846   3.186   1.395
 2417SOL    HW2  931   3.009   3.183   1.389
 2418SOL     OW  932   3.454   3.491   1.625
 2418SOL    HW1  933   3.481   3.525   1.535
 2418SOL    HW2  934   3.533   3.453   1.671
 2419SOL     OW  935   2.973   3.057   1.100
 2419SOL    HW1  936   2.933   3.101   1.181
 2419SOL    HW2  937   2.932   3.094   1.017
 2421SOL     OW  938   2.777   1.951   1.402
 2421SOL    HW1  939   2.802   1.931   1.307
 2421SOL    HW2  940   2.849   2.007   1.444
 2422SOL     OW  941   2.842   2.978   1.719
 2422SOL    HW1  942   2.743   2.984   1.729
 2422SOL    HW2  943   2.865   2.898   1.663
 2424SOL     OW  944   2.272   2.675   1.251
 2424SOL    HW1  945   2.358   2.687   1.301
 2424SOL    HW2  946   2.230   2.588   1.278
 2425SOL     OW  947   3.136   2.248   1.262
 2425SOL    HW1  948   3.157   2.322   1.326
 2425SOL    HW2  949   3.047   2.265   1.219
 2426SOL     OW  950   1.926   3.426   1.331
 2426SOL    HW1  951   1.880   3.508   1.297
 2426SOL    HW2  952   2.024   3.445   1.340
 2430SOL     OW  953   3.134   3.307   1.142
 2430SOL    HW1  954   3.181   3.320   1.229
 2430SOL    HW2  955   3.068   3.233   1.151
 2432SOL     OW  956   2.216   3.372   1.329
 2432SOL    HW1  957   2.195   3.328   1.242
 2432SOL    HW2  958   2.313   3.398   1.332
 2433SOL     OW  959   2.264   2.613   1.598
 2433SOL    HW1  960   2.332   2.668   1.551
 2433SOL    HW2  961   2.304   2.525   1.625
 2434SOL     OW  962   3.449   2.641   1.670
 2434SOL    HW1  963   3.357   2.679   1.665
 2434SOL    HW2  964   3.509   2.688   1.605
 2435SOL     OW  965   2.875   1.967   1.770
 2435SOL    HW1  966   2.881   2.052   1.718
 2435SOL    HW2  967   2.907   1.891   1.713
 2436SOL     OW  968   2.366   1.912   1.740
 2436SOL    HW1  969   2.324   1.855   1.670
 2436SOL    HW2  970   2.300   1.981   1.772
 2437SOL     OW  971   2.435   2.732   1.029
 2437SOL    HW1  972   2.479   2.821   1.020
 2437SOL    HW2  973   2.372   2.732   1.106
 2438SOL     OW  974   3.222   2.724   1.045
 2438SOL    HW1  975   3.147   2.724   0.979
 2438SOL    HW2  976   3.259   2.632   1.054
 2440SOL     OW  977   2.169   2.075   1.231
 2440SOL    HW1  978   2.146   2.112   1.321
 2440SOL    HW2  979   2.139   1.980   1.225
 2441SOL     OW  980   1.899   3.172   1.282
 2441SOL    HW1  981   1.952   3.123   1.350
 2441SOL    HW2  982   1.921   3.270   1.287
 2442SOL     OW  983   2.594   2.496   1.064
 2442SOL    HW1  984   2.653   2.470   0.988
 2442SOL    HW2  985   2.566   2.592   1.053
 2443SOL     OW  986   3.590   2.797   1.854
 2443SOL    HW1  987   3.544   2.790   1.765
 2443SOL    HW2  988   3.528   2.841   1.920
 2446SOL     OW  989   2.885   2.628   0.966
 2446SOL    HW1  990   2.900   2.649   1.062
 2446SOL    HW2  991   2.855   2.533   0.957
 2447SOL     OW  992   2.842   3.435   1.700
 2447SOL    HW1  993   2.822   3.479   1.612
 2447SOL    HW2  994   2.881   3.344   1.684
 2448SOL     OW  995   3.721   3.380   1.605
 2448SOL    HW1  996   3.735   3.407   1.510
 2448SOL    HW2  997   3.804   3.402   1.658
 2449SOL     OW  998   2.212   2.760   1.804
 2449SOL    HW1  999   2.288   2.804   1.852
 2449SOL    HW2 1000   2.247   2.713   1.722
 2453SOL     OW 1001   2.181   2.672   0.949
 2453SOL    HW1 1002   2.274   2.708   0.954
 2453SOL    HW2 1003   2.175   2.587   1.001
 2454SOL     OW 1004   2.201   2.371   1.006
 2454SOL    HW1 1005   2.149   2.288   0.989
 2454SOL    HW2 1006   2.278   2.376   0.942
 2455SOL     OW 1007   3.000   2.242   1.678
 2455SOL    HW1 1008   2.955   2.305   1.742
 2455SOL    HW2 1009   3.093   2.273   1.661
 2456SOL     OW 1010   3.022   2.069   1.477
 2456SOL    HW1 1011   3.022   2.133   1.554
 2456SOL    HW2 1012   3.050   2.117   1.394
 2460SOL     OW 1013   2.864   2.658   1.238
 2460SOL    HW1 1014   2.905   2.626   1.324
 2460SOL    HW2 1015   2.768   2.631   1.235
 2461SOL     OW 1016   1.902   2.406   1.114
 2461SOL    HW1 1017   1.987   2.373   1.073
 2461SOL    HW2 1018   1.915   2.421   1.212
 2462SOL     OW 1019   2.051   2.382   1.722
 2462SOL    HW1 1020   2.110   2.342   1.652
 2462SOL    HW2 1021   1.993   2.453   1.681
 2463SOL     OW 1022   3.231   2.812   1.660
 2463SOL    HW1 1023   3.270   2.901   1.680
 2463SOL    HW2 1024   3.241   2.792   1.563
 2465SOL     OW 1025   3.519   2.466   1.206
 2465SOL    HW1 1026   3.481   2.397   1.268
 2465SOL    HW2 1027   3.601   2.430   1.162
 2466SOL     OW 1028   2.114   3.426   1.744
 2466SOL    HW1 1029   2.084   3.483   1.820
 2466SOL    HW2 1030   2.107   3.329   1.770
 2467SOL     OW 1031   2.533   2.326   1.269
 2467SOL    HW1 1032   2.499   2.237   1.239
 2467SOL    HW2 1033   2.559   2.380   1.189
 2468SOL     OW 1034   2.792   3.540   1.465
 2468SOL    HW1 1035   2.768   3.522   1.370
 2468SOL    HW2 1036   2.822   3.634   1.475
 2470SOL     OW 1037   2.021   2.999   1.466
 2470SOL    HW1 1038   2.043   2.938   1.542
 2470SOL    HW2 1039   2.031   2.950   1.380
 2471SOL     OW 1040   3.209   2.921   1.234
 2471SOL    HW1 1041   3.233   2.858   1.160
 2471SOL    HW2 1042   3.119   2.961   1.216
 2476SOL     OW 1043   2.550   3.524   1.716
 2476SOL    HW1 1044   2.494   3.605   1.725
 2476SOL    HW2 1045   2.602   3.528   1.630
 2480SOL     OW 1046   1.992   3.656   1.851
 2480SOL    HW1 1047   1.951   3.582   1.904
 2480SOL    HW2 1048   2.056   3.707   1.909
 2482SOL     OW 1049   2.692   3.135   1.422
 2482SOL    HW1 1050   2.687   3.168   1.517
 2482SOL    HW2 1051   2.606   3.154   1.376
 2484SOL     OW 1052   3.512   3.582   1.394
 2484SOL    HW1 1053   3.565   3.592   1.310
 2484SOL    HW2 1054   3.485   3.672   1.428
 2488SOL     OW 1055   2.684   2.864   1.372
 2488SOL    HW1 1056   2.724   2.863   1.280
 2488SOL    HW2 1057   2.694   2.956   1.412
 2491SOL     OW 1058   2.234   3.150   1.490
 2491SOL    HW1 1059   2.221   3.243   1.456
 2491SOL    HW2 1060   2.150   3.098   1.477
 2492SOL     OW 1061   3.476   3.154   1.289
 2492SOL    HW1 1062   3.536   3.157   1.369
 2492SOL    HW2 1063   3.401   3.218   1.302
 2494SOL     OW 1064   2.876   2.098   0.971
 2494SOL    HW1 1065   2.868   2.062   0.878
 2494SOL    HW2 1066   2.874   2.022   1.036
 2496SOL     OW 1067   3.571   2.247   1.381
 2496SOL    HW1 1068   3.644   2.316   1.385
 2496SOL    HW2 1069   3.599   2.172   1.322
 2498SOL     OW 1070   1.967   2.875   1.726
 2498SOL    HW1 1071   1.890   2.842   1.780
 2498SOL    HW2 1072   2.052   2.845   1.768
 2499SOL     OW 1073   2.534   2.065   1.489
 2499SOL    HW1 1074   2.624   2.049   1.449
 2499SOL    HW2 1075   2.542   2.070   1.588
 2500SOL     OW 1076   3.302   2.718   1.398
 2500SOL    HW1 1077   3.245   2.770   1.335
 2500SOL    HW2 1078   3.398   2.730   1.374
 2503SOL     OW 1079   2.475   2.704   1.431
 2503SOL    HW1 1080   2.531   2.785   1.414
 2503SOL    HW2 1081   2.534   2.624   1.434
 2505SOL     OW 1082   2.578   2.427   1.708
 2505SOL    HW1 1083   2.597   2.492   1.782
 2505SOL    HW2 1084   2.638   2.347   1.717
 2506SOL     OW 1085   3.312   3.082   1.633
 2506SOL    HW1 1086   3.303   3.072   1.732
 2506SOL    HW2 1087   3.408   3.075   1.607
 2507SOL     OW 1088   2.252   3.603   1.560
 2507SOL    HW1 1089   2.161   3.644   1.558
 2507SOL    HW2 1090   2.245   3.509   1.592
 2508SOL     OW 1091   3.536   2.745   1.254
 2508SOL    HW1 1092   3.509   2.656   1.217
 2508SOL    HW2 1093   3.537   2.813   1.181
 2511SOL     OW 1094   3.639   2.204   1.642
 2511SOL    HW1 1095   3.622   2.235   1.548
 2511SOL    HW2 1096   3.555   2.167   1.680
 2512SOL     OW 1097   3.592   2.796   1.517
 2512SOL    HW1 1098   3.630   2.887   1.532
 2512SOL    HW2 1099   3.584   2.779   1.418
 2518SOL     OW 1100   2.083   3.176   1.844
 2518SOL    HW1 1101   2.018   3.103   1.823
 2518SOL    HW2 1102   2.087   3.190   1.942
 2520SOL     OW 1103   2.534   3.253   1.624
 2520SOL    HW1 1104   2.456   3.203   1.662
 2520SOL    HW2 1105   2.531   3.348   1.655
 2524SOL     OW 1106   2.179   2.409   1.280
 2524SOL    HW1 1107   2.217   2.350   1.352
 2524SOL    HW2 1108   2.219   2.383   1.192
 2526SOL     OW 1109   3.286   2.076   1.112
 2526SOL    HW1 1110   3.338   2.011   1.167
 2526SOL    HW2 1111   3.237   2.139   1.173
 2527SOL     OW 1112   2.863   1.896   1.154
 2527SOL    HW1 1113   2.800   1.824   1.123
 2527SOL    HW2 1114   2.956   1.860   1.154
 2529SOL     OW 1115   2.480   3.429   1.284
 2529SOL    HW1 1116   2.475   3.511   1.341
 2529SOL    HW2 1117   2.569   3.426   1.239
 2535SOL     OW 1118   2.092   2.490   1.975
 2535SOL    HW1 1119   1.999   2.488   2.012
 2535SOL    HW2 1120   2.093   2.451   1.883
 2536SOL     OW 1121   2.087   2.137   2.858
 2536SOL    HW1 1122   2.122   2.120   2.950
 2536SOL    HW2 1123   1.999   2.092   2.846
 2537SOL     OW 1124   1.881   2.230   2.509
 2537SOL    HW1 1125   1.799   2.273   2.548
 2537SOL    HW2 1126   1.853   2.157   2.446
 2538SOL     OW 1127   2.431   3.137   3.027
 2538SOL    HW1 1128   2.338   3.130   2.990
 2538SOL    HW2 1129   2.442   3.226   3.071
 2539SOL     OW 1130   3.417   3.373   2.565
 2539SOL    HW1 1131   3.360   3.357   2.646
 2539SOL    HW2 1132   3.358   3.383   2.485
 2540SOL     OW 1133   2.997   2.565   2.579
 2540SOL    HW1 1134   3.054   2.643   2.554
 2540SOL    HW2 1135   2.937   2.591   2.655
 2541SOL     OW 1136   3.617   2.469   2.093
 2541SOL    HW1 1137   3.605   2.456   1.994
 2541SOL    HW2 1138   3.587   2.388   2.142
 2542SOL     OW 1139   2.630   3.006   2.885
 2542SOL    HW1 1140   2.552   3.023   2.945
 2542SOL    HW2 1141   2.664   3.093   2.849
 2543SOL     OW 1142   2.712   2.660   3.685
 2543SOL    HW1 1143   2.708   2.736   3.750
 2543SOL    HW2 1144   2.734   2.696   3.594
 2544SOL     OW 1145   2.548   3.023   3.665
 2544SOL    HW1 1146   2.608   3.102   3.679
 2544SOL    HW2 1147   2.462   3.054   3.624
 2545SOL     OW 1148   2.197   3.297   2.923
 2545SOL    HW1 1149   2.119   3.266   2.870
 2545SOL    HW2 1150   2.255   3.355   2.866
 2546SOL     OW 1151   3.322   3.367   3.201
 2546SOL    HW1 1152   3.346   3.461   3.227
 2546SOL    HW2 1153   3.306   3.313   3.283
 2547SOL     OW 1154   2.300   2.254   3.361
 2547SOL    HW1 1155   2.382   2.198   3.370
 2547SOL    HW2 1156   2.219   2.196   3.365
 2548SOL     OW 1157   3.465   2.309   2.599
 2548SOL    HW1 1158   3.391   2.355   2.549
 2548SOL    HW2 1159   3.516   2.377   2.652
 2549SOL     OW 1160   2.093   3.575   2.345
 2549SOL    HW1 1161   2.127   3.652   2.399
 2549SOL    HW2 1162   2.137   3.575   2.255
 2550SOL     OW 1163   2.989   3.203   3.552
 2550SOL    HW1 1164   3.036   3.203   3.640
 2550SOL    HW2 1165   2.941   3.116   3.541
 2551SOL     OW 1166   2.092   3.296   2.400
 2551SOL    HW1 1167   2.066   3.392   2.400
 2551SOL    HW2 1168   2.021   3.242   2.445
 2552SOL     OW 1169   2.102   2.953   2.748
 2552SOL    HW1 1170   2.116   2.869   2.800
 2552SOL    HW2 1171   2.047   3.017   2.803
 2553SOL     OW 1172   2.482   3.648   3.301
 2553SOL    HW1 1173   2.390   3.631   3.336
 2553SOL    HW2 1174   2.510   3.740   3.327
 2554SOL     OW 1175   2.468   2.826   1.985
 2554SOL    HW1 1176   2.475   2.910   1.931
 2554SOL    HW2 1177   2.514   2.839   2.073
 2555SOL     OW 1178   3.456   1.976   3.342
 2555SOL    HW1 1179   3.438   2.043   3.270
 2555SOL    HW2 1180   3.453   2.022   3.431
 2556SOL     OW 1181   1.984   2.505   2.425
 2556SOL    HW1 1182   1.939   2.417   2.442
 2556SOL    HW2 1183   1.983   2.559   2.509
 2557SOL     OW 1184   3.704   3.629   2.221
 2557SOL    HW1 1185   3.758   3.600   2.301
 2557SOL    HW2 1186   3.734   3.719   2.192
 2558SOL     OW 1187   1.889   3.458   1.979
 2558SOL    HW1 1188   1.870   3.362   2.000
 2558SOL    HW2 1189   1.856   3.516   2.054
 2559SOL     OW 1190   3.551   2.784   2.474
 2559SOL    HW1 1191   3.646   2.755   2.482
 2559SOL    HW2 1192   3.543   2.849   2.399
 2560SOL     OW 1193   3.503   2.970   2.294
 2560SOL    HW1 1194   3.589   2.972   2.242
 2560SOL    HW2 1195   3.517   3.017   2.382
 2561SOL     OW 1196   1.975   2.599   3.459
 2561SOL    HW1 1197   2.063   2.586   3.504
 2561SOL    HW2 1198   1.962   2.696   3.437
 2562SOL     OW 1199   2.475   3.227   2.588
 2562SOL    HW1 1200   2.426   3.140   2.597
 2562SOL    HW2 1201   2.452   3.270   2.501
 2563SOL     OW 1202   3.155   3.090   3.285
 2563SOL    HW1 1203   3.192   3.017   3.227
 2563SOL    HW2 1204   3.207   3.095   3.370
 2564SOL     OW 1205   2.671   1.866   2.364
 2564SOL    HW1 1206   2.711   1.957   2.355
 2564SOL    HW2 1207   2.571   1.874   2.370
 2565SOL     OW 1208   2.059   2.838   3.126
 2565SOL    HW1 1209   2.148   2.793   3.112
 2565SOL    HW2 1210   1.986   2.773   3.107
 2566SOL     OW 1211   3.387   2.861   2.052
 2566SOL    HW1 1212   3.324   2.785   2.065
 2566SOL    HW2 1213   3.435   2.879   2.138
 2567SOL     OW 1214   3.049   3.654   3.478
 2567SOL    HW1 1215   3.073   3.714   3.402
 2567SOL    HW2 1216   3.056   3.559   3.448
 2568SOL     OW 1217   2.179   2.113   3.663
 2568SOL    HW1 1218   2.250   2.184   3.669
 2568SOL    HW2 1219   2.091   2.152   3.691
 2569SOL     OW 1220   3.328   3.279   2.815
 2569SOL    HW1 1221   3.269   3.285   2.895
 2569SOL    HW2 1222   3.313   3.191   2.769
 2570SOL     OW 1223   3.529   3.576   2.434
 2570SOL    HW1 1224   3.488   3.553   2.346
 2570SOL    HW2 1225   3.511   3.502   2.499
 2571SOL     OW 1226   2.460   2.591   2.132
 2571SOL    HW1 1227   2.484   2.660   2.064
 2571SOL    HW2 1228   2.382   2.624   2.186
 2572SOL     OW 1229   3.143   2.207   2.806
 2572SOL    HW1 1230   3.057   2.157   2.793
 2572SOL    HW2 1231   3.205   2.153   2.862
 2573SOL     OW 1232   3.438   3.524   2.169
 2573SOL    HW1 1233   3.527   3.570   2.172
 2573SOL    HW2 1234   3.417   3.500   2.074
 2574SOL     OW 1235   2.669   2.467   3.327
 2574SOL    HW1 1236   2.622   2.464   3.416
 2574SOL    HW2 1237   2.618   2.412   3.261
 2575SOL     OW 1238   3.256   2.331   3.536
 2575SOL    HW1 1239   3.236   2.374   3.624
 2575SOL    HW2 1240   3.334   2.269   3.545
 2576SOL     OW 1241   2.835   2.752   3.434
 2576SOL    HW1 1242   2.881   2.668   3.405
 2576SOL    HW2 1243   2.779   2.786   3.359
 2577SOL     OW 1244   2.853   2.272   3.104
 2577SOL    HW1 1245   2.776   2.306   3.158
 2577SOL    HW2 1246   2.819   2.221   3.025
 2578SOL     OW 1247   2.903   2.563   2.291
 2578SOL    HW1 1248   2.929   2.559   2.387
 2578SOL    HW2 1249   2.818   2.512   2.277
 2579SOL     OW 1250   1.938   2.673   2.651
 2579SOL    HW1 1251   2.037   2.661   2.660
 2579SOL    HW2 1252   1.914   2.768   2.672
 2580SOL     OW 1253   1.992   3.683   3.433
 2580SOL    HW1 1254   1.982   3.668   3.532
 2580SOL    HW2 1255   1.906   3.719   3.397
 2581SOL     OW 1256   2.727   2.210   2.057
 2581SOL    HW1 1257   2.786   2.273   2.008
 2581SOL    HW2 1258   2.746   2.116   2.028
 2582SOL     OW 1259   3.581   2.447   3.693
 2582SOL    HW1 1260   3.555   2.536   3.657
 2582SOL    HW2 1261   3.579   2.379   3.620
 2583SOL     OW 1262   3.224   3.006   2.407
 2583SOL    HW1 1263   3.307   2.977   2.359
 2583SOL    HW2 1264   3.175   3.073   2.351
 2584SOL     OW 1265   2.870   3.318   2.339
 2584SOL    HW1 1266   2.824   3.390   2.287
 2584SOL    HW2 1267   2.866   3.338   2.437
 2585SOL     OW 1268   2.213   3.663   2.715
 2585SOL    HW1 1269   2.263   3.577   2.721
 2585SOL    HW2 1270   2.278   3.740   2.712
 2586SOL     OW 1271   3.657   2.928   2.735
 2586SOL    HW1 1272   3.595   2.913   2.659
 2586SOL    HW2 1273   3.605   2.939   2.820
 2587SOL     OW 1274   3.089   3.412   3.368
 2587SOL    HW1 1275   3.095   3.335   3.432
 2587SOL    HW2 1276   3.037   3.386   3.288
 2588SOL     OW 1277   2.183   2.805   2.104
 2588SOL    HW1 1278   2.265   2.844   2.062
 2588SOL    HW2 1279   2.156   2.723   2.055
 2589SOL     OW 1280   3.320   2.597   2.590
 2589SOL    HW1 1281   3.315   2.532   2.665
 2589SOL    HW2 1282   3.400   2.656   2.603
 2590SOL     OW 1283   2.323   3.128   3.589
 2590SOL    HW1 1284   2.273   3.129   3.503
 2590SOL    HW2 1285   2.260   3.110   3.665
 2591SOL     OW 1286   2.973   3.638   2.099
 2591SOL    HW1 1287   2.913   3.576   2.149
 2591SOL    HW2 1288   3.004   3.594   2.014
 2592SOL     OW 1289   2.064   2.147   3.360
 2592SOL    HW1 1290   1.984   2.207   3.347
 2592SOL    HW2 1291   2.054   2.098   3.446
 2593SOL     OW 1292   3.494   3.239   1.943
 2593SOL    HW1 1293   3.462   3.333   1.933
 2593SOL    HW2 1294   3.418   3.176   1.931
 2594SOL     OW 1295   2.326   3.605   2.185
 2594SOL    HW1 1296   2.359   3.644   2.271
 2594SOL    HW2 1297   2.402   3.598   2.120
 2595SOL     OW 1298   3.262   1.969   2.288
 2595SOL    HW1 1299   3.238   1.932   2.198
 2595SOL    HW2 1300   3.361   1.985   2.292
 2596SOL     OW 1301   2.111   3.647   3.103
 2596SOL    HW1 1302   2.168   3.582   3.153
 2596SOL    HW2 1303   2.095   3.614   3.010
 2597SOL     OW 1304   2.802   3.560   2.766
 2597SOL    HW1 1305   2.882   3.503   2.787
 2597SOL    HW2 1306   2.753   3.520   2.689
 2598SOL     OW 1307   2.244   2.562   2.342
 2598SOL    HW1 1308   2.289   2.472   2.339
 2598SOL    HW2 1309   2.150   2.551   2.375
 2599SOL     OW 1310   3.409   2.084   3.591
 2599SOL    HW1 1311   3.404   2.121   3.683
 2599SOL    HW2 1312   3.337   2.015   3.579
 2600SOL     OW 1313   2.476   1.984   1.979
 2600SOL    HW1 1314   2.574   1.962   1.986
 2600SOL    HW2 1315   2.445   1.967   1.886
 2601SOL     OW 1316   2.643   2.126   3.611
 2601SOL    HW1 1317   2.710   2.065   3.654
 2601SOL    HW2 1318   2.570   2.145   3.676
 2602SOL     OW 1319   2.750   3.376   3.057
 2602SOL    HW1 1320   2.727   3.351   2.963
 2602SOL    HW2 1321   2.811   3.307   3.096
 2603SOL     OW 1322   3.213   2.452   3.295
 2603SOL    HW1 1323   3.241   2.409   3.380
 2603SOL    HW2 1324   3.238   2.548   3.296
 2604SOL     OW 1325   2.665   3.264   2.786
 2604SOL    HW1 1326   2.755   3.278   2.744
 2604SOL    HW2 1327   2.594   3.266   2.715
 2605SOL     OW 1328   2.784   2.365   2.761
 2605SOL    HW1 1329   2.759   2.356   2.665
 2605SOL    HW2 1330   2.832   2.283   2.792
 2606SOL     OW 1331   2.401   1.926   2.374
 2606SOL    HW1 1332   2.320   1.927   2.432
 2606SOL    HW2 1333   2.404   2.009   2.319
 2607SOL     OW 1334   3.296   3.050   1.903
 2607SOL    HW1 1335   3.328   2.974   1.960
 2607SOL    HW2 1336   3.204   3.077   1.933
 2608SOL     OW 1337   2.159   1.897   2.033
 2608SOL    HW1 1338   2.208   1.981   2.012
 2608SOL    HW2 1339   2.221   1.832   2.078
 2609SOL     OW 1340   2.797   2.098   2.342
 2609SOL    HW1 1341   2.749   2.139   2.264
 2609SOL    HW2 1342   2.896   2.096   2.323
 2610SOL     OW 1343   2.938   2.545   3.326
 2610SOL    HW1 1344   2.858   2.484   3.329
 2610SOL    HW2 1345   3.019   2.492   3.302
 2611SOL     OW 1346   3.089   3.432   2.655
 2611SOL    HW1 1347   3.110   3.506   2.590
 2611SOL    HW2 1348   3.157   3.432   2.728
 2612SOL     OW 1349   2.321   3.014   2.603
 2612SOL    HW1 1350   2.250   2.987   2.668
 2612SOL    HW2 1351   2.295   2.986   2.510
 2613SOL     OW 1352   3.133   3.659   2.453
 2613SOL    HW1 1353   3.177   3.723   2.389
 2613SOL    HW2 1354   3.083   3.711   2.523
 2614SOL     OW 1355   2.894   2.411   1.878
 2614SOL    HW1 1356   2.853   2.493   1.839
 2614SOL    HW2 1357   2.958   2.437   1.951
 2615SOL     OW 1358   1.940   2.418   3.248
 2615SOL    HW1 1359   2.032   2.417   3.207
 2615SOL    HW2 1360   1.934   2.492   3.315
 2616SOL     OW 1361   2.728   2.316   2.504
 2616SOL    HW1 1362   2.696   2.388   2.442
 2616SOL    HW2 1363   2.752   2.235   2.451
 2617SOL     OW 1364   2.879   1.901   2.615
 2617SOL    HW1 1365   2.807   1.906   2.546
 2617SOL    HW2 1366   2.855   1.832   2.684
 2618SOL     OW 1367   3.291   3.035   2.729
 2618SOL    HW1 1368   3.236   2.951   2.722
 2618SOL    HW2 1369   3.317   3.064   2.637
 2619SOL     OW 1370   3.328   2.452   2.854
 2619SOL    HW1 1371   3.298   2.357   2.861
 2619SOL    HW2 1372   3.401   2.468   2.920
 2620SOL     OW 1373   3.719   2.695   2.239
 2620SOL    HW1 1374   3.761   2.631   2.303
 2620SOL    HW2 1375   3.681   2.644   2.161
 2621SOL     OW 1376   2.350   3.247   2.036
 2621SOL    HW1 1377   2.263   3.232   2.083
 2621SOL    HW2 1378   2.333   3.273   1.941
 2622SOL     OW 1379   3.526   3.142   2.519
 2622SOL    HW1 1380   3.625   3.150   2.533
 2622SOL    HW2 1381   3.481   3.226   2.550
 2623SOL     OW 1382   3.252   2.437   1.940
 2623SOL    HW1 1383   3.198   2.416   2.021
 2623SOL    HW2 1384   3.343   2.396   1.949
 2624SOL     OW 1385   2.389   2.118   2.190
 2624SOL    HW1 1386   2.416   2.059   2.115
 2624SOL    HW2 1387   2.389   2.213   2.159
 2625SOL     OW 1388   3.616   3.085   3.450
 2625SOL    HW1 1389   3.707   3.046   3.437
 2625SOL    HW2 1390   3.624   3.181   3.474
 2626SOL     OW 1391   2.926   3.209   3.202
 2626SOL    HW1 1392   2.846   3.186   3.257
 2626SOL    HW2 1393   3.009   3.183   3.251
 2627SOL     OW 1394   3.454   3.491   3.487
 2627SOL    HW1 1395   3.481   3.525   3.397
 2627SOL    HW2 1396   3.533   3.453   3.533
 2628SOL     OW 1397   2.973   3.057   2.962
 2628SOL    HW1 1398   2.933   3.101   3.043
 2628SOL    HW2 1399   2.932   3.094   2.879
 2629SOL     OW 1400   3.500   2.961   2.941
 2629SOL    HW1 1401   3.505   3.042   3.000
 2629SOL    HW2 1402   3.414   2.963   2.890
 2630SOL     OW 1403   2.777   1.951   3.264
 2630SOL    HW1 1404   2.802   1.931   3.169
 2630SOL    HW2 1405   2.849   2.007   3.306
 2631SOL     OW 1406   2.842   2.978   3.581
 2631SOL    HW1 1407   2.743   2.984   3.591
 2631SOL    HW2 1408   2.865   2.898   3.525
 2632SOL     OW 1409   2.567   2.912   2.230
 2632SOL    HW1 1410   2.553   2.919   2.329
 2632SOL    HW2 1411   2.651   2.861   2.212
 2633SOL     OW 1412   2.272   2.675   3.113
 2633SOL    HW1 1413   2.358   2.687   3.163
 2633SOL    HW2 1414   2.230   2.588   3.140
 2634SOL     OW 1415   3.136   2.248   3.124
 2634SOL    HW1 1416   3.157   2.322   3.188
 2634SOL    HW2 1417   3.047   2.265   3.081
 2635SOL     OW 1418   1.926   3.426   3.193
 2635SOL    HW1 1419   1.880   3.508   3.159
 2635SOL    HW2 1420   2.024   3.445   3.202
 2636SOL     OW 1421   2.229   2.962   2.363
 2636SOL    HW1 1422   2.222   3.045   2.307
 2636SOL    HW2 1423   2.233   2.882   2.303
 2637SOL     OW 1424   3.134   3.307   3.004
 2637SOL    HW1 1425   3.181   3.320   3.091
 2637SOL    HW2 1426   3.068   3.233   3.013
 2638SOL     OW 1427   3.444   2.501   2.334
 2638SOL    HW1 1428   3.413   2.562   2.407
 2638SOL    HW2 1429   3.494   2.553   2.265
 2639SOL     OW 1430   2.216   3.372   3.191
 2639SOL    HW1 1431   2.195   3.328   3.104
 2639SOL    HW2 1432   2.313   3.398   3.194
 2640SOL     OW 1433   2.264   2.613   3.460
 2640SOL    HW1 1434   2.332   2.668   3.413
 2640SOL    HW2 1435   2.304   2.525   3.487
 2641SOL     OW 1436   3.449   2.641   3.532
 2641SOL    HW1 1437   3.357   2.679   3.527
 2641SOL    HW2 1438   3.509   2.688   3.467
 2642SOL     OW 1439   2.875   1.967   3.632
 2642SOL    HW1 1440   2.881   2.052   3.580
 2642SOL    HW2 1441   2.907   1.891   3.575
 2643SOL     OW 1442   2.366   1.912   3.602
 2643SOL    HW1 1443   2.324   1.855   3.532
 2643SOL    HW2 1444   2.300   1.981   3.634
 2644SOL     OW 1445   2.435   2.732   2.891
 2644SOL    HW1 1446   2.479   2.821   2.882
 2644SOL    HW2 1447   2.372   2.732   2.968
 2645SOL     OW 1448   3.222   2.724   2.907
 2645SOL    HW1 1449   3.147   2.724   2.841
 2645SOL    HW2 1450   3.259   2.632   2.916
 2646SOL     OW 1451   3.071   2.387   2.137
 2646SOL    HW1 1452   3.084   2.303   2.191
 2646SOL    HW2 1453   3.042   2.461   2.197
 2647SOL     OW 1454   2.169   2.075   3.093
 2647SOL    HW1 1455   2.146   2.112   3.183
 2647SOL    HW2 1456   2.139   1.980   3.087
 2648SOL     OW 1457   1.899   3.172   3.144
 2648SOL    HW1 1458   1.952   3.123   3.212
 2648SOL    HW2 1459   1.921   3.270   3.149
 2649SOL     OW 1460   3.590   2.797   3.716
 2649SOL    HW1 1461   3.544   2.790   3.627
 2649SOL    HW2 1462   3.528   2.841   3.782
 2650SOL     OW 1463   2.169   1.925   2.480
 2650SOL    HW1 1464   2.158   2.019   2.513
 2650SOL    HW2 1465   2.164   1.862   2.557
 2651SOL     OW 1466   3.484   2.229   2.236
 2651SOL    HW1 1467   3.486   2.153   2.300
 2651SOL    HW2 1468   3.436   2.306   2.276
 2652SOL     OW 1469   2.842   3.435   3.562
 2652SOL    HW1 1470   2.822   3.479   3.474
 2652SOL    HW2 1471   2.881   3.344   3.546
 2653SOL     OW 1472   3.721   3.380   3.467
 2653SOL    HW1 1473   3.735   3.407   3.372
 2653SOL    HW2 1474   3.804   3.402   3.520
 2654SOL     OW 1475   2.212   2.760   3.666
 2654SOL    HW1 1476   2.288   2.804   3.714
 2654SOL    HW2 1477   2.247   2.713   3.584
 2655SOL     OW 1478   3.402   2.136   1.987
 2655SOL    HW1 1479   3.341   2.061   2.010
 2655SOL    HW2 1480   3.424   2.188   2.070
 2656SOL     OW 1481   3.165   2.700   1.904
 2656SOL    HW1 1482   3.199   2.607   1.919
 2656SOL    HW2 1483   3.183   2.727   1.809
 2657SOL     OW 1484   2.181   2.672   2.811
 2657SOL    HW1 1485   2.274   2.708   2.816
 2657SOL    HW2 1486   2.175   2.587   2.863
 2658SOL     OW 1487   3.000   2.242   3.540
 2658SOL    HW1 1488   2.955   2.305   3.604
 2658SOL    HW2 1489   3.093   2.273   3.523
 2659SOL     OW 1490   3.022   2.069   3.339
 2659SOL    HW1 1491   3.022   2.133   3.416
 2659SOL    HW2 1492   3.050   2.117   3.256
 2660SOL     OW 1493   1.870   3.188   2.062
 2660SOL    HW1 1494   1.777   3.209   2.031
 2660SOL    HW2 1495   1.880   3.089   2.075
 2661SOL     OW 1496   1.950   3.663   2.789
 2661SOL    HW1 1497   1.908   3.577   2.762
 2661SOL    HW2 1498   2.044   3.666   2.755
 2662SOL     OW 1499   2.366   3.430   2.772
 2662SOL    HW1 1500   2.432   3.504   2.781
 2662SOL    HW2 1501   2.410   3.351   2.730
 2663SOL     OW 1502   2.864   2.658   3.100
 2663SOL    HW1 1503   2.905   2.626   3.186
 2663SOL    HW2 1504   2.768   2.631   3.097
 2664SOL     OW 1505   1.902   2.406   2.976
 2664SOL    HW1 1506   1.987   2.373   2.935
 2664SOL    HW2 1507   1.915   2.421   3.074
 2665SOL     OW 1508   2.051   2.382   3.584
 2665SOL    HW1 1509   2.110   2.342   3.514
 2665SOL    HW2 1510   1.993   2.453   3.543
 2666SOL     OW 1511   3.231   2.812   3.522
 2666SOL    HW1 1512   3.270   2.901   3.542
 2666SOL    HW2 1513   3.241   2.792   3.425
 2667SOL     OW 1514   2.677   2.434   2.187
 2667SOL    HW1 1515   2.684   2.345   2.141
 2667SOL    HW2 1516   2.583   2.468   2.179
 2668SOL     OW 1517   3.519   2.466   3.068
 2668SOL    HW1 1518   3.481   2.397   3.130
 2668SOL    HW2 1519   3.601   2.430   3.024
 2669SOL     OW 1520   2.114   3.426   3.606
 2669SOL    HW1 1521   2.084   3.483   3.682
 2669SOL    HW2 1522   2.107   3.329   3.632
 2670SOL     OW 1523   2.792   3.540   3.327
 2670SOL    HW1 1524   2.768   3.522   3.232
 2670SOL    HW2 1525   2.822   3.634   3.337
 2671SOL     OW 1526   2.335   2.362   2.053
 2671SOL    HW1 1527   2.396   2.442   2.057
 2671SOL    HW2 1528   2.240   2.393   2.060
 2672SOL     OW 1529   2.021   2.999   3.328
 2672SOL    HW1 1530   2.043   2.938   3.404
 2672SOL    HW2 1531   2.031   2.950   3.242
 2673SOL     OW 1532   3.209   2.921   3.096
 2673SOL    HW1 1533   3.233   2.858   3.022
 2673SOL    HW2 1534   3.119   2.961   3.078
 2674SOL     OW 1535   3.164   2.717   2.171
 2674SOL    HW1 1536   3.078   2.686   2.213
 2674SOL    HW2 1537   3.160   2.703   2.072
 2675SOL     OW 1538   3.621   3.609   3.016
 2675SOL    HW1 1539   3.682   3.639   2.943
 2675SOL    HW2 1540   3.583   3.520   2.994
 2676SOL     OW 1541   3.114   3.593   2.990
 2676SOL    HW1 1542   3.198   3.598   2.936
 2676SOL    HW2 1543   3.091   3.497   3.008
 2677SOL     OW 1544   1.945   3.120   2.884
 2677SOL    HW1 1545   1.940   3.119   2.984
 2677SOL    HW2 1546   1.862   3.079   2.846
 2678SOL     OW 1547   2.550   3.524   3.578
 2678SOL    HW1 1548   2.494   3.605   3.587
 2678SOL    HW2 1549   2.602   3.528   3.492
 2679SOL     OW 1550   3.588   1.997   2.385
 2679SOL    HW1 1551   3.661   1.980   2.318
 2679SOL    HW2 1552   3.557   1.910   2.423
 2680SOL     OW 1553   3.250   3.435   2.339
 2680SOL    HW1 1554   3.317   3.447   2.265
 2680SOL    HW2 1555   3.210   3.524   2.362
 2681SOL     OW 1556   1.992   3.656   3.713
 2681SOL    HW1 1557   1.951   3.582   3.766
 2681SOL    HW2 1558   2.056   3.707   3.771
 2682SOL     OW 1559   3.142   2.789   2.534
 2682SOL    HW1 1560   3.202   2.708   2.536
 2682SOL    HW2 1561   3.182   2.858   2.474
 2683SOL     OW 1562   2.692   3.135   3.284
 2683SOL    HW1 1563   2.687   3.168   3.379
 2683SOL    HW2 1564   2.606   3.154   3.238
 2684SOL     OW 1565   2.534   3.478   2.016
 2684SOL    HW1 1566   2.543   3.488   1.917
 2684SOL    HW2 1567   2.494   3.389   2.037
 2685SOL     OW 1568   3.512   3.582   3.256
 2685SOL    HW1 1569   3.565   3.592   3.172
 2685SOL    HW2 1570   3.485   3.672   3.290
 2686SOL     OW 1571   3.703   2.037   2.825
 2686SOL    HW1 1572   3.742   1.952   2.789
 2686SOL    HW2 1573   3.605   2.039   2.806
 2687SOL     OW 1574   2.125   2.188   2.582
 2687SOL    HW1 1575   2.046   2.239   2.548
 2687SOL    HW2 1576   2.116   2.173   2.680
 2688SOL     OW 1577   3.056   3.474   1.893
 2688SOL    HW1 1578   3.062   3.381   1.930
 2688SOL    HW2 1579   2.997   3.474   1.813
 2689SOL     OW 1580   2.684   2.864   3.234
 2689SOL    HW1 1581   2.724   2.863   3.142
 2689SOL    HW2 1582   2.694   2.956   3.274
 2690SOL     OW 1583   2.778   2.772   2.153
 2690SOL    HW1 1584   2.841   2.810   2.085
 2690SOL    HW2 1585   2.818   2.689   2.192
 2691SOL     OW 1586   3.366   3.469   1.906
 2691SOL    HW1 1587   3.274   3.506   1.913
 2691SOL    HW2 1588   3.404   3.489   1.816
 2692SOL     OW 1589   2.234   3.150   3.352
 2692SOL    HW1 1590   2.221   3.243   3.318
 2692SOL    HW2 1591   2.150   3.098   3.339
 2693SOL     OW 1592   3.476   3.154   3.151
 2693SOL    HW1 1593   3.536   3.157   3.231
 2693SOL    HW2 1594   3.401   3.218   3.164
 2694SOL     OW 1595   2.876   2.098   2.833
 2694SOL    HW1 1596   2.868   2.062   2.740
 2694SOL    HW2 1597   2.874   2.022   2.898
 2695SOL     OW 1598   2.452   3.349   2.353
 2695SOL    HW1 1599   2.494   3.291   2.283
 2695SOL    HW2 1600   2.408   3.428   2.309
 2696SOL     OW 1601   3.571   2.247   3.243
 2696SOL    HW1 1602   3.644   2.316   3.247
 2696SOL    HW2 1603   3.599   2.172   3.184
 2697SOL     OW 1604   2.117   3.210   2.152
 2697SOL    HW1 1605   2.021   3.211   2.125
 2697SOL    HW2 1606   2.129   3.263   2.236
 2698SOL     OW 1607   1.967   2.875   3.588
 2698SOL    HW1 1608   1.890   2.842   3.642
 2698SOL    HW2 1609   2.052   2.845   3.630
 2699SOL     OW 1610   2.534   2.065   3.351
 2699SOL    HW1 1611   2.624   2.049   3.311
 2699SOL    HW2 1612   2.542   2.070   3.450
 2700SOL     OW 1613   1.937   2.207   1.895
 2700SOL    HW1 1614   1.845   2.179   1.866
 2700SOL    HW2 1615   1.968   2.284   1.839
 2701SOL     OW 1616   3.302   2.718   3.260
 2701SOL    HW1 1617   3.245   2.770   3.197
 2701SOL    HW2 1618   3.398   2.730   3.236
 2702SOL     OW 1619   1.934   2.028   2.180
 2702SOL    HW1 1620   1.917   2.111   2.126
 2702SOL    HW2 1621   2.024   1.991   2.158
 2703SOL     OW 1622   3.045   3.197   1.981
 2703SOL    HW1 1623   2.946   3.186   1.983
 2703SOL    HW2 1624   3.079   3.212   2.074
 2704SOL     OW 1625   2.475   2.704   3.293
 2704SOL    HW1 1626   2.531   2.785   3.276
 2704SOL    HW2 1627   2.534   2.624   3.296
 2705SOL     OW 1628   3.355   3.629   2.821
 2705SOL    HW1 1629   3.388   3.693   2.752
 2705SOL    HW2 1630   3.421   3.623   2.896
 2706SOL     OW 1631   2.578   2.427   3.570
 2706SOL    HW1 1632   2.597   2.492   3.644
 2706SOL    HW2 1633   2.638   2.347   3.579
 2707SOL     OW 1634   3.312   3.082   3.495
 2707SOL    HW1 1635   3.303   3.072   3.594
 2707SOL    HW2 1636   3.408   3.075   3.469
 2708SOL     OW 1637   2.252   3.603   3.422
 2708SOL    HW1 1638   2.161   3.644   3.420
 2708SOL    HW2 1639   2.245   3.509   3.454
 2709SOL     OW 1640   3.536   2.745   3.116
 2709SOL    HW1 1641   3.509   2.656   3.079
 2709SOL    HW2 1642   3.537   2.813   3.043
 2710SOL     OW 1643   3.087   2.187   2.311
 2710SOL    HW1 1644   3.152   2.113   2.300
 2710SOL    HW2 1645   3.107   2.237   2.395
 2711SOL     OW 1646   3.639   2.204   3.504
 2711SOL    HW1 1647   3.622   2.235   3.410
 2711SOL    HW2 1648   3.555   2.167   3.542
 2712SOL     OW 1649   3.592   2.796   3.379
 2712SOL    HW1 1650   3.630   2.887   3.394
 2712SOL    HW2 1651   3.584   2.779   3.280
 2713SOL     OW 1652   2.721   3.236   1.878
 2713SOL    HW1 1653   2.675   3.251   1.966
 2713SOL    HW2 1654   2.765   3.321   1.848
 2714SOL     OW 1655   2.523   3.652   2.815
 2714SOL    HW1 1656   2.477   3.740   2.802
 2714SOL    HW2 1657   2.622   3.664   2.808
 2715SOL     OW 1658   2.945   2.846   1.949
 2715SOL    HW1 1659   2.922   2.899   1.867
 2715SOL    HW2 1660   3.026   2.790   1.930
 2716SOL     OW 1661   3.723   3.431   2.713
 2716SOL    HW1 1662   3.652   3.419   2.643
 2716SOL    HW2 1663   3.724   3.352   2.773
 2717SOL     OW 1664   2.083   3.176   3.706
 2717SOL    HW1 1665   2.018   3.103   3.685
 2717SOL    HW2 1666   2.087   3.190   3.804
 2718SOL     OW 1667   1.941   3.102   2.515
 2718SOL    HW1 1668   1.940   3.055   2.603
 2718SOL    HW2 1669   2.023   3.074   2.464
 2719SOL     OW 1670   2.534   3.253   3.486
 2719SOL    HW1 1671   2.456   3.203   3.524
 2719SOL    HW2 1672   2.531   3.348   3.517
 2720SOL     OW 1673   3.686   2.054   3.089
 2720SOL    HW1 1674   3.682   1.964   3.133
 2720SOL    HW2 1675   3.689   2.043   2.990
 2721SOL     OW 1676   2.290   2.286   2.382
 2721SOL    HW1 1677   2.320   2.214   2.320
 2721SOL    HW2 1678   2.251   2.246   2.465
 2722SOL     OW 1679   3.567   3.349   2.966
 2722SOL    HW1 1680   3.474   3.324   2.939
 2722SOL    HW2 1681   3.593   3.299   3.048
 2723SOL     OW 1682   2.179   2.409   3.142
 2723SOL    HW1 1683   2.217   2.350   3.214
 2723SOL    HW2 1684   2.219   2.383   3.054
 2724SOL     OW 1685   2.674   3.448   2.549
 2724SOL    HW1 1686   2.706   3.458   2.455
 2724SOL    HW2 1687   2.595   3.386   2.551
 2725SOL     OW 1688   3.286   2.076   2.974
 2725SOL    HW1 1689   3.338   2.011   3.029
 2725SOL    HW2 1690   3.237   2.139   3.035
 2726SOL     OW 1691   2.863   1.896   3.016
 2726SOL    HW1 1692   2.800   1.824   2.985
 2726SOL    HW2 1693   2.956   1.860   3.016
 2727SOL     OW 1694   2.632   3.192   2.163
 2727SOL    HW1 1695   2.586   3.105   2.180
 2727SOL    HW2 1696   2.723   3.189   2.204
 2728SOL     OW 1697   2.480   3.429   3.146
 2728SOL    HW1 1698   2.475   3.511   3.203
 2728SOL    HW2 1699   2.569   3.426   3.101
 2729SOL     OW 1700   3.214   1.914   2.030
 2729SOL    HW1 1701   3.249   1.873   1.946
 2729SOL    HW2 1702   3.124   1.876   2.050
 2730SOL     OW 1703   3.162   2.315   2.553
 2730SOL    HW1 1704   3.103   2.395   2.557
 2730SOL    HW2 1705   3.177   2.280   2.646
 2731SOL     OW 1706   3.455   2.083   2.744
 2731SOL    HW1 1707   3.371   2.082   2.798
 2731SOL    HW2 1708   3.457   2.166   2.688
 2732SOL     OW 1709   1.901   2.939   2.162
 2732SOL    HW1 1710   2.000   2.928   2.153
 2732SOL    HW2 1711   1.861   2.853   2.194
 2733SOL     OW 1712   2.737   3.508   2.199
 2733SOL    HW1 1713   2.660   3.473   2.145
 2733SOL    HW2 1714   2.705   3.579   2.261
 2734SOL     OW 1715   2.092   2.490   3.837
 2734SOL    HW1 1716   1.999   2.488   3.874
 2734SOL    HW2 1717   2.093   2.451   3.745
 2740SOL     OW 1718   3.617   2.469   3.955
 2740SOL    HW1 1719   3.605   2.456   3.856
 2740SOL    HW2 1720   3.587   2.388   4.004
 2742SOL     OW 1721   2.547   2.874   4.389
 2742SOL    HW1 1722   2.616   2.858   4.459
 2742SOL    HW2 1723   2.474   2.931   4.427
 2751SOL     OW 1724   2.468   2.826   3.847
 2751SOL    HW1 1725   2.475   2.910   3.793
 2751SOL    HW2 1726   2.514   2.839   3.935
 2753SOL     OW 1727   1.984   2.505   4.287
 2753SOL    HW1 1728   1.939   2.417   4.304
 2753SOL    HW2 1729   1.983   2.559   4.371
 2755SOL     OW 1730   1.889   3.458   3.841
 2755SOL    HW1 1731   1.870   3.362   3.862
 2755SOL    HW2 1732   1.856   3.516   3.916
 2757SOL     OW 1733   3.503   2.970   4.156
 2757SOL    HW1 1734   3.589   2.972   4.104
 2757SOL    HW2 1735   3.517   3.017   4.244
 2760SOL     OW 1736   2.671   1.866   4.226
 2760SOL    HW1 1737   2.711   1.957   4.217
 2760SOL    HW2 1738   2.571   1.874   4.232
 2762SOL     OW 1739   3.387   2.861   3.914
 2762SOL    HW1 1740   3.324   2.785   3.927
 2762SOL    HW2 1741   3.435   2.879   4.000
 2765SOL     OW 1742   2.460   2.591   3.994
 2765SOL    HW1 1743   2.484   2.660   3.926
 2765SOL    HW2 1744   2.382   2.624   4.048
 2771SOL     OW 1745   2.903   2.563   4.153
 2771SOL    HW1 1746   2.929   2.559   4.249
 2771SOL    HW2 1747   2.818   2.512   4.139
 2774SOL     OW 1748   2.727   2.210   3.919
 2774SOL    HW1 1749   2.786   2.273   3.870
 2774SOL    HW2 1750   2.746   2.116   3.890
 2775SOL     OW 1751   3.224   3.006   4.269
 2775SOL    HW1 1752   3.307   2.977   4.221
 2775SOL    HW2 1753   3.175   3.073   4.213
 2777SOL     OW 1754   2.870   3.318   4.201
 2777SOL    HW1 1755   2.824   3.390   4.149
 2777SOL    HW2 1756   2.866   3.338   4.299
 2780SOL     OW 1757   2.183   2.805   3.966
 2780SOL    HW1 1758   2.265   2.844   3.924
 2780SOL    HW2 1759   2.156   2.723   3.917
 2782SOL     OW 1760   2.973   3.638   3.961
 2782SOL    HW1 1761   2.913   3.576   4.011
 2782SOL    HW2 1762   3.004   3.594   3.876
 2784SOL     OW 1763   3.494   3.239   3.805
 2784SOL    HW1 1764   3.462   3.333   3.795
 2784SOL    HW2 1765   3.418   3.176   3.793
 2785SOL     OW 1766   2.326   3.605   4.047
 2785SOL    HW1 1767   2.359   3.644   4.133
 2785SOL    HW2 1768   2.402   3.598   3.982
 2786SOL     OW 1769   3.262   1.969   4.150
 2786SOL    HW1 1770   3.238   1.932   4.060
 2786SOL    HW2 1771   3.361   1.985   4.154
 2789SOL     OW 1772   2.244   2.562   4.204
 2789SOL    HW1 1773   2.289   2.472   4.201
 2789SOL    HW2 1774   2.150   2.551   4.237
 2790SOL     OW 1775   2.476   1.984   3.841
 2790SOL    HW1 1776   2.574   1.962   3.848
 2790SOL    HW2 1777   2.445   1.967   3.748
 2794SOL     OW 1778   2.401   1.926   4.236
 2794SOL    HW1 1779   2.320   1.927   4.294
 2794SOL    HW2 1780   2.404   2.009   4.181
 2795SOL     OW 1781   3.296   3.050   3.765
 2795SOL    HW1 1782   3.328   2.974   3.822
 2795SOL    HW2 1783   3.204   3.077   3.795
 2796SOL     OW 1784   2.159   1.897   3.895
 2796SOL    HW1 1785   2.208   1.981   3.874
 2796SOL    HW2 1786   2.221   1.832   3.940
 2797SOL     OW 1787   2.797   2.098   4.204
 2797SOL    HW1 1788   2.749   2.139   4.126
 2797SOL    HW2 1789   2.896   2.096   4.185
 2801SOL     OW 1790   2.894   2.411   3.740
 2801SOL    HW1 1791   2.853   2.493   3.701
 2801SOL    HW2 1792   2.958   2.437   3.813
 2804SOL     OW 1793   2.728   2.316   4.366
 2804SOL    HW1 1794   2.696   2.388   4.304
 2804SOL    HW2 1795   2.752   2.235   4.313
 2808SOL     OW 1796   3.719   2.695   4.101
 2808SOL    HW1 1797   3.761   2.631   4.165
 2808SOL    HW2 1798   3.681   2.644   4.023
 2809SOL     OW 1799   2.350   3.247   3.898
 2809SOL    HW1 1800   2.263   3.232   3.945
 2809SOL    HW2 1801   2.333   3.273   3.803
 2811SOL     OW 1802   3.252   2.437   3.802
 2811SOL    HW1 1803   3.198   2.416   3.883
 2811SOL    HW2 1804   3.343   2.396   3.811
 2812SOL     OW 1805   2.389   2.118   4.052
 2812SOL    HW1 1806   2.416   2.059   3.977
 2812SOL    HW2 1807   2.389   2.213   4.021
 2817SOL     OW 1808   2.567   2.912   4.092
 2817SOL    HW1 1809   2.553   2.919   4.191
 2817SOL    HW2 1810   2.651   2.861   4.074
 2821SOL     OW 1811   2.229   2.962   4.225
 2821SOL    HW1 1812   2.222   3.045   4.169
 2821SOL    HW2 1813   2.233   2.882   4.165
 2823SOL     OW 1814   3.114   3.210   4.112
 2823SOL    HW1 1815   3.164   3.287   4.152
 2823SOL    HW2 1816   3.019   3.212   4.144
 2825SOL     OW 1817   3.444   2.501   4.196
 2825SOL    HW1 1818   3.413   2.562   4.269
 2825SOL    HW2 1819   3.494   2.553   4.127
 2831SOL     OW 1820   3.071   2.387   3.999
 2831SOL    HW1 1821   3.084   2.303   4.053
 2831SOL    HW2 1822   3.042   2.461   4.059
 2836SOL     OW 1823   3.484   2.229   4.098
 2836SOL    HW1 1824   3.486   2.153   4.162
 2836SOL    HW2 1825   3.436   2.306   4.138
 2839SOL     OW 1826   3.402   2.136   3.849
 2839SOL    HW1 1827   3.341   2.061   3.872
 2839SOL    HW2 1828   3.424   2.188   3.932
 2840SOL     OW 1829   3.165   2.700   3.766
 2840SOL    HW1 1830   3.199   2.607   3.781
 2840SOL    HW2 1831   3.183   2.727   3.671
 2846SOL     OW 1832   1.870   3.188   3.924
 2846SOL    HW1 1833   1.777   3.209   3.893
 2846SOL    HW2 1834   1.880   3.089   3.937
 2851SOL     OW 1835   2.677   2.434   4.049
 2851SOL    HW1 1836   2.684   2.345   4.003
 2851SOL    HW2 1837   2.583   2.468   4.041
 2856SOL     OW 1838   2.335   2.362   3.915
 2856SOL    HW1 1839   2.396   2.442   3.919
 2856SOL    HW2 1840   2.240   2.393   3.922
 2859SOL     OW 1841   3.164   2.717   4.033
 2859SOL    HW1 1842   3.078   2.686   4.075
 2859SOL    HW2 1843   3.160   2.703   3.934
 2866SOL     OW 1844   2.534   3.478   3.878
 2866SOL    HW1 1845   2.543   3.488   3.779
 2866SOL    HW2 1846   2.494   3.389   3.899
 2870SOL     OW 1847   3.056   3.474   3.755
 2870SOL    HW1 1848   3.062   3.381   3.792
 2870SOL    HW2 1849   2.997   3.474   3.675
 2872SOL     OW 1850   2.778   2.772   4.015
 2872SOL    HW1 1851   2.841   2.810   3.947
 2872SOL    HW2 1852   2.818   2.689   4.054
 2873SOL     OW 1853   3.366   3.469   3.768
 2873SOL    HW1 1854   3.274   3.506   3.775
 2873SOL    HW2 1855   3.404   3.489   3.678
 2878SOL     OW 1856   2.452   3.349   4.215
 2878SOL    HW1 1857   2.494   3.291   4.145
 2878SOL    HW2 1858   2.408   3.428   4.171
 2880SOL     OW 1859   2.117   3.210   4.014
 2880SOL    HW1 1860   2.021   3.211   3.987
 2880SOL    HW2 1861   2.129   3.263   4.098
 2882SOL     OW 1862   1.937   2.207   3.757
 2882SOL    HW1 1863   1.845   2.179   3.728
 2882SOL    HW2 1864   1.968   2.284   3.701
 2884SOL     OW 1865   1.934   2.028   4.042
 2884SOL    HW1 1866   1.917   2.111   3.988
 2884SOL    HW2 1867   2.024   1.991   4.020
 2885SOL     OW 1868   3.045   3.197   3.843
 2885SOL    HW1 1869   2.946   3.186   3.845
 2885SOL    HW2 1870   3.079   3.212   3.936
 2890SOL     OW 1871   3.087   2.187   4.173
 2890SOL    HW1 1872   3.152   2.113   4.162
 2890SOL    HW2 1873   3.107   2.237   4.257
 2891SOL     OW 1874   2.456   2.607   4.376
 2891SOL    HW1 1875   2.506   2.692   4.357
 2891SOL    HW2 1876   2.368   2.609   4.328
 2894SOL     OW 1877   2.721   3.236   3.740
 2894SOL    HW1 1878   2.675   3.251   3.828
 2894SOL    HW2 1879   2.765   3.321   3.710
 2897SOL     OW 1880   2.945   2.846   3.811
 2897SOL    HW1 1881   2.922   2.899   3.729
 2897SOL    HW2 1882   3.026   2.790   3.792
 2901SOL     OW 1883   2.290   2.286   4.244
 2901SOL    HW1 1884   2.320   2.214   4.182
 2901SOL    HW2 1885   2.251   2.246   4.327
 2907SOL     OW 1886   2.632   3.192   4.025
 2907SOL    HW1 1887   2.586   3.105   4.042
 2907SOL    HW2 1888   2.723   3.189   4.066
 2909SOL     OW 1889   3.214   1.914   3.892
 2909SOL    HW1 1890   3.249   1.873   3.808
 2909SOL    HW2 1891   3.124   1.876   3.912
 2912SOL     OW 1892   1.901   2.939   4.024
 2912SOL    HW1 1893   2.000   2.928   4.015
 2912SOL    HW2 1894   1.861   2.853   4.056
 2913SOL     OW 1895   2.737   3.508   4.061
 2913SOL    HW1 1896   2.660   3.473   4.007
 2913SOL    HW2 1897   2.705   3.579   4.123
 2944SOL     OW 1898   2.179   3.975   1.801
 2944SOL    HW1 1899   2.250   4.046   1.807
 2944SOL    HW2 1900   2.091   4.014   1.829
 2969SOL     OW 1901   3.409   3.946   1.729
 2969SOL    HW1 1902   3.404   3.983   1.821
 2969SOL    HW2 1903   3.337   3.877   1.717
 2971SOL     OW 1904   2.643   3.988   1.749
 2971SOL    HW1 1905   2.710   3.927   1.792
 2971SOL    HW2 1906   2.570   4.007   1.814
 2998SOL     OW 1907   2.777   3.813   1.402
 2998SOL    HW1 1908   2.802   3.793   1.307
 2998SOL    HW2 1909   2.849   3.869   1.444
 3011SOL     OW 1910   2.875   3.829   1.770
 3011SOL    HW1 1911   2.881   3.914   1.718
 3011SOL    HW2 1912   2.907   3.753   1.713
 3012SOL     OW 1913   2.366   3.774   1.740
 3012SOL    HW1 1914   2.324   3.717   1.670
 3012SOL    HW2 1915   2.300   3.843   1.772
 3030SOL     OW 1916   3.000   4.104   1.678
 3030SOL    HW1 1917   2.955   4.167   1.742
 3030SOL    HW2 1918   3.093   4.135   1.661
 3031SOL     OW 1919   3.022   3.931   1.477
 3031SOL    HW1 1920   3.022   3.995   1.554
 3031SOL    HW2 1921   3.050   3.979   1.394
 3063SOL     OW 1922   2.534   3.927   1.489
 3063SOL    HW1 1923   2.624   3.911   1.449
 3063SOL    HW2 1924   2.542   3.932   1.588
 3094SOL     OW 1925   2.087   3.999   2.858
 3094SOL    HW1 1926   2.122   3.982   2.950
 3094SOL    HW2 1927   1.999   3.954   2.846
 3095SOL     OW 1928   1.881   4.092   2.509
 3095SOL    HW1 1929   1.799   4.135   2.548
 3095SOL    HW2 1930   1.853   4.019   2.446
 3106SOL     OW 1931   2.300   4.116   3.361
 3106SOL    HW1 1932   2.382   4.060   3.370
 3106SOL    HW2 1933   2.219   4.058   3.365
 3107SOL     OW 1934   3.465   4.171   2.599
 3107SOL    HW1 1935   3.391   4.217   2.549
 3107SOL    HW2 1936   3.516   4.239   2.652
 3112SOL     OW 1937   3.456   3.838   3.342
 3112SOL    HW1 1938   3.438   3.905   3.270
 3112SOL    HW2 1939   3.453   3.884   3.431
 3120SOL     OW 1940   2.671   3.728   2.364
 3120SOL    HW1 1941   2.711   3.819   2.355
 3120SOL    HW2 1942   2.571   3.736   2.370
 3123SOL     OW 1943   2.179   3.975   3.663
 3123SOL    HW1 1944   2.250   4.046   3.669
 3123SOL    HW2 1945   2.091   4.014   3.691
 3126SOL     OW 1946   3.143   4.069   2.806
 3126SOL    HW1 1947   3.057   4.019   2.793
 3126SOL    HW2 1948   3.205   4.015   2.862
 3130SOL     OW 1949   2.853   4.134   3.104
 3130SOL    HW1 1950   2.776   4.168   3.158
 3130SOL    HW2 1951   2.819   4.083   3.025
 3133SOL     OW 1952   2.727   4.072   2.057
 3133SOL    HW1 1953   2.786   4.135   2.008
 3133SOL    HW2 1954   2.746   3.978   2.028
 3136SOL     OW 1955   2.412   3.920   2.747
 3136SOL    HW1 1956   2.407   3.915   2.847
 3136SOL    HW2 1957   2.414   4.016   2.718
 3144SOL     OW 1958   2.064   4.009   3.360
 3144SOL    HW1 1959   1.984   4.069   3.347
 3144SOL    HW2 1960   2.054   3.960   3.446
 3146SOL     OW 1961   3.262   3.831   2.288
 3146SOL    HW1 1962   3.238   3.794   2.198
 3146SOL    HW2 1963   3.361   3.847   2.292
 3148SOL     OW 1964   3.409   3.946   3.591
 3148SOL    HW1 1965   3.404   3.983   3.683
 3148SOL    HW2 1966   3.337   3.877   3.579
 3149SOL     OW 1967   2.476   3.846   1.979
 3149SOL    HW1 1968   2.574   3.824   1.986
 3149SOL    HW2 1969   2.445   3.829   1.886
 3150SOL     OW 1970   2.643   3.988   3.611
 3150SOL    HW1 1971   2.710   3.927   3.654
 3150SOL    HW2 1972   2.570   4.007   3.676
 3153SOL     OW 1973   2.784   4.227   2.761
 3153SOL    HW1 1974   2.759   4.218   2.665
 3153SOL    HW2 1975   2.832   4.145   2.792
 3154SOL     OW 1976   2.401   3.788   2.374
 3154SOL    HW1 1977   2.320   3.789   2.432
 3154SOL    HW2 1978   2.404   3.871   2.319
 3156SOL     OW 1979   2.159   3.759   2.033
 3156SOL    HW1 1980   2.208   3.843   2.012
 3156SOL    HW2 1981   2.221   3.694   2.078
 3157SOL     OW 1982   2.797   3.960   2.342
 3157SOL    HW1 1983   2.749   4.001   2.264
 3157SOL    HW2 1984   2.896   3.958   2.323
 3163SOL     OW 1985   2.423   3.946   3.009
 3163SOL    HW1 1986   2.461   3.862   3.046
 3163SOL    HW2 1987   2.335   3.965   3.053
 3164SOL     OW 1988   2.728   4.178   2.504
 3164SOL    HW1 1989   2.696   4.250   2.442
 3164SOL    HW2 1990   2.752   4.097   2.451
 3165SOL     OW 1991   2.879   3.763   2.615
 3165SOL    HW1 1992   2.807   3.768   2.546
 3165SOL    HW2 1993   2.855   3.694   2.684
 3167SOL     OW 1994   3.328   4.314   2.854
 3167SOL    HW1 1995   3.298   4.219   2.861
 3167SOL    HW2 1996   3.401   4.330   2.920
 3172SOL     OW 1997   2.389   3.980   2.190
 3172SOL    HW1 1998   2.416   3.921   2.115
 3172SOL    HW2 1999   2.389   4.075   2.159
 3177SOL     OW 2000   2.777   3.813   3.264
 3177SOL    HW1 2001   2.802   3.793   3.169
 3177SOL    HW2 2002   2.849   3.869   3.306
 3181SOL     OW 2003   3.136   4.110   3.124
 3181SOL    HW1 2004   3.157   4.184   3.188
 3181SOL    HW2 2005   3.047   4.127   3.081
 3183SOL     OW 2006   2.428   4.261   2.727
 3183SOL    HW1 2007   2.440   4.327   2.653
 3183SOL    HW2 2008   2.474   4.295   2.810
 3190SOL     OW 2009   2.875   3.829   3.632
 3190SOL    HW1 2010   2.881   3.914   3.580
 3190SOL    HW2 2011   2.907   3.753   3.575
 3191SOL     OW 2012   2.366   3.774   3.602
 3191SOL    HW1 2013   2.324   3.717   3.532
 3191SOL    HW2 2014   2.300   3.843   3.634
 3194SOL     OW 2015   3.071   4.249   2.137
 3194SOL    HW1 2016   3.084   4.165   2.191
 3194SOL    HW2 2017   3.042   4.323   2.197
 3195SOL     OW 2018   2.169   3.937   3.093
 3195SOL    HW1 2019   2.146   3.974   3.183
 3195SOL    HW2 2020   2.139   3.842   3.087
 3197SOL     OW 2021   2.594   4.358   2.926
 3197SOL    HW1 2022   2.653   4.332   2.850
 3197SOL    HW2 2023   2.566   4.454   2.915
 3199SOL     OW 2024   2.169   3.787   2.480
 3199SOL    HW1 2025   2.158   3.881   2.513
 3199SOL    HW2 2026   2.164   3.724   2.557
 3200SOL     OW 2027   3.484   4.091   2.236
 3200SOL    HW1 2028   3.486   4.015   2.300
 3200SOL    HW2 2029   3.436   4.168   2.276
 3204SOL     OW 2030   3.402   3.998   1.987
 3204SOL    HW1 2031   3.341   3.923   2.010
 3204SOL    HW2 2032   3.424   4.050   2.070
 3208SOL     OW 2033   2.201   4.233   2.868
 3208SOL    HW1 2034   2.149   4.150   2.851
 3208SOL    HW2 2035   2.278   4.238   2.804
 3209SOL     OW 2036   3.000   4.104   3.540
 3209SOL    HW1 2037   2.955   4.167   3.604
 3209SOL    HW2 2038   3.093   4.135   3.523
 3210SOL     OW 2039   3.022   3.931   3.339
 3210SOL    HW1 2040   3.022   3.995   3.416
 3210SOL    HW2 2041   3.050   3.979   3.256
 3216SOL     OW 2042   2.677   4.296   2.187
 3216SOL    HW1 2043   2.684   4.207   2.141
 3216SOL    HW2 2044   2.583   4.330   2.179
 3219SOL     OW 2045   2.533   4.188   3.131
 3219SOL    HW1 2046   2.499   4.099   3.101
 3219SOL    HW2 2047   2.559   4.242   3.051
 3220SOL     OW 2048   2.335   4.224   2.053
 3220SOL    HW1 2049   2.396   4.304   2.057
 3220SOL    HW2 2050   2.240   4.255   2.060
 3226SOL     OW 2051   3.588   3.859   2.385
 3226SOL    HW1 2052   3.661   3.842   2.318
 3226SOL    HW2 2053   3.557   3.772   2.423
 3229SOL     OW 2054   3.703   3.899   2.825
 3229SOL    HW1 2055   3.742   3.814   2.789
 3229SOL    HW2 2056   3.605   3.901   2.806
 3230SOL     OW 2057   2.125   4.050   2.582
 3230SOL    HW1 2058   2.046   4.101   2.548
 3230SOL    HW2 2059   2.116   4.035   2.680
 3236SOL     OW 2060   2.876   3.960   2.833
 3236SOL    HW1 2061   2.868   3.924   2.740
 3236SOL    HW2 2062   2.874   3.884   2.898
 3240SOL     OW 2063   2.534   3.927   3.351
 3240SOL    HW1 2064   2.624   3.911   3.311
 3240SOL    HW2 2065   2.542   3.932   3.450
 3241SOL     OW 2066   1.937   4.069   1.895
 3241SOL    HW1 2067   1.845   4.041   1.866
 3241SOL    HW2 2068   1.968   4.146   1.839
 3243SOL     OW 2069   1.934   3.890   2.180
 3243SOL    HW1 2070   1.917   3.973   2.126
 3243SOL    HW2 2071   2.024   3.853   2.158
 3249SOL     OW 2072   3.087   4.049   2.311
 3249SOL    HW1 2073   3.152   3.975   2.300
 3249SOL    HW2 2074   3.107   4.099   2.395
 3259SOL     OW 2075   3.686   3.916   3.089
 3259SOL    HW1 2076   3.682   3.826   3.133
 3259SOL    HW2 2077   3.689   3.905   2.990
 3260SOL     OW 2078   2.290   4.148   2.382
 3260SOL    HW1 2079   2.320   4.076   2.320
 3260SOL    HW2 2080   2.251   4.108   2.465
 3262SOL     OW 2081   2.179   4.271   3.142
 3262SOL    HW1 2082   2.217   4.212   3.214
 3262SOL    HW2 2083   2.219   4.245   3.054
 3263SOL     OW 2084   3.286   3.938   2.974
 3263SOL    HW1 2085   3.338   3.873   3.029
 3263SOL    HW2 2086   3.237   4.001   3.035
 3264SOL     OW 2087   2.863   3.758   3.016
 3264SOL    HW1 2088   2.800   3.686   2.985
 3264SOL    HW2 2089   2.956   3.722   3.016
 3267SOL     OW 2090   3.214   3.776   2.030
 3267SOL    HW1 2091   3.249   3.735   1.946
 3267SOL    HW2 2092   3.124   3.738   2.050
 3268SOL     OW 2093   3.162   4.177   2.553
 3268SOL    HW1 2094   3.103   4.257   2.557
 3268SOL    HW2 2095   3.177   4.142   2.646
 3269SOL     OW 2096   3.455   3.945   2.744
 3269SOL    HW1 2097   3.371   3.944   2.798
 3269SOL    HW2 2098   3.457   4.028   2.688
 3317SOL     OW 2099   2.476   3.846   3.841
 3317SOL    HW1 2100   2.574   3.824   3.848
 3317SOL    HW2 2101   2.445   3.829   3.748
 3322SOL     OW 2102   2.159   3.759   3.895
 3322SOL    HW1 2103   2.208   3.843   3.874
 3322SOL    HW2 2104   2.221   3.694   3.940
 3415SOL     OW 2105   3.214   3.776   3.892
 3415SOL    HW1 2106   3.249   3.735   3.808
 3415SOL    HW2 2107   3.124   3.738   3.912
 3553SOL     OW 2108   3.854   1.794   1.851
 3553SOL    HW1 2109   3.813   1.720   1.904
 3553SOL    HW2 2110   3.918   1.845   1.909
 3610SOL     OW 2111   3.955   1.713   2.345
 3610SOL    HW1 2112   3.989   1.790   2.399
 3610SOL    HW2 2113   3.999   1.713   2.255
 3618SOL     OW 2114   3.751   1.596   1.979
 3618SOL    HW1 2115   3.732   1.500   2.000
 3618SOL    HW2 2116   3.718   1.654   2.054
 3637SOL     OW 2117   3.854   1.821   3.433
 3637SOL    HW1 2118   3.844   1.806   3.532
 3637SOL    HW2 2119   3.768   1.857   3.397
 3642SOL     OW 2120   4.075   1.801   2.715
 3642SOL    HW1 2121   4.125   1.715   2.721
 3642SOL    HW2 2122   4.140   1.878   2.712
 3650SOL     OW 2123   3.973   1.785   3.103
 3650SOL    HW1 2124   4.030   1.720   3.153
 3650SOL    HW2 2125   3.957   1.752   3.010
 3684SOL     OW 2126   3.788   1.564   3.193
 3684SOL    HW1 2127   3.742   1.646   3.159
 3684SOL    HW2 2128   3.886   1.583   3.202
 3711SOL     OW 2129   3.812   1.801   2.789
 3711SOL    HW1 2130   3.770   1.715   2.762
 3711SOL    HW2 2131   3.906   1.804   2.755
 3949SOL     OW 2132   3.837   2.599   1.597
 3949SOL    HW1 2133   3.925   2.586   1.642
 3949SOL    HW2 2134   3.824   2.696   1.575
 3955SOL     OW 2135   4.041   2.113   1.801
 3955SOL    HW1 2136   4.112   2.184   1.807
 3955SOL    HW2 2137   3.953   2.152   1.829
 3976SOL     OW 2138   3.926   2.147   1.498
 3976SOL    HW1 2139   3.846   2.207   1.485
 3976SOL    HW2 2140   3.916   2.098   1.584
 3997SOL     OW 2141   3.802   2.418   1.386
 3997SOL    HW1 2142   3.894   2.417   1.345
 3997SOL    HW2 2143   3.796   2.492   1.453
 4032SOL     OW 2144   4.074   2.760   1.804
 4032SOL    HW1 2145   4.150   2.804   1.852
 4032SOL    HW2 2146   4.109   2.713   1.722
 4044SOL     OW 2147   3.913   2.382   1.722
 4044SOL    HW1 2148   3.972   2.342   1.652
 4044SOL    HW2 2149   3.855   2.453   1.681
 4047SOL     OW 2150   3.976   3.426   1.744
 4047SOL    HW1 2151   3.946   3.483   1.820
 4047SOL    HW2 2152   3.969   3.329   1.770
 4051SOL     OW 2153   3.883   2.999   1.466
 4051SOL    HW1 2154   3.905   2.938   1.542
 4051SOL    HW2 2155   3.893   2.950   1.380
 4060SOL     OW 2156   3.854   3.656   1.851
 4060SOL    HW1 2157   3.813   3.582   1.904
 4060SOL    HW2 2158   3.918   3.707   1.909
 4073SOL     OW 2159   3.829   2.875   1.726
 4073SOL    HW1 2160   3.752   2.842   1.780
 4073SOL    HW2 2161   3.914   2.845   1.768
 4089SOL     OW 2162   3.945   3.176   1.844
 4089SOL    HW1 2163   3.880   3.103   1.823
 4089SOL    HW2 2164   3.949   3.190   1.942
 4104SOL     OW 2165   3.954   2.490   1.975
 4104SOL    HW1 2166   3.861   2.488   2.012
 4104SOL    HW2 2167   3.955   2.451   1.883
 4105SOL     OW 2168   3.949   2.137   2.858
 4105SOL    HW1 2169   3.984   2.120   2.950
 4105SOL    HW2 2170   3.861   2.092   2.846
 4106SOL     OW 2171   3.743   2.230   2.509
 4106SOL    HW1 2172   3.661   2.273   2.548
 4106SOL    HW2 2173   3.715   2.157   2.446
 4107SOL     OW 2174   4.293   3.137   3.027
 4107SOL    HW1 2175   4.200   3.130   2.990
 4107SOL    HW2 2176   4.304   3.226   3.071
 4112SOL     OW 2177   4.409   2.874   2.527
 4112SOL    HW1 2178   4.478   2.858   2.597
 4112SOL    HW2 2179   4.336   2.931   2.565
 4114SOL     OW 2180   4.059   3.297   2.923
 4114SOL    HW1 2181   3.981   3.266   2.870
 4114SOL    HW2 2182   4.117   3.355   2.866
 4116SOL     OW 2183   4.162   2.254   3.361
 4116SOL    HW1 2184   4.244   2.198   3.370
 4116SOL    HW2 2185   4.081   2.196   3.365
 4117SOL     OW 2186   3.955   3.575   2.345
 4117SOL    HW1 2187   3.989   3.652   2.399
 4117SOL    HW2 2188   3.999   3.575   2.255
 4119SOL     OW 2189   3.954   3.296   2.400
 4119SOL    HW1 2190   3.928   3.392   2.400
 4119SOL    HW2 2191   3.883   3.242   2.445
 4120SOL     OW 2192   3.964   2.953   2.748
 4120SOL    HW1 2193   3.978   2.869   2.800
 4120SOL    HW2 2194   3.909   3.017   2.803
 4123SOL     OW 2195   3.846   2.505   2.425
 4123SOL    HW1 2196   3.801   2.417   2.442
 4123SOL    HW2 2197   3.845   2.559   2.509
 4124SOL     OW 2198   3.751   3.458   1.979
 4124SOL    HW1 2199   3.732   3.362   2.000
 4124SOL    HW2 2200   3.718   3.516   2.054
 4126SOL     OW 2201   3.837   2.599   3.459
 4126SOL    HW1 2202   3.925   2.586   3.504
 4126SOL    HW2 2203   3.824   2.696   3.437
 4127SOL     OW 2204   4.337   3.227   2.588
 4127SOL    HW1 2205   4.288   3.140   2.597
 4127SOL    HW2 2206   4.314   3.270   2.501
 4130SOL     OW 2207   3.921   2.838   3.126
 4130SOL    HW1 2208   4.010   2.793   3.112
 4130SOL    HW2 2209   3.848   2.773   3.107
 4132SOL     OW 2210   4.041   2.113   3.663
 4132SOL    HW1 2211   4.112   2.184   3.669
 4132SOL    HW2 2212   3.953   2.152   3.691
 4135SOL     OW 2213   4.322   2.591   2.132
 4135SOL    HW1 2214   4.346   2.660   2.064
 4135SOL    HW2 2215   4.244   2.624   2.186
 4142SOL     OW 2216   3.800   2.673   2.651
 4142SOL    HW1 2217   3.899   2.661   2.660
 4142SOL    HW2 2218   3.776   2.768   2.672
 4143SOL     OW 2219   3.854   3.683   3.433
 4143SOL    HW1 2220   3.844   3.668   3.532
 4143SOL    HW2 2221   3.768   3.719   3.397
 4146SOL     OW 2222   4.274   2.058   2.747
 4146SOL    HW1 2223   4.269   2.053   2.847
 4146SOL    HW2 2224   4.276   2.154   2.718
 4148SOL     OW 2225   4.075   3.663   2.715
 4148SOL    HW1 2226   4.125   3.577   2.721
 4148SOL    HW2 2227   4.140   3.740   2.712
 4150SOL     OW 2228   4.045   2.805   2.104
 4150SOL    HW1 2229   4.127   2.844   2.062
 4150SOL    HW2 2230   4.018   2.723   2.055
 4153SOL     OW 2231   3.926   2.147   3.360
 4153SOL    HW1 2232   3.846   2.207   3.347
 4153SOL    HW2 2233   3.916   2.098   3.446
 4156SOL     OW 2234   3.973   3.647   3.103
 4156SOL    HW1 2235   4.030   3.582   3.153
 4156SOL    HW2 2236   3.957   3.614   3.010
 4158SOL     OW 2237   4.106   2.562   2.342
 4158SOL    HW1 2238   4.151   2.472   2.339
 4158SOL    HW2 2239   4.012   2.551   2.375
 4165SOL     OW 2240   4.263   1.926   2.374
 4165SOL    HW1 2241   4.182   1.927   2.432
 4165SOL    HW2 2242   4.266   2.009   2.319
 4167SOL     OW 2243   4.021   1.897   2.033
 4167SOL    HW1 2244   4.070   1.981   2.012
 4167SOL    HW2 2245   4.083   1.832   2.078
 4171SOL     OW 2246   4.183   3.014   2.603
 4171SOL    HW1 2247   4.112   2.987   2.668
 4171SOL    HW2 2248   4.157   2.986   2.510
 4174SOL     OW 2249   3.802   2.418   3.248
 4174SOL    HW1 2250   3.894   2.417   3.207
 4174SOL    HW2 2251   3.796   2.492   3.315
 4175SOL     OW 2252   4.285   2.084   3.009
 4175SOL    HW1 2253   4.323   2.000   3.046
 4175SOL    HW2 2254   4.197   2.103   3.053
 4179SOL     OW 2255   4.212   3.247   2.036
 4179SOL    HW1 2256   4.125   3.232   2.083
 4179SOL    HW2 2257   4.195   3.273   1.941
 4181SOL     OW 2258   4.251   2.118   2.190
 4181SOL    HW1 2259   4.278   2.059   2.115
 4181SOL    HW2 2260   4.251   2.213   2.159
 4188SOL     OW 2261   4.134   2.675   3.113
 4188SOL    HW1 2262   4.220   2.687   3.163
 4188SOL    HW2 2263   4.092   2.588   3.140
 4190SOL     OW 2264   3.788   3.426   3.193
 4190SOL    HW1 2265   3.742   3.508   3.159
 4190SOL    HW2 2266   3.886   3.445   3.202
 4191SOL     OW 2267   4.091   2.962   2.363
 4191SOL    HW1 2268   4.084   3.045   2.307
 4191SOL    HW2 2269   4.095   2.882   2.303
 4192SOL     OW 2270   4.290   2.399   2.727
 4192SOL    HW1 2271   4.302   2.465   2.653
 4192SOL    HW2 2272   4.336   2.433   2.810
 4195SOL     OW 2273   4.078   3.372   3.191
 4195SOL    HW1 2274   4.057   3.328   3.104
 4195SOL    HW2 2275   4.175   3.398   3.194
 4196SOL     OW 2276   4.126   2.613   3.460
 4196SOL    HW1 2277   4.194   2.668   3.413
 4196SOL    HW2 2278   4.166   2.525   3.487
 4199SOL     OW 2279   4.297   2.732   2.891
 4199SOL    HW1 2280   4.341   2.821   2.882
 4199SOL    HW2 2281   4.234   2.732   2.968
 4202SOL     OW 2282   4.031   2.075   3.093
 4202SOL    HW1 2283   4.008   2.112   3.183
 4202SOL    HW2 2284   4.001   1.980   3.087
 4203SOL     OW 2285   3.761   3.172   3.144
 4203SOL    HW1 2286   3.814   3.123   3.212
 4203SOL    HW2 2287   3.783   3.270   3.149
 4205SOL     OW 2288   4.031   1.925   2.480
 4205SOL    HW1 2289   4.020   2.019   2.513
 4205SOL    HW2 2290   4.026   1.862   2.557
 4209SOL     OW 2291   4.074   2.760   3.666
 4209SOL    HW1 2292   4.150   2.804   3.714
 4209SOL    HW2 2293   4.109   2.713   3.584
 4212SOL     OW 2294   4.043   2.672   2.811
 4212SOL    HW1 2295   4.136   2.708   2.816
 4212SOL    HW2 2296   4.037   2.587   2.863
 4213SOL     OW 2297   4.063   2.371   2.868
 4213SOL    HW1 2298   4.011   2.288   2.851
 4213SOL    HW2 2299   4.140   2.376   2.804
 4216SOL     OW 2300   3.732   3.188   2.062
 4216SOL    HW1 2301   3.639   3.209   2.031
 4216SOL    HW2 2302   3.742   3.089   2.075
 4217SOL     OW 2303   3.812   3.663   2.789
 4217SOL    HW1 2304   3.770   3.577   2.762
 4217SOL    HW2 2305   3.906   3.666   2.755
 4218SOL     OW 2306   4.228   3.430   2.772
 4218SOL    HW1 2307   4.294   3.504   2.781
 4218SOL    HW2 2308   4.272   3.351   2.730
 4220SOL     OW 2309   3.764   2.406   2.976
 4220SOL    HW1 2310   3.849   2.373   2.935
 4220SOL    HW2 2311   3.777   2.421   3.074
 4221SOL     OW 2312   3.913   2.382   3.584
 4221SOL    HW1 2313   3.972   2.342   3.514
 4221SOL    HW2 2314   3.855   2.453   3.543
 4224SOL     OW 2315   3.976   3.426   3.606
 4224SOL    HW1 2316   3.946   3.483   3.682
 4224SOL    HW2 2317   3.969   3.329   3.632
 4227SOL     OW 2318   4.197   2.362   2.053
 4227SOL    HW1 2319   4.258   2.442   2.057
 4227SOL    HW2 2320   4.102   2.393   2.060
 4228SOL     OW 2321   3.883   2.999   3.328
 4228SOL    HW1 2322   3.905   2.938   3.404
 4228SOL    HW2 2323   3.893   2.950   3.242
 4232SOL     OW 2324   3.807   3.120   2.884
 4232SOL    HW1 2325   3.802   3.119   2.984
 4232SOL    HW2 2326   3.724   3.079   2.846
 4240SOL     OW 2327   3.987   2.188   2.582
 4240SOL    HW1 2328   3.908   2.239   2.548
 4240SOL    HW2 2329   3.978   2.173   2.680
 4244SOL     OW 2330   4.096   3.150   3.352
 4244SOL    HW1 2331   4.083   3.243   3.318
 4244SOL    HW2 2332   4.012   3.098   3.339
 4248SOL     OW 2333   3.979   3.210   2.152
 4248SOL    HW1 2334   3.883   3.211   2.125
 4248SOL    HW2 2335   3.991   3.263   2.236
 4249SOL     OW 2336   3.829   2.875   3.588
 4249SOL    HW1 2337   3.752   2.842   3.642
 4249SOL    HW2 2338   3.914   2.845   3.630
 4251SOL     OW 2339   3.799   2.207   1.895
 4251SOL    HW1 2340   3.707   2.179   1.866
 4251SOL    HW2 2341   3.830   2.284   1.839
 4253SOL     OW 2342   3.796   2.028   2.180
 4253SOL    HW1 2343   3.779   2.111   2.126
 4253SOL    HW2 2344   3.886   1.991   2.158
 4255SOL     OW 2345   4.337   2.704   3.293
 4255SOL    HW1 2346   4.393   2.785   3.276
 4255SOL    HW2 2347   4.396   2.624   3.296
 4261SOL     OW 2348   4.318   2.607   2.514
 4261SOL    HW1 2349   4.368   2.692   2.495
 4261SOL    HW2 2350   4.230   2.609   2.466
 4266SOL     OW 2351   3.945   3.176   3.706
 4266SOL    HW1 2352   3.880   3.103   3.685
 4266SOL    HW2 2353   3.949   3.190   3.804
 4267SOL     OW 2354   3.803   3.102   2.515
 4267SOL    HW1 2355   3.802   3.055   2.603
 4267SOL    HW2 2356   3.885   3.074   2.464
 4269SOL     OW 2357   4.152   2.286   2.382
 4269SOL    HW1 2358   4.182   2.214   2.320
 4269SOL    HW2 2359   4.113   2.246   2.465
 4270SOL     OW 2360   4.041   2.409   3.142
 4270SOL    HW1 2361   4.079   2.350   3.214
 4270SOL    HW2 2362   4.081   2.383   3.054
 4279SOL     OW 2363   3.763   2.939   2.162
 4279SOL    HW1 2364   3.862   2.928   2.153
 4279SOL    HW2 2365   3.723   2.853   2.194
 4281SOL     OW 2366   3.954   2.490   3.837
 4281SOL    HW1 2367   3.861   2.488   3.874
 4281SOL    HW2 2368   3.955   2.451   3.745
 4298SOL     OW 2369   3.751   3.458   3.841
 4298SOL    HW1 2370   3.732   3.362   3.862
 4298SOL    HW2 2371   3.718   3.516   3.916
 4377SOL     OW 2372   3.732   3.188   3.924
 4377SOL    HW1 2373   3.639   3.209   3.893
 4377SOL    HW2 2374   3.742   3.089   3.937
 4406SOL     OW 2375   3.799   2.207   3.757
 4406SOL    HW1 2376   3.707   2.179   3.728
 4406SOL    HW2 2377   3.830   2.284   3.701
 4430SOL     OW 2378   3.763   2.939   4.024
 4430SOL    HW1 2379   3.862   2.928   4.015
 4430SOL    HW2 2380   3.723   2.853   4.056
 4671SOL     OW 2381   4.031   3.787   2.480
 4671SOL    HW1 2382   4.020   3.881   2.513
 4671SOL    HW2 2383   4.026   3.724   2.557
 4709SOL     OW 2384   3.796   3.890   2.180
 4709SOL    HW1 2385   3.779   3.973   2.126
 4709SOL    HW2 2386   3.886   3.853   2.158
   5.31428   5.31428   5.31428
