; mobley_8882696_GMX.itp created by acpype (v: 2023.10.27) on Thu May 21 00:07:26 2026

[ atomtypes ]
;name   bond_type     mass     charge   ptype   sigma         epsilon       Amb
 c5       c5          0.00000  0.00000   A     3.39771e-01   4.51035e-01 ; 1.91  0.1078
 os       os          0.00000  0.00000   A     3.15610e-01   3.03758e-01 ; 1.77  0.0726
 hc       hc          0.00000  0.00000   A     2.60018e-01   8.70272e-02 ; 1.46  0.0208
 h1       h1          0.00000  0.00000   A     2.42200e-01   8.70272e-02 ; 1.36  0.0208

[ moleculetype ]
;name            nrexcl
 mobley_8882696   3

[ atoms ]
;   nr  type  resi  res  atom  cgnr     charge      mass       ; qtot   bond_type
     1   c5     1   MOL    C1    1    -0.106400     12.01000 ; qtot -0.106
     2   c5     1   MOL    C2    2    -0.106400     12.01000 ; qtot -0.213
     3   c5     1   MOL    C3    3     0.127400     12.01000 ; qtot -0.085
     4   c5     1   MOL    C4    4     0.127400     12.01000 ; qtot 0.042
     5   os     1   MOL    O1    5    -0.427600     16.00000 ; qtot -0.386
     6   hc     1   MOL    H1    6     0.051700      1.00800 ; qtot -0.334
     7   hc     1   MOL    H2    7     0.051700      1.00800 ; qtot -0.282
     8   hc     1   MOL    H3    8     0.051700      1.00800 ; qtot -0.231
     9   hc     1   MOL    H4    9     0.051700      1.00800 ; qtot -0.179
    10   h1     1   MOL    H5   10     0.044700      1.00800 ; qtot -0.134
    11   h1     1   MOL    H6   11     0.044700      1.00800 ; qtot -0.089
    12   h1     1   MOL    H7   12     0.044700      1.00800 ; qtot -0.045
    13   h1     1   MOL    H8   13     0.044700      1.00800 ; qtot -0.000

[ bonds ]
;   ai     aj funct   r             k
     1      2   1    1.5483e-01    1.8418e+05 ;     C1 - C2    
     1      3   1    1.5483e-01    1.8418e+05 ;     C1 - C3    
     1      6   1    1.0954e-01    2.8989e+05 ;     C1 - H1    
     1      7   1    1.0954e-01    2.8989e+05 ;     C1 - H2    
     2      4   1    1.5483e-01    1.8418e+05 ;     C2 - C4    
     2      8   1    1.0954e-01    2.8989e+05 ;     C2 - H3    
     2      9   1    1.0954e-01    2.8989e+05 ;     C2 - H4    
     3      5   1    1.4346e-01    2.3063e+05 ;     C3 - O1    
     3     10   1    1.0972e-01    2.8768e+05 ;     C3 - H5    
     3     11   1    1.0972e-01    2.8768e+05 ;     C3 - H6    
     4      5   1    1.4346e-01    2.3063e+05 ;     C4 - O1    
     4     12   1    1.0972e-01    2.8768e+05 ;     C4 - H7    
     4     13   1    1.0972e-01    2.8768e+05 ;     C4 - H8    

[ pairs ]
;   ai     aj    funct
     1     12      1 ;     C1 - H7    
     1     13      1 ;     C1 - H8    
     2     10      1 ;     C2 - H5    
     2     11      1 ;     C2 - H6    
     3      8      1 ;     C3 - H3    
     3      9      1 ;     C3 - H4    
     3     12      1 ;     C3 - H7    
     3     13      1 ;     C3 - H8    
     4     10      1 ;     C4 - H5    
     4     11      1 ;     C4 - H6    
     5      8      1 ;     O1 - H3    
     5      9      1 ;     O1 - H4    
     6      4      1 ;     H1 - C4    
     6      5      1 ;     H1 - O1    
     6      8      1 ;     H1 - H3    
     6      9      1 ;     H1 - H4    
     6     10      1 ;     H1 - H5    
     6     11      1 ;     H1 - H6    
     7      4      1 ;     H2 - C4    
     7      5      1 ;     H2 - O1    
     7      8      1 ;     H2 - H3    
     7      9      1 ;     H2 - H4    
     7     10      1 ;     H2 - H5    
     7     11      1 ;     H2 - H6    
     8     12      1 ;     H3 - H7    
     8     13      1 ;     H3 - H8    
     9     12      1 ;     H4 - H7    
     9     13      1 ;     H4 - H8    

[ angles ]
;   ai     aj     ak    funct   theta         cth
     1      2      4      1    1.0383e+02    5.1748e+02 ;     C1 - C2     - C4    
     1      2      8      1    1.1117e+02    3.5690e+02 ;     C1 - C2     - H3    
     1      2      9      1    1.1117e+02    3.5690e+02 ;     C1 - C2     - H4    
     1      3      5      1    1.0614e+02    6.4793e+02 ;     C1 - C3     - O1    
     1      3     10      1    1.1117e+02    3.5690e+02 ;     C1 - C3     - H5    
     1      3     11      1    1.1117e+02    3.5690e+02 ;     C1 - C3     - H6    
     2      1      3      1    1.0383e+02    5.1748e+02 ;     C2 - C1     - C3    
     2      1      6      1    1.1117e+02    3.5690e+02 ;     C2 - C1     - H1    
     2      1      7      1    1.1117e+02    3.5690e+02 ;     C2 - C1     - H2    
     2      4      5      1    1.0614e+02    6.4793e+02 ;     C2 - C4     - O1    
     2      4     12      1    1.1117e+02    3.5690e+02 ;     C2 - C4     - H7    
     2      4     13      1    1.1117e+02    3.5690e+02 ;     C2 - C4     - H8    
     3      1      6      1    1.1117e+02    3.5690e+02 ;     C3 - C1     - H1    
     3      1      7      1    1.1117e+02    3.5690e+02 ;     C3 - C1     - H2    
     3      5      4      1    1.0926e+02    7.4986e+02 ;     C3 - O1     - C4    
     4      2      8      1    1.1117e+02    3.5690e+02 ;     C4 - C2     - H3    
     4      2      9      1    1.1117e+02    3.5690e+02 ;     C4 - C2     - H4    
     5      3     10      1    1.0846e+02    4.7229e+02 ;     O1 - C3     - H5    
     5      3     11      1    1.0846e+02    4.7229e+02 ;     O1 - C3     - H6    
     5      4     12      1    1.0846e+02    4.7229e+02 ;     O1 - C4     - H7    
     5      4     13      1    1.0846e+02    4.7229e+02 ;     O1 - C4     - H8    
     6      1      7      1    1.0722e+02    3.0049e+02 ;     H1 - C1     - H2    
     8      2      9      1    1.0722e+02    3.0049e+02 ;     H3 - C2     - H4    
    10      3     11      1    1.0813e+02    2.9874e+02 ;     H5 - C3     - H6    
    12      4     13      1    1.0813e+02    2.9874e+02 ;     H7 - C4     - H8    

[ dihedrals ] ; propers
; for gromacs 4.5 or higher, using funct 9
;    i      j      k      l   func   phase     kd      pn
     1      2      4      5      9     0.00   0.65084   3 ;     C1-    C2-    C4-    O1
     1      2      4     12      9     0.00   0.65084   3 ;     C1-    C2-    C4-    H7
     1      2      4     13      9     0.00   0.65084   3 ;     C1-    C2-    C4-    H8
     1      3      5      4      9     0.00   0.33472   2 ;     C1-    C3-    O1-    C4
     1      3      5      4      9     0.00   3.13800   3 ;     C1-    C3-    O1-    C4
     1      3      5      4      9   180.00   3.68192   1 ;     C1-    C3-    O1-    C4
     2      1      3      5      9     0.00   0.65084   3 ;     C2-    C1-    C3-    O1
     2      1      3     10      9     0.00   0.65084   3 ;     C2-    C1-    C3-    H5
     2      1      3     11      9     0.00   0.65084   3 ;     C2-    C1-    C3-    H6
     2      4      5      3      9     0.00   0.33472   2 ;     C2-    C4-    O1-    C3
     2      4      5      3      9     0.00   3.13800   3 ;     C2-    C4-    O1-    C3
     2      4      5      3      9   180.00   3.68192   1 ;     C2-    C4-    O1-    C3
     3      1      2      4      9     0.00   2.17568   3 ;     C3-    C1-    C2-    C4
     3      1      2      8      9     0.00   0.54392   3 ;     C3-    C1-    C2-    H3
     3      1      2      9      9     0.00   0.54392   3 ;     C3-    C1-    C2-    H4
     3      5      4     12      9     0.00   1.41001   3 ;     C3-    O1-    C4-    H7
     3      5      4     13      9     0.00   1.41001   3 ;     C3-    O1-    C4-    H8
     4      5      3     10      9     0.00   1.41001   3 ;     C4-    O1-    C3-    H5
     4      5      3     11      9     0.00   1.41001   3 ;     C4-    O1-    C3-    H6
     5      4      2      8      9     0.00   0.00000   0 ;     O1-    C4-    C2-    H3
     5      4      2      8      9     0.00   1.04600   1 ;     O1-    C4-    C2-    H3
     5      4      2      9      9     0.00   0.00000   0 ;     O1-    C4-    C2-    H4
     5      4      2      9      9     0.00   1.04600   1 ;     O1-    C4-    C2-    H4
     6      1      2      4      9     0.00   0.54392   3 ;     H1-    C1-    C2-    C4
     6      1      2      8      9     0.00   0.50208   3 ;     H1-    C1-    C2-    H3
     6      1      2      9      9     0.00   0.50208   3 ;     H1-    C1-    C2-    H4
     6      1      3      5      9     0.00   0.00000   0 ;     H1-    C1-    C3-    O1
     6      1      3      5      9     0.00   1.04600   1 ;     H1-    C1-    C3-    O1
     6      1      3     10      9     0.00   0.65084   3 ;     H1-    C1-    C3-    H5
     6      1      3     11      9     0.00   0.65084   3 ;     H1-    C1-    C3-    H6
     7      1      2      4      9     0.00   0.54392   3 ;     H2-    C1-    C2-    C4
     7      1      2      8      9     0.00   0.50208   3 ;     H2-    C1-    C2-    H3
     7      1      2      9      9     0.00   0.50208   3 ;     H2-    C1-    C2-    H4
     7      1      3      5      9     0.00   0.00000   0 ;     H2-    C1-    C3-    O1
     7      1      3      5      9     0.00   1.04600   1 ;     H2-    C1-    C3-    O1
     7      1      3     10      9     0.00   0.65084   3 ;     H2-    C1-    C3-    H5
     7      1      3     11      9     0.00   0.65084   3 ;     H2-    C1-    C3-    H6
     8      2      4     12      9     0.00   0.65084   3 ;     H3-    C2-    C4-    H7
     8      2      4     13      9     0.00   0.65084   3 ;     H3-    C2-    C4-    H8
     9      2      4     12      9     0.00   0.65084   3 ;     H4-    C2-    C4-    H7
     9      2      4     13      9     0.00   0.65084   3 ;     H4-    C2-    C4-    H8
