mobley_486214_GMX.gro created by acpype (v: 2023.10.27) on Tue May 19 12:47:40 2026
 2415
    1MOL     C1    1   2.514   2.404   2.600
    1MOL     C2    2   2.392   2.471   2.597
    1MOL     C3    3   2.579   2.372   2.481
    1MOL     C4    4   2.335   2.507   2.474
    1MOL     C5    5   2.522   2.407   2.359
    1MOL     C6    6   2.400   2.474   2.355
    1MOL     C7    7   2.156   2.602   2.599
    1MOL     C8    8   2.711   2.306   2.256
    1MOL     O1    9   2.344   2.508   2.236
    1MOL     O2   10   2.215   2.573   2.473
    1MOL     O3   11   2.587   2.375   2.243
    1MOL     H1   12   2.558   2.377   2.696
    1MOL     H2   13   2.341   2.496   2.690
    1MOL     H3   14   2.674   2.319   2.484
    1MOL     H4   15   2.061   2.655   2.583
    1MOL     H5   16   2.224   2.663   2.658
    1MOL     H6   17   2.136   2.508   2.651
    1MOL     H7   18   2.752   2.286   2.156
    1MOL     H8   19   2.695   2.212   2.309
    1MOL     H9   20   2.781   2.368   2.312
    1MOL    H10   21   2.401   2.479   2.163
   14SOL     OW   22   1.460   1.505   1.339
   14SOL    HW1   23   1.484   1.599   1.365
   14SOL    HW2   24   1.444   1.451   1.421
   35SOL     OW   25   1.187   1.792   1.616
   35SOL    HW1   26   1.211   1.852   1.540
   35SOL    HW2   27   1.194   1.697   1.586
   56SOL     OW   28   1.227   1.550   1.506
   56SOL    HW1   29   1.233   1.473   1.570
   56SOL    HW2   30   1.175   1.524   1.426
   95SOL     OW   31   1.754   1.223   1.588
   95SOL    HW1   32   1.845   1.184   1.575
   95SOL    HW2   33   1.762   1.319   1.612
   97SOL     OW   34   1.592   1.629   1.625
   97SOL    HW1   35   1.619   1.663   1.535
   97SOL    HW2   36   1.671   1.591   1.671
  122SOL     OW   37   1.728   0.935   1.854
  122SOL    HW1   38   1.682   0.928   1.765
  122SOL    HW2   39   1.666   0.979   1.920
  127SOL     OW   40   1.859   1.518   1.605
  127SOL    HW1   41   1.873   1.545   1.510
  127SOL    HW2   42   1.942   1.540   1.658
  152SOL     OW   43   1.759   1.747   1.154
  152SOL    HW1   44   1.820   1.777   1.081
  152SOL    HW2   45   1.721   1.658   1.132
  163SOL     OW   46   1.650   1.720   1.394
  163SOL    HW1   47   1.703   1.730   1.310
  163SOL    HW2   48   1.623   1.810   1.428
  186SOL     OW   49   1.450   1.220   1.633
  186SOL    HW1   50   1.441   1.210   1.732
  186SOL    HW2   51   1.546   1.213   1.607
  219SOL     OW   52   1.555   1.511   2.565
  219SOL    HW1   53   1.498   1.495   2.646
  219SOL    HW2   54   1.496   1.521   2.485
  227SOL     OW   55   1.460   1.505   3.201
  227SOL    HW1   56   1.484   1.599   3.227
  227SOL    HW2   57   1.444   1.451   3.283
  238SOL     OW   58   1.842   1.767   2.221
  238SOL    HW1   59   1.896   1.738   2.301
  238SOL    HW2   60   1.872   1.857   2.192
  240SOL     OW   61   1.689   0.922   2.474
  240SOL    HW1   62   1.784   0.893   2.482
  240SOL    HW2   63   1.681   0.987   2.399
  241SOL     OW   64   1.641   1.108   2.294
  241SOL    HW1   65   1.727   1.110   2.242
  241SOL    HW2   66   1.655   1.155   2.382
  247SOL     OW   67   1.525   0.999   2.052
  247SOL    HW1   68   1.462   0.923   2.065
  247SOL    HW2   69   1.573   1.017   2.138
  248SOL     OW   70   1.187   1.792   3.478
  248SOL    HW1   71   1.211   1.852   3.402
  248SOL    HW2   72   1.194   1.697   3.448
  250SOL     OW   73   1.466   1.417   2.815
  250SOL    HW1   74   1.407   1.423   2.895
  250SOL    HW2   75   1.451   1.329   2.769
  251SOL     OW   76   1.667   1.714   2.434
  251SOL    HW1   77   1.626   1.691   2.346
  251SOL    HW2   78   1.649   1.640   2.499
  254SOL     OW   79   1.576   1.662   2.169
  254SOL    HW1   80   1.665   1.708   2.172
  254SOL    HW2   81   1.555   1.638   2.074
  264SOL     OW   82   1.362   1.144   2.407
  264SOL    HW1   83   1.445   1.115   2.359
  264SOL    HW2   84   1.313   1.211   2.351
  266SOL     OW   85   1.008   1.456   2.339
  266SOL    HW1   86   0.962   1.528   2.287
  266SOL    HW2   87   1.004   1.476   2.437
  268SOL     OW   88   1.795   1.066   2.735
  268SOL    HW1   89   1.733   1.051   2.659
  268SOL    HW2   90   1.743   1.077   2.820
  269SOL     OW   91   1.227   1.550   3.368
  269SOL    HW1   92   1.233   1.473   3.432
  269SOL    HW2   93   1.175   1.524   3.288
  273SOL     OW   94   1.111   1.776   2.099
  273SOL    HW1   95   1.051   1.714   2.149
  273SOL    HW2   96   1.142   1.732   2.014
  275SOL     OW   97   1.632   1.377   1.943
  275SOL    HW1   98   1.600   1.471   1.933
  275SOL    HW2   99   1.556   1.314   1.931
  279SOL     OW  100   0.940   1.698   2.766
  279SOL    HW1  101   1.020   1.641   2.787
  279SOL    HW2  102   0.891   1.658   2.689
  289SOL     OW  103   1.434   1.188   1.903
  289SOL    HW1  104   1.466   1.112   1.960
  289SOL    HW2  105   1.342   1.215   1.933
  293SOL     OW  106   1.227   1.570   2.655
  293SOL    HW1  107   1.248   1.644   2.590
  293SOL    HW2  108   1.295   1.570   2.728
  295SOL     OW  109   1.271   1.797   2.453
  295SOL    HW1  110   1.315   1.861   2.389
  295SOL    HW2  111   1.221   1.849   2.523
  301SOL     OW  112   1.429   1.173   2.729
  301SOL    HW1  113   1.374   1.089   2.722
  301SOL    HW2  114   1.455   1.202   2.637
  303SOL     OW  115   1.857   0.833   2.239
  303SOL    HW1  116   1.899   0.769   2.303
  303SOL    HW2  117   1.819   0.782   2.161
  305SOL     OW  118   1.664   1.280   2.519
  305SOL    HW1  119   1.763   1.288   2.533
  305SOL    HW2  120   1.619   1.364   2.550
  308SOL     OW  121   1.754   1.223   3.450
  308SOL    HW1  122   1.845   1.184   3.437
  308SOL    HW2  123   1.762   1.319   3.474
  310SOL     OW  124   1.592   1.629   3.487
  310SOL    HW1  125   1.619   1.663   3.397
  310SOL    HW2  126   1.671   1.591   3.533
  312SOL     OW  127   1.638   1.099   2.941
  312SOL    HW1  128   1.643   1.180   3.000
  312SOL    HW2  129   1.552   1.101   2.890
  321SOL     OW  130   1.252   1.348   2.250
  321SOL    HW1  131   1.302   1.425   2.290
  321SOL    HW2  132   1.157   1.350   2.282
  322SOL     OW  133   1.272   1.445   3.004
  322SOL    HW1  134   1.319   1.458   3.091
  322SOL    HW2  135   1.206   1.371   3.013
  340SOL     OW  136   1.859   1.518   3.467
  340SOL    HW1  137   1.873   1.545   3.372
  340SOL    HW2  138   1.942   1.540   3.520
  344SOL     OW  139   1.068   1.333   2.711
  344SOL    HW1  140   1.075   1.249   2.656
  344SOL    HW2  141   1.130   1.402   2.675
  365SOL     OW  142   1.759   1.747   3.016
  365SOL    HW1  143   1.820   1.777   2.943
  365SOL    HW2  144   1.721   1.658   2.994
  366SOL     OW  145   1.252   1.731   2.990
  366SOL    HW1  146   1.336   1.736   2.936
  366SOL    HW2  147   1.229   1.635   3.008
  370SOL     OW  148   1.388   1.573   2.339
  370SOL    HW1  149   1.455   1.585   2.265
  370SOL    HW2  150   1.348   1.662   2.362
  375SOL     OW  151   1.650   1.720   3.256
  375SOL    HW1  152   1.703   1.730   3.172
  375SOL    HW2  153   1.623   1.810   3.290
  378SOL     OW  154   1.194   1.612   1.893
  378SOL    HW1  155   1.200   1.519   1.930
  378SOL    HW2  156   1.135   1.612   1.813
  381SOL     OW  157   1.504   1.607   1.906
  381SOL    HW1  158   1.412   1.644   1.913
  381SOL    HW2  159   1.542   1.627   1.816
  383SOL     OW  160   1.614   1.292   3.151
  383SOL    HW1  161   1.674   1.295   3.231
  383SOL    HW2  162   1.539   1.356   3.164
  394SOL     OW  163   1.183   1.335   1.981
  394SOL    HW1  164   1.084   1.324   1.983
  394SOL    HW2  165   1.217   1.350   2.074
  396SOL     OW  166   1.493   1.767   2.821
  396SOL    HW1  167   1.526   1.831   2.752
  396SOL    HW2  168   1.559   1.761   2.896
  409SOL     OW  169   1.861   1.569   2.713
  409SOL    HW1  170   1.790   1.557   2.643
  409SOL    HW2  171   1.862   1.490   2.773
  415SOL     OW  172   1.705   1.487   2.966
  415SOL    HW1  173   1.612   1.462   2.939
  415SOL    HW2  174   1.731   1.437   3.048
  426SOL     OW  175   0.875   1.646   2.199
  426SOL    HW1  176   0.798   1.611   2.145
  426SOL    HW2  177   0.843   1.717   2.261
  565SOL     OW  178   0.850   2.660   1.823
  565SOL    HW1  179   0.846   2.736   1.888
  565SOL    HW2  180   0.872   2.696   1.732
  569SOL     OW  181   1.460   3.367   1.339
  569SOL    HW1  182   1.484   3.461   1.365
  569SOL    HW2  183   1.444   3.313   1.421
  573SOL     OW  184   1.127   3.203   1.690
  573SOL    HW1  185   1.174   3.203   1.778
  573SOL    HW2  186   1.079   3.116   1.679
  578SOL     OW  187   1.594   1.976   1.480
  578SOL    HW1  188   1.576   2.043   1.408
  578SOL    HW2  189   1.591   2.022   1.569
  586SOL     OW  190   1.293   3.090   1.423
  586SOL    HW1  191   1.330   3.017   1.365
  586SOL    HW2  192   1.345   3.095   1.508
  598SOL     OW  193   1.394   2.331   1.674
  598SOL    HW1  194   1.374   2.374   1.762
  598SOL    HW2  195   1.472   2.269   1.683
  599SOL     OW  196   0.973   2.752   1.572
  599SOL    HW1  197   1.019   2.668   1.543
  599SOL    HW2  198   0.917   2.786   1.497
  605SOL     OW  199   1.719   2.447   1.831
  605SOL    HW1  200   1.693   2.536   1.795
  605SOL    HW2  201   1.717   2.379   1.758
  610SOL     OW  202   1.795   2.928   0.873
  610SOL    HW1  203   1.733   2.913   0.797
  610SOL    HW2  204   1.743   2.939   0.958
  623SOL     OW  205   1.547   2.084   1.729
  623SOL    HW1  206   1.542   2.121   1.821
  623SOL    HW2  207   1.475   2.015   1.717
  627SOL     OW  208   1.351   2.452   1.433
  627SOL    HW1  209   1.379   2.409   1.518
  627SOL    HW2  210   1.376   2.548   1.434
  633SOL     OW  211   1.076   2.545   1.464
  633SOL    HW1  212   0.996   2.484   1.467
  633SOL    HW2  213   1.157   2.492   1.440
  643SOL     OW  214   1.466   2.452   0.992
  643SOL    HW1  215   1.436   2.357   0.999
  643SOL    HW2  216   1.539   2.468   1.058
  649SOL     OW  217   1.754   3.085   1.588
  649SOL    HW1  218   1.845   3.046   1.575
  649SOL    HW2  219   1.762   3.181   1.612
  651SOL     OW  220   1.592   3.491   1.625
  651SOL    HW1  221   1.619   3.525   1.535
  651SOL    HW2  222   1.671   3.453   1.671
  653SOL     OW  223   1.638   2.961   1.079
  653SOL    HW1  224   1.643   3.042   1.138
  653SOL    HW2  225   1.552   2.963   1.028
  655SOL     OW  226   0.980   2.978   1.719
  655SOL    HW1  227   0.881   2.984   1.729
  655SOL    HW2  228   1.003   2.898   1.663
  658SOL     OW  229   1.274   2.248   1.262
  658SOL    HW1  230   1.295   2.322   1.326
  658SOL    HW2  231   1.185   2.265   1.219
  667SOL     OW  232   1.587   2.641   1.670
  667SOL    HW1  233   1.495   2.679   1.665
  667SOL    HW2  234   1.647   2.688   1.605
  668SOL     OW  235   1.013   1.967   1.770
  668SOL    HW1  236   1.019   2.052   1.718
  668SOL    HW2  237   1.045   1.891   1.713
  671SOL     OW  238   1.360   2.724   1.045
  671SOL    HW1  239   1.285   2.724   0.979
  671SOL    HW2  240   1.397   2.632   1.054
  676SOL     OW  241   1.728   2.797   1.854
  676SOL    HW1  242   1.682   2.790   1.765
  676SOL    HW2  243   1.666   2.841   1.920
  681SOL     OW  244   1.859   3.380   1.605
  681SOL    HW1  245   1.873   3.407   1.510
  681SOL    HW2  246   1.942   3.402   1.658
  688SOL     OW  247   1.138   2.242   1.678
  688SOL    HW1  248   1.093   2.305   1.742
  688SOL    HW2  249   1.231   2.273   1.661
  689SOL     OW  250   1.160   2.069   1.477
  689SOL    HW1  251   1.160   2.133   1.554
  689SOL    HW2  252   1.188   2.117   1.394
  696SOL     OW  253   1.369   2.812   1.660
  696SOL    HW1  254   1.408   2.901   1.680
  696SOL    HW2  255   1.379   2.792   1.563
  698SOL     OW  256   1.657   2.466   1.206
  698SOL    HW1  257   1.619   2.397   1.268
  698SOL    HW2  258   1.739   2.430   1.162
  704SOL     OW  259   1.347   2.921   1.234
  704SOL    HW1  260   1.371   2.858   1.160
  704SOL    HW2  261   1.257   2.961   1.216
  717SOL     OW  262   1.650   3.582   1.394
  717SOL    HW1  263   1.703   3.592   1.310
  717SOL    HW2  264   1.623   3.672   1.428
  718SOL     OW  265   1.841   2.037   0.963
  718SOL    HW1  266   1.880   1.952   0.927
  718SOL    HW2  267   1.743   2.039   0.944
  725SOL     OW  268   1.614   3.154   1.289
  725SOL    HW1  269   1.674   3.157   1.369
  725SOL    HW2  270   1.539   3.218   1.302
  729SOL     OW  271   1.709   2.247   1.381
  729SOL    HW1  272   1.782   2.316   1.385
  729SOL    HW2  273   1.737   2.172   1.322
  734SOL     OW  274   1.440   2.718   1.398
  734SOL    HW1  275   1.383   2.770   1.335
  734SOL    HW2  276   1.536   2.730   1.374
  740SOL     OW  277   1.450   3.082   1.633
  740SOL    HW1  278   1.441   3.072   1.732
  740SOL    HW2  279   1.546   3.075   1.607
  742SOL     OW  280   1.674   2.745   1.254
  742SOL    HW1  281   1.647   2.656   1.217
  742SOL    HW2  282   1.675   2.813   1.181
  745SOL     OW  283   1.777   2.204   1.642
  745SOL    HW1  284   1.760   2.235   1.548
  745SOL    HW2  285   1.693   2.167   1.680
  746SOL     OW  286   1.730   2.796   1.517
  746SOL    HW1  287   1.768   2.887   1.532
  746SOL    HW2  288   1.722   2.779   1.418
  755SOL     OW  289   1.824   2.054   1.227
  755SOL    HW1  290   1.820   1.964   1.271
  755SOL    HW2  291   1.827   2.043   1.128
  757SOL     OW  292   1.705   3.349   1.104
  757SOL    HW1  293   1.612   3.324   1.077
  757SOL    HW2  294   1.731   3.299   1.186
  760SOL     OW  295   1.424   2.076   1.112
  760SOL    HW1  296   1.476   2.011   1.167
  760SOL    HW2  297   1.375   2.139   1.173
  773SOL     OW  298   1.555   3.373   2.565
  773SOL    HW1  299   1.498   3.357   2.646
  773SOL    HW2  300   1.496   3.383   2.485
  774SOL     OW  301   1.135   2.565   2.579
  774SOL    HW1  302   1.192   2.643   2.554
  774SOL    HW2  303   1.075   2.591   2.655
  775SOL     OW  304   1.755   2.469   2.093
  775SOL    HW1  305   1.743   2.456   1.994
  775SOL    HW2  306   1.725   2.388   2.142
  781SOL     OW  307   1.460   3.367   3.201
  781SOL    HW1  308   1.484   3.461   3.227
  781SOL    HW2  309   1.444   3.313   3.283
  783SOL     OW  310   1.603   2.309   2.599
  783SOL    HW1  311   1.529   2.355   2.549
  783SOL    HW2  312   1.654   2.377   2.652
  790SOL     OW  313   1.594   1.976   3.342
  790SOL    HW1  314   1.576   2.043   3.270
  790SOL    HW2  315   1.591   2.022   3.431
  792SOL     OW  316   1.842   3.629   2.221
  792SOL    HW1  317   1.896   3.600   2.301
  792SOL    HW2  318   1.872   3.719   2.192
  794SOL     OW  319   1.689   2.784   2.474
  794SOL    HW1  320   1.784   2.755   2.482
  794SOL    HW2  321   1.681   2.849   2.399
  795SOL     OW  322   1.641   2.970   2.294
  795SOL    HW1  323   1.727   2.972   2.242
  795SOL    HW2  324   1.655   3.017   2.382
  798SOL     OW  325   1.293   3.090   3.285
  798SOL    HW1  326   1.330   3.017   3.227
  798SOL    HW2  327   1.345   3.095   3.370
  799SOL     OW  328   0.809   1.866   2.364
  799SOL    HW1  329   0.849   1.957   2.355
  799SOL    HW2  330   0.709   1.874   2.370
  801SOL     OW  331   1.525   2.861   2.052
  801SOL    HW1  332   1.462   2.785   2.065
  801SOL    HW2  333   1.573   2.879   2.138
  804SOL     OW  334   1.466   3.279   2.815
  804SOL    HW1  335   1.407   3.285   2.895
  804SOL    HW2  336   1.451   3.191   2.769
  805SOL     OW  337   1.667   3.576   2.434
  805SOL    HW1  338   1.626   3.553   2.346
  805SOL    HW2  339   1.649   3.502   2.499
  807SOL     OW  340   1.281   2.207   2.806
  807SOL    HW1  341   1.195   2.157   2.793
  807SOL    HW2  342   1.343   2.153   2.862
  808SOL     OW  343   1.576   3.524   2.169
  808SOL    HW1  344   1.665   3.570   2.172
  808SOL    HW2  345   1.555   3.500   2.074
  810SOL     OW  346   1.394   2.331   3.536
  810SOL    HW1  347   1.374   2.374   3.624
  810SOL    HW2  348   1.472   2.269   3.545
  812SOL     OW  349   0.991   2.272   3.104
  812SOL    HW1  350   0.914   2.306   3.158
  812SOL    HW2  351   0.957   2.221   3.025
  813SOL     OW  352   1.041   2.563   2.291
  813SOL    HW1  353   1.067   2.559   2.387
  813SOL    HW2  354   0.956   2.512   2.277
  816SOL     OW  355   0.865   2.210   2.057
  816SOL    HW1  356   0.924   2.273   2.008
  816SOL    HW2  357   0.884   2.116   2.028
  817SOL     OW  358   1.719   2.447   3.693
  817SOL    HW1  359   1.693   2.536   3.657
  817SOL    HW2  360   1.717   2.379   3.620
  818SOL     OW  361   1.362   3.006   2.407
  818SOL    HW1  362   1.445   2.977   2.359
  818SOL    HW2  363   1.313   3.073   2.351
  820SOL     OW  364   1.008   3.318   2.339
  820SOL    HW1  365   0.962   3.390   2.287
  820SOL    HW2  366   1.004   3.338   2.437
  822SOL     OW  367   1.795   2.928   2.735
  822SOL    HW1  368   1.733   2.913   2.659
  822SOL    HW2  369   1.743   2.939   2.820
  825SOL     OW  370   1.458   2.597   2.590
  825SOL    HW1  371   1.453   2.532   2.665
  825SOL    HW2  372   1.538   2.656   2.603
  829SOL     OW  373   1.632   3.239   1.943
  829SOL    HW1  374   1.600   3.333   1.933
  829SOL    HW2  375   1.556   3.176   1.931
  831SOL     OW  376   1.400   1.969   2.288
  831SOL    HW1  377   1.376   1.932   2.198
  831SOL    HW2  378   1.499   1.985   2.292
  835SOL     OW  379   1.547   2.084   3.591
  835SOL    HW1  380   1.542   2.121   3.683
  835SOL    HW2  381   1.475   2.015   3.579
  839SOL     OW  382   1.351   2.452   3.295
  839SOL    HW1  383   1.379   2.409   3.380
  839SOL    HW2  384   1.376   2.548   3.296
  841SOL     OW  385   0.922   2.365   2.761
  841SOL    HW1  386   0.897   2.356   2.665
  841SOL    HW2  387   0.970   2.283   2.792
  843SOL     OW  388   1.434   3.050   1.903
  843SOL    HW1  389   1.466   2.974   1.960
  843SOL    HW2  390   1.342   3.077   1.933
  845SOL     OW  391   0.935   2.098   2.342
  845SOL    HW1  392   0.887   2.139   2.264
  845SOL    HW2  393   1.034   2.096   2.323
  846SOL     OW  394   1.076   2.545   3.326
  846SOL    HW1  395   0.996   2.484   3.329
  846SOL    HW2  396   1.157   2.492   3.302
  847SOL     OW  397   1.227   3.432   2.655
  847SOL    HW1  398   1.248   3.506   2.590
  847SOL    HW2  399   1.295   3.432   2.728
  849SOL     OW  400   1.271   3.659   2.453
  849SOL    HW1  401   1.315   3.723   2.389
  849SOL    HW2  402   1.221   3.711   2.523
  850SOL     OW  403   1.032   2.411   1.878
  850SOL    HW1  404   0.991   2.493   1.839
  850SOL    HW2  405   1.096   2.437   1.951
  853SOL     OW  406   0.866   2.316   2.504
  853SOL    HW1  407   0.834   2.388   2.442
  853SOL    HW2  408   0.890   2.235   2.451
  854SOL     OW  409   1.017   1.901   2.615
  854SOL    HW1  410   0.945   1.906   2.546
  854SOL    HW2  411   0.993   1.832   2.684
  855SOL     OW  412   1.429   3.035   2.729
  855SOL    HW1  413   1.374   2.951   2.722
  855SOL    HW2  414   1.455   3.064   2.637
  856SOL     OW  415   1.466   2.452   2.854
  856SOL    HW1  416   1.436   2.357   2.861
  856SOL    HW2  417   1.539   2.468   2.920
  857SOL     OW  418   1.857   2.695   2.239
  857SOL    HW1  419   1.899   2.631   2.303
  857SOL    HW2  420   1.819   2.644   2.161
  859SOL     OW  421   1.664   3.142   2.519
  859SOL    HW1  422   1.763   3.150   2.533
  859SOL    HW2  423   1.619   3.226   2.550
  860SOL     OW  424   1.390   2.437   1.940
  860SOL    HW1  425   1.336   2.416   2.021
  860SOL    HW2  426   1.481   2.396   1.949
  862SOL     OW  427   1.754   3.085   3.450
  862SOL    HW1  428   1.845   3.046   3.437
  862SOL    HW2  429   1.762   3.181   3.474
  863SOL     OW  430   1.064   3.209   3.202
  863SOL    HW1  431   0.984   3.186   3.257
  863SOL    HW2  432   1.147   3.183   3.251
  864SOL     OW  433   1.592   3.491   3.487
  864SOL    HW1  434   1.619   3.525   3.397
  864SOL    HW2  435   1.671   3.453   3.533
  865SOL     OW  436   1.111   3.057   2.962
  865SOL    HW1  437   1.071   3.101   3.043
  865SOL    HW2  438   1.070   3.094   2.879
  866SOL     OW  439   1.638   2.961   2.941
  866SOL    HW1  440   1.643   3.042   3.000
  866SOL    HW2  441   1.552   2.963   2.890
  871SOL     OW  442   1.274   2.248   3.124
  871SOL    HW1  443   1.295   2.322   3.188
  871SOL    HW2  444   1.185   2.265   3.081
  875SOL     OW  445   1.252   3.210   2.250
  875SOL    HW1  446   1.302   3.287   2.290
  875SOL    HW2  447   1.157   3.212   2.282
  876SOL     OW  448   1.272   3.307   3.004
  876SOL    HW1  449   1.319   3.320   3.091
  876SOL    HW2  450   1.206   3.233   3.013
  877SOL     OW  451   1.582   2.501   2.334
  877SOL    HW1  452   1.551   2.562   2.407
  877SOL    HW2  453   1.632   2.553   2.265
  880SOL     OW  454   1.587   2.641   3.532
  880SOL    HW1  455   1.495   2.679   3.527
  880SOL    HW2  456   1.647   2.688   3.467
  884SOL     OW  457   1.360   2.724   2.907
  884SOL    HW1  458   1.285   2.724   2.841
  884SOL    HW2  459   1.397   2.632   2.916
  885SOL     OW  460   1.209   2.387   2.137
  885SOL    HW1  461   1.222   2.303   2.191
  885SOL    HW2  462   1.180   2.461   2.197
  888SOL     OW  463   0.732   2.496   2.926
  888SOL    HW1  464   0.791   2.470   2.850
  888SOL    HW2  465   0.704   2.592   2.915
  889SOL     OW  466   1.728   2.797   3.716
  889SOL    HW1  467   1.682   2.790   3.627
  889SOL    HW2  468   1.666   2.841   3.782
  891SOL     OW  469   1.622   2.229   2.236
  891SOL    HW1  470   1.624   2.153   2.300
  891SOL    HW2  471   1.574   2.306   2.276
  892SOL     OW  472   1.023   2.628   2.828
  892SOL    HW1  473   1.038   2.649   2.924
  892SOL    HW2  474   0.993   2.533   2.819
  894SOL     OW  475   1.859   3.380   3.467
  894SOL    HW1  476   1.873   3.407   3.372
  894SOL    HW2  477   1.942   3.402   3.520
  896SOL     OW  478   1.540   2.136   1.987
  896SOL    HW1  479   1.479   2.061   2.010
  896SOL    HW2  480   1.562   2.188   2.070
  897SOL     OW  481   1.303   2.700   1.904
  897SOL    HW1  482   1.337   2.607   1.919
  897SOL    HW2  483   1.321   2.727   1.809
  898SOL     OW  484   1.068   3.195   2.711
  898SOL    HW1  485   1.075   3.111   2.656
  898SOL    HW2  486   1.130   3.264   2.675
  901SOL     OW  487   1.138   2.242   3.540
  901SOL    HW1  488   1.093   2.305   3.604
  901SOL    HW2  489   1.231   2.273   3.523
  902SOL     OW  490   1.160   2.069   3.339
  902SOL    HW1  491   1.160   2.133   3.416
  902SOL    HW2  492   1.188   2.117   3.256
  906SOL     OW  493   1.002   2.658   3.100
  906SOL    HW1  494   1.043   2.626   3.186
  906SOL    HW2  495   0.906   2.631   3.097
  909SOL     OW  496   1.369   2.812   3.522
  909SOL    HW1  497   1.408   2.901   3.542
  909SOL    HW2  498   1.379   2.792   3.425
  910SOL     OW  499   0.815   2.434   2.187
  910SOL    HW1  500   0.822   2.345   2.141
  910SOL    HW2  501   0.721   2.468   2.179
  911SOL     OW  502   1.657   2.466   3.068
  911SOL    HW1  503   1.619   2.397   3.130
  911SOL    HW2  504   1.739   2.430   3.024
  917SOL     OW  505   1.347   2.921   3.096
  917SOL    HW1  506   1.371   2.858   3.022
  917SOL    HW2  507   1.257   2.961   3.078
  918SOL     OW  508   1.302   2.717   2.171
  918SOL    HW1  509   1.216   2.686   2.213
  918SOL    HW2  510   1.298   2.703   2.072
  919SOL     OW  511   1.759   3.609   3.016
  919SOL    HW1  512   1.820   3.639   2.943
  919SOL    HW2  513   1.721   3.520   2.994
  920SOL     OW  514   1.252   3.593   2.990
  920SOL    HW1  515   1.336   3.598   2.936
  920SOL    HW2  516   1.229   3.497   3.008
  923SOL     OW  517   1.726   1.997   2.385
  923SOL    HW1  518   1.799   1.980   2.318
  923SOL    HW2  519   1.695   1.910   2.423
  924SOL     OW  520   1.388   3.435   2.339
  924SOL    HW1  521   1.455   3.447   2.265
  924SOL    HW2  522   1.348   3.524   2.362
  926SOL     OW  523   1.280   2.789   2.534
  926SOL    HW1  524   1.340   2.708   2.536
  926SOL    HW2  525   1.320   2.858   2.474
  929SOL     OW  526   1.650   3.582   3.256
  929SOL    HW1  527   1.703   3.592   3.172
  929SOL    HW2  528   1.623   3.672   3.290
  930SOL     OW  529   1.841   2.037   2.825
  930SOL    HW1  530   1.880   1.952   2.789
  930SOL    HW2  531   1.743   2.039   2.806
  932SOL     OW  532   1.194   3.474   1.893
  932SOL    HW1  533   1.200   3.381   1.930
  932SOL    HW2  534   1.135   3.474   1.813
  934SOL     OW  535   0.916   2.772   2.153
  934SOL    HW1  536   0.979   2.810   2.085
  934SOL    HW2  537   0.956   2.689   2.192
  935SOL     OW  538   1.504   3.469   1.906
  935SOL    HW1  539   1.412   3.506   1.913
  935SOL    HW2  540   1.542   3.489   1.816
  937SOL     OW  541   1.614   3.154   3.151
  937SOL    HW1  542   1.674   3.157   3.231
  937SOL    HW2  543   1.539   3.218   3.164
  938SOL     OW  544   1.039   2.960   2.558
  938SOL    HW1  545   0.969   2.913   2.612
  938SOL    HW2  546   1.098   2.892   2.515
  939SOL     OW  547   1.014   2.098   2.833
  939SOL    HW1  548   1.006   2.062   2.740
  939SOL    HW2  549   1.012   2.022   2.898
  941SOL     OW  550   1.709   2.247   3.243
  941SOL    HW1  551   1.782   2.316   3.247
  941SOL    HW2  552   1.737   2.172   3.184
  946SOL     OW  553   1.440   2.718   3.260
  946SOL    HW1  554   1.383   2.770   3.197
  946SOL    HW2  555   1.536   2.730   3.236
  948SOL     OW  556   1.183   3.197   1.981
  948SOL    HW1  557   1.084   3.186   1.983
  948SOL    HW2  558   1.217   3.212   2.074
  950SOL     OW  559   1.493   3.629   2.821
  950SOL    HW1  560   1.526   3.693   2.752
  950SOL    HW2  561   1.559   3.623   2.896
  952SOL     OW  562   1.450   3.082   3.495
  952SOL    HW1  563   1.441   3.072   3.594
  952SOL    HW2  564   1.546   3.075   3.469
  954SOL     OW  565   1.674   2.745   3.116
  954SOL    HW1  566   1.647   2.656   3.079
  954SOL    HW2  567   1.675   2.813   3.043
  955SOL     OW  568   1.225   2.187   2.311
  955SOL    HW1  569   1.290   2.113   2.300
  955SOL    HW2  570   1.245   2.237   2.395
  957SOL     OW  571   1.777   2.204   3.504
  957SOL    HW1  572   1.760   2.235   3.410
  957SOL    HW2  573   1.693   2.167   3.542
  958SOL     OW  574   1.730   2.796   3.379
  958SOL    HW1  575   1.768   2.887   3.394
  958SOL    HW2  576   1.722   2.779   3.280
  961SOL     OW  577   0.859   2.818   2.723
  961SOL    HW1  578   0.913   2.749   2.771
  961SOL    HW2  579   0.827   2.887   2.789
  962SOL     OW  580   1.083   2.846   1.949
  962SOL    HW1  581   1.060   2.899   1.867
  962SOL    HW2  582   1.164   2.790   1.930
  963SOL     OW  583   1.861   3.431   2.713
  963SOL    HW1  584   1.790   3.419   2.643
  963SOL    HW2  585   1.862   3.352   2.773
  967SOL     OW  586   1.824   2.054   3.089
  967SOL    HW1  587   1.820   1.964   3.133
  967SOL    HW2  588   1.827   2.043   2.990
  969SOL     OW  589   1.705   3.349   2.966
  969SOL    HW1  590   1.612   3.324   2.939
  969SOL    HW2  591   1.731   3.299   3.048
  972SOL     OW  592   1.424   2.076   2.974
  972SOL    HW1  593   1.476   2.011   3.029
  972SOL    HW2  594   1.375   2.139   3.035
  973SOL     OW  595   1.001   1.896   3.016
  973SOL    HW1  596   0.938   1.824   2.985
  973SOL    HW2  597   1.094   1.860   3.016
  976SOL     OW  598   1.352   1.914   2.030
  976SOL    HW1  599   1.387   1.873   1.946
  976SOL    HW2  600   1.262   1.876   2.050
  977SOL     OW  601   1.300   2.315   2.553
  977SOL    HW1  602   1.241   2.395   2.557
  977SOL    HW2  603   1.315   2.280   2.646
  978SOL     OW  604   1.593   2.083   2.744
  978SOL    HW1  605   1.509   2.082   2.798
  978SOL    HW2  606   1.595   2.166   2.688
  986SOL     OW  607   1.755   2.469   3.955
  986SOL    HW1  608   1.743   2.456   3.856
  986SOL    HW2  609   1.725   2.388   4.004
 1002SOL     OW  610   1.525   2.861   3.914
 1002SOL    HW1  611   1.462   2.785   3.927
 1002SOL    HW2  612   1.573   2.879   4.000
 1019SOL     OW  613   1.632   3.239   3.805
 1019SOL    HW1  614   1.600   3.333   3.795
 1019SOL    HW2  615   1.556   3.176   3.793
 1029SOL     OW  616   1.434   3.050   3.765
 1029SOL    HW1  617   1.466   2.974   3.822
 1029SOL    HW2  618   1.342   3.077   3.795
 1040SOL     OW  619   1.857   2.695   4.101
 1040SOL    HW1  620   1.899   2.631   4.165
 1040SOL    HW2  621   1.819   2.644   4.023
 1043SOL     OW  622   1.390   2.437   3.802
 1043SOL    HW1  623   1.336   2.416   3.883
 1043SOL    HW2  624   1.481   2.396   3.811
 1061SOL     OW  625   1.540   2.136   3.849
 1061SOL    HW1  626   1.479   2.061   3.872
 1061SOL    HW2  627   1.562   2.188   3.932
 1062SOL     OW  628   1.303   2.700   3.766
 1062SOL    HW1  629   1.337   2.607   3.781
 1062SOL    HW2  630   1.321   2.727   3.671
 1279SOL     OW  631   1.400   3.831   2.288
 1279SOL    HW1  632   1.376   3.794   2.198
 1279SOL    HW2  633   1.499   3.847   2.292
 1340SOL     OW  634   1.726   3.859   2.385
 1340SOL    HW1  635   1.799   3.842   2.318
 1340SOL    HW2  636   1.695   3.772   2.423
 1342SOL     OW  637   1.841   3.899   2.825
 1342SOL    HW1  638   1.880   3.814   2.789
 1342SOL    HW2  639   1.743   3.901   2.806
 1363SOL     OW  640   1.824   3.916   3.089
 1363SOL    HW1  641   1.820   3.826   3.133
 1363SOL    HW2  642   1.827   3.905   2.990
 1368SOL     OW  643   1.352   3.776   2.030
 1368SOL    HW1  644   1.387   3.735   1.946
 1368SOL    HW2  645   1.262   3.738   2.050
 1370SOL     OW  646   1.593   3.945   2.744
 1370SOL    HW1  647   1.509   3.944   2.798
 1370SOL    HW2  648   1.595   4.028   2.688
 1456SOL     OW  649   2.431   1.275   1.165
 1456SOL    HW1  650   2.338   1.268   1.128
 1456SOL    HW2  651   2.442   1.364   1.209
 1461SOL     OW  652   2.712   0.798   1.823
 1461SOL    HW1  653   2.708   0.874   1.888
 1461SOL    HW2  654   2.734   0.834   1.732
 1463SOL     OW  655   2.548   1.161   1.803
 1463SOL    HW1  656   2.608   1.240   1.817
 1463SOL    HW2  657   2.462   1.192   1.762
 1464SOL     OW  658   2.197   1.435   1.061
 1464SOL    HW1  659   2.119   1.404   1.008
 1464SOL    HW2  660   2.255   1.493   1.004
 1465SOL     OW  661   3.322   1.505   1.339
 1465SOL    HW1  662   3.346   1.599   1.365
 1465SOL    HW2  663   3.306   1.451   1.421
 1469SOL     OW  664   2.989   1.341   1.690
 1469SOL    HW1  665   3.036   1.341   1.778
 1469SOL    HW2  666   2.941   1.254   1.679
 1472SOL     OW  667   2.482   1.786   1.439
 1472SOL    HW1  668   2.390   1.769   1.474
 1472SOL    HW2  669   2.510   1.878   1.465
 1482SOL     OW  670   3.155   1.228   1.423
 1482SOL    HW1  671   3.192   1.155   1.365
 1482SOL    HW2  672   3.207   1.233   1.508
 1486SOL     OW  673   3.049   1.792   1.616
 1486SOL    HW1  674   3.073   1.852   1.540
 1486SOL    HW2  675   3.056   1.697   1.586
 1499SOL     OW  676   1.992   1.821   1.571
 1499SOL    HW1  677   1.982   1.806   1.670
 1499SOL    HW2  678   1.906   1.857   1.535
 1505SOL     OW  679   2.213   1.801   0.853
 1505SOL    HW1  680   2.263   1.715   0.859
 1505SOL    HW2  681   2.278   1.878   0.850
 1507SOL     OW  682   3.089   1.550   1.506
 1507SOL    HW1  683   3.095   1.473   1.570
 1507SOL    HW2  684   3.037   1.524   1.426
 1510SOL     OW  685   2.323   1.266   1.727
 1510SOL    HW1  686   2.273   1.267   1.641
 1510SOL    HW2  687   2.260   1.248   1.803
 1516SOL     OW  688   2.111   1.785   1.241
 1516SOL    HW1  689   2.168   1.720   1.291
 1516SOL    HW2  690   2.095   1.752   1.148
 1517SOL     OW  691   2.802   1.698   0.904
 1517SOL    HW1  692   2.882   1.641   0.925
 1517SOL    HW2  693   2.753   1.658   0.827
 1522SOL     OW  694   2.750   1.514   1.195
 1522SOL    HW1  695   2.727   1.489   1.101
 1522SOL    HW2  696   2.811   1.445   1.234
 1547SOL     OW  697   2.926   1.347   1.340
 1547SOL    HW1  698   2.846   1.324   1.395
 1547SOL    HW2  699   3.009   1.321   1.389
 1548SOL     OW  700   3.454   1.629   1.625
 1548SOL    HW1  701   3.481   1.663   1.535
 1548SOL    HW2  702   3.533   1.591   1.671
 1552SOL     OW  703   2.842   1.116   1.719
 1552SOL    HW1  704   2.743   1.122   1.729
 1552SOL    HW2  705   2.865   1.036   1.663
 1556SOL     OW  706   1.926   1.564   1.331
 1556SOL    HW1  707   1.880   1.646   1.297
 1556SOL    HW2  708   2.024   1.583   1.340
 1560SOL     OW  709   3.134   1.445   1.142
 1560SOL    HW1  710   3.181   1.458   1.229
 1560SOL    HW2  711   3.068   1.371   1.151
 1562SOL     OW  712   2.216   1.510   1.329
 1562SOL    HW1  713   2.195   1.466   1.242
 1562SOL    HW2  714   2.313   1.536   1.332
 1571SOL     OW  715   1.899   1.310   1.282
 1571SOL    HW1  716   1.952   1.261   1.350
 1571SOL    HW2  717   1.921   1.408   1.287
 1577SOL     OW  718   2.842   1.573   1.700
 1577SOL    HW1  719   2.822   1.617   1.612
 1577SOL    HW2  720   2.881   1.482   1.684
 1578SOL     OW  721   3.721   1.518   1.605
 1578SOL    HW1  722   3.735   1.545   1.510
 1578SOL    HW2  723   3.804   1.540   1.658
 1579SOL     OW  724   2.212   0.898   1.804
 1579SOL    HW1  725   2.288   0.942   1.852
 1579SOL    HW2  726   2.247   0.851   1.722
 1588SOL     OW  727   1.950   1.801   0.927
 1588SOL    HW1  728   1.908   1.715   0.900
 1588SOL    HW2  729   2.044   1.804   0.893
 1589SOL     OW  730   2.366   1.568   0.910
 1589SOL    HW1  731   2.432   1.642   0.919
 1589SOL    HW2  732   2.410   1.489   0.868
 1596SOL     OW  733   2.114   1.564   1.744
 1596SOL    HW1  734   2.084   1.621   1.820
 1596SOL    HW2  735   2.107   1.467   1.770
 1598SOL     OW  736   2.792   1.678   1.465
 1598SOL    HW1  737   2.768   1.660   1.370
 1598SOL    HW2  738   2.822   1.772   1.475
 1600SOL     OW  739   2.021   1.137   1.466
 1600SOL    HW1  740   2.043   1.076   1.542
 1600SOL    HW2  741   2.031   1.088   1.380
 1604SOL     OW  742   3.114   1.731   1.128
 1604SOL    HW1  743   3.198   1.736   1.074
 1604SOL    HW2  744   3.091   1.635   1.146
 1606SOL     OW  745   2.550   1.662   1.716
 1606SOL    HW1  746   2.494   1.743   1.725
 1606SOL    HW2  747   2.602   1.666   1.630
 1610SOL     OW  748   1.992   1.794   1.851
 1610SOL    HW1  749   1.951   1.720   1.904
 1610SOL    HW2  750   2.056   1.845   1.909
 1612SOL     OW  751   2.692   1.273   1.422
 1612SOL    HW1  752   2.687   1.306   1.517
 1612SOL    HW2  753   2.606   1.292   1.376
 1614SOL     OW  754   3.512   1.720   1.394
 1614SOL    HW1  755   3.565   1.730   1.310
 1614SOL    HW2  756   3.485   1.810   1.428
 1621SOL     OW  757   2.234   1.288   1.490
 1621SOL    HW1  758   2.221   1.381   1.456
 1621SOL    HW2  759   2.150   1.236   1.477
 1628SOL     OW  760   1.967   1.013   1.726
 1628SOL    HW1  761   1.890   0.980   1.780
 1628SOL    HW2  762   2.052   0.983   1.768
 1636SOL     OW  763   3.312   1.220   1.633
 1636SOL    HW1  764   3.303   1.210   1.732
 1636SOL    HW2  765   3.408   1.213   1.607
 1637SOL     OW  766   2.252   1.741   1.560
 1637SOL    HW1  767   2.161   1.782   1.558
 1637SOL    HW2  768   2.245   1.647   1.592
 1644SOL     OW  769   2.523   1.790   0.953
 1644SOL    HW1  770   2.477   1.878   0.940
 1644SOL    HW2  771   2.622   1.802   0.946
 1648SOL     OW  772   2.083   1.314   1.844
 1648SOL    HW1  773   2.018   1.241   1.823
 1648SOL    HW2  774   2.087   1.328   1.942
 1650SOL     OW  775   2.534   1.391   1.624
 1650SOL    HW1  776   2.456   1.341   1.662
 1650SOL    HW2  777   2.531   1.486   1.655
 1659SOL     OW  778   2.480   1.567   1.284
 1659SOL    HW1  779   2.475   1.649   1.341
 1659SOL    HW2  780   2.569   1.564   1.239
 1668SOL     OW  781   2.431   1.275   3.027
 1668SOL    HW1  782   2.338   1.268   2.990
 1668SOL    HW2  783   2.442   1.364   3.071
 1669SOL     OW  784   3.417   1.511   2.565
 1669SOL    HW1  785   3.360   1.495   2.646
 1669SOL    HW2  786   3.358   1.521   2.485
 1672SOL     OW  787   2.630   1.144   2.885
 1672SOL    HW1  788   2.552   1.161   2.945
 1672SOL    HW2  789   2.664   1.231   2.849
 1674SOL     OW  790   2.547   1.012   2.527
 1674SOL    HW1  791   2.616   0.996   2.597
 1674SOL    HW2  792   2.474   1.069   2.565
 1675SOL     OW  793   2.548   1.161   3.665
 1675SOL    HW1  794   2.608   1.240   3.679
 1675SOL    HW2  795   2.462   1.192   3.624
 1676SOL     OW  796   2.197   1.435   2.923
 1676SOL    HW1  797   2.119   1.404   2.870
 1676SOL    HW2  798   2.255   1.493   2.866
 1677SOL     OW  799   3.322   1.505   3.201
 1677SOL    HW1  800   3.346   1.599   3.227
 1677SOL    HW2  801   3.306   1.451   3.283
 1680SOL     OW  802   2.093   1.713   2.345
 1680SOL    HW1  803   2.127   1.790   2.399
 1680SOL    HW2  804   2.137   1.713   2.255
 1681SOL     OW  805   2.989   1.341   3.552
 1681SOL    HW1  806   3.036   1.341   3.640
 1681SOL    HW2  807   2.941   1.254   3.541
 1682SOL     OW  808   2.092   1.434   2.400
 1682SOL    HW1  809   2.066   1.530   2.400
 1682SOL    HW2  810   2.021   1.380   2.445
 1683SOL     OW  811   2.102   1.091   2.748
 1683SOL    HW1  812   2.116   1.007   2.800
 1683SOL    HW2  813   2.047   1.155   2.803
 1684SOL     OW  814   2.482   1.786   3.301
 1684SOL    HW1  815   2.390   1.769   3.336
 1684SOL    HW2  816   2.510   1.878   3.327
 1685SOL     OW  817   2.468   0.964   1.985
 1685SOL    HW1  818   2.475   1.048   1.931
 1685SOL    HW2  819   2.514   0.977   2.073
 1688SOL     OW  820   3.704   1.767   2.221
 1688SOL    HW1  821   3.758   1.738   2.301
 1688SOL    HW2  822   3.734   1.857   2.192
 1689SOL     OW  823   1.889   1.596   1.979
 1689SOL    HW1  824   1.870   1.500   2.000
 1689SOL    HW2  825   1.856   1.654   2.054
 1691SOL     OW  826   3.503   1.108   2.294
 1691SOL    HW1  827   3.589   1.110   2.242
 1691SOL    HW2  828   3.517   1.155   2.382
 1693SOL     OW  829   2.475   1.365   2.588
 1693SOL    HW1  830   2.426   1.278   2.597
 1693SOL    HW2  831   2.452   1.408   2.501
 1694SOL     OW  832   3.155   1.228   3.285
 1694SOL    HW1  833   3.192   1.155   3.227
 1694SOL    HW2  834   3.207   1.233   3.370
 1696SOL     OW  835   2.059   0.976   3.126
 1696SOL    HW1  836   2.148   0.931   3.112
 1696SOL    HW2  837   1.986   0.911   3.107
 1697SOL     OW  838   3.387   0.999   2.052
 1697SOL    HW1  839   3.324   0.923   2.065
 1697SOL    HW2  840   3.435   1.017   2.138
 1698SOL     OW  841   3.049   1.792   3.478
 1698SOL    HW1  842   3.073   1.852   3.402
 1698SOL    HW2  843   3.056   1.697   3.448
 1700SOL     OW  844   3.328   1.417   2.815
 1700SOL    HW1  845   3.269   1.423   2.895
 1700SOL    HW2  846   3.313   1.329   2.769
 1701SOL     OW  847   3.529   1.714   2.434
 1701SOL    HW1  848   3.488   1.691   2.346
 1701SOL    HW2  849   3.511   1.640   2.499
 1702SOL     OW  850   2.460   0.729   2.132
 1702SOL    HW1  851   2.484   0.798   2.064
 1702SOL    HW2  852   2.382   0.762   2.186
 1704SOL     OW  853   3.438   1.662   2.169
 1704SOL    HW1  854   3.527   1.708   2.172
 1704SOL    HW2  855   3.417   1.638   2.074
 1710SOL     OW  856   1.938   0.811   2.651
 1710SOL    HW1  857   2.037   0.799   2.660
 1710SOL    HW2  858   1.914   0.906   2.672
 1711SOL     OW  859   1.992   1.821   3.433
 1711SOL    HW1  860   1.982   1.806   3.532
 1711SOL    HW2  861   1.906   1.857   3.397
 1714SOL     OW  862   3.224   1.144   2.407
 1714SOL    HW1  863   3.307   1.115   2.359
 1714SOL    HW2  864   3.175   1.211   2.351
 1716SOL     OW  865   2.870   1.456   2.339
 1716SOL    HW1  866   2.824   1.528   2.287
 1716SOL    HW2  867   2.866   1.476   2.437
 1717SOL     OW  868   2.213   1.801   2.715
 1717SOL    HW1  869   2.263   1.715   2.721
 1717SOL    HW2  870   2.278   1.878   2.712
 1719SOL     OW  871   3.089   1.550   3.368
 1719SOL    HW1  872   3.095   1.473   3.432
 1719SOL    HW2  873   3.037   1.524   3.288
 1720SOL     OW  874   2.183   0.943   2.104
 1720SOL    HW1  875   2.265   0.982   2.062
 1720SOL    HW2  876   2.156   0.861   2.055
 1722SOL     OW  877   2.323   1.266   3.589
 1722SOL    HW1  878   2.273   1.267   3.503
 1722SOL    HW2  879   2.260   1.248   3.665
 1723SOL     OW  880   2.973   1.776   2.099
 1723SOL    HW1  881   2.913   1.714   2.149
 1723SOL    HW2  882   3.004   1.732   2.014
 1725SOL     OW  883   3.494   1.377   1.943
 1725SOL    HW1  884   3.462   1.471   1.933
 1725SOL    HW2  885   3.418   1.314   1.931
 1726SOL     OW  886   2.326   1.743   2.185
 1726SOL    HW1  887   2.359   1.782   2.271
 1726SOL    HW2  888   2.402   1.736   2.120
 1728SOL     OW  889   2.111   1.785   3.103
 1728SOL    HW1  890   2.168   1.720   3.153
 1728SOL    HW2  891   2.095   1.752   3.010
 1729SOL     OW  892   2.802   1.698   2.766
 1729SOL    HW1  893   2.882   1.641   2.787
 1729SOL    HW2  894   2.753   1.658   2.689
 1730SOL     OW  895   2.244   0.700   2.342
 1730SOL    HW1  896   2.289   0.610   2.339
 1730SOL    HW2  897   2.150   0.689   2.375
 1734SOL     OW  898   2.750   1.514   3.057
 1734SOL    HW1  899   2.727   1.489   2.963
 1734SOL    HW2  900   2.811   1.445   3.096
 1736SOL     OW  901   2.665   1.402   2.786
 1736SOL    HW1  902   2.755   1.416   2.744
 1736SOL    HW2  903   2.594   1.404   2.715
 1739SOL     OW  904   3.296   1.188   1.903
 1739SOL    HW1  905   3.328   1.112   1.960
 1739SOL    HW2  906   3.204   1.215   1.933
 1743SOL     OW  907   3.089   1.570   2.655
 1743SOL    HW1  908   3.110   1.644   2.590
 1743SOL    HW2  909   3.157   1.570   2.728
 1744SOL     OW  910   2.321   1.152   2.603
 1744SOL    HW1  911   2.250   1.125   2.668
 1744SOL    HW2  912   2.295   1.124   2.510
 1745SOL     OW  913   3.133   1.797   2.453
 1745SOL    HW1  914   3.177   1.861   2.389
 1745SOL    HW2  915   3.083   1.849   2.523
 1751SOL     OW  916   3.291   1.173   2.729
 1751SOL    HW1  917   3.236   1.089   2.722
 1751SOL    HW2  918   3.317   1.202   2.637
 1754SOL     OW  919   2.350   1.385   2.036
 1754SOL    HW1  920   2.263   1.370   2.083
 1754SOL    HW2  921   2.333   1.411   1.941
 1755SOL     OW  922   3.526   1.280   2.519
 1755SOL    HW1  923   3.625   1.288   2.533
 1755SOL    HW2  924   3.481   1.364   2.550
 1759SOL     OW  925   2.926   1.347   3.202
 1759SOL    HW1  926   2.846   1.324   3.257
 1759SOL    HW2  927   3.009   1.321   3.251
 1760SOL     OW  928   3.454   1.629   3.487
 1760SOL    HW1  929   3.481   1.663   3.397
 1760SOL    HW2  930   3.533   1.591   3.533
 1761SOL     OW  931   2.973   1.195   2.962
 1761SOL    HW1  932   2.933   1.239   3.043
 1761SOL    HW2  933   2.932   1.232   2.879
 1762SOL     OW  934   3.500   1.099   2.941
 1762SOL    HW1  935   3.505   1.180   3.000
 1762SOL    HW2  936   3.414   1.101   2.890
 1764SOL     OW  937   2.842   1.116   3.581
 1764SOL    HW1  938   2.743   1.122   3.591
 1764SOL    HW2  939   2.865   1.036   3.525
 1765SOL     OW  940   2.567   1.050   2.230
 1765SOL    HW1  941   2.553   1.057   2.329
 1765SOL    HW2  942   2.651   0.999   2.212
 1766SOL     OW  943   2.272   0.813   3.113
 1766SOL    HW1  944   2.358   0.825   3.163
 1766SOL    HW2  945   2.230   0.726   3.140
 1768SOL     OW  946   1.926   1.564   3.193
 1768SOL    HW1  947   1.880   1.646   3.159
 1768SOL    HW2  948   2.024   1.583   3.202
 1769SOL     OW  949   2.229   1.100   2.363
 1769SOL    HW1  950   2.222   1.183   2.307
 1769SOL    HW2  951   2.233   1.020   2.303
 1771SOL     OW  952   3.114   1.348   2.250
 1771SOL    HW1  953   3.164   1.425   2.290
 1771SOL    HW2  954   3.019   1.350   2.282
 1772SOL     OW  955   3.134   1.445   3.004
 1772SOL    HW1  956   3.181   1.458   3.091
 1772SOL    HW2  957   3.068   1.371   3.013
 1774SOL     OW  958   2.216   1.510   3.191
 1774SOL    HW1  959   2.195   1.466   3.104
 1774SOL    HW2  960   2.313   1.536   3.194
 1779SOL     OW  961   2.435   0.870   2.891
 1779SOL    HW1  962   2.479   0.959   2.882
 1779SOL    HW2  963   2.372   0.870   2.968
 1783SOL     OW  964   1.899   1.310   3.144
 1783SOL    HW1  965   1.952   1.261   3.212
 1783SOL    HW2  966   1.921   1.408   3.149
 1788SOL     OW  967   2.885   0.766   2.828
 1788SOL    HW1  968   2.900   0.787   2.924
 1788SOL    HW2  969   2.855   0.671   2.819
 1789SOL     OW  970   2.842   1.573   3.562
 1789SOL    HW1  971   2.822   1.617   3.474
 1789SOL    HW2  972   2.881   1.482   3.546
 1794SOL     OW  973   2.930   1.333   2.711
 1794SOL    HW1  974   2.937   1.249   2.656
 1794SOL    HW2  975   2.992   1.402   2.675
 1795SOL     OW  976   2.181   0.810   2.811
 1795SOL    HW1  977   2.274   0.846   2.816
 1795SOL    HW2  978   2.175   0.725   2.863
 1799SOL     OW  979   1.870   1.326   2.062
 1799SOL    HW1  980   1.777   1.347   2.031
 1799SOL    HW2  981   1.880   1.227   2.075
 1800SOL     OW  982   1.950   1.801   2.789
 1800SOL    HW1  983   1.908   1.715   2.762
 1800SOL    HW2  984   2.044   1.804   2.755
 1801SOL     OW  985   2.366   1.568   2.772
 1801SOL    HW1  986   2.432   1.642   2.781
 1801SOL    HW2  987   2.410   1.489   2.730
 1808SOL     OW  988   2.114   1.564   3.606
 1808SOL    HW1  989   2.084   1.621   3.682
 1808SOL    HW2  990   2.107   1.467   3.632
 1810SOL     OW  991   2.792   1.678   3.327
 1810SOL    HW1  992   2.768   1.660   3.232
 1810SOL    HW2  993   2.822   1.772   3.337
 1812SOL     OW  994   2.021   1.137   3.328
 1812SOL    HW1  995   2.043   1.076   3.404
 1812SOL    HW2  996   2.031   1.088   3.242
 1813SOL     OW  997   3.209   1.059   3.096
 1813SOL    HW1  998   3.233   0.996   3.022
 1813SOL    HW2  999   3.119   1.099   3.078
 1814SOL     OW 1000   3.164   0.855   2.171
 1814SOL    HW1 1001   3.078   0.824   2.213
 1814SOL    HW2 1002   3.160   0.841   2.072
 1815SOL     OW 1003   3.621   1.747   3.016
 1815SOL    HW1 1004   3.682   1.777   2.943
 1815SOL    HW2 1005   3.583   1.658   2.994
 1816SOL     OW 1006   3.114   1.731   2.990
 1816SOL    HW1 1007   3.198   1.736   2.936
 1816SOL    HW2 1008   3.091   1.635   3.008
 1817SOL     OW 1009   1.945   1.258   2.884
 1817SOL    HW1 1010   1.940   1.257   2.984
 1817SOL    HW2 1011   1.862   1.217   2.846
 1818SOL     OW 1012   2.550   1.662   3.578
 1818SOL    HW1 1013   2.494   1.743   3.587
 1818SOL    HW2 1014   2.602   1.666   3.492
 1820SOL     OW 1015   3.250   1.573   2.339
 1820SOL    HW1 1016   3.317   1.585   2.265
 1820SOL    HW2 1017   3.210   1.662   2.362
 1821SOL     OW 1018   1.992   1.794   3.713
 1821SOL    HW1 1019   1.951   1.720   3.766
 1821SOL    HW2 1020   2.056   1.845   3.771
 1822SOL     OW 1021   3.142   0.927   2.534
 1822SOL    HW1 1022   3.202   0.846   2.536
 1822SOL    HW2 1023   3.182   0.996   2.474
 1823SOL     OW 1024   2.692   1.273   3.284
 1823SOL    HW1 1025   2.687   1.306   3.379
 1823SOL    HW2 1026   2.606   1.292   3.238
 1824SOL     OW 1027   2.534   1.616   2.016
 1824SOL    HW1 1028   2.543   1.626   1.917
 1824SOL    HW2 1029   2.494   1.527   2.037
 1825SOL     OW 1030   3.512   1.720   3.256
 1825SOL    HW1 1031   3.565   1.730   3.172
 1825SOL    HW2 1032   3.485   1.810   3.290
 1828SOL     OW 1033   3.056   1.612   1.893
 1828SOL    HW1 1034   3.062   1.519   1.930
 1828SOL    HW2 1035   2.997   1.612   1.813
 1829SOL     OW 1036   2.684   1.002   3.234
 1829SOL    HW1 1037   2.724   1.001   3.142
 1829SOL    HW2 1038   2.694   1.094   3.274
 1830SOL     OW 1039   2.778   0.910   2.153
 1830SOL    HW1 1040   2.841   0.948   2.085
 1830SOL    HW2 1041   2.818   0.827   2.192
 1831SOL     OW 1042   3.366   1.607   1.906
 1831SOL    HW1 1043   3.274   1.644   1.913
 1831SOL    HW2 1044   3.404   1.627   1.816
 1832SOL     OW 1045   2.234   1.288   3.352
 1832SOL    HW1 1046   2.221   1.381   3.318
 1832SOL    HW2 1047   2.150   1.236   3.339
 1833SOL     OW 1048   3.476   1.292   3.151
 1833SOL    HW1 1049   3.536   1.295   3.231
 1833SOL    HW2 1050   3.401   1.356   3.164
 1834SOL     OW 1051   2.901   1.098   2.558
 1834SOL    HW1 1052   2.831   1.051   2.612
 1834SOL    HW2 1053   2.960   1.030   2.515
 1836SOL     OW 1054   2.452   1.487   2.353
 1836SOL    HW1 1055   2.494   1.429   2.283
 1836SOL    HW2 1056   2.408   1.566   2.309
 1838SOL     OW 1057   2.117   1.348   2.152
 1838SOL    HW1 1058   2.021   1.349   2.125
 1838SOL    HW2 1059   2.129   1.401   2.236
 1844SOL     OW 1060   3.045   1.335   1.981
 1844SOL    HW1 1061   2.946   1.324   1.983
 1844SOL    HW2 1062   3.079   1.350   2.074
 1846SOL     OW 1063   3.355   1.767   2.821
 1846SOL    HW1 1064   3.388   1.831   2.752
 1846SOL    HW2 1065   3.421   1.761   2.896
 1849SOL     OW 1066   2.252   1.741   3.422
 1849SOL    HW1 1067   2.161   1.782   3.420
 1849SOL    HW2 1068   2.245   1.647   3.454
 1852SOL     OW 1069   2.456   0.745   2.514
 1852SOL    HW1 1070   2.506   0.830   2.495
 1852SOL    HW2 1071   2.368   0.747   2.466
 1855SOL     OW 1072   2.721   1.374   1.878
 1855SOL    HW1 1073   2.675   1.389   1.966
 1855SOL    HW2 1074   2.765   1.459   1.848
 1856SOL     OW 1075   2.523   1.790   2.815
 1856SOL    HW1 1076   2.477   1.878   2.802
 1856SOL    HW2 1077   2.622   1.802   2.808
 1857SOL     OW 1078   2.721   0.956   2.723
 1857SOL    HW1 1079   2.775   0.887   2.771
 1857SOL    HW2 1080   2.689   1.025   2.789
 1858SOL     OW 1081   2.945   0.984   1.949
 1858SOL    HW1 1082   2.922   1.037   1.867
 1858SOL    HW2 1083   3.026   0.928   1.930
 1859SOL     OW 1084   3.723   1.569   2.713
 1859SOL    HW1 1085   3.652   1.557   2.643
 1859SOL    HW2 1086   3.724   1.490   2.773
 1860SOL     OW 1087   2.083   1.314   3.706
 1860SOL    HW1 1088   2.018   1.241   3.685
 1860SOL    HW2 1089   2.087   1.328   3.804
 1861SOL     OW 1090   1.941   1.240   2.515
 1861SOL    HW1 1091   1.940   1.193   2.603
 1861SOL    HW2 1092   2.023   1.212   2.464
 1862SOL     OW 1093   2.534   1.391   3.486
 1862SOL    HW1 1094   2.456   1.341   3.524
 1862SOL    HW2 1095   2.531   1.486   3.517
 1865SOL     OW 1096   3.567   1.487   2.966
 1865SOL    HW1 1097   3.474   1.462   2.939
 1865SOL    HW2 1098   3.593   1.437   3.048
 1867SOL     OW 1099   2.674   1.586   2.549
 1867SOL    HW1 1100   2.706   1.596   2.455
 1867SOL    HW2 1101   2.595   1.524   2.551
 1870SOL     OW 1102   2.632   1.330   2.163
 1870SOL    HW1 1103   2.586   1.243   2.180
 1870SOL    HW2 1104   2.723   1.327   2.204
 1871SOL     OW 1105   2.480   1.567   3.146
 1871SOL    HW1 1106   2.475   1.649   3.203
 1871SOL    HW2 1107   2.569   1.564   3.101
 1875SOL     OW 1108   1.901   1.077   2.162
 1875SOL    HW1 1109   2.000   1.066   2.153
 1875SOL    HW2 1110   1.861   0.991   2.194
 1876SOL     OW 1111   2.737   1.646   2.199
 1876SOL    HW1 1112   2.660   1.611   2.145
 1876SOL    HW2 1113   2.705   1.717   2.261
 1893SOL     OW 1114   1.889   1.596   3.841
 1893SOL    HW1 1115   1.870   1.500   3.862
 1893SOL    HW2 1116   1.856   1.654   3.916
 1914SOL     OW 1117   2.973   1.776   3.961
 1914SOL    HW1 1118   2.913   1.714   4.011
 1914SOL    HW2 1119   3.004   1.732   3.876
 1916SOL     OW 1120   2.326   1.743   4.047
 1916SOL    HW1 1121   2.359   1.782   4.133
 1916SOL    HW2 1122   2.402   1.736   3.982
 1975SOL     OW 1123   2.534   1.616   3.878
 1975SOL    HW1 1124   2.543   1.626   3.779
 1975SOL    HW2 1125   2.494   1.527   3.899
 1978SOL     OW 1126   3.056   1.612   3.755
 1978SOL    HW1 1127   3.062   1.519   3.792
 1978SOL    HW2 1128   2.997   1.612   3.675
 1992SOL     OW 1129   2.721   1.374   3.740
 1992SOL    HW1 1130   2.675   1.389   3.828
 1992SOL    HW2 1131   2.765   1.459   3.710
 2009SOL     OW 1132   2.087   2.137   0.996
 2009SOL    HW1 1133   2.122   2.120   1.088
 2009SOL    HW2 1134   1.999   2.092   0.984
 2011SOL     OW 1135   2.431   3.137   1.165
 2011SOL    HW1 1136   2.338   3.130   1.128
 2011SOL    HW2 1137   2.442   3.226   1.209
 2015SOL     OW 1138   2.630   3.006   1.023
 2015SOL    HW1 1139   2.552   3.023   1.083
 2015SOL    HW2 1140   2.664   3.093   0.987
 2016SOL     OW 1141   2.712   2.660   1.823
 2016SOL    HW1 1142   2.708   2.736   1.888
 2016SOL    HW2 1143   2.734   2.696   1.732
 2018SOL     OW 1144   2.548   3.023   1.803
 2018SOL    HW1 1145   2.608   3.102   1.817
 2018SOL    HW2 1146   2.462   3.054   1.762
 2019SOL     OW 1147   2.197   3.297   1.061
 2019SOL    HW1 1148   2.119   3.266   1.008
 2019SOL    HW2 1149   2.255   3.355   1.004
 2020SOL     OW 1150   3.322   3.367   1.339
 2020SOL    HW1 1151   3.346   3.461   1.365
 2020SOL    HW2 1152   3.306   3.313   1.421
 2021SOL     OW 1153   2.300   2.254   1.499
 2021SOL    HW1 1154   2.382   2.198   1.508
 2021SOL    HW2 1155   2.219   2.196   1.503
 2024SOL     OW 1156   2.989   3.203   1.690
 2024SOL    HW1 1157   3.036   3.203   1.778
 2024SOL    HW2 1158   2.941   3.116   1.679
 2026SOL     OW 1159   2.102   2.953   0.886
 2026SOL    HW1 1160   2.116   2.869   0.938
 2026SOL    HW2 1161   2.047   3.017   0.941
 2027SOL     OW 1162   2.482   3.648   1.439
 2027SOL    HW1 1163   2.390   3.631   1.474
 2027SOL    HW2 1164   2.510   3.740   1.465
 2029SOL     OW 1165   3.456   1.976   1.480
 2029SOL    HW1 1166   3.438   2.043   1.408
 2029SOL    HW2 1167   3.453   2.022   1.569
 2035SOL     OW 1168   1.975   2.599   1.597
 2035SOL    HW1 1169   2.063   2.586   1.642
 2035SOL    HW2 1170   1.962   2.696   1.575
 2037SOL     OW 1171   3.155   3.090   1.423
 2037SOL    HW1 1172   3.192   3.017   1.365
 2037SOL    HW2 1173   3.207   3.095   1.508
 2039SOL     OW 1174   2.059   2.838   1.264
 2039SOL    HW1 1175   2.148   2.793   1.250
 2039SOL    HW2 1176   1.986   2.773   1.245
 2041SOL     OW 1177   3.049   3.654   1.616
 2041SOL    HW1 1178   3.073   3.714   1.540
 2041SOL    HW2 1179   3.056   3.559   1.586
 2042SOL     OW 1180   2.179   2.113   1.801
 2042SOL    HW1 1181   2.250   2.184   1.807
 2042SOL    HW2 1182   2.091   2.152   1.829
 2046SOL     OW 1183   3.143   2.207   0.944
 2046SOL    HW1 1184   3.057   2.157   0.931
 2046SOL    HW2 1185   3.205   2.153   1.000
 2048SOL     OW 1186   2.669   2.467   1.465
 2048SOL    HW1 1187   2.622   2.464   1.554
 2048SOL    HW2 1188   2.618   2.412   1.399
 2049SOL     OW 1189   3.256   2.331   1.674
 2049SOL    HW1 1190   3.236   2.374   1.762
 2049SOL    HW2 1191   3.334   2.269   1.683
 2050SOL     OW 1192   2.835   2.752   1.572
 2050SOL    HW1 1193   2.881   2.668   1.543
 2050SOL    HW2 1194   2.779   2.786   1.497
 2051SOL     OW 1195   2.853   2.272   1.242
 2051SOL    HW1 1196   2.776   2.306   1.296
 2051SOL    HW2 1197   2.819   2.221   1.163
 2053SOL     OW 1198   1.938   2.673   0.789
 2053SOL    HW1 1199   2.037   2.661   0.798
 2053SOL    HW2 1200   1.914   2.768   0.810
 2054SOL     OW 1201   1.992   3.683   1.571
 2054SOL    HW1 1202   1.982   3.668   1.670
 2054SOL    HW2 1203   1.906   3.719   1.535
 2056SOL     OW 1204   3.581   2.447   1.831
 2056SOL    HW1 1205   3.555   2.536   1.795
 2056SOL    HW2 1206   3.579   2.379   1.758
 2058SOL     OW 1207   2.412   2.058   0.885
 2058SOL    HW1 1208   2.407   2.053   0.985
 2058SOL    HW2 1209   2.414   2.154   0.856
 2062SOL     OW 1210   3.089   3.412   1.506
 2062SOL    HW1 1211   3.095   3.335   1.570
 2062SOL    HW2 1212   3.037   3.386   1.426
 2065SOL     OW 1213   2.323   3.128   1.727
 2065SOL    HW1 1214   2.273   3.129   1.641
 2065SOL    HW2 1215   2.260   3.110   1.803
 2067SOL     OW 1216   2.064   2.147   1.498
 2067SOL    HW1 1217   1.984   2.207   1.485
 2067SOL    HW2 1218   2.054   2.098   1.584
 2071SOL     OW 1219   2.111   3.647   1.241
 2071SOL    HW1 1220   2.168   3.582   1.291
 2071SOL    HW2 1221   2.095   3.614   1.148
 2074SOL     OW 1222   3.409   2.084   1.729
 2074SOL    HW1 1223   3.404   2.121   1.821
 2074SOL    HW2 1224   3.337   2.015   1.717
 2076SOL     OW 1225   2.643   2.126   1.749
 2076SOL    HW1 1226   2.710   2.065   1.792
 2076SOL    HW2 1227   2.570   2.145   1.814
 2077SOL     OW 1228   2.750   3.376   1.195
 2077SOL    HW1 1229   2.727   3.351   1.101
 2077SOL    HW2 1230   2.811   3.307   1.234
 2078SOL     OW 1231   3.213   2.452   1.433
 2078SOL    HW1 1232   3.241   2.409   1.518
 2078SOL    HW2 1233   3.238   2.548   1.434
 2079SOL     OW 1234   2.665   3.264   0.924
 2079SOL    HW1 1235   2.755   3.278   0.882
 2079SOL    HW2 1236   2.594   3.266   0.853
 2080SOL     OW 1237   2.784   2.365   0.899
 2080SOL    HW1 1238   2.759   2.356   0.803
 2080SOL    HW2 1239   2.832   2.283   0.930
 2084SOL     OW 1240   2.938   2.545   1.464
 2084SOL    HW1 1241   2.858   2.484   1.467
 2084SOL    HW2 1242   3.019   2.492   1.440
 2089SOL     OW 1243   1.940   2.418   1.386
 2089SOL    HW1 1244   2.032   2.417   1.345
 2089SOL    HW2 1245   1.934   2.492   1.453
 2090SOL     OW 1246   2.423   2.084   1.147
 2090SOL    HW1 1247   2.461   2.000   1.184
 2090SOL    HW2 1248   2.335   2.103   1.191
 2094SOL     OW 1249   3.328   2.452   0.992
 2094SOL    HW1 1250   3.298   2.357   0.999
 2094SOL    HW2 1251   3.401   2.468   1.058
 2100SOL     OW 1252   3.616   3.085   1.588
 2100SOL    HW1 1253   3.707   3.046   1.575
 2100SOL    HW2 1254   3.624   3.181   1.612
 2101SOL     OW 1255   2.926   3.209   1.340
 2101SOL    HW1 1256   2.846   3.186   1.395
 2101SOL    HW2 1257   3.009   3.183   1.389
 2102SOL     OW 1258   3.454   3.491   1.625
 2102SOL    HW1 1259   3.481   3.525   1.535
 2102SOL    HW2 1260   3.533   3.453   1.671
 2103SOL     OW 1261   2.973   3.057   1.100
 2103SOL    HW1 1262   2.933   3.101   1.181
 2103SOL    HW2 1263   2.932   3.094   1.017
 2105SOL     OW 1264   2.777   1.951   1.402
 2105SOL    HW1 1265   2.802   1.931   1.307
 2105SOL    HW2 1266   2.849   2.007   1.444
 2106SOL     OW 1267   2.842   2.978   1.719
 2106SOL    HW1 1268   2.743   2.984   1.729
 2106SOL    HW2 1269   2.865   2.898   1.663
 2108SOL     OW 1270   2.272   2.675   1.251
 2108SOL    HW1 1271   2.358   2.687   1.301
 2108SOL    HW2 1272   2.230   2.588   1.278
 2109SOL     OW 1273   3.136   2.248   1.262
 2109SOL    HW1 1274   3.157   2.322   1.326
 2109SOL    HW2 1275   3.047   2.265   1.219
 2110SOL     OW 1276   1.926   3.426   1.331
 2110SOL    HW1 1277   1.880   3.508   1.297
 2110SOL    HW2 1278   2.024   3.445   1.340
 2112SOL     OW 1279   2.428   2.399   0.865
 2112SOL    HW1 1280   2.440   2.465   0.791
 2112SOL    HW2 1281   2.474   2.433   0.948
 2114SOL     OW 1282   3.134   3.307   1.142
 2114SOL    HW1 1283   3.181   3.320   1.229
 2114SOL    HW2 1284   3.068   3.233   1.151
 2116SOL     OW 1285   2.216   3.372   1.329
 2116SOL    HW1 1286   2.195   3.328   1.242
 2116SOL    HW2 1287   2.313   3.398   1.332
 2117SOL     OW 1288   2.264   2.613   1.598
 2117SOL    HW1 1289   2.332   2.668   1.551
 2117SOL    HW2 1290   2.304   2.525   1.625
 2118SOL     OW 1291   3.449   2.641   1.670
 2118SOL    HW1 1292   3.357   2.679   1.665
 2118SOL    HW2 1293   3.509   2.688   1.605
 2119SOL     OW 1294   2.875   1.967   1.770
 2119SOL    HW1 1295   2.881   2.052   1.718
 2119SOL    HW2 1296   2.907   1.891   1.713
 2120SOL     OW 1297   2.366   1.912   1.740
 2120SOL    HW1 1298   2.324   1.855   1.670
 2120SOL    HW2 1299   2.300   1.981   1.772
 2121SOL     OW 1300   2.435   2.732   1.029
 2121SOL    HW1 1301   2.479   2.821   1.020
 2121SOL    HW2 1302   2.372   2.732   1.106
 2122SOL     OW 1303   3.222   2.724   1.045
 2122SOL    HW1 1304   3.147   2.724   0.979
 2122SOL    HW2 1305   3.259   2.632   1.054
 2124SOL     OW 1306   2.169   2.075   1.231
 2124SOL    HW1 1307   2.146   2.112   1.321
 2124SOL    HW2 1308   2.139   1.980   1.225
 2125SOL     OW 1309   1.899   3.172   1.282
 2125SOL    HW1 1310   1.952   3.123   1.350
 2125SOL    HW2 1311   1.921   3.270   1.287
 2126SOL     OW 1312   2.594   2.496   1.064
 2126SOL    HW1 1313   2.653   2.470   0.988
 2126SOL    HW2 1314   2.566   2.592   1.053
 2127SOL     OW 1315   3.590   2.797   1.854
 2127SOL    HW1 1316   3.544   2.790   1.765
 2127SOL    HW2 1317   3.528   2.841   1.920
 2130SOL     OW 1318   2.885   2.628   0.966
 2130SOL    HW1 1319   2.900   2.649   1.062
 2130SOL    HW2 1320   2.855   2.533   0.957
 2131SOL     OW 1321   2.842   3.435   1.700
 2131SOL    HW1 1322   2.822   3.479   1.612
 2131SOL    HW2 1323   2.881   3.344   1.684
 2132SOL     OW 1324   3.721   3.380   1.605
 2132SOL    HW1 1325   3.735   3.407   1.510
 2132SOL    HW2 1326   3.804   3.402   1.658
 2133SOL     OW 1327   2.212   2.760   1.804
 2133SOL    HW1 1328   2.288   2.804   1.852
 2133SOL    HW2 1329   2.247   2.713   1.722
 2137SOL     OW 1330   2.181   2.672   0.949
 2137SOL    HW1 1331   2.274   2.708   0.954
 2137SOL    HW2 1332   2.175   2.587   1.001
 2138SOL     OW 1333   2.201   2.371   1.006
 2138SOL    HW1 1334   2.149   2.288   0.989
 2138SOL    HW2 1335   2.278   2.376   0.942
 2139SOL     OW 1336   3.000   2.242   1.678
 2139SOL    HW1 1337   2.955   2.305   1.742
 2139SOL    HW2 1338   3.093   2.273   1.661
 2140SOL     OW 1339   3.022   2.069   1.477
 2140SOL    HW1 1340   3.022   2.133   1.554
 2140SOL    HW2 1341   3.050   2.117   1.394
 2144SOL     OW 1342   2.864   2.658   1.238
 2144SOL    HW1 1343   2.905   2.626   1.324
 2144SOL    HW2 1344   2.768   2.631   1.235
 2145SOL     OW 1345   1.902   2.406   1.114
 2145SOL    HW1 1346   1.987   2.373   1.073
 2145SOL    HW2 1347   1.915   2.421   1.212
 2146SOL     OW 1348   2.051   2.382   1.722
 2146SOL    HW1 1349   2.110   2.342   1.652
 2146SOL    HW2 1350   1.993   2.453   1.681
 2147SOL     OW 1351   3.231   2.812   1.660
 2147SOL    HW1 1352   3.270   2.901   1.680
 2147SOL    HW2 1353   3.241   2.792   1.563
 2149SOL     OW 1354   3.519   2.466   1.206
 2149SOL    HW1 1355   3.481   2.397   1.268
 2149SOL    HW2 1356   3.601   2.430   1.162
 2150SOL     OW 1357   2.114   3.426   1.744
 2150SOL    HW1 1358   2.084   3.483   1.820
 2150SOL    HW2 1359   2.107   3.329   1.770
 2151SOL     OW 1360   2.533   2.326   1.269
 2151SOL    HW1 1361   2.499   2.237   1.239
 2151SOL    HW2 1362   2.559   2.380   1.189
 2152SOL     OW 1363   2.792   3.540   1.465
 2152SOL    HW1 1364   2.768   3.522   1.370
 2152SOL    HW2 1365   2.822   3.634   1.475
 2154SOL     OW 1366   2.021   2.999   1.466
 2154SOL    HW1 1367   2.043   2.938   1.542
 2154SOL    HW2 1368   2.031   2.950   1.380
 2155SOL     OW 1369   3.209   2.921   1.234
 2155SOL    HW1 1370   3.233   2.858   1.160
 2155SOL    HW2 1371   3.119   2.961   1.216
 2159SOL     OW 1372   1.945   3.120   1.022
 2159SOL    HW1 1373   1.940   3.119   1.122
 2159SOL    HW2 1374   1.862   3.079   0.984
 2160SOL     OW 1375   2.550   3.524   1.716
 2160SOL    HW1 1376   2.494   3.605   1.725
 2160SOL    HW2 1377   2.602   3.528   1.630
 2164SOL     OW 1378   1.992   3.656   1.851
 2164SOL    HW1 1379   1.951   3.582   1.904
 2164SOL    HW2 1380   2.056   3.707   1.909
 2166SOL     OW 1381   2.692   3.135   1.422
 2166SOL    HW1 1382   2.687   3.168   1.517
 2166SOL    HW2 1383   2.606   3.154   1.376
 2170SOL     OW 1384   2.125   2.188   0.720
 2170SOL    HW1 1385   2.046   2.239   0.686
 2170SOL    HW2 1386   2.116   2.173   0.818
 2172SOL     OW 1387   2.684   2.864   1.372
 2172SOL    HW1 1388   2.724   2.863   1.280
 2172SOL    HW2 1389   2.694   2.956   1.412
 2175SOL     OW 1390   2.234   3.150   1.490
 2175SOL    HW1 1391   2.221   3.243   1.456
 2175SOL    HW2 1392   2.150   3.098   1.477
 2176SOL     OW 1393   3.476   3.154   1.289
 2176SOL    HW1 1394   3.536   3.157   1.369
 2176SOL    HW2 1395   3.401   3.218   1.302
 2178SOL     OW 1396   2.876   2.098   0.971
 2178SOL    HW1 1397   2.868   2.062   0.878
 2178SOL    HW2 1398   2.874   2.022   1.036
 2180SOL     OW 1399   3.571   2.247   1.381
 2180SOL    HW1 1400   3.644   2.316   1.385
 2180SOL    HW2 1401   3.599   2.172   1.322
 2182SOL     OW 1402   1.967   2.875   1.726
 2182SOL    HW1 1403   1.890   2.842   1.780
 2182SOL    HW2 1404   2.052   2.845   1.768
 2183SOL     OW 1405   2.534   2.065   1.489
 2183SOL    HW1 1406   2.624   2.049   1.449
 2183SOL    HW2 1407   2.542   2.070   1.588
 2184SOL     OW 1408   3.302   2.718   1.398
 2184SOL    HW1 1409   3.245   2.770   1.335
 2184SOL    HW2 1410   3.398   2.730   1.374
 2187SOL     OW 1411   2.475   2.704   1.431
 2187SOL    HW1 1412   2.531   2.785   1.414
 2187SOL    HW2 1413   2.534   2.624   1.434
 2189SOL     OW 1414   2.578   2.427   1.708
 2189SOL    HW1 1415   2.597   2.492   1.782
 2189SOL    HW2 1416   2.638   2.347   1.717
 2190SOL     OW 1417   3.312   3.082   1.633
 2190SOL    HW1 1418   3.303   3.072   1.732
 2190SOL    HW2 1419   3.408   3.075   1.607
 2191SOL     OW 1420   2.252   3.603   1.560
 2191SOL    HW1 1421   2.161   3.644   1.558
 2191SOL    HW2 1422   2.245   3.509   1.592
 2192SOL     OW 1423   3.536   2.745   1.254
 2192SOL    HW1 1424   3.509   2.656   1.217
 2192SOL    HW2 1425   3.537   2.813   1.181
 2195SOL     OW 1426   3.639   2.204   1.642
 2195SOL    HW1 1427   3.622   2.235   1.548
 2195SOL    HW2 1428   3.555   2.167   1.680
 2196SOL     OW 1429   3.592   2.796   1.517
 2196SOL    HW1 1430   3.630   2.887   1.532
 2196SOL    HW2 1431   3.584   2.779   1.418
 2199SOL     OW 1432   2.721   2.818   0.861
 2199SOL    HW1 1433   2.775   2.749   0.909
 2199SOL    HW2 1434   2.689   2.887   0.927
 2202SOL     OW 1435   2.083   3.176   1.844
 2202SOL    HW1 1436   2.018   3.103   1.823
 2202SOL    HW2 1437   2.087   3.190   1.942
 2204SOL     OW 1438   2.534   3.253   1.624
 2204SOL    HW1 1439   2.456   3.203   1.662
 2204SOL    HW2 1440   2.531   3.348   1.655
 2205SOL     OW 1441   3.686   2.054   1.227
 2205SOL    HW1 1442   3.682   1.964   1.271
 2205SOL    HW2 1443   3.689   2.043   1.128
 2208SOL     OW 1444   2.179   2.409   1.280
 2208SOL    HW1 1445   2.217   2.350   1.352
 2208SOL    HW2 1446   2.219   2.383   1.192
 2210SOL     OW 1447   3.286   2.076   1.112
 2210SOL    HW1 1448   3.338   2.011   1.167
 2210SOL    HW2 1449   3.237   2.139   1.173
 2211SOL     OW 1450   2.863   1.896   1.154
 2211SOL    HW1 1451   2.800   1.824   1.123
 2211SOL    HW2 1452   2.956   1.860   1.154
 2213SOL     OW 1453   2.480   3.429   1.284
 2213SOL    HW1 1454   2.475   3.511   1.341
 2213SOL    HW2 1455   2.569   3.426   1.239
 2219SOL     OW 1456   2.092   2.490   1.975
 2219SOL    HW1 1457   1.999   2.488   2.012
 2219SOL    HW2 1458   2.093   2.451   1.883
 2220SOL     OW 1459   2.087   2.137   2.858
 2220SOL    HW1 1460   2.122   2.120   2.950
 2220SOL    HW2 1461   1.999   2.092   2.846
 2221SOL     OW 1462   1.881   2.230   2.509
 2221SOL    HW1 1463   1.799   2.273   2.548
 2221SOL    HW2 1464   1.853   2.157   2.446
 2222SOL     OW 1465   2.431   3.137   3.027
 2222SOL    HW1 1466   2.338   3.130   2.990
 2222SOL    HW2 1467   2.442   3.226   3.071
 2223SOL     OW 1468   3.417   3.373   2.565
 2223SOL    HW1 1469   3.360   3.357   2.646
 2223SOL    HW2 1470   3.358   3.383   2.485
 2224SOL     OW 1471   2.997   2.565   2.579
 2224SOL    HW1 1472   3.054   2.643   2.554
 2224SOL    HW2 1473   2.937   2.591   2.655
 2225SOL     OW 1474   3.617   2.469   2.093
 2225SOL    HW1 1475   3.605   2.456   1.994
 2225SOL    HW2 1476   3.587   2.388   2.142
 2226SOL     OW 1477   2.630   3.006   2.885
 2226SOL    HW1 1478   2.552   3.023   2.945
 2226SOL    HW2 1479   2.664   3.093   2.849
 2227SOL     OW 1480   2.712   2.660   3.685
 2227SOL    HW1 1481   2.708   2.736   3.750
 2227SOL    HW2 1482   2.734   2.696   3.594
 2228SOL     OW 1483   2.547   2.874   2.527
 2228SOL    HW1 1484   2.616   2.858   2.597
 2228SOL    HW2 1485   2.474   2.931   2.565
 2229SOL     OW 1486   2.548   3.023   3.665
 2229SOL    HW1 1487   2.608   3.102   3.679
 2229SOL    HW2 1488   2.462   3.054   3.624
 2230SOL     OW 1489   2.197   3.297   2.923
 2230SOL    HW1 1490   2.119   3.266   2.870
 2230SOL    HW2 1491   2.255   3.355   2.866
 2231SOL     OW 1492   3.322   3.367   3.201
 2231SOL    HW1 1493   3.346   3.461   3.227
 2231SOL    HW2 1494   3.306   3.313   3.283
 2232SOL     OW 1495   2.300   2.254   3.361
 2232SOL    HW1 1496   2.382   2.198   3.370
 2232SOL    HW2 1497   2.219   2.196   3.365
 2233SOL     OW 1498   3.465   2.309   2.599
 2233SOL    HW1 1499   3.391   2.355   2.549
 2233SOL    HW2 1500   3.516   2.377   2.652
 2234SOL     OW 1501   2.093   3.575   2.345
 2234SOL    HW1 1502   2.127   3.652   2.399
 2234SOL    HW2 1503   2.137   3.575   2.255
 2235SOL     OW 1504   2.989   3.203   3.552
 2235SOL    HW1 1505   3.036   3.203   3.640
 2235SOL    HW2 1506   2.941   3.116   3.541
 2236SOL     OW 1507   2.092   3.296   2.400
 2236SOL    HW1 1508   2.066   3.392   2.400
 2236SOL    HW2 1509   2.021   3.242   2.445
 2237SOL     OW 1510   2.102   2.953   2.748
 2237SOL    HW1 1511   2.116   2.869   2.800
 2237SOL    HW2 1512   2.047   3.017   2.803
 2238SOL     OW 1513   2.482   3.648   3.301
 2238SOL    HW1 1514   2.390   3.631   3.336
 2238SOL    HW2 1515   2.510   3.740   3.327
 2239SOL     OW 1516   2.468   2.826   1.985
 2239SOL    HW1 1517   2.475   2.910   1.931
 2239SOL    HW2 1518   2.514   2.839   2.073
 2240SOL     OW 1519   3.456   1.976   3.342
 2240SOL    HW1 1520   3.438   2.043   3.270
 2240SOL    HW2 1521   3.453   2.022   3.431
 2241SOL     OW 1522   1.984   2.505   2.425
 2241SOL    HW1 1523   1.939   2.417   2.442
 2241SOL    HW2 1524   1.983   2.559   2.509
 2242SOL     OW 1525   3.704   3.629   2.221
 2242SOL    HW1 1526   3.758   3.600   2.301
 2242SOL    HW2 1527   3.734   3.719   2.192
 2243SOL     OW 1528   1.889   3.458   1.979
 2243SOL    HW1 1529   1.870   3.362   2.000
 2243SOL    HW2 1530   1.856   3.516   2.054
 2244SOL     OW 1531   3.551   2.784   2.474
 2244SOL    HW1 1532   3.646   2.755   2.482
 2244SOL    HW2 1533   3.543   2.849   2.399
 2245SOL     OW 1534   3.503   2.970   2.294
 2245SOL    HW1 1535   3.589   2.972   2.242
 2245SOL    HW2 1536   3.517   3.017   2.382
 2246SOL     OW 1537   1.975   2.599   3.459
 2246SOL    HW1 1538   2.063   2.586   3.504
 2246SOL    HW2 1539   1.962   2.696   3.437
 2247SOL     OW 1540   2.475   3.227   2.588
 2247SOL    HW1 1541   2.426   3.140   2.597
 2247SOL    HW2 1542   2.452   3.270   2.501
 2248SOL     OW 1543   3.155   3.090   3.285
 2248SOL    HW1 1544   3.192   3.017   3.227
 2248SOL    HW2 1545   3.207   3.095   3.370
 2249SOL     OW 1546   2.671   1.866   2.364
 2249SOL    HW1 1547   2.711   1.957   2.355
 2249SOL    HW2 1548   2.571   1.874   2.370
 2250SOL     OW 1549   2.059   2.838   3.126
 2250SOL    HW1 1550   2.148   2.793   3.112
 2250SOL    HW2 1551   1.986   2.773   3.107
 2251SOL     OW 1552   3.387   2.861   2.052
 2251SOL    HW1 1553   3.324   2.785   2.065
 2251SOL    HW2 1554   3.435   2.879   2.138
 2252SOL     OW 1555   3.049   3.654   3.478
 2252SOL    HW1 1556   3.073   3.714   3.402
 2252SOL    HW2 1557   3.056   3.559   3.448
 2253SOL     OW 1558   2.179   2.113   3.663
 2253SOL    HW1 1559   2.250   2.184   3.669
 2253SOL    HW2 1560   2.091   2.152   3.691
 2254SOL     OW 1561   3.328   3.279   2.815
 2254SOL    HW1 1562   3.269   3.285   2.895
 2254SOL    HW2 1563   3.313   3.191   2.769
 2255SOL     OW 1564   3.529   3.576   2.434
 2255SOL    HW1 1565   3.488   3.553   2.346
 2255SOL    HW2 1566   3.511   3.502   2.499
 2256SOL     OW 1567   3.143   2.207   2.806
 2256SOL    HW1 1568   3.057   2.157   2.793
 2256SOL    HW2 1569   3.205   2.153   2.862
 2257SOL     OW 1570   3.438   3.524   2.169
 2257SOL    HW1 1571   3.527   3.570   2.172
 2257SOL    HW2 1572   3.417   3.500   2.074
 2258SOL     OW 1573   2.669   2.467   3.327
 2258SOL    HW1 1574   2.622   2.464   3.416
 2258SOL    HW2 1575   2.618   2.412   3.261
 2259SOL     OW 1576   3.256   2.331   3.536
 2259SOL    HW1 1577   3.236   2.374   3.624
 2259SOL    HW2 1578   3.334   2.269   3.545
 2260SOL     OW 1579   2.835   2.752   3.434
 2260SOL    HW1 1580   2.881   2.668   3.405
 2260SOL    HW2 1581   2.779   2.786   3.359
 2261SOL     OW 1582   2.853   2.272   3.104
 2261SOL    HW1 1583   2.776   2.306   3.158
 2261SOL    HW2 1584   2.819   2.221   3.025
 2262SOL     OW 1585   2.903   2.563   2.291
 2262SOL    HW1 1586   2.929   2.559   2.387
 2262SOL    HW2 1587   2.818   2.512   2.277
 2263SOL     OW 1588   1.992   3.683   3.433
 2263SOL    HW1 1589   1.982   3.668   3.532
 2263SOL    HW2 1590   1.906   3.719   3.397
 2264SOL     OW 1591   3.581   2.447   3.693
 2264SOL    HW1 1592   3.555   2.536   3.657
 2264SOL    HW2 1593   3.579   2.379   3.620
 2265SOL     OW 1594   3.224   3.006   2.407
 2265SOL    HW1 1595   3.307   2.977   2.359
 2265SOL    HW2 1596   3.175   3.073   2.351
 2266SOL     OW 1597   2.412   2.058   2.747
 2266SOL    HW1 1598   2.407   2.053   2.847
 2266SOL    HW2 1599   2.414   2.154   2.718
 2267SOL     OW 1600   2.870   3.318   2.339
 2267SOL    HW1 1601   2.824   3.390   2.287
 2267SOL    HW2 1602   2.866   3.338   2.437
 2268SOL     OW 1603   2.213   3.663   2.715
 2268SOL    HW1 1604   2.263   3.577   2.721
 2268SOL    HW2 1605   2.278   3.740   2.712
 2269SOL     OW 1606   3.657   2.928   2.735
 2269SOL    HW1 1607   3.595   2.913   2.659
 2269SOL    HW2 1608   3.605   2.939   2.820
 2270SOL     OW 1609   3.089   3.412   3.368
 2270SOL    HW1 1610   3.095   3.335   3.432
 2270SOL    HW2 1611   3.037   3.386   3.288
 2271SOL     OW 1612   2.183   2.805   2.104
 2271SOL    HW1 1613   2.265   2.844   2.062
 2271SOL    HW2 1614   2.156   2.723   2.055
 2272SOL     OW 1615   3.320   2.597   2.590
 2272SOL    HW1 1616   3.315   2.532   2.665
 2272SOL    HW2 1617   3.400   2.656   2.603
 2273SOL     OW 1618   2.323   3.128   3.589
 2273SOL    HW1 1619   2.273   3.129   3.503
 2273SOL    HW2 1620   2.260   3.110   3.665
 2274SOL     OW 1621   2.973   3.638   2.099
 2274SOL    HW1 1622   2.913   3.576   2.149
 2274SOL    HW2 1623   3.004   3.594   2.014
 2275SOL     OW 1624   2.064   2.147   3.360
 2275SOL    HW1 1625   1.984   2.207   3.347
 2275SOL    HW2 1626   2.054   2.098   3.446
 2276SOL     OW 1627   3.494   3.239   1.943
 2276SOL    HW1 1628   3.462   3.333   1.933
 2276SOL    HW2 1629   3.418   3.176   1.931
 2277SOL     OW 1630   2.326   3.605   2.185
 2277SOL    HW1 1631   2.359   3.644   2.271
 2277SOL    HW2 1632   2.402   3.598   2.120
 2278SOL     OW 1633   3.262   1.969   2.288
 2278SOL    HW1 1634   3.238   1.932   2.198
 2278SOL    HW2 1635   3.361   1.985   2.292
 2279SOL     OW 1636   2.111   3.647   3.103
 2279SOL    HW1 1637   2.168   3.582   3.153
 2279SOL    HW2 1638   2.095   3.614   3.010
 2280SOL     OW 1639   2.802   3.560   2.766
 2280SOL    HW1 1640   2.882   3.503   2.787
 2280SOL    HW2 1641   2.753   3.520   2.689
 2281SOL     OW 1642   3.409   2.084   3.591
 2281SOL    HW1 1643   3.404   2.121   3.683
 2281SOL    HW2 1644   3.337   2.015   3.579
 2282SOL     OW 1645   2.476   1.984   1.979
 2282SOL    HW1 1646   2.574   1.962   1.986
 2282SOL    HW2 1647   2.445   1.967   1.886
 2283SOL     OW 1648   2.643   2.126   3.611
 2283SOL    HW1 1649   2.710   2.065   3.654
 2283SOL    HW2 1650   2.570   2.145   3.676
 2284SOL     OW 1651   2.750   3.376   3.057
 2284SOL    HW1 1652   2.727   3.351   2.963
 2284SOL    HW2 1653   2.811   3.307   3.096
 2285SOL     OW 1654   3.213   2.452   3.295
 2285SOL    HW1 1655   3.241   2.409   3.380
 2285SOL    HW2 1656   3.238   2.548   3.296
 2286SOL     OW 1657   2.665   3.264   2.786
 2286SOL    HW1 1658   2.755   3.278   2.744
 2286SOL    HW2 1659   2.594   3.266   2.715
 2287SOL     OW 1660   2.784   2.365   2.761
 2287SOL    HW1 1661   2.759   2.356   2.665
 2287SOL    HW2 1662   2.832   2.283   2.792
 2288SOL     OW 1663   2.401   1.926   2.374
 2288SOL    HW1 1664   2.320   1.927   2.432
 2288SOL    HW2 1665   2.404   2.009   2.319
 2289SOL     OW 1666   3.296   3.050   1.903
 2289SOL    HW1 1667   3.328   2.974   1.960
 2289SOL    HW2 1668   3.204   3.077   1.933
 2290SOL     OW 1669   2.159   1.897   2.033
 2290SOL    HW1 1670   2.208   1.981   2.012
 2290SOL    HW2 1671   2.221   1.832   2.078
 2291SOL     OW 1672   2.938   2.545   3.326
 2291SOL    HW1 1673   2.858   2.484   3.329
 2291SOL    HW2 1674   3.019   2.492   3.302
 2292SOL     OW 1675   3.089   3.432   2.655
 2292SOL    HW1 1676   3.110   3.506   2.590
 2292SOL    HW2 1677   3.157   3.432   2.728
 2293SOL     OW 1678   2.321   3.014   2.603
 2293SOL    HW1 1679   2.250   2.987   2.668
 2293SOL    HW2 1680   2.295   2.986   2.510
 2294SOL     OW 1681   3.133   3.659   2.453
 2294SOL    HW1 1682   3.177   3.723   2.389
 2294SOL    HW2 1683   3.083   3.711   2.523
 2295SOL     OW 1684   2.894   2.411   1.878
 2295SOL    HW1 1685   2.853   2.493   1.839
 2295SOL    HW2 1686   2.958   2.437   1.951
 2296SOL     OW 1687   1.940   2.418   3.248
 2296SOL    HW1 1688   2.032   2.417   3.207
 2296SOL    HW2 1689   1.934   2.492   3.315
 2297SOL     OW 1690   2.423   2.084   3.009
 2297SOL    HW1 1691   2.461   2.000   3.046
 2297SOL    HW2 1692   2.335   2.103   3.053
 2298SOL     OW 1693   2.879   1.901   2.615
 2298SOL    HW1 1694   2.807   1.906   2.546
 2298SOL    HW2 1695   2.855   1.832   2.684
 2299SOL     OW 1696   3.291   3.035   2.729
 2299SOL    HW1 1697   3.236   2.951   2.722
 2299SOL    HW2 1698   3.317   3.064   2.637
 2300SOL     OW 1699   3.328   2.452   2.854
 2300SOL    HW1 1700   3.298   2.357   2.861
 2300SOL    HW2 1701   3.401   2.468   2.920
 2301SOL     OW 1702   3.719   2.695   2.239
 2301SOL    HW1 1703   3.761   2.631   2.303
 2301SOL    HW2 1704   3.681   2.644   2.161
 2302SOL     OW 1705   2.350   3.247   2.036
 2302SOL    HW1 1706   2.263   3.232   2.083
 2302SOL    HW2 1707   2.333   3.273   1.941
 2303SOL     OW 1708   3.526   3.142   2.519
 2303SOL    HW1 1709   3.625   3.150   2.533
 2303SOL    HW2 1710   3.481   3.226   2.550
 2304SOL     OW 1711   3.252   2.437   1.940
 2304SOL    HW1 1712   3.198   2.416   2.021
 2304SOL    HW2 1713   3.343   2.396   1.949
 2305SOL     OW 1714   2.389   2.118   2.190
 2305SOL    HW1 1715   2.416   2.059   2.115
 2305SOL    HW2 1716   2.389   2.213   2.159
 2306SOL     OW 1717   3.616   3.085   3.450
 2306SOL    HW1 1718   3.707   3.046   3.437
 2306SOL    HW2 1719   3.624   3.181   3.474
 2307SOL     OW 1720   2.926   3.209   3.202
 2307SOL    HW1 1721   2.846   3.186   3.257
 2307SOL    HW2 1722   3.009   3.183   3.251
 2308SOL     OW 1723   3.454   3.491   3.487
 2308SOL    HW1 1724   3.481   3.525   3.397
 2308SOL    HW2 1725   3.533   3.453   3.533
 2309SOL     OW 1726   2.973   3.057   2.962
 2309SOL    HW1 1727   2.933   3.101   3.043
 2309SOL    HW2 1728   2.932   3.094   2.879
 2310SOL     OW 1729   3.500   2.961   2.941
 2310SOL    HW1 1730   3.505   3.042   3.000
 2310SOL    HW2 1731   3.414   2.963   2.890
 2311SOL     OW 1732   2.777   1.951   3.264
 2311SOL    HW1 1733   2.802   1.931   3.169
 2311SOL    HW2 1734   2.849   2.007   3.306
 2312SOL     OW 1735   2.842   2.978   3.581
 2312SOL    HW1 1736   2.743   2.984   3.591
 2312SOL    HW2 1737   2.865   2.898   3.525
 2313SOL     OW 1738   2.567   2.912   2.230
 2313SOL    HW1 1739   2.553   2.919   2.329
 2313SOL    HW2 1740   2.651   2.861   2.212
 2314SOL     OW 1741   2.272   2.675   3.113
 2314SOL    HW1 1742   2.358   2.687   3.163
 2314SOL    HW2 1743   2.230   2.588   3.140
 2315SOL     OW 1744   3.136   2.248   3.124
 2315SOL    HW1 1745   3.157   2.322   3.188
 2315SOL    HW2 1746   3.047   2.265   3.081
 2316SOL     OW 1747   1.926   3.426   3.193
 2316SOL    HW1 1748   1.880   3.508   3.159
 2316SOL    HW2 1749   2.024   3.445   3.202
 2317SOL     OW 1750   2.229   2.962   2.363
 2317SOL    HW1 1751   2.222   3.045   2.307
 2317SOL    HW2 1752   2.233   2.882   2.303
 2318SOL     OW 1753   3.114   3.210   2.250
 2318SOL    HW1 1754   3.164   3.287   2.290
 2318SOL    HW2 1755   3.019   3.212   2.282
 2319SOL     OW 1756   3.134   3.307   3.004
 2319SOL    HW1 1757   3.181   3.320   3.091
 2319SOL    HW2 1758   3.068   3.233   3.013
 2320SOL     OW 1759   3.444   2.501   2.334
 2320SOL    HW1 1760   3.413   2.562   2.407
 2320SOL    HW2 1761   3.494   2.553   2.265
 2321SOL     OW 1762   2.216   3.372   3.191
 2321SOL    HW1 1763   2.195   3.328   3.104
 2321SOL    HW2 1764   2.313   3.398   3.194
 2322SOL     OW 1765   2.264   2.613   3.460
 2322SOL    HW1 1766   2.332   2.668   3.413
 2322SOL    HW2 1767   2.304   2.525   3.487
 2323SOL     OW 1768   3.449   2.641   3.532
 2323SOL    HW1 1769   3.357   2.679   3.527
 2323SOL    HW2 1770   3.509   2.688   3.467
 2324SOL     OW 1771   2.875   1.967   3.632
 2324SOL    HW1 1772   2.881   2.052   3.580
 2324SOL    HW2 1773   2.907   1.891   3.575
 2325SOL     OW 1774   2.366   1.912   3.602
 2325SOL    HW1 1775   2.324   1.855   3.532
 2325SOL    HW2 1776   2.300   1.981   3.634
 2326SOL     OW 1777   2.435   2.732   2.891
 2326SOL    HW1 1778   2.479   2.821   2.882
 2326SOL    HW2 1779   2.372   2.732   2.968
 2327SOL     OW 1780   3.222   2.724   2.907
 2327SOL    HW1 1781   3.147   2.724   2.841
 2327SOL    HW2 1782   3.259   2.632   2.916
 2328SOL     OW 1783   3.071   2.387   2.137
 2328SOL    HW1 1784   3.084   2.303   2.191
 2328SOL    HW2 1785   3.042   2.461   2.197
 2329SOL     OW 1786   2.169   2.075   3.093
 2329SOL    HW1 1787   2.146   2.112   3.183
 2329SOL    HW2 1788   2.139   1.980   3.087
 2330SOL     OW 1789   1.899   3.172   3.144
 2330SOL    HW1 1790   1.952   3.123   3.212
 2330SOL    HW2 1791   1.921   3.270   3.149
 2331SOL     OW 1792   2.594   2.496   2.926
 2331SOL    HW1 1793   2.653   2.470   2.850
 2331SOL    HW2 1794   2.566   2.592   2.915
 2332SOL     OW 1795   3.590   2.797   3.716
 2332SOL    HW1 1796   3.544   2.790   3.627
 2332SOL    HW2 1797   3.528   2.841   3.782
 2333SOL     OW 1798   2.169   1.925   2.480
 2333SOL    HW1 1799   2.158   2.019   2.513
 2333SOL    HW2 1800   2.164   1.862   2.557
 2334SOL     OW 1801   3.484   2.229   2.236
 2334SOL    HW1 1802   3.486   2.153   2.300
 2334SOL    HW2 1803   3.436   2.306   2.276
 2335SOL     OW 1804   2.885   2.628   2.828
 2335SOL    HW1 1805   2.900   2.649   2.924
 2335SOL    HW2 1806   2.855   2.533   2.819
 2336SOL     OW 1807   2.842   3.435   3.562
 2336SOL    HW1 1808   2.822   3.479   3.474
 2336SOL    HW2 1809   2.881   3.344   3.546
 2338SOL     OW 1810   2.212   2.760   3.666
 2338SOL    HW1 1811   2.288   2.804   3.714
 2338SOL    HW2 1812   2.247   2.713   3.584
 2339SOL     OW 1813   3.402   2.136   1.987
 2339SOL    HW1 1814   3.341   2.061   2.010
 2339SOL    HW2 1815   3.424   2.188   2.070
 2340SOL     OW 1816   3.165   2.700   1.904
 2340SOL    HW1 1817   3.199   2.607   1.919
 2340SOL    HW2 1818   3.183   2.727   1.809
 2341SOL     OW 1819   2.930   3.195   2.711
 2341SOL    HW1 1820   2.937   3.111   2.656
 2341SOL    HW2 1821   2.992   3.264   2.675
 2342SOL     OW 1822   2.181   2.672   2.811
 2342SOL    HW1 1823   2.274   2.708   2.816
 2342SOL    HW2 1824   2.175   2.587   2.863
 2343SOL     OW 1825   2.201   2.371   2.868
 2343SOL    HW1 1826   2.149   2.288   2.851
 2343SOL    HW2 1827   2.278   2.376   2.804
 2344SOL     OW 1828   3.000   2.242   3.540
 2344SOL    HW1 1829   2.955   2.305   3.604
 2344SOL    HW2 1830   3.093   2.273   3.523
 2345SOL     OW 1831   3.022   2.069   3.339
 2345SOL    HW1 1832   3.022   2.133   3.416
 2345SOL    HW2 1833   3.050   2.117   3.256
 2346SOL     OW 1834   1.870   3.188   2.062
 2346SOL    HW1 1835   1.777   3.209   2.031
 2346SOL    HW2 1836   1.880   3.089   2.075
 2347SOL     OW 1837   1.950   3.663   2.789
 2347SOL    HW1 1838   1.908   3.577   2.762
 2347SOL    HW2 1839   2.044   3.666   2.755
 2348SOL     OW 1840   2.366   3.430   2.772
 2348SOL    HW1 1841   2.432   3.504   2.781
 2348SOL    HW2 1842   2.410   3.351   2.730
 2349SOL     OW 1843   2.864   2.658   3.100
 2349SOL    HW1 1844   2.905   2.626   3.186
 2349SOL    HW2 1845   2.768   2.631   3.097
 2350SOL     OW 1846   1.902   2.406   2.976
 2350SOL    HW1 1847   1.987   2.373   2.935
 2350SOL    HW2 1848   1.915   2.421   3.074
 2351SOL     OW 1849   2.051   2.382   3.584
 2351SOL    HW1 1850   2.110   2.342   3.514
 2351SOL    HW2 1851   1.993   2.453   3.543
 2352SOL     OW 1852   3.231   2.812   3.522
 2352SOL    HW1 1853   3.270   2.901   3.542
 2352SOL    HW2 1854   3.241   2.792   3.425
 2353SOL     OW 1855   3.519   2.466   3.068
 2353SOL    HW1 1856   3.481   2.397   3.130
 2353SOL    HW2 1857   3.601   2.430   3.024
 2354SOL     OW 1858   2.114   3.426   3.606
 2354SOL    HW1 1859   2.084   3.483   3.682
 2354SOL    HW2 1860   2.107   3.329   3.632
 2355SOL     OW 1861   2.533   2.326   3.131
 2355SOL    HW1 1862   2.499   2.237   3.101
 2355SOL    HW2 1863   2.559   2.380   3.051
 2356SOL     OW 1864   2.792   3.540   3.327
 2356SOL    HW1 1865   2.768   3.522   3.232
 2356SOL    HW2 1866   2.822   3.634   3.337
 2357SOL     OW 1867   2.021   2.999   3.328
 2357SOL    HW1 1868   2.043   2.938   3.404
 2357SOL    HW2 1869   2.031   2.950   3.242
 2358SOL     OW 1870   3.209   2.921   3.096
 2358SOL    HW1 1871   3.233   2.858   3.022
 2358SOL    HW2 1872   3.119   2.961   3.078
 2359SOL     OW 1873   3.164   2.717   2.171
 2359SOL    HW1 1874   3.078   2.686   2.213
 2359SOL    HW2 1875   3.160   2.703   2.072
 2360SOL     OW 1876   3.621   3.609   3.016
 2360SOL    HW1 1877   3.682   3.639   2.943
 2360SOL    HW2 1878   3.583   3.520   2.994
 2361SOL     OW 1879   3.114   3.593   2.990
 2361SOL    HW1 1880   3.198   3.598   2.936
 2361SOL    HW2 1881   3.091   3.497   3.008
 2362SOL     OW 1882   1.945   3.120   2.884
 2362SOL    HW1 1883   1.940   3.119   2.984
 2362SOL    HW2 1884   1.862   3.079   2.846
 2363SOL     OW 1885   2.550   3.524   3.578
 2363SOL    HW1 1886   2.494   3.605   3.587
 2363SOL    HW2 1887   2.602   3.528   3.492
 2364SOL     OW 1888   3.588   1.997   2.385
 2364SOL    HW1 1889   3.661   1.980   2.318
 2364SOL    HW2 1890   3.557   1.910   2.423
 2365SOL     OW 1891   3.250   3.435   2.339
 2365SOL    HW1 1892   3.317   3.447   2.265
 2365SOL    HW2 1893   3.210   3.524   2.362
 2367SOL     OW 1894   3.142   2.789   2.534
 2367SOL    HW1 1895   3.202   2.708   2.536
 2367SOL    HW2 1896   3.182   2.858   2.474
 2368SOL     OW 1897   2.692   3.135   3.284
 2368SOL    HW1 1898   2.687   3.168   3.379
 2368SOL    HW2 1899   2.606   3.154   3.238
 2369SOL     OW 1900   2.534   3.478   2.016
 2369SOL    HW1 1901   2.543   3.488   1.917
 2369SOL    HW2 1902   2.494   3.389   2.037
 2370SOL     OW 1903   3.512   3.582   3.256
 2370SOL    HW1 1904   3.565   3.592   3.172
 2370SOL    HW2 1905   3.485   3.672   3.290
 2371SOL     OW 1906   3.703   2.037   2.825
 2371SOL    HW1 1907   3.742   1.952   2.789
 2371SOL    HW2 1908   3.605   2.039   2.806
 2372SOL     OW 1909   2.125   2.188   2.582
 2372SOL    HW1 1910   2.046   2.239   2.548
 2372SOL    HW2 1911   2.116   2.173   2.680
 2373SOL     OW 1912   3.056   3.474   1.893
 2373SOL    HW1 1913   3.062   3.381   1.930
 2373SOL    HW2 1914   2.997   3.474   1.813
 2374SOL     OW 1915   2.684   2.864   3.234
 2374SOL    HW1 1916   2.724   2.863   3.142
 2374SOL    HW2 1917   2.694   2.956   3.274
 2375SOL     OW 1918   2.778   2.772   2.153
 2375SOL    HW1 1919   2.841   2.810   2.085
 2375SOL    HW2 1920   2.818   2.689   2.192
 2376SOL     OW 1921   3.366   3.469   1.906
 2376SOL    HW1 1922   3.274   3.506   1.913
 2376SOL    HW2 1923   3.404   3.489   1.816
 2377SOL     OW 1924   2.234   3.150   3.352
 2377SOL    HW1 1925   2.221   3.243   3.318
 2377SOL    HW2 1926   2.150   3.098   3.339
 2378SOL     OW 1927   3.476   3.154   3.151
 2378SOL    HW1 1928   3.536   3.157   3.231
 2378SOL    HW2 1929   3.401   3.218   3.164
 2379SOL     OW 1930   2.901   2.960   2.558
 2379SOL    HW1 1931   2.831   2.913   2.612
 2379SOL    HW2 1932   2.960   2.892   2.515
 2380SOL     OW 1933   2.876   2.098   2.833
 2380SOL    HW1 1934   2.868   2.062   2.740
 2380SOL    HW2 1935   2.874   2.022   2.898
 2381SOL     OW 1936   2.452   3.349   2.353
 2381SOL    HW1 1937   2.494   3.291   2.283
 2381SOL    HW2 1938   2.408   3.428   2.309
 2382SOL     OW 1939   3.571   2.247   3.243
 2382SOL    HW1 1940   3.644   2.316   3.247
 2382SOL    HW2 1941   3.599   2.172   3.184
 2383SOL     OW 1942   2.117   3.210   2.152
 2383SOL    HW1 1943   2.021   3.211   2.125
 2383SOL    HW2 1944   2.129   3.263   2.236
 2384SOL     OW 1945   1.967   2.875   3.588
 2384SOL    HW1 1946   1.890   2.842   3.642
 2384SOL    HW2 1947   2.052   2.845   3.630
 2385SOL     OW 1948   2.534   2.065   3.351
 2385SOL    HW1 1949   2.624   2.049   3.311
 2385SOL    HW2 1950   2.542   2.070   3.450
 2386SOL     OW 1951   1.937   2.207   1.895
 2386SOL    HW1 1952   1.845   2.179   1.866
 2386SOL    HW2 1953   1.968   2.284   1.839
 2387SOL     OW 1954   3.302   2.718   3.260
 2387SOL    HW1 1955   3.245   2.770   3.197
 2387SOL    HW2 1956   3.398   2.730   3.236
 2388SOL     OW 1957   1.934   2.028   2.180
 2388SOL    HW1 1958   1.917   2.111   2.126
 2388SOL    HW2 1959   2.024   1.991   2.158
 2389SOL     OW 1960   3.045   3.197   1.981
 2389SOL    HW1 1961   2.946   3.186   1.983
 2389SOL    HW2 1962   3.079   3.212   2.074
 2390SOL     OW 1963   2.475   2.704   3.293
 2390SOL    HW1 1964   2.531   2.785   3.276
 2390SOL    HW2 1965   2.534   2.624   3.296
 2391SOL     OW 1966   3.355   3.629   2.821
 2391SOL    HW1 1967   3.388   3.693   2.752
 2391SOL    HW2 1968   3.421   3.623   2.896
 2392SOL     OW 1969   2.578   2.427   3.570
 2392SOL    HW1 1970   2.597   2.492   3.644
 2392SOL    HW2 1971   2.638   2.347   3.579
 2393SOL     OW 1972   3.312   3.082   3.495
 2393SOL    HW1 1973   3.303   3.072   3.594
 2393SOL    HW2 1974   3.408   3.075   3.469
 2394SOL     OW 1975   2.252   3.603   3.422
 2394SOL    HW1 1976   2.161   3.644   3.420
 2394SOL    HW2 1977   2.245   3.509   3.454
 2395SOL     OW 1978   3.536   2.745   3.116
 2395SOL    HW1 1979   3.509   2.656   3.079
 2395SOL    HW2 1980   3.537   2.813   3.043
 2396SOL     OW 1981   3.087   2.187   2.311
 2396SOL    HW1 1982   3.152   2.113   2.300
 2396SOL    HW2 1983   3.107   2.237   2.395
 2397SOL     OW 1984   3.639   2.204   3.504
 2397SOL    HW1 1985   3.622   2.235   3.410
 2397SOL    HW2 1986   3.555   2.167   3.542
 2398SOL     OW 1987   3.592   2.796   3.379
 2398SOL    HW1 1988   3.630   2.887   3.394
 2398SOL    HW2 1989   3.584   2.779   3.280
 2399SOL     OW 1990   2.721   3.236   1.878
 2399SOL    HW1 1991   2.675   3.251   1.966
 2399SOL    HW2 1992   2.765   3.321   1.848
 2400SOL     OW 1993   2.523   3.652   2.815
 2400SOL    HW1 1994   2.477   3.740   2.802
 2400SOL    HW2 1995   2.622   3.664   2.808
 2401SOL     OW 1996   2.721   2.818   2.723
 2401SOL    HW1 1997   2.775   2.749   2.771
 2401SOL    HW2 1998   2.689   2.887   2.789
 2402SOL     OW 1999   2.945   2.846   1.949
 2402SOL    HW1 2000   2.922   2.899   1.867
 2402SOL    HW2 2001   3.026   2.790   1.930
 2403SOL     OW 2002   3.723   3.431   2.713
 2403SOL    HW1 2003   3.652   3.419   2.643
 2403SOL    HW2 2004   3.724   3.352   2.773
 2404SOL     OW 2005   2.083   3.176   3.706
 2404SOL    HW1 2006   2.018   3.103   3.685
 2404SOL    HW2 2007   2.087   3.190   3.804
 2405SOL     OW 2008   1.941   3.102   2.515
 2405SOL    HW1 2009   1.940   3.055   2.603
 2405SOL    HW2 2010   2.023   3.074   2.464
 2406SOL     OW 2011   2.534   3.253   3.486
 2406SOL    HW1 2012   2.456   3.203   3.524
 2406SOL    HW2 2013   2.531   3.348   3.517
 2407SOL     OW 2014   3.686   2.054   3.089
 2407SOL    HW1 2015   3.682   1.964   3.133
 2407SOL    HW2 2016   3.689   2.043   2.990
 2408SOL     OW 2017   2.290   2.286   2.382
 2408SOL    HW1 2018   2.320   2.214   2.320
 2408SOL    HW2 2019   2.251   2.246   2.465
 2409SOL     OW 2020   3.567   3.349   2.966
 2409SOL    HW1 2021   3.474   3.324   2.939
 2409SOL    HW2 2022   3.593   3.299   3.048
 2410SOL     OW 2023   2.179   2.409   3.142
 2410SOL    HW1 2024   2.217   2.350   3.214
 2410SOL    HW2 2025   2.219   2.383   3.054
 2411SOL     OW 2026   2.674   3.448   2.549
 2411SOL    HW1 2027   2.706   3.458   2.455
 2411SOL    HW2 2028   2.595   3.386   2.551
 2412SOL     OW 2029   3.286   2.076   2.974
 2412SOL    HW1 2030   3.338   2.011   3.029
 2412SOL    HW2 2031   3.237   2.139   3.035
 2413SOL     OW 2032   2.863   1.896   3.016
 2413SOL    HW1 2033   2.800   1.824   2.985
 2413SOL    HW2 2034   2.956   1.860   3.016
 2414SOL     OW 2035   2.632   3.192   2.163
 2414SOL    HW1 2036   2.586   3.105   2.180
 2414SOL    HW2 2037   2.723   3.189   2.204
 2415SOL     OW 2038   2.480   3.429   3.146
 2415SOL    HW1 2039   2.475   3.511   3.203
 2415SOL    HW2 2040   2.569   3.426   3.101
 2416SOL     OW 2041   3.214   1.914   2.030
 2416SOL    HW1 2042   3.249   1.873   1.946
 2416SOL    HW2 2043   3.124   1.876   2.050
 2417SOL     OW 2044   3.162   2.315   2.553
 2417SOL    HW1 2045   3.103   2.395   2.557
 2417SOL    HW2 2046   3.177   2.280   2.646
 2418SOL     OW 2047   3.455   2.083   2.744
 2418SOL    HW1 2048   3.371   2.082   2.798
 2418SOL    HW2 2049   3.457   2.166   2.688
 2419SOL     OW 2050   1.901   2.939   2.162
 2419SOL    HW1 2051   2.000   2.928   2.153
 2419SOL    HW2 2052   1.861   2.853   2.194
 2420SOL     OW 2053   2.737   3.508   2.199
 2420SOL    HW1 2054   2.660   3.473   2.145
 2420SOL    HW2 2055   2.705   3.579   2.261
 2421SOL     OW 2056   2.092   2.490   3.837
 2421SOL    HW1 2057   1.999   2.488   3.874
 2421SOL    HW2 2058   2.093   2.451   3.745
 2434SOL     OW 2059   2.468   2.826   3.847
 2434SOL    HW1 2060   2.475   2.910   3.793
 2434SOL    HW2 2061   2.514   2.839   3.935
 2442SOL     OW 2062   3.387   2.861   3.914
 2442SOL    HW1 2063   3.324   2.785   3.927
 2442SOL    HW2 2064   3.435   2.879   4.000
 2445SOL     OW 2065   2.460   2.591   3.994
 2445SOL    HW1 2066   2.484   2.660   3.926
 2445SOL    HW2 2067   2.382   2.624   4.048
 2448SOL     OW 2068   2.903   2.563   4.153
 2448SOL    HW1 2069   2.929   2.559   4.249
 2448SOL    HW2 2070   2.818   2.512   4.139
 2450SOL     OW 2071   2.727   2.210   3.919
 2450SOL    HW1 2072   2.786   2.273   3.870
 2450SOL    HW2 2073   2.746   2.116   3.890
 2456SOL     OW 2074   2.183   2.805   3.966
 2456SOL    HW1 2075   2.265   2.844   3.924
 2456SOL    HW2 2076   2.156   2.723   3.917
 2464SOL     OW 2077   2.244   2.562   4.204
 2464SOL    HW1 2078   2.289   2.472   4.201
 2464SOL    HW2 2079   2.150   2.551   4.237
 2465SOL     OW 2080   2.476   1.984   3.841
 2465SOL    HW1 2081   2.574   1.962   3.848
 2465SOL    HW2 2082   2.445   1.967   3.748
 2469SOL     OW 2083   3.296   3.050   3.765
 2469SOL    HW1 2084   3.328   2.974   3.822
 2469SOL    HW2 2085   3.204   3.077   3.795
 2470SOL     OW 2086   2.159   1.897   3.895
 2470SOL    HW1 2087   2.208   1.981   3.874
 2470SOL    HW2 2088   2.221   1.832   3.940
 2475SOL     OW 2089   2.894   2.411   3.740
 2475SOL    HW1 2090   2.853   2.493   3.701
 2475SOL    HW2 2091   2.958   2.437   3.813
 2481SOL     OW 2092   2.350   3.247   3.898
 2481SOL    HW1 2093   2.263   3.232   3.945
 2481SOL    HW2 2094   2.333   3.273   3.803
 2483SOL     OW 2095   3.252   2.437   3.802
 2483SOL    HW1 2096   3.198   2.416   3.883
 2483SOL    HW2 2097   3.343   2.396   3.811
 2484SOL     OW 2098   2.389   2.118   4.052
 2484SOL    HW1 2099   2.416   2.059   3.977
 2484SOL    HW2 2100   2.389   2.213   4.021
 2487SOL     OW 2101   2.567   2.912   4.092
 2487SOL    HW1 2102   2.553   2.919   4.191
 2487SOL    HW2 2103   2.651   2.861   4.074
 2495SOL     OW 2104   3.071   2.387   3.999
 2495SOL    HW1 2105   3.084   2.303   4.053
 2495SOL    HW2 2106   3.042   2.461   4.059
 2501SOL     OW 2107   3.402   2.136   3.849
 2501SOL    HW1 2108   3.341   2.061   3.872
 2501SOL    HW2 2109   3.424   2.188   3.932
 2502SOL     OW 2110   3.165   2.700   3.766
 2502SOL    HW1 2111   3.199   2.607   3.781
 2502SOL    HW2 2112   3.183   2.727   3.671
 2506SOL     OW 2113   1.870   3.188   3.924
 2506SOL    HW1 2114   1.777   3.209   3.893
 2506SOL    HW2 2115   1.880   3.089   3.937
 2511SOL     OW 2116   2.677   2.434   4.049
 2511SOL    HW1 2117   2.684   2.345   4.003
 2511SOL    HW2 2118   2.583   2.468   4.041
 2513SOL     OW 2119   2.335   2.362   3.915
 2513SOL    HW1 2120   2.396   2.442   3.919
 2513SOL    HW2 2121   2.240   2.393   3.922
 2514SOL     OW 2122   3.164   2.717   4.033
 2514SOL    HW1 2123   3.078   2.686   4.075
 2514SOL    HW2 2124   3.160   2.703   3.934
 2520SOL     OW 2125   2.534   3.478   3.878
 2520SOL    HW1 2126   2.543   3.488   3.779
 2520SOL    HW2 2127   2.494   3.389   3.899
 2523SOL     OW 2128   3.056   3.474   3.755
 2523SOL    HW1 2129   3.062   3.381   3.792
 2523SOL    HW2 2130   2.997   3.474   3.675
 2524SOL     OW 2131   2.778   2.772   4.015
 2524SOL    HW1 2132   2.841   2.810   3.947
 2524SOL    HW2 2133   2.818   2.689   4.054
 2529SOL     OW 2134   2.117   3.210   4.014
 2529SOL    HW1 2135   2.021   3.211   3.987
 2529SOL    HW2 2136   2.129   3.263   4.098
 2530SOL     OW 2137   1.937   2.207   3.757
 2530SOL    HW1 2138   1.845   2.179   3.728
 2530SOL    HW2 2139   1.968   2.284   3.701
 2531SOL     OW 2140   1.934   2.028   4.042
 2531SOL    HW1 2141   1.917   2.111   3.988
 2531SOL    HW2 2142   2.024   1.991   4.020
 2532SOL     OW 2143   3.045   3.197   3.843
 2532SOL    HW1 2144   2.946   3.186   3.845
 2532SOL    HW2 2145   3.079   3.212   3.936
 2537SOL     OW 2146   2.721   3.236   3.740
 2537SOL    HW1 2147   2.675   3.251   3.828
 2537SOL    HW2 2148   2.765   3.321   3.710
 2540SOL     OW 2149   2.945   2.846   3.811
 2540SOL    HW1 2150   2.922   2.899   3.729
 2540SOL    HW2 2151   3.026   2.790   3.792
 2547SOL     OW 2152   2.632   3.192   4.025
 2547SOL    HW1 2153   2.586   3.105   4.042
 2547SOL    HW2 2154   2.723   3.189   4.066
 2548SOL     OW 2155   3.214   1.914   3.892
 2548SOL    HW1 2156   3.249   1.873   3.808
 2548SOL    HW2 2157   3.124   1.876   3.912
 2551SOL     OW 2158   1.901   2.939   4.024
 2551SOL    HW1 2159   2.000   2.928   4.015
 2551SOL    HW2 2160   1.861   2.853   4.056
 2574SOL     OW 2161   2.179   3.975   1.801
 2574SOL    HW1 2162   2.250   4.046   1.807
 2574SOL    HW2 2163   2.091   4.014   1.829
 2594SOL     OW 2164   2.643   3.988   1.749
 2594SOL    HW1 2165   2.710   3.927   1.792
 2594SOL    HW2 2166   2.570   4.007   1.814
 2612SOL     OW 2167   2.777   3.813   1.402
 2612SOL    HW1 2168   2.802   3.793   1.307
 2612SOL    HW2 2169   2.849   3.869   1.444
 2620SOL     OW 2170   2.875   3.829   1.770
 2620SOL    HW1 2171   2.881   3.914   1.718
 2620SOL    HW2 2172   2.907   3.753   1.713
 2621SOL     OW 2173   2.366   3.774   1.740
 2621SOL    HW1 2174   2.324   3.717   1.670
 2621SOL    HW2 2175   2.300   3.843   1.772
 2659SOL     OW 2176   2.534   3.927   1.489
 2659SOL    HW1 2177   2.624   3.911   1.449
 2659SOL    HW2 2178   2.542   3.932   1.588
 2682SOL     OW 2179   2.087   3.999   2.858
 2682SOL    HW1 2180   2.122   3.982   2.950
 2682SOL    HW2 2181   1.999   3.954   2.846
 2683SOL     OW 2182   1.881   4.092   2.509
 2683SOL    HW1 2183   1.799   4.135   2.548
 2683SOL    HW2 2184   1.853   4.019   2.446
 2699SOL     OW 2185   2.671   3.728   2.364
 2699SOL    HW1 2186   2.711   3.819   2.355
 2699SOL    HW2 2187   2.571   3.736   2.370
 2711SOL     OW 2188   2.727   4.072   2.057
 2711SOL    HW1 2189   2.786   4.135   2.008
 2711SOL    HW2 2190   2.746   3.978   2.028
 2713SOL     OW 2191   2.412   3.920   2.747
 2713SOL    HW1 2192   2.407   3.915   2.847
 2713SOL    HW2 2193   2.414   4.016   2.718
 2718SOL     OW 2194   3.262   3.831   2.288
 2718SOL    HW1 2195   3.238   3.794   2.198
 2718SOL    HW2 2196   3.361   3.847   2.292
 2721SOL     OW 2197   2.476   3.846   1.979
 2721SOL    HW1 2198   2.574   3.824   1.986
 2721SOL    HW2 2199   2.445   3.829   1.886
 2725SOL     OW 2200   2.401   3.788   2.374
 2725SOL    HW1 2201   2.320   3.789   2.432
 2725SOL    HW2 2202   2.404   3.871   2.319
 2726SOL     OW 2203   2.159   3.759   2.033
 2726SOL    HW1 2204   2.208   3.843   2.012
 2726SOL    HW2 2205   2.221   3.694   2.078
 2727SOL     OW 2206   2.797   3.960   2.342
 2727SOL    HW1 2207   2.749   4.001   2.264
 2727SOL    HW2 2208   2.896   3.958   2.323
 2731SOL     OW 2209   2.423   3.946   3.009
 2731SOL    HW1 2210   2.461   3.862   3.046
 2731SOL    HW2 2211   2.335   3.965   3.053
 2732SOL     OW 2212   2.728   4.178   2.504
 2732SOL    HW1 2213   2.696   4.250   2.442
 2732SOL    HW2 2214   2.752   4.097   2.451
 2733SOL     OW 2215   2.879   3.763   2.615
 2733SOL    HW1 2216   2.807   3.768   2.546
 2733SOL    HW2 2217   2.855   3.694   2.684
 2738SOL     OW 2218   2.389   3.980   2.190
 2738SOL    HW1 2219   2.416   3.921   2.115
 2738SOL    HW2 2220   2.389   4.075   2.159
 2741SOL     OW 2221   2.777   3.813   3.264
 2741SOL    HW1 2222   2.802   3.793   3.169
 2741SOL    HW2 2223   2.849   3.869   3.306
 2750SOL     OW 2224   2.366   3.774   3.602
 2750SOL    HW1 2225   2.324   3.717   3.532
 2750SOL    HW2 2226   2.300   3.843   3.634
 2754SOL     OW 2227   2.169   3.937   3.093
 2754SOL    HW1 2228   2.146   3.974   3.183
 2754SOL    HW2 2229   2.139   3.842   3.087
 2757SOL     OW 2230   2.169   3.787   2.480
 2757SOL    HW1 2231   2.158   3.881   2.513
 2757SOL    HW2 2232   2.164   3.724   2.557
 2781SOL     OW 2233   2.125   4.050   2.582
 2781SOL    HW1 2234   2.046   4.101   2.548
 2781SOL    HW2 2235   2.116   4.035   2.680
 2784SOL     OW 2236   2.876   3.960   2.833
 2784SOL    HW1 2237   2.868   3.924   2.740
 2784SOL    HW2 2238   2.874   3.884   2.898
 2787SOL     OW 2239   2.534   3.927   3.351
 2787SOL    HW1 2240   2.624   3.911   3.311
 2787SOL    HW2 2241   2.542   3.932   3.450
 2788SOL     OW 2242   1.937   4.069   1.895
 2788SOL    HW1 2243   1.845   4.041   1.866
 2788SOL    HW2 2244   1.968   4.146   1.839
 2790SOL     OW 2245   1.934   3.890   2.180
 2790SOL    HW1 2246   1.917   3.973   2.126
 2790SOL    HW2 2247   2.024   3.853   2.158
 2795SOL     OW 2248   3.087   4.049   2.311
 2795SOL    HW1 2249   3.152   3.975   2.300
 2795SOL    HW2 2250   3.107   4.099   2.395
 2802SOL     OW 2251   2.290   4.148   2.382
 2802SOL    HW1 2252   2.320   4.076   2.320
 2802SOL    HW2 2253   2.251   4.108   2.465
 2804SOL     OW 2254   3.286   3.938   2.974
 2804SOL    HW1 2255   3.338   3.873   3.029
 2804SOL    HW2 2256   3.237   4.001   3.035
 2805SOL     OW 2257   2.863   3.758   3.016
 2805SOL    HW1 2258   2.800   3.686   2.985
 2805SOL    HW2 2259   2.956   3.722   3.016
 2806SOL     OW 2260   3.214   3.776   2.030
 2806SOL    HW1 2261   3.249   3.735   1.946
 2806SOL    HW2 2262   3.124   3.738   2.050
 2921SOL     OW 2263   3.854   1.821   1.571
 2921SOL    HW1 2264   3.844   1.806   1.670
 2921SOL    HW2 2265   3.768   1.857   1.535
 2992SOL     OW 2266   3.854   1.794   1.851
 2992SOL    HW1 2267   3.813   1.720   1.904
 2992SOL    HW2 2268   3.918   1.845   1.909
 3035SOL     OW 2269   3.955   1.713   2.345
 3035SOL    HW1 2270   3.989   1.790   2.399
 3035SOL    HW2 2271   3.999   1.713   2.255
 3042SOL     OW 2272   3.751   1.596   1.979
 3042SOL    HW1 2273   3.732   1.500   2.000
 3042SOL    HW2 2274   3.718   1.654   2.054
 3058SOL     OW 2275   4.075   1.801   2.715
 3058SOL    HW1 2276   4.125   1.715   2.721
 3058SOL    HW2 2277   4.140   1.878   2.712
 3063SOL     OW 2278   3.973   1.785   3.103
 3063SOL    HW1 2279   4.030   1.720   3.153
 3063SOL    HW2 2280   3.957   1.752   3.010
 3088SOL     OW 2281   3.788   1.564   3.193
 3088SOL    HW1 2282   3.742   1.646   3.159
 3088SOL    HW2 2283   3.886   1.583   3.202
 3108SOL     OW 2284   3.732   1.326   2.062
 3108SOL    HW1 2285   3.639   1.347   2.031
 3108SOL    HW2 2286   3.742   1.227   2.075
 3109SOL     OW 2287   3.812   1.801   2.789
 3109SOL    HW1 2288   3.770   1.715   2.762
 3109SOL    HW2 2289   3.906   1.804   2.755
 3258SOL     OW 2290   3.837   2.599   1.597
 3258SOL    HW1 2291   3.925   2.586   1.642
 3258SOL    HW2 2292   3.824   2.696   1.575
 3262SOL     OW 2293   4.041   2.113   1.801
 3262SOL    HW1 2294   4.112   2.184   1.807
 3262SOL    HW2 2295   3.953   2.152   1.829
 3276SOL     OW 2296   3.926   2.147   1.498
 3276SOL    HW1 2297   3.846   2.207   1.485
 3276SOL    HW2 2298   3.916   2.098   1.584
 3293SOL     OW 2299   3.802   2.418   1.386
 3293SOL    HW1 2300   3.894   2.417   1.345
 3293SOL    HW2 2301   3.796   2.492   1.453
 3318SOL     OW 2302   4.074   2.760   1.804
 3318SOL    HW1 2303   4.150   2.804   1.852
 3318SOL    HW2 2304   4.109   2.713   1.722
 3329SOL     OW 2305   3.913   2.382   1.722
 3329SOL    HW1 2306   3.972   2.342   1.652
 3329SOL    HW2 2307   3.855   2.453   1.681
 3351SOL     OW 2308   3.829   2.875   1.726
 3351SOL    HW1 2309   3.752   2.842   1.780
 3351SOL    HW2 2310   3.914   2.845   1.768
 3362SOL     OW 2311   3.945   3.176   1.844
 3362SOL    HW1 2312   3.880   3.103   1.823
 3362SOL    HW2 2313   3.949   3.190   1.942
 3373SOL     OW 2314   3.954   2.490   1.975
 3373SOL    HW1 2315   3.861   2.488   2.012
 3373SOL    HW2 2316   3.955   2.451   1.883
 3374SOL     OW 2317   3.949   2.137   2.858
 3374SOL    HW1 2318   3.984   2.120   2.950
 3374SOL    HW2 2319   3.861   2.092   2.846
 3375SOL     OW 2320   3.743   2.230   2.509
 3375SOL    HW1 2321   3.661   2.273   2.548
 3375SOL    HW2 2322   3.715   2.157   2.446
 3385SOL     OW 2323   3.954   3.296   2.400
 3385SOL    HW1 2324   3.928   3.392   2.400
 3385SOL    HW2 2325   3.883   3.242   2.445
 3386SOL     OW 2326   3.964   2.953   2.748
 3386SOL    HW1 2327   3.978   2.869   2.800
 3386SOL    HW2 2328   3.909   3.017   2.803
 3389SOL     OW 2329   3.846   2.505   2.425
 3389SOL    HW1 2330   3.801   2.417   2.442
 3389SOL    HW2 2331   3.845   2.559   2.509
 3390SOL     OW 2332   3.751   3.458   1.979
 3390SOL    HW1 2333   3.732   3.362   2.000
 3390SOL    HW2 2334   3.718   3.516   2.054
 3391SOL     OW 2335   3.837   2.599   3.459
 3391SOL    HW1 2336   3.925   2.586   3.504
 3391SOL    HW2 2337   3.824   2.696   3.437
 3394SOL     OW 2338   3.921   2.838   3.126
 3394SOL    HW1 2339   4.010   2.793   3.112
 3394SOL    HW2 2340   3.848   2.773   3.107
 3401SOL     OW 2341   3.800   2.673   2.651
 3401SOL    HW1 2342   3.899   2.661   2.660
 3401SOL    HW2 2343   3.776   2.768   2.672
 3407SOL     OW 2344   4.045   2.805   2.104
 3407SOL    HW1 2345   4.127   2.844   2.062
 3407SOL    HW2 2346   4.018   2.723   2.055
 3409SOL     OW 2347   3.926   2.147   3.360
 3409SOL    HW1 2348   3.846   2.207   3.347
 3409SOL    HW2 2349   3.916   2.098   3.446
 3413SOL     OW 2350   4.106   2.562   2.342
 3413SOL    HW1 2351   4.151   2.472   2.339
 3413SOL    HW2 2352   4.012   2.551   2.375
 3420SOL     OW 2353   4.021   1.897   2.033
 3420SOL    HW1 2354   4.070   1.981   2.012
 3420SOL    HW2 2355   4.083   1.832   2.078
 3426SOL     OW 2356   3.802   2.418   3.248
 3426SOL    HW1 2357   3.894   2.417   3.207
 3426SOL    HW2 2358   3.796   2.492   3.315
 3437SOL     OW 2359   4.091   2.962   2.363
 3437SOL    HW1 2360   4.084   3.045   2.307
 3437SOL    HW2 2361   4.095   2.882   2.303
 3445SOL     OW 2362   4.031   2.075   3.093
 3445SOL    HW1 2363   4.008   2.112   3.183
 3445SOL    HW2 2364   4.001   1.980   3.087
 3446SOL     OW 2365   3.761   3.172   3.144
 3446SOL    HW1 2366   3.814   3.123   3.212
 3446SOL    HW2 2367   3.783   3.270   3.149
 3448SOL     OW 2368   4.031   1.925   2.480
 3448SOL    HW1 2369   4.020   2.019   2.513
 3448SOL    HW2 2370   4.026   1.862   2.557
 3453SOL     OW 2371   4.043   2.672   2.811
 3453SOL    HW1 2372   4.136   2.708   2.816
 3453SOL    HW2 2373   4.037   2.587   2.863
 3454SOL     OW 2374   4.063   2.371   2.868
 3454SOL    HW1 2375   4.011   2.288   2.851
 3454SOL    HW2 2376   4.140   2.376   2.804
 3457SOL     OW 2377   3.732   3.188   2.062
 3457SOL    HW1 2378   3.639   3.209   2.031
 3457SOL    HW2 2379   3.742   3.089   2.075
 3461SOL     OW 2380   3.764   2.406   2.976
 3461SOL    HW1 2381   3.849   2.373   2.935
 3461SOL    HW2 2382   3.777   2.421   3.074
 3467SOL     OW 2383   4.197   2.362   2.053
 3467SOL    HW1 2384   4.258   2.442   2.057
 3467SOL    HW2 2385   4.102   2.393   2.060
 3468SOL     OW 2386   3.883   2.999   3.328
 3468SOL    HW1 2387   3.905   2.938   3.404
 3468SOL    HW2 2388   3.893   2.950   3.242
 3470SOL     OW 2389   3.807   3.120   2.884
 3470SOL    HW1 2390   3.802   3.119   2.984
 3470SOL    HW2 2391   3.724   3.079   2.846
 3475SOL     OW 2392   3.987   2.188   2.582
 3475SOL    HW1 2393   3.908   2.239   2.548
 3475SOL    HW2 2394   3.978   2.173   2.680
 3482SOL     OW 2395   3.979   3.210   2.152
 3482SOL    HW1 2396   3.883   3.211   2.125
 3482SOL    HW2 2397   3.991   3.263   2.236
 3485SOL     OW 2398   3.799   2.207   1.895
 3485SOL    HW1 2399   3.707   2.179   1.866
 3485SOL    HW2 2400   3.830   2.284   1.839
 3486SOL     OW 2401   3.796   2.028   2.180
 3486SOL    HW1 2402   3.779   2.111   2.126
 3486SOL    HW2 2403   3.886   1.991   2.158
 3496SOL     OW 2404   3.803   3.102   2.515
 3496SOL    HW1 2405   3.802   3.055   2.603
 3496SOL    HW2 2406   3.885   3.074   2.464
 3498SOL     OW 2407   4.152   2.286   2.382
 3498SOL    HW1 2408   4.182   2.214   2.320
 3498SOL    HW2 2409   4.113   2.246   2.465
 3499SOL     OW 2410   4.041   2.409   3.142
 3499SOL    HW1 2411   4.079   2.350   3.214
 3499SOL    HW2 2412   4.081   2.383   3.054
 3504SOL     OW 2413   3.763   2.939   2.162
 3504SOL    HW1 2414   3.862   2.928   2.153
 3504SOL    HW2 2415   3.723   2.853   2.194
   4.89217   4.89217   4.89217
