; mobley_7326706_GMX.itp created by acpype (v: 2023.10.27) on Thu May 21 00:22:29 2026

[ atomtypes ]
;name   bond_type     mass     charge   ptype   sigma         epsilon       Amb
 ca       ca          0.00000  0.00000   A     3.31521e-01   4.13379e-01 ; 1.86  0.0988
 c3       c3          0.00000  0.00000   A     3.39771e-01   4.51035e-01 ; 1.91  0.1078
 nb       nb          0.00000  0.00000   A     3.38417e-01   3.93714e-01 ; 1.90  0.0941
 os       os          0.00000  0.00000   A     3.15610e-01   3.03758e-01 ; 1.77  0.0726
 p5       p5          0.00000  0.00000   A     3.69402e-01   9.60228e-01 ; 2.07  0.2295
 s        s           0.00000  0.00000   A     3.53241e-01   1.18156e+00 ; 1.98  0.2824
 cl       cl          0.00000  0.00000   A     3.46595e-01   1.10374e+00 ; 1.95  0.2638
 ha       ha          0.00000  0.00000   A     2.62548e-01   6.73624e-02 ; 1.47  0.0161
 hc       hc          0.00000  0.00000   A     2.60018e-01   8.70272e-02 ; 1.46  0.0208
 h1       h1          0.00000  0.00000   A     2.42200e-01   8.70272e-02 ; 1.36  0.0208

[ moleculetype ]
;name            nrexcl
 mobley_7326706   3

[ atoms ]
;   nr  type  resi  res  atom  cgnr     charge      mass       ; qtot   bond_type
     1   ca     1   MOL    C1    1    -0.053000     12.01000 ; qtot -0.053
     2   ca     1   MOL    C2    2    -0.089900     12.01000 ; qtot -0.143
     3   ca     1   MOL    C3    3    -0.117900     12.01000 ; qtot -0.261
     4   ca     1   MOL    C4    4     0.673600     12.01000 ; qtot 0.413
     5   ca     1   MOL    C5    5     0.553300     12.01000 ; qtot 0.966
     6   c3     1   MOL    C6    6    -0.111600     12.01000 ; qtot 0.855
     7   c3     1   MOL    C7    7    -0.111600     12.01000 ; qtot 0.743
     8   c3     1   MOL    C8    8     0.151900     12.01000 ; qtot 0.895
     9   c3     1   MOL    C9    9     0.151900     12.01000 ; qtot 1.047
    10   nb     1   MOL    N1   10    -0.765000     14.01000 ; qtot 0.282
    11   os     1   MOL    O1   11    -0.515700     16.00000 ; qtot -0.234
    12   os     1   MOL    O2   12    -0.524700     16.00000 ; qtot -0.759
    13   os     1   MOL    O3   13    -0.524700     16.00000 ; qtot -1.283
    14   p5     1   MOL    P1   14     1.241200     30.97000 ; qtot -0.042
    15    s     1   MOL    S1   15    -0.590000     32.06000 ; qtot -0.632
    16   cl     1   MOL   CL1   16    -0.019400     35.45000 ; qtot -0.652
    17   cl     1   MOL   CL2   17    -0.031400     35.45000 ; qtot -0.683
    18   cl     1   MOL   CL3   18    -0.091000     35.45000 ; qtot -0.774
    19   ha     1   MOL    H1   19     0.178000      1.00800 ; qtot -0.596
    20   hc     1   MOL    H2   20     0.053200      1.00800 ; qtot -0.543
    21   hc     1   MOL    H3   21     0.053200      1.00800 ; qtot -0.490
    22   hc     1   MOL    H4   22     0.053200      1.00800 ; qtot -0.436
    23   hc     1   MOL    H5   23     0.053200      1.00800 ; qtot -0.383
    24   hc     1   MOL    H6   24     0.053200      1.00800 ; qtot -0.330
    25   hc     1   MOL    H7   25     0.053200      1.00800 ; qtot -0.277
    26   h1     1   MOL    H8   26     0.069200      1.00800 ; qtot -0.208
    27   h1     1   MOL    H9   27     0.069200      1.00800 ; qtot -0.138
    28   h1     1   MOL   H10   28     0.069200      1.00800 ; qtot -0.069
    29   h1     1   MOL   H11   29     0.069200      1.00800 ; qtot 0.000

[ bonds ]
;   ai     aj funct   r             k
     1      2   1    1.3986e-01    2.9644e+05 ;     C1 - C2    
     1      3   1    1.3986e-01    2.9644e+05 ;     C1 - C3    
     1     19   1    1.0860e-01    3.0183e+05 ;     C1 - H1    
     2      4   1    1.3986e-01    2.9644e+05 ;     C2 - C4    
     2     16   1    1.7572e-01    1.5730e+05 ;     C2 - CL1   
     3      5   1    1.3986e-01    2.9644e+05 ;     C3 - C5    
     3     17   1    1.7572e-01    1.5730e+05 ;     C3 - CL2   
     4     10   1    1.3392e-01    3.2341e+05 ;     C4 - N1    
     4     11   1    1.3688e-01    2.8731e+05 ;     C4 - O1    
     5     10   1    1.3392e-01    3.2341e+05 ;     C5 - N1    
     5     18   1    1.7572e-01    1.5730e+05 ;     C5 - CL3   
     6      8   1    1.5354e-01    1.9154e+05 ;     C6 - C8    
     6     20   1    1.0962e-01    2.8891e+05 ;     C6 - H2    
     6     21   1    1.0962e-01    2.8891e+05 ;     C6 - H3    
     6     22   1    1.0962e-01    2.8891e+05 ;     C6 - H4    
     7      9   1    1.5354e-01    1.9154e+05 ;     C7 - C9    
     7     23   1    1.0962e-01    2.8891e+05 ;     C7 - H5    
     7     24   1    1.0962e-01    2.8891e+05 ;     C7 - H6    
     7     25   1    1.0962e-01    2.8891e+05 ;     C7 - H7    
     8     12   1    1.4273e-01    2.3620e+05 ;     C8 - O2    
     8     26   1    1.0969e-01    2.8804e+05 ;     C8 - H8    
     8     27   1    1.0969e-01    2.8804e+05 ;     C8 - H9    
     9     13   1    1.4273e-01    2.3620e+05 ;     C9 - O3    
     9     28   1    1.0969e-01    2.8804e+05 ;     C9 - H10   
     9     29   1    1.0969e-01    2.8804e+05 ;     C9 - H11   
    11     14   1    1.6182e-01    3.2434e+05 ;     O1 - P1    
    12     14   1    1.6182e-01    3.2434e+05 ;     O2 - P1    
    13     14   1    1.6182e-01    3.2434e+05 ;     O3 - P1    
    14     15   1    1.9473e-01    2.2085e+05 ;     P1 - S1    

[ pairs ]
;   ai     aj    funct
     1     10      1 ;     C1 - N1    
     1     11      1 ;     C1 - O1    
     1     18      1 ;     C1 - CL3   
     2      5      1 ;     C2 - C5    
     2     14      1 ;     C2 - P1    
     2     17      1 ;     C2 - CL2   
     3      4      1 ;     C3 - C4    
     3     16      1 ;     C3 - CL1   
     4     12      1 ;     C4 - O2    
     4     13      1 ;     C4 - O3    
     4     15      1 ;     C4 - S1    
     4     18      1 ;     C4 - CL3   
     5     11      1 ;     C5 - O1    
     6     14      1 ;     C6 - P1    
     7     14      1 ;     C7 - P1    
     8     11      1 ;     C8 - O1    
     8     13      1 ;     C8 - O3    
     8     15      1 ;     C8 - S1    
     9     11      1 ;     C9 - O1    
     9     12      1 ;     C9 - O2    
     9     15      1 ;     C9 - S1    
    10     14      1 ;     N1 - P1    
    10     16      1 ;     N1 - CL1   
    10     17      1 ;     N1 - CL2   
    11     16      1 ;     O1 - CL1   
    12     20      1 ;     O2 - H2    
    12     21      1 ;     O2 - H3    
    12     22      1 ;     O2 - H4    
    13     23      1 ;     O3 - H5    
    13     24      1 ;     O3 - H6    
    13     25      1 ;     O3 - H7    
    14     26      1 ;     P1 - H8    
    14     27      1 ;     P1 - H9    
    14     28      1 ;     P1 - H10   
    14     29      1 ;     P1 - H11   
    17     18      1 ;    CL2 - CL3   
    19      4      1 ;     H1 - C4    
    19      5      1 ;     H1 - C5    
    19     16      1 ;     H1 - CL1   
    19     17      1 ;     H1 - CL2   
    20     26      1 ;     H2 - H8    
    20     27      1 ;     H2 - H9    
    21     26      1 ;     H3 - H8    
    21     27      1 ;     H3 - H9    
    22     26      1 ;     H4 - H8    
    22     27      1 ;     H4 - H9    
    23     28      1 ;     H5 - H10   
    23     29      1 ;     H5 - H11   
    24     28      1 ;     H6 - H10   
    24     29      1 ;     H6 - H11   
    25     28      1 ;     H7 - H10   
    25     29      1 ;     H7 - H11   

[ angles ]
;   ai     aj     ak    funct   theta         cth
     1      2      4      1    1.2002e+02    5.3279e+02 ;     C1 - C2     - C4    
     1      2     16      1    1.1938e+02    5.3605e+02 ;     C1 - C2     - CL1   
     1      3      5      1    1.2002e+02    5.3279e+02 ;     C1 - C3     - C5    
     1      3     17      1    1.1938e+02    5.3605e+02 ;     C1 - C3     - CL2   
     2      1      3      1    1.2002e+02    5.3279e+02 ;     C2 - C1     - C3    
     2      1     19      1    1.1988e+02    3.7572e+02 ;     C2 - C1     - H1    
     2      4     10      1    1.2294e+02    5.7045e+02 ;     C2 - C4     - N1    
     2      4     11      1    1.1911e+02    6.6107e+02 ;     C2 - C4     - O1    
     3      1     19      1    1.1988e+02    3.7572e+02 ;     C3 - C1     - H1    
     3      5     10      1    1.2294e+02    5.7045e+02 ;     C3 - C5     - N1    
     3      5     18      1    1.1938e+02    5.3605e+02 ;     C3 - C5     - CL3   
     4      2     16      1    1.1938e+02    5.3605e+02 ;     C4 - C2     - CL1   
     4     10      5      1    1.1724e+02    6.9580e+02 ;     C4 - N1     - C5    
     4     11     14      1    1.2302e+02    4.7371e+02 ;     C4 - O1     - P1    
     5      3     17      1    1.1938e+02    5.3605e+02 ;     C5 - C3     - CL2   
     6      8     12      1    1.0762e+02    6.4802e+02 ;     C6 - C8     - O2    
     6      8     26      1    1.0959e+02    3.6217e+02 ;     C6 - C8     - H8    
     6      8     27      1    1.0959e+02    3.6217e+02 ;     C6 - C8     - H9    
     7      9     13      1    1.0762e+02    6.4802e+02 ;     C7 - C9     - O3    
     7      9     28      1    1.0959e+02    3.6217e+02 ;     C7 - C9     - H10   
     7      9     29      1    1.0959e+02    3.6217e+02 ;     C7 - C9     - H11   
     8      6     20      1    1.0968e+02    3.6208e+02 ;     C8 - C6     - H2    
     8      6     21      1    1.0968e+02    3.6208e+02 ;     C8 - C6     - H3    
     8      6     22      1    1.0968e+02    3.6208e+02 ;     C8 - C6     - H4    
     8     12     14      1    1.1970e+02    4.7396e+02 ;     C8 - O2     - P1    
     9      7     23      1    1.0968e+02    3.6208e+02 ;     C9 - C7     - H5    
     9      7     24      1    1.0968e+02    3.6208e+02 ;     C9 - C7     - H6    
     9      7     25      1    1.0968e+02    3.6208e+02 ;     C9 - C7     - H7    
     9     13     14      1    1.1970e+02    4.7396e+02 ;     C9 - O3     - P1    
    10      4     11      1    1.1976e+02    7.1521e+02 ;     N1 - C4     - O1    
    10      5     18      1    1.1619e+02    5.8158e+02 ;     N1 - C5     - CL3   
    11     14     12      1    1.0172e+02    8.6123e+02 ;     O1 - P1     - O2    
    11     14     13      1    1.0172e+02    8.6123e+02 ;     O1 - P1     - O3    
    11     14     15      1    1.1704e+02    6.8040e+02 ;     O1 - P1     - S1    
    12      8     26      1    1.1034e+02    4.7028e+02 ;     O2 - C8     - H8    
    12      8     27      1    1.1034e+02    4.7028e+02 ;     O2 - C8     - H9    
    12     14     13      1    1.0172e+02    8.6123e+02 ;     O2 - P1     - O3    
    12     14     15      1    1.1704e+02    6.8040e+02 ;     O2 - P1     - S1    
    13      9     28      1    1.1034e+02    4.7028e+02 ;     O3 - C9     - H10   
    13      9     29      1    1.1034e+02    4.7028e+02 ;     O3 - C9     - H11   
    13     14     15      1    1.1704e+02    6.8040e+02 ;     O3 - P1     - S1    
    20      6     21      1    1.0773e+02    2.9957e+02 ;     H2 - C6     - H3    
    20      6     22      1    1.0773e+02    2.9957e+02 ;     H2 - C6     - H4    
    21      6     22      1    1.0773e+02    2.9957e+02 ;     H3 - C6     - H4    
    23      7     24      1    1.0773e+02    2.9957e+02 ;     H5 - C7     - H6    
    23      7     25      1    1.0773e+02    2.9957e+02 ;     H5 - C7     - H7    
    24      7     25      1    1.0773e+02    2.9957e+02 ;     H6 - C7     - H7    
    26      8     27      1    1.0855e+02    2.9824e+02 ;     H8 - C8     - H9    
    28      9     29      1    1.0855e+02    2.9824e+02 ;    H10 - C9     - H11   

[ dihedrals ] ; propers
; for gromacs 4.5 or higher, using funct 9
;    i      j      k      l   func   phase     kd      pn
     1      2      4     10      9   180.00  15.16700   2 ;     C1-    C2-    C4-    N1
     1      2      4     11      9   180.00  15.16700   2 ;     C1-    C2-    C4-    O1
     1      3      5     10      9   180.00  15.16700   2 ;     C1-    C3-    C5-    N1
     1      3      5     18      9   180.00  15.16700   2 ;     C1-    C3-    C5-   CL3
     2      1      3      5      9   180.00  15.16700   2 ;     C2-    C1-    C3-    C5
     2      1      3     17      9   180.00  15.16700   2 ;     C2-    C1-    C3-   CL2
     2      4     10      5      9   180.00  20.08320   2 ;     C2-    C4-    N1-    C5
     2      4     11     14      9   180.00   7.32200   2 ;     C2-    C4-    O1-    P1
     3      1      2      4      9   180.00  15.16700   2 ;     C3-    C1-    C2-    C4
     3      1      2     16      9   180.00  15.16700   2 ;     C3-    C1-    C2-   CL1
     3      5     10      4      9   180.00  20.08320   2 ;     C3-    C5-    N1-    C4
     4     10      5     18      9   180.00  20.08320   2 ;     C4-    N1-    C5-   CL3
     4     11     14     12      9     0.00   3.34720   2 ;     C4-    O1-    P1-    O2
     4     11     14     13      9     0.00   3.34720   2 ;     C4-    O1-    P1-    O3
     4     11     14     15      9     0.00   3.34720   2 ;     C4-    O1-    P1-    S1
     5     10      4     11      9   180.00  20.08320   2 ;     C5-    N1-    C4-    O1
     6      8     12     14      9     0.00   1.60247   3 ;     C6-    C8-    O2-    P1
     6      8     12     14      9   180.00  16.52680   1 ;     C6-    C8-    O2-    P1
     7      9     13     14      9     0.00   1.60247   3 ;     C7-    C9-    O3-    P1
     7      9     13     14      9   180.00  16.52680   1 ;     C7-    C9-    O3-    P1
     8     12     14     11      9     0.00  14.72768   2 ;     C8-    O2-    P1-    O1
     8     12     14     13      9     0.00  14.72768   2 ;     C8-    O2-    P1-    O3
     8     12     14     15      9     0.00   3.34720   2 ;     C8-    O2-    P1-    S1
     9     13     14     11      9     0.00  14.72768   2 ;     C9-    O3-    P1-    O1
     9     13     14     12      9     0.00  14.72768   2 ;     C9-    O3-    P1-    O2
     9     13     14     15      9     0.00   3.34720   2 ;     C9-    O3-    P1-    S1
    10      4      2     16      9   180.00  15.16700   2 ;     N1-    C4-    C2-   CL1
    10      4     11     14      9   180.00   3.76560   2 ;     N1-    C4-    O1-    P1
    10      5      3     17      9   180.00  15.16700   2 ;     N1-    C5-    C3-   CL2
    11      4      2     16      9   180.00  15.16700   2 ;     O1-    C4-    C2-   CL1
    12      8      6     20      9     0.00   0.00000   0 ;     O2-    C8-    C6-    H2
    12      8      6     20      9     0.00   1.04600   1 ;     O2-    C8-    C6-    H2
    12      8      6     21      9     0.00   0.00000   0 ;     O2-    C8-    C6-    H3
    12      8      6     21      9     0.00   1.04600   1 ;     O2-    C8-    C6-    H3
    12      8      6     22      9     0.00   0.00000   0 ;     O2-    C8-    C6-    H4
    12      8      6     22      9     0.00   1.04600   1 ;     O2-    C8-    C6-    H4
    13      9      7     23      9     0.00   0.00000   0 ;     O3-    C9-    C7-    H5
    13      9      7     23      9     0.00   1.04600   1 ;     O3-    C9-    C7-    H5
    13      9      7     24      9     0.00   0.00000   0 ;     O3-    C9-    C7-    H6
    13      9      7     24      9     0.00   1.04600   1 ;     O3-    C9-    C7-    H6
    13      9      7     25      9     0.00   0.00000   0 ;     O3-    C9-    C7-    H7
    13      9      7     25      9     0.00   1.04600   1 ;     O3-    C9-    C7-    H7
    14     12      8     26      9     0.00   0.00000   0 ;     P1-    O2-    C8-    H8
    14     12      8     27      9     0.00   0.00000   0 ;     P1-    O2-    C8-    H9
    14     13      9     28      9     0.00   0.00000   0 ;     P1-    O3-    C9-   H10
    14     13      9     29      9     0.00   0.00000   0 ;     P1-    O3-    C9-   H11
    17      3      5     18      9   180.00  15.16700   2 ;    CL2-    C3-    C5-   CL3
    19      1      2      4      9   180.00  15.16700   2 ;     H1-    C1-    C2-    C4
    19      1      2     16      9   180.00  15.16700   2 ;     H1-    C1-    C2-   CL1
    19      1      3      5      9   180.00  15.16700   2 ;     H1-    C1-    C3-    C5
    19      1      3     17      9   180.00  15.16700   2 ;     H1-    C1-    C3-   CL2
    20      6      8     26      9     0.00   0.65084   3 ;     H2-    C6-    C8-    H8
    20      6      8     27      9     0.00   0.65084   3 ;     H2-    C6-    C8-    H9
    21      6      8     26      9     0.00   0.65084   3 ;     H3-    C6-    C8-    H8
    21      6      8     27      9     0.00   0.65084   3 ;     H3-    C6-    C8-    H9
    22      6      8     26      9     0.00   0.65084   3 ;     H4-    C6-    C8-    H8
    22      6      8     27      9     0.00   0.65084   3 ;     H4-    C6-    C8-    H9
    23      7      9     28      9     0.00   0.65084   3 ;     H5-    C7-    C9-   H10
    23      7      9     29      9     0.00   0.65084   3 ;     H5-    C7-    C9-   H11
    24      7      9     28      9     0.00   0.65084   3 ;     H6-    C7-    C9-   H10
    24      7      9     29      9     0.00   0.65084   3 ;     H6-    C7-    C9-   H11
    25      7      9     28      9     0.00   0.65084   3 ;     H7-    C7-    C9-   H10
    25      7      9     29      9     0.00   0.65084   3 ;     H7-    C7-    C9-   H11

[ dihedrals ] ; impropers
; treated as propers in GROMACS to use correct AMBER analytical function
;    i      j      k      l   func   phase     kd      pn
     1      4      2     16      4   180.00   4.60240   2 ;     C1-    C4-    C2-   CL1
     1      5      3     17      4   180.00   4.60240   2 ;     C1-    C5-    C3-   CL2
     2     10      4     11      4   180.00   4.60240   2 ;     C2-    N1-    C4-    O1
     3     18      5     10      4   180.00   4.60240   2 ;     C3-   CL3-    C5-    N1
    19      1      3      2      4   180.00   4.60240   2 ;     H1-    C1-    C3-    C2
