mobley_2269032_GMX.gro created by acpype (v: 2023.10.27) on Thu May 21 00:06:28 2026
 2413
    1MOL     C1    1   2.433   2.502   2.680
    1MOL     C2    2   2.780   2.538   2.552
    1MOL     C3    3   2.388   2.634   2.674
    1MOL     C4    4   2.825   2.406   2.557
    1MOL     C5    5   2.603   2.703   2.588
    1MOL     C6    6   2.610   2.336   2.643
    1MOL     C7    7   2.650   2.571   2.593
    1MOL     C8    8   2.564   2.469   2.639
    1MOL     C9    9   2.473   2.734   2.629
    1MOL    C10   10   2.740   2.305   2.603
    1MOL    C11   11   2.504   2.968   2.716
    1MOL    C12   12   2.424   2.935   2.481
    1MOL    C13   13   2.918   2.152   2.565
    1MOL    C14   14   2.425   2.875   2.624
    1MOL     O1   15   2.599   2.932   2.786
    1MOL     O2   16   2.459   3.096   2.715
    1MOL     O3   17   2.784   2.177   2.608
    1MOL     H1   18   2.365   2.424   2.715
    1MOL     H2   19   2.848   2.615   2.516
    1MOL     H3   20   2.287   2.657   2.706
    1MOL     H4   21   2.926   2.382   2.526
    1MOL     H5   22   2.668   2.783   2.553
    1MOL     H6   23   2.545   2.256   2.679
    1MOL     H7   24   2.524   2.936   2.437
    1MOL     H8   25   2.358   2.877   2.416
    1MOL     H9   26   2.388   3.039   2.481
    1MOL    H10   27   2.940   2.045   2.574
    1MOL    H11   28   2.987   2.210   2.626
    1MOL    H12   29   2.928   2.182   2.460
    1MOL    H13   30   2.320   2.879   2.660
    1MOL    H14   31   2.507   3.159   2.774
   97SOL     OW   32   1.592   1.629   1.625
   97SOL    HW1   33   1.619   1.663   1.535
   97SOL    HW2   34   1.671   1.591   1.671
  127SOL     OW   35   1.859   1.518   1.605
  127SOL    HW1   36   1.873   1.545   1.510
  127SOL    HW2   37   1.942   1.540   1.658
  163SOL     OW   38   1.650   1.720   1.394
  163SOL    HW1   39   1.703   1.730   1.310
  163SOL    HW2   40   1.623   1.810   1.428
  219SOL     OW   41   1.555   1.511   2.565
  219SOL    HW1   42   1.498   1.495   2.646
  219SOL    HW2   43   1.496   1.521   2.485
  227SOL     OW   44   1.460   1.505   3.201
  227SOL    HW1   45   1.484   1.599   3.227
  227SOL    HW2   46   1.444   1.451   3.283
  238SOL     OW   47   1.842   1.767   2.221
  238SOL    HW1   48   1.896   1.738   2.301
  238SOL    HW2   49   1.872   1.857   2.192
  250SOL     OW   50   1.466   1.417   2.815
  250SOL    HW1   51   1.407   1.423   2.895
  250SOL    HW2   52   1.451   1.329   2.769
  251SOL     OW   53   1.667   1.714   2.434
  251SOL    HW1   54   1.626   1.691   2.346
  251SOL    HW2   55   1.649   1.640   2.499
  254SOL     OW   56   1.576   1.662   2.169
  254SOL    HW1   57   1.665   1.708   2.172
  254SOL    HW2   58   1.555   1.638   2.074
  268SOL     OW   59   1.795   1.066   2.735
  268SOL    HW1   60   1.733   1.051   2.659
  268SOL    HW2   61   1.743   1.077   2.820
  273SOL     OW   62   1.111   1.776   2.099
  273SOL    HW1   63   1.051   1.714   2.149
  273SOL    HW2   64   1.142   1.732   2.014
  275SOL     OW   65   1.632   1.377   1.943
  275SOL    HW1   66   1.600   1.471   1.933
  275SOL    HW2   67   1.556   1.314   1.931
  293SOL     OW   68   1.227   1.570   2.655
  293SOL    HW1   69   1.248   1.644   2.590
  293SOL    HW2   70   1.295   1.570   2.728
  295SOL     OW   71   1.271   1.797   2.453
  295SOL    HW1   72   1.315   1.861   2.389
  295SOL    HW2   73   1.221   1.849   2.523
  305SOL     OW   74   1.664   1.280   2.519
  305SOL    HW1   75   1.763   1.288   2.533
  305SOL    HW2   76   1.619   1.364   2.550
  310SOL     OW   77   1.592   1.629   3.487
  310SOL    HW1   78   1.619   1.663   3.397
  310SOL    HW2   79   1.671   1.591   3.533
  340SOL     OW   80   1.859   1.518   3.467
  340SOL    HW1   81   1.873   1.545   3.372
  340SOL    HW2   82   1.942   1.540   3.520
  365SOL     OW   83   1.759   1.747   3.016
  365SOL    HW1   84   1.820   1.777   2.943
  365SOL    HW2   85   1.721   1.658   2.994
  366SOL     OW   86   1.252   1.731   2.990
  366SOL    HW1   87   1.336   1.736   2.936
  366SOL    HW2   88   1.229   1.635   3.008
  370SOL     OW   89   1.388   1.573   2.339
  370SOL    HW1   90   1.455   1.585   2.265
  370SOL    HW2   91   1.348   1.662   2.362
  375SOL     OW   92   1.650   1.720   3.256
  375SOL    HW1   93   1.703   1.730   3.172
  375SOL    HW2   94   1.623   1.810   3.290
  381SOL     OW   95   1.504   1.607   1.906
  381SOL    HW1   96   1.412   1.644   1.913
  381SOL    HW2   97   1.542   1.627   1.816
  383SOL     OW   98   1.614   1.292   3.151
  383SOL    HW1   99   1.674   1.295   3.231
  383SOL    HW2  100   1.539   1.356   3.164
  396SOL     OW  101   1.493   1.767   2.821
  396SOL    HW1  102   1.526   1.831   2.752
  396SOL    HW2  103   1.559   1.761   2.896
  409SOL     OW  104   1.861   1.569   2.713
  409SOL    HW1  105   1.790   1.557   2.643
  409SOL    HW2  106   1.862   1.490   2.773
  415SOL     OW  107   1.705   1.487   2.966
  415SOL    HW1  108   1.612   1.462   2.939
  415SOL    HW2  109   1.731   1.437   3.048
  614SOL     OW  110   1.594   1.976   1.480
  614SOL    HW1  111   1.576   2.043   1.408
  614SOL    HW2  112   1.591   2.022   1.569
  634SOL     OW  113   1.394   2.331   1.674
  634SOL    HW1  114   1.374   2.374   1.762
  634SOL    HW2  115   1.472   2.269   1.683
  641SOL     OW  116   1.719   2.447   1.831
  641SOL    HW1  117   1.693   2.536   1.795
  641SOL    HW2  118   1.717   2.379   1.758
  659SOL     OW  119   1.547   2.084   1.729
  659SOL    HW1  120   1.542   2.121   1.821
  659SOL    HW2  121   1.475   2.015   1.717
  662SOL     OW  122   1.351   2.452   1.433
  662SOL    HW1  123   1.379   2.409   1.518
  662SOL    HW2  124   1.376   2.548   1.434
  684SOL     OW  125   1.754   3.085   1.588
  684SOL    HW1  126   1.845   3.046   1.575
  684SOL    HW2  127   1.762   3.181   1.612
  686SOL     OW  128   1.592   3.491   1.625
  686SOL    HW1  129   1.619   3.525   1.535
  686SOL    HW2  130   1.671   3.453   1.671
  702SOL     OW  131   1.587   2.641   1.670
  702SOL    HW1  132   1.495   2.679   1.665
  702SOL    HW2  133   1.647   2.688   1.605
  711SOL     OW  134   1.728   2.797   1.854
  711SOL    HW1  135   1.682   2.790   1.765
  711SOL    HW2  136   1.666   2.841   1.920
  716SOL     OW  137   1.859   3.380   1.605
  716SOL    HW1  138   1.873   3.407   1.510
  716SOL    HW2  139   1.942   3.402   1.658
  723SOL     OW  140   1.138   2.242   1.678
  723SOL    HW1  141   1.093   2.305   1.742
  723SOL    HW2  142   1.231   2.273   1.661
  731SOL     OW  143   1.369   2.812   1.660
  731SOL    HW1  144   1.408   2.901   1.680
  731SOL    HW2  145   1.379   2.792   1.563
  733SOL     OW  146   1.657   2.466   1.206
  733SOL    HW1  147   1.619   2.397   1.268
  733SOL    HW2  148   1.739   2.430   1.162
  760SOL     OW  149   1.614   3.154   1.289
  760SOL    HW1  150   1.674   3.157   1.369
  760SOL    HW2  151   1.539   3.218   1.302
  764SOL     OW  152   1.709   2.247   1.381
  764SOL    HW1  153   1.782   2.316   1.385
  764SOL    HW2  154   1.737   2.172   1.322
  769SOL     OW  155   1.440   2.718   1.398
  769SOL    HW1  156   1.383   2.770   1.335
  769SOL    HW2  157   1.536   2.730   1.374
  775SOL     OW  158   1.450   3.082   1.633
  775SOL    HW1  159   1.441   3.072   1.732
  775SOL    HW2  160   1.546   3.075   1.607
  777SOL     OW  161   1.674   2.745   1.254
  777SOL    HW1  162   1.647   2.656   1.217
  777SOL    HW2  163   1.675   2.813   1.181
  780SOL     OW  164   1.777   2.204   1.642
  780SOL    HW1  165   1.760   2.235   1.548
  780SOL    HW2  166   1.693   2.167   1.680
  781SOL     OW  167   1.730   2.796   1.517
  781SOL    HW1  168   1.768   2.887   1.532
  781SOL    HW2  169   1.722   2.779   1.418
  790SOL     OW  170   1.824   2.054   1.227
  790SOL    HW1  171   1.820   1.964   1.271
  790SOL    HW2  172   1.827   2.043   1.128
  808SOL     OW  173   1.555   3.373   2.565
  808SOL    HW1  174   1.498   3.357   2.646
  808SOL    HW2  175   1.496   3.383   2.485
  809SOL     OW  176   1.135   2.565   2.579
  809SOL    HW1  177   1.192   2.643   2.554
  809SOL    HW2  178   1.075   2.591   2.655
  810SOL     OW  179   1.755   2.469   2.093
  810SOL    HW1  180   1.743   2.456   1.994
  810SOL    HW2  181   1.725   2.388   2.142
  816SOL     OW  182   1.460   3.367   3.201
  816SOL    HW1  183   1.484   3.461   3.227
  816SOL    HW2  184   1.444   3.313   3.283
  818SOL     OW  185   1.603   2.309   2.599
  818SOL    HW1  186   1.529   2.355   2.549
  818SOL    HW2  187   1.654   2.377   2.652
  825SOL     OW  188   1.594   1.976   3.342
  825SOL    HW1  189   1.576   2.043   3.270
  825SOL    HW2  190   1.591   2.022   3.431
  827SOL     OW  191   1.842   3.629   2.221
  827SOL    HW1  192   1.896   3.600   2.301
  827SOL    HW2  193   1.872   3.719   2.192
  829SOL     OW  194   1.689   2.784   2.474
  829SOL    HW1  195   1.784   2.755   2.482
  829SOL    HW2  196   1.681   2.849   2.399
  830SOL     OW  197   1.641   2.970   2.294
  830SOL    HW1  198   1.727   2.972   2.242
  830SOL    HW2  199   1.655   3.017   2.382
  833SOL     OW  200   1.293   3.090   3.285
  833SOL    HW1  201   1.330   3.017   3.227
  833SOL    HW2  202   1.345   3.095   3.370
  836SOL     OW  203   1.525   2.861   2.052
  836SOL    HW1  204   1.462   2.785   2.065
  836SOL    HW2  205   1.573   2.879   2.138
  839SOL     OW  206   1.466   3.279   2.815
  839SOL    HW1  207   1.407   3.285   2.895
  839SOL    HW2  208   1.451   3.191   2.769
  840SOL     OW  209   1.667   3.576   2.434
  840SOL    HW1  210   1.626   3.553   2.346
  840SOL    HW2  211   1.649   3.502   2.499
  842SOL     OW  212   1.281   2.207   2.806
  842SOL    HW1  213   1.195   2.157   2.793
  842SOL    HW2  214   1.343   2.153   2.862
  843SOL     OW  215   1.576   3.524   2.169
  843SOL    HW1  216   1.665   3.570   2.172
  843SOL    HW2  217   1.555   3.500   2.074
  845SOL     OW  218   1.394   2.331   3.536
  845SOL    HW1  219   1.374   2.374   3.624
  845SOL    HW2  220   1.472   2.269   3.545
  847SOL     OW  221   0.991   2.272   3.104
  847SOL    HW1  222   0.914   2.306   3.158
  847SOL    HW2  223   0.957   2.221   3.025
  848SOL     OW  224   1.041   2.563   2.291
  848SOL    HW1  225   1.067   2.559   2.387
  848SOL    HW2  226   0.956   2.512   2.277
  852SOL     OW  227   1.719   2.447   3.693
  852SOL    HW1  228   1.693   2.536   3.657
  852SOL    HW2  229   1.717   2.379   3.620
  853SOL     OW  230   1.362   3.006   2.407
  853SOL    HW1  231   1.445   2.977   2.359
  853SOL    HW2  232   1.313   3.073   2.351
  855SOL     OW  233   1.008   3.318   2.339
  855SOL    HW1  234   0.962   3.390   2.287
  855SOL    HW2  235   1.004   3.338   2.437
  857SOL     OW  236   1.795   2.928   2.735
  857SOL    HW1  237   1.733   2.913   2.659
  857SOL    HW2  238   1.743   2.939   2.820
  858SOL     OW  239   1.227   3.412   3.368
  858SOL    HW1  240   1.233   3.335   3.432
  858SOL    HW2  241   1.175   3.386   3.288
  860SOL     OW  242   1.458   2.597   2.590
  860SOL    HW1  243   1.453   2.532   2.665
  860SOL    HW2  244   1.538   2.656   2.603
  864SOL     OW  245   1.632   3.239   1.943
  864SOL    HW1  246   1.600   3.333   1.933
  864SOL    HW2  247   1.556   3.176   1.931
  866SOL     OW  248   1.400   1.969   2.288
  866SOL    HW1  249   1.376   1.932   2.198
  866SOL    HW2  250   1.499   1.985   2.292
  870SOL     OW  251   1.547   2.084   3.591
  870SOL    HW1  252   1.542   2.121   3.683
  870SOL    HW2  253   1.475   2.015   3.579
  874SOL     OW  254   1.351   2.452   3.295
  874SOL    HW1  255   1.379   2.409   3.380
  874SOL    HW2  256   1.376   2.548   3.296
  876SOL     OW  257   0.922   2.365   2.761
  876SOL    HW1  258   0.897   2.356   2.665
  876SOL    HW2  259   0.970   2.283   2.792
  878SOL     OW  260   1.434   3.050   1.903
  878SOL    HW1  261   1.466   2.974   1.960
  878SOL    HW2  262   1.342   3.077   1.933
  880SOL     OW  263   0.935   2.098   2.342
  880SOL    HW1  264   0.887   2.139   2.264
  880SOL    HW2  265   1.034   2.096   2.323
  881SOL     OW  266   1.076   2.545   3.326
  881SOL    HW1  267   0.996   2.484   3.329
  881SOL    HW2  268   1.157   2.492   3.302
  882SOL     OW  269   1.227   3.432   2.655
  882SOL    HW1  270   1.248   3.506   2.590
  882SOL    HW2  271   1.295   3.432   2.728
  884SOL     OW  272   1.271   3.659   2.453
  884SOL    HW1  273   1.315   3.723   2.389
  884SOL    HW2  274   1.221   3.711   2.523
  885SOL     OW  275   1.032   2.411   1.878
  885SOL    HW1  276   0.991   2.493   1.839
  885SOL    HW2  277   1.096   2.437   1.951
  888SOL     OW  278   0.866   2.316   2.504
  888SOL    HW1  279   0.834   2.388   2.442
  888SOL    HW2  280   0.890   2.235   2.451
  889SOL     OW  281   1.017   1.901   2.615
  889SOL    HW1  282   0.945   1.906   2.546
  889SOL    HW2  283   0.993   1.832   2.684
  890SOL     OW  284   1.429   3.035   2.729
  890SOL    HW1  285   1.374   2.951   2.722
  890SOL    HW2  286   1.455   3.064   2.637
  891SOL     OW  287   1.466   2.452   2.854
  891SOL    HW1  288   1.436   2.357   2.861
  891SOL    HW2  289   1.539   2.468   2.920
  892SOL     OW  290   1.857   2.695   2.239
  892SOL    HW1  291   1.899   2.631   2.303
  892SOL    HW2  292   1.819   2.644   2.161
  894SOL     OW  293   1.664   3.142   2.519
  894SOL    HW1  294   1.763   3.150   2.533
  894SOL    HW2  295   1.619   3.226   2.550
  895SOL     OW  296   1.390   2.437   1.940
  895SOL    HW1  297   1.336   2.416   2.021
  895SOL    HW2  298   1.481   2.396   1.949
  897SOL     OW  299   1.754   3.085   3.450
  897SOL    HW1  300   1.845   3.046   3.437
  897SOL    HW2  301   1.762   3.181   3.474
  898SOL     OW  302   1.064   3.209   3.202
  898SOL    HW1  303   0.984   3.186   3.257
  898SOL    HW2  304   1.147   3.183   3.251
  899SOL     OW  305   1.592   3.491   3.487
  899SOL    HW1  306   1.619   3.525   3.397
  899SOL    HW2  307   1.671   3.453   3.533
  900SOL     OW  308   1.111   3.057   2.962
  900SOL    HW1  309   1.071   3.101   3.043
  900SOL    HW2  310   1.070   3.094   2.879
  901SOL     OW  311   1.638   2.961   2.941
  901SOL    HW1  312   1.643   3.042   3.000
  901SOL    HW2  313   1.552   2.963   2.890
  906SOL     OW  314   1.274   2.248   3.124
  906SOL    HW1  315   1.295   2.322   3.188
  906SOL    HW2  316   1.185   2.265   3.081
  910SOL     OW  317   1.252   3.210   2.250
  910SOL    HW1  318   1.302   3.287   2.290
  910SOL    HW2  319   1.157   3.212   2.282
  911SOL     OW  320   1.272   3.307   3.004
  911SOL    HW1  321   1.319   3.320   3.091
  911SOL    HW2  322   1.206   3.233   3.013
  912SOL     OW  323   1.582   2.501   2.334
  912SOL    HW1  324   1.551   2.562   2.407
  912SOL    HW2  325   1.632   2.553   2.265
  915SOL     OW  326   1.587   2.641   3.532
  915SOL    HW1  327   1.495   2.679   3.527
  915SOL    HW2  328   1.647   2.688   3.467
  919SOL     OW  329   1.360   2.724   2.907
  919SOL    HW1  330   1.285   2.724   2.841
  919SOL    HW2  331   1.397   2.632   2.916
  920SOL     OW  332   1.209   2.387   2.137
  920SOL    HW1  333   1.222   2.303   2.191
  920SOL    HW2  334   1.180   2.461   2.197
  924SOL     OW  335   1.728   2.797   3.716
  924SOL    HW1  336   1.682   2.790   3.627
  924SOL    HW2  337   1.666   2.841   3.782
  926SOL     OW  338   1.622   2.229   2.236
  926SOL    HW1  339   1.624   2.153   2.300
  926SOL    HW2  340   1.574   2.306   2.276
  927SOL     OW  341   1.023   2.628   2.828
  927SOL    HW1  342   1.038   2.649   2.924
  927SOL    HW2  343   0.993   2.533   2.819
  929SOL     OW  344   1.859   3.380   3.467
  929SOL    HW1  345   1.873   3.407   3.372
  929SOL    HW2  346   1.942   3.402   3.520
  931SOL     OW  347   1.540   2.136   1.987
  931SOL    HW1  348   1.479   2.061   2.010
  931SOL    HW2  349   1.562   2.188   2.070
  932SOL     OW  350   1.303   2.700   1.904
  932SOL    HW1  351   1.337   2.607   1.919
  932SOL    HW2  352   1.321   2.727   1.809
  933SOL     OW  353   1.068   3.195   2.711
  933SOL    HW1  354   1.075   3.111   2.656
  933SOL    HW2  355   1.130   3.264   2.675
  936SOL     OW  356   1.138   2.242   3.540
  936SOL    HW1  357   1.093   2.305   3.604
  936SOL    HW2  358   1.231   2.273   3.523
  937SOL     OW  359   1.160   2.069   3.339
  937SOL    HW1  360   1.160   2.133   3.416
  937SOL    HW2  361   1.188   2.117   3.256
  941SOL     OW  362   1.002   2.658   3.100
  941SOL    HW1  363   1.043   2.626   3.186
  941SOL    HW2  364   0.906   2.631   3.097
  944SOL     OW  365   1.369   2.812   3.522
  944SOL    HW1  366   1.408   2.901   3.542
  944SOL    HW2  367   1.379   2.792   3.425
  946SOL     OW  368   1.657   2.466   3.068
  946SOL    HW1  369   1.619   2.397   3.130
  946SOL    HW2  370   1.739   2.430   3.024
  952SOL     OW  371   1.347   2.921   3.096
  952SOL    HW1  372   1.371   2.858   3.022
  952SOL    HW2  373   1.257   2.961   3.078
  953SOL     OW  374   1.302   2.717   2.171
  953SOL    HW1  375   1.216   2.686   2.213
  953SOL    HW2  376   1.298   2.703   2.072
  954SOL     OW  377   1.759   3.609   3.016
  954SOL    HW1  378   1.820   3.639   2.943
  954SOL    HW2  379   1.721   3.520   2.994
  955SOL     OW  380   1.252   3.593   2.990
  955SOL    HW1  381   1.336   3.598   2.936
  955SOL    HW2  382   1.229   3.497   3.008
  958SOL     OW  383   1.726   1.997   2.385
  958SOL    HW1  384   1.799   1.980   2.318
  958SOL    HW2  385   1.695   1.910   2.423
  959SOL     OW  386   1.388   3.435   2.339
  959SOL    HW1  387   1.455   3.447   2.265
  959SOL    HW2  388   1.348   3.524   2.362
  961SOL     OW  389   1.280   2.789   2.534
  961SOL    HW1  390   1.340   2.708   2.536
  961SOL    HW2  391   1.320   2.858   2.474
  964SOL     OW  392   1.650   3.582   3.256
  964SOL    HW1  393   1.703   3.592   3.172
  964SOL    HW2  394   1.623   3.672   3.290
  965SOL     OW  395   1.841   2.037   2.825
  965SOL    HW1  396   1.880   1.952   2.789
  965SOL    HW2  397   1.743   2.039   2.806
  969SOL     OW  398   0.916   2.772   2.153
  969SOL    HW1  399   0.979   2.810   2.085
  969SOL    HW2  400   0.956   2.689   2.192
  970SOL     OW  401   1.504   3.469   1.906
  970SOL    HW1  402   1.412   3.506   1.913
  970SOL    HW2  403   1.542   3.489   1.816
  972SOL     OW  404   1.614   3.154   3.151
  972SOL    HW1  405   1.674   3.157   3.231
  972SOL    HW2  406   1.539   3.218   3.164
  973SOL     OW  407   1.039   2.960   2.558
  973SOL    HW1  408   0.969   2.913   2.612
  973SOL    HW2  409   1.098   2.892   2.515
  974SOL     OW  410   1.014   2.098   2.833
  974SOL    HW1  411   1.006   2.062   2.740
  974SOL    HW2  412   1.012   2.022   2.898
  976SOL     OW  413   1.709   2.247   3.243
  976SOL    HW1  414   1.782   2.316   3.247
  976SOL    HW2  415   1.737   2.172   3.184
  981SOL     OW  416   1.440   2.718   3.260
  981SOL    HW1  417   1.383   2.770   3.197
  981SOL    HW2  418   1.536   2.730   3.236
  983SOL     OW  419   1.183   3.197   1.981
  983SOL    HW1  420   1.084   3.186   1.983
  983SOL    HW2  421   1.217   3.212   2.074
  985SOL     OW  422   1.493   3.629   2.821
  985SOL    HW1  423   1.526   3.693   2.752
  985SOL    HW2  424   1.559   3.623   2.896
  987SOL     OW  425   1.450   3.082   3.495
  987SOL    HW1  426   1.441   3.072   3.594
  987SOL    HW2  427   1.546   3.075   3.469
  989SOL     OW  428   1.674   2.745   3.116
  989SOL    HW1  429   1.647   2.656   3.079
  989SOL    HW2  430   1.675   2.813   3.043
  990SOL     OW  431   1.225   2.187   2.311
  990SOL    HW1  432   1.290   2.113   2.300
  990SOL    HW2  433   1.245   2.237   2.395
  992SOL     OW  434   1.777   2.204   3.504
  992SOL    HW1  435   1.760   2.235   3.410
  992SOL    HW2  436   1.693   2.167   3.542
  993SOL     OW  437   1.730   2.796   3.379
  993SOL    HW1  438   1.768   2.887   3.394
  993SOL    HW2  439   1.722   2.779   3.280
  996SOL     OW  440   0.859   2.818   2.723
  996SOL    HW1  441   0.913   2.749   2.771
  996SOL    HW2  442   0.827   2.887   2.789
  997SOL     OW  443   1.083   2.846   1.949
  997SOL    HW1  444   1.060   2.899   1.867
  997SOL    HW2  445   1.164   2.790   1.930
  998SOL     OW  446   1.861   3.431   2.713
  998SOL    HW1  447   1.790   3.419   2.643
  998SOL    HW2  448   1.862   3.352   2.773
 1002SOL     OW  449   1.824   2.054   3.089
 1002SOL    HW1  450   1.820   1.964   3.133
 1002SOL    HW2  451   1.827   2.043   2.990
 1004SOL     OW  452   1.705   3.349   2.966
 1004SOL    HW1  453   1.612   3.324   2.939
 1004SOL    HW2  454   1.731   3.299   3.048
 1007SOL     OW  455   1.424   2.076   2.974
 1007SOL    HW1  456   1.476   2.011   3.029
 1007SOL    HW2  457   1.375   2.139   3.035
 1011SOL     OW  458   1.352   1.914   2.030
 1011SOL    HW1  459   1.387   1.873   1.946
 1011SOL    HW2  460   1.262   1.876   2.050
 1012SOL     OW  461   1.300   2.315   2.553
 1012SOL    HW1  462   1.241   2.395   2.557
 1012SOL    HW2  463   1.315   2.280   2.646
 1013SOL     OW  464   1.593   2.083   2.744
 1013SOL    HW1  465   1.509   2.082   2.798
 1013SOL    HW2  466   1.595   2.166   2.688
 1022SOL     OW  467   1.755   2.469   3.955
 1022SOL    HW1  468   1.743   2.456   3.856
 1022SOL    HW2  469   1.725   2.388   4.004
 1041SOL     OW  470   1.525   2.861   3.914
 1041SOL    HW1  471   1.462   2.785   3.927
 1041SOL    HW2  472   1.573   2.879   4.000
 1061SOL     OW  473   1.632   3.239   3.805
 1061SOL    HW1  474   1.600   3.333   3.795
 1061SOL    HW2  475   1.556   3.176   3.793
 1072SOL     OW  476   1.434   3.050   3.765
 1072SOL    HW1  477   1.466   2.974   3.822
 1072SOL    HW2  478   1.342   3.077   3.795
 1085SOL     OW  479   1.857   2.695   4.101
 1085SOL    HW1  480   1.899   2.631   4.165
 1085SOL    HW2  481   1.819   2.644   4.023
 1088SOL     OW  482   1.390   2.437   3.802
 1088SOL    HW1  483   1.336   2.416   3.883
 1088SOL    HW2  484   1.481   2.396   3.811
 1114SOL     OW  485   1.540   2.136   3.849
 1114SOL    HW1  486   1.479   2.061   3.872
 1114SOL    HW2  487   1.562   2.188   3.932
 1115SOL     OW  488   1.303   2.700   3.766
 1115SOL    HW1  489   1.337   2.607   3.781
 1115SOL    HW2  490   1.321   2.727   3.671
 1370SOL     OW  491   1.594   3.838   3.342
 1370SOL    HW1  492   1.576   3.905   3.270
 1370SOL    HW2  493   1.591   3.884   3.431
 1402SOL     OW  494   1.400   3.831   2.288
 1402SOL    HW1  495   1.376   3.794   2.198
 1402SOL    HW2  496   1.499   3.847   2.292
 1478SOL     OW  497   1.726   3.859   2.385
 1478SOL    HW1  498   1.799   3.842   2.318
 1478SOL    HW2  499   1.695   3.772   2.423
 1481SOL     OW  500   1.841   3.899   2.825
 1481SOL    HW1  501   1.880   3.814   2.789
 1481SOL    HW2  502   1.743   3.901   2.806
 1511SOL     OW  503   1.824   3.916   3.089
 1511SOL    HW1  504   1.820   3.826   3.133
 1511SOL    HW2  505   1.827   3.905   2.990
 1520SOL     OW  506   1.593   3.945   2.744
 1520SOL    HW1  507   1.509   3.944   2.798
 1520SOL    HW2  508   1.595   4.028   2.688
 1668SOL     OW  509   2.548   1.161   1.803
 1668SOL    HW1  510   2.608   1.240   1.817
 1668SOL    HW2  511   2.462   1.192   1.762
 1674SOL     OW  512   2.989   1.341   1.690
 1674SOL    HW1  513   3.036   1.341   1.778
 1674SOL    HW2  514   2.941   1.254   1.679
 1677SOL     OW  515   2.482   1.786   1.439
 1677SOL    HW1  516   2.390   1.769   1.474
 1677SOL    HW2  517   2.510   1.878   1.465
 1691SOL     OW  518   3.049   1.792   1.616
 1691SOL    HW1  519   3.073   1.852   1.540
 1691SOL    HW2  520   3.056   1.697   1.586
 1704SOL     OW  521   1.992   1.821   1.571
 1704SOL    HW1  522   1.982   1.806   1.670
 1704SOL    HW2  523   1.906   1.857   1.535
 1712SOL     OW  524   3.089   1.550   1.506
 1712SOL    HW1  525   3.095   1.473   1.570
 1712SOL    HW2  526   3.037   1.524   1.426
 1715SOL     OW  527   2.323   1.266   1.727
 1715SOL    HW1  528   2.273   1.267   1.641
 1715SOL    HW2  529   2.260   1.248   1.803
 1721SOL     OW  530   2.111   1.785   1.241
 1721SOL    HW1  531   2.168   1.720   1.291
 1721SOL    HW2  532   2.095   1.752   1.148
 1727SOL     OW  533   2.750   1.514   1.195
 1727SOL    HW1  534   2.727   1.489   1.101
 1727SOL    HW2  535   2.811   1.445   1.234
 1753SOL     OW  536   3.454   1.629   1.625
 1753SOL    HW1  537   3.481   1.663   1.535
 1753SOL    HW2  538   3.533   1.591   1.671
 1757SOL     OW  539   2.842   1.116   1.719
 1757SOL    HW1  540   2.743   1.122   1.729
 1757SOL    HW2  541   2.865   1.036   1.663
 1761SOL     OW  542   1.926   1.564   1.331
 1761SOL    HW1  543   1.880   1.646   1.297
 1761SOL    HW2  544   2.024   1.583   1.340
 1767SOL     OW  545   2.216   1.510   1.329
 1767SOL    HW1  546   2.195   1.466   1.242
 1767SOL    HW2  547   2.313   1.536   1.332
 1782SOL     OW  548   2.842   1.573   1.700
 1782SOL    HW1  549   2.822   1.617   1.612
 1782SOL    HW2  550   2.881   1.482   1.684
 1801SOL     OW  551   2.114   1.564   1.744
 1801SOL    HW1  552   2.084   1.621   1.820
 1801SOL    HW2  553   2.107   1.467   1.770
 1803SOL     OW  554   2.792   1.678   1.465
 1803SOL    HW1  555   2.768   1.660   1.370
 1803SOL    HW2  556   2.822   1.772   1.475
 1809SOL     OW  557   3.114   1.731   1.128
 1809SOL    HW1  558   3.198   1.736   1.074
 1809SOL    HW2  559   3.091   1.635   1.146
 1811SOL     OW  560   2.550   1.662   1.716
 1811SOL    HW1  561   2.494   1.743   1.725
 1811SOL    HW2  562   2.602   1.666   1.630
 1815SOL     OW  563   1.992   1.794   1.851
 1815SOL    HW1  564   1.951   1.720   1.904
 1815SOL    HW2  565   2.056   1.845   1.909
 1817SOL     OW  566   2.692   1.273   1.422
 1817SOL    HW1  567   2.687   1.306   1.517
 1817SOL    HW2  568   2.606   1.292   1.376
 1819SOL     OW  569   3.512   1.720   1.394
 1819SOL    HW1  570   3.565   1.730   1.310
 1819SOL    HW2  571   3.485   1.810   1.428
 1826SOL     OW  572   2.234   1.288   1.490
 1826SOL    HW1  573   2.221   1.381   1.456
 1826SOL    HW2  574   2.150   1.236   1.477
 1842SOL     OW  575   2.252   1.741   1.560
 1842SOL    HW1  576   2.161   1.782   1.558
 1842SOL    HW2  577   2.245   1.647   1.592
 1853SOL     OW  578   2.083   1.314   1.844
 1853SOL    HW1  579   2.018   1.241   1.823
 1853SOL    HW2  580   2.087   1.328   1.942
 1855SOL     OW  581   2.534   1.391   1.624
 1855SOL    HW1  582   2.456   1.341   1.662
 1855SOL    HW2  583   2.531   1.486   1.655
 1864SOL     OW  584   2.480   1.567   1.284
 1864SOL    HW1  585   2.475   1.649   1.341
 1864SOL    HW2  586   2.569   1.564   1.239
 1873SOL     OW  587   2.431   1.275   3.027
 1873SOL    HW1  588   2.338   1.268   2.990
 1873SOL    HW2  589   2.442   1.364   3.071
 1874SOL     OW  590   3.417   1.511   2.565
 1874SOL    HW1  591   3.360   1.495   2.646
 1874SOL    HW2  592   3.358   1.521   2.485
 1877SOL     OW  593   2.630   1.144   2.885
 1877SOL    HW1  594   2.552   1.161   2.945
 1877SOL    HW2  595   2.664   1.231   2.849
 1879SOL     OW  596   2.547   1.012   2.527
 1879SOL    HW1  597   2.616   0.996   2.597
 1879SOL    HW2  598   2.474   1.069   2.565
 1880SOL     OW  599   2.548   1.161   3.665
 1880SOL    HW1  600   2.608   1.240   3.679
 1880SOL    HW2  601   2.462   1.192   3.624
 1881SOL     OW  602   2.197   1.435   2.923
 1881SOL    HW1  603   2.119   1.404   2.870
 1881SOL    HW2  604   2.255   1.493   2.866
 1882SOL     OW  605   3.322   1.505   3.201
 1882SOL    HW1  606   3.346   1.599   3.227
 1882SOL    HW2  607   3.306   1.451   3.283
 1885SOL     OW  608   2.093   1.713   2.345
 1885SOL    HW1  609   2.127   1.790   2.399
 1885SOL    HW2  610   2.137   1.713   2.255
 1886SOL     OW  611   2.989   1.341   3.552
 1886SOL    HW1  612   3.036   1.341   3.640
 1886SOL    HW2  613   2.941   1.254   3.541
 1887SOL     OW  614   2.092   1.434   2.400
 1887SOL    HW1  615   2.066   1.530   2.400
 1887SOL    HW2  616   2.021   1.380   2.445
 1888SOL     OW  617   2.102   1.091   2.748
 1888SOL    HW1  618   2.116   1.007   2.800
 1888SOL    HW2  619   2.047   1.155   2.803
 1889SOL     OW  620   2.482   1.786   3.301
 1889SOL    HW1  621   2.390   1.769   3.336
 1889SOL    HW2  622   2.510   1.878   3.327
 1890SOL     OW  623   2.468   0.964   1.985
 1890SOL    HW1  624   2.475   1.048   1.931
 1890SOL    HW2  625   2.514   0.977   2.073
 1893SOL     OW  626   3.704   1.767   2.221
 1893SOL    HW1  627   3.758   1.738   2.301
 1893SOL    HW2  628   3.734   1.857   2.192
 1894SOL     OW  629   1.889   1.596   1.979
 1894SOL    HW1  630   1.870   1.500   2.000
 1894SOL    HW2  631   1.856   1.654   2.054
 1896SOL     OW  632   3.503   1.108   2.294
 1896SOL    HW1  633   3.589   1.110   2.242
 1896SOL    HW2  634   3.517   1.155   2.382
 1898SOL     OW  635   2.475   1.365   2.588
 1898SOL    HW1  636   2.426   1.278   2.597
 1898SOL    HW2  637   2.452   1.408   2.501
 1899SOL     OW  638   3.155   1.228   3.285
 1899SOL    HW1  639   3.192   1.155   3.227
 1899SOL    HW2  640   3.207   1.233   3.370
 1901SOL     OW  641   2.059   0.976   3.126
 1901SOL    HW1  642   2.148   0.931   3.112
 1901SOL    HW2  643   1.986   0.911   3.107
 1903SOL     OW  644   3.049   1.792   3.478
 1903SOL    HW1  645   3.073   1.852   3.402
 1903SOL    HW2  646   3.056   1.697   3.448
 1905SOL     OW  647   3.328   1.417   2.815
 1905SOL    HW1  648   3.269   1.423   2.895
 1905SOL    HW2  649   3.313   1.329   2.769
 1906SOL     OW  650   3.529   1.714   2.434
 1906SOL    HW1  651   3.488   1.691   2.346
 1906SOL    HW2  652   3.511   1.640   2.499
 1909SOL     OW  653   3.438   1.662   2.169
 1909SOL    HW1  654   3.527   1.708   2.172
 1909SOL    HW2  655   3.417   1.638   2.074
 1916SOL     OW  656   1.992   1.821   3.433
 1916SOL    HW1  657   1.982   1.806   3.532
 1916SOL    HW2  658   1.906   1.857   3.397
 1919SOL     OW  659   3.224   1.144   2.407
 1919SOL    HW1  660   3.307   1.115   2.359
 1919SOL    HW2  661   3.175   1.211   2.351
 1921SOL     OW  662   2.870   1.456   2.339
 1921SOL    HW1  663   2.824   1.528   2.287
 1921SOL    HW2  664   2.866   1.476   2.437
 1922SOL     OW  665   2.213   1.801   2.715
 1922SOL    HW1  666   2.263   1.715   2.721
 1922SOL    HW2  667   2.278   1.878   2.712
 1924SOL     OW  668   3.089   1.550   3.368
 1924SOL    HW1  669   3.095   1.473   3.432
 1924SOL    HW2  670   3.037   1.524   3.288
 1925SOL     OW  671   2.183   0.943   2.104
 1925SOL    HW1  672   2.265   0.982   2.062
 1925SOL    HW2  673   2.156   0.861   2.055
 1927SOL     OW  674   2.323   1.266   3.589
 1927SOL    HW1  675   2.273   1.267   3.503
 1927SOL    HW2  676   2.260   1.248   3.665
 1928SOL     OW  677   2.973   1.776   2.099
 1928SOL    HW1  678   2.913   1.714   2.149
 1928SOL    HW2  679   3.004   1.732   2.014
 1930SOL     OW  680   3.494   1.377   1.943
 1930SOL    HW1  681   3.462   1.471   1.933
 1930SOL    HW2  682   3.418   1.314   1.931
 1931SOL     OW  683   2.326   1.743   2.185
 1931SOL    HW1  684   2.359   1.782   2.271
 1931SOL    HW2  685   2.402   1.736   2.120
 1933SOL     OW  686   2.111   1.785   3.103
 1933SOL    HW1  687   2.168   1.720   3.153
 1933SOL    HW2  688   2.095   1.752   3.010
 1934SOL     OW  689   2.802   1.698   2.766
 1934SOL    HW1  690   2.882   1.641   2.787
 1934SOL    HW2  691   2.753   1.658   2.689
 1939SOL     OW  692   2.750   1.514   3.057
 1939SOL    HW1  693   2.727   1.489   2.963
 1939SOL    HW2  694   2.811   1.445   3.096
 1941SOL     OW  695   2.665   1.402   2.786
 1941SOL    HW1  696   2.755   1.416   2.744
 1941SOL    HW2  697   2.594   1.404   2.715
 1944SOL     OW  698   3.296   1.188   1.903
 1944SOL    HW1  699   3.328   1.112   1.960
 1944SOL    HW2  700   3.204   1.215   1.933
 1948SOL     OW  701   3.089   1.570   2.655
 1948SOL    HW1  702   3.110   1.644   2.590
 1948SOL    HW2  703   3.157   1.570   2.728
 1949SOL     OW  704   2.321   1.152   2.603
 1949SOL    HW1  705   2.250   1.125   2.668
 1949SOL    HW2  706   2.295   1.124   2.510
 1950SOL     OW  707   3.133   1.797   2.453
 1950SOL    HW1  708   3.177   1.861   2.389
 1950SOL    HW2  709   3.083   1.849   2.523
 1956SOL     OW  710   3.291   1.173   2.729
 1956SOL    HW1  711   3.236   1.089   2.722
 1956SOL    HW2  712   3.317   1.202   2.637
 1959SOL     OW  713   2.350   1.385   2.036
 1959SOL    HW1  714   2.263   1.370   2.083
 1959SOL    HW2  715   2.333   1.411   1.941
 1960SOL     OW  716   3.526   1.280   2.519
 1960SOL    HW1  717   3.625   1.288   2.533
 1960SOL    HW2  718   3.481   1.364   2.550
 1964SOL     OW  719   2.926   1.347   3.202
 1964SOL    HW1  720   2.846   1.324   3.257
 1964SOL    HW2  721   3.009   1.321   3.251
 1965SOL     OW  722   3.454   1.629   3.487
 1965SOL    HW1  723   3.481   1.663   3.397
 1965SOL    HW2  724   3.533   1.591   3.533
 1966SOL     OW  725   2.973   1.195   2.962
 1966SOL    HW1  726   2.933   1.239   3.043
 1966SOL    HW2  727   2.932   1.232   2.879
 1967SOL     OW  728   3.500   1.099   2.941
 1967SOL    HW1  729   3.505   1.180   3.000
 1967SOL    HW2  730   3.414   1.101   2.890
 1969SOL     OW  731   2.842   1.116   3.581
 1969SOL    HW1  732   2.743   1.122   3.591
 1969SOL    HW2  733   2.865   1.036   3.525
 1970SOL     OW  734   2.567   1.050   2.230
 1970SOL    HW1  735   2.553   1.057   2.329
 1970SOL    HW2  736   2.651   0.999   2.212
 1973SOL     OW  737   1.926   1.564   3.193
 1973SOL    HW1  738   1.880   1.646   3.159
 1973SOL    HW2  739   2.024   1.583   3.202
 1974SOL     OW  740   2.229   1.100   2.363
 1974SOL    HW1  741   2.222   1.183   2.307
 1974SOL    HW2  742   2.233   1.020   2.303
 1976SOL     OW  743   3.114   1.348   2.250
 1976SOL    HW1  744   3.164   1.425   2.290
 1976SOL    HW2  745   3.019   1.350   2.282
 1977SOL     OW  746   3.134   1.445   3.004
 1977SOL    HW1  747   3.181   1.458   3.091
 1977SOL    HW2  748   3.068   1.371   3.013
 1979SOL     OW  749   2.216   1.510   3.191
 1979SOL    HW1  750   2.195   1.466   3.104
 1979SOL    HW2  751   2.313   1.536   3.194
 1984SOL     OW  752   2.435   0.870   2.891
 1984SOL    HW1  753   2.479   0.959   2.882
 1984SOL    HW2  754   2.372   0.870   2.968
 1988SOL     OW  755   1.899   1.310   3.144
 1988SOL    HW1  756   1.952   1.261   3.212
 1988SOL    HW2  757   1.921   1.408   3.149
 1994SOL     OW  758   2.842   1.573   3.562
 1994SOL    HW1  759   2.822   1.617   3.474
 1994SOL    HW2  760   2.881   1.482   3.546
 1995SOL     OW  761   3.721   1.518   3.467
 1995SOL    HW1  762   3.735   1.545   3.372
 1995SOL    HW2  763   3.804   1.540   3.520
 1999SOL     OW  764   2.930   1.333   2.711
 1999SOL    HW1  765   2.937   1.249   2.656
 1999SOL    HW2  766   2.992   1.402   2.675
 2004SOL     OW  767   1.870   1.326   2.062
 2004SOL    HW1  768   1.777   1.347   2.031
 2004SOL    HW2  769   1.880   1.227   2.075
 2005SOL     OW  770   1.950   1.801   2.789
 2005SOL    HW1  771   1.908   1.715   2.762
 2005SOL    HW2  772   2.044   1.804   2.755
 2006SOL     OW  773   2.366   1.568   2.772
 2006SOL    HW1  774   2.432   1.642   2.781
 2006SOL    HW2  775   2.410   1.489   2.730
 2013SOL     OW  776   2.114   1.564   3.606
 2013SOL    HW1  777   2.084   1.621   3.682
 2013SOL    HW2  778   2.107   1.467   3.632
 2015SOL     OW  779   2.792   1.678   3.327
 2015SOL    HW1  780   2.768   1.660   3.232
 2015SOL    HW2  781   2.822   1.772   3.337
 2017SOL     OW  782   2.021   1.137   3.328
 2017SOL    HW1  783   2.043   1.076   3.404
 2017SOL    HW2  784   2.031   1.088   3.242
 2018SOL     OW  785   3.209   1.059   3.096
 2018SOL    HW1  786   3.233   0.996   3.022
 2018SOL    HW2  787   3.119   1.099   3.078
 2020SOL     OW  788   3.621   1.747   3.016
 2020SOL    HW1  789   3.682   1.777   2.943
 2020SOL    HW2  790   3.583   1.658   2.994
 2021SOL     OW  791   3.114   1.731   2.990
 2021SOL    HW1  792   3.198   1.736   2.936
 2021SOL    HW2  793   3.091   1.635   3.008
 2022SOL     OW  794   1.945   1.258   2.884
 2022SOL    HW1  795   1.940   1.257   2.984
 2022SOL    HW2  796   1.862   1.217   2.846
 2023SOL     OW  797   2.550   1.662   3.578
 2023SOL    HW1  798   2.494   1.743   3.587
 2023SOL    HW2  799   2.602   1.666   3.492
 2025SOL     OW  800   3.250   1.573   2.339
 2025SOL    HW1  801   3.317   1.585   2.265
 2025SOL    HW2  802   3.210   1.662   2.362
 2026SOL     OW  803   1.992   1.794   3.713
 2026SOL    HW1  804   1.951   1.720   3.766
 2026SOL    HW2  805   2.056   1.845   3.771
 2027SOL     OW  806   3.142   0.927   2.534
 2027SOL    HW1  807   3.202   0.846   2.536
 2027SOL    HW2  808   3.182   0.996   2.474
 2028SOL     OW  809   2.692   1.273   3.284
 2028SOL    HW1  810   2.687   1.306   3.379
 2028SOL    HW2  811   2.606   1.292   3.238
 2029SOL     OW  812   2.534   1.616   2.016
 2029SOL    HW1  813   2.543   1.626   1.917
 2029SOL    HW2  814   2.494   1.527   2.037
 2030SOL     OW  815   3.512   1.720   3.256
 2030SOL    HW1  816   3.565   1.730   3.172
 2030SOL    HW2  817   3.485   1.810   3.290
 2033SOL     OW  818   3.056   1.612   1.893
 2033SOL    HW1  819   3.062   1.519   1.930
 2033SOL    HW2  820   2.997   1.612   1.813
 2034SOL     OW  821   2.684   1.002   3.234
 2034SOL    HW1  822   2.724   1.001   3.142
 2034SOL    HW2  823   2.694   1.094   3.274
 2035SOL     OW  824   2.778   0.910   2.153
 2035SOL    HW1  825   2.841   0.948   2.085
 2035SOL    HW2  826   2.818   0.827   2.192
 2036SOL     OW  827   3.366   1.607   1.906
 2036SOL    HW1  828   3.274   1.644   1.913
 2036SOL    HW2  829   3.404   1.627   1.816
 2037SOL     OW  830   2.234   1.288   3.352
 2037SOL    HW1  831   2.221   1.381   3.318
 2037SOL    HW2  832   2.150   1.236   3.339
 2038SOL     OW  833   3.476   1.292   3.151
 2038SOL    HW1  834   3.536   1.295   3.231
 2038SOL    HW2  835   3.401   1.356   3.164
 2039SOL     OW  836   2.901   1.098   2.558
 2039SOL    HW1  837   2.831   1.051   2.612
 2039SOL    HW2  838   2.960   1.030   2.515
 2041SOL     OW  839   2.452   1.487   2.353
 2041SOL    HW1  840   2.494   1.429   2.283
 2041SOL    HW2  841   2.408   1.566   2.309
 2043SOL     OW  842   2.117   1.348   2.152
 2043SOL    HW1  843   2.021   1.349   2.125
 2043SOL    HW2  844   2.129   1.401   2.236
 2048SOL     OW  845   3.045   1.335   1.981
 2048SOL    HW1  846   2.946   1.324   1.983
 2048SOL    HW2  847   3.079   1.350   2.074
 2050SOL     OW  848   3.355   1.767   2.821
 2050SOL    HW1  849   3.388   1.831   2.752
 2050SOL    HW2  850   3.421   1.761   2.896
 2052SOL     OW  851   3.312   1.220   3.495
 2052SOL    HW1  852   3.303   1.210   3.594
 2052SOL    HW2  853   3.408   1.213   3.469
 2053SOL     OW  854   2.252   1.741   3.422
 2053SOL    HW1  855   2.161   1.782   3.420
 2053SOL    HW2  856   2.245   1.647   3.454
 2059SOL     OW  857   2.721   1.374   1.878
 2059SOL    HW1  858   2.675   1.389   1.966
 2059SOL    HW2  859   2.765   1.459   1.848
 2060SOL     OW  860   2.523   1.790   2.815
 2060SOL    HW1  861   2.477   1.878   2.802
 2060SOL    HW2  862   2.622   1.802   2.808
 2061SOL     OW  863   2.721   0.956   2.723
 2061SOL    HW1  864   2.775   0.887   2.771
 2061SOL    HW2  865   2.689   1.025   2.789
 2062SOL     OW  866   2.945   0.984   1.949
 2062SOL    HW1  867   2.922   1.037   1.867
 2062SOL    HW2  868   3.026   0.928   1.930
 2063SOL     OW  869   3.723   1.569   2.713
 2063SOL    HW1  870   3.652   1.557   2.643
 2063SOL    HW2  871   3.724   1.490   2.773
 2064SOL     OW  872   2.083   1.314   3.706
 2064SOL    HW1  873   2.018   1.241   3.685
 2064SOL    HW2  874   2.087   1.328   3.804
 2065SOL     OW  875   1.941   1.240   2.515
 2065SOL    HW1  876   1.940   1.193   2.603
 2065SOL    HW2  877   2.023   1.212   2.464
 2066SOL     OW  878   2.534   1.391   3.486
 2066SOL    HW1  879   2.456   1.341   3.524
 2066SOL    HW2  880   2.531   1.486   3.517
 2069SOL     OW  881   3.567   1.487   2.966
 2069SOL    HW1  882   3.474   1.462   2.939
 2069SOL    HW2  883   3.593   1.437   3.048
 2071SOL     OW  884   2.674   1.586   2.549
 2071SOL    HW1  885   2.706   1.596   2.455
 2071SOL    HW2  886   2.595   1.524   2.551
 2074SOL     OW  887   2.632   1.330   2.163
 2074SOL    HW1  888   2.586   1.243   2.180
 2074SOL    HW2  889   2.723   1.327   2.204
 2075SOL     OW  890   2.480   1.567   3.146
 2075SOL    HW1  891   2.475   1.649   3.203
 2075SOL    HW2  892   2.569   1.564   3.101
 2079SOL     OW  893   1.901   1.077   2.162
 2079SOL    HW1  894   2.000   1.066   2.153
 2079SOL    HW2  895   1.861   0.991   2.194
 2080SOL     OW  896   2.737   1.646   2.199
 2080SOL    HW1  897   2.660   1.611   2.145
 2080SOL    HW2  898   2.705   1.717   2.261
 2100SOL     OW  899   1.889   1.596   3.841
 2100SOL    HW1  900   1.870   1.500   3.862
 2100SOL    HW2  901   1.856   1.654   3.916
 2125SOL     OW  902   2.973   1.776   3.961
 2125SOL    HW1  903   2.913   1.714   4.011
 2125SOL    HW2  904   3.004   1.732   3.876
 2127SOL     OW  905   2.326   1.743   4.047
 2127SOL    HW1  906   2.359   1.782   4.133
 2127SOL    HW2  907   2.402   1.736   3.982
 2151SOL     OW  908   2.350   1.385   3.898
 2151SOL    HW1  909   2.263   1.370   3.945
 2151SOL    HW2  910   2.333   1.411   3.803
 2203SOL     OW  911   2.534   1.616   3.878
 2203SOL    HW1  912   2.543   1.626   3.779
 2203SOL    HW2  913   2.494   1.527   3.899
 2206SOL     OW  914   3.056   1.612   3.755
 2206SOL    HW1  915   3.062   1.519   3.792
 2206SOL    HW2  916   2.997   1.612   3.675
 2209SOL     OW  917   3.366   1.607   3.768
 2209SOL    HW1  918   3.274   1.644   3.775
 2209SOL    HW2  919   3.404   1.627   3.678
 2226SOL     OW  920   2.721   1.374   3.740
 2226SOL    HW1  921   2.675   1.389   3.828
 2226SOL    HW2  922   2.765   1.459   3.710
 2245SOL     OW  923   2.737   1.646   4.061
 2245SOL    HW1  924   2.660   1.611   4.007
 2245SOL    HW2  925   2.705   1.717   4.123
 2247SOL     OW  926   2.087   2.137   0.996
 2247SOL    HW1  927   2.122   2.120   1.088
 2247SOL    HW2  928   1.999   2.092   0.984
 2249SOL     OW  929   2.431   3.137   1.165
 2249SOL    HW1  930   2.338   3.130   1.128
 2249SOL    HW2  931   2.442   3.226   1.209
 2253SOL     OW  932   2.630   3.006   1.023
 2253SOL    HW1  933   2.552   3.023   1.083
 2253SOL    HW2  934   2.664   3.093   0.987
 2254SOL     OW  935   2.712   2.660   1.823
 2254SOL    HW1  936   2.708   2.736   1.888
 2254SOL    HW2  937   2.734   2.696   1.732
 2256SOL     OW  938   2.548   3.023   1.803
 2256SOL    HW1  939   2.608   3.102   1.817
 2256SOL    HW2  940   2.462   3.054   1.762
 2257SOL     OW  941   2.197   3.297   1.061
 2257SOL    HW1  942   2.119   3.266   1.008
 2257SOL    HW2  943   2.255   3.355   1.004
 2258SOL     OW  944   3.322   3.367   1.339
 2258SOL    HW1  945   3.346   3.461   1.365
 2258SOL    HW2  946   3.306   3.313   1.421
 2259SOL     OW  947   2.300   2.254   1.499
 2259SOL    HW1  948   2.382   2.198   1.508
 2259SOL    HW2  949   2.219   2.196   1.503
 2262SOL     OW  950   2.989   3.203   1.690
 2262SOL    HW1  951   3.036   3.203   1.778
 2262SOL    HW2  952   2.941   3.116   1.679
 2265SOL     OW  953   2.482   3.648   1.439
 2265SOL    HW1  954   2.390   3.631   1.474
 2265SOL    HW2  955   2.510   3.740   1.465
 2267SOL     OW  956   3.456   1.976   1.480
 2267SOL    HW1  957   3.438   2.043   1.408
 2267SOL    HW2  958   3.453   2.022   1.569
 2273SOL     OW  959   1.975   2.599   1.597
 2273SOL    HW1  960   2.063   2.586   1.642
 2273SOL    HW2  961   1.962   2.696   1.575
 2275SOL     OW  962   3.155   3.090   1.423
 2275SOL    HW1  963   3.192   3.017   1.365
 2275SOL    HW2  964   3.207   3.095   1.508
 2277SOL     OW  965   2.059   2.838   1.264
 2277SOL    HW1  966   2.148   2.793   1.250
 2277SOL    HW2  967   1.986   2.773   1.245
 2279SOL     OW  968   3.049   3.654   1.616
 2279SOL    HW1  969   3.073   3.714   1.540
 2279SOL    HW2  970   3.056   3.559   1.586
 2280SOL     OW  971   2.179   2.113   1.801
 2280SOL    HW1  972   2.250   2.184   1.807
 2280SOL    HW2  973   2.091   2.152   1.829
 2284SOL     OW  974   3.143   2.207   0.944
 2284SOL    HW1  975   3.057   2.157   0.931
 2284SOL    HW2  976   3.205   2.153   1.000
 2286SOL     OW  977   2.669   2.467   1.465
 2286SOL    HW1  978   2.622   2.464   1.554
 2286SOL    HW2  979   2.618   2.412   1.399
 2287SOL     OW  980   3.256   2.331   1.674
 2287SOL    HW1  981   3.236   2.374   1.762
 2287SOL    HW2  982   3.334   2.269   1.683
 2288SOL     OW  983   2.835   2.752   1.572
 2288SOL    HW1  984   2.881   2.668   1.543
 2288SOL    HW2  985   2.779   2.786   1.497
 2289SOL     OW  986   2.853   2.272   1.242
 2289SOL    HW1  987   2.776   2.306   1.296
 2289SOL    HW2  988   2.819   2.221   1.163
 2292SOL     OW  989   1.992   3.683   1.571
 2292SOL    HW1  990   1.982   3.668   1.670
 2292SOL    HW2  991   1.906   3.719   1.535
 2294SOL     OW  992   3.581   2.447   1.831
 2294SOL    HW1  993   3.555   2.536   1.795
 2294SOL    HW2  994   3.579   2.379   1.758
 2300SOL     OW  995   3.089   3.412   1.506
 2300SOL    HW1  996   3.095   3.335   1.570
 2300SOL    HW2  997   3.037   3.386   1.426
 2303SOL     OW  998   2.323   3.128   1.727
 2303SOL    HW1  999   2.273   3.129   1.641
 2303SOL    HW2 1000   2.260   3.110   1.803
 2305SOL     OW 1001   2.064   2.147   1.498
 2305SOL    HW1 1002   1.984   2.207   1.485
 2305SOL    HW2 1003   2.054   2.098   1.584
 2309SOL     OW 1004   2.111   3.647   1.241
 2309SOL    HW1 1005   2.168   3.582   1.291
 2309SOL    HW2 1006   2.095   3.614   1.148
 2312SOL     OW 1007   3.409   2.084   1.729
 2312SOL    HW1 1008   3.404   2.121   1.821
 2312SOL    HW2 1009   3.337   2.015   1.717
 2313SOL     OW 1010   2.643   2.126   1.749
 2313SOL    HW1 1011   2.710   2.065   1.792
 2313SOL    HW2 1012   2.570   2.145   1.814
 2314SOL     OW 1013   2.750   3.376   1.195
 2314SOL    HW1 1014   2.727   3.351   1.101
 2314SOL    HW2 1015   2.811   3.307   1.234
 2315SOL     OW 1016   3.213   2.452   1.433
 2315SOL    HW1 1017   3.241   2.409   1.518
 2315SOL    HW2 1018   3.238   2.548   1.434
 2317SOL     OW 1019   2.784   2.365   0.899
 2317SOL    HW1 1020   2.759   2.356   0.803
 2317SOL    HW2 1021   2.832   2.283   0.930
 2321SOL     OW 1022   2.938   2.545   1.464
 2321SOL    HW1 1023   2.858   2.484   1.467
 2321SOL    HW2 1024   3.019   2.492   1.440
 2326SOL     OW 1025   1.940   2.418   1.386
 2326SOL    HW1 1026   2.032   2.417   1.345
 2326SOL    HW2 1027   1.934   2.492   1.453
 2327SOL     OW 1028   2.423   2.084   1.147
 2327SOL    HW1 1029   2.461   2.000   1.184
 2327SOL    HW2 1030   2.335   2.103   1.191
 2331SOL     OW 1031   3.328   2.452   0.992
 2331SOL    HW1 1032   3.298   2.357   0.999
 2331SOL    HW2 1033   3.401   2.468   1.058
 2337SOL     OW 1034   3.616   3.085   1.588
 2337SOL    HW1 1035   3.707   3.046   1.575
 2337SOL    HW2 1036   3.624   3.181   1.612
 2338SOL     OW 1037   2.926   3.209   1.340
 2338SOL    HW1 1038   2.846   3.186   1.395
 2338SOL    HW2 1039   3.009   3.183   1.389
 2339SOL     OW 1040   3.454   3.491   1.625
 2339SOL    HW1 1041   3.481   3.525   1.535
 2339SOL    HW2 1042   3.533   3.453   1.671
 2340SOL     OW 1043   2.973   3.057   1.100
 2340SOL    HW1 1044   2.933   3.101   1.181
 2340SOL    HW2 1045   2.932   3.094   1.017
 2342SOL     OW 1046   2.777   1.951   1.402
 2342SOL    HW1 1047   2.802   1.931   1.307
 2342SOL    HW2 1048   2.849   2.007   1.444
 2343SOL     OW 1049   2.842   2.978   1.719
 2343SOL    HW1 1050   2.743   2.984   1.729
 2343SOL    HW2 1051   2.865   2.898   1.663
 2345SOL     OW 1052   2.272   2.675   1.251
 2345SOL    HW1 1053   2.358   2.687   1.301
 2345SOL    HW2 1054   2.230   2.588   1.278
 2346SOL     OW 1055   3.136   2.248   1.262
 2346SOL    HW1 1056   3.157   2.322   1.326
 2346SOL    HW2 1057   3.047   2.265   1.219
 2347SOL     OW 1058   1.926   3.426   1.331
 2347SOL    HW1 1059   1.880   3.508   1.297
 2347SOL    HW2 1060   2.024   3.445   1.340
 2349SOL     OW 1061   2.428   2.399   0.865
 2349SOL    HW1 1062   2.440   2.465   0.791
 2349SOL    HW2 1063   2.474   2.433   0.948
 2351SOL     OW 1064   3.134   3.307   1.142
 2351SOL    HW1 1065   3.181   3.320   1.229
 2351SOL    HW2 1066   3.068   3.233   1.151
 2353SOL     OW 1067   2.216   3.372   1.329
 2353SOL    HW1 1068   2.195   3.328   1.242
 2353SOL    HW2 1069   2.313   3.398   1.332
 2354SOL     OW 1070   2.264   2.613   1.598
 2354SOL    HW1 1071   2.332   2.668   1.551
 2354SOL    HW2 1072   2.304   2.525   1.625
 2355SOL     OW 1073   3.449   2.641   1.670
 2355SOL    HW1 1074   3.357   2.679   1.665
 2355SOL    HW2 1075   3.509   2.688   1.605
 2356SOL     OW 1076   2.875   1.967   1.770
 2356SOL    HW1 1077   2.881   2.052   1.718
 2356SOL    HW2 1078   2.907   1.891   1.713
 2357SOL     OW 1079   2.366   1.912   1.740
 2357SOL    HW1 1080   2.324   1.855   1.670
 2357SOL    HW2 1081   2.300   1.981   1.772
 2358SOL     OW 1082   2.435   2.732   1.029
 2358SOL    HW1 1083   2.479   2.821   1.020
 2358SOL    HW2 1084   2.372   2.732   1.106
 2359SOL     OW 1085   3.222   2.724   1.045
 2359SOL    HW1 1086   3.147   2.724   0.979
 2359SOL    HW2 1087   3.259   2.632   1.054
 2361SOL     OW 1088   2.169   2.075   1.231
 2361SOL    HW1 1089   2.146   2.112   1.321
 2361SOL    HW2 1090   2.139   1.980   1.225
 2362SOL     OW 1091   1.899   3.172   1.282
 2362SOL    HW1 1092   1.952   3.123   1.350
 2362SOL    HW2 1093   1.921   3.270   1.287
 2363SOL     OW 1094   2.594   2.496   1.064
 2363SOL    HW1 1095   2.653   2.470   0.988
 2363SOL    HW2 1096   2.566   2.592   1.053
 2364SOL     OW 1097   3.590   2.797   1.854
 2364SOL    HW1 1098   3.544   2.790   1.765
 2364SOL    HW2 1099   3.528   2.841   1.920
 2367SOL     OW 1100   2.885   2.628   0.966
 2367SOL    HW1 1101   2.900   2.649   1.062
 2367SOL    HW2 1102   2.855   2.533   0.957
 2368SOL     OW 1103   2.842   3.435   1.700
 2368SOL    HW1 1104   2.822   3.479   1.612
 2368SOL    HW2 1105   2.881   3.344   1.684
 2369SOL     OW 1106   3.721   3.380   1.605
 2369SOL    HW1 1107   3.735   3.407   1.510
 2369SOL    HW2 1108   3.804   3.402   1.658
 2370SOL     OW 1109   2.212   2.760   1.804
 2370SOL    HW1 1110   2.288   2.804   1.852
 2370SOL    HW2 1111   2.247   2.713   1.722
 2374SOL     OW 1112   2.181   2.672   0.949
 2374SOL    HW1 1113   2.274   2.708   0.954
 2374SOL    HW2 1114   2.175   2.587   1.001
 2375SOL     OW 1115   2.201   2.371   1.006
 2375SOL    HW1 1116   2.149   2.288   0.989
 2375SOL    HW2 1117   2.278   2.376   0.942
 2376SOL     OW 1118   3.000   2.242   1.678
 2376SOL    HW1 1119   2.955   2.305   1.742
 2376SOL    HW2 1120   3.093   2.273   1.661
 2377SOL     OW 1121   3.022   2.069   1.477
 2377SOL    HW1 1122   3.022   2.133   1.554
 2377SOL    HW2 1123   3.050   2.117   1.394
 2381SOL     OW 1124   2.864   2.658   1.238
 2381SOL    HW1 1125   2.905   2.626   1.324
 2381SOL    HW2 1126   2.768   2.631   1.235
 2382SOL     OW 1127   1.902   2.406   1.114
 2382SOL    HW1 1128   1.987   2.373   1.073
 2382SOL    HW2 1129   1.915   2.421   1.212
 2383SOL     OW 1130   2.051   2.382   1.722
 2383SOL    HW1 1131   2.110   2.342   1.652
 2383SOL    HW2 1132   1.993   2.453   1.681
 2384SOL     OW 1133   3.231   2.812   1.660
 2384SOL    HW1 1134   3.270   2.901   1.680
 2384SOL    HW2 1135   3.241   2.792   1.563
 2386SOL     OW 1136   3.519   2.466   1.206
 2386SOL    HW1 1137   3.481   2.397   1.268
 2386SOL    HW2 1138   3.601   2.430   1.162
 2387SOL     OW 1139   2.114   3.426   1.744
 2387SOL    HW1 1140   2.084   3.483   1.820
 2387SOL    HW2 1141   2.107   3.329   1.770
 2388SOL     OW 1142   2.533   2.326   1.269
 2388SOL    HW1 1143   2.499   2.237   1.239
 2388SOL    HW2 1144   2.559   2.380   1.189
 2389SOL     OW 1145   2.792   3.540   1.465
 2389SOL    HW1 1146   2.768   3.522   1.370
 2389SOL    HW2 1147   2.822   3.634   1.475
 2391SOL     OW 1148   2.021   2.999   1.466
 2391SOL    HW1 1149   2.043   2.938   1.542
 2391SOL    HW2 1150   2.031   2.950   1.380
 2392SOL     OW 1151   3.209   2.921   1.234
 2392SOL    HW1 1152   3.233   2.858   1.160
 2392SOL    HW2 1153   3.119   2.961   1.216
 2396SOL     OW 1154   1.945   3.120   1.022
 2396SOL    HW1 1155   1.940   3.119   1.122
 2396SOL    HW2 1156   1.862   3.079   0.984
 2397SOL     OW 1157   2.550   3.524   1.716
 2397SOL    HW1 1158   2.494   3.605   1.725
 2397SOL    HW2 1159   2.602   3.528   1.630
 2401SOL     OW 1160   1.992   3.656   1.851
 2401SOL    HW1 1161   1.951   3.582   1.904
 2401SOL    HW2 1162   2.056   3.707   1.909
 2403SOL     OW 1163   2.692   3.135   1.422
 2403SOL    HW1 1164   2.687   3.168   1.517
 2403SOL    HW2 1165   2.606   3.154   1.376
 2409SOL     OW 1166   2.684   2.864   1.372
 2409SOL    HW1 1167   2.724   2.863   1.280
 2409SOL    HW2 1168   2.694   2.956   1.412
 2412SOL     OW 1169   2.234   3.150   1.490
 2412SOL    HW1 1170   2.221   3.243   1.456
 2412SOL    HW2 1171   2.150   3.098   1.477
 2413SOL     OW 1172   3.476   3.154   1.289
 2413SOL    HW1 1173   3.536   3.157   1.369
 2413SOL    HW2 1174   3.401   3.218   1.302
 2415SOL     OW 1175   2.876   2.098   0.971
 2415SOL    HW1 1176   2.868   2.062   0.878
 2415SOL    HW2 1177   2.874   2.022   1.036
 2417SOL     OW 1178   3.571   2.247   1.381
 2417SOL    HW1 1179   3.644   2.316   1.385
 2417SOL    HW2 1180   3.599   2.172   1.322
 2419SOL     OW 1181   1.967   2.875   1.726
 2419SOL    HW1 1182   1.890   2.842   1.780
 2419SOL    HW2 1183   2.052   2.845   1.768
 2420SOL     OW 1184   2.534   2.065   1.489
 2420SOL    HW1 1185   2.624   2.049   1.449
 2420SOL    HW2 1186   2.542   2.070   1.588
 2422SOL     OW 1187   3.302   2.718   1.398
 2422SOL    HW1 1188   3.245   2.770   1.335
 2422SOL    HW2 1189   3.398   2.730   1.374
 2425SOL     OW 1190   2.475   2.704   1.431
 2425SOL    HW1 1191   2.531   2.785   1.414
 2425SOL    HW2 1192   2.534   2.624   1.434
 2427SOL     OW 1193   2.578   2.427   1.708
 2427SOL    HW1 1194   2.597   2.492   1.782
 2427SOL    HW2 1195   2.638   2.347   1.717
 2428SOL     OW 1196   3.312   3.082   1.633
 2428SOL    HW1 1197   3.303   3.072   1.732
 2428SOL    HW2 1198   3.408   3.075   1.607
 2429SOL     OW 1199   2.252   3.603   1.560
 2429SOL    HW1 1200   2.161   3.644   1.558
 2429SOL    HW2 1201   2.245   3.509   1.592
 2430SOL     OW 1202   3.536   2.745   1.254
 2430SOL    HW1 1203   3.509   2.656   1.217
 2430SOL    HW2 1204   3.537   2.813   1.181
 2433SOL     OW 1205   3.639   2.204   1.642
 2433SOL    HW1 1206   3.622   2.235   1.548
 2433SOL    HW2 1207   3.555   2.167   1.680
 2434SOL     OW 1208   3.592   2.796   1.517
 2434SOL    HW1 1209   3.630   2.887   1.532
 2434SOL    HW2 1210   3.584   2.779   1.418
 2437SOL     OW 1211   2.721   2.818   0.861
 2437SOL    HW1 1212   2.775   2.749   0.909
 2437SOL    HW2 1213   2.689   2.887   0.927
 2440SOL     OW 1214   2.083   3.176   1.844
 2440SOL    HW1 1215   2.018   3.103   1.823
 2440SOL    HW2 1216   2.087   3.190   1.942
 2442SOL     OW 1217   2.534   3.253   1.624
 2442SOL    HW1 1218   2.456   3.203   1.662
 2442SOL    HW2 1219   2.531   3.348   1.655
 2446SOL     OW 1220   2.179   2.409   1.280
 2446SOL    HW1 1221   2.217   2.350   1.352
 2446SOL    HW2 1222   2.219   2.383   1.192
 2448SOL     OW 1223   3.286   2.076   1.112
 2448SOL    HW1 1224   3.338   2.011   1.167
 2448SOL    HW2 1225   3.237   2.139   1.173
 2449SOL     OW 1226   2.863   1.896   1.154
 2449SOL    HW1 1227   2.800   1.824   1.123
 2449SOL    HW2 1228   2.956   1.860   1.154
 2451SOL     OW 1229   2.480   3.429   1.284
 2451SOL    HW1 1230   2.475   3.511   1.341
 2451SOL    HW2 1231   2.569   3.426   1.239
 2457SOL     OW 1232   2.092   2.490   1.975
 2457SOL    HW1 1233   1.999   2.488   2.012
 2457SOL    HW2 1234   2.093   2.451   1.883
 2458SOL     OW 1235   2.087   2.137   2.858
 2458SOL    HW1 1236   2.122   2.120   2.950
 2458SOL    HW2 1237   1.999   2.092   2.846
 2459SOL     OW 1238   1.881   2.230   2.509
 2459SOL    HW1 1239   1.799   2.273   2.548
 2459SOL    HW2 1240   1.853   2.157   2.446
 2460SOL     OW 1241   2.431   3.137   3.027
 2460SOL    HW1 1242   2.338   3.130   2.990
 2460SOL    HW2 1243   2.442   3.226   3.071
 2461SOL     OW 1244   3.417   3.373   2.565
 2461SOL    HW1 1245   3.360   3.357   2.646
 2461SOL    HW2 1246   3.358   3.383   2.485
 2462SOL     OW 1247   2.997   2.565   2.579
 2462SOL    HW1 1248   3.054   2.643   2.554
 2462SOL    HW2 1249   2.937   2.591   2.655
 2463SOL     OW 1250   3.617   2.469   2.093
 2463SOL    HW1 1251   3.605   2.456   1.994
 2463SOL    HW2 1252   3.587   2.388   2.142
 2464SOL     OW 1253   2.712   2.660   3.685
 2464SOL    HW1 1254   2.708   2.736   3.750
 2464SOL    HW2 1255   2.734   2.696   3.594
 2465SOL     OW 1256   2.548   3.023   3.665
 2465SOL    HW1 1257   2.608   3.102   3.679
 2465SOL    HW2 1258   2.462   3.054   3.624
 2466SOL     OW 1259   2.197   3.297   2.923
 2466SOL    HW1 1260   2.119   3.266   2.870
 2466SOL    HW2 1261   2.255   3.355   2.866
 2467SOL     OW 1262   3.322   3.367   3.201
 2467SOL    HW1 1263   3.346   3.461   3.227
 2467SOL    HW2 1264   3.306   3.313   3.283
 2468SOL     OW 1265   2.300   2.254   3.361
 2468SOL    HW1 1266   2.382   2.198   3.370
 2468SOL    HW2 1267   2.219   2.196   3.365
 2469SOL     OW 1268   3.465   2.309   2.599
 2469SOL    HW1 1269   3.391   2.355   2.549
 2469SOL    HW2 1270   3.516   2.377   2.652
 2470SOL     OW 1271   2.093   3.575   2.345
 2470SOL    HW1 1272   2.127   3.652   2.399
 2470SOL    HW2 1273   2.137   3.575   2.255
 2471SOL     OW 1274   2.989   3.203   3.552
 2471SOL    HW1 1275   3.036   3.203   3.640
 2471SOL    HW2 1276   2.941   3.116   3.541
 2472SOL     OW 1277   2.092   3.296   2.400
 2472SOL    HW1 1278   2.066   3.392   2.400
 2472SOL    HW2 1279   2.021   3.242   2.445
 2473SOL     OW 1280   2.102   2.953   2.748
 2473SOL    HW1 1281   2.116   2.869   2.800
 2473SOL    HW2 1282   2.047   3.017   2.803
 2474SOL     OW 1283   2.482   3.648   3.301
 2474SOL    HW1 1284   2.390   3.631   3.336
 2474SOL    HW2 1285   2.510   3.740   3.327
 2475SOL     OW 1286   2.468   2.826   1.985
 2475SOL    HW1 1287   2.475   2.910   1.931
 2475SOL    HW2 1288   2.514   2.839   2.073
 2476SOL     OW 1289   3.456   1.976   3.342
 2476SOL    HW1 1290   3.438   2.043   3.270
 2476SOL    HW2 1291   3.453   2.022   3.431
 2477SOL     OW 1292   1.984   2.505   2.425
 2477SOL    HW1 1293   1.939   2.417   2.442
 2477SOL    HW2 1294   1.983   2.559   2.509
 2478SOL     OW 1295   3.704   3.629   2.221
 2478SOL    HW1 1296   3.758   3.600   2.301
 2478SOL    HW2 1297   3.734   3.719   2.192
 2479SOL     OW 1298   1.889   3.458   1.979
 2479SOL    HW1 1299   1.870   3.362   2.000
 2479SOL    HW2 1300   1.856   3.516   2.054
 2480SOL     OW 1301   3.551   2.784   2.474
 2480SOL    HW1 1302   3.646   2.755   2.482
 2480SOL    HW2 1303   3.543   2.849   2.399
 2481SOL     OW 1304   3.503   2.970   2.294
 2481SOL    HW1 1305   3.589   2.972   2.242
 2481SOL    HW2 1306   3.517   3.017   2.382
 2482SOL     OW 1307   1.975   2.599   3.459
 2482SOL    HW1 1308   2.063   2.586   3.504
 2482SOL    HW2 1309   1.962   2.696   3.437
 2483SOL     OW 1310   3.155   3.090   3.285
 2483SOL    HW1 1311   3.192   3.017   3.227
 2483SOL    HW2 1312   3.207   3.095   3.370
 2484SOL     OW 1313   2.671   1.866   2.364
 2484SOL    HW1 1314   2.711   1.957   2.355
 2484SOL    HW2 1315   2.571   1.874   2.370
 2485SOL     OW 1316   2.059   2.838   3.126
 2485SOL    HW1 1317   2.148   2.793   3.112
 2485SOL    HW2 1318   1.986   2.773   3.107
 2486SOL     OW 1319   3.387   2.861   2.052
 2486SOL    HW1 1320   3.324   2.785   2.065
 2486SOL    HW2 1321   3.435   2.879   2.138
 2487SOL     OW 1322   3.049   3.654   3.478
 2487SOL    HW1 1323   3.073   3.714   3.402
 2487SOL    HW2 1324   3.056   3.559   3.448
 2488SOL     OW 1325   2.179   2.113   3.663
 2488SOL    HW1 1326   2.250   2.184   3.669
 2488SOL    HW2 1327   2.091   2.152   3.691
 2489SOL     OW 1328   3.328   3.279   2.815
 2489SOL    HW1 1329   3.269   3.285   2.895
 2489SOL    HW2 1330   3.313   3.191   2.769
 2490SOL     OW 1331   3.529   3.576   2.434
 2490SOL    HW1 1332   3.488   3.553   2.346
 2490SOL    HW2 1333   3.511   3.502   2.499
 2491SOL     OW 1334   2.460   2.591   2.132
 2491SOL    HW1 1335   2.484   2.660   2.064
 2491SOL    HW2 1336   2.382   2.624   2.186
 2492SOL     OW 1337   3.143   2.207   2.806
 2492SOL    HW1 1338   3.057   2.157   2.793
 2492SOL    HW2 1339   3.205   2.153   2.862
 2493SOL     OW 1340   3.438   3.524   2.169
 2493SOL    HW1 1341   3.527   3.570   2.172
 2493SOL    HW2 1342   3.417   3.500   2.074
 2494SOL     OW 1343   2.669   2.467   3.327
 2494SOL    HW1 1344   2.622   2.464   3.416
 2494SOL    HW2 1345   2.618   2.412   3.261
 2495SOL     OW 1346   3.256   2.331   3.536
 2495SOL    HW1 1347   3.236   2.374   3.624
 2495SOL    HW2 1348   3.334   2.269   3.545
 2496SOL     OW 1349   2.835   2.752   3.434
 2496SOL    HW1 1350   2.881   2.668   3.405
 2496SOL    HW2 1351   2.779   2.786   3.359
 2497SOL     OW 1352   2.853   2.272   3.104
 2497SOL    HW1 1353   2.776   2.306   3.158
 2497SOL    HW2 1354   2.819   2.221   3.025
 2498SOL     OW 1355   2.903   2.563   2.291
 2498SOL    HW1 1356   2.929   2.559   2.387
 2498SOL    HW2 1357   2.818   2.512   2.277
 2499SOL     OW 1358   1.938   2.673   2.651
 2499SOL    HW1 1359   2.037   2.661   2.660
 2499SOL    HW2 1360   1.914   2.768   2.672
 2500SOL     OW 1361   1.992   3.683   3.433
 2500SOL    HW1 1362   1.982   3.668   3.532
 2500SOL    HW2 1363   1.906   3.719   3.397
 2501SOL     OW 1364   2.727   2.210   2.057
 2501SOL    HW1 1365   2.786   2.273   2.008
 2501SOL    HW2 1366   2.746   2.116   2.028
 2502SOL     OW 1367   3.581   2.447   3.693
 2502SOL    HW1 1368   3.555   2.536   3.657
 2502SOL    HW2 1369   3.579   2.379   3.620
 2503SOL     OW 1370   3.224   3.006   2.407
 2503SOL    HW1 1371   3.307   2.977   2.359
 2503SOL    HW2 1372   3.175   3.073   2.351
 2504SOL     OW 1373   2.412   2.058   2.747
 2504SOL    HW1 1374   2.407   2.053   2.847
 2504SOL    HW2 1375   2.414   2.154   2.718
 2505SOL     OW 1376   2.870   3.318   2.339
 2505SOL    HW1 1377   2.824   3.390   2.287
 2505SOL    HW2 1378   2.866   3.338   2.437
 2506SOL     OW 1379   2.213   3.663   2.715
 2506SOL    HW1 1380   2.263   3.577   2.721
 2506SOL    HW2 1381   2.278   3.740   2.712
 2507SOL     OW 1382   3.657   2.928   2.735
 2507SOL    HW1 1383   3.595   2.913   2.659
 2507SOL    HW2 1384   3.605   2.939   2.820
 2508SOL     OW 1385   3.089   3.412   3.368
 2508SOL    HW1 1386   3.095   3.335   3.432
 2508SOL    HW2 1387   3.037   3.386   3.288
 2509SOL     OW 1388   2.183   2.805   2.104
 2509SOL    HW1 1389   2.265   2.844   2.062
 2509SOL    HW2 1390   2.156   2.723   2.055
 2510SOL     OW 1391   3.320   2.597   2.590
 2510SOL    HW1 1392   3.315   2.532   2.665
 2510SOL    HW2 1393   3.400   2.656   2.603
 2511SOL     OW 1394   2.323   3.128   3.589
 2511SOL    HW1 1395   2.273   3.129   3.503
 2511SOL    HW2 1396   2.260   3.110   3.665
 2512SOL     OW 1397   2.973   3.638   2.099
 2512SOL    HW1 1398   2.913   3.576   2.149
 2512SOL    HW2 1399   3.004   3.594   2.014
 2513SOL     OW 1400   2.064   2.147   3.360
 2513SOL    HW1 1401   1.984   2.207   3.347
 2513SOL    HW2 1402   2.054   2.098   3.446
 2514SOL     OW 1403   3.494   3.239   1.943
 2514SOL    HW1 1404   3.462   3.333   1.933
 2514SOL    HW2 1405   3.418   3.176   1.931
 2515SOL     OW 1406   2.326   3.605   2.185
 2515SOL    HW1 1407   2.359   3.644   2.271
 2515SOL    HW2 1408   2.402   3.598   2.120
 2516SOL     OW 1409   3.262   1.969   2.288
 2516SOL    HW1 1410   3.238   1.932   2.198
 2516SOL    HW2 1411   3.361   1.985   2.292
 2517SOL     OW 1412   2.111   3.647   3.103
 2517SOL    HW1 1413   2.168   3.582   3.153
 2517SOL    HW2 1414   2.095   3.614   3.010
 2518SOL     OW 1415   2.802   3.560   2.766
 2518SOL    HW1 1416   2.882   3.503   2.787
 2518SOL    HW2 1417   2.753   3.520   2.689
 2519SOL     OW 1418   2.244   2.562   2.342
 2519SOL    HW1 1419   2.289   2.472   2.339
 2519SOL    HW2 1420   2.150   2.551   2.375
 2520SOL     OW 1421   3.409   2.084   3.591
 2520SOL    HW1 1422   3.404   2.121   3.683
 2520SOL    HW2 1423   3.337   2.015   3.579
 2521SOL     OW 1424   2.476   1.984   1.979
 2521SOL    HW1 1425   2.574   1.962   1.986
 2521SOL    HW2 1426   2.445   1.967   1.886
 2522SOL     OW 1427   2.643   2.126   3.611
 2522SOL    HW1 1428   2.710   2.065   3.654
 2522SOL    HW2 1429   2.570   2.145   3.676
 2523SOL     OW 1430   2.750   3.376   3.057
 2523SOL    HW1 1431   2.727   3.351   2.963
 2523SOL    HW2 1432   2.811   3.307   3.096
 2524SOL     OW 1433   3.213   2.452   3.295
 2524SOL    HW1 1434   3.241   2.409   3.380
 2524SOL    HW2 1435   3.238   2.548   3.296
 2525SOL     OW 1436   2.665   3.264   2.786
 2525SOL    HW1 1437   2.755   3.278   2.744
 2525SOL    HW2 1438   2.594   3.266   2.715
 2526SOL     OW 1439   2.401   1.926   2.374
 2526SOL    HW1 1440   2.320   1.927   2.432
 2526SOL    HW2 1441   2.404   2.009   2.319
 2527SOL     OW 1442   3.296   3.050   1.903
 2527SOL    HW1 1443   3.328   2.974   1.960
 2527SOL    HW2 1444   3.204   3.077   1.933
 2528SOL     OW 1445   2.159   1.897   2.033
 2528SOL    HW1 1446   2.208   1.981   2.012
 2528SOL    HW2 1447   2.221   1.832   2.078
 2529SOL     OW 1448   2.797   2.098   2.342
 2529SOL    HW1 1449   2.749   2.139   2.264
 2529SOL    HW2 1450   2.896   2.096   2.323
 2530SOL     OW 1451   2.938   2.545   3.326
 2530SOL    HW1 1452   2.858   2.484   3.329
 2530SOL    HW2 1453   3.019   2.492   3.302
 2531SOL     OW 1454   3.089   3.432   2.655
 2531SOL    HW1 1455   3.110   3.506   2.590
 2531SOL    HW2 1456   3.157   3.432   2.728
 2532SOL     OW 1457   3.133   3.659   2.453
 2532SOL    HW1 1458   3.177   3.723   2.389
 2532SOL    HW2 1459   3.083   3.711   2.523
 2533SOL     OW 1460   2.894   2.411   1.878
 2533SOL    HW1 1461   2.853   2.493   1.839
 2533SOL    HW2 1462   2.958   2.437   1.951
 2534SOL     OW 1463   1.940   2.418   3.248
 2534SOL    HW1 1464   2.032   2.417   3.207
 2534SOL    HW2 1465   1.934   2.492   3.315
 2535SOL     OW 1466   2.423   2.084   3.009
 2535SOL    HW1 1467   2.461   2.000   3.046
 2535SOL    HW2 1468   2.335   2.103   3.053
 2536SOL     OW 1469   2.879   1.901   2.615
 2536SOL    HW1 1470   2.807   1.906   2.546
 2536SOL    HW2 1471   2.855   1.832   2.684
 2537SOL     OW 1472   3.291   3.035   2.729
 2537SOL    HW1 1473   3.236   2.951   2.722
 2537SOL    HW2 1474   3.317   3.064   2.637
 2538SOL     OW 1475   3.328   2.452   2.854
 2538SOL    HW1 1476   3.298   2.357   2.861
 2538SOL    HW2 1477   3.401   2.468   2.920
 2539SOL     OW 1478   3.719   2.695   2.239
 2539SOL    HW1 1479   3.761   2.631   2.303
 2539SOL    HW2 1480   3.681   2.644   2.161
 2540SOL     OW 1481   2.350   3.247   2.036
 2540SOL    HW1 1482   2.263   3.232   2.083
 2540SOL    HW2 1483   2.333   3.273   1.941
 2541SOL     OW 1484   3.526   3.142   2.519
 2541SOL    HW1 1485   3.625   3.150   2.533
 2541SOL    HW2 1486   3.481   3.226   2.550
 2542SOL     OW 1487   3.252   2.437   1.940
 2542SOL    HW1 1488   3.198   2.416   2.021
 2542SOL    HW2 1489   3.343   2.396   1.949
 2543SOL     OW 1490   2.389   2.118   2.190
 2543SOL    HW1 1491   2.416   2.059   2.115
 2543SOL    HW2 1492   2.389   2.213   2.159
 2544SOL     OW 1493   3.616   3.085   3.450
 2544SOL    HW1 1494   3.707   3.046   3.437
 2544SOL    HW2 1495   3.624   3.181   3.474
 2545SOL     OW 1496   2.926   3.209   3.202
 2545SOL    HW1 1497   2.846   3.186   3.257
 2545SOL    HW2 1498   3.009   3.183   3.251
 2546SOL     OW 1499   3.454   3.491   3.487
 2546SOL    HW1 1500   3.481   3.525   3.397
 2546SOL    HW2 1501   3.533   3.453   3.533
 2547SOL     OW 1502   2.973   3.057   2.962
 2547SOL    HW1 1503   2.933   3.101   3.043
 2547SOL    HW2 1504   2.932   3.094   2.879
 2548SOL     OW 1505   3.500   2.961   2.941
 2548SOL    HW1 1506   3.505   3.042   3.000
 2548SOL    HW2 1507   3.414   2.963   2.890
 2549SOL     OW 1508   2.777   1.951   3.264
 2549SOL    HW1 1509   2.802   1.931   3.169
 2549SOL    HW2 1510   2.849   2.007   3.306
 2550SOL     OW 1511   2.842   2.978   3.581
 2550SOL    HW1 1512   2.743   2.984   3.591
 2550SOL    HW2 1513   2.865   2.898   3.525
 2551SOL     OW 1514   2.272   2.675   3.113
 2551SOL    HW1 1515   2.358   2.687   3.163
 2551SOL    HW2 1516   2.230   2.588   3.140
 2552SOL     OW 1517   3.136   2.248   3.124
 2552SOL    HW1 1518   3.157   2.322   3.188
 2552SOL    HW2 1519   3.047   2.265   3.081
 2553SOL     OW 1520   1.926   3.426   3.193
 2553SOL    HW1 1521   1.880   3.508   3.159
 2553SOL    HW2 1522   2.024   3.445   3.202
 2554SOL     OW 1523   2.229   2.962   2.363
 2554SOL    HW1 1524   2.222   3.045   2.307
 2554SOL    HW2 1525   2.233   2.882   2.303
 2555SOL     OW 1526   3.114   3.210   2.250
 2555SOL    HW1 1527   3.164   3.287   2.290
 2555SOL    HW2 1528   3.019   3.212   2.282
 2556SOL     OW 1529   3.134   3.307   3.004
 2556SOL    HW1 1530   3.181   3.320   3.091
 2556SOL    HW2 1531   3.068   3.233   3.013
 2557SOL     OW 1532   3.444   2.501   2.334
 2557SOL    HW1 1533   3.413   2.562   2.407
 2557SOL    HW2 1534   3.494   2.553   2.265
 2558SOL     OW 1535   2.216   3.372   3.191
 2558SOL    HW1 1536   2.195   3.328   3.104
 2558SOL    HW2 1537   2.313   3.398   3.194
 2559SOL     OW 1538   2.264   2.613   3.460
 2559SOL    HW1 1539   2.332   2.668   3.413
 2559SOL    HW2 1540   2.304   2.525   3.487
 2560SOL     OW 1541   3.449   2.641   3.532
 2560SOL    HW1 1542   3.357   2.679   3.527
 2560SOL    HW2 1543   3.509   2.688   3.467
 2561SOL     OW 1544   2.875   1.967   3.632
 2561SOL    HW1 1545   2.881   2.052   3.580
 2561SOL    HW2 1546   2.907   1.891   3.575
 2562SOL     OW 1547   2.366   1.912   3.602
 2562SOL    HW1 1548   2.324   1.855   3.532
 2562SOL    HW2 1549   2.300   1.981   3.634
 2563SOL     OW 1550   2.435   2.732   2.891
 2563SOL    HW1 1551   2.479   2.821   2.882
 2563SOL    HW2 1552   2.372   2.732   2.968
 2564SOL     OW 1553   3.222   2.724   2.907
 2564SOL    HW1 1554   3.147   2.724   2.841
 2564SOL    HW2 1555   3.259   2.632   2.916
 2565SOL     OW 1556   3.071   2.387   2.137
 2565SOL    HW1 1557   3.084   2.303   2.191
 2565SOL    HW2 1558   3.042   2.461   2.197
 2566SOL     OW 1559   2.169   2.075   3.093
 2566SOL    HW1 1560   2.146   2.112   3.183
 2566SOL    HW2 1561   2.139   1.980   3.087
 2567SOL     OW 1562   1.899   3.172   3.144
 2567SOL    HW1 1563   1.952   3.123   3.212
 2567SOL    HW2 1564   1.921   3.270   3.149
 2568SOL     OW 1565   2.594   2.496   2.926
 2568SOL    HW1 1566   2.653   2.470   2.850
 2568SOL    HW2 1567   2.566   2.592   2.915
 2569SOL     OW 1568   3.590   2.797   3.716
 2569SOL    HW1 1569   3.544   2.790   3.627
 2569SOL    HW2 1570   3.528   2.841   3.782
 2570SOL     OW 1571   2.169   1.925   2.480
 2570SOL    HW1 1572   2.158   2.019   2.513
 2570SOL    HW2 1573   2.164   1.862   2.557
 2571SOL     OW 1574   3.484   2.229   2.236
 2571SOL    HW1 1575   3.486   2.153   2.300
 2571SOL    HW2 1576   3.436   2.306   2.276
 2572SOL     OW 1577   2.885   2.628   2.828
 2572SOL    HW1 1578   2.900   2.649   2.924
 2572SOL    HW2 1579   2.855   2.533   2.819
 2573SOL     OW 1580   2.842   3.435   3.562
 2573SOL    HW1 1581   2.822   3.479   3.474
 2573SOL    HW2 1582   2.881   3.344   3.546
 2574SOL     OW 1583   3.721   3.380   3.467
 2574SOL    HW1 1584   3.735   3.407   3.372
 2574SOL    HW2 1585   3.804   3.402   3.520
 2575SOL     OW 1586   2.212   2.760   3.666
 2575SOL    HW1 1587   2.288   2.804   3.714
 2575SOL    HW2 1588   2.247   2.713   3.584
 2576SOL     OW 1589   3.402   2.136   1.987
 2576SOL    HW1 1590   3.341   2.061   2.010
 2576SOL    HW2 1591   3.424   2.188   2.070
 2577SOL     OW 1592   3.165   2.700   1.904
 2577SOL    HW1 1593   3.199   2.607   1.919
 2577SOL    HW2 1594   3.183   2.727   1.809
 2578SOL     OW 1595   2.930   3.195   2.711
 2578SOL    HW1 1596   2.937   3.111   2.656
 2578SOL    HW2 1597   2.992   3.264   2.675
 2579SOL     OW 1598   3.000   2.242   3.540
 2579SOL    HW1 1599   2.955   2.305   3.604
 2579SOL    HW2 1600   3.093   2.273   3.523
 2580SOL     OW 1601   3.022   2.069   3.339
 2580SOL    HW1 1602   3.022   2.133   3.416
 2580SOL    HW2 1603   3.050   2.117   3.256
 2581SOL     OW 1604   1.870   3.188   2.062
 2581SOL    HW1 1605   1.777   3.209   2.031
 2581SOL    HW2 1606   1.880   3.089   2.075
 2582SOL     OW 1607   1.950   3.663   2.789
 2582SOL    HW1 1608   1.908   3.577   2.762
 2582SOL    HW2 1609   2.044   3.666   2.755
 2583SOL     OW 1610   2.366   3.430   2.772
 2583SOL    HW1 1611   2.432   3.504   2.781
 2583SOL    HW2 1612   2.410   3.351   2.730
 2584SOL     OW 1613   2.864   2.658   3.100
 2584SOL    HW1 1614   2.905   2.626   3.186
 2584SOL    HW2 1615   2.768   2.631   3.097
 2585SOL     OW 1616   1.902   2.406   2.976
 2585SOL    HW1 1617   1.987   2.373   2.935
 2585SOL    HW2 1618   1.915   2.421   3.074
 2586SOL     OW 1619   2.051   2.382   3.584
 2586SOL    HW1 1620   2.110   2.342   3.514
 2586SOL    HW2 1621   1.993   2.453   3.543
 2587SOL     OW 1622   3.231   2.812   3.522
 2587SOL    HW1 1623   3.270   2.901   3.542
 2587SOL    HW2 1624   3.241   2.792   3.425
 2588SOL     OW 1625   2.677   2.434   2.187
 2588SOL    HW1 1626   2.684   2.345   2.141
 2588SOL    HW2 1627   2.583   2.468   2.179
 2589SOL     OW 1628   3.519   2.466   3.068
 2589SOL    HW1 1629   3.481   2.397   3.130
 2589SOL    HW2 1630   3.601   2.430   3.024
 2590SOL     OW 1631   2.114   3.426   3.606
 2590SOL    HW1 1632   2.084   3.483   3.682
 2590SOL    HW2 1633   2.107   3.329   3.632
 2591SOL     OW 1634   2.533   2.326   3.131
 2591SOL    HW1 1635   2.499   2.237   3.101
 2591SOL    HW2 1636   2.559   2.380   3.051
 2592SOL     OW 1637   2.792   3.540   3.327
 2592SOL    HW1 1638   2.768   3.522   3.232
 2592SOL    HW2 1639   2.822   3.634   3.337
 2593SOL     OW 1640   2.335   2.362   2.053
 2593SOL    HW1 1641   2.396   2.442   2.057
 2593SOL    HW2 1642   2.240   2.393   2.060
 2594SOL     OW 1643   2.021   2.999   3.328
 2594SOL    HW1 1644   2.043   2.938   3.404
 2594SOL    HW2 1645   2.031   2.950   3.242
 2595SOL     OW 1646   3.209   2.921   3.096
 2595SOL    HW1 1647   3.233   2.858   3.022
 2595SOL    HW2 1648   3.119   2.961   3.078
 2596SOL     OW 1649   3.164   2.717   2.171
 2596SOL    HW1 1650   3.078   2.686   2.213
 2596SOL    HW2 1651   3.160   2.703   2.072
 2597SOL     OW 1652   3.621   3.609   3.016
 2597SOL    HW1 1653   3.682   3.639   2.943
 2597SOL    HW2 1654   3.583   3.520   2.994
 2598SOL     OW 1655   3.114   3.593   2.990
 2598SOL    HW1 1656   3.198   3.598   2.936
 2598SOL    HW2 1657   3.091   3.497   3.008
 2599SOL     OW 1658   1.945   3.120   2.884
 2599SOL    HW1 1659   1.940   3.119   2.984
 2599SOL    HW2 1660   1.862   3.079   2.846
 2600SOL     OW 1661   2.550   3.524   3.578
 2600SOL    HW1 1662   2.494   3.605   3.587
 2600SOL    HW2 1663   2.602   3.528   3.492
 2601SOL     OW 1664   3.588   1.997   2.385
 2601SOL    HW1 1665   3.661   1.980   2.318
 2601SOL    HW2 1666   3.557   1.910   2.423
 2602SOL     OW 1667   3.250   3.435   2.339
 2602SOL    HW1 1668   3.317   3.447   2.265
 2602SOL    HW2 1669   3.210   3.524   2.362
 2603SOL     OW 1670   1.992   3.656   3.713
 2603SOL    HW1 1671   1.951   3.582   3.766
 2603SOL    HW2 1672   2.056   3.707   3.771
 2604SOL     OW 1673   3.142   2.789   2.534
 2604SOL    HW1 1674   3.202   2.708   2.536
 2604SOL    HW2 1675   3.182   2.858   2.474
 2605SOL     OW 1676   2.692   3.135   3.284
 2605SOL    HW1 1677   2.687   3.168   3.379
 2605SOL    HW2 1678   2.606   3.154   3.238
 2606SOL     OW 1679   2.534   3.478   2.016
 2606SOL    HW1 1680   2.543   3.488   1.917
 2606SOL    HW2 1681   2.494   3.389   2.037
 2607SOL     OW 1682   3.512   3.582   3.256
 2607SOL    HW1 1683   3.565   3.592   3.172
 2607SOL    HW2 1684   3.485   3.672   3.290
 2608SOL     OW 1685   3.703   2.037   2.825
 2608SOL    HW1 1686   3.742   1.952   2.789
 2608SOL    HW2 1687   3.605   2.039   2.806
 2609SOL     OW 1688   2.125   2.188   2.582
 2609SOL    HW1 1689   2.046   2.239   2.548
 2609SOL    HW2 1690   2.116   2.173   2.680
 2610SOL     OW 1691   3.056   3.474   1.893
 2610SOL    HW1 1692   3.062   3.381   1.930
 2610SOL    HW2 1693   2.997   3.474   1.813
 2611SOL     OW 1694   2.684   2.864   3.234
 2611SOL    HW1 1695   2.724   2.863   3.142
 2611SOL    HW2 1696   2.694   2.956   3.274
 2612SOL     OW 1697   2.778   2.772   2.153
 2612SOL    HW1 1698   2.841   2.810   2.085
 2612SOL    HW2 1699   2.818   2.689   2.192
 2613SOL     OW 1700   3.366   3.469   1.906
 2613SOL    HW1 1701   3.274   3.506   1.913
 2613SOL    HW2 1702   3.404   3.489   1.816
 2614SOL     OW 1703   2.234   3.150   3.352
 2614SOL    HW1 1704   2.221   3.243   3.318
 2614SOL    HW2 1705   2.150   3.098   3.339
 2615SOL     OW 1706   3.476   3.154   3.151
 2615SOL    HW1 1707   3.536   3.157   3.231
 2615SOL    HW2 1708   3.401   3.218   3.164
 2616SOL     OW 1709   2.901   2.960   2.558
 2616SOL    HW1 1710   2.831   2.913   2.612
 2616SOL    HW2 1711   2.960   2.892   2.515
 2617SOL     OW 1712   2.876   2.098   2.833
 2617SOL    HW1 1713   2.868   2.062   2.740
 2617SOL    HW2 1714   2.874   2.022   2.898
 2618SOL     OW 1715   2.452   3.349   2.353
 2618SOL    HW1 1716   2.494   3.291   2.283
 2618SOL    HW2 1717   2.408   3.428   2.309
 2619SOL     OW 1718   3.571   2.247   3.243
 2619SOL    HW1 1719   3.644   2.316   3.247
 2619SOL    HW2 1720   3.599   2.172   3.184
 2620SOL     OW 1721   2.117   3.210   2.152
 2620SOL    HW1 1722   2.021   3.211   2.125
 2620SOL    HW2 1723   2.129   3.263   2.236
 2621SOL     OW 1724   1.967   2.875   3.588
 2621SOL    HW1 1725   1.890   2.842   3.642
 2621SOL    HW2 1726   2.052   2.845   3.630
 2622SOL     OW 1727   2.534   2.065   3.351
 2622SOL    HW1 1728   2.624   2.049   3.311
 2622SOL    HW2 1729   2.542   2.070   3.450
 2623SOL     OW 1730   1.937   2.207   1.895
 2623SOL    HW1 1731   1.845   2.179   1.866
 2623SOL    HW2 1732   1.968   2.284   1.839
 2624SOL     OW 1733   3.302   2.718   3.260
 2624SOL    HW1 1734   3.245   2.770   3.197
 2624SOL    HW2 1735   3.398   2.730   3.236
 2625SOL     OW 1736   1.934   2.028   2.180
 2625SOL    HW1 1737   1.917   2.111   2.126
 2625SOL    HW2 1738   2.024   1.991   2.158
 2626SOL     OW 1739   3.045   3.197   1.981
 2626SOL    HW1 1740   2.946   3.186   1.983
 2626SOL    HW2 1741   3.079   3.212   2.074
 2627SOL     OW 1742   2.475   2.704   3.293
 2627SOL    HW1 1743   2.531   2.785   3.276
 2627SOL    HW2 1744   2.534   2.624   3.296
 2628SOL     OW 1745   3.355   3.629   2.821
 2628SOL    HW1 1746   3.388   3.693   2.752
 2628SOL    HW2 1747   3.421   3.623   2.896
 2629SOL     OW 1748   2.578   2.427   3.570
 2629SOL    HW1 1749   2.597   2.492   3.644
 2629SOL    HW2 1750   2.638   2.347   3.579
 2630SOL     OW 1751   3.312   3.082   3.495
 2630SOL    HW1 1752   3.303   3.072   3.594
 2630SOL    HW2 1753   3.408   3.075   3.469
 2631SOL     OW 1754   2.252   3.603   3.422
 2631SOL    HW1 1755   2.161   3.644   3.420
 2631SOL    HW2 1756   2.245   3.509   3.454
 2632SOL     OW 1757   3.536   2.745   3.116
 2632SOL    HW1 1758   3.509   2.656   3.079
 2632SOL    HW2 1759   3.537   2.813   3.043
 2633SOL     OW 1760   3.087   2.187   2.311
 2633SOL    HW1 1761   3.152   2.113   2.300
 2633SOL    HW2 1762   3.107   2.237   2.395
 2634SOL     OW 1763   3.639   2.204   3.504
 2634SOL    HW1 1764   3.622   2.235   3.410
 2634SOL    HW2 1765   3.555   2.167   3.542
 2635SOL     OW 1766   3.592   2.796   3.379
 2635SOL    HW1 1767   3.630   2.887   3.394
 2635SOL    HW2 1768   3.584   2.779   3.280
 2636SOL     OW 1769   2.721   3.236   1.878
 2636SOL    HW1 1770   2.675   3.251   1.966
 2636SOL    HW2 1771   2.765   3.321   1.848
 2637SOL     OW 1772   2.523   3.652   2.815
 2637SOL    HW1 1773   2.477   3.740   2.802
 2637SOL    HW2 1774   2.622   3.664   2.808
 2638SOL     OW 1775   2.945   2.846   1.949
 2638SOL    HW1 1776   2.922   2.899   1.867
 2638SOL    HW2 1777   3.026   2.790   1.930
 2639SOL     OW 1778   3.723   3.431   2.713
 2639SOL    HW1 1779   3.652   3.419   2.643
 2639SOL    HW2 1780   3.724   3.352   2.773
 2640SOL     OW 1781   2.083   3.176   3.706
 2640SOL    HW1 1782   2.018   3.103   3.685
 2640SOL    HW2 1783   2.087   3.190   3.804
 2641SOL     OW 1784   1.941   3.102   2.515
 2641SOL    HW1 1785   1.940   3.055   2.603
 2641SOL    HW2 1786   2.023   3.074   2.464
 2642SOL     OW 1787   2.534   3.253   3.486
 2642SOL    HW1 1788   2.456   3.203   3.524
 2642SOL    HW2 1789   2.531   3.348   3.517
 2643SOL     OW 1790   3.686   2.054   3.089
 2643SOL    HW1 1791   3.682   1.964   3.133
 2643SOL    HW2 1792   3.689   2.043   2.990
 2644SOL     OW 1793   2.290   2.286   2.382
 2644SOL    HW1 1794   2.320   2.214   2.320
 2644SOL    HW2 1795   2.251   2.246   2.465
 2645SOL     OW 1796   3.567   3.349   2.966
 2645SOL    HW1 1797   3.474   3.324   2.939
 2645SOL    HW2 1798   3.593   3.299   3.048
 2646SOL     OW 1799   2.179   2.409   3.142
 2646SOL    HW1 1800   2.217   2.350   3.214
 2646SOL    HW2 1801   2.219   2.383   3.054
 2647SOL     OW 1802   2.674   3.448   2.549
 2647SOL    HW1 1803   2.706   3.458   2.455
 2647SOL    HW2 1804   2.595   3.386   2.551
 2648SOL     OW 1805   3.286   2.076   2.974
 2648SOL    HW1 1806   3.338   2.011   3.029
 2648SOL    HW2 1807   3.237   2.139   3.035
 2649SOL     OW 1808   2.863   1.896   3.016
 2649SOL    HW1 1809   2.800   1.824   2.985
 2649SOL    HW2 1810   2.956   1.860   3.016
 2650SOL     OW 1811   2.632   3.192   2.163
 2650SOL    HW1 1812   2.586   3.105   2.180
 2650SOL    HW2 1813   2.723   3.189   2.204
 2651SOL     OW 1814   2.480   3.429   3.146
 2651SOL    HW1 1815   2.475   3.511   3.203
 2651SOL    HW2 1816   2.569   3.426   3.101
 2652SOL     OW 1817   3.214   1.914   2.030
 2652SOL    HW1 1818   3.249   1.873   1.946
 2652SOL    HW2 1819   3.124   1.876   2.050
 2653SOL     OW 1820   3.162   2.315   2.553
 2653SOL    HW1 1821   3.103   2.395   2.557
 2653SOL    HW2 1822   3.177   2.280   2.646
 2654SOL     OW 1823   3.455   2.083   2.744
 2654SOL    HW1 1824   3.371   2.082   2.798
 2654SOL    HW2 1825   3.457   2.166   2.688
 2655SOL     OW 1826   1.901   2.939   2.162
 2655SOL    HW1 1827   2.000   2.928   2.153
 2655SOL    HW2 1828   1.861   2.853   2.194
 2656SOL     OW 1829   2.737   3.508   2.199
 2656SOL    HW1 1830   2.660   3.473   2.145
 2656SOL    HW2 1831   2.705   3.579   2.261
 2657SOL     OW 1832   2.092   2.490   3.837
 2657SOL    HW1 1833   1.999   2.488   3.874
 2657SOL    HW2 1834   2.093   2.451   3.745
 2663SOL     OW 1835   3.617   2.469   3.955
 2663SOL    HW1 1836   3.605   2.456   3.856
 2663SOL    HW2 1837   3.587   2.388   4.004
 2673SOL     OW 1838   2.468   2.826   3.847
 2673SOL    HW1 1839   2.475   2.910   3.793
 2673SOL    HW2 1840   2.514   2.839   3.935
 2674SOL     OW 1841   1.984   2.505   4.287
 2674SOL    HW1 1842   1.939   2.417   4.304
 2674SOL    HW2 1843   1.983   2.559   4.371
 2676SOL     OW 1844   1.889   3.458   3.841
 2676SOL    HW1 1845   1.870   3.362   3.862
 2676SOL    HW2 1846   1.856   3.516   3.916
 2680SOL     OW 1847   2.671   1.866   4.226
 2680SOL    HW1 1848   2.711   1.957   4.217
 2680SOL    HW2 1849   2.571   1.874   4.232
 2682SOL     OW 1850   3.387   2.861   3.914
 2682SOL    HW1 1851   3.324   2.785   3.927
 2682SOL    HW2 1852   3.435   2.879   4.000
 2685SOL     OW 1853   2.460   2.591   3.994
 2685SOL    HW1 1854   2.484   2.660   3.926
 2685SOL    HW2 1855   2.382   2.624   4.048
 2690SOL     OW 1856   2.903   2.563   4.153
 2690SOL    HW1 1857   2.929   2.559   4.249
 2690SOL    HW2 1858   2.818   2.512   4.139
 2693SOL     OW 1859   2.727   2.210   3.919
 2693SOL    HW1 1860   2.786   2.273   3.870
 2693SOL    HW2 1861   2.746   2.116   3.890
 2696SOL     OW 1862   2.870   3.318   4.201
 2696SOL    HW1 1863   2.824   3.390   4.149
 2696SOL    HW2 1864   2.866   3.338   4.299
 2699SOL     OW 1865   2.183   2.805   3.966
 2699SOL    HW1 1866   2.265   2.844   3.924
 2699SOL    HW2 1867   2.156   2.723   3.917
 2701SOL     OW 1868   2.973   3.638   3.961
 2701SOL    HW1 1869   2.913   3.576   4.011
 2701SOL    HW2 1870   3.004   3.594   3.876
 2702SOL     OW 1871   3.494   3.239   3.805
 2702SOL    HW1 1872   3.462   3.333   3.795
 2702SOL    HW2 1873   3.418   3.176   3.793
 2703SOL     OW 1874   2.326   3.605   4.047
 2703SOL    HW1 1875   2.359   3.644   4.133
 2703SOL    HW2 1876   2.402   3.598   3.982
 2704SOL     OW 1877   3.262   1.969   4.150
 2704SOL    HW1 1878   3.238   1.932   4.060
 2704SOL    HW2 1879   3.361   1.985   4.154
 2707SOL     OW 1880   2.244   2.562   4.204
 2707SOL    HW1 1881   2.289   2.472   4.201
 2707SOL    HW2 1882   2.150   2.551   4.237
 2708SOL     OW 1883   2.476   1.984   3.841
 2708SOL    HW1 1884   2.574   1.962   3.848
 2708SOL    HW2 1885   2.445   1.967   3.748
 2712SOL     OW 1886   2.401   1.926   4.236
 2712SOL    HW1 1887   2.320   1.927   4.294
 2712SOL    HW2 1888   2.404   2.009   4.181
 2713SOL     OW 1889   3.296   3.050   3.765
 2713SOL    HW1 1890   3.328   2.974   3.822
 2713SOL    HW2 1891   3.204   3.077   3.795
 2714SOL     OW 1892   2.159   1.897   3.895
 2714SOL    HW1 1893   2.208   1.981   3.874
 2714SOL    HW2 1894   2.221   1.832   3.940
 2715SOL     OW 1895   2.797   2.098   4.204
 2715SOL    HW1 1896   2.749   2.139   4.126
 2715SOL    HW2 1897   2.896   2.096   4.185
 2719SOL     OW 1898   2.894   2.411   3.740
 2719SOL    HW1 1899   2.853   2.493   3.701
 2719SOL    HW2 1900   2.958   2.437   3.813
 2722SOL     OW 1901   2.728   2.316   4.366
 2722SOL    HW1 1902   2.696   2.388   4.304
 2722SOL    HW2 1903   2.752   2.235   4.313
 2727SOL     OW 1904   2.350   3.247   3.898
 2727SOL    HW1 1905   2.263   3.232   3.945
 2727SOL    HW2 1906   2.333   3.273   3.803
 2729SOL     OW 1907   3.252   2.437   3.802
 2729SOL    HW1 1908   3.198   2.416   3.883
 2729SOL    HW2 1909   3.343   2.396   3.811
 2730SOL     OW 1910   2.389   2.118   4.052
 2730SOL    HW1 1911   2.416   2.059   3.977
 2730SOL    HW2 1912   2.389   2.213   4.021
 2734SOL     OW 1913   2.567   2.912   4.092
 2734SOL    HW1 1914   2.553   2.919   4.191
 2734SOL    HW2 1915   2.651   2.861   4.074
 2738SOL     OW 1916   2.229   2.962   4.225
 2738SOL    HW1 1917   2.222   3.045   4.169
 2738SOL    HW2 1918   2.233   2.882   4.165
 2740SOL     OW 1919   3.114   3.210   4.112
 2740SOL    HW1 1920   3.164   3.287   4.152
 2740SOL    HW2 1921   3.019   3.212   4.144
 2747SOL     OW 1922   3.071   2.387   3.999
 2747SOL    HW1 1923   3.084   2.303   4.053
 2747SOL    HW2 1924   3.042   2.461   4.059
 2752SOL     OW 1925   3.484   2.229   4.098
 2752SOL    HW1 1926   3.486   2.153   4.162
 2752SOL    HW2 1927   3.436   2.306   4.138
 2755SOL     OW 1928   3.402   2.136   3.849
 2755SOL    HW1 1929   3.341   2.061   3.872
 2755SOL    HW2 1930   3.424   2.188   3.932
 2756SOL     OW 1931   3.165   2.700   3.766
 2756SOL    HW1 1932   3.199   2.607   3.781
 2756SOL    HW2 1933   3.183   2.727   3.671
 2761SOL     OW 1934   1.870   3.188   3.924
 2761SOL    HW1 1935   1.777   3.209   3.893
 2761SOL    HW2 1936   1.880   3.089   3.937
 2766SOL     OW 1937   2.677   2.434   4.049
 2766SOL    HW1 1938   2.684   2.345   4.003
 2766SOL    HW2 1939   2.583   2.468   4.041
 2770SOL     OW 1940   2.335   2.362   3.915
 2770SOL    HW1 1941   2.396   2.442   3.919
 2770SOL    HW2 1942   2.240   2.393   3.922
 2773SOL     OW 1943   3.164   2.717   4.033
 2773SOL    HW1 1944   3.078   2.686   4.075
 2773SOL    HW2 1945   3.160   2.703   3.934
 2780SOL     OW 1946   2.534   3.478   3.878
 2780SOL    HW1 1947   2.543   3.488   3.779
 2780SOL    HW2 1948   2.494   3.389   3.899
 2783SOL     OW 1949   3.056   3.474   3.755
 2783SOL    HW1 1950   3.062   3.381   3.792
 2783SOL    HW2 1951   2.997   3.474   3.675
 2785SOL     OW 1952   2.778   2.772   4.015
 2785SOL    HW1 1953   2.841   2.810   3.947
 2785SOL    HW2 1954   2.818   2.689   4.054
 2786SOL     OW 1955   3.366   3.469   3.768
 2786SOL    HW1 1956   3.274   3.506   3.775
 2786SOL    HW2 1957   3.404   3.489   3.678
 2791SOL     OW 1958   2.452   3.349   4.215
 2791SOL    HW1 1959   2.494   3.291   4.145
 2791SOL    HW2 1960   2.408   3.428   4.171
 2793SOL     OW 1961   2.117   3.210   4.014
 2793SOL    HW1 1962   2.021   3.211   3.987
 2793SOL    HW2 1963   2.129   3.263   4.098
 2795SOL     OW 1964   1.937   2.207   3.757
 2795SOL    HW1 1965   1.845   2.179   3.728
 2795SOL    HW2 1966   1.968   2.284   3.701
 2796SOL     OW 1967   1.934   2.028   4.042
 2796SOL    HW1 1968   1.917   2.111   3.988
 2796SOL    HW2 1969   2.024   1.991   4.020
 2797SOL     OW 1970   3.045   3.197   3.843
 2797SOL    HW1 1971   2.946   3.186   3.845
 2797SOL    HW2 1972   3.079   3.212   3.936
 2802SOL     OW 1973   3.087   2.187   4.173
 2802SOL    HW1 1974   3.152   2.113   4.162
 2802SOL    HW2 1975   3.107   2.237   4.257
 2803SOL     OW 1976   2.456   2.607   4.376
 2803SOL    HW1 1977   2.506   2.692   4.357
 2803SOL    HW2 1978   2.368   2.609   4.328
 2805SOL     OW 1979   2.721   3.236   3.740
 2805SOL    HW1 1980   2.675   3.251   3.828
 2805SOL    HW2 1981   2.765   3.321   3.710
 2808SOL     OW 1982   2.945   2.846   3.811
 2808SOL    HW1 1983   2.922   2.899   3.729
 2808SOL    HW2 1984   3.026   2.790   3.792
 2812SOL     OW 1985   2.290   2.286   4.244
 2812SOL    HW1 1986   2.320   2.214   4.182
 2812SOL    HW2 1987   2.251   2.246   4.327
 2818SOL     OW 1988   2.632   3.192   4.025
 2818SOL    HW1 1989   2.586   3.105   4.042
 2818SOL    HW2 1990   2.723   3.189   4.066
 2820SOL     OW 1991   3.214   1.914   3.892
 2820SOL    HW1 1992   3.249   1.873   3.808
 2820SOL    HW2 1993   3.124   1.876   3.912
 2823SOL     OW 1994   1.901   2.939   4.024
 2823SOL    HW1 1995   2.000   2.928   4.015
 2823SOL    HW2 1996   1.861   2.853   4.056
 2824SOL     OW 1997   2.737   3.508   4.061
 2824SOL    HW1 1998   2.660   3.473   4.007
 2824SOL    HW2 1999   2.705   3.579   4.123
 2854SOL     OW 2000   2.179   3.975   1.801
 2854SOL    HW1 2001   2.250   4.046   1.807
 2854SOL    HW2 2002   2.091   4.014   1.829
 2876SOL     OW 2003   3.409   3.946   1.729
 2876SOL    HW1 2004   3.404   3.983   1.821
 2876SOL    HW2 2005   3.337   3.877   1.717
 2877SOL     OW 2006   2.643   3.988   1.749
 2877SOL    HW1 2007   2.710   3.927   1.792
 2877SOL    HW2 2008   2.570   4.007   1.814
 2901SOL     OW 2009   2.777   3.813   1.402
 2901SOL    HW1 2010   2.802   3.793   1.307
 2901SOL    HW2 2011   2.849   3.869   1.444
 2914SOL     OW 2012   2.875   3.829   1.770
 2914SOL    HW1 2013   2.881   3.914   1.718
 2914SOL    HW2 2014   2.907   3.753   1.713
 2915SOL     OW 2015   2.366   3.774   1.740
 2915SOL    HW1 2016   2.324   3.717   1.670
 2915SOL    HW2 2017   2.300   3.843   1.772
 2933SOL     OW 2018   3.022   3.931   1.477
 2933SOL    HW1 2019   3.022   3.995   1.554
 2933SOL    HW2 2020   3.050   3.979   1.394
 2962SOL     OW 2021   2.534   3.927   1.489
 2962SOL    HW1 2022   2.624   3.911   1.449
 2962SOL    HW2 2023   2.542   3.932   1.588
 2993SOL     OW 2024   2.087   3.999   2.858
 2993SOL    HW1 2025   2.122   3.982   2.950
 2993SOL    HW2 2026   1.999   3.954   2.846
 2994SOL     OW 2027   1.881   4.092   2.509
 2994SOL    HW1 2028   1.799   4.135   2.548
 2994SOL    HW2 2029   1.853   4.019   2.446
 3004SOL     OW 2030   2.300   4.116   3.361
 3004SOL    HW1 2031   2.382   4.060   3.370
 3004SOL    HW2 2032   2.219   4.058   3.365
 3005SOL     OW 2033   3.465   4.171   2.599
 3005SOL    HW1 2034   3.391   4.217   2.549
 3005SOL    HW2 2035   3.516   4.239   2.652
 3010SOL     OW 2036   3.456   3.838   3.342
 3010SOL    HW1 2037   3.438   3.905   3.270
 3010SOL    HW2 2038   3.453   3.884   3.431
 3018SOL     OW 2039   2.671   3.728   2.364
 3018SOL    HW1 2040   2.711   3.819   2.355
 3018SOL    HW2 2041   2.571   3.736   2.370
 3021SOL     OW 2042   2.179   3.975   3.663
 3021SOL    HW1 2043   2.250   4.046   3.669
 3021SOL    HW2 2044   2.091   4.014   3.691
 3024SOL     OW 2045   3.143   4.069   2.806
 3024SOL    HW1 2046   3.057   4.019   2.793
 3024SOL    HW2 2047   3.205   4.015   2.862
 3028SOL     OW 2048   2.853   4.134   3.104
 3028SOL    HW1 2049   2.776   4.168   3.158
 3028SOL    HW2 2050   2.819   4.083   3.025
 3031SOL     OW 2051   2.727   4.072   2.057
 3031SOL    HW1 2052   2.786   4.135   2.008
 3031SOL    HW2 2053   2.746   3.978   2.028
 3034SOL     OW 2054   2.412   3.920   2.747
 3034SOL    HW1 2055   2.407   3.915   2.847
 3034SOL    HW2 2056   2.414   4.016   2.718
 3040SOL     OW 2057   2.064   4.009   3.360
 3040SOL    HW1 2058   1.984   4.069   3.347
 3040SOL    HW2 2059   2.054   3.960   3.446
 3042SOL     OW 2060   3.262   3.831   2.288
 3042SOL    HW1 2061   3.238   3.794   2.198
 3042SOL    HW2 2062   3.361   3.847   2.292
 3045SOL     OW 2063   2.476   3.846   1.979
 3045SOL    HW1 2064   2.574   3.824   1.986
 3045SOL    HW2 2065   2.445   3.829   1.886
 3046SOL     OW 2066   2.643   3.988   3.611
 3046SOL    HW1 2067   2.710   3.927   3.654
 3046SOL    HW2 2068   2.570   4.007   3.676
 3048SOL     OW 2069   2.784   4.227   2.761
 3048SOL    HW1 2070   2.759   4.218   2.665
 3048SOL    HW2 2071   2.832   4.145   2.792
 3049SOL     OW 2072   2.401   3.788   2.374
 3049SOL    HW1 2073   2.320   3.789   2.432
 3049SOL    HW2 2074   2.404   3.871   2.319
 3051SOL     OW 2075   2.159   3.759   2.033
 3051SOL    HW1 2076   2.208   3.843   2.012
 3051SOL    HW2 2077   2.221   3.694   2.078
 3052SOL     OW 2078   2.797   3.960   2.342
 3052SOL    HW1 2079   2.749   4.001   2.264
 3052SOL    HW2 2080   2.896   3.958   2.323
 3058SOL     OW 2081   2.423   3.946   3.009
 3058SOL    HW1 2082   2.461   3.862   3.046
 3058SOL    HW2 2083   2.335   3.965   3.053
 3059SOL     OW 2084   2.728   4.178   2.504
 3059SOL    HW1 2085   2.696   4.250   2.442
 3059SOL    HW2 2086   2.752   4.097   2.451
 3060SOL     OW 2087   2.879   3.763   2.615
 3060SOL    HW1 2088   2.807   3.768   2.546
 3060SOL    HW2 2089   2.855   3.694   2.684
 3066SOL     OW 2090   2.389   3.980   2.190
 3066SOL    HW1 2091   2.416   3.921   2.115
 3066SOL    HW2 2092   2.389   4.075   2.159
 3071SOL     OW 2093   2.777   3.813   3.264
 3071SOL    HW1 2094   2.802   3.793   3.169
 3071SOL    HW2 2095   2.849   3.869   3.306
 3075SOL     OW 2096   3.136   4.110   3.124
 3075SOL    HW1 2097   3.157   4.184   3.188
 3075SOL    HW2 2098   3.047   4.127   3.081
 3077SOL     OW 2099   2.428   4.261   2.727
 3077SOL    HW1 2100   2.440   4.327   2.653
 3077SOL    HW2 2101   2.474   4.295   2.810
 3084SOL     OW 2102   2.875   3.829   3.632
 3084SOL    HW1 2103   2.881   3.914   3.580
 3084SOL    HW2 2104   2.907   3.753   3.575
 3085SOL     OW 2105   2.366   3.774   3.602
 3085SOL    HW1 2106   2.324   3.717   3.532
 3085SOL    HW2 2107   2.300   3.843   3.634
 3088SOL     OW 2108   3.071   4.249   2.137
 3088SOL    HW1 2109   3.084   4.165   2.191
 3088SOL    HW2 2110   3.042   4.323   2.197
 3089SOL     OW 2111   2.169   3.937   3.093
 3089SOL    HW1 2112   2.146   3.974   3.183
 3089SOL    HW2 2113   2.139   3.842   3.087
 3091SOL     OW 2114   2.594   4.358   2.926
 3091SOL    HW1 2115   2.653   4.332   2.850
 3091SOL    HW2 2116   2.566   4.454   2.915
 3093SOL     OW 2117   2.169   3.787   2.480
 3093SOL    HW1 2118   2.158   3.881   2.513
 3093SOL    HW2 2119   2.164   3.724   2.557
 3094SOL     OW 2120   3.484   4.091   2.236
 3094SOL    HW1 2121   3.486   4.015   2.300
 3094SOL    HW2 2122   3.436   4.168   2.276
 3098SOL     OW 2123   3.402   3.998   1.987
 3098SOL    HW1 2124   3.341   3.923   2.010
 3098SOL    HW2 2125   3.424   4.050   2.070
 3101SOL     OW 2126   2.201   4.233   2.868
 3101SOL    HW1 2127   2.149   4.150   2.851
 3101SOL    HW2 2128   2.278   4.238   2.804
 3103SOL     OW 2129   3.022   3.931   3.339
 3103SOL    HW1 2130   3.022   3.995   3.416
 3103SOL    HW2 2131   3.050   3.979   3.256
 3109SOL     OW 2132   2.677   4.296   2.187
 3109SOL    HW1 2133   2.684   4.207   2.141
 3109SOL    HW2 2134   2.583   4.330   2.179
 3111SOL     OW 2135   2.533   4.188   3.131
 3111SOL    HW1 2136   2.499   4.099   3.101
 3111SOL    HW2 2137   2.559   4.242   3.051
 3112SOL     OW 2138   2.335   4.224   2.053
 3112SOL    HW1 2139   2.396   4.304   2.057
 3112SOL    HW2 2140   2.240   4.255   2.060
 3117SOL     OW 2141   3.588   3.859   2.385
 3117SOL    HW1 2142   3.661   3.842   2.318
 3117SOL    HW2 2143   3.557   3.772   2.423
 3120SOL     OW 2144   3.703   3.899   2.825
 3120SOL    HW1 2145   3.742   3.814   2.789
 3120SOL    HW2 2146   3.605   3.901   2.806
 3121SOL     OW 2147   2.125   4.050   2.582
 3121SOL    HW1 2148   2.046   4.101   2.548
 3121SOL    HW2 2149   2.116   4.035   2.680
 3127SOL     OW 2150   2.876   3.960   2.833
 3127SOL    HW1 2151   2.868   3.924   2.740
 3127SOL    HW2 2152   2.874   3.884   2.898
 3131SOL     OW 2153   2.534   3.927   3.351
 3131SOL    HW1 2154   2.624   3.911   3.311
 3131SOL    HW2 2155   2.542   3.932   3.450
 3132SOL     OW 2156   1.937   4.069   1.895
 3132SOL    HW1 2157   1.845   4.041   1.866
 3132SOL    HW2 2158   1.968   4.146   1.839
 3134SOL     OW 2159   1.934   3.890   2.180
 3134SOL    HW1 2160   1.917   3.973   2.126
 3134SOL    HW2 2161   2.024   3.853   2.158
 3140SOL     OW 2162   3.087   4.049   2.311
 3140SOL    HW1 2163   3.152   3.975   2.300
 3140SOL    HW2 2164   3.107   4.099   2.395
 3150SOL     OW 2165   3.686   3.916   3.089
 3150SOL    HW1 2166   3.682   3.826   3.133
 3150SOL    HW2 2167   3.689   3.905   2.990
 3151SOL     OW 2168   2.290   4.148   2.382
 3151SOL    HW1 2169   2.320   4.076   2.320
 3151SOL    HW2 2170   2.251   4.108   2.465
 3154SOL     OW 2171   3.286   3.938   2.974
 3154SOL    HW1 2172   3.338   3.873   3.029
 3154SOL    HW2 2173   3.237   4.001   3.035
 3155SOL     OW 2174   2.863   3.758   3.016
 3155SOL    HW1 2175   2.800   3.686   2.985
 3155SOL    HW2 2176   2.956   3.722   3.016
 3157SOL     OW 2177   3.214   3.776   2.030
 3157SOL    HW1 2178   3.249   3.735   1.946
 3157SOL    HW2 2179   3.124   3.738   2.050
 3158SOL     OW 2180   3.162   4.177   2.553
 3158SOL    HW1 2181   3.103   4.257   2.557
 3158SOL    HW2 2182   3.177   4.142   2.646
 3159SOL     OW 2183   3.455   3.945   2.744
 3159SOL    HW1 2184   3.371   3.944   2.798
 3159SOL    HW2 2185   3.457   4.028   2.688
 3203SOL     OW 2186   2.476   3.846   3.841
 3203SOL    HW1 2187   2.574   3.824   3.848
 3203SOL    HW2 2188   2.445   3.829   3.748
 3207SOL     OW 2189   2.159   3.759   3.895
 3207SOL    HW1 2190   2.208   3.843   3.874
 3207SOL    HW2 2191   2.221   3.694   3.940
 3422SOL     OW 2192   3.854   1.794   1.851
 3422SOL    HW1 2193   3.813   1.720   1.904
 3422SOL    HW2 2194   3.918   1.845   1.909
 3475SOL     OW 2195   3.955   1.713   2.345
 3475SOL    HW1 2196   3.989   1.790   2.399
 3475SOL    HW2 2197   3.999   1.713   2.255
 3477SOL     OW 2198   3.954   1.434   2.400
 3477SOL    HW1 2199   3.928   1.530   2.400
 3477SOL    HW2 2200   3.883   1.380   2.445
 3482SOL     OW 2201   3.751   1.596   1.979
 3482SOL    HW1 2202   3.732   1.500   2.000
 3482SOL    HW2 2203   3.718   1.654   2.054
 3500SOL     OW 2204   3.854   1.821   3.433
 3500SOL    HW1 2205   3.844   1.806   3.532
 3500SOL    HW2 2206   3.768   1.857   3.397
 3505SOL     OW 2207   4.075   1.801   2.715
 3505SOL    HW1 2208   4.125   1.715   2.721
 3505SOL    HW2 2209   4.140   1.878   2.712
 3512SOL     OW 2210   3.973   1.785   3.103
 3512SOL    HW1 2211   4.030   1.720   3.153
 3512SOL    HW2 2212   3.957   1.752   3.010
 3544SOL     OW 2213   3.788   1.564   3.193
 3544SOL    HW1 2214   3.742   1.646   3.159
 3544SOL    HW2 2215   3.886   1.583   3.202
 3569SOL     OW 2216   3.732   1.326   2.062
 3569SOL    HW1 2217   3.639   1.347   2.031
 3569SOL    HW2 2218   3.742   1.227   2.075
 3570SOL     OW 2219   3.812   1.801   2.789
 3570SOL    HW1 2220   3.770   1.715   2.762
 3570SOL    HW2 2221   3.906   1.804   2.755
 3782SOL     OW 2222   3.837   2.599   1.597
 3782SOL    HW1 2223   3.925   2.586   1.642
 3782SOL    HW2 2224   3.824   2.696   1.575
 3788SOL     OW 2225   4.041   2.113   1.801
 3788SOL    HW1 2226   4.112   2.184   1.807
 3788SOL    HW2 2227   3.953   2.152   1.829
 3808SOL     OW 2228   3.926   2.147   1.498
 3808SOL    HW1 2229   3.846   2.207   1.485
 3808SOL    HW2 2230   3.916   2.098   1.584
 3826SOL     OW 2231   3.802   2.418   1.386
 3826SOL    HW1 2232   3.894   2.417   1.345
 3826SOL    HW2 2233   3.796   2.492   1.453
 3859SOL     OW 2234   4.074   2.760   1.804
 3859SOL    HW1 2235   4.150   2.804   1.852
 3859SOL    HW2 2236   4.109   2.713   1.722
 3871SOL     OW 2237   3.913   2.382   1.722
 3871SOL    HW1 2238   3.972   2.342   1.652
 3871SOL    HW2 2239   3.855   2.453   1.681
 3878SOL     OW 2240   3.883   2.999   1.466
 3878SOL    HW1 2241   3.905   2.938   1.542
 3878SOL    HW2 2242   3.893   2.950   1.380
 3886SOL     OW 2243   3.854   3.656   1.851
 3886SOL    HW1 2244   3.813   3.582   1.904
 3886SOL    HW2 2245   3.918   3.707   1.909
 3899SOL     OW 2246   3.829   2.875   1.726
 3899SOL    HW1 2247   3.752   2.842   1.780
 3899SOL    HW2 2248   3.914   2.845   1.768
 3915SOL     OW 2249   3.945   3.176   1.844
 3915SOL    HW1 2250   3.880   3.103   1.823
 3915SOL    HW2 2251   3.949   3.190   1.942
 3928SOL     OW 2252   3.954   2.490   1.975
 3928SOL    HW1 2253   3.861   2.488   2.012
 3928SOL    HW2 2254   3.955   2.451   1.883
 3929SOL     OW 2255   3.949   2.137   2.858
 3929SOL    HW1 2256   3.984   2.120   2.950
 3929SOL    HW2 2257   3.861   2.092   2.846
 3930SOL     OW 2258   3.743   2.230   2.509
 3930SOL    HW1 2259   3.661   2.273   2.548
 3930SOL    HW2 2260   3.715   2.157   2.446
 3938SOL     OW 2261   4.059   3.297   2.923
 3938SOL    HW1 2262   3.981   3.266   2.870
 3938SOL    HW2 2263   4.117   3.355   2.866
 3939SOL     OW 2264   4.162   2.254   3.361
 3939SOL    HW1 2265   4.244   2.198   3.370
 3939SOL    HW2 2266   4.081   2.196   3.365
 3940SOL     OW 2267   3.955   3.575   2.345
 3940SOL    HW1 2268   3.989   3.652   2.399
 3940SOL    HW2 2269   3.999   3.575   2.255
 3942SOL     OW 2270   3.954   3.296   2.400
 3942SOL    HW1 2271   3.928   3.392   2.400
 3942SOL    HW2 2272   3.883   3.242   2.445
 3943SOL     OW 2273   3.964   2.953   2.748
 3943SOL    HW1 2274   3.978   2.869   2.800
 3943SOL    HW2 2275   3.909   3.017   2.803
 3946SOL     OW 2276   3.846   2.505   2.425
 3946SOL    HW1 2277   3.801   2.417   2.442
 3946SOL    HW2 2278   3.845   2.559   2.509
 3947SOL     OW 2279   3.751   3.458   1.979
 3947SOL    HW1 2280   3.732   3.362   2.000
 3947SOL    HW2 2281   3.718   3.516   2.054
 3949SOL     OW 2282   3.837   2.599   3.459
 3949SOL    HW1 2283   3.925   2.586   3.504
 3949SOL    HW2 2284   3.824   2.696   3.437
 3953SOL     OW 2285   3.921   2.838   3.126
 3953SOL    HW1 2286   4.010   2.793   3.112
 3953SOL    HW2 2287   3.848   2.773   3.107
 3957SOL     OW 2288   4.322   2.591   2.132
 3957SOL    HW1 2289   4.346   2.660   2.064
 3957SOL    HW2 2290   4.244   2.624   2.186
 3964SOL     OW 2291   3.800   2.673   2.651
 3964SOL    HW1 2292   3.899   2.661   2.660
 3964SOL    HW2 2293   3.776   2.768   2.672
 3968SOL     OW 2294   4.274   2.058   2.747
 3968SOL    HW1 2295   4.269   2.053   2.847
 3968SOL    HW2 2296   4.276   2.154   2.718
 3972SOL     OW 2297   4.045   2.805   2.104
 3972SOL    HW1 2298   4.127   2.844   2.062
 3972SOL    HW2 2299   4.018   2.723   2.055
 3975SOL     OW 2300   3.926   2.147   3.360
 3975SOL    HW1 2301   3.846   2.207   3.347
 3975SOL    HW2 2302   3.916   2.098   3.446
 3977SOL     OW 2303   3.973   3.647   3.103
 3977SOL    HW1 2304   4.030   3.582   3.153
 3977SOL    HW2 2305   3.957   3.614   3.010
 3979SOL     OW 2306   4.106   2.562   2.342
 3979SOL    HW1 2307   4.151   2.472   2.339
 3979SOL    HW2 2308   4.012   2.551   2.375
 3988SOL     OW 2309   4.021   1.897   2.033
 3988SOL    HW1 2310   4.070   1.981   2.012
 3988SOL    HW2 2311   4.083   1.832   2.078
 3992SOL     OW 2312   4.183   3.014   2.603
 3992SOL    HW1 2313   4.112   2.987   2.668
 3992SOL    HW2 2314   4.157   2.986   2.510
 3995SOL     OW 2315   3.802   2.418   3.248
 3995SOL    HW1 2316   3.894   2.417   3.207
 3995SOL    HW2 2317   3.796   2.492   3.315
 4001SOL     OW 2318   4.251   2.118   2.190
 4001SOL    HW1 2319   4.278   2.059   2.115
 4001SOL    HW2 2320   4.251   2.213   2.159
 4007SOL     OW 2321   4.134   2.675   3.113
 4007SOL    HW1 2322   4.220   2.687   3.163
 4007SOL    HW2 2323   4.092   2.588   3.140
 4009SOL     OW 2324   3.788   3.426   3.193
 4009SOL    HW1 2325   3.742   3.508   3.159
 4009SOL    HW2 2326   3.886   3.445   3.202
 4010SOL     OW 2327   4.091   2.962   2.363
 4010SOL    HW1 2328   4.084   3.045   2.307
 4010SOL    HW2 2329   4.095   2.882   2.303
 4011SOL     OW 2330   4.290   2.399   2.727
 4011SOL    HW1 2331   4.302   2.465   2.653
 4011SOL    HW2 2332   4.336   2.433   2.810
 4014SOL     OW 2333   4.078   3.372   3.191
 4014SOL    HW1 2334   4.057   3.328   3.104
 4014SOL    HW2 2335   4.175   3.398   3.194
 4015SOL     OW 2336   4.126   2.613   3.460
 4015SOL    HW1 2337   4.194   2.668   3.413
 4015SOL    HW2 2338   4.166   2.525   3.487
 4018SOL     OW 2339   4.297   2.732   2.891
 4018SOL    HW1 2340   4.341   2.821   2.882
 4018SOL    HW2 2341   4.234   2.732   2.968
 4021SOL     OW 2342   4.031   2.075   3.093
 4021SOL    HW1 2343   4.008   2.112   3.183
 4021SOL    HW2 2344   4.001   1.980   3.087
 4022SOL     OW 2345   3.761   3.172   3.144
 4022SOL    HW1 2346   3.814   3.123   3.212
 4022SOL    HW2 2347   3.783   3.270   3.149
 4024SOL     OW 2348   4.031   1.925   2.480
 4024SOL    HW1 2349   4.020   2.019   2.513
 4024SOL    HW2 2350   4.026   1.862   2.557
 4031SOL     OW 2351   4.043   2.672   2.811
 4031SOL    HW1 2352   4.136   2.708   2.816
 4031SOL    HW2 2353   4.037   2.587   2.863
 4032SOL     OW 2354   4.063   2.371   2.868
 4032SOL    HW1 2355   4.011   2.288   2.851
 4032SOL    HW2 2356   4.140   2.376   2.804
 4035SOL     OW 2357   3.732   3.188   2.062
 4035SOL    HW1 2358   3.639   3.209   2.031
 4035SOL    HW2 2359   3.742   3.089   2.075
 4036SOL     OW 2360   3.812   3.663   2.789
 4036SOL    HW1 2361   3.770   3.577   2.762
 4036SOL    HW2 2362   3.906   3.666   2.755
 4039SOL     OW 2363   3.764   2.406   2.976
 4039SOL    HW1 2364   3.849   2.373   2.935
 4039SOL    HW2 2365   3.777   2.421   3.074
 4040SOL     OW 2366   3.913   2.382   3.584
 4040SOL    HW1 2367   3.972   2.342   3.514
 4040SOL    HW2 2368   3.855   2.453   3.543
 4046SOL     OW 2369   4.197   2.362   2.053
 4046SOL    HW1 2370   4.258   2.442   2.057
 4046SOL    HW2 2371   4.102   2.393   2.060
 4047SOL     OW 2372   3.883   2.999   3.328
 4047SOL    HW1 2373   3.905   2.938   3.404
 4047SOL    HW2 2374   3.893   2.950   3.242
 4051SOL     OW 2375   3.807   3.120   2.884
 4051SOL    HW1 2376   3.802   3.119   2.984
 4051SOL    HW2 2377   3.724   3.079   2.846
 4058SOL     OW 2378   3.987   2.188   2.582
 4058SOL    HW1 2379   3.908   2.239   2.548
 4058SOL    HW2 2380   3.978   2.173   2.680
 4062SOL     OW 2381   4.096   3.150   3.352
 4062SOL    HW1 2382   4.083   3.243   3.318
 4062SOL    HW2 2383   4.012   3.098   3.339
 4066SOL     OW 2384   3.979   3.210   2.152
 4066SOL    HW1 2385   3.883   3.211   2.125
 4066SOL    HW2 2386   3.991   3.263   2.236
 4067SOL     OW 2387   3.829   2.875   3.588
 4067SOL    HW1 2388   3.752   2.842   3.642
 4067SOL    HW2 2389   3.914   2.845   3.630
 4069SOL     OW 2390   3.799   2.207   1.895
 4069SOL    HW1 2391   3.707   2.179   1.866
 4069SOL    HW2 2392   3.830   2.284   1.839
 4071SOL     OW 2393   3.796   2.028   2.180
 4071SOL    HW1 2394   3.779   2.111   2.126
 4071SOL    HW2 2395   3.886   1.991   2.158
 4078SOL     OW 2396   4.318   2.607   2.514
 4078SOL    HW1 2397   4.368   2.692   2.495
 4078SOL    HW2 2398   4.230   2.609   2.466
 4084SOL     OW 2399   3.803   3.102   2.515
 4084SOL    HW1 2400   3.802   3.055   2.603
 4084SOL    HW2 2401   3.885   3.074   2.464
 4086SOL     OW 2402   4.152   2.286   2.382
 4086SOL    HW1 2403   4.182   2.214   2.320
 4086SOL    HW2 2404   4.113   2.246   2.465
 4087SOL     OW 2405   4.041   2.409   3.142
 4087SOL    HW1 2406   4.079   2.350   3.214
 4087SOL    HW2 2407   4.081   2.383   3.054
 4094SOL     OW 2408   3.763   2.939   2.162
 4094SOL    HW1 2409   3.862   2.928   2.153
 4094SOL    HW2 2410   3.723   2.853   2.194
 4210SOL     OW 2411   3.799   2.207   3.757
 4210SOL    HW1 2412   3.707   2.179   3.728
 4210SOL    HW2 2413   3.830   2.284   3.701
   5.21181   5.21181   5.21181
