; mobley_2005792_GMX.top created by acpype (v: 2023.10.27) on Wed May 20 23:57:53 2026

[ defaults ]
; nbfunc        comb-rule       gen-pairs       fudgeLJ fudgeQQ
1               2               yes             0.5     0.8333333333

; Include mobley_2005792_GMX.itp topology
#include "mobley_2005792_GMX.itp"

; Ligand position restraints
#ifdef POSRES_LIG
#include "posre_mobley_2005792.itp"
#endif


#include "/home/carla/github/Solvation-openMM/DADES/common/SOL.TIP3P.itp"

[ system ]
mobley_2005792 in water

[ molecules ]
; Compound        nmols
 mobley_2005792   1     
SOL 801
