; mobley_4934872_GMX.itp created by acpype (v: 2023.10.27) on Thu May 21 00:18:57 2026

[ atomtypes ]
;name   bond_type     mass     charge   ptype   sigma         epsilon       Amb
 ca       ca          0.00000  0.00000   A     3.31521e-01   4.13379e-01 ; 1.86  0.0988
 c3       c3          0.00000  0.00000   A     3.39771e-01   4.51035e-01 ; 1.91  0.1078
 os       os          0.00000  0.00000   A     3.15610e-01   3.03758e-01 ; 1.77  0.0726
 ha       ha          0.00000  0.00000   A     2.62548e-01   6.73624e-02 ; 1.47  0.0161
 hc       hc          0.00000  0.00000   A     2.60018e-01   8.70272e-02 ; 1.46  0.0208
 h1       h1          0.00000  0.00000   A     2.42200e-01   8.70272e-02 ; 1.36  0.0208
 h3       h3          0.00000  0.00000   A     2.06564e-01   8.70272e-02 ; 1.16  0.0208

[ moleculetype ]
;name            nrexcl
 mobley_4934872   3

[ atoms ]
;   nr  type  resi  res  atom  cgnr     charge      mass       ; qtot   bond_type
     1   ca     1   MOL    C1    1    -0.156000     12.01000 ; qtot -0.156
     2   ca     1   MOL    C2    2    -0.105500     12.01000 ; qtot -0.262
     3   ca     1   MOL    C3    3    -0.105500     12.01000 ; qtot -0.367
     4   ca     1   MOL    C4    4    -0.170000     12.01000 ; qtot -0.537
     5   ca     1   MOL    C5    5    -0.170000     12.01000 ; qtot -0.707
     6   ca     1   MOL    C6    6     0.121100     12.01000 ; qtot -0.586
     7   c3     1   MOL    C7    7    -0.099100     12.01000 ; qtot -0.685
     8   c3     1   MOL    C8    8    -0.099100     12.01000 ; qtot -0.784
     9   c3     1   MOL    C9    9     0.141400     12.01000 ; qtot -0.643
    10   c3     1   MOL   C10   10     0.141400     12.01000 ; qtot -0.501
    11   c3     1   MOL   C11   11     0.521698     12.01000 ; qtot 0.020
    12   os     1   MOL    O1   12    -0.385900     16.00000 ; qtot -0.366
    13   os     1   MOL    O2   13    -0.437600     16.00000 ; qtot -0.803
    14   os     1   MOL    O3   14    -0.437600     16.00000 ; qtot -1.241
    15   ha     1   MOL    H1   15     0.133000      1.00800 ; qtot -1.108
    16   ha     1   MOL    H2   16     0.133000      1.00800 ; qtot -0.975
    17   ha     1   MOL    H3   17     0.133000      1.00800 ; qtot -0.842
    18   ha     1   MOL    H4   18     0.150500      1.00800 ; qtot -0.691
    19   ha     1   MOL    H5   19     0.150500      1.00800 ; qtot -0.541
    20   hc     1   MOL    H6   20     0.045867      1.00800 ; qtot -0.495
    21   hc     1   MOL    H7   21     0.045867      1.00800 ; qtot -0.449
    22   hc     1   MOL    H8   22     0.045867      1.00800 ; qtot -0.403
    23   hc     1   MOL    H9   23     0.045867      1.00800 ; qtot -0.357
    24   hc     1   MOL   H10   24     0.045867      1.00800 ; qtot -0.311
    25   hc     1   MOL   H11   25     0.045867      1.00800 ; qtot -0.265
    26   h1     1   MOL   H12   26     0.042200      1.00800 ; qtot -0.223
    27   h1     1   MOL   H13   27     0.042200      1.00800 ; qtot -0.181
    28   h1     1   MOL   H14   28     0.042200      1.00800 ; qtot -0.139
    29   h1     1   MOL   H15   29     0.042200      1.00800 ; qtot -0.097
    30   h3     1   MOL   H16   30     0.096700      1.00800 ; qtot 0.000

[ bonds ]
;   ai     aj funct   r             k
     1      2   1    1.3986e-01    2.9644e+05 ;     C1 - C2    
     1      3   1    1.3986e-01    2.9644e+05 ;     C1 - C3    
     1     15   1    1.0860e-01    3.0183e+05 ;     C1 - H1    
     2      4   1    1.3986e-01    2.9644e+05 ;     C2 - C4    
     2     16   1    1.0860e-01    3.0183e+05 ;     C2 - H2    
     3      5   1    1.3986e-01    2.9644e+05 ;     C3 - C5    
     3     17   1    1.0860e-01    3.0183e+05 ;     C3 - H3    
     4      6   1    1.3986e-01    2.9644e+05 ;     C4 - C6    
     4     18   1    1.0860e-01    3.0183e+05 ;     C4 - H4    
     5      6   1    1.3986e-01    2.9644e+05 ;     C5 - C6    
     5     19   1    1.0860e-01    3.0183e+05 ;     C5 - H5    
     6     12   1    1.3688e-01    2.8731e+05 ;     C6 - O1    
     7      9   1    1.5354e-01    1.9154e+05 ;     C7 - C9    
     7     20   1    1.0962e-01    2.8891e+05 ;     C7 - H6    
     7     21   1    1.0962e-01    2.8891e+05 ;     C7 - H7    
     7     22   1    1.0962e-01    2.8891e+05 ;     C7 - H8    
     8     10   1    1.5354e-01    1.9154e+05 ;     C8 - C10   
     8     23   1    1.0962e-01    2.8891e+05 ;     C8 - H9    
     8     24   1    1.0962e-01    2.8891e+05 ;     C8 - H10   
     8     25   1    1.0962e-01    2.8891e+05 ;     C8 - H11   
     9     13   1    1.4273e-01    2.3620e+05 ;     C9 - O2    
     9     26   1    1.0969e-01    2.8804e+05 ;     C9 - H12   
     9     27   1    1.0969e-01    2.8804e+05 ;     C9 - H13   
    10     14   1    1.4273e-01    2.3620e+05 ;    C10 - O3    
    10     28   1    1.0969e-01    2.8804e+05 ;    C10 - H14   
    10     29   1    1.0969e-01    2.8804e+05 ;    C10 - H15   
    11     12   1    1.4273e-01    2.3620e+05 ;    C11 - O1    
    11     13   1    1.4273e-01    2.3620e+05 ;    C11 - O2    
    11     14   1    1.4273e-01    2.3620e+05 ;    C11 - O3    
    11     30   1    1.0938e-01    2.9188e+05 ;    C11 - H16   

[ pairs ]
;   ai     aj    funct
     1      6      1 ;     C1 - C6    
     1     18      1 ;     C1 - H4    
     1     19      1 ;     C1 - H5    
     2      5      1 ;     C2 - C5    
     2     12      1 ;     C2 - O1    
     2     17      1 ;     C2 - H3    
     3      4      1 ;     C3 - C4    
     3     12      1 ;     C3 - O1    
     3     16      1 ;     C3 - H2    
     4     11      1 ;     C4 - C11   
     4     19      1 ;     C4 - H5    
     5     11      1 ;     C5 - C11   
     5     18      1 ;     C5 - H4    
     6     13      1 ;     C6 - O2    
     6     14      1 ;     C6 - O3    
     6     16      1 ;     C6 - H2    
     6     17      1 ;     C6 - H3    
     6     30      1 ;     C6 - H16   
     7     11      1 ;     C7 - C11   
     8     11      1 ;     C8 - C11   
     9     12      1 ;     C9 - O1    
     9     14      1 ;     C9 - O3    
     9     30      1 ;     C9 - H16   
    10     12      1 ;    C10 - O1    
    10     13      1 ;    C10 - O2    
    10     30      1 ;    C10 - H16   
    11     26      1 ;    C11 - H12   
    11     27      1 ;    C11 - H13   
    11     28      1 ;    C11 - H14   
    11     29      1 ;    C11 - H15   
    12     18      1 ;     O1 - H4    
    12     19      1 ;     O1 - H5    
    13     20      1 ;     O2 - H6    
    13     21      1 ;     O2 - H7    
    13     22      1 ;     O2 - H8    
    14     23      1 ;     O3 - H9    
    14     24      1 ;     O3 - H10   
    14     25      1 ;     O3 - H11   
    15      4      1 ;     H1 - C4    
    15      5      1 ;     H1 - C5    
    15     16      1 ;     H1 - H2    
    15     17      1 ;     H1 - H3    
    16     18      1 ;     H2 - H4    
    17     19      1 ;     H3 - H5    
    20     26      1 ;     H6 - H12   
    20     27      1 ;     H6 - H13   
    21     26      1 ;     H7 - H12   
    21     27      1 ;     H7 - H13   
    22     26      1 ;     H8 - H12   
    22     27      1 ;     H8 - H13   
    23     28      1 ;     H9 - H14   
    23     29      1 ;     H9 - H15   
    24     28      1 ;    H10 - H14   
    24     29      1 ;    H10 - H15   
    25     28      1 ;    H11 - H14   
    25     29      1 ;    H11 - H15   

[ angles ]
;   ai     aj     ak    funct   theta         cth
     1      2      4      1    1.2002e+02    5.3279e+02 ;     C1 - C2     - C4    
     1      2     16      1    1.1988e+02    3.7572e+02 ;     C1 - C2     - H2    
     1      3      5      1    1.2002e+02    5.3279e+02 ;     C1 - C3     - C5    
     1      3     17      1    1.1988e+02    3.7572e+02 ;     C1 - C3     - H3    
     2      1      3      1    1.2002e+02    5.3279e+02 ;     C2 - C1     - C3    
     2      1     15      1    1.1988e+02    3.7572e+02 ;     C2 - C1     - H1    
     2      4      6      1    1.2002e+02    5.3279e+02 ;     C2 - C4     - C6    
     2      4     18      1    1.1988e+02    3.7572e+02 ;     C2 - C4     - H4    
     3      1     15      1    1.1988e+02    3.7572e+02 ;     C3 - C1     - H1    
     3      5      6      1    1.2002e+02    5.3279e+02 ;     C3 - C5     - C6    
     3      5     19      1    1.1988e+02    3.7572e+02 ;     C3 - C5     - H5    
     4      2     16      1    1.1988e+02    3.7572e+02 ;     C4 - C2     - H2    
     4      6      5      1    1.2002e+02    5.3279e+02 ;     C4 - C6     - C5    
     4      6     12      1    1.1911e+02    6.6107e+02 ;     C4 - C6     - O1    
     5      3     17      1    1.1988e+02    3.7572e+02 ;     C5 - C3     - H3    
     5      6     12      1    1.1911e+02    6.6107e+02 ;     C5 - C6     - O1    
     6      4     18      1    1.1988e+02    3.7572e+02 ;     C6 - C4     - H4    
     6      5     19      1    1.1988e+02    3.7572e+02 ;     C6 - C5     - H5    
     6     12     11      1    1.1839e+02    7.3856e+02 ;     C6 - O1     - C11   
     7      9     13      1    1.0762e+02    6.4802e+02 ;     C7 - C9     - O2    
     7      9     26      1    1.0959e+02    3.6217e+02 ;     C7 - C9     - H12   
     7      9     27      1    1.0959e+02    3.6217e+02 ;     C7 - C9     - H13   
     8     10     14      1    1.0762e+02    6.4802e+02 ;     C8 - C10    - O3    
     8     10     28      1    1.0959e+02    3.6217e+02 ;     C8 - C10    - H14   
     8     10     29      1    1.0959e+02    3.6217e+02 ;     C8 - C10    - H15   
     9      7     20      1    1.0968e+02    3.6208e+02 ;     C9 - C7     - H6    
     9      7     21      1    1.0968e+02    3.6208e+02 ;     C9 - C7     - H7    
     9      7     22      1    1.0968e+02    3.6208e+02 ;     C9 - C7     - H8    
     9     13     11      1    1.1360e+02    7.3915e+02 ;     C9 - O2     - C11   
    10      8     23      1    1.0968e+02    3.6208e+02 ;    C10 - C8     - H9    
    10      8     24      1    1.0968e+02    3.6208e+02 ;    C10 - C8     - H10   
    10      8     25      1    1.0968e+02    3.6208e+02 ;    C10 - C8     - H11   
    10     14     11      1    1.1360e+02    7.3915e+02 ;    C10 - O3     - C11   
    12     11     13      1    1.0789e+02    8.2375e+02 ;     O1 - C11    - O2    
    12     11     14      1    1.0789e+02    8.2375e+02 ;     O1 - C11    - O3    
    12     11     30      1    1.1181e+02    4.6744e+02 ;     O1 - C11    - H16   
    13      9     26      1    1.1034e+02    4.7028e+02 ;     O2 - C9     - H12   
    13      9     27      1    1.1034e+02    4.7028e+02 ;     O2 - C9     - H13   
    13     11     14      1    1.0789e+02    8.2375e+02 ;     O2 - C11    - O3    
    13     11     30      1    1.1181e+02    4.6744e+02 ;     O2 - C11    - H16   
    14     10     28      1    1.1034e+02    4.7028e+02 ;     O3 - C10    - H14   
    14     10     29      1    1.1034e+02    4.7028e+02 ;     O3 - C10    - H15   
    14     11     30      1    1.1181e+02    4.6744e+02 ;     O3 - C11    - H16   
    20      7     21      1    1.0773e+02    2.9957e+02 ;     H6 - C7     - H7    
    20      7     22      1    1.0773e+02    2.9957e+02 ;     H6 - C7     - H8    
    21      7     22      1    1.0773e+02    2.9957e+02 ;     H7 - C7     - H8    
    23      8     24      1    1.0773e+02    2.9957e+02 ;     H9 - C8     - H10   
    23      8     25      1    1.0773e+02    2.9957e+02 ;     H9 - C8     - H11   
    24      8     25      1    1.0773e+02    2.9957e+02 ;    H10 - C8     - H11   
    26      9     27      1    1.0855e+02    2.9824e+02 ;    H12 - C9     - H13   
    28     10     29      1    1.0855e+02    2.9824e+02 ;    H14 - C10    - H15   

[ dihedrals ] ; propers
; for gromacs 4.5 or higher, using funct 9
;    i      j      k      l   func   phase     kd      pn
     1      2      4      6      9   180.00  15.16700   2 ;     C1-    C2-    C4-    C6
     1      2      4     18      9   180.00  15.16700   2 ;     C1-    C2-    C4-    H4
     1      3      5      6      9   180.00  15.16700   2 ;     C1-    C3-    C5-    C6
     1      3      5     19      9   180.00  15.16700   2 ;     C1-    C3-    C5-    H5
     2      1      3      5      9   180.00  15.16700   2 ;     C2-    C1-    C3-    C5
     2      1      3     17      9   180.00  15.16700   2 ;     C2-    C1-    C3-    H3
     2      4      6      5      9   180.00  15.16700   2 ;     C2-    C4-    C6-    C5
     2      4      6     12      9   180.00  15.16700   2 ;     C2-    C4-    C6-    O1
     3      1      2      4      9   180.00  15.16700   2 ;     C3-    C1-    C2-    C4
     3      1      2     16      9   180.00  15.16700   2 ;     C3-    C1-    C2-    H2
     3      5      6      4      9   180.00  15.16700   2 ;     C3-    C5-    C6-    C4
     3      5      6     12      9   180.00  15.16700   2 ;     C3-    C5-    C6-    O1
     4      6      5     19      9   180.00  15.16700   2 ;     C4-    C6-    C5-    H5
     4      6     12     11      9   180.00   6.94544   2 ;     C4-    C6-    O1-   C11
     5      6      4     18      9   180.00  15.16700   2 ;     C5-    C6-    C4-    H4
     5      6     12     11      9   180.00   6.94544   2 ;     C5-    C6-    O1-   C11
     6      4      2     16      9   180.00  15.16700   2 ;     C6-    C4-    C2-    H2
     6      5      3     17      9   180.00  15.16700   2 ;     C6-    C5-    C3-    H3
     6     12     11     13      9     0.00   1.60387   3 ;     C6-    O1-   C11-    O2
     6     12     11     14      9     0.00   1.60387   3 ;     C6-    O1-   C11-    O3
     6     12     11     30      9     0.00   1.60387   3 ;     C6-    O1-   C11-   H16
     7      9     13     11      9     0.00   0.33472   2 ;     C7-    C9-    O2-   C11
     7      9     13     11      9     0.00   3.13800   3 ;     C7-    C9-    O2-   C11
     7      9     13     11      9   180.00   3.68192   1 ;     C7-    C9-    O2-   C11
     8     10     14     11      9     0.00   0.33472   2 ;     C8-   C10-    O3-   C11
     8     10     14     11      9     0.00   3.13800   3 ;     C8-   C10-    O3-   C11
     8     10     14     11      9   180.00   3.68192   1 ;     C8-   C10-    O3-   C11
     9     13     11     12      9     0.00   3.55640   2 ;     C9-    O2-   C11-    O1
     9     13     11     12      9     0.00   3.55640   3 ;     C9-    O2-   C11-    O1
     9     13     11     12      9   180.00   1.92464   1 ;     C9-    O2-   C11-    O1
     9     13     11     14      9     0.00   3.55640   2 ;     C9-    O2-   C11-    O3
     9     13     11     14      9     0.00   3.55640   3 ;     C9-    O2-   C11-    O3
     9     13     11     14      9   180.00   1.92464   1 ;     C9-    O2-   C11-    O3
     9     13     11     30      9     0.00   1.60387   3 ;     C9-    O2-   C11-   H16
    10     14     11     12      9     0.00   3.55640   2 ;    C10-    O3-   C11-    O1
    10     14     11     12      9     0.00   3.55640   3 ;    C10-    O3-   C11-    O1
    10     14     11     12      9   180.00   1.92464   1 ;    C10-    O3-   C11-    O1
    10     14     11     13      9     0.00   3.55640   2 ;    C10-    O3-   C11-    O2
    10     14     11     13      9     0.00   3.55640   3 ;    C10-    O3-   C11-    O2
    10     14     11     13      9   180.00   1.92464   1 ;    C10-    O3-   C11-    O2
    10     14     11     30      9     0.00   1.60387   3 ;    C10-    O3-   C11-   H16
    11     13      9     26      9     0.00   1.41001   3 ;    C11-    O2-    C9-   H12
    11     13      9     27      9     0.00   1.41001   3 ;    C11-    O2-    C9-   H13
    11     14     10     28      9     0.00   1.41001   3 ;    C11-    O3-   C10-   H14
    11     14     10     29      9     0.00   1.41001   3 ;    C11-    O3-   C10-   H15
    12      6      4     18      9   180.00  15.16700   2 ;     O1-    C6-    C4-    H4
    12      6      5     19      9   180.00  15.16700   2 ;     O1-    C6-    C5-    H5
    13      9      7     20      9     0.00   0.00000   0 ;     O2-    C9-    C7-    H6
    13      9      7     20      9     0.00   1.04600   1 ;     O2-    C9-    C7-    H6
    13      9      7     21      9     0.00   0.00000   0 ;     O2-    C9-    C7-    H7
    13      9      7     21      9     0.00   1.04600   1 ;     O2-    C9-    C7-    H7
    13      9      7     22      9     0.00   0.00000   0 ;     O2-    C9-    C7-    H8
    13      9      7     22      9     0.00   1.04600   1 ;     O2-    C9-    C7-    H8
    14     10      8     23      9     0.00   0.00000   0 ;     O3-   C10-    C8-    H9
    14     10      8     23      9     0.00   1.04600   1 ;     O3-   C10-    C8-    H9
    14     10      8     24      9     0.00   0.00000   0 ;     O3-   C10-    C8-   H10
    14     10      8     24      9     0.00   1.04600   1 ;     O3-   C10-    C8-   H10
    14     10      8     25      9     0.00   0.00000   0 ;     O3-   C10-    C8-   H11
    14     10      8     25      9     0.00   1.04600   1 ;     O3-   C10-    C8-   H11
    15      1      2      4      9   180.00  15.16700   2 ;     H1-    C1-    C2-    C4
    15      1      2     16      9   180.00  15.16700   2 ;     H1-    C1-    C2-    H2
    15      1      3      5      9   180.00  15.16700   2 ;     H1-    C1-    C3-    C5
    15      1      3     17      9   180.00  15.16700   2 ;     H1-    C1-    C3-    H3
    16      2      4     18      9   180.00  15.16700   2 ;     H2-    C2-    C4-    H4
    17      3      5     19      9   180.00  15.16700   2 ;     H3-    C3-    C5-    H5
    20      7      9     26      9     0.00   0.65084   3 ;     H6-    C7-    C9-   H12
    20      7      9     27      9     0.00   0.65084   3 ;     H6-    C7-    C9-   H13
    21      7      9     26      9     0.00   0.65084   3 ;     H7-    C7-    C9-   H12
    21      7      9     27      9     0.00   0.65084   3 ;     H7-    C7-    C9-   H13
    22      7      9     26      9     0.00   0.65084   3 ;     H8-    C7-    C9-   H12
    22      7      9     27      9     0.00   0.65084   3 ;     H8-    C7-    C9-   H13
    23      8     10     28      9     0.00   0.65084   3 ;     H9-    C8-   C10-   H14
    23      8     10     29      9     0.00   0.65084   3 ;     H9-    C8-   C10-   H15
    24      8     10     28      9     0.00   0.65084   3 ;    H10-    C8-   C10-   H14
    24      8     10     29      9     0.00   0.65084   3 ;    H10-    C8-   C10-   H15
    25      8     10     28      9     0.00   0.65084   3 ;    H11-    C8-   C10-   H14
    25      8     10     29      9     0.00   0.65084   3 ;    H11-    C8-   C10-   H15

[ dihedrals ] ; impropers
; treated as propers in GROMACS to use correct AMBER analytical function
;    i      j      k      l   func   phase     kd      pn
     1      4      2     16      4   180.00   4.60240   2 ;     C1-    C4-    C2-    H2
     1      5      3     17      4   180.00   4.60240   2 ;     C1-    C5-    C3-    H3
     2      6      4     18      4   180.00   4.60240   2 ;     C2-    C6-    C4-    H4
     3      6      5     19      4   180.00   4.60240   2 ;     C3-    C6-    C5-    H5
     4      5      6     12      4   180.00   4.60240   2 ;     C4-    C5-    C6-    O1
    15      1      3      2      4   180.00   4.60240   2 ;     H1-    C1-    C3-    C2
