mobley_3378420_GMX.gro created by acpype (v: 2023.10.27) on Thu May 21 00:12:43 2026
 2427
    1MOL     C1    1   2.670   2.341   3.067
    1MOL     C2    2   2.614   2.352   2.926
    1MOL     C3    3   2.645   2.489   2.865
    1MOL     C4    4   2.599   2.502   2.719
    1MOL     C5    5   2.632   2.634   2.650
    1MOL     C6    6   2.586   2.640   2.504
    1MOL     C7    7   2.624   2.774   2.439
    1MOL     C8    8   2.580   2.779   2.293
    1MOL     C9    9   2.615   2.912   2.227
    1MOL     O1   10   2.571   2.912   2.092
    1MOL     H1   11   2.646   2.243   3.110
    1MOL     H2   12   2.778   2.354   3.068
    1MOL     H3   13   2.626   2.418   3.133
    1MOL     H4   14   2.506   2.335   2.930
    1MOL     H5   15   2.658   2.273   2.864
    1MOL     H6   16   2.600   2.568   2.925
    1MOL     H7   17   2.753   2.506   2.867
    1MOL     H8   18   2.490   2.486   2.715
    1MOL     H9   19   2.644   2.420   2.661
    1MOL    H10   20   2.583   2.715   2.706
    1MOL    H11   21   2.739   2.654   2.656
    1MOL    H12   22   2.477   2.627   2.499
    1MOL    H13   23   2.631   2.559   2.447
    1MOL    H14   24   2.577   2.856   2.494
    1MOL    H15   25   2.732   2.788   2.447
    1MOL    H16   26   2.630   2.697   2.238
    1MOL    H17   27   2.472   2.763   2.286
    1MOL    H18   28   2.565   2.994   2.279
    1MOL    H19   29   2.723   2.929   2.229
    1MOL    H20   30   2.474   2.912   2.094
   97SOL     OW   31   1.592   1.629   1.625
   97SOL    HW1   32   1.619   1.663   1.535
   97SOL    HW2   33   1.671   1.591   1.671
  127SOL     OW   34   1.859   1.518   1.605
  127SOL    HW1   35   1.873   1.545   1.510
  127SOL    HW2   36   1.942   1.540   1.658
  163SOL     OW   37   1.650   1.720   1.394
  163SOL    HW1   38   1.703   1.730   1.310
  163SOL    HW2   39   1.623   1.810   1.428
  219SOL     OW   40   1.555   1.511   2.565
  219SOL    HW1   41   1.498   1.495   2.646
  219SOL    HW2   42   1.496   1.521   2.485
  227SOL     OW   43   1.460   1.505   3.201
  227SOL    HW1   44   1.484   1.599   3.227
  227SOL    HW2   45   1.444   1.451   3.283
  238SOL     OW   46   1.842   1.767   2.221
  238SOL    HW1   47   1.896   1.738   2.301
  238SOL    HW2   48   1.872   1.857   2.192
  250SOL     OW   49   1.466   1.417   2.815
  250SOL    HW1   50   1.407   1.423   2.895
  250SOL    HW2   51   1.451   1.329   2.769
  251SOL     OW   52   1.667   1.714   2.434
  251SOL    HW1   53   1.626   1.691   2.346
  251SOL    HW2   54   1.649   1.640   2.499
  254SOL     OW   55   1.576   1.662   2.169
  254SOL    HW1   56   1.665   1.708   2.172
  254SOL    HW2   57   1.555   1.638   2.074
  268SOL     OW   58   1.795   1.066   2.735
  268SOL    HW1   59   1.733   1.051   2.659
  268SOL    HW2   60   1.743   1.077   2.820
  273SOL     OW   61   1.111   1.776   2.099
  273SOL    HW1   62   1.051   1.714   2.149
  273SOL    HW2   63   1.142   1.732   2.014
  275SOL     OW   64   1.632   1.377   1.943
  275SOL    HW1   65   1.600   1.471   1.933
  275SOL    HW2   66   1.556   1.314   1.931
  293SOL     OW   67   1.227   1.570   2.655
  293SOL    HW1   68   1.248   1.644   2.590
  293SOL    HW2   69   1.295   1.570   2.728
  295SOL     OW   70   1.271   1.797   2.453
  295SOL    HW1   71   1.315   1.861   2.389
  295SOL    HW2   72   1.221   1.849   2.523
  305SOL     OW   73   1.664   1.280   2.519
  305SOL    HW1   74   1.763   1.288   2.533
  305SOL    HW2   75   1.619   1.364   2.550
  310SOL     OW   76   1.592   1.629   3.487
  310SOL    HW1   77   1.619   1.663   3.397
  310SOL    HW2   78   1.671   1.591   3.533
  340SOL     OW   79   1.859   1.518   3.467
  340SOL    HW1   80   1.873   1.545   3.372
  340SOL    HW2   81   1.942   1.540   3.520
  365SOL     OW   82   1.759   1.747   3.016
  365SOL    HW1   83   1.820   1.777   2.943
  365SOL    HW2   84   1.721   1.658   2.994
  366SOL     OW   85   1.252   1.731   2.990
  366SOL    HW1   86   1.336   1.736   2.936
  366SOL    HW2   87   1.229   1.635   3.008
  370SOL     OW   88   1.388   1.573   2.339
  370SOL    HW1   89   1.455   1.585   2.265
  370SOL    HW2   90   1.348   1.662   2.362
  375SOL     OW   91   1.650   1.720   3.256
  375SOL    HW1   92   1.703   1.730   3.172
  375SOL    HW2   93   1.623   1.810   3.290
  381SOL     OW   94   1.504   1.607   1.906
  381SOL    HW1   95   1.412   1.644   1.913
  381SOL    HW2   96   1.542   1.627   1.816
  383SOL     OW   97   1.614   1.292   3.151
  383SOL    HW1   98   1.674   1.295   3.231
  383SOL    HW2   99   1.539   1.356   3.164
  396SOL     OW  100   1.493   1.767   2.821
  396SOL    HW1  101   1.526   1.831   2.752
  396SOL    HW2  102   1.559   1.761   2.896
  409SOL     OW  103   1.861   1.569   2.713
  409SOL    HW1  104   1.790   1.557   2.643
  409SOL    HW2  105   1.862   1.490   2.773
  415SOL     OW  106   1.705   1.487   2.966
  415SOL    HW1  107   1.612   1.462   2.939
  415SOL    HW2  108   1.731   1.437   3.048
  616SOL     OW  109   1.594   1.976   1.480
  616SOL    HW1  110   1.576   2.043   1.408
  616SOL    HW2  111   1.591   2.022   1.569
  636SOL     OW  112   1.394   2.331   1.674
  636SOL    HW1  113   1.374   2.374   1.762
  636SOL    HW2  114   1.472   2.269   1.683
  643SOL     OW  115   1.719   2.447   1.831
  643SOL    HW1  116   1.693   2.536   1.795
  643SOL    HW2  117   1.717   2.379   1.758
  661SOL     OW  118   1.547   2.084   1.729
  661SOL    HW1  119   1.542   2.121   1.821
  661SOL    HW2  120   1.475   2.015   1.717
  664SOL     OW  121   1.351   2.452   1.433
  664SOL    HW1  122   1.379   2.409   1.518
  664SOL    HW2  123   1.376   2.548   1.434
  687SOL     OW  124   1.754   3.085   1.588
  687SOL    HW1  125   1.845   3.046   1.575
  687SOL    HW2  126   1.762   3.181   1.612
  689SOL     OW  127   1.592   3.491   1.625
  689SOL    HW1  128   1.619   3.525   1.535
  689SOL    HW2  129   1.671   3.453   1.671
  705SOL     OW  130   1.587   2.641   1.670
  705SOL    HW1  131   1.495   2.679   1.665
  705SOL    HW2  132   1.647   2.688   1.605
  714SOL     OW  133   1.728   2.797   1.854
  714SOL    HW1  134   1.682   2.790   1.765
  714SOL    HW2  135   1.666   2.841   1.920
  719SOL     OW  136   1.859   3.380   1.605
  719SOL    HW1  137   1.873   3.407   1.510
  719SOL    HW2  138   1.942   3.402   1.658
  726SOL     OW  139   1.138   2.242   1.678
  726SOL    HW1  140   1.093   2.305   1.742
  726SOL    HW2  141   1.231   2.273   1.661
  734SOL     OW  142   1.369   2.812   1.660
  734SOL    HW1  143   1.408   2.901   1.680
  734SOL    HW2  144   1.379   2.792   1.563
  736SOL     OW  145   1.657   2.466   1.206
  736SOL    HW1  146   1.619   2.397   1.268
  736SOL    HW2  147   1.739   2.430   1.162
  763SOL     OW  148   1.614   3.154   1.289
  763SOL    HW1  149   1.674   3.157   1.369
  763SOL    HW2  150   1.539   3.218   1.302
  767SOL     OW  151   1.709   2.247   1.381
  767SOL    HW1  152   1.782   2.316   1.385
  767SOL    HW2  153   1.737   2.172   1.322
  772SOL     OW  154   1.440   2.718   1.398
  772SOL    HW1  155   1.383   2.770   1.335
  772SOL    HW2  156   1.536   2.730   1.374
  778SOL     OW  157   1.450   3.082   1.633
  778SOL    HW1  158   1.441   3.072   1.732
  778SOL    HW2  159   1.546   3.075   1.607
  780SOL     OW  160   1.674   2.745   1.254
  780SOL    HW1  161   1.647   2.656   1.217
  780SOL    HW2  162   1.675   2.813   1.181
  783SOL     OW  163   1.777   2.204   1.642
  783SOL    HW1  164   1.760   2.235   1.548
  783SOL    HW2  165   1.693   2.167   1.680
  784SOL     OW  166   1.730   2.796   1.517
  784SOL    HW1  167   1.768   2.887   1.532
  784SOL    HW2  168   1.722   2.779   1.418
  793SOL     OW  169   1.824   2.054   1.227
  793SOL    HW1  170   1.820   1.964   1.271
  793SOL    HW2  171   1.827   2.043   1.128
  811SOL     OW  172   1.555   3.373   2.565
  811SOL    HW1  173   1.498   3.357   2.646
  811SOL    HW2  174   1.496   3.383   2.485
  812SOL     OW  175   1.135   2.565   2.579
  812SOL    HW1  176   1.192   2.643   2.554
  812SOL    HW2  177   1.075   2.591   2.655
  813SOL     OW  178   1.755   2.469   2.093
  813SOL    HW1  179   1.743   2.456   1.994
  813SOL    HW2  180   1.725   2.388   2.142
  819SOL     OW  181   1.460   3.367   3.201
  819SOL    HW1  182   1.484   3.461   3.227
  819SOL    HW2  183   1.444   3.313   3.283
  821SOL     OW  184   1.603   2.309   2.599
  821SOL    HW1  185   1.529   2.355   2.549
  821SOL    HW2  186   1.654   2.377   2.652
  828SOL     OW  187   1.594   1.976   3.342
  828SOL    HW1  188   1.576   2.043   3.270
  828SOL    HW2  189   1.591   2.022   3.431
  830SOL     OW  190   1.842   3.629   2.221
  830SOL    HW1  191   1.896   3.600   2.301
  830SOL    HW2  192   1.872   3.719   2.192
  832SOL     OW  193   1.689   2.784   2.474
  832SOL    HW1  194   1.784   2.755   2.482
  832SOL    HW2  195   1.681   2.849   2.399
  833SOL     OW  196   1.641   2.970   2.294
  833SOL    HW1  197   1.727   2.972   2.242
  833SOL    HW2  198   1.655   3.017   2.382
  836SOL     OW  199   1.293   3.090   3.285
  836SOL    HW1  200   1.330   3.017   3.227
  836SOL    HW2  201   1.345   3.095   3.370
  839SOL     OW  202   1.525   2.861   2.052
  839SOL    HW1  203   1.462   2.785   2.065
  839SOL    HW2  204   1.573   2.879   2.138
  842SOL     OW  205   1.466   3.279   2.815
  842SOL    HW1  206   1.407   3.285   2.895
  842SOL    HW2  207   1.451   3.191   2.769
  843SOL     OW  208   1.667   3.576   2.434
  843SOL    HW1  209   1.626   3.553   2.346
  843SOL    HW2  210   1.649   3.502   2.499
  845SOL     OW  211   1.281   2.207   2.806
  845SOL    HW1  212   1.195   2.157   2.793
  845SOL    HW2  213   1.343   2.153   2.862
  846SOL     OW  214   1.576   3.524   2.169
  846SOL    HW1  215   1.665   3.570   2.172
  846SOL    HW2  216   1.555   3.500   2.074
  848SOL     OW  217   1.394   2.331   3.536
  848SOL    HW1  218   1.374   2.374   3.624
  848SOL    HW2  219   1.472   2.269   3.545
  850SOL     OW  220   0.991   2.272   3.104
  850SOL    HW1  221   0.914   2.306   3.158
  850SOL    HW2  222   0.957   2.221   3.025
  851SOL     OW  223   1.041   2.563   2.291
  851SOL    HW1  224   1.067   2.559   2.387
  851SOL    HW2  225   0.956   2.512   2.277
  855SOL     OW  226   1.719   2.447   3.693
  855SOL    HW1  227   1.693   2.536   3.657
  855SOL    HW2  228   1.717   2.379   3.620
  856SOL     OW  229   1.362   3.006   2.407
  856SOL    HW1  230   1.445   2.977   2.359
  856SOL    HW2  231   1.313   3.073   2.351
  858SOL     OW  232   1.008   3.318   2.339
  858SOL    HW1  233   0.962   3.390   2.287
  858SOL    HW2  234   1.004   3.338   2.437
  860SOL     OW  235   1.795   2.928   2.735
  860SOL    HW1  236   1.733   2.913   2.659
  860SOL    HW2  237   1.743   2.939   2.820
  861SOL     OW  238   1.227   3.412   3.368
  861SOL    HW1  239   1.233   3.335   3.432
  861SOL    HW2  240   1.175   3.386   3.288
  863SOL     OW  241   1.458   2.597   2.590
  863SOL    HW1  242   1.453   2.532   2.665
  863SOL    HW2  243   1.538   2.656   2.603
  867SOL     OW  244   1.632   3.239   1.943
  867SOL    HW1  245   1.600   3.333   1.933
  867SOL    HW2  246   1.556   3.176   1.931
  869SOL     OW  247   1.400   1.969   2.288
  869SOL    HW1  248   1.376   1.932   2.198
  869SOL    HW2  249   1.499   1.985   2.292
  873SOL     OW  250   1.547   2.084   3.591
  873SOL    HW1  251   1.542   2.121   3.683
  873SOL    HW2  252   1.475   2.015   3.579
  877SOL     OW  253   1.351   2.452   3.295
  877SOL    HW1  254   1.379   2.409   3.380
  877SOL    HW2  255   1.376   2.548   3.296
  879SOL     OW  256   0.922   2.365   2.761
  879SOL    HW1  257   0.897   2.356   2.665
  879SOL    HW2  258   0.970   2.283   2.792
  881SOL     OW  259   1.434   3.050   1.903
  881SOL    HW1  260   1.466   2.974   1.960
  881SOL    HW2  261   1.342   3.077   1.933
  883SOL     OW  262   0.935   2.098   2.342
  883SOL    HW1  263   0.887   2.139   2.264
  883SOL    HW2  264   1.034   2.096   2.323
  884SOL     OW  265   1.076   2.545   3.326
  884SOL    HW1  266   0.996   2.484   3.329
  884SOL    HW2  267   1.157   2.492   3.302
  885SOL     OW  268   1.227   3.432   2.655
  885SOL    HW1  269   1.248   3.506   2.590
  885SOL    HW2  270   1.295   3.432   2.728
  887SOL     OW  271   1.271   3.659   2.453
  887SOL    HW1  272   1.315   3.723   2.389
  887SOL    HW2  273   1.221   3.711   2.523
  888SOL     OW  274   1.032   2.411   1.878
  888SOL    HW1  275   0.991   2.493   1.839
  888SOL    HW2  276   1.096   2.437   1.951
  891SOL     OW  277   0.866   2.316   2.504
  891SOL    HW1  278   0.834   2.388   2.442
  891SOL    HW2  279   0.890   2.235   2.451
  892SOL     OW  280   1.017   1.901   2.615
  892SOL    HW1  281   0.945   1.906   2.546
  892SOL    HW2  282   0.993   1.832   2.684
  893SOL     OW  283   1.429   3.035   2.729
  893SOL    HW1  284   1.374   2.951   2.722
  893SOL    HW2  285   1.455   3.064   2.637
  894SOL     OW  286   1.466   2.452   2.854
  894SOL    HW1  287   1.436   2.357   2.861
  894SOL    HW2  288   1.539   2.468   2.920
  895SOL     OW  289   1.857   2.695   2.239
  895SOL    HW1  290   1.899   2.631   2.303
  895SOL    HW2  291   1.819   2.644   2.161
  897SOL     OW  292   1.664   3.142   2.519
  897SOL    HW1  293   1.763   3.150   2.533
  897SOL    HW2  294   1.619   3.226   2.550
  898SOL     OW  295   1.390   2.437   1.940
  898SOL    HW1  296   1.336   2.416   2.021
  898SOL    HW2  297   1.481   2.396   1.949
  900SOL     OW  298   1.754   3.085   3.450
  900SOL    HW1  299   1.845   3.046   3.437
  900SOL    HW2  300   1.762   3.181   3.474
  901SOL     OW  301   1.064   3.209   3.202
  901SOL    HW1  302   0.984   3.186   3.257
  901SOL    HW2  303   1.147   3.183   3.251
  902SOL     OW  304   1.592   3.491   3.487
  902SOL    HW1  305   1.619   3.525   3.397
  902SOL    HW2  306   1.671   3.453   3.533
  903SOL     OW  307   1.111   3.057   2.962
  903SOL    HW1  308   1.071   3.101   3.043
  903SOL    HW2  309   1.070   3.094   2.879
  904SOL     OW  310   1.638   2.961   2.941
  904SOL    HW1  311   1.643   3.042   3.000
  904SOL    HW2  312   1.552   2.963   2.890
  909SOL     OW  313   1.274   2.248   3.124
  909SOL    HW1  314   1.295   2.322   3.188
  909SOL    HW2  315   1.185   2.265   3.081
  913SOL     OW  316   1.252   3.210   2.250
  913SOL    HW1  317   1.302   3.287   2.290
  913SOL    HW2  318   1.157   3.212   2.282
  914SOL     OW  319   1.272   3.307   3.004
  914SOL    HW1  320   1.319   3.320   3.091
  914SOL    HW2  321   1.206   3.233   3.013
  915SOL     OW  322   1.582   2.501   2.334
  915SOL    HW1  323   1.551   2.562   2.407
  915SOL    HW2  324   1.632   2.553   2.265
  918SOL     OW  325   1.587   2.641   3.532
  918SOL    HW1  326   1.495   2.679   3.527
  918SOL    HW2  327   1.647   2.688   3.467
  922SOL     OW  328   1.360   2.724   2.907
  922SOL    HW1  329   1.285   2.724   2.841
  922SOL    HW2  330   1.397   2.632   2.916
  923SOL     OW  331   1.209   2.387   2.137
  923SOL    HW1  332   1.222   2.303   2.191
  923SOL    HW2  333   1.180   2.461   2.197
  927SOL     OW  334   1.728   2.797   3.716
  927SOL    HW1  335   1.682   2.790   3.627
  927SOL    HW2  336   1.666   2.841   3.782
  929SOL     OW  337   1.622   2.229   2.236
  929SOL    HW1  338   1.624   2.153   2.300
  929SOL    HW2  339   1.574   2.306   2.276
  930SOL     OW  340   1.023   2.628   2.828
  930SOL    HW1  341   1.038   2.649   2.924
  930SOL    HW2  342   0.993   2.533   2.819
  932SOL     OW  343   1.859   3.380   3.467
  932SOL    HW1  344   1.873   3.407   3.372
  932SOL    HW2  345   1.942   3.402   3.520
  934SOL     OW  346   1.540   2.136   1.987
  934SOL    HW1  347   1.479   2.061   2.010
  934SOL    HW2  348   1.562   2.188   2.070
  935SOL     OW  349   1.303   2.700   1.904
  935SOL    HW1  350   1.337   2.607   1.919
  935SOL    HW2  351   1.321   2.727   1.809
  936SOL     OW  352   1.068   3.195   2.711
  936SOL    HW1  353   1.075   3.111   2.656
  936SOL    HW2  354   1.130   3.264   2.675
  939SOL     OW  355   1.138   2.242   3.540
  939SOL    HW1  356   1.093   2.305   3.604
  939SOL    HW2  357   1.231   2.273   3.523
  940SOL     OW  358   1.160   2.069   3.339
  940SOL    HW1  359   1.160   2.133   3.416
  940SOL    HW2  360   1.188   2.117   3.256
  944SOL     OW  361   1.002   2.658   3.100
  944SOL    HW1  362   1.043   2.626   3.186
  944SOL    HW2  363   0.906   2.631   3.097
  947SOL     OW  364   1.369   2.812   3.522
  947SOL    HW1  365   1.408   2.901   3.542
  947SOL    HW2  366   1.379   2.792   3.425
  949SOL     OW  367   1.657   2.466   3.068
  949SOL    HW1  368   1.619   2.397   3.130
  949SOL    HW2  369   1.739   2.430   3.024
  955SOL     OW  370   1.347   2.921   3.096
  955SOL    HW1  371   1.371   2.858   3.022
  955SOL    HW2  372   1.257   2.961   3.078
  956SOL     OW  373   1.302   2.717   2.171
  956SOL    HW1  374   1.216   2.686   2.213
  956SOL    HW2  375   1.298   2.703   2.072
  957SOL     OW  376   1.759   3.609   3.016
  957SOL    HW1  377   1.820   3.639   2.943
  957SOL    HW2  378   1.721   3.520   2.994
  958SOL     OW  379   1.252   3.593   2.990
  958SOL    HW1  380   1.336   3.598   2.936
  958SOL    HW2  381   1.229   3.497   3.008
  961SOL     OW  382   1.726   1.997   2.385
  961SOL    HW1  383   1.799   1.980   2.318
  961SOL    HW2  384   1.695   1.910   2.423
  962SOL     OW  385   1.388   3.435   2.339
  962SOL    HW1  386   1.455   3.447   2.265
  962SOL    HW2  387   1.348   3.524   2.362
  964SOL     OW  388   1.280   2.789   2.534
  964SOL    HW1  389   1.340   2.708   2.536
  964SOL    HW2  390   1.320   2.858   2.474
  967SOL     OW  391   1.650   3.582   3.256
  967SOL    HW1  392   1.703   3.592   3.172
  967SOL    HW2  393   1.623   3.672   3.290
  968SOL     OW  394   1.841   2.037   2.825
  968SOL    HW1  395   1.880   1.952   2.789
  968SOL    HW2  396   1.743   2.039   2.806
  972SOL     OW  397   0.916   2.772   2.153
  972SOL    HW1  398   0.979   2.810   2.085
  972SOL    HW2  399   0.956   2.689   2.192
  973SOL     OW  400   1.504   3.469   1.906
  973SOL    HW1  401   1.412   3.506   1.913
  973SOL    HW2  402   1.542   3.489   1.816
  975SOL     OW  403   1.614   3.154   3.151
  975SOL    HW1  404   1.674   3.157   3.231
  975SOL    HW2  405   1.539   3.218   3.164
  976SOL     OW  406   1.039   2.960   2.558
  976SOL    HW1  407   0.969   2.913   2.612
  976SOL    HW2  408   1.098   2.892   2.515
  977SOL     OW  409   1.014   2.098   2.833
  977SOL    HW1  410   1.006   2.062   2.740
  977SOL    HW2  411   1.012   2.022   2.898
  979SOL     OW  412   1.709   2.247   3.243
  979SOL    HW1  413   1.782   2.316   3.247
  979SOL    HW2  414   1.737   2.172   3.184
  984SOL     OW  415   1.440   2.718   3.260
  984SOL    HW1  416   1.383   2.770   3.197
  984SOL    HW2  417   1.536   2.730   3.236
  986SOL     OW  418   1.183   3.197   1.981
  986SOL    HW1  419   1.084   3.186   1.983
  986SOL    HW2  420   1.217   3.212   2.074
  988SOL     OW  421   1.493   3.629   2.821
  988SOL    HW1  422   1.526   3.693   2.752
  988SOL    HW2  423   1.559   3.623   2.896
  990SOL     OW  424   1.450   3.082   3.495
  990SOL    HW1  425   1.441   3.072   3.594
  990SOL    HW2  426   1.546   3.075   3.469
  992SOL     OW  427   1.674   2.745   3.116
  992SOL    HW1  428   1.647   2.656   3.079
  992SOL    HW2  429   1.675   2.813   3.043
  993SOL     OW  430   1.225   2.187   2.311
  993SOL    HW1  431   1.290   2.113   2.300
  993SOL    HW2  432   1.245   2.237   2.395
  995SOL     OW  433   1.777   2.204   3.504
  995SOL    HW1  434   1.760   2.235   3.410
  995SOL    HW2  435   1.693   2.167   3.542
  996SOL     OW  436   1.730   2.796   3.379
  996SOL    HW1  437   1.768   2.887   3.394
  996SOL    HW2  438   1.722   2.779   3.280
  999SOL     OW  439   0.859   2.818   2.723
  999SOL    HW1  440   0.913   2.749   2.771
  999SOL    HW2  441   0.827   2.887   2.789
 1000SOL     OW  442   1.083   2.846   1.949
 1000SOL    HW1  443   1.060   2.899   1.867
 1000SOL    HW2  444   1.164   2.790   1.930
 1001SOL     OW  445   1.861   3.431   2.713
 1001SOL    HW1  446   1.790   3.419   2.643
 1001SOL    HW2  447   1.862   3.352   2.773
 1005SOL     OW  448   1.824   2.054   3.089
 1005SOL    HW1  449   1.820   1.964   3.133
 1005SOL    HW2  450   1.827   2.043   2.990
 1007SOL     OW  451   1.705   3.349   2.966
 1007SOL    HW1  452   1.612   3.324   2.939
 1007SOL    HW2  453   1.731   3.299   3.048
 1010SOL     OW  454   1.424   2.076   2.974
 1010SOL    HW1  455   1.476   2.011   3.029
 1010SOL    HW2  456   1.375   2.139   3.035
 1014SOL     OW  457   1.352   1.914   2.030
 1014SOL    HW1  458   1.387   1.873   1.946
 1014SOL    HW2  459   1.262   1.876   2.050
 1015SOL     OW  460   1.300   2.315   2.553
 1015SOL    HW1  461   1.241   2.395   2.557
 1015SOL    HW2  462   1.315   2.280   2.646
 1016SOL     OW  463   1.593   2.083   2.744
 1016SOL    HW1  464   1.509   2.082   2.798
 1016SOL    HW2  465   1.595   2.166   2.688
 1025SOL     OW  466   1.755   2.469   3.955
 1025SOL    HW1  467   1.743   2.456   3.856
 1025SOL    HW2  468   1.725   2.388   4.004
 1044SOL     OW  469   1.525   2.861   3.914
 1044SOL    HW1  470   1.462   2.785   3.927
 1044SOL    HW2  471   1.573   2.879   4.000
 1064SOL     OW  472   1.632   3.239   3.805
 1064SOL    HW1  473   1.600   3.333   3.795
 1064SOL    HW2  474   1.556   3.176   3.793
 1075SOL     OW  475   1.434   3.050   3.765
 1075SOL    HW1  476   1.466   2.974   3.822
 1075SOL    HW2  477   1.342   3.077   3.795
 1088SOL     OW  478   1.857   2.695   4.101
 1088SOL    HW1  479   1.899   2.631   4.165
 1088SOL    HW2  480   1.819   2.644   4.023
 1091SOL     OW  481   1.390   2.437   3.802
 1091SOL    HW1  482   1.336   2.416   3.883
 1091SOL    HW2  483   1.481   2.396   3.811
 1117SOL     OW  484   1.540   2.136   3.849
 1117SOL    HW1  485   1.479   2.061   3.872
 1117SOL    HW2  486   1.562   2.188   3.932
 1118SOL     OW  487   1.303   2.700   3.766
 1118SOL    HW1  488   1.337   2.607   3.781
 1118SOL    HW2  489   1.321   2.727   3.671
 1379SOL     OW  490   1.594   3.838   3.342
 1379SOL    HW1  491   1.576   3.905   3.270
 1379SOL    HW2  492   1.591   3.884   3.431
 1413SOL     OW  493   1.400   3.831   2.288
 1413SOL    HW1  494   1.376   3.794   2.198
 1413SOL    HW2  495   1.499   3.847   2.292
 1491SOL     OW  496   1.726   3.859   2.385
 1491SOL    HW1  497   1.799   3.842   2.318
 1491SOL    HW2  498   1.695   3.772   2.423
 1494SOL     OW  499   1.841   3.899   2.825
 1494SOL    HW1  500   1.880   3.814   2.789
 1494SOL    HW2  501   1.743   3.901   2.806
 1524SOL     OW  502   1.824   3.916   3.089
 1524SOL    HW1  503   1.820   3.826   3.133
 1524SOL    HW2  504   1.827   3.905   2.990
 1533SOL     OW  505   1.593   3.945   2.744
 1533SOL    HW1  506   1.509   3.944   2.798
 1533SOL    HW2  507   1.595   4.028   2.688
 1683SOL     OW  508   2.548   1.161   1.803
 1683SOL    HW1  509   2.608   1.240   1.817
 1683SOL    HW2  510   2.462   1.192   1.762
 1689SOL     OW  511   2.989   1.341   1.690
 1689SOL    HW1  512   3.036   1.341   1.778
 1689SOL    HW2  513   2.941   1.254   1.679
 1692SOL     OW  514   2.482   1.786   1.439
 1692SOL    HW1  515   2.390   1.769   1.474
 1692SOL    HW2  516   2.510   1.878   1.465
 1706SOL     OW  517   3.049   1.792   1.616
 1706SOL    HW1  518   3.073   1.852   1.540
 1706SOL    HW2  519   3.056   1.697   1.586
 1719SOL     OW  520   1.992   1.821   1.571
 1719SOL    HW1  521   1.982   1.806   1.670
 1719SOL    HW2  522   1.906   1.857   1.535
 1727SOL     OW  523   3.089   1.550   1.506
 1727SOL    HW1  524   3.095   1.473   1.570
 1727SOL    HW2  525   3.037   1.524   1.426
 1730SOL     OW  526   2.323   1.266   1.727
 1730SOL    HW1  527   2.273   1.267   1.641
 1730SOL    HW2  528   2.260   1.248   1.803
 1736SOL     OW  529   2.111   1.785   1.241
 1736SOL    HW1  530   2.168   1.720   1.291
 1736SOL    HW2  531   2.095   1.752   1.148
 1768SOL     OW  532   3.454   1.629   1.625
 1768SOL    HW1  533   3.481   1.663   1.535
 1768SOL    HW2  534   3.533   1.591   1.671
 1772SOL     OW  535   2.842   1.116   1.719
 1772SOL    HW1  536   2.743   1.122   1.729
 1772SOL    HW2  537   2.865   1.036   1.663
 1776SOL     OW  538   1.926   1.564   1.331
 1776SOL    HW1  539   1.880   1.646   1.297
 1776SOL    HW2  540   2.024   1.583   1.340
 1782SOL     OW  541   2.216   1.510   1.329
 1782SOL    HW1  542   2.195   1.466   1.242
 1782SOL    HW2  543   2.313   1.536   1.332
 1797SOL     OW  544   2.842   1.573   1.700
 1797SOL    HW1  545   2.822   1.617   1.612
 1797SOL    HW2  546   2.881   1.482   1.684
 1816SOL     OW  547   2.114   1.564   1.744
 1816SOL    HW1  548   2.084   1.621   1.820
 1816SOL    HW2  549   2.107   1.467   1.770
 1818SOL     OW  550   2.792   1.678   1.465
 1818SOL    HW1  551   2.768   1.660   1.370
 1818SOL    HW2  552   2.822   1.772   1.475
 1824SOL     OW  553   3.114   1.731   1.128
 1824SOL    HW1  554   3.198   1.736   1.074
 1824SOL    HW2  555   3.091   1.635   1.146
 1826SOL     OW  556   2.550   1.662   1.716
 1826SOL    HW1  557   2.494   1.743   1.725
 1826SOL    HW2  558   2.602   1.666   1.630
 1830SOL     OW  559   1.992   1.794   1.851
 1830SOL    HW1  560   1.951   1.720   1.904
 1830SOL    HW2  561   2.056   1.845   1.909
 1832SOL     OW  562   2.692   1.273   1.422
 1832SOL    HW1  563   2.687   1.306   1.517
 1832SOL    HW2  564   2.606   1.292   1.376
 1834SOL     OW  565   3.512   1.720   1.394
 1834SOL    HW1  566   3.565   1.730   1.310
 1834SOL    HW2  567   3.485   1.810   1.428
 1841SOL     OW  568   2.234   1.288   1.490
 1841SOL    HW1  569   2.221   1.381   1.456
 1841SOL    HW2  570   2.150   1.236   1.477
 1857SOL     OW  571   2.252   1.741   1.560
 1857SOL    HW1  572   2.161   1.782   1.558
 1857SOL    HW2  573   2.245   1.647   1.592
 1868SOL     OW  574   2.083   1.314   1.844
 1868SOL    HW1  575   2.018   1.241   1.823
 1868SOL    HW2  576   2.087   1.328   1.942
 1870SOL     OW  577   2.534   1.391   1.624
 1870SOL    HW1  578   2.456   1.341   1.662
 1870SOL    HW2  579   2.531   1.486   1.655
 1879SOL     OW  580   2.480   1.567   1.284
 1879SOL    HW1  581   2.475   1.649   1.341
 1879SOL    HW2  582   2.569   1.564   1.239
 1888SOL     OW  583   2.431   1.275   3.027
 1888SOL    HW1  584   2.338   1.268   2.990
 1888SOL    HW2  585   2.442   1.364   3.071
 1889SOL     OW  586   3.417   1.511   2.565
 1889SOL    HW1  587   3.360   1.495   2.646
 1889SOL    HW2  588   3.358   1.521   2.485
 1892SOL     OW  589   2.630   1.144   2.885
 1892SOL    HW1  590   2.552   1.161   2.945
 1892SOL    HW2  591   2.664   1.231   2.849
 1894SOL     OW  592   2.547   1.012   2.527
 1894SOL    HW1  593   2.616   0.996   2.597
 1894SOL    HW2  594   2.474   1.069   2.565
 1895SOL     OW  595   2.548   1.161   3.665
 1895SOL    HW1  596   2.608   1.240   3.679
 1895SOL    HW2  597   2.462   1.192   3.624
 1896SOL     OW  598   2.197   1.435   2.923
 1896SOL    HW1  599   2.119   1.404   2.870
 1896SOL    HW2  600   2.255   1.493   2.866
 1897SOL     OW  601   3.322   1.505   3.201
 1897SOL    HW1  602   3.346   1.599   3.227
 1897SOL    HW2  603   3.306   1.451   3.283
 1900SOL     OW  604   2.093   1.713   2.345
 1900SOL    HW1  605   2.127   1.790   2.399
 1900SOL    HW2  606   2.137   1.713   2.255
 1901SOL     OW  607   2.989   1.341   3.552
 1901SOL    HW1  608   3.036   1.341   3.640
 1901SOL    HW2  609   2.941   1.254   3.541
 1902SOL     OW  610   2.092   1.434   2.400
 1902SOL    HW1  611   2.066   1.530   2.400
 1902SOL    HW2  612   2.021   1.380   2.445
 1903SOL     OW  613   2.102   1.091   2.748
 1903SOL    HW1  614   2.116   1.007   2.800
 1903SOL    HW2  615   2.047   1.155   2.803
 1904SOL     OW  616   2.482   1.786   3.301
 1904SOL    HW1  617   2.390   1.769   3.336
 1904SOL    HW2  618   2.510   1.878   3.327
 1905SOL     OW  619   2.468   0.964   1.985
 1905SOL    HW1  620   2.475   1.048   1.931
 1905SOL    HW2  621   2.514   0.977   2.073
 1908SOL     OW  622   3.704   1.767   2.221
 1908SOL    HW1  623   3.758   1.738   2.301
 1908SOL    HW2  624   3.734   1.857   2.192
 1909SOL     OW  625   1.889   1.596   1.979
 1909SOL    HW1  626   1.870   1.500   2.000
 1909SOL    HW2  627   1.856   1.654   2.054
 1911SOL     OW  628   3.503   1.108   2.294
 1911SOL    HW1  629   3.589   1.110   2.242
 1911SOL    HW2  630   3.517   1.155   2.382
 1913SOL     OW  631   2.475   1.365   2.588
 1913SOL    HW1  632   2.426   1.278   2.597
 1913SOL    HW2  633   2.452   1.408   2.501
 1914SOL     OW  634   3.155   1.228   3.285
 1914SOL    HW1  635   3.192   1.155   3.227
 1914SOL    HW2  636   3.207   1.233   3.370
 1918SOL     OW  637   3.049   1.792   3.478
 1918SOL    HW1  638   3.073   1.852   3.402
 1918SOL    HW2  639   3.056   1.697   3.448
 1920SOL     OW  640   3.328   1.417   2.815
 1920SOL    HW1  641   3.269   1.423   2.895
 1920SOL    HW2  642   3.313   1.329   2.769
 1921SOL     OW  643   3.529   1.714   2.434
 1921SOL    HW1  644   3.488   1.691   2.346
 1921SOL    HW2  645   3.511   1.640   2.499
 1924SOL     OW  646   3.438   1.662   2.169
 1924SOL    HW1  647   3.527   1.708   2.172
 1924SOL    HW2  648   3.417   1.638   2.074
 1931SOL     OW  649   1.992   1.821   3.433
 1931SOL    HW1  650   1.982   1.806   3.532
 1931SOL    HW2  651   1.906   1.857   3.397
 1934SOL     OW  652   3.224   1.144   2.407
 1934SOL    HW1  653   3.307   1.115   2.359
 1934SOL    HW2  654   3.175   1.211   2.351
 1936SOL     OW  655   2.870   1.456   2.339
 1936SOL    HW1  656   2.824   1.528   2.287
 1936SOL    HW2  657   2.866   1.476   2.437
 1937SOL     OW  658   2.213   1.801   2.715
 1937SOL    HW1  659   2.263   1.715   2.721
 1937SOL    HW2  660   2.278   1.878   2.712
 1939SOL     OW  661   3.089   1.550   3.368
 1939SOL    HW1  662   3.095   1.473   3.432
 1939SOL    HW2  663   3.037   1.524   3.288
 1942SOL     OW  664   2.323   1.266   3.589
 1942SOL    HW1  665   2.273   1.267   3.503
 1942SOL    HW2  666   2.260   1.248   3.665
 1943SOL     OW  667   2.973   1.776   2.099
 1943SOL    HW1  668   2.913   1.714   2.149
 1943SOL    HW2  669   3.004   1.732   2.014
 1945SOL     OW  670   3.494   1.377   1.943
 1945SOL    HW1  671   3.462   1.471   1.933
 1945SOL    HW2  672   3.418   1.314   1.931
 1946SOL     OW  673   2.326   1.743   2.185
 1946SOL    HW1  674   2.359   1.782   2.271
 1946SOL    HW2  675   2.402   1.736   2.120
 1948SOL     OW  676   2.111   1.785   3.103
 1948SOL    HW1  677   2.168   1.720   3.153
 1948SOL    HW2  678   2.095   1.752   3.010
 1949SOL     OW  679   2.802   1.698   2.766
 1949SOL    HW1  680   2.882   1.641   2.787
 1949SOL    HW2  681   2.753   1.658   2.689
 1954SOL     OW  682   2.750   1.514   3.057
 1954SOL    HW1  683   2.727   1.489   2.963
 1954SOL    HW2  684   2.811   1.445   3.096
 1956SOL     OW  685   2.665   1.402   2.786
 1956SOL    HW1  686   2.755   1.416   2.744
 1956SOL    HW2  687   2.594   1.404   2.715
 1959SOL     OW  688   3.296   1.188   1.903
 1959SOL    HW1  689   3.328   1.112   1.960
 1959SOL    HW2  690   3.204   1.215   1.933
 1963SOL     OW  691   3.089   1.570   2.655
 1963SOL    HW1  692   3.110   1.644   2.590
 1963SOL    HW2  693   3.157   1.570   2.728
 1964SOL     OW  694   2.321   1.152   2.603
 1964SOL    HW1  695   2.250   1.125   2.668
 1964SOL    HW2  696   2.295   1.124   2.510
 1965SOL     OW  697   3.133   1.797   2.453
 1965SOL    HW1  698   3.177   1.861   2.389
 1965SOL    HW2  699   3.083   1.849   2.523
 1971SOL     OW  700   3.291   1.173   2.729
 1971SOL    HW1  701   3.236   1.089   2.722
 1971SOL    HW2  702   3.317   1.202   2.637
 1974SOL     OW  703   2.350   1.385   2.036
 1974SOL    HW1  704   2.263   1.370   2.083
 1974SOL    HW2  705   2.333   1.411   1.941
 1975SOL     OW  706   3.526   1.280   2.519
 1975SOL    HW1  707   3.625   1.288   2.533
 1975SOL    HW2  708   3.481   1.364   2.550
 1979SOL     OW  709   2.926   1.347   3.202
 1979SOL    HW1  710   2.846   1.324   3.257
 1979SOL    HW2  711   3.009   1.321   3.251
 1980SOL     OW  712   3.454   1.629   3.487
 1980SOL    HW1  713   3.481   1.663   3.397
 1980SOL    HW2  714   3.533   1.591   3.533
 1981SOL     OW  715   2.973   1.195   2.962
 1981SOL    HW1  716   2.933   1.239   3.043
 1981SOL    HW2  717   2.932   1.232   2.879
 1982SOL     OW  718   3.500   1.099   2.941
 1982SOL    HW1  719   3.505   1.180   3.000
 1982SOL    HW2  720   3.414   1.101   2.890
 1984SOL     OW  721   2.842   1.116   3.581
 1984SOL    HW1  722   2.743   1.122   3.591
 1984SOL    HW2  723   2.865   1.036   3.525
 1985SOL     OW  724   2.567   1.050   2.230
 1985SOL    HW1  725   2.553   1.057   2.329
 1985SOL    HW2  726   2.651   0.999   2.212
 1988SOL     OW  727   1.926   1.564   3.193
 1988SOL    HW1  728   1.880   1.646   3.159
 1988SOL    HW2  729   2.024   1.583   3.202
 1989SOL     OW  730   2.229   1.100   2.363
 1989SOL    HW1  731   2.222   1.183   2.307
 1989SOL    HW2  732   2.233   1.020   2.303
 1991SOL     OW  733   3.114   1.348   2.250
 1991SOL    HW1  734   3.164   1.425   2.290
 1991SOL    HW2  735   3.019   1.350   2.282
 1992SOL     OW  736   3.134   1.445   3.004
 1992SOL    HW1  737   3.181   1.458   3.091
 1992SOL    HW2  738   3.068   1.371   3.013
 1994SOL     OW  739   2.216   1.510   3.191
 1994SOL    HW1  740   2.195   1.466   3.104
 1994SOL    HW2  741   2.313   1.536   3.194
 1999SOL     OW  742   2.435   0.870   2.891
 1999SOL    HW1  743   2.479   0.959   2.882
 1999SOL    HW2  744   2.372   0.870   2.968
 2003SOL     OW  745   1.899   1.310   3.144
 2003SOL    HW1  746   1.952   1.261   3.212
 2003SOL    HW2  747   1.921   1.408   3.149
 2009SOL     OW  748   2.842   1.573   3.562
 2009SOL    HW1  749   2.822   1.617   3.474
 2009SOL    HW2  750   2.881   1.482   3.546
 2010SOL     OW  751   3.721   1.518   3.467
 2010SOL    HW1  752   3.735   1.545   3.372
 2010SOL    HW2  753   3.804   1.540   3.520
 2014SOL     OW  754   2.930   1.333   2.711
 2014SOL    HW1  755   2.937   1.249   2.656
 2014SOL    HW2  756   2.992   1.402   2.675
 2019SOL     OW  757   1.870   1.326   2.062
 2019SOL    HW1  758   1.777   1.347   2.031
 2019SOL    HW2  759   1.880   1.227   2.075
 2020SOL     OW  760   1.950   1.801   2.789
 2020SOL    HW1  761   1.908   1.715   2.762
 2020SOL    HW2  762   2.044   1.804   2.755
 2021SOL     OW  763   2.366   1.568   2.772
 2021SOL    HW1  764   2.432   1.642   2.781
 2021SOL    HW2  765   2.410   1.489   2.730
 2028SOL     OW  766   2.114   1.564   3.606
 2028SOL    HW1  767   2.084   1.621   3.682
 2028SOL    HW2  768   2.107   1.467   3.632
 2030SOL     OW  769   2.792   1.678   3.327
 2030SOL    HW1  770   2.768   1.660   3.232
 2030SOL    HW2  771   2.822   1.772   3.337
 2032SOL     OW  772   2.021   1.137   3.328
 2032SOL    HW1  773   2.043   1.076   3.404
 2032SOL    HW2  774   2.031   1.088   3.242
 2033SOL     OW  775   3.209   1.059   3.096
 2033SOL    HW1  776   3.233   0.996   3.022
 2033SOL    HW2  777   3.119   1.099   3.078
 2035SOL     OW  778   3.621   1.747   3.016
 2035SOL    HW1  779   3.682   1.777   2.943
 2035SOL    HW2  780   3.583   1.658   2.994
 2036SOL     OW  781   3.114   1.731   2.990
 2036SOL    HW1  782   3.198   1.736   2.936
 2036SOL    HW2  783   3.091   1.635   3.008
 2037SOL     OW  784   1.945   1.258   2.884
 2037SOL    HW1  785   1.940   1.257   2.984
 2037SOL    HW2  786   1.862   1.217   2.846
 2038SOL     OW  787   2.550   1.662   3.578
 2038SOL    HW1  788   2.494   1.743   3.587
 2038SOL    HW2  789   2.602   1.666   3.492
 2040SOL     OW  790   3.250   1.573   2.339
 2040SOL    HW1  791   3.317   1.585   2.265
 2040SOL    HW2  792   3.210   1.662   2.362
 2041SOL     OW  793   1.992   1.794   3.713
 2041SOL    HW1  794   1.951   1.720   3.766
 2041SOL    HW2  795   2.056   1.845   3.771
 2042SOL     OW  796   3.142   0.927   2.534
 2042SOL    HW1  797   3.202   0.846   2.536
 2042SOL    HW2  798   3.182   0.996   2.474
 2043SOL     OW  799   2.692   1.273   3.284
 2043SOL    HW1  800   2.687   1.306   3.379
 2043SOL    HW2  801   2.606   1.292   3.238
 2044SOL     OW  802   2.534   1.616   2.016
 2044SOL    HW1  803   2.543   1.626   1.917
 2044SOL    HW2  804   2.494   1.527   2.037
 2045SOL     OW  805   3.512   1.720   3.256
 2045SOL    HW1  806   3.565   1.730   3.172
 2045SOL    HW2  807   3.485   1.810   3.290
 2048SOL     OW  808   3.056   1.612   1.893
 2048SOL    HW1  809   3.062   1.519   1.930
 2048SOL    HW2  810   2.997   1.612   1.813
 2049SOL     OW  811   2.684   1.002   3.234
 2049SOL    HW1  812   2.724   1.001   3.142
 2049SOL    HW2  813   2.694   1.094   3.274
 2050SOL     OW  814   2.778   0.910   2.153
 2050SOL    HW1  815   2.841   0.948   2.085
 2050SOL    HW2  816   2.818   0.827   2.192
 2051SOL     OW  817   3.366   1.607   1.906
 2051SOL    HW1  818   3.274   1.644   1.913
 2051SOL    HW2  819   3.404   1.627   1.816
 2052SOL     OW  820   2.234   1.288   3.352
 2052SOL    HW1  821   2.221   1.381   3.318
 2052SOL    HW2  822   2.150   1.236   3.339
 2053SOL     OW  823   3.476   1.292   3.151
 2053SOL    HW1  824   3.536   1.295   3.231
 2053SOL    HW2  825   3.401   1.356   3.164
 2054SOL     OW  826   2.901   1.098   2.558
 2054SOL    HW1  827   2.831   1.051   2.612
 2054SOL    HW2  828   2.960   1.030   2.515
 2056SOL     OW  829   2.452   1.487   2.353
 2056SOL    HW1  830   2.494   1.429   2.283
 2056SOL    HW2  831   2.408   1.566   2.309
 2058SOL     OW  832   2.117   1.348   2.152
 2058SOL    HW1  833   2.021   1.349   2.125
 2058SOL    HW2  834   2.129   1.401   2.236
 2063SOL     OW  835   3.045   1.335   1.981
 2063SOL    HW1  836   2.946   1.324   1.983
 2063SOL    HW2  837   3.079   1.350   2.074
 2065SOL     OW  838   3.355   1.767   2.821
 2065SOL    HW1  839   3.388   1.831   2.752
 2065SOL    HW2  840   3.421   1.761   2.896
 2067SOL     OW  841   3.312   1.220   3.495
 2067SOL    HW1  842   3.303   1.210   3.594
 2067SOL    HW2  843   3.408   1.213   3.469
 2068SOL     OW  844   2.252   1.741   3.422
 2068SOL    HW1  845   2.161   1.782   3.420
 2068SOL    HW2  846   2.245   1.647   3.454
 2074SOL     OW  847   2.721   1.374   1.878
 2074SOL    HW1  848   2.675   1.389   1.966
 2074SOL    HW2  849   2.765   1.459   1.848
 2075SOL     OW  850   2.523   1.790   2.815
 2075SOL    HW1  851   2.477   1.878   2.802
 2075SOL    HW2  852   2.622   1.802   2.808
 2076SOL     OW  853   2.721   0.956   2.723
 2076SOL    HW1  854   2.775   0.887   2.771
 2076SOL    HW2  855   2.689   1.025   2.789
 2077SOL     OW  856   2.945   0.984   1.949
 2077SOL    HW1  857   2.922   1.037   1.867
 2077SOL    HW2  858   3.026   0.928   1.930
 2078SOL     OW  859   3.723   1.569   2.713
 2078SOL    HW1  860   3.652   1.557   2.643
 2078SOL    HW2  861   3.724   1.490   2.773
 2079SOL     OW  862   2.083   1.314   3.706
 2079SOL    HW1  863   2.018   1.241   3.685
 2079SOL    HW2  864   2.087   1.328   3.804
 2080SOL     OW  865   1.941   1.240   2.515
 2080SOL    HW1  866   1.940   1.193   2.603
 2080SOL    HW2  867   2.023   1.212   2.464
 2081SOL     OW  868   2.534   1.391   3.486
 2081SOL    HW1  869   2.456   1.341   3.524
 2081SOL    HW2  870   2.531   1.486   3.517
 2084SOL     OW  871   3.567   1.487   2.966
 2084SOL    HW1  872   3.474   1.462   2.939
 2084SOL    HW2  873   3.593   1.437   3.048
 2086SOL     OW  874   2.674   1.586   2.549
 2086SOL    HW1  875   2.706   1.596   2.455
 2086SOL    HW2  876   2.595   1.524   2.551
 2089SOL     OW  877   2.632   1.330   2.163
 2089SOL    HW1  878   2.586   1.243   2.180
 2089SOL    HW2  879   2.723   1.327   2.204
 2090SOL     OW  880   2.480   1.567   3.146
 2090SOL    HW1  881   2.475   1.649   3.203
 2090SOL    HW2  882   2.569   1.564   3.101
 2094SOL     OW  883   1.901   1.077   2.162
 2094SOL    HW1  884   2.000   1.066   2.153
 2094SOL    HW2  885   1.861   0.991   2.194
 2095SOL     OW  886   2.737   1.646   2.199
 2095SOL    HW1  887   2.660   1.611   2.145
 2095SOL    HW2  888   2.705   1.717   2.261
 2115SOL     OW  889   1.889   1.596   3.841
 2115SOL    HW1  890   1.870   1.500   3.862
 2115SOL    HW2  891   1.856   1.654   3.916
 2140SOL     OW  892   2.973   1.776   3.961
 2140SOL    HW1  893   2.913   1.714   4.011
 2140SOL    HW2  894   3.004   1.732   3.876
 2142SOL     OW  895   2.326   1.743   4.047
 2142SOL    HW1  896   2.359   1.782   4.133
 2142SOL    HW2  897   2.402   1.736   3.982
 2166SOL     OW  898   2.350   1.385   3.898
 2166SOL    HW1  899   2.263   1.370   3.945
 2166SOL    HW2  900   2.333   1.411   3.803
 2219SOL     OW  901   2.534   1.616   3.878
 2219SOL    HW1  902   2.543   1.626   3.779
 2219SOL    HW2  903   2.494   1.527   3.899
 2223SOL     OW  904   3.056   1.612   3.755
 2223SOL    HW1  905   3.062   1.519   3.792
 2223SOL    HW2  906   2.997   1.612   3.675
 2226SOL     OW  907   3.366   1.607   3.768
 2226SOL    HW1  908   3.274   1.644   3.775
 2226SOL    HW2  909   3.404   1.627   3.678
 2243SOL     OW  910   2.721   1.374   3.740
 2243SOL    HW1  911   2.675   1.389   3.828
 2243SOL    HW2  912   2.765   1.459   3.710
 2262SOL     OW  913   2.737   1.646   4.061
 2262SOL    HW1  914   2.660   1.611   4.007
 2262SOL    HW2  915   2.705   1.717   4.123
 2264SOL     OW  916   2.087   2.137   0.996
 2264SOL    HW1  917   2.122   2.120   1.088
 2264SOL    HW2  918   1.999   2.092   0.984
 2266SOL     OW  919   2.431   3.137   1.165
 2266SOL    HW1  920   2.338   3.130   1.128
 2266SOL    HW2  921   2.442   3.226   1.209
 2270SOL     OW  922   2.630   3.006   1.023
 2270SOL    HW1  923   2.552   3.023   1.083
 2270SOL    HW2  924   2.664   3.093   0.987
 2271SOL     OW  925   2.712   2.660   1.823
 2271SOL    HW1  926   2.708   2.736   1.888
 2271SOL    HW2  927   2.734   2.696   1.732
 2273SOL     OW  928   2.548   3.023   1.803
 2273SOL    HW1  929   2.608   3.102   1.817
 2273SOL    HW2  930   2.462   3.054   1.762
 2274SOL     OW  931   2.197   3.297   1.061
 2274SOL    HW1  932   2.119   3.266   1.008
 2274SOL    HW2  933   2.255   3.355   1.004
 2275SOL     OW  934   3.322   3.367   1.339
 2275SOL    HW1  935   3.346   3.461   1.365
 2275SOL    HW2  936   3.306   3.313   1.421
 2276SOL     OW  937   2.300   2.254   1.499
 2276SOL    HW1  938   2.382   2.198   1.508
 2276SOL    HW2  939   2.219   2.196   1.503
 2279SOL     OW  940   2.989   3.203   1.690
 2279SOL    HW1  941   3.036   3.203   1.778
 2279SOL    HW2  942   2.941   3.116   1.679
 2282SOL     OW  943   2.482   3.648   1.439
 2282SOL    HW1  944   2.390   3.631   1.474
 2282SOL    HW2  945   2.510   3.740   1.465
 2284SOL     OW  946   3.456   1.976   1.480
 2284SOL    HW1  947   3.438   2.043   1.408
 2284SOL    HW2  948   3.453   2.022   1.569
 2290SOL     OW  949   1.975   2.599   1.597
 2290SOL    HW1  950   2.063   2.586   1.642
 2290SOL    HW2  951   1.962   2.696   1.575
 2292SOL     OW  952   3.155   3.090   1.423
 2292SOL    HW1  953   3.192   3.017   1.365
 2292SOL    HW2  954   3.207   3.095   1.508
 2294SOL     OW  955   2.059   2.838   1.264
 2294SOL    HW1  956   2.148   2.793   1.250
 2294SOL    HW2  957   1.986   2.773   1.245
 2296SOL     OW  958   3.049   3.654   1.616
 2296SOL    HW1  959   3.073   3.714   1.540
 2296SOL    HW2  960   3.056   3.559   1.586
 2297SOL     OW  961   2.179   2.113   1.801
 2297SOL    HW1  962   2.250   2.184   1.807
 2297SOL    HW2  963   2.091   2.152   1.829
 2301SOL     OW  964   3.143   2.207   0.944
 2301SOL    HW1  965   3.057   2.157   0.931
 2301SOL    HW2  966   3.205   2.153   1.000
 2303SOL     OW  967   2.669   2.467   1.465
 2303SOL    HW1  968   2.622   2.464   1.554
 2303SOL    HW2  969   2.618   2.412   1.399
 2304SOL     OW  970   3.256   2.331   1.674
 2304SOL    HW1  971   3.236   2.374   1.762
 2304SOL    HW2  972   3.334   2.269   1.683
 2305SOL     OW  973   2.835   2.752   1.572
 2305SOL    HW1  974   2.881   2.668   1.543
 2305SOL    HW2  975   2.779   2.786   1.497
 2306SOL     OW  976   2.853   2.272   1.242
 2306SOL    HW1  977   2.776   2.306   1.296
 2306SOL    HW2  978   2.819   2.221   1.163
 2309SOL     OW  979   1.992   3.683   1.571
 2309SOL    HW1  980   1.982   3.668   1.670
 2309SOL    HW2  981   1.906   3.719   1.535
 2311SOL     OW  982   3.581   2.447   1.831
 2311SOL    HW1  983   3.555   2.536   1.795
 2311SOL    HW2  984   3.579   2.379   1.758
 2317SOL     OW  985   3.089   3.412   1.506
 2317SOL    HW1  986   3.095   3.335   1.570
 2317SOL    HW2  987   3.037   3.386   1.426
 2320SOL     OW  988   2.323   3.128   1.727
 2320SOL    HW1  989   2.273   3.129   1.641
 2320SOL    HW2  990   2.260   3.110   1.803
 2322SOL     OW  991   2.064   2.147   1.498
 2322SOL    HW1  992   1.984   2.207   1.485
 2322SOL    HW2  993   2.054   2.098   1.584
 2326SOL     OW  994   2.111   3.647   1.241
 2326SOL    HW1  995   2.168   3.582   1.291
 2326SOL    HW2  996   2.095   3.614   1.148
 2329SOL     OW  997   3.409   2.084   1.729
 2329SOL    HW1  998   3.404   2.121   1.821
 2329SOL    HW2  999   3.337   2.015   1.717
 2330SOL     OW 1000   2.643   2.126   1.749
 2330SOL    HW1 1001   2.710   2.065   1.792
 2330SOL    HW2 1002   2.570   2.145   1.814
 2331SOL     OW 1003   2.750   3.376   1.195
 2331SOL    HW1 1004   2.727   3.351   1.101
 2331SOL    HW2 1005   2.811   3.307   1.234
 2332SOL     OW 1006   3.213   2.452   1.433
 2332SOL    HW1 1007   3.241   2.409   1.518
 2332SOL    HW2 1008   3.238   2.548   1.434
 2334SOL     OW 1009   2.784   2.365   0.899
 2334SOL    HW1 1010   2.759   2.356   0.803
 2334SOL    HW2 1011   2.832   2.283   0.930
 2339SOL     OW 1012   2.938   2.545   1.464
 2339SOL    HW1 1013   2.858   2.484   1.467
 2339SOL    HW2 1014   3.019   2.492   1.440
 2344SOL     OW 1015   1.940   2.418   1.386
 2344SOL    HW1 1016   2.032   2.417   1.345
 2344SOL    HW2 1017   1.934   2.492   1.453
 2345SOL     OW 1018   2.423   2.084   1.147
 2345SOL    HW1 1019   2.461   2.000   1.184
 2345SOL    HW2 1020   2.335   2.103   1.191
 2349SOL     OW 1021   3.328   2.452   0.992
 2349SOL    HW1 1022   3.298   2.357   0.999
 2349SOL    HW2 1023   3.401   2.468   1.058
 2355SOL     OW 1024   3.616   3.085   1.588
 2355SOL    HW1 1025   3.707   3.046   1.575
 2355SOL    HW2 1026   3.624   3.181   1.612
 2356SOL     OW 1027   2.926   3.209   1.340
 2356SOL    HW1 1028   2.846   3.186   1.395
 2356SOL    HW2 1029   3.009   3.183   1.389
 2357SOL     OW 1030   3.454   3.491   1.625
 2357SOL    HW1 1031   3.481   3.525   1.535
 2357SOL    HW2 1032   3.533   3.453   1.671
 2358SOL     OW 1033   2.973   3.057   1.100
 2358SOL    HW1 1034   2.933   3.101   1.181
 2358SOL    HW2 1035   2.932   3.094   1.017
 2360SOL     OW 1036   2.777   1.951   1.402
 2360SOL    HW1 1037   2.802   1.931   1.307
 2360SOL    HW2 1038   2.849   2.007   1.444
 2361SOL     OW 1039   2.842   2.978   1.719
 2361SOL    HW1 1040   2.743   2.984   1.729
 2361SOL    HW2 1041   2.865   2.898   1.663
 2363SOL     OW 1042   2.272   2.675   1.251
 2363SOL    HW1 1043   2.358   2.687   1.301
 2363SOL    HW2 1044   2.230   2.588   1.278
 2364SOL     OW 1045   3.136   2.248   1.262
 2364SOL    HW1 1046   3.157   2.322   1.326
 2364SOL    HW2 1047   3.047   2.265   1.219
 2365SOL     OW 1048   1.926   3.426   1.331
 2365SOL    HW1 1049   1.880   3.508   1.297
 2365SOL    HW2 1050   2.024   3.445   1.340
 2367SOL     OW 1051   2.428   2.399   0.865
 2367SOL    HW1 1052   2.440   2.465   0.791
 2367SOL    HW2 1053   2.474   2.433   0.948
 2369SOL     OW 1054   3.134   3.307   1.142
 2369SOL    HW1 1055   3.181   3.320   1.229
 2369SOL    HW2 1056   3.068   3.233   1.151
 2371SOL     OW 1057   2.216   3.372   1.329
 2371SOL    HW1 1058   2.195   3.328   1.242
 2371SOL    HW2 1059   2.313   3.398   1.332
 2372SOL     OW 1060   2.264   2.613   1.598
 2372SOL    HW1 1061   2.332   2.668   1.551
 2372SOL    HW2 1062   2.304   2.525   1.625
 2373SOL     OW 1063   3.449   2.641   1.670
 2373SOL    HW1 1064   3.357   2.679   1.665
 2373SOL    HW2 1065   3.509   2.688   1.605
 2374SOL     OW 1066   2.875   1.967   1.770
 2374SOL    HW1 1067   2.881   2.052   1.718
 2374SOL    HW2 1068   2.907   1.891   1.713
 2375SOL     OW 1069   2.366   1.912   1.740
 2375SOL    HW1 1070   2.324   1.855   1.670
 2375SOL    HW2 1071   2.300   1.981   1.772
 2376SOL     OW 1072   2.435   2.732   1.029
 2376SOL    HW1 1073   2.479   2.821   1.020
 2376SOL    HW2 1074   2.372   2.732   1.106
 2377SOL     OW 1075   3.222   2.724   1.045
 2377SOL    HW1 1076   3.147   2.724   0.979
 2377SOL    HW2 1077   3.259   2.632   1.054
 2379SOL     OW 1078   2.169   2.075   1.231
 2379SOL    HW1 1079   2.146   2.112   1.321
 2379SOL    HW2 1080   2.139   1.980   1.225
 2380SOL     OW 1081   1.899   3.172   1.282
 2380SOL    HW1 1082   1.952   3.123   1.350
 2380SOL    HW2 1083   1.921   3.270   1.287
 2381SOL     OW 1084   2.594   2.496   1.064
 2381SOL    HW1 1085   2.653   2.470   0.988
 2381SOL    HW2 1086   2.566   2.592   1.053
 2382SOL     OW 1087   3.590   2.797   1.854
 2382SOL    HW1 1088   3.544   2.790   1.765
 2382SOL    HW2 1089   3.528   2.841   1.920
 2385SOL     OW 1090   2.885   2.628   0.966
 2385SOL    HW1 1091   2.900   2.649   1.062
 2385SOL    HW2 1092   2.855   2.533   0.957
 2386SOL     OW 1093   2.842   3.435   1.700
 2386SOL    HW1 1094   2.822   3.479   1.612
 2386SOL    HW2 1095   2.881   3.344   1.684
 2387SOL     OW 1096   3.721   3.380   1.605
 2387SOL    HW1 1097   3.735   3.407   1.510
 2387SOL    HW2 1098   3.804   3.402   1.658
 2388SOL     OW 1099   2.212   2.760   1.804
 2388SOL    HW1 1100   2.288   2.804   1.852
 2388SOL    HW2 1101   2.247   2.713   1.722
 2392SOL     OW 1102   2.181   2.672   0.949
 2392SOL    HW1 1103   2.274   2.708   0.954
 2392SOL    HW2 1104   2.175   2.587   1.001
 2393SOL     OW 1105   2.201   2.371   1.006
 2393SOL    HW1 1106   2.149   2.288   0.989
 2393SOL    HW2 1107   2.278   2.376   0.942
 2394SOL     OW 1108   3.000   2.242   1.678
 2394SOL    HW1 1109   2.955   2.305   1.742
 2394SOL    HW2 1110   3.093   2.273   1.661
 2395SOL     OW 1111   3.022   2.069   1.477
 2395SOL    HW1 1112   3.022   2.133   1.554
 2395SOL    HW2 1113   3.050   2.117   1.394
 2399SOL     OW 1114   2.864   2.658   1.238
 2399SOL    HW1 1115   2.905   2.626   1.324
 2399SOL    HW2 1116   2.768   2.631   1.235
 2400SOL     OW 1117   1.902   2.406   1.114
 2400SOL    HW1 1118   1.987   2.373   1.073
 2400SOL    HW2 1119   1.915   2.421   1.212
 2401SOL     OW 1120   2.051   2.382   1.722
 2401SOL    HW1 1121   2.110   2.342   1.652
 2401SOL    HW2 1122   1.993   2.453   1.681
 2402SOL     OW 1123   3.231   2.812   1.660
 2402SOL    HW1 1124   3.270   2.901   1.680
 2402SOL    HW2 1125   3.241   2.792   1.563
 2404SOL     OW 1126   3.519   2.466   1.206
 2404SOL    HW1 1127   3.481   2.397   1.268
 2404SOL    HW2 1128   3.601   2.430   1.162
 2405SOL     OW 1129   2.114   3.426   1.744
 2405SOL    HW1 1130   2.084   3.483   1.820
 2405SOL    HW2 1131   2.107   3.329   1.770
 2406SOL     OW 1132   2.533   2.326   1.269
 2406SOL    HW1 1133   2.499   2.237   1.239
 2406SOL    HW2 1134   2.559   2.380   1.189
 2407SOL     OW 1135   2.792   3.540   1.465
 2407SOL    HW1 1136   2.768   3.522   1.370
 2407SOL    HW2 1137   2.822   3.634   1.475
 2409SOL     OW 1138   2.021   2.999   1.466
 2409SOL    HW1 1139   2.043   2.938   1.542
 2409SOL    HW2 1140   2.031   2.950   1.380
 2410SOL     OW 1141   3.209   2.921   1.234
 2410SOL    HW1 1142   3.233   2.858   1.160
 2410SOL    HW2 1143   3.119   2.961   1.216
 2414SOL     OW 1144   1.945   3.120   1.022
 2414SOL    HW1 1145   1.940   3.119   1.122
 2414SOL    HW2 1146   1.862   3.079   0.984
 2415SOL     OW 1147   2.550   3.524   1.716
 2415SOL    HW1 1148   2.494   3.605   1.725
 2415SOL    HW2 1149   2.602   3.528   1.630
 2419SOL     OW 1150   1.992   3.656   1.851
 2419SOL    HW1 1151   1.951   3.582   1.904
 2419SOL    HW2 1152   2.056   3.707   1.909
 2421SOL     OW 1153   2.692   3.135   1.422
 2421SOL    HW1 1154   2.687   3.168   1.517
 2421SOL    HW2 1155   2.606   3.154   1.376
 2423SOL     OW 1156   3.512   3.582   1.394
 2423SOL    HW1 1157   3.565   3.592   1.310
 2423SOL    HW2 1158   3.485   3.672   1.428
 2427SOL     OW 1159   2.684   2.864   1.372
 2427SOL    HW1 1160   2.724   2.863   1.280
 2427SOL    HW2 1161   2.694   2.956   1.412
 2430SOL     OW 1162   2.234   3.150   1.490
 2430SOL    HW1 1163   2.221   3.243   1.456
 2430SOL    HW2 1164   2.150   3.098   1.477
 2431SOL     OW 1165   3.476   3.154   1.289
 2431SOL    HW1 1166   3.536   3.157   1.369
 2431SOL    HW2 1167   3.401   3.218   1.302
 2433SOL     OW 1168   2.876   2.098   0.971
 2433SOL    HW1 1169   2.868   2.062   0.878
 2433SOL    HW2 1170   2.874   2.022   1.036
 2435SOL     OW 1171   3.571   2.247   1.381
 2435SOL    HW1 1172   3.644   2.316   1.385
 2435SOL    HW2 1173   3.599   2.172   1.322
 2437SOL     OW 1174   1.967   2.875   1.726
 2437SOL    HW1 1175   1.890   2.842   1.780
 2437SOL    HW2 1176   2.052   2.845   1.768
 2438SOL     OW 1177   2.534   2.065   1.489
 2438SOL    HW1 1178   2.624   2.049   1.449
 2438SOL    HW2 1179   2.542   2.070   1.588
 2440SOL     OW 1180   3.302   2.718   1.398
 2440SOL    HW1 1181   3.245   2.770   1.335
 2440SOL    HW2 1182   3.398   2.730   1.374
 2443SOL     OW 1183   2.475   2.704   1.431
 2443SOL    HW1 1184   2.531   2.785   1.414
 2443SOL    HW2 1185   2.534   2.624   1.434
 2445SOL     OW 1186   2.578   2.427   1.708
 2445SOL    HW1 1187   2.597   2.492   1.782
 2445SOL    HW2 1188   2.638   2.347   1.717
 2446SOL     OW 1189   3.312   3.082   1.633
 2446SOL    HW1 1190   3.303   3.072   1.732
 2446SOL    HW2 1191   3.408   3.075   1.607
 2447SOL     OW 1192   2.252   3.603   1.560
 2447SOL    HW1 1193   2.161   3.644   1.558
 2447SOL    HW2 1194   2.245   3.509   1.592
 2448SOL     OW 1195   3.536   2.745   1.254
 2448SOL    HW1 1196   3.509   2.656   1.217
 2448SOL    HW2 1197   3.537   2.813   1.181
 2451SOL     OW 1198   3.639   2.204   1.642
 2451SOL    HW1 1199   3.622   2.235   1.548
 2451SOL    HW2 1200   3.555   2.167   1.680
 2452SOL     OW 1201   3.592   2.796   1.517
 2452SOL    HW1 1202   3.630   2.887   1.532
 2452SOL    HW2 1203   3.584   2.779   1.418
 2455SOL     OW 1204   2.721   2.818   0.861
 2455SOL    HW1 1205   2.775   2.749   0.909
 2455SOL    HW2 1206   2.689   2.887   0.927
 2458SOL     OW 1207   2.083   3.176   1.844
 2458SOL    HW1 1208   2.018   3.103   1.823
 2458SOL    HW2 1209   2.087   3.190   1.942
 2460SOL     OW 1210   2.534   3.253   1.624
 2460SOL    HW1 1211   2.456   3.203   1.662
 2460SOL    HW2 1212   2.531   3.348   1.655
 2464SOL     OW 1213   2.179   2.409   1.280
 2464SOL    HW1 1214   2.217   2.350   1.352
 2464SOL    HW2 1215   2.219   2.383   1.192
 2466SOL     OW 1216   3.286   2.076   1.112
 2466SOL    HW1 1217   3.338   2.011   1.167
 2466SOL    HW2 1218   3.237   2.139   1.173
 2467SOL     OW 1219   2.863   1.896   1.154
 2467SOL    HW1 1220   2.800   1.824   1.123
 2467SOL    HW2 1221   2.956   1.860   1.154
 2469SOL     OW 1222   2.480   3.429   1.284
 2469SOL    HW1 1223   2.475   3.511   1.341
 2469SOL    HW2 1224   2.569   3.426   1.239
 2475SOL     OW 1225   2.092   2.490   1.975
 2475SOL    HW1 1226   1.999   2.488   2.012
 2475SOL    HW2 1227   2.093   2.451   1.883
 2476SOL     OW 1228   2.087   2.137   2.858
 2476SOL    HW1 1229   2.122   2.120   2.950
 2476SOL    HW2 1230   1.999   2.092   2.846
 2477SOL     OW 1231   1.881   2.230   2.509
 2477SOL    HW1 1232   1.799   2.273   2.548
 2477SOL    HW2 1233   1.853   2.157   2.446
 2478SOL     OW 1234   2.431   3.137   3.027
 2478SOL    HW1 1235   2.338   3.130   2.990
 2478SOL    HW2 1236   2.442   3.226   3.071
 2479SOL     OW 1237   3.417   3.373   2.565
 2479SOL    HW1 1238   3.360   3.357   2.646
 2479SOL    HW2 1239   3.358   3.383   2.485
 2480SOL     OW 1240   2.997   2.565   2.579
 2480SOL    HW1 1241   3.054   2.643   2.554
 2480SOL    HW2 1242   2.937   2.591   2.655
 2481SOL     OW 1243   3.617   2.469   2.093
 2481SOL    HW1 1244   3.605   2.456   1.994
 2481SOL    HW2 1245   3.587   2.388   2.142
 2482SOL     OW 1246   2.630   3.006   2.885
 2482SOL    HW1 1247   2.552   3.023   2.945
 2482SOL    HW2 1248   2.664   3.093   2.849
 2483SOL     OW 1249   2.712   2.660   3.685
 2483SOL    HW1 1250   2.708   2.736   3.750
 2483SOL    HW2 1251   2.734   2.696   3.594
 2484SOL     OW 1252   2.548   3.023   3.665
 2484SOL    HW1 1253   2.608   3.102   3.679
 2484SOL    HW2 1254   2.462   3.054   3.624
 2485SOL     OW 1255   2.197   3.297   2.923
 2485SOL    HW1 1256   2.119   3.266   2.870
 2485SOL    HW2 1257   2.255   3.355   2.866
 2486SOL     OW 1258   3.322   3.367   3.201
 2486SOL    HW1 1259   3.346   3.461   3.227
 2486SOL    HW2 1260   3.306   3.313   3.283
 2487SOL     OW 1261   2.300   2.254   3.361
 2487SOL    HW1 1262   2.382   2.198   3.370
 2487SOL    HW2 1263   2.219   2.196   3.365
 2488SOL     OW 1264   3.465   2.309   2.599
 2488SOL    HW1 1265   3.391   2.355   2.549
 2488SOL    HW2 1266   3.516   2.377   2.652
 2489SOL     OW 1267   2.093   3.575   2.345
 2489SOL    HW1 1268   2.127   3.652   2.399
 2489SOL    HW2 1269   2.137   3.575   2.255
 2490SOL     OW 1270   2.989   3.203   3.552
 2490SOL    HW1 1271   3.036   3.203   3.640
 2490SOL    HW2 1272   2.941   3.116   3.541
 2491SOL     OW 1273   2.092   3.296   2.400
 2491SOL    HW1 1274   2.066   3.392   2.400
 2491SOL    HW2 1275   2.021   3.242   2.445
 2492SOL     OW 1276   2.102   2.953   2.748
 2492SOL    HW1 1277   2.116   2.869   2.800
 2492SOL    HW2 1278   2.047   3.017   2.803
 2493SOL     OW 1279   2.482   3.648   3.301
 2493SOL    HW1 1280   2.390   3.631   3.336
 2493SOL    HW2 1281   2.510   3.740   3.327
 2494SOL     OW 1282   3.456   1.976   3.342
 2494SOL    HW1 1283   3.438   2.043   3.270
 2494SOL    HW2 1284   3.453   2.022   3.431
 2495SOL     OW 1285   1.984   2.505   2.425
 2495SOL    HW1 1286   1.939   2.417   2.442
 2495SOL    HW2 1287   1.983   2.559   2.509
 2496SOL     OW 1288   3.704   3.629   2.221
 2496SOL    HW1 1289   3.758   3.600   2.301
 2496SOL    HW2 1290   3.734   3.719   2.192
 2497SOL     OW 1291   1.889   3.458   1.979
 2497SOL    HW1 1292   1.870   3.362   2.000
 2497SOL    HW2 1293   1.856   3.516   2.054
 2498SOL     OW 1294   3.551   2.784   2.474
 2498SOL    HW1 1295   3.646   2.755   2.482
 2498SOL    HW2 1296   3.543   2.849   2.399
 2499SOL     OW 1297   3.503   2.970   2.294
 2499SOL    HW1 1298   3.589   2.972   2.242
 2499SOL    HW2 1299   3.517   3.017   2.382
 2500SOL     OW 1300   1.975   2.599   3.459
 2500SOL    HW1 1301   2.063   2.586   3.504
 2500SOL    HW2 1302   1.962   2.696   3.437
 2501SOL     OW 1303   2.475   3.227   2.588
 2501SOL    HW1 1304   2.426   3.140   2.597
 2501SOL    HW2 1305   2.452   3.270   2.501
 2502SOL     OW 1306   3.155   3.090   3.285
 2502SOL    HW1 1307   3.192   3.017   3.227
 2502SOL    HW2 1308   3.207   3.095   3.370
 2503SOL     OW 1309   2.671   1.866   2.364
 2503SOL    HW1 1310   2.711   1.957   2.355
 2503SOL    HW2 1311   2.571   1.874   2.370
 2504SOL     OW 1312   2.059   2.838   3.126
 2504SOL    HW1 1313   2.148   2.793   3.112
 2504SOL    HW2 1314   1.986   2.773   3.107
 2505SOL     OW 1315   3.387   2.861   2.052
 2505SOL    HW1 1316   3.324   2.785   2.065
 2505SOL    HW2 1317   3.435   2.879   2.138
 2506SOL     OW 1318   3.049   3.654   3.478
 2506SOL    HW1 1319   3.073   3.714   3.402
 2506SOL    HW2 1320   3.056   3.559   3.448
 2507SOL     OW 1321   2.179   2.113   3.663
 2507SOL    HW1 1322   2.250   2.184   3.669
 2507SOL    HW2 1323   2.091   2.152   3.691
 2508SOL     OW 1324   3.328   3.279   2.815
 2508SOL    HW1 1325   3.269   3.285   2.895
 2508SOL    HW2 1326   3.313   3.191   2.769
 2509SOL     OW 1327   3.529   3.576   2.434
 2509SOL    HW1 1328   3.488   3.553   2.346
 2509SOL    HW2 1329   3.511   3.502   2.499
 2510SOL     OW 1330   2.460   2.591   2.132
 2510SOL    HW1 1331   2.484   2.660   2.064
 2510SOL    HW2 1332   2.382   2.624   2.186
 2511SOL     OW 1333   3.143   2.207   2.806
 2511SOL    HW1 1334   3.057   2.157   2.793
 2511SOL    HW2 1335   3.205   2.153   2.862
 2512SOL     OW 1336   3.438   3.524   2.169
 2512SOL    HW1 1337   3.527   3.570   2.172
 2512SOL    HW2 1338   3.417   3.500   2.074
 2513SOL     OW 1339   3.256   2.331   3.536
 2513SOL    HW1 1340   3.236   2.374   3.624
 2513SOL    HW2 1341   3.334   2.269   3.545
 2514SOL     OW 1342   2.835   2.752   3.434
 2514SOL    HW1 1343   2.881   2.668   3.405
 2514SOL    HW2 1344   2.779   2.786   3.359
 2515SOL     OW 1345   2.903   2.563   2.291
 2515SOL    HW1 1346   2.929   2.559   2.387
 2515SOL    HW2 1347   2.818   2.512   2.277
 2516SOL     OW 1348   1.938   2.673   2.651
 2516SOL    HW1 1349   2.037   2.661   2.660
 2516SOL    HW2 1350   1.914   2.768   2.672
 2517SOL     OW 1351   1.992   3.683   3.433
 2517SOL    HW1 1352   1.982   3.668   3.532
 2517SOL    HW2 1353   1.906   3.719   3.397
 2518SOL     OW 1354   2.727   2.210   2.057
 2518SOL    HW1 1355   2.786   2.273   2.008
 2518SOL    HW2 1356   2.746   2.116   2.028
 2519SOL     OW 1357   3.581   2.447   3.693
 2519SOL    HW1 1358   3.555   2.536   3.657
 2519SOL    HW2 1359   3.579   2.379   3.620
 2520SOL     OW 1360   3.224   3.006   2.407
 2520SOL    HW1 1361   3.307   2.977   2.359
 2520SOL    HW2 1362   3.175   3.073   2.351
 2521SOL     OW 1363   2.412   2.058   2.747
 2521SOL    HW1 1364   2.407   2.053   2.847
 2521SOL    HW2 1365   2.414   2.154   2.718
 2522SOL     OW 1366   2.870   3.318   2.339
 2522SOL    HW1 1367   2.824   3.390   2.287
 2522SOL    HW2 1368   2.866   3.338   2.437
 2523SOL     OW 1369   2.213   3.663   2.715
 2523SOL    HW1 1370   2.263   3.577   2.721
 2523SOL    HW2 1371   2.278   3.740   2.712
 2524SOL     OW 1372   3.657   2.928   2.735
 2524SOL    HW1 1373   3.595   2.913   2.659
 2524SOL    HW2 1374   3.605   2.939   2.820
 2525SOL     OW 1375   3.089   3.412   3.368
 2525SOL    HW1 1376   3.095   3.335   3.432
 2525SOL    HW2 1377   3.037   3.386   3.288
 2526SOL     OW 1378   2.183   2.805   2.104
 2526SOL    HW1 1379   2.265   2.844   2.062
 2526SOL    HW2 1380   2.156   2.723   2.055
 2527SOL     OW 1381   3.320   2.597   2.590
 2527SOL    HW1 1382   3.315   2.532   2.665
 2527SOL    HW2 1383   3.400   2.656   2.603
 2528SOL     OW 1384   2.323   3.128   3.589
 2528SOL    HW1 1385   2.273   3.129   3.503
 2528SOL    HW2 1386   2.260   3.110   3.665
 2529SOL     OW 1387   2.973   3.638   2.099
 2529SOL    HW1 1388   2.913   3.576   2.149
 2529SOL    HW2 1389   3.004   3.594   2.014
 2530SOL     OW 1390   2.064   2.147   3.360
 2530SOL    HW1 1391   1.984   2.207   3.347
 2530SOL    HW2 1392   2.054   2.098   3.446
 2531SOL     OW 1393   3.494   3.239   1.943
 2531SOL    HW1 1394   3.462   3.333   1.933
 2531SOL    HW2 1395   3.418   3.176   1.931
 2532SOL     OW 1396   2.326   3.605   2.185
 2532SOL    HW1 1397   2.359   3.644   2.271
 2532SOL    HW2 1398   2.402   3.598   2.120
 2533SOL     OW 1399   3.262   1.969   2.288
 2533SOL    HW1 1400   3.238   1.932   2.198
 2533SOL    HW2 1401   3.361   1.985   2.292
 2534SOL     OW 1402   2.111   3.647   3.103
 2534SOL    HW1 1403   2.168   3.582   3.153
 2534SOL    HW2 1404   2.095   3.614   3.010
 2535SOL     OW 1405   2.802   3.560   2.766
 2535SOL    HW1 1406   2.882   3.503   2.787
 2535SOL    HW2 1407   2.753   3.520   2.689
 2536SOL     OW 1408   2.244   2.562   2.342
 2536SOL    HW1 1409   2.289   2.472   2.339
 2536SOL    HW2 1410   2.150   2.551   2.375
 2537SOL     OW 1411   3.409   2.084   3.591
 2537SOL    HW1 1412   3.404   2.121   3.683
 2537SOL    HW2 1413   3.337   2.015   3.579
 2538SOL     OW 1414   2.476   1.984   1.979
 2538SOL    HW1 1415   2.574   1.962   1.986
 2538SOL    HW2 1416   2.445   1.967   1.886
 2539SOL     OW 1417   2.643   2.126   3.611
 2539SOL    HW1 1418   2.710   2.065   3.654
 2539SOL    HW2 1419   2.570   2.145   3.676
 2540SOL     OW 1420   2.750   3.376   3.057
 2540SOL    HW1 1421   2.727   3.351   2.963
 2540SOL    HW2 1422   2.811   3.307   3.096
 2541SOL     OW 1423   3.213   2.452   3.295
 2541SOL    HW1 1424   3.241   2.409   3.380
 2541SOL    HW2 1425   3.238   2.548   3.296
 2542SOL     OW 1426   2.665   3.264   2.786
 2542SOL    HW1 1427   2.755   3.278   2.744
 2542SOL    HW2 1428   2.594   3.266   2.715
 2543SOL     OW 1429   2.401   1.926   2.374
 2543SOL    HW1 1430   2.320   1.927   2.432
 2543SOL    HW2 1431   2.404   2.009   2.319
 2544SOL     OW 1432   3.296   3.050   1.903
 2544SOL    HW1 1433   3.328   2.974   1.960
 2544SOL    HW2 1434   3.204   3.077   1.933
 2545SOL     OW 1435   2.159   1.897   2.033
 2545SOL    HW1 1436   2.208   1.981   2.012
 2545SOL    HW2 1437   2.221   1.832   2.078
 2546SOL     OW 1438   2.797   2.098   2.342
 2546SOL    HW1 1439   2.749   2.139   2.264
 2546SOL    HW2 1440   2.896   2.096   2.323
 2547SOL     OW 1441   2.938   2.545   3.326
 2547SOL    HW1 1442   2.858   2.484   3.329
 2547SOL    HW2 1443   3.019   2.492   3.302
 2548SOL     OW 1444   3.089   3.432   2.655
 2548SOL    HW1 1445   3.110   3.506   2.590
 2548SOL    HW2 1446   3.157   3.432   2.728
 2549SOL     OW 1447   2.321   3.014   2.603
 2549SOL    HW1 1448   2.250   2.987   2.668
 2549SOL    HW2 1449   2.295   2.986   2.510
 2550SOL     OW 1450   3.133   3.659   2.453
 2550SOL    HW1 1451   3.177   3.723   2.389
 2550SOL    HW2 1452   3.083   3.711   2.523
 2551SOL     OW 1453   2.894   2.411   1.878
 2551SOL    HW1 1454   2.853   2.493   1.839
 2551SOL    HW2 1455   2.958   2.437   1.951
 2552SOL     OW 1456   1.940   2.418   3.248
 2552SOL    HW1 1457   2.032   2.417   3.207
 2552SOL    HW2 1458   1.934   2.492   3.315
 2553SOL     OW 1459   2.423   2.084   3.009
 2553SOL    HW1 1460   2.461   2.000   3.046
 2553SOL    HW2 1461   2.335   2.103   3.053
 2554SOL     OW 1462   2.728   2.316   2.504
 2554SOL    HW1 1463   2.696   2.388   2.442
 2554SOL    HW2 1464   2.752   2.235   2.451
 2555SOL     OW 1465   2.879   1.901   2.615
 2555SOL    HW1 1466   2.807   1.906   2.546
 2555SOL    HW2 1467   2.855   1.832   2.684
 2556SOL     OW 1468   3.291   3.035   2.729
 2556SOL    HW1 1469   3.236   2.951   2.722
 2556SOL    HW2 1470   3.317   3.064   2.637
 2557SOL     OW 1471   3.328   2.452   2.854
 2557SOL    HW1 1472   3.298   2.357   2.861
 2557SOL    HW2 1473   3.401   2.468   2.920
 2558SOL     OW 1474   3.719   2.695   2.239
 2558SOL    HW1 1475   3.761   2.631   2.303
 2558SOL    HW2 1476   3.681   2.644   2.161
 2559SOL     OW 1477   2.350   3.247   2.036
 2559SOL    HW1 1478   2.263   3.232   2.083
 2559SOL    HW2 1479   2.333   3.273   1.941
 2560SOL     OW 1480   3.526   3.142   2.519
 2560SOL    HW1 1481   3.625   3.150   2.533
 2560SOL    HW2 1482   3.481   3.226   2.550
 2561SOL     OW 1483   3.252   2.437   1.940
 2561SOL    HW1 1484   3.198   2.416   2.021
 2561SOL    HW2 1485   3.343   2.396   1.949
 2562SOL     OW 1486   2.389   2.118   2.190
 2562SOL    HW1 1487   2.416   2.059   2.115
 2562SOL    HW2 1488   2.389   2.213   2.159
 2563SOL     OW 1489   3.616   3.085   3.450
 2563SOL    HW1 1490   3.707   3.046   3.437
 2563SOL    HW2 1491   3.624   3.181   3.474
 2564SOL     OW 1492   2.926   3.209   3.202
 2564SOL    HW1 1493   2.846   3.186   3.257
 2564SOL    HW2 1494   3.009   3.183   3.251
 2565SOL     OW 1495   3.454   3.491   3.487
 2565SOL    HW1 1496   3.481   3.525   3.397
 2565SOL    HW2 1497   3.533   3.453   3.533
 2566SOL     OW 1498   2.973   3.057   2.962
 2566SOL    HW1 1499   2.933   3.101   3.043
 2566SOL    HW2 1500   2.932   3.094   2.879
 2567SOL     OW 1501   3.500   2.961   2.941
 2567SOL    HW1 1502   3.505   3.042   3.000
 2567SOL    HW2 1503   3.414   2.963   2.890
 2568SOL     OW 1504   2.777   1.951   3.264
 2568SOL    HW1 1505   2.802   1.931   3.169
 2568SOL    HW2 1506   2.849   2.007   3.306
 2569SOL     OW 1507   2.842   2.978   3.581
 2569SOL    HW1 1508   2.743   2.984   3.591
 2569SOL    HW2 1509   2.865   2.898   3.525
 2570SOL     OW 1510   2.272   2.675   3.113
 2570SOL    HW1 1511   2.358   2.687   3.163
 2570SOL    HW2 1512   2.230   2.588   3.140
 2571SOL     OW 1513   3.136   2.248   3.124
 2571SOL    HW1 1514   3.157   2.322   3.188
 2571SOL    HW2 1515   3.047   2.265   3.081
 2572SOL     OW 1516   1.926   3.426   3.193
 2572SOL    HW1 1517   1.880   3.508   3.159
 2572SOL    HW2 1518   2.024   3.445   3.202
 2573SOL     OW 1519   2.229   2.962   2.363
 2573SOL    HW1 1520   2.222   3.045   2.307
 2573SOL    HW2 1521   2.233   2.882   2.303
 2574SOL     OW 1522   3.114   3.210   2.250
 2574SOL    HW1 1523   3.164   3.287   2.290
 2574SOL    HW2 1524   3.019   3.212   2.282
 2575SOL     OW 1525   3.134   3.307   3.004
 2575SOL    HW1 1526   3.181   3.320   3.091
 2575SOL    HW2 1527   3.068   3.233   3.013
 2576SOL     OW 1528   3.444   2.501   2.334
 2576SOL    HW1 1529   3.413   2.562   2.407
 2576SOL    HW2 1530   3.494   2.553   2.265
 2577SOL     OW 1531   2.216   3.372   3.191
 2577SOL    HW1 1532   2.195   3.328   3.104
 2577SOL    HW2 1533   2.313   3.398   3.194
 2578SOL     OW 1534   2.264   2.613   3.460
 2578SOL    HW1 1535   2.332   2.668   3.413
 2578SOL    HW2 1536   2.304   2.525   3.487
 2579SOL     OW 1537   3.449   2.641   3.532
 2579SOL    HW1 1538   3.357   2.679   3.527
 2579SOL    HW2 1539   3.509   2.688   3.467
 2580SOL     OW 1540   2.875   1.967   3.632
 2580SOL    HW1 1541   2.881   2.052   3.580
 2580SOL    HW2 1542   2.907   1.891   3.575
 2581SOL     OW 1543   2.366   1.912   3.602
 2581SOL    HW1 1544   2.324   1.855   3.532
 2581SOL    HW2 1545   2.300   1.981   3.634
 2582SOL     OW 1546   2.435   2.732   2.891
 2582SOL    HW1 1547   2.479   2.821   2.882
 2582SOL    HW2 1548   2.372   2.732   2.968
 2583SOL     OW 1549   3.222   2.724   2.907
 2583SOL    HW1 1550   3.147   2.724   2.841
 2583SOL    HW2 1551   3.259   2.632   2.916
 2584SOL     OW 1552   3.071   2.387   2.137
 2584SOL    HW1 1553   3.084   2.303   2.191
 2584SOL    HW2 1554   3.042   2.461   2.197
 2585SOL     OW 1555   2.169   2.075   3.093
 2585SOL    HW1 1556   2.146   2.112   3.183
 2585SOL    HW2 1557   2.139   1.980   3.087
 2586SOL     OW 1558   1.899   3.172   3.144
 2586SOL    HW1 1559   1.952   3.123   3.212
 2586SOL    HW2 1560   1.921   3.270   3.149
 2587SOL     OW 1561   3.590   2.797   3.716
 2587SOL    HW1 1562   3.544   2.790   3.627
 2587SOL    HW2 1563   3.528   2.841   3.782
 2588SOL     OW 1564   2.169   1.925   2.480
 2588SOL    HW1 1565   2.158   2.019   2.513
 2588SOL    HW2 1566   2.164   1.862   2.557
 2589SOL     OW 1567   3.484   2.229   2.236
 2589SOL    HW1 1568   3.486   2.153   2.300
 2589SOL    HW2 1569   3.436   2.306   2.276
 2590SOL     OW 1570   2.842   3.435   3.562
 2590SOL    HW1 1571   2.822   3.479   3.474
 2590SOL    HW2 1572   2.881   3.344   3.546
 2591SOL     OW 1573   3.721   3.380   3.467
 2591SOL    HW1 1574   3.735   3.407   3.372
 2591SOL    HW2 1575   3.804   3.402   3.520
 2592SOL     OW 1576   2.212   2.760   3.666
 2592SOL    HW1 1577   2.288   2.804   3.714
 2592SOL    HW2 1578   2.247   2.713   3.584
 2593SOL     OW 1579   3.402   2.136   1.987
 2593SOL    HW1 1580   3.341   2.061   2.010
 2593SOL    HW2 1581   3.424   2.188   2.070
 2594SOL     OW 1582   3.165   2.700   1.904
 2594SOL    HW1 1583   3.199   2.607   1.919
 2594SOL    HW2 1584   3.183   2.727   1.809
 2595SOL     OW 1585   2.930   3.195   2.711
 2595SOL    HW1 1586   2.937   3.111   2.656
 2595SOL    HW2 1587   2.992   3.264   2.675
 2596SOL     OW 1588   2.181   2.672   2.811
 2596SOL    HW1 1589   2.274   2.708   2.816
 2596SOL    HW2 1590   2.175   2.587   2.863
 2597SOL     OW 1591   2.201   2.371   2.868
 2597SOL    HW1 1592   2.149   2.288   2.851
 2597SOL    HW2 1593   2.278   2.376   2.804
 2598SOL     OW 1594   3.000   2.242   3.540
 2598SOL    HW1 1595   2.955   2.305   3.604
 2598SOL    HW2 1596   3.093   2.273   3.523
 2599SOL     OW 1597   3.022   2.069   3.339
 2599SOL    HW1 1598   3.022   2.133   3.416
 2599SOL    HW2 1599   3.050   2.117   3.256
 2600SOL     OW 1600   1.870   3.188   2.062
 2600SOL    HW1 1601   1.777   3.209   2.031
 2600SOL    HW2 1602   1.880   3.089   2.075
 2601SOL     OW 1603   1.950   3.663   2.789
 2601SOL    HW1 1604   1.908   3.577   2.762
 2601SOL    HW2 1605   2.044   3.666   2.755
 2602SOL     OW 1606   2.366   3.430   2.772
 2602SOL    HW1 1607   2.432   3.504   2.781
 2602SOL    HW2 1608   2.410   3.351   2.730
 2603SOL     OW 1609   2.864   2.658   3.100
 2603SOL    HW1 1610   2.905   2.626   3.186
 2603SOL    HW2 1611   2.768   2.631   3.097
 2604SOL     OW 1612   1.902   2.406   2.976
 2604SOL    HW1 1613   1.987   2.373   2.935
 2604SOL    HW2 1614   1.915   2.421   3.074
 2605SOL     OW 1615   2.051   2.382   3.584
 2605SOL    HW1 1616   2.110   2.342   3.514
 2605SOL    HW2 1617   1.993   2.453   3.543
 2606SOL     OW 1618   3.231   2.812   3.522
 2606SOL    HW1 1619   3.270   2.901   3.542
 2606SOL    HW2 1620   3.241   2.792   3.425
 2607SOL     OW 1621   2.677   2.434   2.187
 2607SOL    HW1 1622   2.684   2.345   2.141
 2607SOL    HW2 1623   2.583   2.468   2.179
 2608SOL     OW 1624   3.519   2.466   3.068
 2608SOL    HW1 1625   3.481   2.397   3.130
 2608SOL    HW2 1626   3.601   2.430   3.024
 2609SOL     OW 1627   2.114   3.426   3.606
 2609SOL    HW1 1628   2.084   3.483   3.682
 2609SOL    HW2 1629   2.107   3.329   3.632
 2610SOL     OW 1630   2.792   3.540   3.327
 2610SOL    HW1 1631   2.768   3.522   3.232
 2610SOL    HW2 1632   2.822   3.634   3.337
 2611SOL     OW 1633   2.335   2.362   2.053
 2611SOL    HW1 1634   2.396   2.442   2.057
 2611SOL    HW2 1635   2.240   2.393   2.060
 2612SOL     OW 1636   2.021   2.999   3.328
 2612SOL    HW1 1637   2.043   2.938   3.404
 2612SOL    HW2 1638   2.031   2.950   3.242
 2613SOL     OW 1639   3.209   2.921   3.096
 2613SOL    HW1 1640   3.233   2.858   3.022
 2613SOL    HW2 1641   3.119   2.961   3.078
 2614SOL     OW 1642   3.164   2.717   2.171
 2614SOL    HW1 1643   3.078   2.686   2.213
 2614SOL    HW2 1644   3.160   2.703   2.072
 2615SOL     OW 1645   3.621   3.609   3.016
 2615SOL    HW1 1646   3.682   3.639   2.943
 2615SOL    HW2 1647   3.583   3.520   2.994
 2616SOL     OW 1648   3.114   3.593   2.990
 2616SOL    HW1 1649   3.198   3.598   2.936
 2616SOL    HW2 1650   3.091   3.497   3.008
 2617SOL     OW 1651   1.945   3.120   2.884
 2617SOL    HW1 1652   1.940   3.119   2.984
 2617SOL    HW2 1653   1.862   3.079   2.846
 2618SOL     OW 1654   2.550   3.524   3.578
 2618SOL    HW1 1655   2.494   3.605   3.587
 2618SOL    HW2 1656   2.602   3.528   3.492
 2619SOL     OW 1657   3.588   1.997   2.385
 2619SOL    HW1 1658   3.661   1.980   2.318
 2619SOL    HW2 1659   3.557   1.910   2.423
 2620SOL     OW 1660   3.250   3.435   2.339
 2620SOL    HW1 1661   3.317   3.447   2.265
 2620SOL    HW2 1662   3.210   3.524   2.362
 2621SOL     OW 1663   1.992   3.656   3.713
 2621SOL    HW1 1664   1.951   3.582   3.766
 2621SOL    HW2 1665   2.056   3.707   3.771
 2622SOL     OW 1666   3.142   2.789   2.534
 2622SOL    HW1 1667   3.202   2.708   2.536
 2622SOL    HW2 1668   3.182   2.858   2.474
 2623SOL     OW 1669   2.692   3.135   3.284
 2623SOL    HW1 1670   2.687   3.168   3.379
 2623SOL    HW2 1671   2.606   3.154   3.238
 2624SOL     OW 1672   2.534   3.478   2.016
 2624SOL    HW1 1673   2.543   3.488   1.917
 2624SOL    HW2 1674   2.494   3.389   2.037
 2625SOL     OW 1675   3.512   3.582   3.256
 2625SOL    HW1 1676   3.565   3.592   3.172
 2625SOL    HW2 1677   3.485   3.672   3.290
 2626SOL     OW 1678   3.703   2.037   2.825
 2626SOL    HW1 1679   3.742   1.952   2.789
 2626SOL    HW2 1680   3.605   2.039   2.806
 2627SOL     OW 1681   2.125   2.188   2.582
 2627SOL    HW1 1682   2.046   2.239   2.548
 2627SOL    HW2 1683   2.116   2.173   2.680
 2628SOL     OW 1684   3.056   3.474   1.893
 2628SOL    HW1 1685   3.062   3.381   1.930
 2628SOL    HW2 1686   2.997   3.474   1.813
 2629SOL     OW 1687   2.684   2.864   3.234
 2629SOL    HW1 1688   2.724   2.863   3.142
 2629SOL    HW2 1689   2.694   2.956   3.274
 2630SOL     OW 1690   2.778   2.772   2.153
 2630SOL    HW1 1691   2.841   2.810   2.085
 2630SOL    HW2 1692   2.818   2.689   2.192
 2631SOL     OW 1693   3.366   3.469   1.906
 2631SOL    HW1 1694   3.274   3.506   1.913
 2631SOL    HW2 1695   3.404   3.489   1.816
 2632SOL     OW 1696   2.234   3.150   3.352
 2632SOL    HW1 1697   2.221   3.243   3.318
 2632SOL    HW2 1698   2.150   3.098   3.339
 2633SOL     OW 1699   3.476   3.154   3.151
 2633SOL    HW1 1700   3.536   3.157   3.231
 2633SOL    HW2 1701   3.401   3.218   3.164
 2634SOL     OW 1702   2.901   2.960   2.558
 2634SOL    HW1 1703   2.831   2.913   2.612
 2634SOL    HW2 1704   2.960   2.892   2.515
 2635SOL     OW 1705   2.876   2.098   2.833
 2635SOL    HW1 1706   2.868   2.062   2.740
 2635SOL    HW2 1707   2.874   2.022   2.898
 2636SOL     OW 1708   2.452   3.349   2.353
 2636SOL    HW1 1709   2.494   3.291   2.283
 2636SOL    HW2 1710   2.408   3.428   2.309
 2637SOL     OW 1711   3.571   2.247   3.243
 2637SOL    HW1 1712   3.644   2.316   3.247
 2637SOL    HW2 1713   3.599   2.172   3.184
 2638SOL     OW 1714   2.117   3.210   2.152
 2638SOL    HW1 1715   2.021   3.211   2.125
 2638SOL    HW2 1716   2.129   3.263   2.236
 2639SOL     OW 1717   1.967   2.875   3.588
 2639SOL    HW1 1718   1.890   2.842   3.642
 2639SOL    HW2 1719   2.052   2.845   3.630
 2640SOL     OW 1720   2.534   2.065   3.351
 2640SOL    HW1 1721   2.624   2.049   3.311
 2640SOL    HW2 1722   2.542   2.070   3.450
 2641SOL     OW 1723   1.937   2.207   1.895
 2641SOL    HW1 1724   1.845   2.179   1.866
 2641SOL    HW2 1725   1.968   2.284   1.839
 2642SOL     OW 1726   3.302   2.718   3.260
 2642SOL    HW1 1727   3.245   2.770   3.197
 2642SOL    HW2 1728   3.398   2.730   3.236
 2643SOL     OW 1729   1.934   2.028   2.180
 2643SOL    HW1 1730   1.917   2.111   2.126
 2643SOL    HW2 1731   2.024   1.991   2.158
 2644SOL     OW 1732   3.045   3.197   1.981
 2644SOL    HW1 1733   2.946   3.186   1.983
 2644SOL    HW2 1734   3.079   3.212   2.074
 2645SOL     OW 1735   2.475   2.704   3.293
 2645SOL    HW1 1736   2.531   2.785   3.276
 2645SOL    HW2 1737   2.534   2.624   3.296
 2646SOL     OW 1738   3.355   3.629   2.821
 2646SOL    HW1 1739   3.388   3.693   2.752
 2646SOL    HW2 1740   3.421   3.623   2.896
 2647SOL     OW 1741   2.578   2.427   3.570
 2647SOL    HW1 1742   2.597   2.492   3.644
 2647SOL    HW2 1743   2.638   2.347   3.579
 2648SOL     OW 1744   3.312   3.082   3.495
 2648SOL    HW1 1745   3.303   3.072   3.594
 2648SOL    HW2 1746   3.408   3.075   3.469
 2649SOL     OW 1747   2.252   3.603   3.422
 2649SOL    HW1 1748   2.161   3.644   3.420
 2649SOL    HW2 1749   2.245   3.509   3.454
 2650SOL     OW 1750   3.536   2.745   3.116
 2650SOL    HW1 1751   3.509   2.656   3.079
 2650SOL    HW2 1752   3.537   2.813   3.043
 2651SOL     OW 1753   3.087   2.187   2.311
 2651SOL    HW1 1754   3.152   2.113   2.300
 2651SOL    HW2 1755   3.107   2.237   2.395
 2652SOL     OW 1756   3.639   2.204   3.504
 2652SOL    HW1 1757   3.622   2.235   3.410
 2652SOL    HW2 1758   3.555   2.167   3.542
 2653SOL     OW 1759   3.592   2.796   3.379
 2653SOL    HW1 1760   3.630   2.887   3.394
 2653SOL    HW2 1761   3.584   2.779   3.280
 2654SOL     OW 1762   2.721   3.236   1.878
 2654SOL    HW1 1763   2.675   3.251   1.966
 2654SOL    HW2 1764   2.765   3.321   1.848
 2655SOL     OW 1765   2.523   3.652   2.815
 2655SOL    HW1 1766   2.477   3.740   2.802
 2655SOL    HW2 1767   2.622   3.664   2.808
 2656SOL     OW 1768   2.721   2.818   2.723
 2656SOL    HW1 1769   2.775   2.749   2.771
 2656SOL    HW2 1770   2.689   2.887   2.789
 2657SOL     OW 1771   2.945   2.846   1.949
 2657SOL    HW1 1772   2.922   2.899   1.867
 2657SOL    HW2 1773   3.026   2.790   1.930
 2658SOL     OW 1774   3.723   3.431   2.713
 2658SOL    HW1 1775   3.652   3.419   2.643
 2658SOL    HW2 1776   3.724   3.352   2.773
 2659SOL     OW 1777   2.083   3.176   3.706
 2659SOL    HW1 1778   2.018   3.103   3.685
 2659SOL    HW2 1779   2.087   3.190   3.804
 2660SOL     OW 1780   1.941   3.102   2.515
 2660SOL    HW1 1781   1.940   3.055   2.603
 2660SOL    HW2 1782   2.023   3.074   2.464
 2661SOL     OW 1783   2.534   3.253   3.486
 2661SOL    HW1 1784   2.456   3.203   3.524
 2661SOL    HW2 1785   2.531   3.348   3.517
 2662SOL     OW 1786   3.686   2.054   3.089
 2662SOL    HW1 1787   3.682   1.964   3.133
 2662SOL    HW2 1788   3.689   2.043   2.990
 2663SOL     OW 1789   2.290   2.286   2.382
 2663SOL    HW1 1790   2.320   2.214   2.320
 2663SOL    HW2 1791   2.251   2.246   2.465
 2664SOL     OW 1792   3.567   3.349   2.966
 2664SOL    HW1 1793   3.474   3.324   2.939
 2664SOL    HW2 1794   3.593   3.299   3.048
 2665SOL     OW 1795   2.179   2.409   3.142
 2665SOL    HW1 1796   2.217   2.350   3.214
 2665SOL    HW2 1797   2.219   2.383   3.054
 2666SOL     OW 1798   2.674   3.448   2.549
 2666SOL    HW1 1799   2.706   3.458   2.455
 2666SOL    HW2 1800   2.595   3.386   2.551
 2667SOL     OW 1801   3.286   2.076   2.974
 2667SOL    HW1 1802   3.338   2.011   3.029
 2667SOL    HW2 1803   3.237   2.139   3.035
 2668SOL     OW 1804   2.863   1.896   3.016
 2668SOL    HW1 1805   2.800   1.824   2.985
 2668SOL    HW2 1806   2.956   1.860   3.016
 2669SOL     OW 1807   2.632   3.192   2.163
 2669SOL    HW1 1808   2.586   3.105   2.180
 2669SOL    HW2 1809   2.723   3.189   2.204
 2670SOL     OW 1810   2.480   3.429   3.146
 2670SOL    HW1 1811   2.475   3.511   3.203
 2670SOL    HW2 1812   2.569   3.426   3.101
 2671SOL     OW 1813   3.214   1.914   2.030
 2671SOL    HW1 1814   3.249   1.873   1.946
 2671SOL    HW2 1815   3.124   1.876   2.050
 2672SOL     OW 1816   3.162   2.315   2.553
 2672SOL    HW1 1817   3.103   2.395   2.557
 2672SOL    HW2 1818   3.177   2.280   2.646
 2673SOL     OW 1819   3.455   2.083   2.744
 2673SOL    HW1 1820   3.371   2.082   2.798
 2673SOL    HW2 1821   3.457   2.166   2.688
 2674SOL     OW 1822   1.901   2.939   2.162
 2674SOL    HW1 1823   2.000   2.928   2.153
 2674SOL    HW2 1824   1.861   2.853   2.194
 2675SOL     OW 1825   2.737   3.508   2.199
 2675SOL    HW1 1826   2.660   3.473   2.145
 2675SOL    HW2 1827   2.705   3.579   2.261
 2676SOL     OW 1828   2.092   2.490   3.837
 2676SOL    HW1 1829   1.999   2.488   3.874
 2676SOL    HW2 1830   2.093   2.451   3.745
 2682SOL     OW 1831   3.617   2.469   3.955
 2682SOL    HW1 1832   3.605   2.456   3.856
 2682SOL    HW2 1833   3.587   2.388   4.004
 2684SOL     OW 1834   2.547   2.874   4.389
 2684SOL    HW1 1835   2.616   2.858   4.459
 2684SOL    HW2 1836   2.474   2.931   4.427
 2692SOL     OW 1837   2.468   2.826   3.847
 2692SOL    HW1 1838   2.475   2.910   3.793
 2692SOL    HW2 1839   2.514   2.839   3.935
 2693SOL     OW 1840   1.984   2.505   4.287
 2693SOL    HW1 1841   1.939   2.417   4.304
 2693SOL    HW2 1842   1.983   2.559   4.371
 2695SOL     OW 1843   1.889   3.458   3.841
 2695SOL    HW1 1844   1.870   3.362   3.862
 2695SOL    HW2 1845   1.856   3.516   3.916
 2699SOL     OW 1846   2.671   1.866   4.226
 2699SOL    HW1 1847   2.711   1.957   4.217
 2699SOL    HW2 1848   2.571   1.874   4.232
 2701SOL     OW 1849   3.387   2.861   3.914
 2701SOL    HW1 1850   3.324   2.785   3.927
 2701SOL    HW2 1851   3.435   2.879   4.000
 2704SOL     OW 1852   2.460   2.591   3.994
 2704SOL    HW1 1853   2.484   2.660   3.926
 2704SOL    HW2 1854   2.382   2.624   4.048
 2709SOL     OW 1855   2.903   2.563   4.153
 2709SOL    HW1 1856   2.929   2.559   4.249
 2709SOL    HW2 1857   2.818   2.512   4.139
 2712SOL     OW 1858   2.727   2.210   3.919
 2712SOL    HW1 1859   2.786   2.273   3.870
 2712SOL    HW2 1860   2.746   2.116   3.890
 2715SOL     OW 1861   2.870   3.318   4.201
 2715SOL    HW1 1862   2.824   3.390   4.149
 2715SOL    HW2 1863   2.866   3.338   4.299
 2718SOL     OW 1864   2.183   2.805   3.966
 2718SOL    HW1 1865   2.265   2.844   3.924
 2718SOL    HW2 1866   2.156   2.723   3.917
 2720SOL     OW 1867   2.973   3.638   3.961
 2720SOL    HW1 1868   2.913   3.576   4.011
 2720SOL    HW2 1869   3.004   3.594   3.876
 2721SOL     OW 1870   3.494   3.239   3.805
 2721SOL    HW1 1871   3.462   3.333   3.795
 2721SOL    HW2 1872   3.418   3.176   3.793
 2722SOL     OW 1873   2.326   3.605   4.047
 2722SOL    HW1 1874   2.359   3.644   4.133
 2722SOL    HW2 1875   2.402   3.598   3.982
 2723SOL     OW 1876   3.262   1.969   4.150
 2723SOL    HW1 1877   3.238   1.932   4.060
 2723SOL    HW2 1878   3.361   1.985   4.154
 2726SOL     OW 1879   2.244   2.562   4.204
 2726SOL    HW1 1880   2.289   2.472   4.201
 2726SOL    HW2 1881   2.150   2.551   4.237
 2727SOL     OW 1882   2.476   1.984   3.841
 2727SOL    HW1 1883   2.574   1.962   3.848
 2727SOL    HW2 1884   2.445   1.967   3.748
 2731SOL     OW 1885   2.401   1.926   4.236
 2731SOL    HW1 1886   2.320   1.927   4.294
 2731SOL    HW2 1887   2.404   2.009   4.181
 2732SOL     OW 1888   3.296   3.050   3.765
 2732SOL    HW1 1889   3.328   2.974   3.822
 2732SOL    HW2 1890   3.204   3.077   3.795
 2733SOL     OW 1891   2.159   1.897   3.895
 2733SOL    HW1 1892   2.208   1.981   3.874
 2733SOL    HW2 1893   2.221   1.832   3.940
 2734SOL     OW 1894   2.797   2.098   4.204
 2734SOL    HW1 1895   2.749   2.139   4.126
 2734SOL    HW2 1896   2.896   2.096   4.185
 2738SOL     OW 1897   2.894   2.411   3.740
 2738SOL    HW1 1898   2.853   2.493   3.701
 2738SOL    HW2 1899   2.958   2.437   3.813
 2741SOL     OW 1900   2.728   2.316   4.366
 2741SOL    HW1 1901   2.696   2.388   4.304
 2741SOL    HW2 1902   2.752   2.235   4.313
 2746SOL     OW 1903   2.350   3.247   3.898
 2746SOL    HW1 1904   2.263   3.232   3.945
 2746SOL    HW2 1905   2.333   3.273   3.803
 2748SOL     OW 1906   3.252   2.437   3.802
 2748SOL    HW1 1907   3.198   2.416   3.883
 2748SOL    HW2 1908   3.343   2.396   3.811
 2749SOL     OW 1909   2.389   2.118   4.052
 2749SOL    HW1 1910   2.416   2.059   3.977
 2749SOL    HW2 1911   2.389   2.213   4.021
 2753SOL     OW 1912   2.567   2.912   4.092
 2753SOL    HW1 1913   2.553   2.919   4.191
 2753SOL    HW2 1914   2.651   2.861   4.074
 2757SOL     OW 1915   2.229   2.962   4.225
 2757SOL    HW1 1916   2.222   3.045   4.169
 2757SOL    HW2 1917   2.233   2.882   4.165
 2759SOL     OW 1918   3.114   3.210   4.112
 2759SOL    HW1 1919   3.164   3.287   4.152
 2759SOL    HW2 1920   3.019   3.212   4.144
 2761SOL     OW 1921   3.444   2.501   4.196
 2761SOL    HW1 1922   3.413   2.562   4.269
 2761SOL    HW2 1923   3.494   2.553   4.127
 2766SOL     OW 1924   3.071   2.387   3.999
 2766SOL    HW1 1925   3.084   2.303   4.053
 2766SOL    HW2 1926   3.042   2.461   4.059
 2771SOL     OW 1927   3.484   2.229   4.098
 2771SOL    HW1 1928   3.486   2.153   4.162
 2771SOL    HW2 1929   3.436   2.306   4.138
 2774SOL     OW 1930   3.402   2.136   3.849
 2774SOL    HW1 1931   3.341   2.061   3.872
 2774SOL    HW2 1932   3.424   2.188   3.932
 2775SOL     OW 1933   3.165   2.700   3.766
 2775SOL    HW1 1934   3.199   2.607   3.781
 2775SOL    HW2 1935   3.183   2.727   3.671
 2780SOL     OW 1936   1.870   3.188   3.924
 2780SOL    HW1 1937   1.777   3.209   3.893
 2780SOL    HW2 1938   1.880   3.089   3.937
 2785SOL     OW 1939   2.677   2.434   4.049
 2785SOL    HW1 1940   2.684   2.345   4.003
 2785SOL    HW2 1941   2.583   2.468   4.041
 2789SOL     OW 1942   2.335   2.362   3.915
 2789SOL    HW1 1943   2.396   2.442   3.919
 2789SOL    HW2 1944   2.240   2.393   3.922
 2792SOL     OW 1945   3.164   2.717   4.033
 2792SOL    HW1 1946   3.078   2.686   4.075
 2792SOL    HW2 1947   3.160   2.703   3.934
 2799SOL     OW 1948   2.534   3.478   3.878
 2799SOL    HW1 1949   2.543   3.488   3.779
 2799SOL    HW2 1950   2.494   3.389   3.899
 2803SOL     OW 1951   3.056   3.474   3.755
 2803SOL    HW1 1952   3.062   3.381   3.792
 2803SOL    HW2 1953   2.997   3.474   3.675
 2805SOL     OW 1954   2.778   2.772   4.015
 2805SOL    HW1 1955   2.841   2.810   3.947
 2805SOL    HW2 1956   2.818   2.689   4.054
 2806SOL     OW 1957   3.366   3.469   3.768
 2806SOL    HW1 1958   3.274   3.506   3.775
 2806SOL    HW2 1959   3.404   3.489   3.678
 2811SOL     OW 1960   2.452   3.349   4.215
 2811SOL    HW1 1961   2.494   3.291   4.145
 2811SOL    HW2 1962   2.408   3.428   4.171
 2813SOL     OW 1963   2.117   3.210   4.014
 2813SOL    HW1 1964   2.021   3.211   3.987
 2813SOL    HW2 1965   2.129   3.263   4.098
 2815SOL     OW 1966   1.937   2.207   3.757
 2815SOL    HW1 1967   1.845   2.179   3.728
 2815SOL    HW2 1968   1.968   2.284   3.701
 2816SOL     OW 1969   1.934   2.028   4.042
 2816SOL    HW1 1970   1.917   2.111   3.988
 2816SOL    HW2 1971   2.024   1.991   4.020
 2817SOL     OW 1972   3.045   3.197   3.843
 2817SOL    HW1 1973   2.946   3.186   3.845
 2817SOL    HW2 1974   3.079   3.212   3.936
 2822SOL     OW 1975   3.087   2.187   4.173
 2822SOL    HW1 1976   3.152   2.113   4.162
 2822SOL    HW2 1977   3.107   2.237   4.257
 2823SOL     OW 1978   2.456   2.607   4.376
 2823SOL    HW1 1979   2.506   2.692   4.357
 2823SOL    HW2 1980   2.368   2.609   4.328
 2825SOL     OW 1981   2.721   3.236   3.740
 2825SOL    HW1 1982   2.675   3.251   3.828
 2825SOL    HW2 1983   2.765   3.321   3.710
 2828SOL     OW 1984   2.945   2.846   3.811
 2828SOL    HW1 1985   2.922   2.899   3.729
 2828SOL    HW2 1986   3.026   2.790   3.792
 2832SOL     OW 1987   2.290   2.286   4.244
 2832SOL    HW1 1988   2.320   2.214   4.182
 2832SOL    HW2 1989   2.251   2.246   4.327
 2838SOL     OW 1990   2.632   3.192   4.025
 2838SOL    HW1 1991   2.586   3.105   4.042
 2838SOL    HW2 1992   2.723   3.189   4.066
 2840SOL     OW 1993   3.214   1.914   3.892
 2840SOL    HW1 1994   3.249   1.873   3.808
 2840SOL    HW2 1995   3.124   1.876   3.912
 2843SOL     OW 1996   1.901   2.939   4.024
 2843SOL    HW1 1997   2.000   2.928   4.015
 2843SOL    HW2 1998   1.861   2.853   4.056
 2844SOL     OW 1999   2.737   3.508   4.061
 2844SOL    HW1 2000   2.660   3.473   4.007
 2844SOL    HW2 2001   2.705   3.579   4.123
 2875SOL     OW 2002   2.179   3.975   1.801
 2875SOL    HW1 2003   2.250   4.046   1.807
 2875SOL    HW2 2004   2.091   4.014   1.829
 2899SOL     OW 2005   3.409   3.946   1.729
 2899SOL    HW1 2006   3.404   3.983   1.821
 2899SOL    HW2 2007   3.337   3.877   1.717
 2900SOL     OW 2008   2.643   3.988   1.749
 2900SOL    HW1 2009   2.710   3.927   1.792
 2900SOL    HW2 2010   2.570   4.007   1.814
 2925SOL     OW 2011   2.777   3.813   1.402
 2925SOL    HW1 2012   2.802   3.793   1.307
 2925SOL    HW2 2013   2.849   3.869   1.444
 2938SOL     OW 2014   2.875   3.829   1.770
 2938SOL    HW1 2015   2.881   3.914   1.718
 2938SOL    HW2 2016   2.907   3.753   1.713
 2939SOL     OW 2017   2.366   3.774   1.740
 2939SOL    HW1 2018   2.324   3.717   1.670
 2939SOL    HW2 2019   2.300   3.843   1.772
 2958SOL     OW 2020   3.022   3.931   1.477
 2958SOL    HW1 2021   3.022   3.995   1.554
 2958SOL    HW2 2022   3.050   3.979   1.394
 2988SOL     OW 2023   2.534   3.927   1.489
 2988SOL    HW1 2024   2.624   3.911   1.449
 2988SOL    HW2 2025   2.542   3.932   1.588
 3019SOL     OW 2026   2.087   3.999   2.858
 3019SOL    HW1 2027   2.122   3.982   2.950
 3019SOL    HW2 2028   1.999   3.954   2.846
 3020SOL     OW 2029   1.881   4.092   2.509
 3020SOL    HW1 2030   1.799   4.135   2.548
 3020SOL    HW2 2031   1.853   4.019   2.446
 3030SOL     OW 2032   2.300   4.116   3.361
 3030SOL    HW1 2033   2.382   4.060   3.370
 3030SOL    HW2 2034   2.219   4.058   3.365
 3031SOL     OW 2035   3.465   4.171   2.599
 3031SOL    HW1 2036   3.391   4.217   2.549
 3031SOL    HW2 2037   3.516   4.239   2.652
 3036SOL     OW 2038   3.456   3.838   3.342
 3036SOL    HW1 2039   3.438   3.905   3.270
 3036SOL    HW2 2040   3.453   3.884   3.431
 3045SOL     OW 2041   2.671   3.728   2.364
 3045SOL    HW1 2042   2.711   3.819   2.355
 3045SOL    HW2 2043   2.571   3.736   2.370
 3048SOL     OW 2044   2.179   3.975   3.663
 3048SOL    HW1 2045   2.250   4.046   3.669
 3048SOL    HW2 2046   2.091   4.014   3.691
 3051SOL     OW 2047   3.143   4.069   2.806
 3051SOL    HW1 2048   3.057   4.019   2.793
 3051SOL    HW2 2049   3.205   4.015   2.862
 3055SOL     OW 2050   2.853   4.134   3.104
 3055SOL    HW1 2051   2.776   4.168   3.158
 3055SOL    HW2 2052   2.819   4.083   3.025
 3058SOL     OW 2053   2.727   4.072   2.057
 3058SOL    HW1 2054   2.786   4.135   2.008
 3058SOL    HW2 2055   2.746   3.978   2.028
 3061SOL     OW 2056   2.412   3.920   2.747
 3061SOL    HW1 2057   2.407   3.915   2.847
 3061SOL    HW2 2058   2.414   4.016   2.718
 3069SOL     OW 2059   2.064   4.009   3.360
 3069SOL    HW1 2060   1.984   4.069   3.347
 3069SOL    HW2 2061   2.054   3.960   3.446
 3071SOL     OW 2062   3.262   3.831   2.288
 3071SOL    HW1 2063   3.238   3.794   2.198
 3071SOL    HW2 2064   3.361   3.847   2.292
 3074SOL     OW 2065   2.476   3.846   1.979
 3074SOL    HW1 2066   2.574   3.824   1.986
 3074SOL    HW2 2067   2.445   3.829   1.886
 3075SOL     OW 2068   2.643   3.988   3.611
 3075SOL    HW1 2069   2.710   3.927   3.654
 3075SOL    HW2 2070   2.570   4.007   3.676
 3077SOL     OW 2071   2.784   4.227   2.761
 3077SOL    HW1 2072   2.759   4.218   2.665
 3077SOL    HW2 2073   2.832   4.145   2.792
 3078SOL     OW 2074   2.401   3.788   2.374
 3078SOL    HW1 2075   2.320   3.789   2.432
 3078SOL    HW2 2076   2.404   3.871   2.319
 3080SOL     OW 2077   2.159   3.759   2.033
 3080SOL    HW1 2078   2.208   3.843   2.012
 3080SOL    HW2 2079   2.221   3.694   2.078
 3081SOL     OW 2080   2.797   3.960   2.342
 3081SOL    HW1 2081   2.749   4.001   2.264
 3081SOL    HW2 2082   2.896   3.958   2.323
 3087SOL     OW 2083   2.423   3.946   3.009
 3087SOL    HW1 2084   2.461   3.862   3.046
 3087SOL    HW2 2085   2.335   3.965   3.053
 3088SOL     OW 2086   2.728   4.178   2.504
 3088SOL    HW1 2087   2.696   4.250   2.442
 3088SOL    HW2 2088   2.752   4.097   2.451
 3089SOL     OW 2089   2.879   3.763   2.615
 3089SOL    HW1 2090   2.807   3.768   2.546
 3089SOL    HW2 2091   2.855   3.694   2.684
 3095SOL     OW 2092   2.389   3.980   2.190
 3095SOL    HW1 2093   2.416   3.921   2.115
 3095SOL    HW2 2094   2.389   4.075   2.159
 3100SOL     OW 2095   2.777   3.813   3.264
 3100SOL    HW1 2096   2.802   3.793   3.169
 3100SOL    HW2 2097   2.849   3.869   3.306
 3104SOL     OW 2098   3.136   4.110   3.124
 3104SOL    HW1 2099   3.157   4.184   3.188
 3104SOL    HW2 2100   3.047   4.127   3.081
 3106SOL     OW 2101   2.428   4.261   2.727
 3106SOL    HW1 2102   2.440   4.327   2.653
 3106SOL    HW2 2103   2.474   4.295   2.810
 3113SOL     OW 2104   2.875   3.829   3.632
 3113SOL    HW1 2105   2.881   3.914   3.580
 3113SOL    HW2 2106   2.907   3.753   3.575
 3114SOL     OW 2107   2.366   3.774   3.602
 3114SOL    HW1 2108   2.324   3.717   3.532
 3114SOL    HW2 2109   2.300   3.843   3.634
 3117SOL     OW 2110   3.071   4.249   2.137
 3117SOL    HW1 2111   3.084   4.165   2.191
 3117SOL    HW2 2112   3.042   4.323   2.197
 3118SOL     OW 2113   2.169   3.937   3.093
 3118SOL    HW1 2114   2.146   3.974   3.183
 3118SOL    HW2 2115   2.139   3.842   3.087
 3120SOL     OW 2116   2.594   4.358   2.926
 3120SOL    HW1 2117   2.653   4.332   2.850
 3120SOL    HW2 2118   2.566   4.454   2.915
 3122SOL     OW 2119   2.169   3.787   2.480
 3122SOL    HW1 2120   2.158   3.881   2.513
 3122SOL    HW2 2121   2.164   3.724   2.557
 3123SOL     OW 2122   3.484   4.091   2.236
 3123SOL    HW1 2123   3.486   4.015   2.300
 3123SOL    HW2 2124   3.436   4.168   2.276
 3127SOL     OW 2125   3.402   3.998   1.987
 3127SOL    HW1 2126   3.341   3.923   2.010
 3127SOL    HW2 2127   3.424   4.050   2.070
 3131SOL     OW 2128   2.201   4.233   2.868
 3131SOL    HW1 2129   2.149   4.150   2.851
 3131SOL    HW2 2130   2.278   4.238   2.804
 3132SOL     OW 2131   3.000   4.104   3.540
 3132SOL    HW1 2132   2.955   4.167   3.604
 3132SOL    HW2 2133   3.093   4.135   3.523
 3133SOL     OW 2134   3.022   3.931   3.339
 3133SOL    HW1 2135   3.022   3.995   3.416
 3133SOL    HW2 2136   3.050   3.979   3.256
 3139SOL     OW 2137   2.677   4.296   2.187
 3139SOL    HW1 2138   2.684   4.207   2.141
 3139SOL    HW2 2139   2.583   4.330   2.179
 3142SOL     OW 2140   2.533   4.188   3.131
 3142SOL    HW1 2141   2.499   4.099   3.101
 3142SOL    HW2 2142   2.559   4.242   3.051
 3143SOL     OW 2143   2.335   4.224   2.053
 3143SOL    HW1 2144   2.396   4.304   2.057
 3143SOL    HW2 2145   2.240   4.255   2.060
 3148SOL     OW 2146   3.588   3.859   2.385
 3148SOL    HW1 2147   3.661   3.842   2.318
 3148SOL    HW2 2148   3.557   3.772   2.423
 3151SOL     OW 2149   3.703   3.899   2.825
 3151SOL    HW1 2150   3.742   3.814   2.789
 3151SOL    HW2 2151   3.605   3.901   2.806
 3152SOL     OW 2152   2.125   4.050   2.582
 3152SOL    HW1 2153   2.046   4.101   2.548
 3152SOL    HW2 2154   2.116   4.035   2.680
 3158SOL     OW 2155   2.876   3.960   2.833
 3158SOL    HW1 2156   2.868   3.924   2.740
 3158SOL    HW2 2157   2.874   3.884   2.898
 3162SOL     OW 2158   2.534   3.927   3.351
 3162SOL    HW1 2159   2.624   3.911   3.311
 3162SOL    HW2 2160   2.542   3.932   3.450
 3163SOL     OW 2161   1.937   4.069   1.895
 3163SOL    HW1 2162   1.845   4.041   1.866
 3163SOL    HW2 2163   1.968   4.146   1.839
 3165SOL     OW 2164   1.934   3.890   2.180
 3165SOL    HW1 2165   1.917   3.973   2.126
 3165SOL    HW2 2166   2.024   3.853   2.158
 3171SOL     OW 2167   3.087   4.049   2.311
 3171SOL    HW1 2168   3.152   3.975   2.300
 3171SOL    HW2 2169   3.107   4.099   2.395
 3181SOL     OW 2170   3.686   3.916   3.089
 3181SOL    HW1 2171   3.682   3.826   3.133
 3181SOL    HW2 2172   3.689   3.905   2.990
 3182SOL     OW 2173   2.290   4.148   2.382
 3182SOL    HW1 2174   2.320   4.076   2.320
 3182SOL    HW2 2175   2.251   4.108   2.465
 3184SOL     OW 2176   2.179   4.271   3.142
 3184SOL    HW1 2177   2.217   4.212   3.214
 3184SOL    HW2 2178   2.219   4.245   3.054
 3185SOL     OW 2179   3.286   3.938   2.974
 3185SOL    HW1 2180   3.338   3.873   3.029
 3185SOL    HW2 2181   3.237   4.001   3.035
 3186SOL     OW 2182   2.863   3.758   3.016
 3186SOL    HW1 2183   2.800   3.686   2.985
 3186SOL    HW2 2184   2.956   3.722   3.016
 3188SOL     OW 2185   3.214   3.776   2.030
 3188SOL    HW1 2186   3.249   3.735   1.946
 3188SOL    HW2 2187   3.124   3.738   2.050
 3189SOL     OW 2188   3.162   4.177   2.553
 3189SOL    HW1 2189   3.103   4.257   2.557
 3189SOL    HW2 2190   3.177   4.142   2.646
 3190SOL     OW 2191   3.455   3.945   2.744
 3190SOL    HW1 2192   3.371   3.944   2.798
 3190SOL    HW2 2193   3.457   4.028   2.688
 3236SOL     OW 2194   2.476   3.846   3.841
 3236SOL    HW1 2195   2.574   3.824   3.848
 3236SOL    HW2 2196   2.445   3.829   3.748
 3240SOL     OW 2197   2.159   3.759   3.895
 3240SOL    HW1 2198   2.208   3.843   3.874
 3240SOL    HW2 2199   2.221   3.694   3.940
 3456SOL     OW 2200   3.854   1.794   1.851
 3456SOL    HW1 2201   3.813   1.720   1.904
 3456SOL    HW2 2202   3.918   1.845   1.909
 3509SOL     OW 2203   3.955   1.713   2.345
 3509SOL    HW1 2204   3.989   1.790   2.399
 3509SOL    HW2 2205   3.999   1.713   2.255
 3511SOL     OW 2206   3.954   1.434   2.400
 3511SOL    HW1 2207   3.928   1.530   2.400
 3511SOL    HW2 2208   3.883   1.380   2.445
 3516SOL     OW 2209   3.751   1.596   1.979
 3516SOL    HW1 2210   3.732   1.500   2.000
 3516SOL    HW2 2211   3.718   1.654   2.054
 3534SOL     OW 2212   3.854   1.821   3.433
 3534SOL    HW1 2213   3.844   1.806   3.532
 3534SOL    HW2 2214   3.768   1.857   3.397
 3539SOL     OW 2215   4.075   1.801   2.715
 3539SOL    HW1 2216   4.125   1.715   2.721
 3539SOL    HW2 2217   4.140   1.878   2.712
 3546SOL     OW 2218   3.973   1.785   3.103
 3546SOL    HW1 2219   4.030   1.720   3.153
 3546SOL    HW2 2220   3.957   1.752   3.010
 3578SOL     OW 2221   3.788   1.564   3.193
 3578SOL    HW1 2222   3.742   1.646   3.159
 3578SOL    HW2 2223   3.886   1.583   3.202
 3603SOL     OW 2224   3.732   1.326   2.062
 3603SOL    HW1 2225   3.639   1.347   2.031
 3603SOL    HW2 2226   3.742   1.227   2.075
 3604SOL     OW 2227   3.812   1.801   2.789
 3604SOL    HW1 2228   3.770   1.715   2.762
 3604SOL    HW2 2229   3.906   1.804   2.755
 3818SOL     OW 2230   3.837   2.599   1.597
 3818SOL    HW1 2231   3.925   2.586   1.642
 3818SOL    HW2 2232   3.824   2.696   1.575
 3824SOL     OW 2233   4.041   2.113   1.801
 3824SOL    HW1 2234   4.112   2.184   1.807
 3824SOL    HW2 2235   3.953   2.152   1.829
 3844SOL     OW 2236   3.926   2.147   1.498
 3844SOL    HW1 2237   3.846   2.207   1.485
 3844SOL    HW2 2238   3.916   2.098   1.584
 3863SOL     OW 2239   3.802   2.418   1.386
 3863SOL    HW1 2240   3.894   2.417   1.345
 3863SOL    HW2 2241   3.796   2.492   1.453
 3896SOL     OW 2242   4.074   2.760   1.804
 3896SOL    HW1 2243   4.150   2.804   1.852
 3896SOL    HW2 2244   4.109   2.713   1.722
 3908SOL     OW 2245   3.913   2.382   1.722
 3908SOL    HW1 2246   3.972   2.342   1.652
 3908SOL    HW2 2247   3.855   2.453   1.681
 3915SOL     OW 2248   3.883   2.999   1.466
 3915SOL    HW1 2249   3.905   2.938   1.542
 3915SOL    HW2 2250   3.893   2.950   1.380
 3923SOL     OW 2251   3.854   3.656   1.851
 3923SOL    HW1 2252   3.813   3.582   1.904
 3923SOL    HW2 2253   3.918   3.707   1.909
 3936SOL     OW 2254   3.829   2.875   1.726
 3936SOL    HW1 2255   3.752   2.842   1.780
 3936SOL    HW2 2256   3.914   2.845   1.768
 3952SOL     OW 2257   3.945   3.176   1.844
 3952SOL    HW1 2258   3.880   3.103   1.823
 3952SOL    HW2 2259   3.949   3.190   1.942
 3965SOL     OW 2260   3.954   2.490   1.975
 3965SOL    HW1 2261   3.861   2.488   2.012
 3965SOL    HW2 2262   3.955   2.451   1.883
 3966SOL     OW 2263   3.949   2.137   2.858
 3966SOL    HW1 2264   3.984   2.120   2.950
 3966SOL    HW2 2265   3.861   2.092   2.846
 3967SOL     OW 2266   3.743   2.230   2.509
 3967SOL    HW1 2267   3.661   2.273   2.548
 3967SOL    HW2 2268   3.715   2.157   2.446
 3975SOL     OW 2269   4.059   3.297   2.923
 3975SOL    HW1 2270   3.981   3.266   2.870
 3975SOL    HW2 2271   4.117   3.355   2.866
 3976SOL     OW 2272   4.162   2.254   3.361
 3976SOL    HW1 2273   4.244   2.198   3.370
 3976SOL    HW2 2274   4.081   2.196   3.365
 3977SOL     OW 2275   3.955   3.575   2.345
 3977SOL    HW1 2276   3.989   3.652   2.399
 3977SOL    HW2 2277   3.999   3.575   2.255
 3979SOL     OW 2278   3.954   3.296   2.400
 3979SOL    HW1 2279   3.928   3.392   2.400
 3979SOL    HW2 2280   3.883   3.242   2.445
 3980SOL     OW 2281   3.964   2.953   2.748
 3980SOL    HW1 2282   3.978   2.869   2.800
 3980SOL    HW2 2283   3.909   3.017   2.803
 3983SOL     OW 2284   3.846   2.505   2.425
 3983SOL    HW1 2285   3.801   2.417   2.442
 3983SOL    HW2 2286   3.845   2.559   2.509
 3984SOL     OW 2287   3.751   3.458   1.979
 3984SOL    HW1 2288   3.732   3.362   2.000
 3984SOL    HW2 2289   3.718   3.516   2.054
 3986SOL     OW 2290   3.837   2.599   3.459
 3986SOL    HW1 2291   3.925   2.586   3.504
 3986SOL    HW2 2292   3.824   2.696   3.437
 3990SOL     OW 2293   3.921   2.838   3.126
 3990SOL    HW1 2294   4.010   2.793   3.112
 3990SOL    HW2 2295   3.848   2.773   3.107
 3994SOL     OW 2296   4.322   2.591   2.132
 3994SOL    HW1 2297   4.346   2.660   2.064
 3994SOL    HW2 2298   4.244   2.624   2.186
 4001SOL     OW 2299   3.800   2.673   2.651
 4001SOL    HW1 2300   3.899   2.661   2.660
 4001SOL    HW2 2301   3.776   2.768   2.672
 4005SOL     OW 2302   4.274   2.058   2.747
 4005SOL    HW1 2303   4.269   2.053   2.847
 4005SOL    HW2 2304   4.276   2.154   2.718
 4009SOL     OW 2305   4.045   2.805   2.104
 4009SOL    HW1 2306   4.127   2.844   2.062
 4009SOL    HW2 2307   4.018   2.723   2.055
 4012SOL     OW 2308   3.926   2.147   3.360
 4012SOL    HW1 2309   3.846   2.207   3.347
 4012SOL    HW2 2310   3.916   2.098   3.446
 4014SOL     OW 2311   3.973   3.647   3.103
 4014SOL    HW1 2312   4.030   3.582   3.153
 4014SOL    HW2 2313   3.957   3.614   3.010
 4016SOL     OW 2314   4.106   2.562   2.342
 4016SOL    HW1 2315   4.151   2.472   2.339
 4016SOL    HW2 2316   4.012   2.551   2.375
 4025SOL     OW 2317   4.021   1.897   2.033
 4025SOL    HW1 2318   4.070   1.981   2.012
 4025SOL    HW2 2319   4.083   1.832   2.078
 4029SOL     OW 2320   4.183   3.014   2.603
 4029SOL    HW1 2321   4.112   2.987   2.668
 4029SOL    HW2 2322   4.157   2.986   2.510
 4032SOL     OW 2323   3.802   2.418   3.248
 4032SOL    HW1 2324   3.894   2.417   3.207
 4032SOL    HW2 2325   3.796   2.492   3.315
 4033SOL     OW 2326   4.285   2.084   3.009
 4033SOL    HW1 2327   4.323   2.000   3.046
 4033SOL    HW2 2328   4.197   2.103   3.053
 4038SOL     OW 2329   4.251   2.118   2.190
 4038SOL    HW1 2330   4.278   2.059   2.115
 4038SOL    HW2 2331   4.251   2.213   2.159
 4044SOL     OW 2332   4.134   2.675   3.113
 4044SOL    HW1 2333   4.220   2.687   3.163
 4044SOL    HW2 2334   4.092   2.588   3.140
 4046SOL     OW 2335   3.788   3.426   3.193
 4046SOL    HW1 2336   3.742   3.508   3.159
 4046SOL    HW2 2337   3.886   3.445   3.202
 4047SOL     OW 2338   4.091   2.962   2.363
 4047SOL    HW1 2339   4.084   3.045   2.307
 4047SOL    HW2 2340   4.095   2.882   2.303
 4048SOL     OW 2341   4.290   2.399   2.727
 4048SOL    HW1 2342   4.302   2.465   2.653
 4048SOL    HW2 2343   4.336   2.433   2.810
 4051SOL     OW 2344   4.078   3.372   3.191
 4051SOL    HW1 2345   4.057   3.328   3.104
 4051SOL    HW2 2346   4.175   3.398   3.194
 4052SOL     OW 2347   4.126   2.613   3.460
 4052SOL    HW1 2348   4.194   2.668   3.413
 4052SOL    HW2 2349   4.166   2.525   3.487
 4055SOL     OW 2350   4.297   2.732   2.891
 4055SOL    HW1 2351   4.341   2.821   2.882
 4055SOL    HW2 2352   4.234   2.732   2.968
 4058SOL     OW 2353   4.031   2.075   3.093
 4058SOL    HW1 2354   4.008   2.112   3.183
 4058SOL    HW2 2355   4.001   1.980   3.087
 4059SOL     OW 2356   3.761   3.172   3.144
 4059SOL    HW1 2357   3.814   3.123   3.212
 4059SOL    HW2 2358   3.783   3.270   3.149
 4061SOL     OW 2359   4.031   1.925   2.480
 4061SOL    HW1 2360   4.020   2.019   2.513
 4061SOL    HW2 2361   4.026   1.862   2.557
 4068SOL     OW 2362   4.043   2.672   2.811
 4068SOL    HW1 2363   4.136   2.708   2.816
 4068SOL    HW2 2364   4.037   2.587   2.863
 4069SOL     OW 2365   4.063   2.371   2.868
 4069SOL    HW1 2366   4.011   2.288   2.851
 4069SOL    HW2 2367   4.140   2.376   2.804
 4072SOL     OW 2368   3.732   3.188   2.062
 4072SOL    HW1 2369   3.639   3.209   2.031
 4072SOL    HW2 2370   3.742   3.089   2.075
 4073SOL     OW 2371   3.812   3.663   2.789
 4073SOL    HW1 2372   3.770   3.577   2.762
 4073SOL    HW2 2373   3.906   3.666   2.755
 4076SOL     OW 2374   3.764   2.406   2.976
 4076SOL    HW1 2375   3.849   2.373   2.935
 4076SOL    HW2 2376   3.777   2.421   3.074
 4077SOL     OW 2377   3.913   2.382   3.584
 4077SOL    HW1 2378   3.972   2.342   3.514
 4077SOL    HW2 2379   3.855   2.453   3.543
 4083SOL     OW 2380   4.197   2.362   2.053
 4083SOL    HW1 2381   4.258   2.442   2.057
 4083SOL    HW2 2382   4.102   2.393   2.060
 4084SOL     OW 2383   3.883   2.999   3.328
 4084SOL    HW1 2384   3.905   2.938   3.404
 4084SOL    HW2 2385   3.893   2.950   3.242
 4088SOL     OW 2386   3.807   3.120   2.884
 4088SOL    HW1 2387   3.802   3.119   2.984
 4088SOL    HW2 2388   3.724   3.079   2.846
 4095SOL     OW 2389   3.987   2.188   2.582
 4095SOL    HW1 2390   3.908   2.239   2.548
 4095SOL    HW2 2391   3.978   2.173   2.680
 4099SOL     OW 2392   4.096   3.150   3.352
 4099SOL    HW1 2393   4.083   3.243   3.318
 4099SOL    HW2 2394   4.012   3.098   3.339
 4103SOL     OW 2395   3.979   3.210   2.152
 4103SOL    HW1 2396   3.883   3.211   2.125
 4103SOL    HW2 2397   3.991   3.263   2.236
 4104SOL     OW 2398   3.829   2.875   3.588
 4104SOL    HW1 2399   3.752   2.842   3.642
 4104SOL    HW2 2400   3.914   2.845   3.630
 4106SOL     OW 2401   3.799   2.207   1.895
 4106SOL    HW1 2402   3.707   2.179   1.866
 4106SOL    HW2 2403   3.830   2.284   1.839
 4108SOL     OW 2404   3.796   2.028   2.180
 4108SOL    HW1 2405   3.779   2.111   2.126
 4108SOL    HW2 2406   3.886   1.991   2.158
 4115SOL     OW 2407   4.318   2.607   2.514
 4115SOL    HW1 2408   4.368   2.692   2.495
 4115SOL    HW2 2409   4.230   2.609   2.466
 4121SOL     OW 2410   3.803   3.102   2.515
 4121SOL    HW1 2411   3.802   3.055   2.603
 4121SOL    HW2 2412   3.885   3.074   2.464
 4123SOL     OW 2413   4.152   2.286   2.382
 4123SOL    HW1 2414   4.182   2.214   2.320
 4123SOL    HW2 2415   4.113   2.246   2.465
 4124SOL     OW 2416   4.041   2.409   3.142
 4124SOL    HW1 2417   4.079   2.350   3.214
 4124SOL    HW2 2418   4.081   2.383   3.054
 4131SOL     OW 2419   3.763   2.939   2.162
 4131SOL    HW1 2420   3.862   2.928   2.153
 4131SOL    HW2 2421   3.723   2.853   2.194
 4248SOL     OW 2422   3.799   2.207   3.757
 4248SOL    HW1 2423   3.707   2.179   3.728
 4248SOL    HW2 2424   3.830   2.284   3.701
 4527SOL     OW 2425   3.796   3.890   2.180
 4527SOL    HW1 2426   3.779   3.973   2.126
 4527SOL    HW2 2427   3.886   3.853   2.158
   5.22858   5.22858   5.22858
