; mobley_3968739_GMX.itp created by acpype (v: 2023.10.27) on Thu May 21 00:21:34 2026

[ atomtypes ]
;name   bond_type     mass     charge   ptype   sigma         epsilon       Amb
 ca       ca          0.00000  0.00000   A     3.31521e-01   4.13379e-01 ; 1.86  0.0988
 c        c           0.00000  0.00000   A     3.31521e-01   4.13379e-01 ; 1.86  0.0988
 c3       c3          0.00000  0.00000   A     3.39771e-01   4.51035e-01 ; 1.91  0.1078
 o        o           0.00000  0.00000   A     3.04812e-01   6.12119e-01 ; 1.71  0.1463
 os       os          0.00000  0.00000   A     3.15610e-01   3.03758e-01 ; 1.77  0.0726
 ha       ha          0.00000  0.00000   A     2.62548e-01   6.73624e-02 ; 1.47  0.0161
 h1       h1          0.00000  0.00000   A     2.42200e-01   8.70272e-02 ; 1.36  0.0208

[ moleculetype ]
;name            nrexcl
 mobley_3968739   3

[ atoms ]
;   nr  type  resi  res  atom  cgnr     charge      mass       ; qtot   bond_type
     1   ca     1   MOL    C1    1    -0.096000     12.01000 ; qtot -0.096
     2   ca     1   MOL    C2    2    -0.148000     12.01000 ; qtot -0.244
     3   ca     1   MOL    C3    3    -0.148000     12.01000 ; qtot -0.392
     4   ca     1   MOL    C4    4    -0.071500     12.01000 ; qtot -0.464
     5   ca     1   MOL    C5    5    -0.071500     12.01000 ; qtot -0.535
     6   ca     1   MOL    C6    6    -0.135600     12.01000 ; qtot -0.671
     7    c     1   MOL    C7    7     0.644700     12.01000 ; qtot -0.026
     8   c3     1   MOL    C8    8     0.127700     12.01000 ; qtot 0.102
     9    o     1   MOL    O1    9    -0.544000     16.00000 ; qtot -0.442
    10   os     1   MOL    O2   10    -0.439900     16.00000 ; qtot -0.882
    11   ha     1   MOL    H1   11     0.136000      1.00800 ; qtot -0.746
    12   ha     1   MOL    H2   12     0.139500      1.00800 ; qtot -0.607
    13   ha     1   MOL    H3   13     0.139500      1.00800 ; qtot -0.467
    14   ha     1   MOL    H4   14     0.156000      1.00800 ; qtot -0.311
    15   ha     1   MOL    H5   15     0.156000      1.00800 ; qtot -0.155
    16   h1     1   MOL    H6   16     0.051700      1.00800 ; qtot -0.103
    17   h1     1   MOL    H7   17     0.051700      1.00800 ; qtot -0.052
    18   h1     1   MOL    H8   18     0.051700      1.00800 ; qtot -0.000

[ bonds ]
;   ai     aj funct   r             k
     1      2   1    1.3986e-01    2.9644e+05 ;     C1 - C2    
     1      3   1    1.3986e-01    2.9644e+05 ;     C1 - C3    
     1     11   1    1.0860e-01    3.0183e+05 ;     C1 - H1    
     2      4   1    1.3986e-01    2.9644e+05 ;     C2 - C4    
     2     12   1    1.0860e-01    3.0183e+05 ;     C2 - H2    
     3      5   1    1.3986e-01    2.9644e+05 ;     C3 - C5    
     3     13   1    1.0860e-01    3.0183e+05 ;     C3 - H3    
     4      6   1    1.3986e-01    2.9644e+05 ;     C4 - C6    
     4     14   1    1.0860e-01    3.0183e+05 ;     C4 - H4    
     5      6   1    1.3986e-01    2.9644e+05 ;     C5 - C6    
     5     15   1    1.0860e-01    3.0183e+05 ;     C5 - H5    
     6      7   1    1.4907e-01    2.1994e+05 ;     C6 - C7    
     7      9   1    1.2190e-01    4.9421e+05 ;     C7 - O1    
     7     10   1    1.3621e-01    2.9398e+05 ;     C7 - O2    
     8     10   1    1.4273e-01    2.3620e+05 ;     C8 - O2    
     8     16   1    1.0969e-01    2.8804e+05 ;     C8 - H6    
     8     17   1    1.0969e-01    2.8804e+05 ;     C8 - H7    
     8     18   1    1.0969e-01    2.8804e+05 ;     C8 - H8    

[ pairs ]
;   ai     aj    funct
     1      6      1 ;     C1 - C6    
     1     14      1 ;     C1 - H4    
     1     15      1 ;     C1 - H5    
     2      5      1 ;     C2 - C5    
     2      7      1 ;     C2 - C7    
     2     13      1 ;     C2 - H3    
     3      4      1 ;     C3 - C4    
     3      7      1 ;     C3 - C7    
     3     12      1 ;     C3 - H2    
     4      9      1 ;     C4 - O1    
     4     10      1 ;     C4 - O2    
     4     15      1 ;     C4 - H5    
     5      9      1 ;     C5 - O1    
     5     10      1 ;     C5 - O2    
     5     14      1 ;     C5 - H4    
     6      8      1 ;     C6 - C8    
     6     12      1 ;     C6 - H2    
     6     13      1 ;     C6 - H3    
     7     14      1 ;     C7 - H4    
     7     15      1 ;     C7 - H5    
     7     16      1 ;     C7 - H6    
     7     17      1 ;     C7 - H7    
     7     18      1 ;     C7 - H8    
     8      9      1 ;     C8 - O1    
    11      4      1 ;     H1 - C4    
    11      5      1 ;     H1 - C5    
    11     12      1 ;     H1 - H2    
    11     13      1 ;     H1 - H3    
    12     14      1 ;     H2 - H4    
    13     15      1 ;     H3 - H5    

[ angles ]
;   ai     aj     ak    funct   theta         cth
     1      2      4      1    1.2002e+02    5.3279e+02 ;     C1 - C2     - C4    
     1      2     12      1    1.1988e+02    3.7572e+02 ;     C1 - C2     - H2    
     1      3      5      1    1.2002e+02    5.3279e+02 ;     C1 - C3     - C5    
     1      3     13      1    1.1988e+02    3.7572e+02 ;     C1 - C3     - H3    
     2      1      3      1    1.2002e+02    5.3279e+02 ;     C2 - C1     - C3    
     2      1     11      1    1.1988e+02    3.7572e+02 ;     C2 - C1     - H1    
     2      4      6      1    1.2002e+02    5.3279e+02 ;     C2 - C4     - C6    
     2      4     14      1    1.1988e+02    3.7572e+02 ;     C2 - C4     - H4    
     3      1     11      1    1.1988e+02    3.7572e+02 ;     C3 - C1     - H1    
     3      5      6      1    1.2002e+02    5.3279e+02 ;     C3 - C5     - C6    
     3      5     15      1    1.1988e+02    3.7572e+02 ;     C3 - C5     - H5    
     4      2     12      1    1.1988e+02    3.7572e+02 ;     C4 - C2     - H2    
     4      6      5      1    1.2002e+02    5.3279e+02 ;     C4 - C6     - C5    
     4      6      7      1    1.2033e+02    5.1413e+02 ;     C4 - C6     - C7    
     5      3     13      1    1.1988e+02    3.7572e+02 ;     C5 - C3     - H3    
     5      6      7      1    1.2033e+02    5.1413e+02 ;     C5 - C6     - C7    
     6      4     14      1    1.1988e+02    3.7572e+02 ;     C6 - C4     - H4    
     6      5     15      1    1.1988e+02    3.7572e+02 ;     C6 - C5     - H5    
     6      7      9      1    1.2260e+02    6.5237e+02 ;     C6 - C7     - O1    
     6      7     10      1    1.1241e+02    6.5756e+02 ;     C6 - C7     - O2    
     7     10      8      1    1.1582e+02    7.4835e+02 ;     C7 - O2     - C8    
     9      7     10      1    1.2320e+02    8.4734e+02 ;     O1 - C7     - O2    
    10      8     16      1    1.1034e+02    4.7028e+02 ;     O2 - C8     - H6    
    10      8     17      1    1.1034e+02    4.7028e+02 ;     O2 - C8     - H7    
    10      8     18      1    1.1034e+02    4.7028e+02 ;     O2 - C8     - H8    
    16      8     17      1    1.0855e+02    2.9824e+02 ;     H6 - C8     - H7    
    16      8     18      1    1.0855e+02    2.9824e+02 ;     H6 - C8     - H8    
    17      8     18      1    1.0855e+02    2.9824e+02 ;     H7 - C8     - H8    

[ dihedrals ] ; propers
; for gromacs 4.5 or higher, using funct 9
;    i      j      k      l   func   phase     kd      pn
     1      2      4      6      9   180.00  15.16700   2 ;     C1-    C2-    C4-    C6
     1      2      4     14      9   180.00  15.16700   2 ;     C1-    C2-    C4-    H4
     1      3      5      6      9   180.00  15.16700   2 ;     C1-    C3-    C5-    C6
     1      3      5     15      9   180.00  15.16700   2 ;     C1-    C3-    C5-    H5
     2      1      3      5      9   180.00  15.16700   2 ;     C2-    C1-    C3-    C5
     2      1      3     13      9   180.00  15.16700   2 ;     C2-    C1-    C3-    H3
     2      4      6      5      9   180.00  15.16700   2 ;     C2-    C4-    C6-    C5
     2      4      6      7      9   180.00  15.16700   2 ;     C2-    C4-    C6-    C7
     3      1      2      4      9   180.00  15.16700   2 ;     C3-    C1-    C2-    C4
     3      1      2     12      9   180.00  15.16700   2 ;     C3-    C1-    C2-    H2
     3      5      6      4      9   180.00  15.16700   2 ;     C3-    C5-    C6-    C4
     3      5      6      7      9   180.00  15.16700   2 ;     C3-    C5-    C6-    C7
     4      6      5     15      9   180.00  15.16700   2 ;     C4-    C6-    C5-    H5
     4      6      7      9      9   180.00   2.42672   2 ;     C4-    C6-    C7-    O1
     4      6      7     10      9   180.00   4.18400   2 ;     C4-    C6-    C7-    O2
     5      6      4     14      9   180.00  15.16700   2 ;     C5-    C6-    C4-    H4
     5      6      7      9      9   180.00   2.42672   2 ;     C5-    C6-    C7-    O1
     5      6      7     10      9   180.00   4.18400   2 ;     C5-    C6-    C7-    O2
     6      4      2     12      9   180.00  15.16700   2 ;     C6-    C4-    C2-    H2
     6      5      3     13      9   180.00  15.16700   2 ;     C6-    C5-    C3-    H3
     6      7     10      8      9     0.00   1.29704   3 ;     C6-    C7-    O2-    C8
     6      7     10      8      9   180.00   6.69440   1 ;     C6-    C7-    O2-    C8
     6      7     10      8      9   180.00  15.35528   2 ;     C6-    C7-    O2-    C8
     7      6      4     14      9   180.00  15.16700   2 ;     C7-    C6-    C4-    H4
     7      6      5     15      9   180.00  15.16700   2 ;     C7-    C6-    C5-    H5
     7     10      8     16      9     0.00   1.60387   3 ;     C7-    O2-    C8-    H6
     7     10      8     17      9     0.00   1.60387   3 ;     C7-    O2-    C8-    H7
     7     10      8     18      9     0.00   1.60387   3 ;     C7-    O2-    C8-    H8
     8     10      7      9      9   180.00   5.85760   1 ;     C8-    O2-    C7-    O1
     8     10      7      9      9   180.00  11.29680   2 ;     C8-    O2-    C7-    O1
    11      1      2      4      9   180.00  15.16700   2 ;     H1-    C1-    C2-    C4
    11      1      2     12      9   180.00  15.16700   2 ;     H1-    C1-    C2-    H2
    11      1      3      5      9   180.00  15.16700   2 ;     H1-    C1-    C3-    C5
    11      1      3     13      9   180.00  15.16700   2 ;     H1-    C1-    C3-    H3
    12      2      4     14      9   180.00  15.16700   2 ;     H2-    C2-    C4-    H4
    13      3      5     15      9   180.00  15.16700   2 ;     H3-    C3-    C5-    H5

[ dihedrals ] ; impropers
; treated as propers in GROMACS to use correct AMBER analytical function
;    i      j      k      l   func   phase     kd      pn
     1      4      2     12      4   180.00   4.60240   2 ;     C1-    C4-    C2-    H2
     1      5      3     13      4   180.00   4.60240   2 ;     C1-    C5-    C3-    H3
     2      6      4     14      4   180.00   4.60240   2 ;     C2-    C6-    C4-    H4
     3      6      5     15      4   180.00   4.60240   2 ;     C3-    C6-    C5-    H5
     6      9      7     10      4   180.00   4.60240   2 ;     C6-    O1-    C7-    O2
     7      4      6      5      4   180.00   4.60240   2 ;     C7-    C4-    C6-    C5
    11      1      3      2      4   180.00   4.60240   2 ;     H1-    C1-    C3-    C2
