mobley_1189457_GMX.gro created by acpype (v: 2023.10.27) on Tue May 19 12:30:10 2026
 2398
    1MOL     C1    1   2.373   2.312   2.136
    1MOL     C2    2   2.266   2.372   2.203
    1MOL     C3    3   2.478   2.256   2.208
    1MOL     C4    4   2.264   2.375   2.343
    1MOL     C5    5   2.476   2.259   2.348
    1MOL     C6    6   2.369   2.318   2.415
    1MOL     C7    7   2.363   2.501   2.626
    1MOL     S1    8   2.367   2.322   2.593
    1MOL     H1    9   2.374   2.310   2.027
    1MOL     H2   10   2.184   2.416   2.147
    1MOL     H3   11   2.561   2.209   2.156
    1MOL     H4   12   2.180   2.422   2.393
    1MOL     H5   13   2.559   2.214   2.402
    1MOL     H6   14   2.270   2.544   2.587
    1MOL     H7   15   2.448   2.549   2.578
    1MOL     H8   16   2.368   2.519   2.734
   14SOL     OW   17   1.460   1.505   1.339
   14SOL    HW1   18   1.484   1.599   1.365
   14SOL    HW2   19   1.444   1.451   1.421
   18SOL     OW   20   1.127   1.341   1.690
   18SOL    HW1   21   1.174   1.341   1.778
   18SOL    HW2   22   1.079   1.254   1.679
   35SOL     OW   23   1.187   1.792   1.616
   35SOL    HW1   24   1.211   1.852   1.540
   35SOL    HW2   25   1.194   1.697   1.586
   56SOL     OW   26   1.227   1.550   1.506
   56SOL    HW1   27   1.233   1.473   1.570
   56SOL    HW2   28   1.175   1.524   1.426
   95SOL     OW   29   1.754   1.223   1.588
   95SOL    HW1   30   1.845   1.184   1.575
   95SOL    HW2   31   1.762   1.319   1.612
   97SOL     OW   32   1.592   1.629   1.625
   97SOL    HW1   33   1.619   1.663   1.535
   97SOL    HW2   34   1.671   1.591   1.671
  122SOL     OW   35   1.728   0.935   1.854
  122SOL    HW1   36   1.682   0.928   1.765
  122SOL    HW2   37   1.666   0.979   1.920
  126SOL     OW   38   0.980   1.573   1.700
  126SOL    HW1   39   0.960   1.617   1.612
  126SOL    HW2   40   1.019   1.482   1.684
  127SOL     OW   41   1.859   1.518   1.605
  127SOL    HW1   42   1.873   1.545   1.510
  127SOL    HW2   43   1.942   1.540   1.658
  152SOL     OW   44   1.759   1.747   1.154
  152SOL    HW1   45   1.820   1.777   1.081
  152SOL    HW2   46   1.721   1.658   1.132
  153SOL     OW   47   1.252   1.731   1.128
  153SOL    HW1   48   1.336   1.736   1.074
  153SOL    HW2   49   1.229   1.635   1.146
  163SOL     OW   50   1.650   1.720   1.394
  163SOL    HW1   51   1.703   1.730   1.310
  163SOL    HW2   52   1.623   1.810   1.428
  171SOL     OW   53   1.614   1.292   1.289
  171SOL    HW1   54   1.674   1.295   1.369
  171SOL    HW2   55   1.539   1.356   1.302
  184SOL     OW   56   1.493   1.767   0.959
  184SOL    HW1   57   1.526   1.831   0.890
  184SOL    HW2   58   1.559   1.761   1.034
  186SOL     OW   59   1.450   1.220   1.633
  186SOL    HW1   60   1.441   1.210   1.732
  186SOL    HW2   61   1.546   1.213   1.607
  192SOL     OW   62   1.730   0.934   1.517
  192SOL    HW1   63   1.768   1.025   1.532
  192SOL    HW2   64   1.722   0.917   1.418
  197SOL     OW   65   1.861   1.569   0.851
  197SOL    HW1   66   1.790   1.557   0.781
  197SOL    HW2   67   1.862   1.490   0.911
  203SOL     OW   68   1.705   1.487   1.104
  203SOL    HW1   69   1.612   1.462   1.077
  203SOL    HW2   70   1.731   1.437   1.186
  219SOL     OW   71   1.555   1.511   2.565
  219SOL    HW1   72   1.498   1.495   2.646
  219SOL    HW2   73   1.496   1.521   2.485
  227SOL     OW   74   1.460   1.505   3.201
  227SOL    HW1   75   1.484   1.599   3.227
  227SOL    HW2   76   1.444   1.451   3.283
  238SOL     OW   77   1.842   1.767   2.221
  238SOL    HW1   78   1.896   1.738   2.301
  238SOL    HW2   79   1.872   1.857   2.192
  240SOL     OW   80   1.689   0.922   2.474
  240SOL    HW1   81   1.784   0.893   2.482
  240SOL    HW2   82   1.681   0.987   2.399
  241SOL     OW   83   1.641   1.108   2.294
  241SOL    HW1   84   1.727   1.110   2.242
  241SOL    HW2   85   1.655   1.155   2.382
  247SOL     OW   86   1.525   0.999   2.052
  247SOL    HW1   87   1.462   0.923   2.065
  247SOL    HW2   88   1.573   1.017   2.138
  248SOL     OW   89   1.187   1.792   3.478
  248SOL    HW1   90   1.211   1.852   3.402
  248SOL    HW2   91   1.194   1.697   3.448
  250SOL     OW   92   1.466   1.417   2.815
  250SOL    HW1   93   1.407   1.423   2.895
  250SOL    HW2   94   1.451   1.329   2.769
  251SOL     OW   95   1.667   1.714   2.434
  251SOL    HW1   96   1.626   1.691   2.346
  251SOL    HW2   97   1.649   1.640   2.499
  254SOL     OW   98   1.576   1.662   2.169
  254SOL    HW1   99   1.665   1.708   2.172
  254SOL    HW2  100   1.555   1.638   2.074
  264SOL     OW  101   1.362   1.144   2.407
  264SOL    HW1  102   1.445   1.115   2.359
  264SOL    HW2  103   1.313   1.211   2.351
  266SOL     OW  104   1.008   1.456   2.339
  266SOL    HW1  105   0.962   1.528   2.287
  266SOL    HW2  106   1.004   1.476   2.437
  268SOL     OW  107   1.795   1.066   2.735
  268SOL    HW1  108   1.733   1.051   2.659
  268SOL    HW2  109   1.743   1.077   2.820
  269SOL     OW  110   1.227   1.550   3.368
  269SOL    HW1  111   1.233   1.473   3.432
  269SOL    HW2  112   1.175   1.524   3.288
  273SOL     OW  113   1.111   1.776   2.099
  273SOL    HW1  114   1.051   1.714   2.149
  273SOL    HW2  115   1.142   1.732   2.014
  275SOL     OW  116   1.632   1.377   1.943
  275SOL    HW1  117   1.600   1.471   1.933
  275SOL    HW2  118   1.556   1.314   1.931
  279SOL     OW  119   0.940   1.698   2.766
  279SOL    HW1  120   1.020   1.641   2.787
  279SOL    HW2  121   0.891   1.658   2.689
  289SOL     OW  122   1.434   1.188   1.903
  289SOL    HW1  123   1.466   1.112   1.960
  289SOL    HW2  124   1.342   1.215   1.933
  293SOL     OW  125   1.227   1.570   2.655
  293SOL    HW1  126   1.248   1.644   2.590
  293SOL    HW2  127   1.295   1.570   2.728
  295SOL     OW  128   1.271   1.797   2.453
  295SOL    HW1  129   1.315   1.861   2.389
  295SOL    HW2  130   1.221   1.849   2.523
  301SOL     OW  131   1.429   1.173   2.729
  301SOL    HW1  132   1.374   1.089   2.722
  301SOL    HW2  133   1.455   1.202   2.637
  303SOL     OW  134   1.857   0.833   2.239
  303SOL    HW1  135   1.899   0.769   2.303
  303SOL    HW2  136   1.819   0.782   2.161
  305SOL     OW  137   1.664   1.280   2.519
  305SOL    HW1  138   1.763   1.288   2.533
  305SOL    HW2  139   1.619   1.364   2.550
  308SOL     OW  140   1.754   1.223   3.450
  308SOL    HW1  141   1.845   1.184   3.437
  308SOL    HW2  142   1.762   1.319   3.474
  310SOL     OW  143   1.592   1.629   3.487
  310SOL    HW1  144   1.619   1.663   3.397
  310SOL    HW2  145   1.671   1.591   3.533
  312SOL     OW  146   1.638   1.099   2.941
  312SOL    HW1  147   1.643   1.180   3.000
  312SOL    HW2  148   1.552   1.101   2.890
  321SOL     OW  149   1.252   1.348   2.250
  321SOL    HW1  150   1.302   1.425   2.290
  321SOL    HW2  151   1.157   1.350   2.282
  322SOL     OW  152   1.272   1.445   3.004
  322SOL    HW1  153   1.319   1.458   3.091
  322SOL    HW2  154   1.206   1.371   3.013
  340SOL     OW  155   1.859   1.518   3.467
  340SOL    HW1  156   1.873   1.545   3.372
  340SOL    HW2  157   1.942   1.540   3.520
  344SOL     OW  158   1.068   1.333   2.711
  344SOL    HW1  159   1.075   1.249   2.656
  344SOL    HW2  160   1.130   1.402   2.675
  365SOL     OW  161   1.759   1.747   3.016
  365SOL    HW1  162   1.820   1.777   2.943
  365SOL    HW2  163   1.721   1.658   2.994
  366SOL     OW  164   1.252   1.731   2.990
  366SOL    HW1  165   1.336   1.736   2.936
  366SOL    HW2  166   1.229   1.635   3.008
  370SOL     OW  167   1.388   1.573   2.339
  370SOL    HW1  168   1.455   1.585   2.265
  370SOL    HW2  169   1.348   1.662   2.362
  375SOL     OW  170   1.650   1.720   3.256
  375SOL    HW1  171   1.703   1.730   3.172
  375SOL    HW2  172   1.623   1.810   3.290
  378SOL     OW  173   1.194   1.612   1.893
  378SOL    HW1  174   1.200   1.519   1.930
  378SOL    HW2  175   1.135   1.612   1.813
  381SOL     OW  176   1.504   1.607   1.906
  381SOL    HW1  177   1.412   1.644   1.913
  381SOL    HW2  178   1.542   1.627   1.816
  383SOL     OW  179   1.614   1.292   3.151
  383SOL    HW1  180   1.674   1.295   3.231
  383SOL    HW2  181   1.539   1.356   3.164
  394SOL     OW  182   1.183   1.335   1.981
  394SOL    HW1  183   1.084   1.324   1.983
  394SOL    HW2  184   1.217   1.350   2.074
  396SOL     OW  185   1.493   1.767   2.821
  396SOL    HW1  186   1.526   1.831   2.752
  396SOL    HW2  187   1.559   1.761   2.896
  409SOL     OW  188   1.861   1.569   2.713
  409SOL    HW1  189   1.790   1.557   2.643
  409SOL    HW2  190   1.862   1.490   2.773
  415SOL     OW  191   1.705   1.487   2.966
  415SOL    HW1  192   1.612   1.462   2.939
  415SOL    HW2  193   1.731   1.437   3.048
  417SOL     OW  194   0.812   1.586   2.549
  417SOL    HW1  195   0.844   1.596   2.455
  417SOL    HW2  196   0.733   1.524   2.551
  426SOL     OW  197   0.875   1.646   2.199
  426SOL    HW1  198   0.798   1.611   2.145
  426SOL    HW2  199   0.843   1.717   2.261
  544SOL     OW  200   0.850   2.660   1.823
  544SOL    HW1  201   0.846   2.736   1.888
  544SOL    HW2  202   0.872   2.696   1.732
  548SOL     OW  203   1.460   3.367   1.339
  548SOL    HW1  204   1.484   3.461   1.365
  548SOL    HW2  205   1.444   3.313   1.421
  552SOL     OW  206   1.127   3.203   1.690
  552SOL    HW1  207   1.174   3.203   1.778
  552SOL    HW2  208   1.079   3.116   1.679
  557SOL     OW  209   1.594   1.976   1.480
  557SOL    HW1  210   1.576   2.043   1.408
  557SOL    HW2  211   1.591   2.022   1.569
  565SOL     OW  212   1.293   3.090   1.423
  565SOL    HW1  213   1.330   3.017   1.365
  565SOL    HW2  214   1.345   3.095   1.508
  574SOL     OW  215   1.281   2.207   0.944
  574SOL    HW1  216   1.195   2.157   0.931
  574SOL    HW2  217   1.343   2.153   1.000
  577SOL     OW  218   1.394   2.331   1.674
  577SOL    HW1  219   1.374   2.374   1.762
  577SOL    HW2  220   1.472   2.269   1.683
  578SOL     OW  221   0.973   2.752   1.572
  578SOL    HW1  222   1.019   2.668   1.543
  578SOL    HW2  223   0.917   2.786   1.497
  579SOL     OW  224   0.991   2.272   1.242
  579SOL    HW1  225   0.914   2.306   1.296
  579SOL    HW2  226   0.957   2.221   1.163
  584SOL     OW  227   1.719   2.447   1.831
  584SOL    HW1  228   1.693   2.536   1.795
  584SOL    HW2  229   1.717   2.379   1.758
  589SOL     OW  230   1.795   2.928   0.873
  589SOL    HW1  231   1.733   2.913   0.797
  589SOL    HW2  232   1.743   2.939   0.958
  590SOL     OW  233   1.227   3.412   1.506
  590SOL    HW1  234   1.233   3.335   1.570
  590SOL    HW2  235   1.175   3.386   1.426
  602SOL     OW  236   1.547   2.084   1.729
  602SOL    HW1  237   1.542   2.121   1.821
  602SOL    HW2  238   1.475   2.015   1.717
  603SOL     OW  239   0.781   2.126   1.749
  603SOL    HW1  240   0.848   2.065   1.792
  603SOL    HW2  241   0.708   2.145   1.814
  605SOL     OW  242   1.351   2.452   1.433
  605SOL    HW1  243   1.379   2.409   1.518
  605SOL    HW2  244   1.376   2.548   1.434
  612SOL     OW  245   1.076   2.545   1.464
  612SOL    HW1  246   0.996   2.484   1.467
  612SOL    HW2  247   1.157   2.492   1.440
  622SOL     OW  248   1.466   2.452   0.992
  622SOL    HW1  249   1.436   2.357   0.999
  622SOL    HW2  250   1.539   2.468   1.058
  628SOL     OW  251   1.754   3.085   1.588
  628SOL    HW1  252   1.845   3.046   1.575
  628SOL    HW2  253   1.762   3.181   1.612
  630SOL     OW  254   1.592   3.491   1.625
  630SOL    HW1  255   1.619   3.525   1.535
  630SOL    HW2  256   1.671   3.453   1.671
  632SOL     OW  257   1.638   2.961   1.079
  632SOL    HW1  258   1.643   3.042   1.138
  632SOL    HW2  259   1.552   2.963   1.028
  633SOL     OW  260   0.915   1.951   1.402
  633SOL    HW1  261   0.940   1.931   1.307
  633SOL    HW2  262   0.987   2.007   1.444
  634SOL     OW  263   0.980   2.978   1.719
  634SOL    HW1  264   0.881   2.984   1.729
  634SOL    HW2  265   1.003   2.898   1.663
  637SOL     OW  266   1.274   2.248   1.262
  637SOL    HW1  267   1.295   2.322   1.326
  637SOL    HW2  268   1.185   2.265   1.219
  646SOL     OW  269   1.587   2.641   1.670
  646SOL    HW1  270   1.495   2.679   1.665
  646SOL    HW2  271   1.647   2.688   1.605
  647SOL     OW  272   1.013   1.967   1.770
  647SOL    HW1  273   1.019   2.052   1.718
  647SOL    HW2  274   1.045   1.891   1.713
  650SOL     OW  275   1.360   2.724   1.045
  650SOL    HW1  276   1.285   2.724   0.979
  650SOL    HW2  277   1.397   2.632   1.054
  655SOL     OW  278   1.728   2.797   1.854
  655SOL    HW1  279   1.682   2.790   1.765
  655SOL    HW2  280   1.666   2.841   1.920
  660SOL     OW  281   1.859   3.380   1.605
  660SOL    HW1  282   1.873   3.407   1.510
  660SOL    HW2  283   1.942   3.402   1.658
  667SOL     OW  284   1.138   2.242   1.678
  667SOL    HW1  285   1.093   2.305   1.742
  667SOL    HW2  286   1.231   2.273   1.661
  668SOL     OW  287   1.160   2.069   1.477
  668SOL    HW1  288   1.160   2.133   1.554
  668SOL    HW2  289   1.188   2.117   1.394
  672SOL     OW  290   1.002   2.658   1.238
  672SOL    HW1  291   1.043   2.626   1.324
  672SOL    HW2  292   0.906   2.631   1.235
  675SOL     OW  293   1.369   2.812   1.660
  675SOL    HW1  294   1.408   2.901   1.680
  675SOL    HW2  295   1.379   2.792   1.563
  677SOL     OW  296   1.657   2.466   1.206
  677SOL    HW1  297   1.619   2.397   1.268
  677SOL    HW2  298   1.739   2.430   1.162
  683SOL     OW  299   1.347   2.921   1.234
  683SOL    HW1  300   1.371   2.858   1.160
  683SOL    HW2  301   1.257   2.961   1.216
  696SOL     OW  302   1.650   3.582   1.394
  696SOL    HW1  303   1.703   3.592   1.310
  696SOL    HW2  304   1.623   3.672   1.428
  697SOL     OW  305   1.841   2.037   0.963
  697SOL    HW1  306   1.880   1.952   0.927
  697SOL    HW2  307   1.743   2.039   0.944
  704SOL     OW  308   1.614   3.154   1.289
  704SOL    HW1  309   1.674   3.157   1.369
  704SOL    HW2  310   1.539   3.218   1.302
  708SOL     OW  311   1.709   2.247   1.381
  708SOL    HW1  312   1.782   2.316   1.385
  708SOL    HW2  313   1.737   2.172   1.322
  713SOL     OW  314   1.440   2.718   1.398
  713SOL    HW1  315   1.383   2.770   1.335
  713SOL    HW2  316   1.536   2.730   1.374
  718SOL     OW  317   0.716   2.427   1.708
  718SOL    HW1  318   0.735   2.492   1.782
  718SOL    HW2  319   0.776   2.347   1.717
  719SOL     OW  320   1.450   3.082   1.633
  719SOL    HW1  321   1.441   3.072   1.732
  719SOL    HW2  322   1.546   3.075   1.607
  721SOL     OW  323   1.674   2.745   1.254
  721SOL    HW1  324   1.647   2.656   1.217
  721SOL    HW2  325   1.675   2.813   1.181
  724SOL     OW  326   1.777   2.204   1.642
  724SOL    HW1  327   1.760   2.235   1.548
  724SOL    HW2  328   1.693   2.167   1.680
  725SOL     OW  329   1.730   2.796   1.517
  725SOL    HW1  330   1.768   2.887   1.532
  725SOL    HW2  331   1.722   2.779   1.418
  734SOL     OW  332   1.824   2.054   1.227
  734SOL    HW1  333   1.820   1.964   1.271
  734SOL    HW2  334   1.827   2.043   1.128
  736SOL     OW  335   1.705   3.349   1.104
  736SOL    HW1  336   1.612   3.324   1.077
  736SOL    HW2  337   1.731   3.299   1.186
  739SOL     OW  338   1.424   2.076   1.112
  739SOL    HW1  339   1.476   2.011   1.167
  739SOL    HW2  340   1.375   2.139   1.173
  745SOL     OW  341   1.593   2.083   0.882
  745SOL    HW1  342   1.509   2.082   0.936
  745SOL    HW2  343   1.595   2.166   0.826
  752SOL     OW  344   1.555   3.373   2.565
  752SOL    HW1  345   1.498   3.357   2.646
  752SOL    HW2  346   1.496   3.383   2.485
  753SOL     OW  347   1.135   2.565   2.579
  753SOL    HW1  348   1.192   2.643   2.554
  753SOL    HW2  349   1.075   2.591   2.655
  754SOL     OW  350   1.755   2.469   2.093
  754SOL    HW1  351   1.743   2.456   1.994
  754SOL    HW2  352   1.725   2.388   2.142
  755SOL     OW  353   0.768   3.006   2.885
  755SOL    HW1  354   0.690   3.023   2.945
  755SOL    HW2  355   0.802   3.093   2.849
  757SOL     OW  356   0.685   2.874   2.527
  757SOL    HW1  357   0.754   2.858   2.597
  757SOL    HW2  358   0.612   2.931   2.565
  760SOL     OW  359   1.460   3.367   3.201
  760SOL    HW1  360   1.484   3.461   3.227
  760SOL    HW2  361   1.444   3.313   3.283
  762SOL     OW  362   1.603   2.309   2.599
  762SOL    HW1  363   1.529   2.355   2.549
  762SOL    HW2  364   1.654   2.377   2.652
  769SOL     OW  365   1.594   1.976   3.342
  769SOL    HW1  366   1.576   2.043   3.270
  769SOL    HW2  367   1.591   2.022   3.431
  771SOL     OW  368   1.842   3.629   2.221
  771SOL    HW1  369   1.896   3.600   2.301
  771SOL    HW2  370   1.872   3.719   2.192
  773SOL     OW  371   1.689   2.784   2.474
  773SOL    HW1  372   1.784   2.755   2.482
  773SOL    HW2  373   1.681   2.849   2.399
  774SOL     OW  374   1.641   2.970   2.294
  774SOL    HW1  375   1.727   2.972   2.242
  774SOL    HW2  376   1.655   3.017   2.382
  777SOL     OW  377   1.293   3.090   3.285
  777SOL    HW1  378   1.330   3.017   3.227
  777SOL    HW2  379   1.345   3.095   3.370
  778SOL     OW  380   0.809   1.866   2.364
  778SOL    HW1  381   0.849   1.957   2.355
  778SOL    HW2  382   0.709   1.874   2.370
  780SOL     OW  383   1.525   2.861   2.052
  780SOL    HW1  384   1.462   2.785   2.065
  780SOL    HW2  385   1.573   2.879   2.138
  783SOL     OW  386   1.466   3.279   2.815
  783SOL    HW1  387   1.407   3.285   2.895
  783SOL    HW2  388   1.451   3.191   2.769
  784SOL     OW  389   1.667   3.576   2.434
  784SOL    HW1  390   1.626   3.553   2.346
  784SOL    HW2  391   1.649   3.502   2.499
  786SOL     OW  392   1.281   2.207   2.806
  786SOL    HW1  393   1.195   2.157   2.793
  786SOL    HW2  394   1.343   2.153   2.862
  787SOL     OW  395   1.576   3.524   2.169
  787SOL    HW1  396   1.665   3.570   2.172
  787SOL    HW2  397   1.555   3.500   2.074
  789SOL     OW  398   1.394   2.331   3.536
  789SOL    HW1  399   1.374   2.374   3.624
  789SOL    HW2  400   1.472   2.269   3.545
  790SOL     OW  401   0.973   2.752   3.434
  790SOL    HW1  402   1.019   2.668   3.405
  790SOL    HW2  403   0.917   2.786   3.359
  791SOL     OW  404   0.991   2.272   3.104
  791SOL    HW1  405   0.914   2.306   3.158
  791SOL    HW2  406   0.957   2.221   3.025
  792SOL     OW  407   1.041   2.563   2.291
  792SOL    HW1  408   1.067   2.559   2.387
  792SOL    HW2  409   0.956   2.512   2.277
  795SOL     OW  410   0.865   2.210   2.057
  795SOL    HW1  411   0.924   2.273   2.008
  795SOL    HW2  412   0.884   2.116   2.028
  796SOL     OW  413   1.719   2.447   3.693
  796SOL    HW1  414   1.693   2.536   3.657
  796SOL    HW2  415   1.717   2.379   3.620
  797SOL     OW  416   1.362   3.006   2.407
  797SOL    HW1  417   1.445   2.977   2.359
  797SOL    HW2  418   1.313   3.073   2.351
  799SOL     OW  419   1.008   3.318   2.339
  799SOL    HW1  420   0.962   3.390   2.287
  799SOL    HW2  421   1.004   3.338   2.437
  801SOL     OW  422   1.795   2.928   2.735
  801SOL    HW1  423   1.733   2.913   2.659
  801SOL    HW2  424   1.743   2.939   2.820
  804SOL     OW  425   1.458   2.597   2.590
  804SOL    HW1  426   1.453   2.532   2.665
  804SOL    HW2  427   1.538   2.656   2.603
  808SOL     OW  428   1.632   3.239   1.943
  808SOL    HW1  429   1.600   3.333   1.933
  808SOL    HW2  430   1.556   3.176   1.931
  810SOL     OW  431   1.400   1.969   2.288
  810SOL    HW1  432   1.376   1.932   2.198
  810SOL    HW2  433   1.499   1.985   2.292
  814SOL     OW  434   1.547   2.084   3.591
  814SOL    HW1  435   1.542   2.121   3.683
  814SOL    HW2  436   1.475   2.015   3.579
  818SOL     OW  437   1.351   2.452   3.295
  818SOL    HW1  438   1.379   2.409   3.380
  818SOL    HW2  439   1.376   2.548   3.296
  820SOL     OW  440   0.922   2.365   2.761
  820SOL    HW1  441   0.897   2.356   2.665
  820SOL    HW2  442   0.970   2.283   2.792
  822SOL     OW  443   1.434   3.050   1.903
  822SOL    HW1  444   1.466   2.974   1.960
  822SOL    HW2  445   1.342   3.077   1.933
  824SOL     OW  446   0.935   2.098   2.342
  824SOL    HW1  447   0.887   2.139   2.264
  824SOL    HW2  448   1.034   2.096   2.323
  825SOL     OW  449   1.076   2.545   3.326
  825SOL    HW1  450   0.996   2.484   3.329
  825SOL    HW2  451   1.157   2.492   3.302
  826SOL     OW  452   1.227   3.432   2.655
  826SOL    HW1  453   1.248   3.506   2.590
  826SOL    HW2  454   1.295   3.432   2.728
  828SOL     OW  455   1.271   3.659   2.453
  828SOL    HW1  456   1.315   3.723   2.389
  828SOL    HW2  457   1.221   3.711   2.523
  829SOL     OW  458   1.032   2.411   1.878
  829SOL    HW1  459   0.991   2.493   1.839
  829SOL    HW2  460   1.096   2.437   1.951
  832SOL     OW  461   0.866   2.316   2.504
  832SOL    HW1  462   0.834   2.388   2.442
  832SOL    HW2  463   0.890   2.235   2.451
  833SOL     OW  464   1.017   1.901   2.615
  833SOL    HW1  465   0.945   1.906   2.546
  833SOL    HW2  466   0.993   1.832   2.684
  834SOL     OW  467   1.429   3.035   2.729
  834SOL    HW1  468   1.374   2.951   2.722
  834SOL    HW2  469   1.455   3.064   2.637
  835SOL     OW  470   1.466   2.452   2.854
  835SOL    HW1  471   1.436   2.357   2.861
  835SOL    HW2  472   1.539   2.468   2.920
  836SOL     OW  473   1.857   2.695   2.239
  836SOL    HW1  474   1.899   2.631   2.303
  836SOL    HW2  475   1.819   2.644   2.161
  838SOL     OW  476   1.664   3.142   2.519
  838SOL    HW1  477   1.763   3.150   2.533
  838SOL    HW2  478   1.619   3.226   2.550
  839SOL     OW  479   1.390   2.437   1.940
  839SOL    HW1  480   1.336   2.416   2.021
  839SOL    HW2  481   1.481   2.396   1.949
  841SOL     OW  482   1.754   3.085   3.450
  841SOL    HW1  483   1.845   3.046   3.437
  841SOL    HW2  484   1.762   3.181   3.474
  842SOL     OW  485   1.064   3.209   3.202
  842SOL    HW1  486   0.984   3.186   3.257
  842SOL    HW2  487   1.147   3.183   3.251
  843SOL     OW  488   1.592   3.491   3.487
  843SOL    HW1  489   1.619   3.525   3.397
  843SOL    HW2  490   1.671   3.453   3.533
  844SOL     OW  491   1.111   3.057   2.962
  844SOL    HW1  492   1.071   3.101   3.043
  844SOL    HW2  493   1.070   3.094   2.879
  845SOL     OW  494   1.638   2.961   2.941
  845SOL    HW1  495   1.643   3.042   3.000
  845SOL    HW2  496   1.552   2.963   2.890
  846SOL     OW  497   0.915   1.951   3.264
  846SOL    HW1  498   0.940   1.931   3.169
  846SOL    HW2  499   0.987   2.007   3.306
  848SOL     OW  500   0.705   2.912   2.230
  848SOL    HW1  501   0.691   2.919   2.329
  848SOL    HW2  502   0.789   2.861   2.212
  850SOL     OW  503   1.274   2.248   3.124
  850SOL    HW1  504   1.295   2.322   3.188
  850SOL    HW2  505   1.185   2.265   3.081
  854SOL     OW  506   1.252   3.210   2.250
  854SOL    HW1  507   1.302   3.287   2.290
  854SOL    HW2  508   1.157   3.212   2.282
  855SOL     OW  509   1.272   3.307   3.004
  855SOL    HW1  510   1.319   3.320   3.091
  855SOL    HW2  511   1.206   3.233   3.013
  856SOL     OW  512   1.582   2.501   2.334
  856SOL    HW1  513   1.551   2.562   2.407
  856SOL    HW2  514   1.632   2.553   2.265
  859SOL     OW  515   1.587   2.641   3.532
  859SOL    HW1  516   1.495   2.679   3.527
  859SOL    HW2  517   1.647   2.688   3.467
  863SOL     OW  518   1.360   2.724   2.907
  863SOL    HW1  519   1.285   2.724   2.841
  863SOL    HW2  520   1.397   2.632   2.916
  864SOL     OW  521   1.209   2.387   2.137
  864SOL    HW1  522   1.222   2.303   2.191
  864SOL    HW2  523   1.180   2.461   2.197
  867SOL     OW  524   0.732   2.496   2.926
  867SOL    HW1  525   0.791   2.470   2.850
  867SOL    HW2  526   0.704   2.592   2.915
  868SOL     OW  527   1.728   2.797   3.716
  868SOL    HW1  528   1.682   2.790   3.627
  868SOL    HW2  529   1.666   2.841   3.782
  870SOL     OW  530   1.622   2.229   2.236
  870SOL    HW1  531   1.624   2.153   2.300
  870SOL    HW2  532   1.574   2.306   2.276
  871SOL     OW  533   1.023   2.628   2.828
  871SOL    HW1  534   1.038   2.649   2.924
  871SOL    HW2  535   0.993   2.533   2.819
  873SOL     OW  536   1.859   3.380   3.467
  873SOL    HW1  537   1.873   3.407   3.372
  873SOL    HW2  538   1.942   3.402   3.520
  875SOL     OW  539   1.540   2.136   1.987
  875SOL    HW1  540   1.479   2.061   2.010
  875SOL    HW2  541   1.562   2.188   2.070
  876SOL     OW  542   1.303   2.700   1.904
  876SOL    HW1  543   1.337   2.607   1.919
  876SOL    HW2  544   1.321   2.727   1.809
  877SOL     OW  545   1.068   3.195   2.711
  877SOL    HW1  546   1.075   3.111   2.656
  877SOL    HW2  547   1.130   3.264   2.675
  880SOL     OW  548   1.138   2.242   3.540
  880SOL    HW1  549   1.093   2.305   3.604
  880SOL    HW2  550   1.231   2.273   3.523
  881SOL     OW  551   1.160   2.069   3.339
  881SOL    HW1  552   1.160   2.133   3.416
  881SOL    HW2  553   1.188   2.117   3.256
  885SOL     OW  554   1.002   2.658   3.100
  885SOL    HW1  555   1.043   2.626   3.186
  885SOL    HW2  556   0.906   2.631   3.097
  888SOL     OW  557   1.369   2.812   3.522
  888SOL    HW1  558   1.408   2.901   3.542
  888SOL    HW2  559   1.379   2.792   3.425
  889SOL     OW  560   0.815   2.434   2.187
  889SOL    HW1  561   0.822   2.345   2.141
  889SOL    HW2  562   0.721   2.468   2.179
  890SOL     OW  563   1.657   2.466   3.068
  890SOL    HW1  564   1.619   2.397   3.130
  890SOL    HW2  565   1.739   2.430   3.024
  896SOL     OW  566   1.347   2.921   3.096
  896SOL    HW1  567   1.371   2.858   3.022
  896SOL    HW2  568   1.257   2.961   3.078
  897SOL     OW  569   1.302   2.717   2.171
  897SOL    HW1  570   1.216   2.686   2.213
  897SOL    HW2  571   1.298   2.703   2.072
  898SOL     OW  572   1.759   3.609   3.016
  898SOL    HW1  573   1.820   3.639   2.943
  898SOL    HW2  574   1.721   3.520   2.994
  899SOL     OW  575   1.252   3.593   2.990
  899SOL    HW1  576   1.336   3.598   2.936
  899SOL    HW2  577   1.229   3.497   3.008
  902SOL     OW  578   1.726   1.997   2.385
  902SOL    HW1  579   1.799   1.980   2.318
  902SOL    HW2  580   1.695   1.910   2.423
  903SOL     OW  581   1.388   3.435   2.339
  903SOL    HW1  582   1.455   3.447   2.265
  903SOL    HW2  583   1.348   3.524   2.362
  905SOL     OW  584   1.280   2.789   2.534
  905SOL    HW1  585   1.340   2.708   2.536
  905SOL    HW2  586   1.320   2.858   2.474
  908SOL     OW  587   1.650   3.582   3.256
  908SOL    HW1  588   1.703   3.592   3.172
  908SOL    HW2  589   1.623   3.672   3.290
  909SOL     OW  590   1.841   2.037   2.825
  909SOL    HW1  591   1.880   1.952   2.789
  909SOL    HW2  592   1.743   2.039   2.806
  911SOL     OW  593   1.194   3.474   1.893
  911SOL    HW1  594   1.200   3.381   1.930
  911SOL    HW2  595   1.135   3.474   1.813
  913SOL     OW  596   0.916   2.772   2.153
  913SOL    HW1  597   0.979   2.810   2.085
  913SOL    HW2  598   0.956   2.689   2.192
  914SOL     OW  599   1.504   3.469   1.906
  914SOL    HW1  600   1.412   3.506   1.913
  914SOL    HW2  601   1.542   3.489   1.816
  916SOL     OW  602   1.614   3.154   3.151
  916SOL    HW1  603   1.674   3.157   3.231
  916SOL    HW2  604   1.539   3.218   3.164
  917SOL     OW  605   1.039   2.960   2.558
  917SOL    HW1  606   0.969   2.913   2.612
  917SOL    HW2  607   1.098   2.892   2.515
  918SOL     OW  608   1.014   2.098   2.833
  918SOL    HW1  609   1.006   2.062   2.740
  918SOL    HW2  610   1.012   2.022   2.898
  920SOL     OW  611   1.709   2.247   3.243
  920SOL    HW1  612   1.782   2.316   3.247
  920SOL    HW2  613   1.737   2.172   3.184
  925SOL     OW  614   1.440   2.718   3.260
  925SOL    HW1  615   1.383   2.770   3.197
  925SOL    HW2  616   1.536   2.730   3.236
  927SOL     OW  617   1.183   3.197   1.981
  927SOL    HW1  618   1.084   3.186   1.983
  927SOL    HW2  619   1.217   3.212   2.074
  929SOL     OW  620   1.493   3.629   2.821
  929SOL    HW1  621   1.526   3.693   2.752
  929SOL    HW2  622   1.559   3.623   2.896
  931SOL     OW  623   1.450   3.082   3.495
  931SOL    HW1  624   1.441   3.072   3.594
  931SOL    HW2  625   1.546   3.075   3.469
  933SOL     OW  626   1.674   2.745   3.116
  933SOL    HW1  627   1.647   2.656   3.079
  933SOL    HW2  628   1.675   2.813   3.043
  934SOL     OW  629   1.225   2.187   2.311
  934SOL    HW1  630   1.290   2.113   2.300
  934SOL    HW2  631   1.245   2.237   2.395
  935SOL     OW  632   0.594   2.607   2.514
  935SOL    HW1  633   0.644   2.692   2.495
  935SOL    HW2  634   0.506   2.609   2.466
  936SOL     OW  635   1.777   2.204   3.504
  936SOL    HW1  636   1.760   2.235   3.410
  936SOL    HW2  637   1.693   2.167   3.542
  937SOL     OW  638   1.730   2.796   3.379
  937SOL    HW1  639   1.768   2.887   3.394
  937SOL    HW2  640   1.722   2.779   3.280
  940SOL     OW  641   0.859   2.818   2.723
  940SOL    HW1  642   0.913   2.749   2.771
  940SOL    HW2  643   0.827   2.887   2.789
  941SOL     OW  644   1.083   2.846   1.949
  941SOL    HW1  645   1.060   2.899   1.867
  941SOL    HW2  646   1.164   2.790   1.930
  942SOL     OW  647   1.861   3.431   2.713
  942SOL    HW1  648   1.790   3.419   2.643
  942SOL    HW2  649   1.862   3.352   2.773
  946SOL     OW  650   1.824   2.054   3.089
  946SOL    HW1  651   1.820   1.964   3.133
  946SOL    HW2  652   1.827   2.043   2.990
  948SOL     OW  653   1.705   3.349   2.966
  948SOL    HW1  654   1.612   3.324   2.939
  948SOL    HW2  655   1.731   3.299   3.048
  951SOL     OW  656   1.424   2.076   2.974
  951SOL    HW1  657   1.476   2.011   3.029
  951SOL    HW2  658   1.375   2.139   3.035
  952SOL     OW  659   1.001   1.896   3.016
  952SOL    HW1  660   0.938   1.824   2.985
  952SOL    HW2  661   1.094   1.860   3.016
  955SOL     OW  662   1.352   1.914   2.030
  955SOL    HW1  663   1.387   1.873   1.946
  955SOL    HW2  664   1.262   1.876   2.050
  956SOL     OW  665   1.300   2.315   2.553
  956SOL    HW1  666   1.241   2.395   2.557
  956SOL    HW2  667   1.315   2.280   2.646
  957SOL     OW  668   1.593   2.083   2.744
  957SOL    HW1  669   1.509   2.082   2.798
  957SOL    HW2  670   1.595   2.166   2.688
  964SOL     OW  671   1.755   2.469   3.955
  964SOL    HW1  672   1.743   2.456   3.856
  964SOL    HW2  673   1.725   2.388   4.004
 1015SOL     OW  674   1.390   2.437   3.802
 1015SOL    HW1  675   1.336   2.416   3.883
 1015SOL    HW2  676   1.481   2.396   3.811
 1026SOL     OW  677   1.540   2.136   3.849
 1026SOL    HW1  678   1.479   2.061   3.872
 1026SOL    HW2  679   1.562   2.188   3.932
 1027SOL     OW  680   1.303   2.700   3.766
 1027SOL    HW1  681   1.337   2.607   3.781
 1027SOL    HW2  682   1.321   2.727   3.671
 1211SOL     OW  683   1.400   3.831   2.288
 1211SOL    HW1  684   1.376   3.794   2.198
 1211SOL    HW2  685   1.499   3.847   2.292
 1268SOL     OW  686   1.726   3.859   2.385
 1268SOL    HW1  687   1.799   3.842   2.318
 1268SOL    HW2  688   1.695   3.772   2.423
 1270SOL     OW  689   1.841   3.899   2.825
 1270SOL    HW1  690   1.880   3.814   2.789
 1270SOL    HW2  691   1.743   3.901   2.806
 1287SOL     OW  692   1.824   3.916   3.089
 1287SOL    HW1  693   1.820   3.826   3.133
 1287SOL    HW2  694   1.827   3.905   2.990
 1292SOL     OW  695   1.352   3.776   2.030
 1292SOL    HW1  696   1.387   3.735   1.946
 1292SOL    HW2  697   1.262   3.738   2.050
 1294SOL     OW  698   1.593   3.945   2.744
 1294SOL    HW1  699   1.509   3.944   2.798
 1294SOL    HW2  700   1.595   4.028   2.688
 1357SOL     OW  701   2.431   1.275   1.165
 1357SOL    HW1  702   2.338   1.268   1.128
 1357SOL    HW2  703   2.442   1.364   1.209
 1362SOL     OW  704   2.712   0.798   1.823
 1362SOL    HW1  705   2.708   0.874   1.888
 1362SOL    HW2  706   2.734   0.834   1.732
 1364SOL     OW  707   2.548   1.161   1.803
 1364SOL    HW1  708   2.608   1.240   1.817
 1364SOL    HW2  709   2.462   1.192   1.762
 1365SOL     OW  710   2.197   1.435   1.061
 1365SOL    HW1  711   2.119   1.404   1.008
 1365SOL    HW2  712   2.255   1.493   1.004
 1366SOL     OW  713   3.322   1.505   1.339
 1366SOL    HW1  714   3.346   1.599   1.365
 1366SOL    HW2  715   3.306   1.451   1.421
 1370SOL     OW  716   2.989   1.341   1.690
 1370SOL    HW1  717   3.036   1.341   1.778
 1370SOL    HW2  718   2.941   1.254   1.679
 1373SOL     OW  719   2.482   1.786   1.439
 1373SOL    HW1  720   2.390   1.769   1.474
 1373SOL    HW2  721   2.510   1.878   1.465
 1382SOL     OW  722   3.155   1.228   1.423
 1382SOL    HW1  723   3.192   1.155   1.365
 1382SOL    HW2  724   3.207   1.233   1.508
 1386SOL     OW  725   3.049   1.792   1.616
 1386SOL    HW1  726   3.073   1.852   1.540
 1386SOL    HW2  727   3.056   1.697   1.586
 1395SOL     OW  728   2.835   0.890   1.572
 1395SOL    HW1  729   2.881   0.806   1.543
 1395SOL    HW2  730   2.779   0.924   1.497
 1399SOL     OW  731   1.992   1.821   1.571
 1399SOL    HW1  732   1.982   1.806   1.670
 1399SOL    HW2  733   1.906   1.857   1.535
 1405SOL     OW  734   2.213   1.801   0.853
 1405SOL    HW1  735   2.263   1.715   0.859
 1405SOL    HW2  736   2.278   1.878   0.850
 1407SOL     OW  737   3.089   1.550   1.506
 1407SOL    HW1  738   3.095   1.473   1.570
 1407SOL    HW2  739   3.037   1.524   1.426
 1410SOL     OW  740   2.323   1.266   1.727
 1410SOL    HW1  741   2.273   1.267   1.641
 1410SOL    HW2  742   2.260   1.248   1.803
 1416SOL     OW  743   2.111   1.785   1.241
 1416SOL    HW1  744   2.168   1.720   1.291
 1416SOL    HW2  745   2.095   1.752   1.148
 1417SOL     OW  746   2.802   1.698   0.904
 1417SOL    HW1  747   2.882   1.641   0.925
 1417SOL    HW2  748   2.753   1.658   0.827
 1422SOL     OW  749   2.750   1.514   1.195
 1422SOL    HW1  750   2.727   1.489   1.101
 1422SOL    HW2  751   2.811   1.445   1.234
 1424SOL     OW  752   2.665   1.402   0.924
 1424SOL    HW1  753   2.755   1.416   0.882
 1424SOL    HW2  754   2.594   1.404   0.853
 1447SOL     OW  755   2.926   1.347   1.340
 1447SOL    HW1  756   2.846   1.324   1.395
 1447SOL    HW2  757   3.009   1.321   1.389
 1448SOL     OW  758   3.454   1.629   1.625
 1448SOL    HW1  759   3.481   1.663   1.535
 1448SOL    HW2  760   3.533   1.591   1.671
 1452SOL     OW  761   2.842   1.116   1.719
 1452SOL    HW1  762   2.743   1.122   1.729
 1452SOL    HW2  763   2.865   1.036   1.663
 1456SOL     OW  764   1.926   1.564   1.331
 1456SOL    HW1  765   1.880   1.646   1.297
 1456SOL    HW2  766   2.024   1.583   1.340
 1460SOL     OW  767   3.134   1.445   1.142
 1460SOL    HW1  768   3.181   1.458   1.229
 1460SOL    HW2  769   3.068   1.371   1.151
 1462SOL     OW  770   2.216   1.510   1.329
 1462SOL    HW1  771   2.195   1.466   1.242
 1462SOL    HW2  772   2.313   1.536   1.332
 1463SOL     OW  773   2.264   0.751   1.598
 1463SOL    HW1  774   2.332   0.806   1.551
 1463SOL    HW2  775   2.304   0.663   1.625
 1471SOL     OW  776   1.899   1.310   1.282
 1471SOL    HW1  777   1.952   1.261   1.350
 1471SOL    HW2  778   1.921   1.408   1.287
 1477SOL     OW  779   2.842   1.573   1.700
 1477SOL    HW1  780   2.822   1.617   1.612
 1477SOL    HW2  781   2.881   1.482   1.684
 1478SOL     OW  782   3.721   1.518   1.605
 1478SOL    HW1  783   3.735   1.545   1.510
 1478SOL    HW2  784   3.804   1.540   1.658
 1479SOL     OW  785   2.212   0.898   1.804
 1479SOL    HW1  786   2.288   0.942   1.852
 1479SOL    HW2  787   2.247   0.851   1.722
 1488SOL     OW  788   1.950   1.801   0.927
 1488SOL    HW1  789   1.908   1.715   0.900
 1488SOL    HW2  790   2.044   1.804   0.893
 1489SOL     OW  791   2.366   1.568   0.910
 1489SOL    HW1  792   2.432   1.642   0.919
 1489SOL    HW2  793   2.410   1.489   0.868
 1496SOL     OW  794   2.114   1.564   1.744
 1496SOL    HW1  795   2.084   1.621   1.820
 1496SOL    HW2  796   2.107   1.467   1.770
 1498SOL     OW  797   2.792   1.678   1.465
 1498SOL    HW1  798   2.768   1.660   1.370
 1498SOL    HW2  799   2.822   1.772   1.475
 1500SOL     OW  800   2.021   1.137   1.466
 1500SOL    HW1  801   2.043   1.076   1.542
 1500SOL    HW2  802   2.031   1.088   1.380
 1504SOL     OW  803   3.114   1.731   1.128
 1504SOL    HW1  804   3.198   1.736   1.074
 1504SOL    HW2  805   3.091   1.635   1.146
 1505SOL     OW  806   1.945   1.258   1.022
 1505SOL    HW1  807   1.940   1.257   1.122
 1505SOL    HW2  808   1.862   1.217   0.984
 1506SOL     OW  809   2.550   1.662   1.716
 1506SOL    HW1  810   2.494   1.743   1.725
 1506SOL    HW2  811   2.602   1.666   1.630
 1510SOL     OW  812   1.992   1.794   1.851
 1510SOL    HW1  813   1.951   1.720   1.904
 1510SOL    HW2  814   2.056   1.845   1.909
 1512SOL     OW  815   2.692   1.273   1.422
 1512SOL    HW1  816   2.687   1.306   1.517
 1512SOL    HW2  817   2.606   1.292   1.376
 1514SOL     OW  818   3.512   1.720   1.394
 1514SOL    HW1  819   3.565   1.730   1.310
 1514SOL    HW2  820   3.485   1.810   1.428
 1518SOL     OW  821   2.684   1.002   1.372
 1518SOL    HW1  822   2.724   1.001   1.280
 1518SOL    HW2  823   2.694   1.094   1.412
 1521SOL     OW  824   2.234   1.288   1.490
 1521SOL    HW1  825   2.221   1.381   1.456
 1521SOL    HW2  826   2.150   1.236   1.477
 1528SOL     OW  827   1.967   1.013   1.726
 1528SOL    HW1  828   1.890   0.980   1.780
 1528SOL    HW2  829   2.052   0.983   1.768
 1532SOL     OW  830   2.475   0.842   1.431
 1532SOL    HW1  831   2.531   0.923   1.414
 1532SOL    HW2  832   2.534   0.762   1.434
 1535SOL     OW  833   3.312   1.220   1.633
 1535SOL    HW1  834   3.303   1.210   1.732
 1535SOL    HW2  835   3.408   1.213   1.607
 1536SOL     OW  836   2.252   1.741   1.560
 1536SOL    HW1  837   2.161   1.782   1.558
 1536SOL    HW2  838   2.245   1.647   1.592
 1543SOL     OW  839   2.523   1.790   0.953
 1543SOL    HW1  840   2.477   1.878   0.940
 1543SOL    HW2  841   2.622   1.802   0.946
 1547SOL     OW  842   2.083   1.314   1.844
 1547SOL    HW1  843   2.018   1.241   1.823
 1547SOL    HW2  844   2.087   1.328   1.942
 1549SOL     OW  845   2.534   1.391   1.624
 1549SOL    HW1  846   2.456   1.341   1.662
 1549SOL    HW2  847   2.531   1.486   1.655
 1558SOL     OW  848   2.480   1.567   1.284
 1558SOL    HW1  849   2.475   1.649   1.341
 1558SOL    HW2  850   2.569   1.564   1.239
 1567SOL     OW  851   2.431   1.275   3.027
 1567SOL    HW1  852   2.338   1.268   2.990
 1567SOL    HW2  853   2.442   1.364   3.071
 1568SOL     OW  854   3.417   1.511   2.565
 1568SOL    HW1  855   3.360   1.495   2.646
 1568SOL    HW2  856   3.358   1.521   2.485
 1569SOL     OW  857   2.997   0.703   2.579
 1569SOL    HW1  858   3.054   0.781   2.554
 1569SOL    HW2  859   2.937   0.729   2.655
 1571SOL     OW  860   2.630   1.144   2.885
 1571SOL    HW1  861   2.552   1.161   2.945
 1571SOL    HW2  862   2.664   1.231   2.849
 1573SOL     OW  863   2.547   1.012   2.527
 1573SOL    HW1  864   2.616   0.996   2.597
 1573SOL    HW2  865   2.474   1.069   2.565
 1574SOL     OW  866   2.548   1.161   3.665
 1574SOL    HW1  867   2.608   1.240   3.679
 1574SOL    HW2  868   2.462   1.192   3.624
 1575SOL     OW  869   2.197   1.435   2.923
 1575SOL    HW1  870   2.119   1.404   2.870
 1575SOL    HW2  871   2.255   1.493   2.866
 1576SOL     OW  872   3.322   1.505   3.201
 1576SOL    HW1  873   3.346   1.599   3.227
 1576SOL    HW2  874   3.306   1.451   3.283
 1579SOL     OW  875   2.093   1.713   2.345
 1579SOL    HW1  876   2.127   1.790   2.399
 1579SOL    HW2  877   2.137   1.713   2.255
 1580SOL     OW  878   2.989   1.341   3.552
 1580SOL    HW1  879   3.036   1.341   3.640
 1580SOL    HW2  880   2.941   1.254   3.541
 1581SOL     OW  881   2.092   1.434   2.400
 1581SOL    HW1  882   2.066   1.530   2.400
 1581SOL    HW2  883   2.021   1.380   2.445
 1582SOL     OW  884   2.102   1.091   2.748
 1582SOL    HW1  885   2.116   1.007   2.800
 1582SOL    HW2  886   2.047   1.155   2.803
 1583SOL     OW  887   2.482   1.786   3.301
 1583SOL    HW1  888   2.390   1.769   3.336
 1583SOL    HW2  889   2.510   1.878   3.327
 1584SOL     OW  890   2.468   0.964   1.985
 1584SOL    HW1  891   2.475   1.048   1.931
 1584SOL    HW2  892   2.514   0.977   2.073
 1586SOL     OW  893   1.984   0.643   2.425
 1586SOL    HW1  894   1.939   0.555   2.442
 1586SOL    HW2  895   1.983   0.697   2.509
 1587SOL     OW  896   3.704   1.767   2.221
 1587SOL    HW1  897   3.758   1.738   2.301
 1587SOL    HW2  898   3.734   1.857   2.192
 1588SOL     OW  899   1.889   1.596   1.979
 1588SOL    HW1  900   1.870   1.500   2.000
 1588SOL    HW2  901   1.856   1.654   2.054
 1590SOL     OW  902   3.503   1.108   2.294
 1590SOL    HW1  903   3.589   1.110   2.242
 1590SOL    HW2  904   3.517   1.155   2.382
 1592SOL     OW  905   2.475   1.365   2.588
 1592SOL    HW1  906   2.426   1.278   2.597
 1592SOL    HW2  907   2.452   1.408   2.501
 1593SOL     OW  908   3.155   1.228   3.285
 1593SOL    HW1  909   3.192   1.155   3.227
 1593SOL    HW2  910   3.207   1.233   3.370
 1595SOL     OW  911   2.059   0.976   3.126
 1595SOL    HW1  912   2.148   0.931   3.112
 1595SOL    HW2  913   1.986   0.911   3.107
 1596SOL     OW  914   3.387   0.999   2.052
 1596SOL    HW1  915   3.324   0.923   2.065
 1596SOL    HW2  916   3.435   1.017   2.138
 1597SOL     OW  917   3.049   1.792   3.478
 1597SOL    HW1  918   3.073   1.852   3.402
 1597SOL    HW2  919   3.056   1.697   3.448
 1599SOL     OW  920   3.328   1.417   2.815
 1599SOL    HW1  921   3.269   1.423   2.895
 1599SOL    HW2  922   3.313   1.329   2.769
 1600SOL     OW  923   3.529   1.714   2.434
 1600SOL    HW1  924   3.488   1.691   2.346
 1600SOL    HW2  925   3.511   1.640   2.499
 1601SOL     OW  926   2.460   0.729   2.132
 1601SOL    HW1  927   2.484   0.798   2.064
 1601SOL    HW2  928   2.382   0.762   2.186
 1603SOL     OW  929   3.438   1.662   2.169
 1603SOL    HW1  930   3.527   1.708   2.172
 1603SOL    HW2  931   3.417   1.638   2.074
 1608SOL     OW  932   2.903   0.701   2.291
 1608SOL    HW1  933   2.929   0.697   2.387
 1608SOL    HW2  934   2.818   0.650   2.277
 1609SOL     OW  935   1.938   0.811   2.651
 1609SOL    HW1  936   2.037   0.799   2.660
 1609SOL    HW2  937   1.914   0.906   2.672
 1610SOL     OW  938   1.992   1.821   3.433
 1610SOL    HW1  939   1.982   1.806   3.532
 1610SOL    HW2  940   1.906   1.857   3.397
 1613SOL     OW  941   3.224   1.144   2.407
 1613SOL    HW1  942   3.307   1.115   2.359
 1613SOL    HW2  943   3.175   1.211   2.351
 1615SOL     OW  944   2.870   1.456   2.339
 1615SOL    HW1  945   2.824   1.528   2.287
 1615SOL    HW2  946   2.866   1.476   2.437
 1616SOL     OW  947   2.213   1.801   2.715
 1616SOL    HW1  948   2.263   1.715   2.721
 1616SOL    HW2  949   2.278   1.878   2.712
 1618SOL     OW  950   3.089   1.550   3.368
 1618SOL    HW1  951   3.095   1.473   3.432
 1618SOL    HW2  952   3.037   1.524   3.288
 1619SOL     OW  953   2.183   0.943   2.104
 1619SOL    HW1  954   2.265   0.982   2.062
 1619SOL    HW2  955   2.156   0.861   2.055
 1621SOL     OW  956   2.323   1.266   3.589
 1621SOL    HW1  957   2.273   1.267   3.503
 1621SOL    HW2  958   2.260   1.248   3.665
 1622SOL     OW  959   2.973   1.776   2.099
 1622SOL    HW1  960   2.913   1.714   2.149
 1622SOL    HW2  961   3.004   1.732   2.014
 1624SOL     OW  962   3.494   1.377   1.943
 1624SOL    HW1  963   3.462   1.471   1.933
 1624SOL    HW2  964   3.418   1.314   1.931
 1625SOL     OW  965   2.326   1.743   2.185
 1625SOL    HW1  966   2.359   1.782   2.271
 1625SOL    HW2  967   2.402   1.736   2.120
 1627SOL     OW  968   2.111   1.785   3.103
 1627SOL    HW1  969   2.168   1.720   3.153
 1627SOL    HW2  970   2.095   1.752   3.010
 1628SOL     OW  971   2.802   1.698   2.766
 1628SOL    HW1  972   2.882   1.641   2.787
 1628SOL    HW2  973   2.753   1.658   2.689
 1629SOL     OW  974   2.244   0.700   2.342
 1629SOL    HW1  975   2.289   0.610   2.339
 1629SOL    HW2  976   2.150   0.689   2.375
 1633SOL     OW  977   2.750   1.514   3.057
 1633SOL    HW1  978   2.727   1.489   2.963
 1633SOL    HW2  979   2.811   1.445   3.096
 1635SOL     OW  980   2.665   1.402   2.786
 1635SOL    HW1  981   2.755   1.416   2.744
 1635SOL    HW2  982   2.594   1.404   2.715
 1638SOL     OW  983   3.296   1.188   1.903
 1638SOL    HW1  984   3.328   1.112   1.960
 1638SOL    HW2  985   3.204   1.215   1.933
 1642SOL     OW  986   3.089   1.570   2.655
 1642SOL    HW1  987   3.110   1.644   2.590
 1642SOL    HW2  988   3.157   1.570   2.728
 1643SOL     OW  989   2.321   1.152   2.603
 1643SOL    HW1  990   2.250   1.125   2.668
 1643SOL    HW2  991   2.295   1.124   2.510
 1644SOL     OW  992   3.133   1.797   2.453
 1644SOL    HW1  993   3.177   1.861   2.389
 1644SOL    HW2  994   3.083   1.849   2.523
 1650SOL     OW  995   3.291   1.173   2.729
 1650SOL    HW1  996   3.236   1.089   2.722
 1650SOL    HW2  997   3.317   1.202   2.637
 1653SOL     OW  998   2.350   1.385   2.036
 1653SOL    HW1  999   2.263   1.370   2.083
 1653SOL    HW2 1000   2.333   1.411   1.941
 1654SOL     OW 1001   3.526   1.280   2.519
 1654SOL    HW1 1002   3.625   1.288   2.533
 1654SOL    HW2 1003   3.481   1.364   2.550
 1658SOL     OW 1004   2.926   1.347   3.202
 1658SOL    HW1 1005   2.846   1.324   3.257
 1658SOL    HW2 1006   3.009   1.321   3.251
 1659SOL     OW 1007   3.454   1.629   3.487
 1659SOL    HW1 1008   3.481   1.663   3.397
 1659SOL    HW2 1009   3.533   1.591   3.533
 1660SOL     OW 1010   2.973   1.195   2.962
 1660SOL    HW1 1011   2.933   1.239   3.043
 1660SOL    HW2 1012   2.932   1.232   2.879
 1661SOL     OW 1013   3.500   1.099   2.941
 1661SOL    HW1 1014   3.505   1.180   3.000
 1661SOL    HW2 1015   3.414   1.101   2.890
 1664SOL     OW 1016   2.567   1.050   2.230
 1664SOL    HW1 1017   2.553   1.057   2.329
 1664SOL    HW2 1018   2.651   0.999   2.212
 1665SOL     OW 1019   2.272   0.813   3.113
 1665SOL    HW1 1020   2.358   0.825   3.163
 1665SOL    HW2 1021   2.230   0.726   3.140
 1667SOL     OW 1022   1.926   1.564   3.193
 1667SOL    HW1 1023   1.880   1.646   3.159
 1667SOL    HW2 1024   2.024   1.583   3.202
 1668SOL     OW 1025   2.229   1.100   2.363
 1668SOL    HW1 1026   2.222   1.183   2.307
 1668SOL    HW2 1027   2.233   1.020   2.303
 1670SOL     OW 1028   3.114   1.348   2.250
 1670SOL    HW1 1029   3.164   1.425   2.290
 1670SOL    HW2 1030   3.019   1.350   2.282
 1671SOL     OW 1031   3.134   1.445   3.004
 1671SOL    HW1 1032   3.181   1.458   3.091
 1671SOL    HW2 1033   3.068   1.371   3.013
 1673SOL     OW 1034   2.216   1.510   3.191
 1673SOL    HW1 1035   2.195   1.466   3.104
 1673SOL    HW2 1036   2.313   1.536   3.194
 1678SOL     OW 1037   2.435   0.870   2.891
 1678SOL    HW1 1038   2.479   0.959   2.882
 1678SOL    HW2 1039   2.372   0.870   2.968
 1682SOL     OW 1040   1.899   1.310   3.144
 1682SOL    HW1 1041   1.952   1.261   3.212
 1682SOL    HW2 1042   1.921   1.408   3.149
 1687SOL     OW 1043   2.885   0.766   2.828
 1687SOL    HW1 1044   2.900   0.787   2.924
 1687SOL    HW2 1045   2.855   0.671   2.819
 1688SOL     OW 1046   2.842   1.573   3.562
 1688SOL    HW1 1047   2.822   1.617   3.474
 1688SOL    HW2 1048   2.881   1.482   3.546
 1692SOL     OW 1049   3.165   0.838   1.904
 1692SOL    HW1 1050   3.199   0.745   1.919
 1692SOL    HW2 1051   3.183   0.865   1.809
 1693SOL     OW 1052   2.930   1.333   2.711
 1693SOL    HW1 1053   2.937   1.249   2.656
 1693SOL    HW2 1054   2.992   1.402   2.675
 1694SOL     OW 1055   2.181   0.810   2.811
 1694SOL    HW1 1056   2.274   0.846   2.816
 1694SOL    HW2 1057   2.175   0.725   2.863
 1698SOL     OW 1058   1.870   1.326   2.062
 1698SOL    HW1 1059   1.777   1.347   2.031
 1698SOL    HW2 1060   1.880   1.227   2.075
 1699SOL     OW 1061   1.950   1.801   2.789
 1699SOL    HW1 1062   1.908   1.715   2.762
 1699SOL    HW2 1063   2.044   1.804   2.755
 1700SOL     OW 1064   2.366   1.568   2.772
 1700SOL    HW1 1065   2.432   1.642   2.781
 1700SOL    HW2 1066   2.410   1.489   2.730
 1707SOL     OW 1067   2.114   1.564   3.606
 1707SOL    HW1 1068   2.084   1.621   3.682
 1707SOL    HW2 1069   2.107   1.467   3.632
 1709SOL     OW 1070   2.792   1.678   3.327
 1709SOL    HW1 1071   2.768   1.660   3.232
 1709SOL    HW2 1072   2.822   1.772   3.337
 1711SOL     OW 1073   2.021   1.137   3.328
 1711SOL    HW1 1074   2.043   1.076   3.404
 1711SOL    HW2 1075   2.031   1.088   3.242
 1712SOL     OW 1076   3.209   1.059   3.096
 1712SOL    HW1 1077   3.233   0.996   3.022
 1712SOL    HW2 1078   3.119   1.099   3.078
 1713SOL     OW 1079   3.164   0.855   2.171
 1713SOL    HW1 1080   3.078   0.824   2.213
 1713SOL    HW2 1081   3.160   0.841   2.072
 1714SOL     OW 1082   3.621   1.747   3.016
 1714SOL    HW1 1083   3.682   1.777   2.943
 1714SOL    HW2 1084   3.583   1.658   2.994
 1715SOL     OW 1085   3.114   1.731   2.990
 1715SOL    HW1 1086   3.198   1.736   2.936
 1715SOL    HW2 1087   3.091   1.635   3.008
 1716SOL     OW 1088   1.945   1.258   2.884
 1716SOL    HW1 1089   1.940   1.257   2.984
 1716SOL    HW2 1090   1.862   1.217   2.846
 1717SOL     OW 1091   2.550   1.662   3.578
 1717SOL    HW1 1092   2.494   1.743   3.587
 1717SOL    HW2 1093   2.602   1.666   3.492
 1719SOL     OW 1094   3.250   1.573   2.339
 1719SOL    HW1 1095   3.317   1.585   2.265
 1719SOL    HW2 1096   3.210   1.662   2.362
 1720SOL     OW 1097   1.992   1.794   3.713
 1720SOL    HW1 1098   1.951   1.720   3.766
 1720SOL    HW2 1099   2.056   1.845   3.771
 1721SOL     OW 1100   3.142   0.927   2.534
 1721SOL    HW1 1101   3.202   0.846   2.536
 1721SOL    HW2 1102   3.182   0.996   2.474
 1722SOL     OW 1103   2.692   1.273   3.284
 1722SOL    HW1 1104   2.687   1.306   3.379
 1722SOL    HW2 1105   2.606   1.292   3.238
 1723SOL     OW 1106   2.534   1.616   2.016
 1723SOL    HW1 1107   2.543   1.626   1.917
 1723SOL    HW2 1108   2.494   1.527   2.037
 1724SOL     OW 1109   3.512   1.720   3.256
 1724SOL    HW1 1110   3.565   1.730   3.172
 1724SOL    HW2 1111   3.485   1.810   3.290
 1727SOL     OW 1112   3.056   1.612   1.893
 1727SOL    HW1 1113   3.062   1.519   1.930
 1727SOL    HW2 1114   2.997   1.612   1.813
 1728SOL     OW 1115   2.684   1.002   3.234
 1728SOL    HW1 1116   2.724   1.001   3.142
 1728SOL    HW2 1117   2.694   1.094   3.274
 1729SOL     OW 1118   2.778   0.910   2.153
 1729SOL    HW1 1119   2.841   0.948   2.085
 1729SOL    HW2 1120   2.818   0.827   2.192
 1730SOL     OW 1121   3.366   1.607   1.906
 1730SOL    HW1 1122   3.274   1.644   1.913
 1730SOL    HW2 1123   3.404   1.627   1.816
 1731SOL     OW 1124   2.234   1.288   3.352
 1731SOL    HW1 1125   2.221   1.381   3.318
 1731SOL    HW2 1126   2.150   1.236   3.339
 1732SOL     OW 1127   3.476   1.292   3.151
 1732SOL    HW1 1128   3.536   1.295   3.231
 1732SOL    HW2 1129   3.401   1.356   3.164
 1733SOL     OW 1130   2.901   1.098   2.558
 1733SOL    HW1 1131   2.831   1.051   2.612
 1733SOL    HW2 1132   2.960   1.030   2.515
 1735SOL     OW 1133   2.452   1.487   2.353
 1735SOL    HW1 1134   2.494   1.429   2.283
 1735SOL    HW2 1135   2.408   1.566   2.309
 1737SOL     OW 1136   2.117   1.348   2.152
 1737SOL    HW1 1137   2.021   1.349   2.125
 1737SOL    HW2 1138   2.129   1.401   2.236
 1743SOL     OW 1139   3.045   1.335   1.981
 1743SOL    HW1 1140   2.946   1.324   1.983
 1743SOL    HW2 1141   3.079   1.350   2.074
 1744SOL     OW 1142   2.475   0.842   3.293
 1744SOL    HW1 1143   2.531   0.923   3.276
 1744SOL    HW2 1144   2.534   0.762   3.296
 1745SOL     OW 1145   3.355   1.767   2.821
 1745SOL    HW1 1146   3.388   1.831   2.752
 1745SOL    HW2 1147   3.421   1.761   2.896
 1748SOL     OW 1148   2.252   1.741   3.422
 1748SOL    HW1 1149   2.161   1.782   3.420
 1748SOL    HW2 1150   2.245   1.647   3.454
 1751SOL     OW 1151   2.456   0.745   2.514
 1751SOL    HW1 1152   2.506   0.830   2.495
 1751SOL    HW2 1153   2.368   0.747   2.466
 1754SOL     OW 1154   2.721   1.374   1.878
 1754SOL    HW1 1155   2.675   1.389   1.966
 1754SOL    HW2 1156   2.765   1.459   1.848
 1755SOL     OW 1157   2.523   1.790   2.815
 1755SOL    HW1 1158   2.477   1.878   2.802
 1755SOL    HW2 1159   2.622   1.802   2.808
 1756SOL     OW 1160   2.721   0.956   2.723
 1756SOL    HW1 1161   2.775   0.887   2.771
 1756SOL    HW2 1162   2.689   1.025   2.789
 1757SOL     OW 1163   2.945   0.984   1.949
 1757SOL    HW1 1164   2.922   1.037   1.867
 1757SOL    HW2 1165   3.026   0.928   1.930
 1758SOL     OW 1166   3.723   1.569   2.713
 1758SOL    HW1 1167   3.652   1.557   2.643
 1758SOL    HW2 1168   3.724   1.490   2.773
 1759SOL     OW 1169   2.083   1.314   3.706
 1759SOL    HW1 1170   2.018   1.241   3.685
 1759SOL    HW2 1171   2.087   1.328   3.804
 1760SOL     OW 1172   1.941   1.240   2.515
 1760SOL    HW1 1173   1.940   1.193   2.603
 1760SOL    HW2 1174   2.023   1.212   2.464
 1761SOL     OW 1175   2.534   1.391   3.486
 1761SOL    HW1 1176   2.456   1.341   3.524
 1761SOL    HW2 1177   2.531   1.486   3.517
 1764SOL     OW 1178   3.567   1.487   2.966
 1764SOL    HW1 1179   3.474   1.462   2.939
 1764SOL    HW2 1180   3.593   1.437   3.048
 1766SOL     OW 1181   2.674   1.586   2.549
 1766SOL    HW1 1182   2.706   1.596   2.455
 1766SOL    HW2 1183   2.595   1.524   2.551
 1769SOL     OW 1184   2.632   1.330   2.163
 1769SOL    HW1 1185   2.586   1.243   2.180
 1769SOL    HW2 1186   2.723   1.327   2.204
 1770SOL     OW 1187   2.480   1.567   3.146
 1770SOL    HW1 1188   2.475   1.649   3.203
 1770SOL    HW2 1189   2.569   1.564   3.101
 1774SOL     OW 1190   1.901   1.077   2.162
 1774SOL    HW1 1191   2.000   1.066   2.153
 1774SOL    HW2 1192   1.861   0.991   2.194
 1775SOL     OW 1193   2.737   1.646   2.199
 1775SOL    HW1 1194   2.660   1.611   2.145
 1775SOL    HW2 1195   2.705   1.717   2.261
 1790SOL     OW 1196   1.889   1.596   3.841
 1790SOL    HW1 1197   1.870   1.500   3.862
 1790SOL    HW2 1198   1.856   1.654   3.916
 1812SOL     OW 1199   2.326   1.743   4.047
 1812SOL    HW1 1200   2.359   1.782   4.133
 1812SOL    HW2 1201   2.402   1.736   3.982
 1856SOL     OW 1202   2.534   1.616   3.878
 1856SOL    HW1 1203   2.543   1.626   3.779
 1856SOL    HW2 1204   2.494   1.527   3.899
 1859SOL     OW 1205   3.056   1.612   3.755
 1859SOL    HW1 1206   3.062   1.519   3.792
 1859SOL    HW2 1207   2.997   1.612   3.675
 1871SOL     OW 1208   2.721   1.374   3.740
 1871SOL    HW1 1209   2.675   1.389   3.828
 1871SOL    HW2 1210   2.765   1.459   3.710
 1887SOL     OW 1211   2.087   2.137   0.996
 1887SOL    HW1 1212   2.122   2.120   1.088
 1887SOL    HW2 1213   1.999   2.092   0.984
 1888SOL     OW 1214   1.881   2.230   0.647
 1888SOL    HW1 1215   1.799   2.273   0.686
 1888SOL    HW2 1216   1.853   2.157   0.584
 1889SOL     OW 1217   2.431   3.137   1.165
 1889SOL    HW1 1218   2.338   3.130   1.128
 1889SOL    HW2 1219   2.442   3.226   1.209
 1891SOL     OW 1220   2.997   2.565   0.717
 1891SOL    HW1 1221   3.054   2.643   0.692
 1891SOL    HW2 1222   2.937   2.591   0.793
 1893SOL     OW 1223   2.630   3.006   1.023
 1893SOL    HW1 1224   2.552   3.023   1.083
 1893SOL    HW2 1225   2.664   3.093   0.987
 1894SOL     OW 1226   2.712   2.660   1.823
 1894SOL    HW1 1227   2.708   2.736   1.888
 1894SOL    HW2 1228   2.734   2.696   1.732
 1895SOL     OW 1229   2.547   2.874   0.665
 1895SOL    HW1 1230   2.616   2.858   0.735
 1895SOL    HW2 1231   2.474   2.931   0.703
 1896SOL     OW 1232   2.548   3.023   1.803
 1896SOL    HW1 1233   2.608   3.102   1.817
 1896SOL    HW2 1234   2.462   3.054   1.762
 1897SOL     OW 1235   2.197   3.297   1.061
 1897SOL    HW1 1236   2.119   3.266   1.008
 1897SOL    HW2 1237   2.255   3.355   1.004
 1898SOL     OW 1238   3.322   3.367   1.339
 1898SOL    HW1 1239   3.346   3.461   1.365
 1898SOL    HW2 1240   3.306   3.313   1.421
 1899SOL     OW 1241   2.300   2.254   1.499
 1899SOL    HW1 1242   2.382   2.198   1.508
 1899SOL    HW2 1243   2.219   2.196   1.503
 1902SOL     OW 1244   2.989   3.203   1.690
 1902SOL    HW1 1245   3.036   3.203   1.778
 1902SOL    HW2 1246   2.941   3.116   1.679
 1904SOL     OW 1247   2.102   2.953   0.886
 1904SOL    HW1 1248   2.116   2.869   0.938
 1904SOL    HW2 1249   2.047   3.017   0.941
 1905SOL     OW 1250   2.482   3.648   1.439
 1905SOL    HW1 1251   2.390   3.631   1.474
 1905SOL    HW2 1252   2.510   3.740   1.465
 1907SOL     OW 1253   3.456   1.976   1.480
 1907SOL    HW1 1254   3.438   2.043   1.408
 1907SOL    HW2 1255   3.453   2.022   1.569
 1912SOL     OW 1256   1.975   2.599   1.597
 1912SOL    HW1 1257   2.063   2.586   1.642
 1912SOL    HW2 1258   1.962   2.696   1.575
 1914SOL     OW 1259   3.155   3.090   1.423
 1914SOL    HW1 1260   3.192   3.017   1.365
 1914SOL    HW2 1261   3.207   3.095   1.508
 1916SOL     OW 1262   2.059   2.838   1.264
 1916SOL    HW1 1263   2.148   2.793   1.250
 1916SOL    HW2 1264   1.986   2.773   1.245
 1918SOL     OW 1265   3.049   3.654   1.616
 1918SOL    HW1 1266   3.073   3.714   1.540
 1918SOL    HW2 1267   3.056   3.559   1.586
 1919SOL     OW 1268   2.179   2.113   1.801
 1919SOL    HW1 1269   2.250   2.184   1.807
 1919SOL    HW2 1270   2.091   2.152   1.829
 1923SOL     OW 1271   3.143   2.207   0.944
 1923SOL    HW1 1272   3.057   2.157   0.931
 1923SOL    HW2 1273   3.205   2.153   1.000
 1925SOL     OW 1274   2.669   2.467   1.465
 1925SOL    HW1 1275   2.622   2.464   1.554
 1925SOL    HW2 1276   2.618   2.412   1.399
 1926SOL     OW 1277   3.256   2.331   1.674
 1926SOL    HW1 1278   3.236   2.374   1.762
 1926SOL    HW2 1279   3.334   2.269   1.683
 1927SOL     OW 1280   2.835   2.752   1.572
 1927SOL    HW1 1281   2.881   2.668   1.543
 1927SOL    HW2 1282   2.779   2.786   1.497
 1928SOL     OW 1283   2.853   2.272   1.242
 1928SOL    HW1 1284   2.776   2.306   1.296
 1928SOL    HW2 1285   2.819   2.221   1.163
 1930SOL     OW 1286   1.938   2.673   0.789
 1930SOL    HW1 1287   2.037   2.661   0.798
 1930SOL    HW2 1288   1.914   2.768   0.810
 1931SOL     OW 1289   1.992   3.683   1.571
 1931SOL    HW1 1290   1.982   3.668   1.670
 1931SOL    HW2 1291   1.906   3.719   1.535
 1933SOL     OW 1292   3.581   2.447   1.831
 1933SOL    HW1 1293   3.555   2.536   1.795
 1933SOL    HW2 1294   3.579   2.379   1.758
 1935SOL     OW 1295   2.412   2.058   0.885
 1935SOL    HW1 1296   2.407   2.053   0.985
 1935SOL    HW2 1297   2.414   2.154   0.856
 1939SOL     OW 1298   3.089   3.412   1.506
 1939SOL    HW1 1299   3.095   3.335   1.570
 1939SOL    HW2 1300   3.037   3.386   1.426
 1942SOL     OW 1301   2.323   3.128   1.727
 1942SOL    HW1 1302   2.273   3.129   1.641
 1942SOL    HW2 1303   2.260   3.110   1.803
 1944SOL     OW 1304   2.064   2.147   1.498
 1944SOL    HW1 1305   1.984   2.207   1.485
 1944SOL    HW2 1306   2.054   2.098   1.584
 1948SOL     OW 1307   2.111   3.647   1.241
 1948SOL    HW1 1308   2.168   3.582   1.291
 1948SOL    HW2 1309   2.095   3.614   1.148
 1951SOL     OW 1310   3.409   2.084   1.729
 1951SOL    HW1 1311   3.404   2.121   1.821
 1951SOL    HW2 1312   3.337   2.015   1.717
 1952SOL     OW 1313   2.643   2.126   1.749
 1952SOL    HW1 1314   2.710   2.065   1.792
 1952SOL    HW2 1315   2.570   2.145   1.814
 1953SOL     OW 1316   2.750   3.376   1.195
 1953SOL    HW1 1317   2.727   3.351   1.101
 1953SOL    HW2 1318   2.811   3.307   1.234
 1954SOL     OW 1319   3.213   2.452   1.433
 1954SOL    HW1 1320   3.241   2.409   1.518
 1954SOL    HW2 1321   3.238   2.548   1.434
 1955SOL     OW 1322   2.665   3.264   0.924
 1955SOL    HW1 1323   2.755   3.278   0.882
 1955SOL    HW2 1324   2.594   3.266   0.853
 1956SOL     OW 1325   2.784   2.365   0.899
 1956SOL    HW1 1326   2.759   2.356   0.803
 1956SOL    HW2 1327   2.832   2.283   0.930
 1961SOL     OW 1328   2.938   2.545   1.464
 1961SOL    HW1 1329   2.858   2.484   1.467
 1961SOL    HW2 1330   3.019   2.492   1.440
 1963SOL     OW 1331   2.321   3.014   0.741
 1963SOL    HW1 1332   2.250   2.987   0.806
 1963SOL    HW2 1333   2.295   2.986   0.648
 1966SOL     OW 1334   1.940   2.418   1.386
 1966SOL    HW1 1335   2.032   2.417   1.345
 1966SOL    HW2 1336   1.934   2.492   1.453
 1967SOL     OW 1337   2.423   2.084   1.147
 1967SOL    HW1 1338   2.461   2.000   1.184
 1967SOL    HW2 1339   2.335   2.103   1.191
 1968SOL     OW 1340   2.728   2.316   0.642
 1968SOL    HW1 1341   2.696   2.388   0.580
 1968SOL    HW2 1342   2.752   2.235   0.589
 1969SOL     OW 1343   2.879   1.901   0.753
 1969SOL    HW1 1344   2.807   1.906   0.684
 1969SOL    HW2 1345   2.855   1.832   0.822
 1971SOL     OW 1346   3.328   2.452   0.992
 1971SOL    HW1 1347   3.298   2.357   0.999
 1971SOL    HW2 1348   3.401   2.468   1.058
 1977SOL     OW 1349   3.616   3.085   1.588
 1977SOL    HW1 1350   3.707   3.046   1.575
 1977SOL    HW2 1351   3.624   3.181   1.612
 1978SOL     OW 1352   2.926   3.209   1.340
 1978SOL    HW1 1353   2.846   3.186   1.395
 1978SOL    HW2 1354   3.009   3.183   1.389
 1979SOL     OW 1355   3.454   3.491   1.625
 1979SOL    HW1 1356   3.481   3.525   1.535
 1979SOL    HW2 1357   3.533   3.453   1.671
 1980SOL     OW 1358   2.973   3.057   1.100
 1980SOL    HW1 1359   2.933   3.101   1.181
 1980SOL    HW2 1360   2.932   3.094   1.017
 1982SOL     OW 1361   2.777   1.951   1.402
 1982SOL    HW1 1362   2.802   1.931   1.307
 1982SOL    HW2 1363   2.849   2.007   1.444
 1983SOL     OW 1364   2.842   2.978   1.719
 1983SOL    HW1 1365   2.743   2.984   1.729
 1983SOL    HW2 1366   2.865   2.898   1.663
 1985SOL     OW 1367   2.272   2.675   1.251
 1985SOL    HW1 1368   2.358   2.687   1.301
 1985SOL    HW2 1369   2.230   2.588   1.278
 1986SOL     OW 1370   3.136   2.248   1.262
 1986SOL    HW1 1371   3.157   2.322   1.326
 1986SOL    HW2 1372   3.047   2.265   1.219
 1987SOL     OW 1373   1.926   3.426   1.331
 1987SOL    HW1 1374   1.880   3.508   1.297
 1987SOL    HW2 1375   2.024   3.445   1.340
 1989SOL     OW 1376   2.428   2.399   0.865
 1989SOL    HW1 1377   2.440   2.465   0.791
 1989SOL    HW2 1378   2.474   2.433   0.948
 1991SOL     OW 1379   3.134   3.307   1.142
 1991SOL    HW1 1380   3.181   3.320   1.229
 1991SOL    HW2 1381   3.068   3.233   1.151
 1993SOL     OW 1382   2.216   3.372   1.329
 1993SOL    HW1 1383   2.195   3.328   1.242
 1993SOL    HW2 1384   2.313   3.398   1.332
 1994SOL     OW 1385   2.264   2.613   1.598
 1994SOL    HW1 1386   2.332   2.668   1.551
 1994SOL    HW2 1387   2.304   2.525   1.625
 1995SOL     OW 1388   3.449   2.641   1.670
 1995SOL    HW1 1389   3.357   2.679   1.665
 1995SOL    HW2 1390   3.509   2.688   1.605
 1996SOL     OW 1391   2.875   1.967   1.770
 1996SOL    HW1 1392   2.881   2.052   1.718
 1996SOL    HW2 1393   2.907   1.891   1.713
 1997SOL     OW 1394   2.366   1.912   1.740
 1997SOL    HW1 1395   2.324   1.855   1.670
 1997SOL    HW2 1396   2.300   1.981   1.772
 1998SOL     OW 1397   2.435   2.732   1.029
 1998SOL    HW1 1398   2.479   2.821   1.020
 1998SOL    HW2 1399   2.372   2.732   1.106
 1999SOL     OW 1400   3.222   2.724   1.045
 1999SOL    HW1 1401   3.147   2.724   0.979
 1999SOL    HW2 1402   3.259   2.632   1.054
 2001SOL     OW 1403   2.169   2.075   1.231
 2001SOL    HW1 1404   2.146   2.112   1.321
 2001SOL    HW2 1405   2.139   1.980   1.225
 2002SOL     OW 1406   1.899   3.172   1.282
 2002SOL    HW1 1407   1.952   3.123   1.350
 2002SOL    HW2 1408   1.921   3.270   1.287
 2003SOL     OW 1409   2.594   2.496   1.064
 2003SOL    HW1 1410   2.653   2.470   0.988
 2003SOL    HW2 1411   2.566   2.592   1.053
 2004SOL     OW 1412   3.590   2.797   1.854
 2004SOL    HW1 1413   3.544   2.790   1.765
 2004SOL    HW2 1414   3.528   2.841   1.920
 2007SOL     OW 1415   2.885   2.628   0.966
 2007SOL    HW1 1416   2.900   2.649   1.062
 2007SOL    HW2 1417   2.855   2.533   0.957
 2008SOL     OW 1418   2.842   3.435   1.700
 2008SOL    HW1 1419   2.822   3.479   1.612
 2008SOL    HW2 1420   2.881   3.344   1.684
 2010SOL     OW 1421   2.212   2.760   1.804
 2010SOL    HW1 1422   2.288   2.804   1.852
 2010SOL    HW2 1423   2.247   2.713   1.722
 2014SOL     OW 1424   2.181   2.672   0.949
 2014SOL    HW1 1425   2.274   2.708   0.954
 2014SOL    HW2 1426   2.175   2.587   1.001
 2015SOL     OW 1427   2.201   2.371   1.006
 2015SOL    HW1 1428   2.149   2.288   0.989
 2015SOL    HW2 1429   2.278   2.376   0.942
 2016SOL     OW 1430   3.000   2.242   1.678
 2016SOL    HW1 1431   2.955   2.305   1.742
 2016SOL    HW2 1432   3.093   2.273   1.661
 2017SOL     OW 1433   3.022   2.069   1.477
 2017SOL    HW1 1434   3.022   2.133   1.554
 2017SOL    HW2 1435   3.050   2.117   1.394
 2021SOL     OW 1436   2.864   2.658   1.238
 2021SOL    HW1 1437   2.905   2.626   1.324
 2021SOL    HW2 1438   2.768   2.631   1.235
 2022SOL     OW 1439   1.902   2.406   1.114
 2022SOL    HW1 1440   1.987   2.373   1.073
 2022SOL    HW2 1441   1.915   2.421   1.212
 2023SOL     OW 1442   2.051   2.382   1.722
 2023SOL    HW1 1443   2.110   2.342   1.652
 2023SOL    HW2 1444   1.993   2.453   1.681
 2024SOL     OW 1445   3.231   2.812   1.660
 2024SOL    HW1 1446   3.270   2.901   1.680
 2024SOL    HW2 1447   3.241   2.792   1.563
 2026SOL     OW 1448   3.519   2.466   1.206
 2026SOL    HW1 1449   3.481   2.397   1.268
 2026SOL    HW2 1450   3.601   2.430   1.162
 2027SOL     OW 1451   2.114   3.426   1.744
 2027SOL    HW1 1452   2.084   3.483   1.820
 2027SOL    HW2 1453   2.107   3.329   1.770
 2028SOL     OW 1454   2.533   2.326   1.269
 2028SOL    HW1 1455   2.499   2.237   1.239
 2028SOL    HW2 1456   2.559   2.380   1.189
 2029SOL     OW 1457   2.792   3.540   1.465
 2029SOL    HW1 1458   2.768   3.522   1.370
 2029SOL    HW2 1459   2.822   3.634   1.475
 2031SOL     OW 1460   2.021   2.999   1.466
 2031SOL    HW1 1461   2.043   2.938   1.542
 2031SOL    HW2 1462   2.031   2.950   1.380
 2032SOL     OW 1463   3.209   2.921   1.234
 2032SOL    HW1 1464   3.233   2.858   1.160
 2032SOL    HW2 1465   3.119   2.961   1.216
 2036SOL     OW 1466   1.945   3.120   1.022
 2036SOL    HW1 1467   1.940   3.119   1.122
 2036SOL    HW2 1468   1.862   3.079   0.984
 2037SOL     OW 1469   2.550   3.524   1.716
 2037SOL    HW1 1470   2.494   3.605   1.725
 2037SOL    HW2 1471   2.602   3.528   1.630
 2041SOL     OW 1472   1.992   3.656   1.851
 2041SOL    HW1 1473   1.951   3.582   1.904
 2041SOL    HW2 1474   2.056   3.707   1.909
 2043SOL     OW 1475   2.692   3.135   1.422
 2043SOL    HW1 1476   2.687   3.168   1.517
 2043SOL    HW2 1477   2.606   3.154   1.376
 2047SOL     OW 1478   2.125   2.188   0.720
 2047SOL    HW1 1479   2.046   2.239   0.686
 2047SOL    HW2 1480   2.116   2.173   0.818
 2049SOL     OW 1481   2.684   2.864   1.372
 2049SOL    HW1 1482   2.724   2.863   1.280
 2049SOL    HW2 1483   2.694   2.956   1.412
 2052SOL     OW 1484   2.234   3.150   1.490
 2052SOL    HW1 1485   2.221   3.243   1.456
 2052SOL    HW2 1486   2.150   3.098   1.477
 2053SOL     OW 1487   3.476   3.154   1.289
 2053SOL    HW1 1488   3.536   3.157   1.369
 2053SOL    HW2 1489   3.401   3.218   1.302
 2055SOL     OW 1490   2.876   2.098   0.971
 2055SOL    HW1 1491   2.868   2.062   0.878
 2055SOL    HW2 1492   2.874   2.022   1.036
 2057SOL     OW 1493   3.571   2.247   1.381
 2057SOL    HW1 1494   3.644   2.316   1.385
 2057SOL    HW2 1495   3.599   2.172   1.322
 2059SOL     OW 1496   1.967   2.875   1.726
 2059SOL    HW1 1497   1.890   2.842   1.780
 2059SOL    HW2 1498   2.052   2.845   1.768
 2060SOL     OW 1499   2.534   2.065   1.489
 2060SOL    HW1 1500   2.624   2.049   1.449
 2060SOL    HW2 1501   2.542   2.070   1.588
 2061SOL     OW 1502   3.302   2.718   1.398
 2061SOL    HW1 1503   3.245   2.770   1.335
 2061SOL    HW2 1504   3.398   2.730   1.374
 2063SOL     OW 1505   2.475   2.704   1.431
 2063SOL    HW1 1506   2.531   2.785   1.414
 2063SOL    HW2 1507   2.534   2.624   1.434
 2065SOL     OW 1508   2.578   2.427   1.708
 2065SOL    HW1 1509   2.597   2.492   1.782
 2065SOL    HW2 1510   2.638   2.347   1.717
 2066SOL     OW 1511   3.312   3.082   1.633
 2066SOL    HW1 1512   3.303   3.072   1.732
 2066SOL    HW2 1513   3.408   3.075   1.607
 2067SOL     OW 1514   2.252   3.603   1.560
 2067SOL    HW1 1515   2.161   3.644   1.558
 2067SOL    HW2 1516   2.245   3.509   1.592
 2068SOL     OW 1517   3.536   2.745   1.254
 2068SOL    HW1 1518   3.509   2.656   1.217
 2068SOL    HW2 1519   3.537   2.813   1.181
 2070SOL     OW 1520   2.456   2.607   0.652
 2070SOL    HW1 1521   2.506   2.692   0.633
 2070SOL    HW2 1522   2.368   2.609   0.604
 2071SOL     OW 1523   3.639   2.204   1.642
 2071SOL    HW1 1524   3.622   2.235   1.548
 2071SOL    HW2 1525   3.555   2.167   1.680
 2072SOL     OW 1526   3.592   2.796   1.517
 2072SOL    HW1 1527   3.630   2.887   1.532
 2072SOL    HW2 1528   3.584   2.779   1.418
 2075SOL     OW 1529   2.721   2.818   0.861
 2075SOL    HW1 1530   2.775   2.749   0.909
 2075SOL    HW2 1531   2.689   2.887   0.927
 2078SOL     OW 1532   2.083   3.176   1.844
 2078SOL    HW1 1533   2.018   3.103   1.823
 2078SOL    HW2 1534   2.087   3.190   1.942
 2080SOL     OW 1535   2.534   3.253   1.624
 2080SOL    HW1 1536   2.456   3.203   1.662
 2080SOL    HW2 1537   2.531   3.348   1.655
 2081SOL     OW 1538   3.686   2.054   1.227
 2081SOL    HW1 1539   3.682   1.964   1.271
 2081SOL    HW2 1540   3.689   2.043   1.128
 2084SOL     OW 1541   2.179   2.409   1.280
 2084SOL    HW1 1542   2.217   2.350   1.352
 2084SOL    HW2 1543   2.219   2.383   1.192
 2086SOL     OW 1544   3.286   2.076   1.112
 2086SOL    HW1 1545   3.338   2.011   1.167
 2086SOL    HW2 1546   3.237   2.139   1.173
 2087SOL     OW 1547   2.863   1.896   1.154
 2087SOL    HW1 1548   2.800   1.824   1.123
 2087SOL    HW2 1549   2.956   1.860   1.154
 2089SOL     OW 1550   2.480   3.429   1.284
 2089SOL    HW1 1551   2.475   3.511   1.341
 2089SOL    HW2 1552   2.569   3.426   1.239
 2095SOL     OW 1553   2.092   2.490   1.975
 2095SOL    HW1 1554   1.999   2.488   2.012
 2095SOL    HW2 1555   2.093   2.451   1.883
 2096SOL     OW 1556   2.087   2.137   2.858
 2096SOL    HW1 1557   2.122   2.120   2.950
 2096SOL    HW2 1558   1.999   2.092   2.846
 2097SOL     OW 1559   1.881   2.230   2.509
 2097SOL    HW1 1560   1.799   2.273   2.548
 2097SOL    HW2 1561   1.853   2.157   2.446
 2098SOL     OW 1562   2.431   3.137   3.027
 2098SOL    HW1 1563   2.338   3.130   2.990
 2098SOL    HW2 1564   2.442   3.226   3.071
 2099SOL     OW 1565   3.417   3.373   2.565
 2099SOL    HW1 1566   3.360   3.357   2.646
 2099SOL    HW2 1567   3.358   3.383   2.485
 2100SOL     OW 1568   2.997   2.565   2.579
 2100SOL    HW1 1569   3.054   2.643   2.554
 2100SOL    HW2 1570   2.937   2.591   2.655
 2101SOL     OW 1571   3.617   2.469   2.093
 2101SOL    HW1 1572   3.605   2.456   1.994
 2101SOL    HW2 1573   3.587   2.388   2.142
 2102SOL     OW 1574   2.630   3.006   2.885
 2102SOL    HW1 1575   2.552   3.023   2.945
 2102SOL    HW2 1576   2.664   3.093   2.849
 2103SOL     OW 1577   2.712   2.660   3.685
 2103SOL    HW1 1578   2.708   2.736   3.750
 2103SOL    HW2 1579   2.734   2.696   3.594
 2104SOL     OW 1580   2.547   2.874   2.527
 2104SOL    HW1 1581   2.616   2.858   2.597
 2104SOL    HW2 1582   2.474   2.931   2.565
 2105SOL     OW 1583   2.548   3.023   3.665
 2105SOL    HW1 1584   2.608   3.102   3.679
 2105SOL    HW2 1585   2.462   3.054   3.624
 2106SOL     OW 1586   2.197   3.297   2.923
 2106SOL    HW1 1587   2.119   3.266   2.870
 2106SOL    HW2 1588   2.255   3.355   2.866
 2107SOL     OW 1589   3.322   3.367   3.201
 2107SOL    HW1 1590   3.346   3.461   3.227
 2107SOL    HW2 1591   3.306   3.313   3.283
 2108SOL     OW 1592   2.300   2.254   3.361
 2108SOL    HW1 1593   2.382   2.198   3.370
 2108SOL    HW2 1594   2.219   2.196   3.365
 2109SOL     OW 1595   3.465   2.309   2.599
 2109SOL    HW1 1596   3.391   2.355   2.549
 2109SOL    HW2 1597   3.516   2.377   2.652
 2110SOL     OW 1598   2.093   3.575   2.345
 2110SOL    HW1 1599   2.127   3.652   2.399
 2110SOL    HW2 1600   2.137   3.575   2.255
 2111SOL     OW 1601   2.989   3.203   3.552
 2111SOL    HW1 1602   3.036   3.203   3.640
 2111SOL    HW2 1603   2.941   3.116   3.541
 2112SOL     OW 1604   2.092   3.296   2.400
 2112SOL    HW1 1605   2.066   3.392   2.400
 2112SOL    HW2 1606   2.021   3.242   2.445
 2113SOL     OW 1607   2.102   2.953   2.748
 2113SOL    HW1 1608   2.116   2.869   2.800
 2113SOL    HW2 1609   2.047   3.017   2.803
 2114SOL     OW 1610   2.482   3.648   3.301
 2114SOL    HW1 1611   2.390   3.631   3.336
 2114SOL    HW2 1612   2.510   3.740   3.327
 2115SOL     OW 1613   2.468   2.826   1.985
 2115SOL    HW1 1614   2.475   2.910   1.931
 2115SOL    HW2 1615   2.514   2.839   2.073
 2116SOL     OW 1616   3.456   1.976   3.342
 2116SOL    HW1 1617   3.438   2.043   3.270
 2116SOL    HW2 1618   3.453   2.022   3.431
 2117SOL     OW 1619   1.984   2.505   2.425
 2117SOL    HW1 1620   1.939   2.417   2.442
 2117SOL    HW2 1621   1.983   2.559   2.509
 2119SOL     OW 1622   1.889   3.458   1.979
 2119SOL    HW1 1623   1.870   3.362   2.000
 2119SOL    HW2 1624   1.856   3.516   2.054
 2120SOL     OW 1625   3.551   2.784   2.474
 2120SOL    HW1 1626   3.646   2.755   2.482
 2120SOL    HW2 1627   3.543   2.849   2.399
 2121SOL     OW 1628   3.503   2.970   2.294
 2121SOL    HW1 1629   3.589   2.972   2.242
 2121SOL    HW2 1630   3.517   3.017   2.382
 2122SOL     OW 1631   1.975   2.599   3.459
 2122SOL    HW1 1632   2.063   2.586   3.504
 2122SOL    HW2 1633   1.962   2.696   3.437
 2123SOL     OW 1634   2.475   3.227   2.588
 2123SOL    HW1 1635   2.426   3.140   2.597
 2123SOL    HW2 1636   2.452   3.270   2.501
 2124SOL     OW 1637   3.155   3.090   3.285
 2124SOL    HW1 1638   3.192   3.017   3.227
 2124SOL    HW2 1639   3.207   3.095   3.370
 2125SOL     OW 1640   2.671   1.866   2.364
 2125SOL    HW1 1641   2.711   1.957   2.355
 2125SOL    HW2 1642   2.571   1.874   2.370
 2126SOL     OW 1643   2.059   2.838   3.126
 2126SOL    HW1 1644   2.148   2.793   3.112
 2126SOL    HW2 1645   1.986   2.773   3.107
 2127SOL     OW 1646   3.387   2.861   2.052
 2127SOL    HW1 1647   3.324   2.785   2.065
 2127SOL    HW2 1648   3.435   2.879   2.138
 2129SOL     OW 1649   2.179   2.113   3.663
 2129SOL    HW1 1650   2.250   2.184   3.669
 2129SOL    HW2 1651   2.091   2.152   3.691
 2130SOL     OW 1652   3.328   3.279   2.815
 2130SOL    HW1 1653   3.269   3.285   2.895
 2130SOL    HW2 1654   3.313   3.191   2.769
 2131SOL     OW 1655   3.529   3.576   2.434
 2131SOL    HW1 1656   3.488   3.553   2.346
 2131SOL    HW2 1657   3.511   3.502   2.499
 2132SOL     OW 1658   2.460   2.591   2.132
 2132SOL    HW1 1659   2.484   2.660   2.064
 2132SOL    HW2 1660   2.382   2.624   2.186
 2133SOL     OW 1661   3.143   2.207   2.806
 2133SOL    HW1 1662   3.057   2.157   2.793
 2133SOL    HW2 1663   3.205   2.153   2.862
 2134SOL     OW 1664   3.438   3.524   2.169
 2134SOL    HW1 1665   3.527   3.570   2.172
 2134SOL    HW2 1666   3.417   3.500   2.074
 2135SOL     OW 1667   2.669   2.467   3.327
 2135SOL    HW1 1668   2.622   2.464   3.416
 2135SOL    HW2 1669   2.618   2.412   3.261
 2136SOL     OW 1670   3.256   2.331   3.536
 2136SOL    HW1 1671   3.236   2.374   3.624
 2136SOL    HW2 1672   3.334   2.269   3.545
 2137SOL     OW 1673   2.835   2.752   3.434
 2137SOL    HW1 1674   2.881   2.668   3.405
 2137SOL    HW2 1675   2.779   2.786   3.359
 2138SOL     OW 1676   2.853   2.272   3.104
 2138SOL    HW1 1677   2.776   2.306   3.158
 2138SOL    HW2 1678   2.819   2.221   3.025
 2139SOL     OW 1679   2.903   2.563   2.291
 2139SOL    HW1 1680   2.929   2.559   2.387
 2139SOL    HW2 1681   2.818   2.512   2.277
 2140SOL     OW 1682   1.938   2.673   2.651
 2140SOL    HW1 1683   2.037   2.661   2.660
 2140SOL    HW2 1684   1.914   2.768   2.672
 2141SOL     OW 1685   1.992   3.683   3.433
 2141SOL    HW1 1686   1.982   3.668   3.532
 2141SOL    HW2 1687   1.906   3.719   3.397
 2142SOL     OW 1688   2.727   2.210   2.057
 2142SOL    HW1 1689   2.786   2.273   2.008
 2142SOL    HW2 1690   2.746   2.116   2.028
 2143SOL     OW 1691   3.581   2.447   3.693
 2143SOL    HW1 1692   3.555   2.536   3.657
 2143SOL    HW2 1693   3.579   2.379   3.620
 2144SOL     OW 1694   3.224   3.006   2.407
 2144SOL    HW1 1695   3.307   2.977   2.359
 2144SOL    HW2 1696   3.175   3.073   2.351
 2145SOL     OW 1697   2.412   2.058   2.747
 2145SOL    HW1 1698   2.407   2.053   2.847
 2145SOL    HW2 1699   2.414   2.154   2.718
 2146SOL     OW 1700   2.870   3.318   2.339
 2146SOL    HW1 1701   2.824   3.390   2.287
 2146SOL    HW2 1702   2.866   3.338   2.437
 2147SOL     OW 1703   2.213   3.663   2.715
 2147SOL    HW1 1704   2.263   3.577   2.721
 2147SOL    HW2 1705   2.278   3.740   2.712
 2148SOL     OW 1706   3.657   2.928   2.735
 2148SOL    HW1 1707   3.595   2.913   2.659
 2148SOL    HW2 1708   3.605   2.939   2.820
 2149SOL     OW 1709   3.089   3.412   3.368
 2149SOL    HW1 1710   3.095   3.335   3.432
 2149SOL    HW2 1711   3.037   3.386   3.288
 2150SOL     OW 1712   2.183   2.805   2.104
 2150SOL    HW1 1713   2.265   2.844   2.062
 2150SOL    HW2 1714   2.156   2.723   2.055
 2151SOL     OW 1715   3.320   2.597   2.590
 2151SOL    HW1 1716   3.315   2.532   2.665
 2151SOL    HW2 1717   3.400   2.656   2.603
 2152SOL     OW 1718   2.323   3.128   3.589
 2152SOL    HW1 1719   2.273   3.129   3.503
 2152SOL    HW2 1720   2.260   3.110   3.665
 2153SOL     OW 1721   2.973   3.638   2.099
 2153SOL    HW1 1722   2.913   3.576   2.149
 2153SOL    HW2 1723   3.004   3.594   2.014
 2154SOL     OW 1724   2.064   2.147   3.360
 2154SOL    HW1 1725   1.984   2.207   3.347
 2154SOL    HW2 1726   2.054   2.098   3.446
 2155SOL     OW 1727   3.494   3.239   1.943
 2155SOL    HW1 1728   3.462   3.333   1.933
 2155SOL    HW2 1729   3.418   3.176   1.931
 2156SOL     OW 1730   2.326   3.605   2.185
 2156SOL    HW1 1731   2.359   3.644   2.271
 2156SOL    HW2 1732   2.402   3.598   2.120
 2157SOL     OW 1733   3.262   1.969   2.288
 2157SOL    HW1 1734   3.238   1.932   2.198
 2157SOL    HW2 1735   3.361   1.985   2.292
 2158SOL     OW 1736   2.111   3.647   3.103
 2158SOL    HW1 1737   2.168   3.582   3.153
 2158SOL    HW2 1738   2.095   3.614   3.010
 2159SOL     OW 1739   2.802   3.560   2.766
 2159SOL    HW1 1740   2.882   3.503   2.787
 2159SOL    HW2 1741   2.753   3.520   2.689
 2160SOL     OW 1742   3.409   2.084   3.591
 2160SOL    HW1 1743   3.404   2.121   3.683
 2160SOL    HW2 1744   3.337   2.015   3.579
 2161SOL     OW 1745   2.476   1.984   1.979
 2161SOL    HW1 1746   2.574   1.962   1.986
 2161SOL    HW2 1747   2.445   1.967   1.886
 2162SOL     OW 1748   2.643   2.126   3.611
 2162SOL    HW1 1749   2.710   2.065   3.654
 2162SOL    HW2 1750   2.570   2.145   3.676
 2163SOL     OW 1751   2.750   3.376   3.057
 2163SOL    HW1 1752   2.727   3.351   2.963
 2163SOL    HW2 1753   2.811   3.307   3.096
 2164SOL     OW 1754   3.213   2.452   3.295
 2164SOL    HW1 1755   3.241   2.409   3.380
 2164SOL    HW2 1756   3.238   2.548   3.296
 2165SOL     OW 1757   2.665   3.264   2.786
 2165SOL    HW1 1758   2.755   3.278   2.744
 2165SOL    HW2 1759   2.594   3.266   2.715
 2166SOL     OW 1760   2.784   2.365   2.761
 2166SOL    HW1 1761   2.759   2.356   2.665
 2166SOL    HW2 1762   2.832   2.283   2.792
 2167SOL     OW 1763   2.401   1.926   2.374
 2167SOL    HW1 1764   2.320   1.927   2.432
 2167SOL    HW2 1765   2.404   2.009   2.319
 2168SOL     OW 1766   3.296   3.050   1.903
 2168SOL    HW1 1767   3.328   2.974   1.960
 2168SOL    HW2 1768   3.204   3.077   1.933
 2169SOL     OW 1769   2.159   1.897   2.033
 2169SOL    HW1 1770   2.208   1.981   2.012
 2169SOL    HW2 1771   2.221   1.832   2.078
 2170SOL     OW 1772   2.797   2.098   2.342
 2170SOL    HW1 1773   2.749   2.139   2.264
 2170SOL    HW2 1774   2.896   2.096   2.323
 2171SOL     OW 1775   2.938   2.545   3.326
 2171SOL    HW1 1776   2.858   2.484   3.329
 2171SOL    HW2 1777   3.019   2.492   3.302
 2172SOL     OW 1778   3.089   3.432   2.655
 2172SOL    HW1 1779   3.110   3.506   2.590
 2172SOL    HW2 1780   3.157   3.432   2.728
 2173SOL     OW 1781   2.321   3.014   2.603
 2173SOL    HW1 1782   2.250   2.987   2.668
 2173SOL    HW2 1783   2.295   2.986   2.510
 2174SOL     OW 1784   3.133   3.659   2.453
 2174SOL    HW1 1785   3.177   3.723   2.389
 2174SOL    HW2 1786   3.083   3.711   2.523
 2175SOL     OW 1787   2.894   2.411   1.878
 2175SOL    HW1 1788   2.853   2.493   1.839
 2175SOL    HW2 1789   2.958   2.437   1.951
 2176SOL     OW 1790   1.940   2.418   3.248
 2176SOL    HW1 1791   2.032   2.417   3.207
 2176SOL    HW2 1792   1.934   2.492   3.315
 2177SOL     OW 1793   2.423   2.084   3.009
 2177SOL    HW1 1794   2.461   2.000   3.046
 2177SOL    HW2 1795   2.335   2.103   3.053
 2178SOL     OW 1796   2.728   2.316   2.504
 2178SOL    HW1 1797   2.696   2.388   2.442
 2178SOL    HW2 1798   2.752   2.235   2.451
 2179SOL     OW 1799   2.879   1.901   2.615
 2179SOL    HW1 1800   2.807   1.906   2.546
 2179SOL    HW2 1801   2.855   1.832   2.684
 2180SOL     OW 1802   3.291   3.035   2.729
 2180SOL    HW1 1803   3.236   2.951   2.722
 2180SOL    HW2 1804   3.317   3.064   2.637
 2181SOL     OW 1805   3.328   2.452   2.854
 2181SOL    HW1 1806   3.298   2.357   2.861
 2181SOL    HW2 1807   3.401   2.468   2.920
 2182SOL     OW 1808   3.719   2.695   2.239
 2182SOL    HW1 1809   3.761   2.631   2.303
 2182SOL    HW2 1810   3.681   2.644   2.161
 2183SOL     OW 1811   2.350   3.247   2.036
 2183SOL    HW1 1812   2.263   3.232   2.083
 2183SOL    HW2 1813   2.333   3.273   1.941
 2184SOL     OW 1814   3.526   3.142   2.519
 2184SOL    HW1 1815   3.625   3.150   2.533
 2184SOL    HW2 1816   3.481   3.226   2.550
 2185SOL     OW 1817   3.252   2.437   1.940
 2185SOL    HW1 1818   3.198   2.416   2.021
 2185SOL    HW2 1819   3.343   2.396   1.949
 2186SOL     OW 1820   3.616   3.085   3.450
 2186SOL    HW1 1821   3.707   3.046   3.437
 2186SOL    HW2 1822   3.624   3.181   3.474
 2187SOL     OW 1823   2.926   3.209   3.202
 2187SOL    HW1 1824   2.846   3.186   3.257
 2187SOL    HW2 1825   3.009   3.183   3.251
 2189SOL     OW 1826   2.973   3.057   2.962
 2189SOL    HW1 1827   2.933   3.101   3.043
 2189SOL    HW2 1828   2.932   3.094   2.879
 2190SOL     OW 1829   3.500   2.961   2.941
 2190SOL    HW1 1830   3.505   3.042   3.000
 2190SOL    HW2 1831   3.414   2.963   2.890
 2191SOL     OW 1832   2.777   1.951   3.264
 2191SOL    HW1 1833   2.802   1.931   3.169
 2191SOL    HW2 1834   2.849   2.007   3.306
 2192SOL     OW 1835   2.842   2.978   3.581
 2192SOL    HW1 1836   2.743   2.984   3.591
 2192SOL    HW2 1837   2.865   2.898   3.525
 2193SOL     OW 1838   2.567   2.912   2.230
 2193SOL    HW1 1839   2.553   2.919   2.329
 2193SOL    HW2 1840   2.651   2.861   2.212
 2194SOL     OW 1841   2.272   2.675   3.113
 2194SOL    HW1 1842   2.358   2.687   3.163
 2194SOL    HW2 1843   2.230   2.588   3.140
 2195SOL     OW 1844   3.136   2.248   3.124
 2195SOL    HW1 1845   3.157   2.322   3.188
 2195SOL    HW2 1846   3.047   2.265   3.081
 2196SOL     OW 1847   1.926   3.426   3.193
 2196SOL    HW1 1848   1.880   3.508   3.159
 2196SOL    HW2 1849   2.024   3.445   3.202
 2197SOL     OW 1850   2.229   2.962   2.363
 2197SOL    HW1 1851   2.222   3.045   2.307
 2197SOL    HW2 1852   2.233   2.882   2.303
 2198SOL     OW 1853   3.114   3.210   2.250
 2198SOL    HW1 1854   3.164   3.287   2.290
 2198SOL    HW2 1855   3.019   3.212   2.282
 2199SOL     OW 1856   3.134   3.307   3.004
 2199SOL    HW1 1857   3.181   3.320   3.091
 2199SOL    HW2 1858   3.068   3.233   3.013
 2200SOL     OW 1859   3.444   2.501   2.334
 2200SOL    HW1 1860   3.413   2.562   2.407
 2200SOL    HW2 1861   3.494   2.553   2.265
 2201SOL     OW 1862   2.216   3.372   3.191
 2201SOL    HW1 1863   2.195   3.328   3.104
 2201SOL    HW2 1864   2.313   3.398   3.194
 2202SOL     OW 1865   2.264   2.613   3.460
 2202SOL    HW1 1866   2.332   2.668   3.413
 2202SOL    HW2 1867   2.304   2.525   3.487
 2203SOL     OW 1868   3.449   2.641   3.532
 2203SOL    HW1 1869   3.357   2.679   3.527
 2203SOL    HW2 1870   3.509   2.688   3.467
 2204SOL     OW 1871   2.875   1.967   3.632
 2204SOL    HW1 1872   2.881   2.052   3.580
 2204SOL    HW2 1873   2.907   1.891   3.575
 2205SOL     OW 1874   2.366   1.912   3.602
 2205SOL    HW1 1875   2.324   1.855   3.532
 2205SOL    HW2 1876   2.300   1.981   3.634
 2206SOL     OW 1877   2.435   2.732   2.891
 2206SOL    HW1 1878   2.479   2.821   2.882
 2206SOL    HW2 1879   2.372   2.732   2.968
 2207SOL     OW 1880   3.222   2.724   2.907
 2207SOL    HW1 1881   3.147   2.724   2.841
 2207SOL    HW2 1882   3.259   2.632   2.916
 2208SOL     OW 1883   3.071   2.387   2.137
 2208SOL    HW1 1884   3.084   2.303   2.191
 2208SOL    HW2 1885   3.042   2.461   2.197
 2209SOL     OW 1886   2.169   2.075   3.093
 2209SOL    HW1 1887   2.146   2.112   3.183
 2209SOL    HW2 1888   2.139   1.980   3.087
 2210SOL     OW 1889   1.899   3.172   3.144
 2210SOL    HW1 1890   1.952   3.123   3.212
 2210SOL    HW2 1891   1.921   3.270   3.149
 2211SOL     OW 1892   2.594   2.496   2.926
 2211SOL    HW1 1893   2.653   2.470   2.850
 2211SOL    HW2 1894   2.566   2.592   2.915
 2213SOL     OW 1895   2.169   1.925   2.480
 2213SOL    HW1 1896   2.158   2.019   2.513
 2213SOL    HW2 1897   2.164   1.862   2.557
 2214SOL     OW 1898   3.484   2.229   2.236
 2214SOL    HW1 1899   3.486   2.153   2.300
 2214SOL    HW2 1900   3.436   2.306   2.276
 2215SOL     OW 1901   2.885   2.628   2.828
 2215SOL    HW1 1902   2.900   2.649   2.924
 2215SOL    HW2 1903   2.855   2.533   2.819
 2216SOL     OW 1904   2.842   3.435   3.562
 2216SOL    HW1 1905   2.822   3.479   3.474
 2216SOL    HW2 1906   2.881   3.344   3.546
 2218SOL     OW 1907   2.212   2.760   3.666
 2218SOL    HW1 1908   2.288   2.804   3.714
 2218SOL    HW2 1909   2.247   2.713   3.584
 2219SOL     OW 1910   3.402   2.136   1.987
 2219SOL    HW1 1911   3.341   2.061   2.010
 2219SOL    HW2 1912   3.424   2.188   2.070
 2220SOL     OW 1913   3.165   2.700   1.904
 2220SOL    HW1 1914   3.199   2.607   1.919
 2220SOL    HW2 1915   3.183   2.727   1.809
 2221SOL     OW 1916   2.930   3.195   2.711
 2221SOL    HW1 1917   2.937   3.111   2.656
 2221SOL    HW2 1918   2.992   3.264   2.675
 2222SOL     OW 1919   2.181   2.672   2.811
 2222SOL    HW1 1920   2.274   2.708   2.816
 2222SOL    HW2 1921   2.175   2.587   2.863
 2223SOL     OW 1922   2.201   2.371   2.868
 2223SOL    HW1 1923   2.149   2.288   2.851
 2223SOL    HW2 1924   2.278   2.376   2.804
 2224SOL     OW 1925   3.000   2.242   3.540
 2224SOL    HW1 1926   2.955   2.305   3.604
 2224SOL    HW2 1927   3.093   2.273   3.523
 2225SOL     OW 1928   3.022   2.069   3.339
 2225SOL    HW1 1929   3.022   2.133   3.416
 2225SOL    HW2 1930   3.050   2.117   3.256
 2226SOL     OW 1931   1.870   3.188   2.062
 2226SOL    HW1 1932   1.777   3.209   2.031
 2226SOL    HW2 1933   1.880   3.089   2.075
 2227SOL     OW 1934   1.950   3.663   2.789
 2227SOL    HW1 1935   1.908   3.577   2.762
 2227SOL    HW2 1936   2.044   3.666   2.755
 2228SOL     OW 1937   2.366   3.430   2.772
 2228SOL    HW1 1938   2.432   3.504   2.781
 2228SOL    HW2 1939   2.410   3.351   2.730
 2229SOL     OW 1940   2.864   2.658   3.100
 2229SOL    HW1 1941   2.905   2.626   3.186
 2229SOL    HW2 1942   2.768   2.631   3.097
 2230SOL     OW 1943   1.902   2.406   2.976
 2230SOL    HW1 1944   1.987   2.373   2.935
 2230SOL    HW2 1945   1.915   2.421   3.074
 2231SOL     OW 1946   2.051   2.382   3.584
 2231SOL    HW1 1947   2.110   2.342   3.514
 2231SOL    HW2 1948   1.993   2.453   3.543
 2232SOL     OW 1949   3.231   2.812   3.522
 2232SOL    HW1 1950   3.270   2.901   3.542
 2232SOL    HW2 1951   3.241   2.792   3.425
 2233SOL     OW 1952   2.677   2.434   2.187
 2233SOL    HW1 1953   2.684   2.345   2.141
 2233SOL    HW2 1954   2.583   2.468   2.179
 2234SOL     OW 1955   3.519   2.466   3.068
 2234SOL    HW1 1956   3.481   2.397   3.130
 2234SOL    HW2 1957   3.601   2.430   3.024
 2235SOL     OW 1958   2.114   3.426   3.606
 2235SOL    HW1 1959   2.084   3.483   3.682
 2235SOL    HW2 1960   2.107   3.329   3.632
 2236SOL     OW 1961   2.533   2.326   3.131
 2236SOL    HW1 1962   2.499   2.237   3.101
 2236SOL    HW2 1963   2.559   2.380   3.051
 2237SOL     OW 1964   2.792   3.540   3.327
 2237SOL    HW1 1965   2.768   3.522   3.232
 2237SOL    HW2 1966   2.822   3.634   3.337
 2238SOL     OW 1967   2.021   2.999   3.328
 2238SOL    HW1 1968   2.043   2.938   3.404
 2238SOL    HW2 1969   2.031   2.950   3.242
 2239SOL     OW 1970   3.209   2.921   3.096
 2239SOL    HW1 1971   3.233   2.858   3.022
 2239SOL    HW2 1972   3.119   2.961   3.078
 2240SOL     OW 1973   3.164   2.717   2.171
 2240SOL    HW1 1974   3.078   2.686   2.213
 2240SOL    HW2 1975   3.160   2.703   2.072
 2242SOL     OW 1976   3.114   3.593   2.990
 2242SOL    HW1 1977   3.198   3.598   2.936
 2242SOL    HW2 1978   3.091   3.497   3.008
 2243SOL     OW 1979   1.945   3.120   2.884
 2243SOL    HW1 1980   1.940   3.119   2.984
 2243SOL    HW2 1981   1.862   3.079   2.846
 2244SOL     OW 1982   2.550   3.524   3.578
 2244SOL    HW1 1983   2.494   3.605   3.587
 2244SOL    HW2 1984   2.602   3.528   3.492
 2245SOL     OW 1985   3.588   1.997   2.385
 2245SOL    HW1 1986   3.661   1.980   2.318
 2245SOL    HW2 1987   3.557   1.910   2.423
 2246SOL     OW 1988   3.250   3.435   2.339
 2246SOL    HW1 1989   3.317   3.447   2.265
 2246SOL    HW2 1990   3.210   3.524   2.362
 2248SOL     OW 1991   3.142   2.789   2.534
 2248SOL    HW1 1992   3.202   2.708   2.536
 2248SOL    HW2 1993   3.182   2.858   2.474
 2249SOL     OW 1994   2.692   3.135   3.284
 2249SOL    HW1 1995   2.687   3.168   3.379
 2249SOL    HW2 1996   2.606   3.154   3.238
 2250SOL     OW 1997   2.534   3.478   2.016
 2250SOL    HW1 1998   2.543   3.488   1.917
 2250SOL    HW2 1999   2.494   3.389   2.037
 2252SOL     OW 2000   3.703   2.037   2.825
 2252SOL    HW1 2001   3.742   1.952   2.789
 2252SOL    HW2 2002   3.605   2.039   2.806
 2253SOL     OW 2003   2.125   2.188   2.582
 2253SOL    HW1 2004   2.046   2.239   2.548
 2253SOL    HW2 2005   2.116   2.173   2.680
 2254SOL     OW 2006   3.056   3.474   1.893
 2254SOL    HW1 2007   3.062   3.381   1.930
 2254SOL    HW2 2008   2.997   3.474   1.813
 2255SOL     OW 2009   2.684   2.864   3.234
 2255SOL    HW1 2010   2.724   2.863   3.142
 2255SOL    HW2 2011   2.694   2.956   3.274
 2256SOL     OW 2012   2.778   2.772   2.153
 2256SOL    HW1 2013   2.841   2.810   2.085
 2256SOL    HW2 2014   2.818   2.689   2.192
 2257SOL     OW 2015   3.366   3.469   1.906
 2257SOL    HW1 2016   3.274   3.506   1.913
 2257SOL    HW2 2017   3.404   3.489   1.816
 2258SOL     OW 2018   2.234   3.150   3.352
 2258SOL    HW1 2019   2.221   3.243   3.318
 2258SOL    HW2 2020   2.150   3.098   3.339
 2259SOL     OW 2021   3.476   3.154   3.151
 2259SOL    HW1 2022   3.536   3.157   3.231
 2259SOL    HW2 2023   3.401   3.218   3.164
 2260SOL     OW 2024   2.901   2.960   2.558
 2260SOL    HW1 2025   2.831   2.913   2.612
 2260SOL    HW2 2026   2.960   2.892   2.515
 2261SOL     OW 2027   2.876   2.098   2.833
 2261SOL    HW1 2028   2.868   2.062   2.740
 2261SOL    HW2 2029   2.874   2.022   2.898
 2262SOL     OW 2030   2.452   3.349   2.353
 2262SOL    HW1 2031   2.494   3.291   2.283
 2262SOL    HW2 2032   2.408   3.428   2.309
 2263SOL     OW 2033   3.571   2.247   3.243
 2263SOL    HW1 2034   3.644   2.316   3.247
 2263SOL    HW2 2035   3.599   2.172   3.184
 2264SOL     OW 2036   2.117   3.210   2.152
 2264SOL    HW1 2037   2.021   3.211   2.125
 2264SOL    HW2 2038   2.129   3.263   2.236
 2265SOL     OW 2039   1.967   2.875   3.588
 2265SOL    HW1 2040   1.890   2.842   3.642
 2265SOL    HW2 2041   2.052   2.845   3.630
 2266SOL     OW 2042   2.534   2.065   3.351
 2266SOL    HW1 2043   2.624   2.049   3.311
 2266SOL    HW2 2044   2.542   2.070   3.450
 2267SOL     OW 2045   1.937   2.207   1.895
 2267SOL    HW1 2046   1.845   2.179   1.866
 2267SOL    HW2 2047   1.968   2.284   1.839
 2268SOL     OW 2048   3.302   2.718   3.260
 2268SOL    HW1 2049   3.245   2.770   3.197
 2268SOL    HW2 2050   3.398   2.730   3.236
 2269SOL     OW 2051   1.934   2.028   2.180
 2269SOL    HW1 2052   1.917   2.111   2.126
 2269SOL    HW2 2053   2.024   1.991   2.158
 2270SOL     OW 2054   3.045   3.197   1.981
 2270SOL    HW1 2055   2.946   3.186   1.983
 2270SOL    HW2 2056   3.079   3.212   2.074
 2271SOL     OW 2057   2.475   2.704   3.293
 2271SOL    HW1 2058   2.531   2.785   3.276
 2271SOL    HW2 2059   2.534   2.624   3.296
 2272SOL     OW 2060   3.355   3.629   2.821
 2272SOL    HW1 2061   3.388   3.693   2.752
 2272SOL    HW2 2062   3.421   3.623   2.896
 2273SOL     OW 2063   2.578   2.427   3.570
 2273SOL    HW1 2064   2.597   2.492   3.644
 2273SOL    HW2 2065   2.638   2.347   3.579
 2274SOL     OW 2066   3.312   3.082   3.495
 2274SOL    HW1 2067   3.303   3.072   3.594
 2274SOL    HW2 2068   3.408   3.075   3.469
 2275SOL     OW 2069   2.252   3.603   3.422
 2275SOL    HW1 2070   2.161   3.644   3.420
 2275SOL    HW2 2071   2.245   3.509   3.454
 2276SOL     OW 2072   3.536   2.745   3.116
 2276SOL    HW1 2073   3.509   2.656   3.079
 2276SOL    HW2 2074   3.537   2.813   3.043
 2277SOL     OW 2075   3.087   2.187   2.311
 2277SOL    HW1 2076   3.152   2.113   2.300
 2277SOL    HW2 2077   3.107   2.237   2.395
 2278SOL     OW 2078   3.639   2.204   3.504
 2278SOL    HW1 2079   3.622   2.235   3.410
 2278SOL    HW2 2080   3.555   2.167   3.542
 2279SOL     OW 2081   3.592   2.796   3.379
 2279SOL    HW1 2082   3.630   2.887   3.394
 2279SOL    HW2 2083   3.584   2.779   3.280
 2280SOL     OW 2084   2.721   3.236   1.878
 2280SOL    HW1 2085   2.675   3.251   1.966
 2280SOL    HW2 2086   2.765   3.321   1.848
 2281SOL     OW 2087   2.523   3.652   2.815
 2281SOL    HW1 2088   2.477   3.740   2.802
 2281SOL    HW2 2089   2.622   3.664   2.808
 2282SOL     OW 2090   2.721   2.818   2.723
 2282SOL    HW1 2091   2.775   2.749   2.771
 2282SOL    HW2 2092   2.689   2.887   2.789
 2283SOL     OW 2093   2.945   2.846   1.949
 2283SOL    HW1 2094   2.922   2.899   1.867
 2283SOL    HW2 2095   3.026   2.790   1.930
 2284SOL     OW 2096   3.723   3.431   2.713
 2284SOL    HW1 2097   3.652   3.419   2.643
 2284SOL    HW2 2098   3.724   3.352   2.773
 2285SOL     OW 2099   2.083   3.176   3.706
 2285SOL    HW1 2100   2.018   3.103   3.685
 2285SOL    HW2 2101   2.087   3.190   3.804
 2286SOL     OW 2102   1.941   3.102   2.515
 2286SOL    HW1 2103   1.940   3.055   2.603
 2286SOL    HW2 2104   2.023   3.074   2.464
 2287SOL     OW 2105   2.534   3.253   3.486
 2287SOL    HW1 2106   2.456   3.203   3.524
 2287SOL    HW2 2107   2.531   3.348   3.517
 2288SOL     OW 2108   3.686   2.054   3.089
 2288SOL    HW1 2109   3.682   1.964   3.133
 2288SOL    HW2 2110   3.689   2.043   2.990
 2289SOL     OW 2111   3.567   3.349   2.966
 2289SOL    HW1 2112   3.474   3.324   2.939
 2289SOL    HW2 2113   3.593   3.299   3.048
 2290SOL     OW 2114   2.179   2.409   3.142
 2290SOL    HW1 2115   2.217   2.350   3.214
 2290SOL    HW2 2116   2.219   2.383   3.054
 2291SOL     OW 2117   2.674   3.448   2.549
 2291SOL    HW1 2118   2.706   3.458   2.455
 2291SOL    HW2 2119   2.595   3.386   2.551
 2292SOL     OW 2120   3.286   2.076   2.974
 2292SOL    HW1 2121   3.338   2.011   3.029
 2292SOL    HW2 2122   3.237   2.139   3.035
 2293SOL     OW 2123   2.863   1.896   3.016
 2293SOL    HW1 2124   2.800   1.824   2.985
 2293SOL    HW2 2125   2.956   1.860   3.016
 2294SOL     OW 2126   2.632   3.192   2.163
 2294SOL    HW1 2127   2.586   3.105   2.180
 2294SOL    HW2 2128   2.723   3.189   2.204
 2295SOL     OW 2129   2.480   3.429   3.146
 2295SOL    HW1 2130   2.475   3.511   3.203
 2295SOL    HW2 2131   2.569   3.426   3.101
 2296SOL     OW 2132   3.214   1.914   2.030
 2296SOL    HW1 2133   3.249   1.873   1.946
 2296SOL    HW2 2134   3.124   1.876   2.050
 2297SOL     OW 2135   3.162   2.315   2.553
 2297SOL    HW1 2136   3.103   2.395   2.557
 2297SOL    HW2 2137   3.177   2.280   2.646
 2298SOL     OW 2138   3.455   2.083   2.744
 2298SOL    HW1 2139   3.371   2.082   2.798
 2298SOL    HW2 2140   3.457   2.166   2.688
 2299SOL     OW 2141   1.901   2.939   2.162
 2299SOL    HW1 2142   2.000   2.928   2.153
 2299SOL    HW2 2143   1.861   2.853   2.194
 2300SOL     OW 2144   2.737   3.508   2.199
 2300SOL    HW1 2145   2.660   3.473   2.145
 2300SOL    HW2 2146   2.705   3.579   2.261
 2301SOL     OW 2147   2.092   2.490   3.837
 2301SOL    HW1 2148   1.999   2.488   3.874
 2301SOL    HW2 2149   2.093   2.451   3.745
 2312SOL     OW 2150   2.468   2.826   3.847
 2312SOL    HW1 2151   2.475   2.910   3.793
 2312SOL    HW2 2152   2.514   2.839   3.935
 2323SOL     OW 2153   2.460   2.591   3.994
 2323SOL    HW1 2154   2.484   2.660   3.926
 2323SOL    HW2 2155   2.382   2.624   4.048
 2328SOL     OW 2156   2.727   2.210   3.919
 2328SOL    HW1 2157   2.786   2.273   3.870
 2328SOL    HW2 2158   2.746   2.116   3.890
 2334SOL     OW 2159   2.183   2.805   3.966
 2334SOL    HW1 2160   2.265   2.844   3.924
 2334SOL    HW2 2161   2.156   2.723   3.917
 2341SOL     OW 2162   2.476   1.984   3.841
 2341SOL    HW1 2163   2.574   1.962   3.848
 2341SOL    HW2 2164   2.445   1.967   3.748
 2345SOL     OW 2165   2.159   1.897   3.895
 2345SOL    HW1 2166   2.208   1.981   3.874
 2345SOL    HW2 2167   2.221   1.832   3.940
 2350SOL     OW 2168   2.894   2.411   3.740
 2350SOL    HW1 2169   2.853   2.493   3.701
 2350SOL    HW2 2170   2.958   2.437   3.813
 2355SOL     OW 2171   2.350   3.247   3.898
 2355SOL    HW1 2172   2.263   3.232   3.945
 2355SOL    HW2 2173   2.333   3.273   3.803
 2357SOL     OW 2174   3.252   2.437   3.802
 2357SOL    HW1 2175   3.198   2.416   3.883
 2357SOL    HW2 2176   3.343   2.396   3.811
 2358SOL     OW 2177   2.389   2.118   4.052
 2358SOL    HW1 2178   2.416   2.059   3.977
 2358SOL    HW2 2179   2.389   2.213   4.021
 2364SOL     OW 2180   3.071   2.387   3.999
 2364SOL    HW1 2181   3.084   2.303   4.053
 2364SOL    HW2 2182   3.042   2.461   4.059
 2369SOL     OW 2183   3.165   2.700   3.766
 2369SOL    HW1 2184   3.199   2.607   3.781
 2369SOL    HW2 2185   3.183   2.727   3.671
 2375SOL     OW 2186   2.677   2.434   4.049
 2375SOL    HW1 2187   2.684   2.345   4.003
 2375SOL    HW2 2188   2.583   2.468   4.041
 2376SOL     OW 2189   2.335   2.362   3.915
 2376SOL    HW1 2190   2.396   2.442   3.919
 2376SOL    HW2 2191   2.240   2.393   3.922
 2386SOL     OW 2192   2.778   2.772   4.015
 2386SOL    HW1 2193   2.841   2.810   3.947
 2386SOL    HW2 2194   2.818   2.689   4.054
 2391SOL     OW 2195   1.937   2.207   3.757
 2391SOL    HW1 2196   1.845   2.179   3.728
 2391SOL    HW2 2197   1.968   2.284   3.701
 2392SOL     OW 2198   1.934   2.028   4.042
 2392SOL    HW1 2199   1.917   2.111   3.988
 2392SOL    HW2 2200   2.024   1.991   4.020
 2397SOL     OW 2201   2.721   3.236   3.740
 2397SOL    HW1 2202   2.675   3.251   3.828
 2397SOL    HW2 2203   2.765   3.321   3.710
 2400SOL     OW 2204   2.945   2.846   3.811
 2400SOL    HW1 2205   2.922   2.899   3.729
 2400SOL    HW2 2206   3.026   2.790   3.792
 2427SOL     OW 2207   2.179   3.975   1.801
 2427SOL    HW1 2208   2.250   4.046   1.807
 2427SOL    HW2 2209   2.091   4.014   1.829
 2444SOL     OW 2210   2.643   3.988   1.749
 2444SOL    HW1 2211   2.710   3.927   1.792
 2444SOL    HW2 2212   2.570   4.007   1.814
 2461SOL     OW 2213   2.777   3.813   1.402
 2461SOL    HW1 2214   2.802   3.793   1.307
 2461SOL    HW2 2215   2.849   3.869   1.444
 2468SOL     OW 2216   2.875   3.829   1.770
 2468SOL    HW1 2217   2.881   3.914   1.718
 2468SOL    HW2 2218   2.907   3.753   1.713
 2469SOL     OW 2219   2.366   3.774   1.740
 2469SOL    HW1 2220   2.324   3.717   1.670
 2469SOL    HW2 2221   2.300   3.843   1.772
 2504SOL     OW 2222   2.534   3.927   1.489
 2504SOL    HW1 2223   2.624   3.911   1.449
 2504SOL    HW2 2224   2.542   3.932   1.588
 2522SOL     OW 2225   2.087   3.999   2.858
 2522SOL    HW1 2226   2.122   3.982   2.950
 2522SOL    HW2 2227   1.999   3.954   2.846
 2523SOL     OW 2228   1.881   4.092   2.509
 2523SOL    HW1 2229   1.799   4.135   2.548
 2523SOL    HW2 2230   1.853   4.019   2.446
 2533SOL     OW 2231   2.671   3.728   2.364
 2533SOL    HW1 2232   2.711   3.819   2.355
 2533SOL    HW2 2233   2.571   3.736   2.370
 2545SOL     OW 2234   2.727   4.072   2.057
 2545SOL    HW1 2235   2.786   4.135   2.008
 2545SOL    HW2 2236   2.746   3.978   2.028
 2547SOL     OW 2237   2.412   3.920   2.747
 2547SOL    HW1 2238   2.407   3.915   2.847
 2547SOL    HW2 2239   2.414   4.016   2.718
 2550SOL     OW 2240   3.262   3.831   2.288
 2550SOL    HW1 2241   3.238   3.794   2.198
 2550SOL    HW2 2242   3.361   3.847   2.292
 2553SOL     OW 2243   2.476   3.846   1.979
 2553SOL    HW1 2244   2.574   3.824   1.986
 2553SOL    HW2 2245   2.445   3.829   1.886
 2557SOL     OW 2246   2.401   3.788   2.374
 2557SOL    HW1 2247   2.320   3.789   2.432
 2557SOL    HW2 2248   2.404   3.871   2.319
 2558SOL     OW 2249   2.159   3.759   2.033
 2558SOL    HW1 2250   2.208   3.843   2.012
 2558SOL    HW2 2251   2.221   3.694   2.078
 2559SOL     OW 2252   2.797   3.960   2.342
 2559SOL    HW1 2253   2.749   4.001   2.264
 2559SOL    HW2 2254   2.896   3.958   2.323
 2563SOL     OW 2255   2.423   3.946   3.009
 2563SOL    HW1 2256   2.461   3.862   3.046
 2563SOL    HW2 2257   2.335   3.965   3.053
 2565SOL     OW 2258   2.879   3.763   2.615
 2565SOL    HW1 2259   2.807   3.768   2.546
 2565SOL    HW2 2260   2.855   3.694   2.684
 2569SOL     OW 2261   2.389   3.980   2.190
 2569SOL    HW1 2262   2.416   3.921   2.115
 2569SOL    HW2 2263   2.389   4.075   2.159
 2571SOL     OW 2264   2.777   3.813   3.264
 2571SOL    HW1 2265   2.802   3.793   3.169
 2571SOL    HW2 2266   2.849   3.869   3.306
 2583SOL     OW 2267   2.169   3.937   3.093
 2583SOL    HW1 2268   2.146   3.974   3.183
 2583SOL    HW2 2269   2.139   3.842   3.087
 2586SOL     OW 2270   2.169   3.787   2.480
 2586SOL    HW1 2271   2.158   3.881   2.513
 2586SOL    HW2 2272   2.164   3.724   2.557
 2609SOL     OW 2273   2.125   4.050   2.582
 2609SOL    HW1 2274   2.046   4.101   2.548
 2609SOL    HW2 2275   2.116   4.035   2.680
 2611SOL     OW 2276   2.876   3.960   2.833
 2611SOL    HW1 2277   2.868   3.924   2.740
 2611SOL    HW2 2278   2.874   3.884   2.898
 2617SOL     OW 2279   1.934   3.890   2.180
 2617SOL    HW1 2280   1.917   3.973   2.126
 2617SOL    HW2 2281   2.024   3.853   2.158
 2626SOL     OW 2282   2.290   4.148   2.382
 2626SOL    HW1 2283   2.320   4.076   2.320
 2626SOL    HW2 2284   2.251   4.108   2.465
 2629SOL     OW 2285   2.863   3.758   3.016
 2629SOL    HW1 2286   2.800   3.686   2.985
 2629SOL    HW2 2287   2.956   3.722   3.016
 2630SOL     OW 2288   3.214   3.776   2.030
 2630SOL    HW1 2289   3.249   3.735   1.946
 2630SOL    HW2 2290   3.124   3.738   2.050
 2716SOL     OW 2291   3.854   1.821   1.571
 2716SOL    HW1 2292   3.844   1.806   1.670
 2716SOL    HW2 2293   3.768   1.857   1.535
 2775SOL     OW 2294   3.854   1.794   1.851
 2775SOL    HW1 2295   3.813   1.720   1.904
 2775SOL    HW2 2296   3.918   1.845   1.909
 2816SOL     OW 2297   3.955   1.713   2.345
 2816SOL    HW1 2298   3.989   1.790   2.399
 2816SOL    HW2 2299   3.999   1.713   2.255
 2822SOL     OW 2300   3.751   1.596   1.979
 2822SOL    HW1 2301   3.732   1.500   2.000
 2822SOL    HW2 2302   3.718   1.654   2.054
 2875SOL     OW 2303   3.732   1.326   2.062
 2875SOL    HW1 2304   3.639   1.347   2.031
 2875SOL    HW2 2305   3.742   1.227   2.075
 2876SOL     OW 2306   3.812   1.801   2.789
 2876SOL    HW1 2307   3.770   1.715   2.762
 2876SOL    HW2 2308   3.906   1.804   2.755
 2997SOL     OW 2309   3.837   2.599   1.597
 2997SOL    HW1 2310   3.925   2.586   1.642
 2997SOL    HW2 2311   3.824   2.696   1.575
 3001SOL     OW 2312   4.041   2.113   1.801
 3001SOL    HW1 2313   4.112   2.184   1.807
 3001SOL    HW2 2314   3.953   2.152   1.829
 3013SOL     OW 2315   3.926   2.147   1.498
 3013SOL    HW1 2316   3.846   2.207   1.485
 3013SOL    HW2 2317   3.916   2.098   1.584
 3025SOL     OW 2318   3.802   2.418   1.386
 3025SOL    HW1 2319   3.894   2.417   1.345
 3025SOL    HW2 2320   3.796   2.492   1.453
 3054SOL     OW 2321   3.913   2.382   1.722
 3054SOL    HW1 2322   3.972   2.342   1.652
 3054SOL    HW2 2323   3.855   2.453   1.681
 3073SOL     OW 2324   3.829   2.875   1.726
 3073SOL    HW1 2325   3.752   2.842   1.780
 3073SOL    HW2 2326   3.914   2.845   1.768
 3095SOL     OW 2327   3.954   2.490   1.975
 3095SOL    HW1 2328   3.861   2.488   2.012
 3095SOL    HW2 2329   3.955   2.451   1.883
 3096SOL     OW 2330   3.949   2.137   2.858
 3096SOL    HW1 2331   3.984   2.120   2.950
 3096SOL    HW2 2332   3.861   2.092   2.846
 3097SOL     OW 2333   3.743   2.230   2.509
 3097SOL    HW1 2334   3.661   2.273   2.548
 3097SOL    HW2 2335   3.715   2.157   2.446
 3107SOL     OW 2336   3.964   2.953   2.748
 3107SOL    HW1 2337   3.978   2.869   2.800
 3107SOL    HW2 2338   3.909   3.017   2.803
 3110SOL     OW 2339   3.846   2.505   2.425
 3110SOL    HW1 2340   3.801   2.417   2.442
 3110SOL    HW2 2341   3.845   2.559   2.509
 3115SOL     OW 2342   3.921   2.838   3.126
 3115SOL    HW1 2343   4.010   2.793   3.112
 3115SOL    HW2 2344   3.848   2.773   3.107
 3120SOL     OW 2345   3.800   2.673   2.651
 3120SOL    HW1 2346   3.899   2.661   2.660
 3120SOL    HW2 2347   3.776   2.768   2.672
 3126SOL     OW 2348   4.045   2.805   2.104
 3126SOL    HW1 2349   4.127   2.844   2.062
 3126SOL    HW2 2350   4.018   2.723   2.055
 3131SOL     OW 2351   4.106   2.562   2.342
 3131SOL    HW1 2352   4.151   2.472   2.339
 3131SOL    HW2 2353   4.012   2.551   2.375
 3138SOL     OW 2354   4.021   1.897   2.033
 3138SOL    HW1 2355   4.070   1.981   2.012
 3138SOL    HW2 2356   4.083   1.832   2.078
 3141SOL     OW 2357   3.802   2.418   3.248
 3141SOL    HW1 2358   3.894   2.417   3.207
 3141SOL    HW2 2359   3.796   2.492   3.315
 3157SOL     OW 2360   3.761   3.172   3.144
 3157SOL    HW1 2361   3.814   3.123   3.212
 3157SOL    HW2 2362   3.783   3.270   3.149
 3159SOL     OW 2363   4.031   1.925   2.480
 3159SOL    HW1 2364   4.020   2.019   2.513
 3159SOL    HW2 2365   4.026   1.862   2.557
 3163SOL     OW 2366   4.043   2.672   2.811
 3163SOL    HW1 2367   4.136   2.708   2.816
 3163SOL    HW2 2368   4.037   2.587   2.863
 3164SOL     OW 2369   4.063   2.371   2.868
 3164SOL    HW1 2370   4.011   2.288   2.851
 3164SOL    HW2 2371   4.140   2.376   2.804
 3165SOL     OW 2372   3.732   3.188   2.062
 3165SOL    HW1 2373   3.639   3.209   2.031
 3165SOL    HW2 2374   3.742   3.089   2.075
 3169SOL     OW 2375   3.764   2.406   2.976
 3169SOL    HW1 2376   3.849   2.373   2.935
 3169SOL    HW2 2377   3.777   2.421   3.074
 3177SOL     OW 2378   3.807   3.120   2.884
 3177SOL    HW1 2379   3.802   3.119   2.984
 3177SOL    HW2 2380   3.724   3.079   2.846
 3183SOL     OW 2381   3.987   2.188   2.582
 3183SOL    HW1 2382   3.908   2.239   2.548
 3183SOL    HW2 2383   3.978   2.173   2.680
 3190SOL     OW 2384   3.799   2.207   1.895
 3190SOL    HW1 2385   3.707   2.179   1.866
 3190SOL    HW2 2386   3.830   2.284   1.839
 3191SOL     OW 2387   3.796   2.028   2.180
 3191SOL    HW1 2388   3.779   2.111   2.126
 3191SOL    HW2 2389   3.886   1.991   2.158
 3201SOL     OW 2390   3.803   3.102   2.515
 3201SOL    HW1 2391   3.802   3.055   2.603
 3201SOL    HW2 2392   3.885   3.074   2.464
 3203SOL     OW 2393   4.152   2.286   2.382
 3203SOL    HW1 2394   4.182   2.214   2.320
 3203SOL    HW2 2395   4.113   2.246   2.465
 3209SOL     OW 2396   3.763   2.939   2.162
 3209SOL    HW1 2397   3.862   2.928   2.153
 3209SOL    HW2 2398   3.723   2.853   2.194
   4.73727   4.73727   4.73727
