; mobley_20524_GMX.itp created by acpype (v: 2023.10.27) on Thu May 21 00:18:00 2026

[ atomtypes ]
;name   bond_type     mass     charge   ptype   sigma         epsilon       Amb
 ca       ca          0.00000  0.00000   A     3.31521e-01   4.13379e-01 ; 1.86  0.0988
 oh       oh          0.00000  0.00000   A     3.24287e-01   3.89112e-01 ; 1.82  0.0930
 ha       ha          0.00000  0.00000   A     2.62548e-01   6.73624e-02 ; 1.47  0.0161
 ho       ho          0.00000  0.00000   A     5.37925e-02   1.96648e-02 ; 0.30  0.0047

[ moleculetype ]
;name            nrexcl
 mobley_20524     3

[ atoms ]
;   nr  type  resi  res  atom  cgnr     charge      mass       ; qtot   bond_type
     1   ca     1   MOL    C1    1    -0.185000     12.01000 ; qtot -0.185
     2   ca     1   MOL    C2    2     0.123100     12.01000 ; qtot -0.062
     3   ca     1   MOL    C3    3    -0.094500     12.01000 ; qtot -0.156
     4   ca     1   MOL    C4    4    -0.185000     12.01000 ; qtot -0.341
     5   oh     1   MOL    O5    5    -0.498100     16.00000 ; qtot -0.840
     6   ca     1   MOL    C6    6    -0.166000     12.01000 ; qtot -1.006
     7   ca     1   MOL    C7    7    -0.094500     12.01000 ; qtot -1.100
     8   ha     1   MOL    H1    8     0.141500      1.00800 ; qtot -0.959
     9   ha     1   MOL    H2    9     0.133000      1.00800 ; qtot -0.826
    10   ha     1   MOL    H3   10     0.141500      1.00800 ; qtot -0.684
    11   ha     1   MOL    H4   11     0.133000      1.00800 ; qtot -0.551
    12   ha     1   MOL    H5   12     0.133000      1.00800 ; qtot -0.418
    13   ho     1   MOL    H6   13     0.418000      1.00800 ; qtot -0.000

[ bonds ]
;   ai     aj funct   r             k
     1      2   1    1.3986e-01    2.9644e+05 ;     C1 - C2    
     1      3   1    1.3986e-01    2.9644e+05 ;     C1 - C3    
     1      8   1    1.0860e-01    3.0183e+05 ;     C1 - H1    
     2      4   1    1.3986e-01    2.9644e+05 ;     C2 - C4    
     2      5   1    1.3644e-01    2.9167e+05 ;     C2 - O5    
     3      6   1    1.3986e-01    2.9644e+05 ;     C3 - C6    
     3      9   1    1.0860e-01    3.0183e+05 ;     C3 - H2    
     4      7   1    1.3986e-01    2.9644e+05 ;     C4 - C7    
     4     10   1    1.0860e-01    3.0183e+05 ;     C4 - H3    
     5     13   1    9.7250e-02    4.4811e+05 ;     O5 - H6    
     6      7   1    1.3986e-01    2.9644e+05 ;     C6 - C7    
     6     11   1    1.0860e-01    3.0183e+05 ;     C6 - H4    
     7     12   1    1.0860e-01    3.0183e+05 ;     C7 - H5    

[ pairs ]
;   ai     aj    funct
     1      7      1 ;     C1 - C7    
     1     10      1 ;     C1 - H3    
     1     11      1 ;     C1 - H4    
     1     13      1 ;     C1 - H6    
     2      6      1 ;     C2 - C6    
     2      9      1 ;     C2 - H2    
     2     12      1 ;     C2 - H5    
     3      4      1 ;     C3 - C4    
     3      5      1 ;     C3 - O5    
     3     12      1 ;     C3 - H5    
     4     11      1 ;     C4 - H4    
     4     13      1 ;     C4 - H6    
     5      7      1 ;     O5 - C7    
     5     10      1 ;     O5 - H3    
     6     10      1 ;     C6 - H3    
     7      9      1 ;     C7 - H2    
     8      4      1 ;     H1 - C4    
     8      5      1 ;     H1 - O5    
     8      6      1 ;     H1 - C6    
     8      9      1 ;     H1 - H2    
     9     11      1 ;     H2 - H4    
    10     12      1 ;     H3 - H5    
    11     12      1 ;     H4 - H5    

[ angles ]
;   ai     aj     ak    funct   theta         cth
     1      2      4      1    1.2002e+02    5.3279e+02 ;     C1 - C2     - C4    
     1      2      5      1    1.1990e+02    6.5990e+02 ;     C1 - C2     - O5    
     1      3      6      1    1.2002e+02    5.3279e+02 ;     C1 - C3     - C6    
     1      3      9      1    1.1988e+02    3.7572e+02 ;     C1 - C3     - H2    
     2      1      3      1    1.2002e+02    5.3279e+02 ;     C2 - C1     - C3    
     2      1      8      1    1.1988e+02    3.7572e+02 ;     C2 - C1     - H1    
     2      4      7      1    1.2002e+02    5.3279e+02 ;     C2 - C4     - C7    
     2      4     10      1    1.1988e+02    3.7572e+02 ;     C2 - C4     - H3    
     2      5     13      1    1.0858e+02    5.6409e+02 ;     C2 - O5     - H6    
     3      1      8      1    1.1988e+02    3.7572e+02 ;     C3 - C1     - H1    
     3      6      7      1    1.2002e+02    5.3279e+02 ;     C3 - C6     - C7    
     3      6     11      1    1.1988e+02    3.7572e+02 ;     C3 - C6     - H4    
     4      2      5      1    1.1990e+02    6.5990e+02 ;     C4 - C2     - O5    
     4      7      6      1    1.2002e+02    5.3279e+02 ;     C4 - C7     - C6    
     4      7     12      1    1.1988e+02    3.7572e+02 ;     C4 - C7     - H5    
     6      3      9      1    1.1988e+02    3.7572e+02 ;     C6 - C3     - H2    
     6      7     12      1    1.1988e+02    3.7572e+02 ;     C6 - C7     - H5    
     7      4     10      1    1.1988e+02    3.7572e+02 ;     C7 - C4     - H3    
     7      6     11      1    1.1988e+02    3.7572e+02 ;     C7 - C6     - H4    

[ dihedrals ] ; propers
; for gromacs 4.5 or higher, using funct 9
;    i      j      k      l   func   phase     kd      pn
     1      2      4      7      9   180.00  15.16700   2 ;     C1-    C2-    C4-    C7
     1      2      4     10      9   180.00  15.16700   2 ;     C1-    C2-    C4-    H3
     1      2      5     13      9   180.00   3.57732   2 ;     C1-    C2-    O5-    H6
     1      3      6      7      9   180.00  15.16700   2 ;     C1-    C3-    C6-    C7
     1      3      6     11      9   180.00  15.16700   2 ;     C1-    C3-    C6-    H4
     2      1      3      6      9   180.00  15.16700   2 ;     C2-    C1-    C3-    C6
     2      1      3      9      9   180.00  15.16700   2 ;     C2-    C1-    C3-    H2
     2      4      7      6      9   180.00  15.16700   2 ;     C2-    C4-    C7-    C6
     2      4      7     12      9   180.00  15.16700   2 ;     C2-    C4-    C7-    H5
     3      1      2      4      9   180.00  15.16700   2 ;     C3-    C1-    C2-    C4
     3      1      2      5      9   180.00  15.16700   2 ;     C3-    C1-    C2-    O5
     3      6      7      4      9   180.00  15.16700   2 ;     C3-    C6-    C7-    C4
     3      6      7     12      9   180.00  15.16700   2 ;     C3-    C6-    C7-    H5
     4      2      5     13      9   180.00   3.57732   2 ;     C4-    C2-    O5-    H6
     4      7      6     11      9   180.00  15.16700   2 ;     C4-    C7-    C6-    H4
     5      2      4      7      9   180.00  15.16700   2 ;     O5-    C2-    C4-    C7
     5      2      4     10      9   180.00  15.16700   2 ;     O5-    C2-    C4-    H3
     6      7      4     10      9   180.00  15.16700   2 ;     C6-    C7-    C4-    H3
     7      6      3      9      9   180.00  15.16700   2 ;     C7-    C6-    C3-    H2
     8      1      2      4      9   180.00  15.16700   2 ;     H1-    C1-    C2-    C4
     8      1      2      5      9   180.00  15.16700   2 ;     H1-    C1-    C2-    O5
     8      1      3      6      9   180.00  15.16700   2 ;     H1-    C1-    C3-    C6
     8      1      3      9      9   180.00  15.16700   2 ;     H1-    C1-    C3-    H2
     9      3      6     11      9   180.00  15.16700   2 ;     H2-    C3-    C6-    H4
    10      4      7     12      9   180.00  15.16700   2 ;     H3-    C4-    C7-    H5
    11      6      7     12      9   180.00  15.16700   2 ;     H4-    C6-    C7-    H5

[ dihedrals ] ; impropers
; treated as propers in GROMACS to use correct AMBER analytical function
;    i      j      k      l   func   phase     kd      pn
     1      4      2      5      4   180.00   4.60240   2 ;     C1-    C4-    C2-    O5
     1      6      3      9      4   180.00   4.60240   2 ;     C1-    C6-    C3-    H2
     2      7      4     10      4   180.00   4.60240   2 ;     C2-    C7-    C4-    H3
     3      7      6     11      4   180.00   4.60240   2 ;     C3-    C7-    C6-    H4
     4      6      7     12      4   180.00   4.60240   2 ;     C4-    C6-    C7-    H5
     8      1      3      2      4   180.00   4.60240   2 ;     H1-    C1-    C3-    C2
