; mobley_2577969_GMX.itp created by acpype (v: 2023.10.27) on Thu May 21 00:24:03 2026

[ atomtypes ]
;name   bond_type     mass     charge   ptype   sigma         epsilon       Amb
 ca       ca          0.00000  0.00000   A     3.31521e-01   4.13379e-01 ; 1.86  0.0988
 ha       ha          0.00000  0.00000   A     2.62548e-01   6.73624e-02 ; 1.47  0.0161

[ moleculetype ]
;name            nrexcl
 mobley_2577969   3

[ atoms ]
;   nr  type  resi  res  atom  cgnr     charge      mass       ; qtot   bond_type
     1   ca     1   MOL    C1    1    -0.127000     12.01000 ; qtot -0.127
     2   ca     1   MOL    C2    2    -0.127000     12.01000 ; qtot -0.254
     3   ca     1   MOL    C3    3    -0.114000     12.01000 ; qtot -0.368
     4   ca     1   MOL    C4    4    -0.114000     12.01000 ; qtot -0.482
     5   ca     1   MOL    C5    5    -0.114000     12.01000 ; qtot -0.596
     6   ca     1   MOL    C6    6    -0.114000     12.01000 ; qtot -0.710
     7   ca     1   MOL    C7    7    -0.115000     12.01000 ; qtot -0.825
     8   ca     1   MOL    C8    8    -0.115000     12.01000 ; qtot -0.940
     9   ca     1   MOL    C9    9    -0.115000     12.01000 ; qtot -1.055
    10   ca     1   MOL   C10   10    -0.115000     12.01000 ; qtot -1.170
    11   ca     1   MOL   C11   11    -0.033000     12.01000 ; qtot -1.203
    12   ca     1   MOL   C12   12    -0.033000     12.01000 ; qtot -1.236
    13   ca     1   MOL   C13   13    -0.033000     12.01000 ; qtot -1.269
    14   ca     1   MOL   C14   14    -0.033000     12.01000 ; qtot -1.302
    15   ca     1   MOL   C15   15    -0.015000     12.01000 ; qtot -1.317
    16   ca     1   MOL   C16   16    -0.015000     12.01000 ; qtot -1.332
    17   ha     1   MOL    H1   17     0.133000      1.00800 ; qtot -1.199
    18   ha     1   MOL    H2   18     0.133000      1.00800 ; qtot -1.066
    19   ha     1   MOL    H3   19     0.133500      1.00800 ; qtot -0.932
    20   ha     1   MOL    H4   20     0.133500      1.00800 ; qtot -0.799
    21   ha     1   MOL    H5   21     0.133500      1.00800 ; qtot -0.665
    22   ha     1   MOL    H6   22     0.133500      1.00800 ; qtot -0.532
    23   ha     1   MOL    H7   23     0.133000      1.00800 ; qtot -0.399
    24   ha     1   MOL    H8   24     0.133000      1.00800 ; qtot -0.266
    25   ha     1   MOL    H9   25     0.133000      1.00800 ; qtot -0.133
    26   ha     1   MOL   H10   26     0.133000      1.00800 ; qtot 0.000

[ bonds ]
;   ai     aj funct   r             k
     1      3   1    1.3986e-01    2.9644e+05 ;     C1 - C3    
     1      4   1    1.3986e-01    2.9644e+05 ;     C1 - C4    
     1     17   1    1.0860e-01    3.0183e+05 ;     C1 - H1    
     2      5   1    1.3986e-01    2.9644e+05 ;     C2 - C5    
     2      6   1    1.3986e-01    2.9644e+05 ;     C2 - C6    
     2     18   1    1.0860e-01    3.0183e+05 ;     C2 - H2    
     3     11   1    1.3986e-01    2.9644e+05 ;     C3 - C11   
     3     19   1    1.0860e-01    3.0183e+05 ;     C3 - H3    
     4     12   1    1.3986e-01    2.9644e+05 ;     C4 - C12   
     4     20   1    1.0860e-01    3.0183e+05 ;     C4 - H4    
     5     13   1    1.3986e-01    2.9644e+05 ;     C5 - C13   
     5     21   1    1.0860e-01    3.0183e+05 ;     C5 - H5    
     6     14   1    1.3986e-01    2.9644e+05 ;     C6 - C14   
     6     22   1    1.0860e-01    3.0183e+05 ;     C6 - H6    
     7      9   1    1.3986e-01    2.9644e+05 ;     C7 - C9    
     7     11   1    1.3986e-01    2.9644e+05 ;     C7 - C11   
     7     23   1    1.0860e-01    3.0183e+05 ;     C7 - H7    
     8     10   1    1.3986e-01    2.9644e+05 ;     C8 - C10   
     8     12   1    1.3986e-01    2.9644e+05 ;     C8 - C12   
     8     24   1    1.0860e-01    3.0183e+05 ;     C8 - H8    
     9     13   1    1.3986e-01    2.9644e+05 ;     C9 - C13   
     9     25   1    1.0860e-01    3.0183e+05 ;     C9 - H9    
    10     14   1    1.3986e-01    2.9644e+05 ;    C10 - C14   
    10     26   1    1.0860e-01    3.0183e+05 ;    C10 - H10   
    11     15   1    1.3986e-01    2.9644e+05 ;    C11 - C15   
    12     15   1    1.3986e-01    2.9644e+05 ;    C12 - C15   
    13     16   1    1.3986e-01    2.9644e+05 ;    C13 - C16   
    14     16   1    1.3986e-01    2.9644e+05 ;    C14 - C16   
    15     16   1    1.3986e-01    2.9644e+05 ;    C15 - C16   

[ pairs ]
;   ai     aj    funct
     1      7      1 ;     C1 - C7    
     1      8      1 ;     C1 - C8    
     1     15      1 ;     C1 - C15   
     2      9      1 ;     C2 - C9    
     2     10      1 ;     C2 - C10   
     2     16      1 ;     C2 - C16   
     3      9      1 ;     C3 - C9    
     3     12      1 ;     C3 - C12   
     3     16      1 ;     C3 - C16   
     3     20      1 ;     C3 - H4    
     3     23      1 ;     C3 - H7    
     4     10      1 ;     C4 - C10   
     4     11      1 ;     C4 - C11   
     4     16      1 ;     C4 - C16   
     4     19      1 ;     C4 - H3    
     4     24      1 ;     C4 - H8    
     5      7      1 ;     C5 - C7    
     5     14      1 ;     C5 - C14   
     5     15      1 ;     C5 - C15   
     5     22      1 ;     C5 - H6    
     5     25      1 ;     C5 - H9    
     6      8      1 ;     C6 - C8    
     6     13      1 ;     C6 - C13   
     6     15      1 ;     C6 - C15   
     6     21      1 ;     C6 - H5    
     6     26      1 ;     C6 - H10   
     7     12      1 ;     C7 - C12   
     7     16      1 ;     C7 - C16   
     7     19      1 ;     C7 - H3    
     8     11      1 ;     C8 - C11   
     8     16      1 ;     C8 - C16   
     8     20      1 ;     C8 - H4    
     9     14      1 ;     C9 - C14   
     9     15      1 ;     C9 - C15   
     9     21      1 ;     C9 - H5    
    10     13      1 ;    C10 - C13   
    10     15      1 ;    C10 - C15   
    10     22      1 ;    C10 - H6    
    11     13      1 ;    C11 - C13   
    11     14      1 ;    C11 - C14   
    11     25      1 ;    C11 - H9    
    12     13      1 ;    C12 - C13   
    12     14      1 ;    C12 - C14   
    12     26      1 ;    C12 - H10   
    13     18      1 ;    C13 - H2    
    13     23      1 ;    C13 - H7    
    14     18      1 ;    C14 - H2    
    14     24      1 ;    C14 - H8    
    15     19      1 ;    C15 - H3    
    15     20      1 ;    C15 - H4    
    15     23      1 ;    C15 - H7    
    15     24      1 ;    C15 - H8    
    16     21      1 ;    C16 - H5    
    16     22      1 ;    C16 - H6    
    16     25      1 ;    C16 - H9    
    16     26      1 ;    C16 - H10   
    17     11      1 ;     H1 - C11   
    17     12      1 ;     H1 - C12   
    17     19      1 ;     H1 - H3    
    17     20      1 ;     H1 - H4    
    18     21      1 ;     H2 - H5    
    18     22      1 ;     H2 - H6    
    23     25      1 ;     H7 - H9    
    24     26      1 ;     H8 - H10   

[ angles ]
;   ai     aj     ak    funct   theta         cth
     1      3     11      1    1.2002e+02    5.3279e+02 ;     C1 - C3     - C11   
     1      3     19      1    1.1988e+02    3.7572e+02 ;     C1 - C3     - H3    
     1      4     12      1    1.2002e+02    5.3279e+02 ;     C1 - C4     - C12   
     1      4     20      1    1.1988e+02    3.7572e+02 ;     C1 - C4     - H4    
     2      5     13      1    1.2002e+02    5.3279e+02 ;     C2 - C5     - C13   
     2      5     21      1    1.1988e+02    3.7572e+02 ;     C2 - C5     - H5    
     2      6     14      1    1.2002e+02    5.3279e+02 ;     C2 - C6     - C14   
     2      6     22      1    1.1988e+02    3.7572e+02 ;     C2 - C6     - H6    
     3      1      4      1    1.2002e+02    5.3279e+02 ;     C3 - C1     - C4    
     3      1     17      1    1.1988e+02    3.7572e+02 ;     C3 - C1     - H1    
     3     11      7      1    1.2002e+02    5.3279e+02 ;     C3 - C11    - C7    
     3     11     15      1    1.2002e+02    5.3279e+02 ;     C3 - C11    - C15   
     4      1     17      1    1.1988e+02    3.7572e+02 ;     C4 - C1     - H1    
     4     12      8      1    1.2002e+02    5.3279e+02 ;     C4 - C12    - C8    
     4     12     15      1    1.2002e+02    5.3279e+02 ;     C4 - C12    - C15   
     5      2      6      1    1.2002e+02    5.3279e+02 ;     C5 - C2     - C6    
     5      2     18      1    1.1988e+02    3.7572e+02 ;     C5 - C2     - H2    
     5     13      9      1    1.2002e+02    5.3279e+02 ;     C5 - C13    - C9    
     5     13     16      1    1.2002e+02    5.3279e+02 ;     C5 - C13    - C16   
     6      2     18      1    1.1988e+02    3.7572e+02 ;     C6 - C2     - H2    
     6     14     10      1    1.2002e+02    5.3279e+02 ;     C6 - C14    - C10   
     6     14     16      1    1.2002e+02    5.3279e+02 ;     C6 - C14    - C16   
     7      9     13      1    1.2002e+02    5.3279e+02 ;     C7 - C9     - C13   
     7      9     25      1    1.1988e+02    3.7572e+02 ;     C7 - C9     - H9    
     7     11     15      1    1.2002e+02    5.3279e+02 ;     C7 - C11    - C15   
     8     10     14      1    1.2002e+02    5.3279e+02 ;     C8 - C10    - C14   
     8     10     26      1    1.1988e+02    3.7572e+02 ;     C8 - C10    - H10   
     8     12     15      1    1.2002e+02    5.3279e+02 ;     C8 - C12    - C15   
     9      7     11      1    1.2002e+02    5.3279e+02 ;     C9 - C7     - C11   
     9      7     23      1    1.1988e+02    3.7572e+02 ;     C9 - C7     - H7    
     9     13     16      1    1.2002e+02    5.3279e+02 ;     C9 - C13    - C16   
    10      8     12      1    1.2002e+02    5.3279e+02 ;    C10 - C8     - C12   
    10      8     24      1    1.1988e+02    3.7572e+02 ;    C10 - C8     - H8    
    10     14     16      1    1.2002e+02    5.3279e+02 ;    C10 - C14    - C16   
    11      3     19      1    1.1988e+02    3.7572e+02 ;    C11 - C3     - H3    
    11      7     23      1    1.1988e+02    3.7572e+02 ;    C11 - C7     - H7    
    11     15     12      1    1.2002e+02    5.3279e+02 ;    C11 - C15    - C12   
    11     15     16      1    1.2002e+02    5.3279e+02 ;    C11 - C15    - C16   
    12      4     20      1    1.1988e+02    3.7572e+02 ;    C12 - C4     - H4    
    12      8     24      1    1.1988e+02    3.7572e+02 ;    C12 - C8     - H8    
    12     15     16      1    1.2002e+02    5.3279e+02 ;    C12 - C15    - C16   
    13      5     21      1    1.1988e+02    3.7572e+02 ;    C13 - C5     - H5    
    13      9     25      1    1.1988e+02    3.7572e+02 ;    C13 - C9     - H9    
    13     16     14      1    1.2002e+02    5.3279e+02 ;    C13 - C16    - C14   
    13     16     15      1    1.2002e+02    5.3279e+02 ;    C13 - C16    - C15   
    14      6     22      1    1.1988e+02    3.7572e+02 ;    C14 - C6     - H6    
    14     10     26      1    1.1988e+02    3.7572e+02 ;    C14 - C10    - H10   
    14     16     15      1    1.2002e+02    5.3279e+02 ;    C14 - C16    - C15   

[ dihedrals ] ; propers
; for gromacs 4.5 or higher, using funct 9
;    i      j      k      l   func   phase     kd      pn
     1      3     11      7      9   180.00  15.16700   2 ;     C1-    C3-   C11-    C7
     1      3     11     15      9   180.00  15.16700   2 ;     C1-    C3-   C11-   C15
     1      4     12      8      9   180.00  15.16700   2 ;     C1-    C4-   C12-    C8
     1      4     12     15      9   180.00  15.16700   2 ;     C1-    C4-   C12-   C15
     2      5     13      9      9   180.00  15.16700   2 ;     C2-    C5-   C13-    C9
     2      5     13     16      9   180.00  15.16700   2 ;     C2-    C5-   C13-   C16
     2      6     14     10      9   180.00  15.16700   2 ;     C2-    C6-   C14-   C10
     2      6     14     16      9   180.00  15.16700   2 ;     C2-    C6-   C14-   C16
     3      1      4     12      9   180.00  15.16700   2 ;     C3-    C1-    C4-   C12
     3      1      4     20      9   180.00  15.16700   2 ;     C3-    C1-    C4-    H4
     3     11      7      9      9   180.00  15.16700   2 ;     C3-   C11-    C7-    C9
     3     11      7     23      9   180.00  15.16700   2 ;     C3-   C11-    C7-    H7
     3     11     15     12      9   180.00  15.16700   2 ;     C3-   C11-   C15-   C12
     3     11     15     16      9   180.00  15.16700   2 ;     C3-   C11-   C15-   C16
     4      1      3     11      9   180.00  15.16700   2 ;     C4-    C1-    C3-   C11
     4      1      3     19      9   180.00  15.16700   2 ;     C4-    C1-    C3-    H3
     4     12      8     10      9   180.00  15.16700   2 ;     C4-   C12-    C8-   C10
     4     12      8     24      9   180.00  15.16700   2 ;     C4-   C12-    C8-    H8
     4     12     15     11      9   180.00  15.16700   2 ;     C4-   C12-   C15-   C11
     4     12     15     16      9   180.00  15.16700   2 ;     C4-   C12-   C15-   C16
     5      2      6     14      9   180.00  15.16700   2 ;     C5-    C2-    C6-   C14
     5      2      6     22      9   180.00  15.16700   2 ;     C5-    C2-    C6-    H6
     5     13      9      7      9   180.00  15.16700   2 ;     C5-   C13-    C9-    C7
     5     13      9     25      9   180.00  15.16700   2 ;     C5-   C13-    C9-    H9
     5     13     16     14      9   180.00  15.16700   2 ;     C5-   C13-   C16-   C14
     5     13     16     15      9   180.00  15.16700   2 ;     C5-   C13-   C16-   C15
     6      2      5     13      9   180.00  15.16700   2 ;     C6-    C2-    C5-   C13
     6      2      5     21      9   180.00  15.16700   2 ;     C6-    C2-    C5-    H5
     6     14     10      8      9   180.00  15.16700   2 ;     C6-   C14-   C10-    C8
     6     14     10     26      9   180.00  15.16700   2 ;     C6-   C14-   C10-   H10
     6     14     16     13      9   180.00  15.16700   2 ;     C6-   C14-   C16-   C13
     6     14     16     15      9   180.00  15.16700   2 ;     C6-   C14-   C16-   C15
     7      9     13     16      9   180.00  15.16700   2 ;     C7-    C9-   C13-   C16
     7     11      3     19      9   180.00  15.16700   2 ;     C7-   C11-    C3-    H3
     7     11     15     12      9   180.00  15.16700   2 ;     C7-   C11-   C15-   C12
     7     11     15     16      9   180.00  15.16700   2 ;     C7-   C11-   C15-   C16
     8     10     14     16      9   180.00  15.16700   2 ;     C8-   C10-   C14-   C16
     8     12      4     20      9   180.00  15.16700   2 ;     C8-   C12-    C4-    H4
     8     12     15     11      9   180.00  15.16700   2 ;     C8-   C12-   C15-   C11
     8     12     15     16      9   180.00  15.16700   2 ;     C8-   C12-   C15-   C16
     9      7     11     15      9   180.00  15.16700   2 ;     C9-    C7-   C11-   C15
     9     13      5     21      9   180.00  15.16700   2 ;     C9-   C13-    C5-    H5
     9     13     16     14      9   180.00  15.16700   2 ;     C9-   C13-   C16-   C14
     9     13     16     15      9   180.00  15.16700   2 ;     C9-   C13-   C16-   C15
    10      8     12     15      9   180.00  15.16700   2 ;    C10-    C8-   C12-   C15
    10     14      6     22      9   180.00  15.16700   2 ;    C10-   C14-    C6-    H6
    10     14     16     13      9   180.00  15.16700   2 ;    C10-   C14-   C16-   C13
    10     14     16     15      9   180.00  15.16700   2 ;    C10-   C14-   C16-   C15
    11      7      9     13      9   180.00  15.16700   2 ;    C11-    C7-    C9-   C13
    11      7      9     25      9   180.00  15.16700   2 ;    C11-    C7-    C9-    H9
    11     15     16     13      9   180.00  15.16700   2 ;    C11-   C15-   C16-   C13
    11     15     16     14      9   180.00  15.16700   2 ;    C11-   C15-   C16-   C14
    12      8     10     14      9   180.00  15.16700   2 ;    C12-    C8-   C10-   C14
    12      8     10     26      9   180.00  15.16700   2 ;    C12-    C8-   C10-   H10
    12     15     16     13      9   180.00  15.16700   2 ;    C12-   C15-   C16-   C13
    12     15     16     14      9   180.00  15.16700   2 ;    C12-   C15-   C16-   C14
    13      5      2     18      9   180.00  15.16700   2 ;    C13-    C5-    C2-    H2
    13      9      7     23      9   180.00  15.16700   2 ;    C13-    C9-    C7-    H7
    14      6      2     18      9   180.00  15.16700   2 ;    C14-    C6-    C2-    H2
    14     10      8     24      9   180.00  15.16700   2 ;    C14-   C10-    C8-    H8
    15     11      3     19      9   180.00  15.16700   2 ;    C15-   C11-    C3-    H3
    15     11      7     23      9   180.00  15.16700   2 ;    C15-   C11-    C7-    H7
    15     12      4     20      9   180.00  15.16700   2 ;    C15-   C12-    C4-    H4
    15     12      8     24      9   180.00  15.16700   2 ;    C15-   C12-    C8-    H8
    16     13      5     21      9   180.00  15.16700   2 ;    C16-   C13-    C5-    H5
    16     13      9     25      9   180.00  15.16700   2 ;    C16-   C13-    C9-    H9
    16     14      6     22      9   180.00  15.16700   2 ;    C16-   C14-    C6-    H6
    16     14     10     26      9   180.00  15.16700   2 ;    C16-   C14-   C10-   H10
    17      1      3     11      9   180.00  15.16700   2 ;     H1-    C1-    C3-   C11
    17      1      3     19      9   180.00  15.16700   2 ;     H1-    C1-    C3-    H3
    17      1      4     12      9   180.00  15.16700   2 ;     H1-    C1-    C4-   C12
    17      1      4     20      9   180.00  15.16700   2 ;     H1-    C1-    C4-    H4
    18      2      5     21      9   180.00  15.16700   2 ;     H2-    C2-    C5-    H5
    18      2      6     22      9   180.00  15.16700   2 ;     H2-    C2-    C6-    H6
    23      7      9     25      9   180.00  15.16700   2 ;     H7-    C7-    C9-    H9
    24      8     10     26      9   180.00  15.16700   2 ;     H8-    C8-   C10-   H10

[ dihedrals ] ; impropers
; treated as propers in GROMACS to use correct AMBER analytical function
;    i      j      k      l   func   phase     kd      pn
     1     11      3     19      4   180.00   4.60240   2 ;     C1-   C11-    C3-    H3
     1     12      4     20      4   180.00   4.60240   2 ;     C1-   C12-    C4-    H4
     2     13      5     21      4   180.00   4.60240   2 ;     C2-   C13-    C5-    H5
     2     14      6     22      4   180.00   4.60240   2 ;     C2-   C14-    C6-    H6
     3      7     11     15      4   180.00   4.60240   2 ;     C3-    C7-   C11-   C15
     4      8     12     15      4   180.00   4.60240   2 ;     C4-    C8-   C12-   C15
     5      6      2     18      4   180.00   4.60240   2 ;     C5-    C6-    C2-    H2
     5      9     13     16      4   180.00   4.60240   2 ;     C5-    C9-   C13-   C16
     6     10     14     16      4   180.00   4.60240   2 ;     C6-   C10-   C14-   C16
     7     13      9     25      4   180.00   4.60240   2 ;     C7-   C13-    C9-    H9
     8     14     10     26      4   180.00   4.60240   2 ;     C8-   C14-   C10-   H10
     9     11      7     23      4   180.00   4.60240   2 ;     C9-   C11-    C7-    H7
    10     12      8     24      4   180.00   4.60240   2 ;    C10-   C12-    C8-    H8
    11     12     15     16      4   180.00   4.60240   2 ;    C11-   C12-   C15-   C16
    13     14     16     15      4   180.00   4.60240   2 ;    C13-   C14-   C16-   C15
    17      1      4      3      4   180.00   4.60240   2 ;     H1-    C1-    C4-    C3
