; mobley_1144156_GMX.itp created by acpype (v: 2023.10.27) on Thu May 21 00:08:21 2026

[ atomtypes ]
;name   bond_type     mass     charge   ptype   sigma         epsilon       Amb
 c3       c3          0.00000  0.00000   A     3.39771e-01   4.51035e-01 ; 1.91  0.1078
 os       os          0.00000  0.00000   A     3.15610e-01   3.03758e-01 ; 1.77  0.0726
 hc       hc          0.00000  0.00000   A     2.60018e-01   8.70272e-02 ; 1.46  0.0208
 h1       h1          0.00000  0.00000   A     2.42200e-01   8.70272e-02 ; 1.36  0.0208

[ moleculetype ]
;name            nrexcl
 mobley_1144156   3

[ atoms ]
;   nr  type  resi  res  atom  cgnr     charge      mass       ; qtot   bond_type
     1   c3     1   MOL    C1    1    -0.096100     12.01000 ; qtot -0.096
     2   c3     1   MOL    C2    2    -0.096100     12.01000 ; qtot -0.192
     3   c3     1   MOL    C3    3     0.130400     12.01000 ; qtot -0.062
     4   c3     1   MOL    C4    4     0.130400     12.01000 ; qtot 0.069
     5   os     1   MOL    O1    5    -0.427600     16.00000 ; qtot -0.359
     6   hc     1   MOL    H1    6     0.044700      1.00800 ; qtot -0.314
     7   hc     1   MOL    H2    7     0.044700      1.00800 ; qtot -0.270
     8   hc     1   MOL    H3    8     0.044700      1.00800 ; qtot -0.225
     9   hc     1   MOL    H4    9     0.044700      1.00800 ; qtot -0.180
    10   hc     1   MOL    H5   10     0.044700      1.00800 ; qtot -0.135
    11   hc     1   MOL    H6   11     0.044700      1.00800 ; qtot -0.091
    12   h1     1   MOL    H7   12     0.022700      1.00800 ; qtot -0.068
    13   h1     1   MOL    H8   13     0.022700      1.00800 ; qtot -0.045
    14   h1     1   MOL    H9   14     0.022700      1.00800 ; qtot -0.023
    15   h1     1   MOL   H10   15     0.022700      1.00800 ; qtot 0.000

[ bonds ]
;   ai     aj funct   r             k
     1      3   1    1.5354e-01    1.9154e+05 ;     C1 - C3    
     1      6   1    1.0962e-01    2.8891e+05 ;     C1 - H1    
     1      7   1    1.0962e-01    2.8891e+05 ;     C1 - H2    
     1      8   1    1.0962e-01    2.8891e+05 ;     C1 - H3    
     2      4   1    1.5354e-01    1.9154e+05 ;     C2 - C4    
     2      9   1    1.0962e-01    2.8891e+05 ;     C2 - H4    
     2     10   1    1.0962e-01    2.8891e+05 ;     C2 - H5    
     2     11   1    1.0962e-01    2.8891e+05 ;     C2 - H6    
     3      5   1    1.4273e-01    2.3620e+05 ;     C3 - O1    
     3     12   1    1.0969e-01    2.8804e+05 ;     C3 - H7    
     3     13   1    1.0969e-01    2.8804e+05 ;     C3 - H8    
     4      5   1    1.4273e-01    2.3620e+05 ;     C4 - O1    
     4     14   1    1.0969e-01    2.8804e+05 ;     C4 - H9    
     4     15   1    1.0969e-01    2.8804e+05 ;     C4 - H10   

[ pairs ]
;   ai     aj    funct
     1      4      1 ;     C1 - C4    
     2      3      1 ;     C2 - C3    
     3     14      1 ;     C3 - H9    
     3     15      1 ;     C3 - H10   
     4     12      1 ;     C4 - H7    
     4     13      1 ;     C4 - H8    
     5      9      1 ;     O1 - H4    
     5     10      1 ;     O1 - H5    
     5     11      1 ;     O1 - H6    
     6      5      1 ;     H1 - O1    
     6     12      1 ;     H1 - H7    
     6     13      1 ;     H1 - H8    
     7      5      1 ;     H2 - O1    
     7     12      1 ;     H2 - H7    
     7     13      1 ;     H2 - H8    
     8      5      1 ;     H3 - O1    
     8     12      1 ;     H3 - H7    
     8     13      1 ;     H3 - H8    
     9     14      1 ;     H4 - H9    
     9     15      1 ;     H4 - H10   
    10     14      1 ;     H5 - H9    
    10     15      1 ;     H5 - H10   
    11     14      1 ;     H6 - H9    
    11     15      1 ;     H6 - H10   

[ angles ]
;   ai     aj     ak    funct   theta         cth
     1      3      5      1    1.0762e+02    6.4802e+02 ;     C1 - C3     - O1    
     1      3     12      1    1.0959e+02    3.6217e+02 ;     C1 - C3     - H7    
     1      3     13      1    1.0959e+02    3.6217e+02 ;     C1 - C3     - H8    
     2      4      5      1    1.0762e+02    6.4802e+02 ;     C2 - C4     - O1    
     2      4     14      1    1.0959e+02    3.6217e+02 ;     C2 - C4     - H9    
     2      4     15      1    1.0959e+02    3.6217e+02 ;     C2 - C4     - H10   
     3      1      6      1    1.0968e+02    3.6208e+02 ;     C3 - C1     - H1    
     3      1      7      1    1.0968e+02    3.6208e+02 ;     C3 - C1     - H2    
     3      1      8      1    1.0968e+02    3.6208e+02 ;     C3 - C1     - H3    
     3      5      4      1    1.1360e+02    7.3915e+02 ;     C3 - O1     - C4    
     4      2      9      1    1.0968e+02    3.6208e+02 ;     C4 - C2     - H4    
     4      2     10      1    1.0968e+02    3.6208e+02 ;     C4 - C2     - H5    
     4      2     11      1    1.0968e+02    3.6208e+02 ;     C4 - C2     - H6    
     5      3     12      1    1.1034e+02    4.7028e+02 ;     O1 - C3     - H7    
     5      3     13      1    1.1034e+02    4.7028e+02 ;     O1 - C3     - H8    
     5      4     14      1    1.1034e+02    4.7028e+02 ;     O1 - C4     - H9    
     5      4     15      1    1.1034e+02    4.7028e+02 ;     O1 - C4     - H10   
     6      1      7      1    1.0773e+02    2.9957e+02 ;     H1 - C1     - H2    
     6      1      8      1    1.0773e+02    2.9957e+02 ;     H1 - C1     - H3    
     7      1      8      1    1.0773e+02    2.9957e+02 ;     H2 - C1     - H3    
     9      2     10      1    1.0773e+02    2.9957e+02 ;     H4 - C2     - H5    
     9      2     11      1    1.0773e+02    2.9957e+02 ;     H4 - C2     - H6    
    10      2     11      1    1.0773e+02    2.9957e+02 ;     H5 - C2     - H6    
    12      3     13      1    1.0855e+02    2.9824e+02 ;     H7 - C3     - H8    
    14      4     15      1    1.0855e+02    2.9824e+02 ;     H9 - C4     - H10   

[ dihedrals ] ; propers
; for gromacs 4.5 or higher, using funct 9
;    i      j      k      l   func   phase     kd      pn
     1      3      5      4      9     0.00   0.33472   2 ;     C1-    C3-    O1-    C4
     1      3      5      4      9     0.00   3.13800   3 ;     C1-    C3-    O1-    C4
     1      3      5      4      9   180.00   3.68192   1 ;     C1-    C3-    O1-    C4
     2      4      5      3      9     0.00   0.33472   2 ;     C2-    C4-    O1-    C3
     2      4      5      3      9     0.00   3.13800   3 ;     C2-    C4-    O1-    C3
     2      4      5      3      9   180.00   3.68192   1 ;     C2-    C4-    O1-    C3
     3      5      4     14      9     0.00   1.41001   3 ;     C3-    O1-    C4-    H9
     3      5      4     15      9     0.00   1.41001   3 ;     C3-    O1-    C4-   H10
     4      5      3     12      9     0.00   1.41001   3 ;     C4-    O1-    C3-    H7
     4      5      3     13      9     0.00   1.41001   3 ;     C4-    O1-    C3-    H8
     5      4      2      9      9     0.00   0.00000   0 ;     O1-    C4-    C2-    H4
     5      4      2      9      9     0.00   1.04600   1 ;     O1-    C4-    C2-    H4
     5      4      2     10      9     0.00   0.00000   0 ;     O1-    C4-    C2-    H5
     5      4      2     10      9     0.00   1.04600   1 ;     O1-    C4-    C2-    H5
     5      4      2     11      9     0.00   0.00000   0 ;     O1-    C4-    C2-    H6
     5      4      2     11      9     0.00   1.04600   1 ;     O1-    C4-    C2-    H6
     6      1      3      5      9     0.00   0.00000   0 ;     H1-    C1-    C3-    O1
     6      1      3      5      9     0.00   1.04600   1 ;     H1-    C1-    C3-    O1
     6      1      3     12      9     0.00   0.65084   3 ;     H1-    C1-    C3-    H7
     6      1      3     13      9     0.00   0.65084   3 ;     H1-    C1-    C3-    H8
     7      1      3      5      9     0.00   0.00000   0 ;     H2-    C1-    C3-    O1
     7      1      3      5      9     0.00   1.04600   1 ;     H2-    C1-    C3-    O1
     7      1      3     12      9     0.00   0.65084   3 ;     H2-    C1-    C3-    H7
     7      1      3     13      9     0.00   0.65084   3 ;     H2-    C1-    C3-    H8
     8      1      3      5      9     0.00   0.00000   0 ;     H3-    C1-    C3-    O1
     8      1      3      5      9     0.00   1.04600   1 ;     H3-    C1-    C3-    O1
     8      1      3     12      9     0.00   0.65084   3 ;     H3-    C1-    C3-    H7
     8      1      3     13      9     0.00   0.65084   3 ;     H3-    C1-    C3-    H8
     9      2      4     14      9     0.00   0.65084   3 ;     H4-    C2-    C4-    H9
     9      2      4     15      9     0.00   0.65084   3 ;     H4-    C2-    C4-   H10
    10      2      4     14      9     0.00   0.65084   3 ;     H5-    C2-    C4-    H9
    10      2      4     15      9     0.00   0.65084   3 ;     H5-    C2-    C4-   H10
    11      2      4     14      9     0.00   0.65084   3 ;     H6-    C2-    C4-    H9
    11      2      4     15      9     0.00   0.65084   3 ;     H6-    C2-    C4-   H10
