mobley_468867_GMX.gro created by acpype (v: 2023.10.27) on Wed May 20 23:46:56 2026
 2401
    1MOL     C1    1   2.408   2.470   2.201
    1MOL     C2    2   2.519   2.395   2.200
    1MOL     C3    3   2.336   2.462   2.487
    1MOL     C4    4   2.389   2.343   2.516
    1MOL     C5    5   2.289   2.394   2.251
    1MOL     C6    6   2.497   2.255   2.248
    1MOL     C7    7   2.348   2.252   2.285
    1MOL     C8    8   2.224   2.438   2.387
    1MOL     C9    9   2.313   2.238   2.437
    1MOL    C10   10   2.170   2.303   2.442
    1MOL    CL1   11   2.385   2.615   2.541
    1MOL    CL2   12   2.520   2.310   2.618
    1MOL    CL3   13   2.531   2.144   2.113
    1MOL    CL4   14   2.106   2.567   2.369
    1MOL    CL5   15   2.324   2.073   2.496
    1MOL    CL6   16   2.097   2.312   2.607
    1MOL    CL7   17   2.047   2.223   2.338
    1MOL     H1   18   2.404   2.574   2.169
    1MOL     H2   19   2.616   2.431   2.168
    1MOL     H3   20   2.215   2.385   2.171
    1MOL     H4   21   2.564   2.229   2.330
    1MOL     H5   22   2.295   2.175   2.228
   14SOL     OW   23   1.460   1.505   1.339
   14SOL    HW1   24   1.484   1.599   1.365
   14SOL    HW2   25   1.444   1.451   1.421
   18SOL     OW   26   1.127   1.341   1.690
   18SOL    HW1   27   1.174   1.341   1.778
   18SOL    HW2   28   1.079   1.254   1.679
   31SOL     OW   29   1.293   1.228   1.423
   31SOL    HW1   30   1.330   1.155   1.365
   31SOL    HW2   31   1.345   1.233   1.508
   35SOL     OW   32   1.187   1.792   1.616
   35SOL    HW1   33   1.211   1.852   1.540
   35SOL    HW2   34   1.194   1.697   1.586
   56SOL     OW   35   1.227   1.550   1.506
   56SOL    HW1   36   1.233   1.473   1.570
   56SOL    HW2   37   1.175   1.524   1.426
   95SOL     OW   38   1.754   1.223   1.588
   95SOL    HW1   39   1.845   1.184   1.575
   95SOL    HW2   40   1.762   1.319   1.612
   97SOL     OW   41   1.592   1.629   1.625
   97SOL    HW1   42   1.619   1.663   1.535
   97SOL    HW2   43   1.671   1.591   1.671
  122SOL     OW   44   1.728   0.935   1.854
  122SOL    HW1   45   1.682   0.928   1.765
  122SOL    HW2   46   1.666   0.979   1.920
  126SOL     OW   47   0.980   1.573   1.700
  126SOL    HW1   48   0.960   1.617   1.612
  126SOL    HW2   49   1.019   1.482   1.684
  127SOL     OW   50   1.859   1.518   1.605
  127SOL    HW1   51   1.873   1.545   1.510
  127SOL    HW2   52   1.942   1.540   1.658
  147SOL     OW   53   0.930   1.678   1.465
  147SOL    HW1   54   0.906   1.660   1.370
  147SOL    HW2   55   0.960   1.772   1.475
  152SOL     OW   56   1.759   1.747   1.154
  152SOL    HW1   57   1.820   1.777   1.081
  152SOL    HW2   58   1.721   1.658   1.132
  153SOL     OW   59   1.252   1.731   1.128
  153SOL    HW1   60   1.336   1.736   1.074
  153SOL    HW2   61   1.229   1.635   1.146
  163SOL     OW   62   1.650   1.720   1.394
  163SOL    HW1   63   1.703   1.730   1.310
  163SOL    HW2   64   1.623   1.810   1.428
  171SOL     OW   65   1.614   1.292   1.289
  171SOL    HW1   66   1.674   1.295   1.369
  171SOL    HW2   67   1.539   1.356   1.302
  184SOL     OW   68   1.493   1.767   0.959
  184SOL    HW1   69   1.526   1.831   0.890
  184SOL    HW2   70   1.559   1.761   1.034
  186SOL     OW   71   1.450   1.220   1.633
  186SOL    HW1   72   1.441   1.210   1.732
  186SOL    HW2   73   1.546   1.213   1.607
  192SOL     OW   74   1.730   0.934   1.517
  192SOL    HW1   75   1.768   1.025   1.532
  192SOL    HW2   76   1.722   0.917   1.418
  197SOL     OW   77   1.861   1.569   0.851
  197SOL    HW1   78   1.790   1.557   0.781
  197SOL    HW2   79   1.862   1.490   0.911
  203SOL     OW   80   1.705   1.487   1.104
  203SOL    HW1   81   1.612   1.462   1.077
  203SOL    HW2   82   1.731   1.437   1.186
  219SOL     OW   83   1.555   1.511   2.565
  219SOL    HW1   84   1.498   1.495   2.646
  219SOL    HW2   85   1.496   1.521   2.485
  227SOL     OW   86   1.460   1.505   3.201
  227SOL    HW1   87   1.484   1.599   3.227
  227SOL    HW2   88   1.444   1.451   3.283
  238SOL     OW   89   1.842   1.767   2.221
  238SOL    HW1   90   1.896   1.738   2.301
  238SOL    HW2   91   1.872   1.857   2.192
  240SOL     OW   92   1.689   0.922   2.474
  240SOL    HW1   93   1.784   0.893   2.482
  240SOL    HW2   94   1.681   0.987   2.399
  241SOL     OW   95   1.641   1.108   2.294
  241SOL    HW1   96   1.727   1.110   2.242
  241SOL    HW2   97   1.655   1.155   2.382
  244SOL     OW   98   1.293   1.228   3.285
  244SOL    HW1   99   1.330   1.155   3.227
  244SOL    HW2  100   1.345   1.233   3.370
  247SOL     OW  101   1.525   0.999   2.052
  247SOL    HW1  102   1.462   0.923   2.065
  247SOL    HW2  103   1.573   1.017   2.138
  248SOL     OW  104   1.187   1.792   3.478
  248SOL    HW1  105   1.211   1.852   3.402
  248SOL    HW2  106   1.194   1.697   3.448
  250SOL     OW  107   1.466   1.417   2.815
  250SOL    HW1  108   1.407   1.423   2.895
  250SOL    HW2  109   1.451   1.329   2.769
  251SOL     OW  110   1.667   1.714   2.434
  251SOL    HW1  111   1.626   1.691   2.346
  251SOL    HW2  112   1.649   1.640   2.499
  254SOL     OW  113   1.576   1.662   2.169
  254SOL    HW1  114   1.665   1.708   2.172
  254SOL    HW2  115   1.555   1.638   2.074
  264SOL     OW  116   1.362   1.144   2.407
  264SOL    HW1  117   1.445   1.115   2.359
  264SOL    HW2  118   1.313   1.211   2.351
  266SOL     OW  119   1.008   1.456   2.339
  266SOL    HW1  120   0.962   1.528   2.287
  266SOL    HW2  121   1.004   1.476   2.437
  268SOL     OW  122   1.795   1.066   2.735
  268SOL    HW1  123   1.733   1.051   2.659
  268SOL    HW2  124   1.743   1.077   2.820
  269SOL     OW  125   1.227   1.550   3.368
  269SOL    HW1  126   1.233   1.473   3.432
  269SOL    HW2  127   1.175   1.524   3.288
  273SOL     OW  128   1.111   1.776   2.099
  273SOL    HW1  129   1.051   1.714   2.149
  273SOL    HW2  130   1.142   1.732   2.014
  275SOL     OW  131   1.632   1.377   1.943
  275SOL    HW1  132   1.600   1.471   1.933
  275SOL    HW2  133   1.556   1.314   1.931
  279SOL     OW  134   0.940   1.698   2.766
  279SOL    HW1  135   1.020   1.641   2.787
  279SOL    HW2  136   0.891   1.658   2.689
  289SOL     OW  137   1.434   1.188   1.903
  289SOL    HW1  138   1.466   1.112   1.960
  289SOL    HW2  139   1.342   1.215   1.933
  293SOL     OW  140   1.227   1.570   2.655
  293SOL    HW1  141   1.248   1.644   2.590
  293SOL    HW2  142   1.295   1.570   2.728
  295SOL     OW  143   1.271   1.797   2.453
  295SOL    HW1  144   1.315   1.861   2.389
  295SOL    HW2  145   1.221   1.849   2.523
  301SOL     OW  146   1.429   1.173   2.729
  301SOL    HW1  147   1.374   1.089   2.722
  301SOL    HW2  148   1.455   1.202   2.637
  303SOL     OW  149   1.857   0.833   2.239
  303SOL    HW1  150   1.899   0.769   2.303
  303SOL    HW2  151   1.819   0.782   2.161
  305SOL     OW  152   1.664   1.280   2.519
  305SOL    HW1  153   1.763   1.288   2.533
  305SOL    HW2  154   1.619   1.364   2.550
  308SOL     OW  155   1.754   1.223   3.450
  308SOL    HW1  156   1.845   1.184   3.437
  308SOL    HW2  157   1.762   1.319   3.474
  310SOL     OW  158   1.592   1.629   3.487
  310SOL    HW1  159   1.619   1.663   3.397
  310SOL    HW2  160   1.671   1.591   3.533
  311SOL     OW  161   1.111   1.195   2.962
  311SOL    HW1  162   1.071   1.239   3.043
  311SOL    HW2  163   1.070   1.232   2.879
  312SOL     OW  164   1.638   1.099   2.941
  312SOL    HW1  165   1.643   1.180   3.000
  312SOL    HW2  166   1.552   1.101   2.890
  321SOL     OW  167   1.252   1.348   2.250
  321SOL    HW1  168   1.302   1.425   2.290
  321SOL    HW2  169   1.157   1.350   2.282
  322SOL     OW  170   1.272   1.445   3.004
  322SOL    HW1  171   1.319   1.458   3.091
  322SOL    HW2  172   1.206   1.371   3.013
  340SOL     OW  173   1.859   1.518   3.467
  340SOL    HW1  174   1.873   1.545   3.372
  340SOL    HW2  175   1.942   1.540   3.520
  344SOL     OW  176   1.068   1.333   2.711
  344SOL    HW1  177   1.075   1.249   2.656
  344SOL    HW2  178   1.130   1.402   2.675
  363SOL     OW  179   1.347   1.059   3.096
  363SOL    HW1  180   1.371   0.996   3.022
  363SOL    HW2  181   1.257   1.099   3.078
  365SOL     OW  182   1.759   1.747   3.016
  365SOL    HW1  183   1.820   1.777   2.943
  365SOL    HW2  184   1.721   1.658   2.994
  366SOL     OW  185   1.252   1.731   2.990
  366SOL    HW1  186   1.336   1.736   2.936
  366SOL    HW2  187   1.229   1.635   3.008
  370SOL     OW  188   1.388   1.573   2.339
  370SOL    HW1  189   1.455   1.585   2.265
  370SOL    HW2  190   1.348   1.662   2.362
  372SOL     OW  191   1.280   0.927   2.534
  372SOL    HW1  192   1.340   0.846   2.536
  372SOL    HW2  193   1.320   0.996   2.474
  375SOL     OW  194   1.650   1.720   3.256
  375SOL    HW1  195   1.703   1.730   3.172
  375SOL    HW2  196   1.623   1.810   3.290
  378SOL     OW  197   1.194   1.612   1.893
  378SOL    HW1  198   1.200   1.519   1.930
  378SOL    HW2  199   1.135   1.612   1.813
  381SOL     OW  200   1.504   1.607   1.906
  381SOL    HW1  201   1.412   1.644   1.913
  381SOL    HW2  202   1.542   1.627   1.816
  383SOL     OW  203   1.614   1.292   3.151
  383SOL    HW1  204   1.674   1.295   3.231
  383SOL    HW2  205   1.539   1.356   3.164
  394SOL     OW  206   1.183   1.335   1.981
  394SOL    HW1  207   1.084   1.324   1.983
  394SOL    HW2  208   1.217   1.350   2.074
  396SOL     OW  209   1.493   1.767   2.821
  396SOL    HW1  210   1.526   1.831   2.752
  396SOL    HW2  211   1.559   1.761   2.896
  400SOL     OW  212   1.674   0.883   3.116
  400SOL    HW1  213   1.647   0.794   3.079
  400SOL    HW2  214   1.675   0.951   3.043
  409SOL     OW  215   1.861   1.569   2.713
  409SOL    HW1  216   1.790   1.557   2.643
  409SOL    HW2  217   1.862   1.490   2.773
  415SOL     OW  218   1.705   1.487   2.966
  415SOL    HW1  219   1.612   1.462   2.939
  415SOL    HW2  220   1.731   1.437   3.048
  417SOL     OW  221   0.812   1.586   2.549
  417SOL    HW1  222   0.844   1.596   2.455
  417SOL    HW2  223   0.733   1.524   2.551
  426SOL     OW  224   0.875   1.646   2.199
  426SOL    HW1  225   0.798   1.611   2.145
  426SOL    HW2  226   0.843   1.717   2.261
  540SOL     OW  227   0.850   2.660   1.823
  540SOL    HW1  228   0.846   2.736   1.888
  540SOL    HW2  229   0.872   2.696   1.732
  544SOL     OW  230   1.460   3.367   1.339
  544SOL    HW1  231   1.484   3.461   1.365
  544SOL    HW2  232   1.444   3.313   1.421
  546SOL     OW  233   1.603   2.309   0.737
  546SOL    HW1  234   1.529   2.355   0.687
  546SOL    HW2  235   1.654   2.377   0.790
  548SOL     OW  236   1.127   3.203   1.690
  548SOL    HW1  237   1.174   3.203   1.778
  548SOL    HW2  238   1.079   3.116   1.679
  553SOL     OW  239   1.594   1.976   1.480
  553SOL    HW1  240   1.576   2.043   1.408
  553SOL    HW2  241   1.591   2.022   1.569
  561SOL     OW  242   1.293   3.090   1.423
  561SOL    HW1  243   1.330   3.017   1.365
  561SOL    HW2  244   1.345   3.095   1.508
  570SOL     OW  245   1.281   2.207   0.944
  570SOL    HW1  246   1.195   2.157   0.931
  570SOL    HW2  247   1.343   2.153   1.000
  572SOL     OW  248   0.807   2.467   1.465
  572SOL    HW1  249   0.760   2.464   1.554
  572SOL    HW2  250   0.756   2.412   1.399
  573SOL     OW  251   1.394   2.331   1.674
  573SOL    HW1  252   1.374   2.374   1.762
  573SOL    HW2  253   1.472   2.269   1.683
  574SOL     OW  254   0.973   2.752   1.572
  574SOL    HW1  255   1.019   2.668   1.543
  574SOL    HW2  256   0.917   2.786   1.497
  575SOL     OW  257   0.991   2.272   1.242
  575SOL    HW1  258   0.914   2.306   1.296
  575SOL    HW2  259   0.957   2.221   1.163
  580SOL     OW  260   1.719   2.447   1.831
  580SOL    HW1  261   1.693   2.536   1.795
  580SOL    HW2  262   1.717   2.379   1.758
  585SOL     OW  263   1.795   2.928   0.873
  585SOL    HW1  264   1.733   2.913   0.797
  585SOL    HW2  265   1.743   2.939   0.958
  586SOL     OW  266   1.227   3.412   1.506
  586SOL    HW1  267   1.233   3.335   1.570
  586SOL    HW2  268   1.175   3.386   1.426
  598SOL     OW  269   1.547   2.084   1.729
  598SOL    HW1  270   1.542   2.121   1.821
  598SOL    HW2  271   1.475   2.015   1.717
  599SOL     OW  272   0.781   2.126   1.749
  599SOL    HW1  273   0.848   2.065   1.792
  599SOL    HW2  274   0.708   2.145   1.814
  601SOL     OW  275   1.351   2.452   1.433
  601SOL    HW1  276   1.379   2.409   1.518
  601SOL    HW2  277   1.376   2.548   1.434
  608SOL     OW  278   1.076   2.545   1.464
  608SOL    HW1  279   0.996   2.484   1.467
  608SOL    HW2  280   1.157   2.492   1.440
  618SOL     OW  281   1.466   2.452   0.992
  618SOL    HW1  282   1.436   2.357   0.999
  618SOL    HW2  283   1.539   2.468   1.058
  624SOL     OW  284   1.754   3.085   1.588
  624SOL    HW1  285   1.845   3.046   1.575
  624SOL    HW2  286   1.762   3.181   1.612
  626SOL     OW  287   1.592   3.491   1.625
  626SOL    HW1  288   1.619   3.525   1.535
  626SOL    HW2  289   1.671   3.453   1.671
  628SOL     OW  290   1.638   2.961   1.079
  628SOL    HW1  291   1.643   3.042   1.138
  628SOL    HW2  292   1.552   2.963   1.028
  629SOL     OW  293   0.915   1.951   1.402
  629SOL    HW1  294   0.940   1.931   1.307
  629SOL    HW2  295   0.987   2.007   1.444
  630SOL     OW  296   0.980   2.978   1.719
  630SOL    HW1  297   0.881   2.984   1.729
  630SOL    HW2  298   1.003   2.898   1.663
  633SOL     OW  299   1.274   2.248   1.262
  633SOL    HW1  300   1.295   2.322   1.326
  633SOL    HW2  301   1.185   2.265   1.219
  642SOL     OW  302   1.587   2.641   1.670
  642SOL    HW1  303   1.495   2.679   1.665
  642SOL    HW2  304   1.647   2.688   1.605
  643SOL     OW  305   1.013   1.967   1.770
  643SOL    HW1  306   1.019   2.052   1.718
  643SOL    HW2  307   1.045   1.891   1.713
  646SOL     OW  308   1.360   2.724   1.045
  646SOL    HW1  309   1.285   2.724   0.979
  646SOL    HW2  310   1.397   2.632   1.054
  651SOL     OW  311   1.728   2.797   1.854
  651SOL    HW1  312   1.682   2.790   1.765
  651SOL    HW2  313   1.666   2.841   1.920
  656SOL     OW  314   1.859   3.380   1.605
  656SOL    HW1  315   1.873   3.407   1.510
  656SOL    HW2  316   1.942   3.402   1.658
  663SOL     OW  317   1.138   2.242   1.678
  663SOL    HW1  318   1.093   2.305   1.742
  663SOL    HW2  319   1.231   2.273   1.661
  664SOL     OW  320   1.160   2.069   1.477
  664SOL    HW1  321   1.160   2.133   1.554
  664SOL    HW2  322   1.188   2.117   1.394
  668SOL     OW  323   1.002   2.658   1.238
  668SOL    HW1  324   1.043   2.626   1.324
  668SOL    HW2  325   0.906   2.631   1.235
  671SOL     OW  326   1.369   2.812   1.660
  671SOL    HW1  327   1.408   2.901   1.680
  671SOL    HW2  328   1.379   2.792   1.563
  673SOL     OW  329   1.657   2.466   1.206
  673SOL    HW1  330   1.619   2.397   1.268
  673SOL    HW2  331   1.739   2.430   1.162
  679SOL     OW  332   1.347   2.921   1.234
  679SOL    HW1  333   1.371   2.858   1.160
  679SOL    HW2  334   1.257   2.961   1.216
  692SOL     OW  335   1.650   3.582   1.394
  692SOL    HW1  336   1.703   3.592   1.310
  692SOL    HW2  337   1.623   3.672   1.428
  693SOL     OW  338   1.841   2.037   0.963
  693SOL    HW1  339   1.880   1.952   0.927
  693SOL    HW2  340   1.743   2.039   0.944
  700SOL     OW  341   1.614   3.154   1.289
  700SOL    HW1  342   1.674   3.157   1.369
  700SOL    HW2  343   1.539   3.218   1.302
  704SOL     OW  344   1.709   2.247   1.381
  704SOL    HW1  345   1.782   2.316   1.385
  704SOL    HW2  346   1.737   2.172   1.322
  709SOL     OW  347   1.440   2.718   1.398
  709SOL    HW1  348   1.383   2.770   1.335
  709SOL    HW2  349   1.536   2.730   1.374
  714SOL     OW  350   0.716   2.427   1.708
  714SOL    HW1  351   0.735   2.492   1.782
  714SOL    HW2  352   0.776   2.347   1.717
  715SOL     OW  353   1.450   3.082   1.633
  715SOL    HW1  354   1.441   3.072   1.732
  715SOL    HW2  355   1.546   3.075   1.607
  717SOL     OW  356   1.674   2.745   1.254
  717SOL    HW1  357   1.647   2.656   1.217
  717SOL    HW2  358   1.675   2.813   1.181
  720SOL     OW  359   1.777   2.204   1.642
  720SOL    HW1  360   1.760   2.235   1.548
  720SOL    HW2  361   1.693   2.167   1.680
  721SOL     OW  362   1.730   2.796   1.517
  721SOL    HW1  363   1.768   2.887   1.532
  721SOL    HW2  364   1.722   2.779   1.418
  730SOL     OW  365   1.824   2.054   1.227
  730SOL    HW1  366   1.820   1.964   1.271
  730SOL    HW2  367   1.827   2.043   1.128
  732SOL     OW  368   1.705   3.349   1.104
  732SOL    HW1  369   1.612   3.324   1.077
  732SOL    HW2  370   1.731   3.299   1.186
  735SOL     OW  371   1.424   2.076   1.112
  735SOL    HW1  372   1.476   2.011   1.167
  735SOL    HW2  373   1.375   2.139   1.173
  741SOL     OW  374   1.593   2.083   0.882
  741SOL    HW1  375   1.509   2.082   0.936
  741SOL    HW2  376   1.595   2.166   0.826
  748SOL     OW  377   1.555   3.373   2.565
  748SOL    HW1  378   1.498   3.357   2.646
  748SOL    HW2  379   1.496   3.383   2.485
  749SOL     OW  380   1.135   2.565   2.579
  749SOL    HW1  381   1.192   2.643   2.554
  749SOL    HW2  382   1.075   2.591   2.655
  750SOL     OW  383   1.755   2.469   2.093
  750SOL    HW1  384   1.743   2.456   1.994
  750SOL    HW2  385   1.725   2.388   2.142
  751SOL     OW  386   0.768   3.006   2.885
  751SOL    HW1  387   0.690   3.023   2.945
  751SOL    HW2  388   0.802   3.093   2.849
  753SOL     OW  389   0.685   2.874   2.527
  753SOL    HW1  390   0.754   2.858   2.597
  753SOL    HW2  391   0.612   2.931   2.565
  756SOL     OW  392   1.460   3.367   3.201
  756SOL    HW1  393   1.484   3.461   3.227
  756SOL    HW2  394   1.444   3.313   3.283
  758SOL     OW  395   1.603   2.309   2.599
  758SOL    HW1  396   1.529   2.355   2.549
  758SOL    HW2  397   1.654   2.377   2.652
  765SOL     OW  398   1.594   1.976   3.342
  765SOL    HW1  399   1.576   2.043   3.270
  765SOL    HW2  400   1.591   2.022   3.431
  767SOL     OW  401   1.842   3.629   2.221
  767SOL    HW1  402   1.896   3.600   2.301
  767SOL    HW2  403   1.872   3.719   2.192
  769SOL     OW  404   1.689   2.784   2.474
  769SOL    HW1  405   1.784   2.755   2.482
  769SOL    HW2  406   1.681   2.849   2.399
  770SOL     OW  407   1.641   2.970   2.294
  770SOL    HW1  408   1.727   2.972   2.242
  770SOL    HW2  409   1.655   3.017   2.382
  773SOL     OW  410   1.293   3.090   3.285
  773SOL    HW1  411   1.330   3.017   3.227
  773SOL    HW2  412   1.345   3.095   3.370
  774SOL     OW  413   0.809   1.866   2.364
  774SOL    HW1  414   0.849   1.957   2.355
  774SOL    HW2  415   0.709   1.874   2.370
  776SOL     OW  416   1.525   2.861   2.052
  776SOL    HW1  417   1.462   2.785   2.065
  776SOL    HW2  418   1.573   2.879   2.138
  779SOL     OW  419   1.466   3.279   2.815
  779SOL    HW1  420   1.407   3.285   2.895
  779SOL    HW2  421   1.451   3.191   2.769
  780SOL     OW  422   1.667   3.576   2.434
  780SOL    HW1  423   1.626   3.553   2.346
  780SOL    HW2  424   1.649   3.502   2.499
  781SOL     OW  425   0.598   2.591   2.132
  781SOL    HW1  426   0.622   2.660   2.064
  781SOL    HW2  427   0.520   2.624   2.186
  782SOL     OW  428   1.281   2.207   2.806
  782SOL    HW1  429   1.195   2.157   2.793
  782SOL    HW2  430   1.343   2.153   2.862
  783SOL     OW  431   1.576   3.524   2.169
  783SOL    HW1  432   1.665   3.570   2.172
  783SOL    HW2  433   1.555   3.500   2.074
  785SOL     OW  434   1.394   2.331   3.536
  785SOL    HW1  435   1.374   2.374   3.624
  785SOL    HW2  436   1.472   2.269   3.545
  786SOL     OW  437   0.973   2.752   3.434
  786SOL    HW1  438   1.019   2.668   3.405
  786SOL    HW2  439   0.917   2.786   3.359
  787SOL     OW  440   0.991   2.272   3.104
  787SOL    HW1  441   0.914   2.306   3.158
  787SOL    HW2  442   0.957   2.221   3.025
  788SOL     OW  443   1.041   2.563   2.291
  788SOL    HW1  444   1.067   2.559   2.387
  788SOL    HW2  445   0.956   2.512   2.277
  791SOL     OW  446   0.865   2.210   2.057
  791SOL    HW1  447   0.924   2.273   2.008
  791SOL    HW2  448   0.884   2.116   2.028
  792SOL     OW  449   1.719   2.447   3.693
  792SOL    HW1  450   1.693   2.536   3.657
  792SOL    HW2  451   1.717   2.379   3.620
  793SOL     OW  452   1.362   3.006   2.407
  793SOL    HW1  453   1.445   2.977   2.359
  793SOL    HW2  454   1.313   3.073   2.351
  795SOL     OW  455   1.008   3.318   2.339
  795SOL    HW1  456   0.962   3.390   2.287
  795SOL    HW2  457   1.004   3.338   2.437
  797SOL     OW  458   1.795   2.928   2.735
  797SOL    HW1  459   1.733   2.913   2.659
  797SOL    HW2  460   1.743   2.939   2.820
  800SOL     OW  461   1.458   2.597   2.590
  800SOL    HW1  462   1.453   2.532   2.665
  800SOL    HW2  463   1.538   2.656   2.603
  804SOL     OW  464   1.632   3.239   1.943
  804SOL    HW1  465   1.600   3.333   1.933
  804SOL    HW2  466   1.556   3.176   1.931
  806SOL     OW  467   1.400   1.969   2.288
  806SOL    HW1  468   1.376   1.932   2.198
  806SOL    HW2  469   1.499   1.985   2.292
  810SOL     OW  470   1.547   2.084   3.591
  810SOL    HW1  471   1.542   2.121   3.683
  810SOL    HW2  472   1.475   2.015   3.579
  814SOL     OW  473   1.351   2.452   3.295
  814SOL    HW1  474   1.379   2.409   3.380
  814SOL    HW2  475   1.376   2.548   3.296
  816SOL     OW  476   0.922   2.365   2.761
  816SOL    HW1  477   0.897   2.356   2.665
  816SOL    HW2  478   0.970   2.283   2.792
  818SOL     OW  479   1.434   3.050   1.903
  818SOL    HW1  480   1.466   2.974   1.960
  818SOL    HW2  481   1.342   3.077   1.933
  820SOL     OW  482   0.935   2.098   2.342
  820SOL    HW1  483   0.887   2.139   2.264
  820SOL    HW2  484   1.034   2.096   2.323
  821SOL     OW  485   1.076   2.545   3.326
  821SOL    HW1  486   0.996   2.484   3.329
  821SOL    HW2  487   1.157   2.492   3.302
  822SOL     OW  488   1.227   3.432   2.655
  822SOL    HW1  489   1.248   3.506   2.590
  822SOL    HW2  490   1.295   3.432   2.728
  824SOL     OW  491   1.271   3.659   2.453
  824SOL    HW1  492   1.315   3.723   2.389
  824SOL    HW2  493   1.221   3.711   2.523
  825SOL     OW  494   1.032   2.411   1.878
  825SOL    HW1  495   0.991   2.493   1.839
  825SOL    HW2  496   1.096   2.437   1.951
  828SOL     OW  497   0.866   2.316   2.504
  828SOL    HW1  498   0.834   2.388   2.442
  828SOL    HW2  499   0.890   2.235   2.451
  829SOL     OW  500   1.017   1.901   2.615
  829SOL    HW1  501   0.945   1.906   2.546
  829SOL    HW2  502   0.993   1.832   2.684
  830SOL     OW  503   1.429   3.035   2.729
  830SOL    HW1  504   1.374   2.951   2.722
  830SOL    HW2  505   1.455   3.064   2.637
  831SOL     OW  506   1.466   2.452   2.854
  831SOL    HW1  507   1.436   2.357   2.861
  831SOL    HW2  508   1.539   2.468   2.920
  832SOL     OW  509   1.857   2.695   2.239
  832SOL    HW1  510   1.899   2.631   2.303
  832SOL    HW2  511   1.819   2.644   2.161
  834SOL     OW  512   1.664   3.142   2.519
  834SOL    HW1  513   1.763   3.150   2.533
  834SOL    HW2  514   1.619   3.226   2.550
  835SOL     OW  515   1.390   2.437   1.940
  835SOL    HW1  516   1.336   2.416   2.021
  835SOL    HW2  517   1.481   2.396   1.949
  837SOL     OW  518   1.754   3.085   3.450
  837SOL    HW1  519   1.845   3.046   3.437
  837SOL    HW2  520   1.762   3.181   3.474
  838SOL     OW  521   1.064   3.209   3.202
  838SOL    HW1  522   0.984   3.186   3.257
  838SOL    HW2  523   1.147   3.183   3.251
  839SOL     OW  524   1.592   3.491   3.487
  839SOL    HW1  525   1.619   3.525   3.397
  839SOL    HW2  526   1.671   3.453   3.533
  840SOL     OW  527   1.111   3.057   2.962
  840SOL    HW1  528   1.071   3.101   3.043
  840SOL    HW2  529   1.070   3.094   2.879
  841SOL     OW  530   1.638   2.961   2.941
  841SOL    HW1  531   1.643   3.042   3.000
  841SOL    HW2  532   1.552   2.963   2.890
  842SOL     OW  533   0.915   1.951   3.264
  842SOL    HW1  534   0.940   1.931   3.169
  842SOL    HW2  535   0.987   2.007   3.306
  844SOL     OW  536   0.705   2.912   2.230
  844SOL    HW1  537   0.691   2.919   2.329
  844SOL    HW2  538   0.789   2.861   2.212
  846SOL     OW  539   1.274   2.248   3.124
  846SOL    HW1  540   1.295   2.322   3.188
  846SOL    HW2  541   1.185   2.265   3.081
  850SOL     OW  542   1.252   3.210   2.250
  850SOL    HW1  543   1.302   3.287   2.290
  850SOL    HW2  544   1.157   3.212   2.282
  851SOL     OW  545   1.272   3.307   3.004
  851SOL    HW1  546   1.319   3.320   3.091
  851SOL    HW2  547   1.206   3.233   3.013
  852SOL     OW  548   1.582   2.501   2.334
  852SOL    HW1  549   1.551   2.562   2.407
  852SOL    HW2  550   1.632   2.553   2.265
  855SOL     OW  551   1.587   2.641   3.532
  855SOL    HW1  552   1.495   2.679   3.527
  855SOL    HW2  553   1.647   2.688   3.467
  859SOL     OW  554   1.360   2.724   2.907
  859SOL    HW1  555   1.285   2.724   2.841
  859SOL    HW2  556   1.397   2.632   2.916
  860SOL     OW  557   1.209   2.387   2.137
  860SOL    HW1  558   1.222   2.303   2.191
  860SOL    HW2  559   1.180   2.461   2.197
  863SOL     OW  560   0.732   2.496   2.926
  863SOL    HW1  561   0.791   2.470   2.850
  863SOL    HW2  562   0.704   2.592   2.915
  864SOL     OW  563   1.728   2.797   3.716
  864SOL    HW1  564   1.682   2.790   3.627
  864SOL    HW2  565   1.666   2.841   3.782
  866SOL     OW  566   1.622   2.229   2.236
  866SOL    HW1  567   1.624   2.153   2.300
  866SOL    HW2  568   1.574   2.306   2.276
  867SOL     OW  569   1.023   2.628   2.828
  867SOL    HW1  570   1.038   2.649   2.924
  867SOL    HW2  571   0.993   2.533   2.819
  869SOL     OW  572   1.859   3.380   3.467
  869SOL    HW1  573   1.873   3.407   3.372
  869SOL    HW2  574   1.942   3.402   3.520
  871SOL     OW  575   1.540   2.136   1.987
  871SOL    HW1  576   1.479   2.061   2.010
  871SOL    HW2  577   1.562   2.188   2.070
  872SOL     OW  578   1.303   2.700   1.904
  872SOL    HW1  579   1.337   2.607   1.919
  872SOL    HW2  580   1.321   2.727   1.809
  873SOL     OW  581   1.068   3.195   2.711
  873SOL    HW1  582   1.075   3.111   2.656
  873SOL    HW2  583   1.130   3.264   2.675
  876SOL     OW  584   1.138   2.242   3.540
  876SOL    HW1  585   1.093   2.305   3.604
  876SOL    HW2  586   1.231   2.273   3.523
  877SOL     OW  587   1.160   2.069   3.339
  877SOL    HW1  588   1.160   2.133   3.416
  877SOL    HW2  589   1.188   2.117   3.256
  881SOL     OW  590   1.002   2.658   3.100
  881SOL    HW1  591   1.043   2.626   3.186
  881SOL    HW2  592   0.906   2.631   3.097
  884SOL     OW  593   1.369   2.812   3.522
  884SOL    HW1  594   1.408   2.901   3.542
  884SOL    HW2  595   1.379   2.792   3.425
  885SOL     OW  596   0.815   2.434   2.187
  885SOL    HW1  597   0.822   2.345   2.141
  885SOL    HW2  598   0.721   2.468   2.179
  886SOL     OW  599   1.657   2.466   3.068
  886SOL    HW1  600   1.619   2.397   3.130
  886SOL    HW2  601   1.739   2.430   3.024
  892SOL     OW  602   1.347   2.921   3.096
  892SOL    HW1  603   1.371   2.858   3.022
  892SOL    HW2  604   1.257   2.961   3.078
  893SOL     OW  605   1.302   2.717   2.171
  893SOL    HW1  606   1.216   2.686   2.213
  893SOL    HW2  607   1.298   2.703   2.072
  894SOL     OW  608   1.759   3.609   3.016
  894SOL    HW1  609   1.820   3.639   2.943
  894SOL    HW2  610   1.721   3.520   2.994
  895SOL     OW  611   1.252   3.593   2.990
  895SOL    HW1  612   1.336   3.598   2.936
  895SOL    HW2  613   1.229   3.497   3.008
  898SOL     OW  614   1.726   1.997   2.385
  898SOL    HW1  615   1.799   1.980   2.318
  898SOL    HW2  616   1.695   1.910   2.423
  899SOL     OW  617   1.388   3.435   2.339
  899SOL    HW1  618   1.455   3.447   2.265
  899SOL    HW2  619   1.348   3.524   2.362
  901SOL     OW  620   1.280   2.789   2.534
  901SOL    HW1  621   1.340   2.708   2.536
  901SOL    HW2  622   1.320   2.858   2.474
  904SOL     OW  623   1.650   3.582   3.256
  904SOL    HW1  624   1.703   3.592   3.172
  904SOL    HW2  625   1.623   3.672   3.290
  905SOL     OW  626   1.841   2.037   2.825
  905SOL    HW1  627   1.880   1.952   2.789
  905SOL    HW2  628   1.743   2.039   2.806
  907SOL     OW  629   1.194   3.474   1.893
  907SOL    HW1  630   1.200   3.381   1.930
  907SOL    HW2  631   1.135   3.474   1.813
  909SOL     OW  632   0.916   2.772   2.153
  909SOL    HW1  633   0.979   2.810   2.085
  909SOL    HW2  634   0.956   2.689   2.192
  910SOL     OW  635   1.504   3.469   1.906
  910SOL    HW1  636   1.412   3.506   1.913
  910SOL    HW2  637   1.542   3.489   1.816
  912SOL     OW  638   1.614   3.154   3.151
  912SOL    HW1  639   1.674   3.157   3.231
  912SOL    HW2  640   1.539   3.218   3.164
  913SOL     OW  641   1.039   2.960   2.558
  913SOL    HW1  642   0.969   2.913   2.612
  913SOL    HW2  643   1.098   2.892   2.515
  914SOL     OW  644   1.014   2.098   2.833
  914SOL    HW1  645   1.006   2.062   2.740
  914SOL    HW2  646   1.012   2.022   2.898
  916SOL     OW  647   1.709   2.247   3.243
  916SOL    HW1  648   1.782   2.316   3.247
  916SOL    HW2  649   1.737   2.172   3.184
  921SOL     OW  650   1.440   2.718   3.260
  921SOL    HW1  651   1.383   2.770   3.197
  921SOL    HW2  652   1.536   2.730   3.236
  923SOL     OW  653   1.183   3.197   1.981
  923SOL    HW1  654   1.084   3.186   1.983
  923SOL    HW2  655   1.217   3.212   2.074
  925SOL     OW  656   1.493   3.629   2.821
  925SOL    HW1  657   1.526   3.693   2.752
  925SOL    HW2  658   1.559   3.623   2.896
  927SOL     OW  659   1.450   3.082   3.495
  927SOL    HW1  660   1.441   3.072   3.594
  927SOL    HW2  661   1.546   3.075   3.469
  929SOL     OW  662   1.674   2.745   3.116
  929SOL    HW1  663   1.647   2.656   3.079
  929SOL    HW2  664   1.675   2.813   3.043
  930SOL     OW  665   1.225   2.187   2.311
  930SOL    HW1  666   1.290   2.113   2.300
  930SOL    HW2  667   1.245   2.237   2.395
  931SOL     OW  668   0.594   2.607   2.514
  931SOL    HW1  669   0.644   2.692   2.495
  931SOL    HW2  670   0.506   2.609   2.466
  932SOL     OW  671   1.777   2.204   3.504
  932SOL    HW1  672   1.760   2.235   3.410
  932SOL    HW2  673   1.693   2.167   3.542
  933SOL     OW  674   1.730   2.796   3.379
  933SOL    HW1  675   1.768   2.887   3.394
  933SOL    HW2  676   1.722   2.779   3.280
  934SOL     OW  677   0.859   3.236   1.878
  934SOL    HW1  678   0.813   3.251   1.966
  934SOL    HW2  679   0.903   3.321   1.848
  936SOL     OW  680   0.859   2.818   2.723
  936SOL    HW1  681   0.913   2.749   2.771
  936SOL    HW2  682   0.827   2.887   2.789
  937SOL     OW  683   1.083   2.846   1.949
  937SOL    HW1  684   1.060   2.899   1.867
  937SOL    HW2  685   1.164   2.790   1.930
  938SOL     OW  686   1.861   3.431   2.713
  938SOL    HW1  687   1.790   3.419   2.643
  938SOL    HW2  688   1.862   3.352   2.773
  942SOL     OW  689   1.824   2.054   3.089
  942SOL    HW1  690   1.820   1.964   3.133
  942SOL    HW2  691   1.827   2.043   2.990
  944SOL     OW  692   1.705   3.349   2.966
  944SOL    HW1  693   1.612   3.324   2.939
  944SOL    HW2  694   1.731   3.299   3.048
  947SOL     OW  695   1.424   2.076   2.974
  947SOL    HW1  696   1.476   2.011   3.029
  947SOL    HW2  697   1.375   2.139   3.035
  948SOL     OW  698   1.001   1.896   3.016
  948SOL    HW1  699   0.938   1.824   2.985
  948SOL    HW2  700   1.094   1.860   3.016
  949SOL     OW  701   0.770   3.192   2.163
  949SOL    HW1  702   0.724   3.105   2.180
  949SOL    HW2  703   0.861   3.189   2.204
  951SOL     OW  704   1.352   1.914   2.030
  951SOL    HW1  705   1.387   1.873   1.946
  951SOL    HW2  706   1.262   1.876   2.050
  952SOL     OW  707   1.300   2.315   2.553
  952SOL    HW1  708   1.241   2.395   2.557
  952SOL    HW2  709   1.315   2.280   2.646
  953SOL     OW  710   1.593   2.083   2.744
  953SOL    HW1  711   1.509   2.082   2.798
  953SOL    HW2  712   1.595   2.166   2.688
  960SOL     OW  713   1.755   2.469   3.955
  960SOL    HW1  714   1.743   2.456   3.856
  960SOL    HW2  715   1.725   2.388   4.004
 1009SOL     OW  716   1.390   2.437   3.802
 1009SOL    HW1  717   1.336   2.416   3.883
 1009SOL    HW2  718   1.481   2.396   3.811
 1020SOL     OW  719   1.540   2.136   3.849
 1020SOL    HW1  720   1.479   2.061   3.872
 1020SOL    HW2  721   1.562   2.188   3.932
 1021SOL     OW  722   1.303   2.700   3.766
 1021SOL    HW1  723   1.337   2.607   3.781
 1021SOL    HW2  724   1.321   2.727   3.671
 1195SOL     OW  725   1.400   3.831   2.288
 1195SOL    HW1  726   1.376   3.794   2.198
 1195SOL    HW2  727   1.499   3.847   2.292
 1249SOL     OW  728   1.726   3.859   2.385
 1249SOL    HW1  729   1.799   3.842   2.318
 1249SOL    HW2  730   1.695   3.772   2.423
 1251SOL     OW  731   1.841   3.899   2.825
 1251SOL    HW1  732   1.880   3.814   2.789
 1251SOL    HW2  733   1.743   3.901   2.806
 1273SOL     OW  734   1.352   3.776   2.030
 1273SOL    HW1  735   1.387   3.735   1.946
 1273SOL    HW2  736   1.262   3.738   2.050
 1333SOL     OW  737   2.431   1.275   1.165
 1333SOL    HW1  738   2.338   1.268   1.128
 1333SOL    HW2  739   2.442   1.364   1.209
 1338SOL     OW  740   2.712   0.798   1.823
 1338SOL    HW1  741   2.708   0.874   1.888
 1338SOL    HW2  742   2.734   0.834   1.732
 1340SOL     OW  743   2.548   1.161   1.803
 1340SOL    HW1  744   2.608   1.240   1.817
 1340SOL    HW2  745   2.462   1.192   1.762
 1341SOL     OW  746   2.197   1.435   1.061
 1341SOL    HW1  747   2.119   1.404   1.008
 1341SOL    HW2  748   2.255   1.493   1.004
 1342SOL     OW  749   3.322   1.505   1.339
 1342SOL    HW1  750   3.346   1.599   1.365
 1342SOL    HW2  751   3.306   1.451   1.421
 1346SOL     OW  752   2.989   1.341   1.690
 1346SOL    HW1  753   3.036   1.341   1.778
 1346SOL    HW2  754   2.941   1.254   1.679
 1349SOL     OW  755   2.482   1.786   1.439
 1349SOL    HW1  756   2.390   1.769   1.474
 1349SOL    HW2  757   2.510   1.878   1.465
 1358SOL     OW  758   3.155   1.228   1.423
 1358SOL    HW1  759   3.192   1.155   1.365
 1358SOL    HW2  760   3.207   1.233   1.508
 1360SOL     OW  761   2.059   0.976   1.264
 1360SOL    HW1  762   2.148   0.931   1.250
 1360SOL    HW2  763   1.986   0.911   1.245
 1362SOL     OW  764   3.049   1.792   1.616
 1362SOL    HW1  765   3.073   1.852   1.540
 1362SOL    HW2  766   3.056   1.697   1.586
 1371SOL     OW  767   2.835   0.890   1.572
 1371SOL    HW1  768   2.881   0.806   1.543
 1371SOL    HW2  769   2.779   0.924   1.497
 1375SOL     OW  770   1.992   1.821   1.571
 1375SOL    HW1  771   1.982   1.806   1.670
 1375SOL    HW2  772   1.906   1.857   1.535
 1381SOL     OW  773   2.213   1.801   0.853
 1381SOL    HW1  774   2.263   1.715   0.859
 1381SOL    HW2  775   2.278   1.878   0.850
 1383SOL     OW  776   3.089   1.550   1.506
 1383SOL    HW1  777   3.095   1.473   1.570
 1383SOL    HW2  778   3.037   1.524   1.426
 1386SOL     OW  779   2.323   1.266   1.727
 1386SOL    HW1  780   2.273   1.267   1.641
 1386SOL    HW2  781   2.260   1.248   1.803
 1392SOL     OW  782   2.111   1.785   1.241
 1392SOL    HW1  783   2.168   1.720   1.291
 1392SOL    HW2  784   2.095   1.752   1.148
 1393SOL     OW  785   2.802   1.698   0.904
 1393SOL    HW1  786   2.882   1.641   0.925
 1393SOL    HW2  787   2.753   1.658   0.827
 1398SOL     OW  788   2.750   1.514   1.195
 1398SOL    HW1  789   2.727   1.489   1.101
 1398SOL    HW2  790   2.811   1.445   1.234
 1400SOL     OW  791   2.665   1.402   0.924
 1400SOL    HW1  792   2.755   1.416   0.882
 1400SOL    HW2  793   2.594   1.404   0.853
 1423SOL     OW  794   2.926   1.347   1.340
 1423SOL    HW1  795   2.846   1.324   1.395
 1423SOL    HW2  796   3.009   1.321   1.389
 1424SOL     OW  797   3.454   1.629   1.625
 1424SOL    HW1  798   3.481   1.663   1.535
 1424SOL    HW2  799   3.533   1.591   1.671
 1428SOL     OW  800   2.842   1.116   1.719
 1428SOL    HW1  801   2.743   1.122   1.729
 1428SOL    HW2  802   2.865   1.036   1.663
 1432SOL     OW  803   1.926   1.564   1.331
 1432SOL    HW1  804   1.880   1.646   1.297
 1432SOL    HW2  805   2.024   1.583   1.340
 1436SOL     OW  806   3.134   1.445   1.142
 1436SOL    HW1  807   3.181   1.458   1.229
 1436SOL    HW2  808   3.068   1.371   1.151
 1438SOL     OW  809   2.216   1.510   1.329
 1438SOL    HW1  810   2.195   1.466   1.242
 1438SOL    HW2  811   2.313   1.536   1.332
 1439SOL     OW  812   2.264   0.751   1.598
 1439SOL    HW1  813   2.332   0.806   1.551
 1439SOL    HW2  814   2.304   0.663   1.625
 1447SOL     OW  815   1.899   1.310   1.282
 1447SOL    HW1  816   1.952   1.261   1.350
 1447SOL    HW2  817   1.921   1.408   1.287
 1453SOL     OW  818   2.842   1.573   1.700
 1453SOL    HW1  819   2.822   1.617   1.612
 1453SOL    HW2  820   2.881   1.482   1.684
 1454SOL     OW  821   3.721   1.518   1.605
 1454SOL    HW1  822   3.735   1.545   1.510
 1454SOL    HW2  823   3.804   1.540   1.658
 1455SOL     OW  824   2.212   0.898   1.804
 1455SOL    HW1  825   2.288   0.942   1.852
 1455SOL    HW2  826   2.247   0.851   1.722
 1464SOL     OW  827   1.950   1.801   0.927
 1464SOL    HW1  828   1.908   1.715   0.900
 1464SOL    HW2  829   2.044   1.804   0.893
 1465SOL     OW  830   2.366   1.568   0.910
 1465SOL    HW1  831   2.432   1.642   0.919
 1465SOL    HW2  832   2.410   1.489   0.868
 1469SOL     OW  833   3.231   0.950   1.660
 1469SOL    HW1  834   3.270   1.039   1.680
 1469SOL    HW2  835   3.241   0.930   1.563
 1472SOL     OW  836   2.114   1.564   1.744
 1472SOL    HW1  837   2.084   1.621   1.820
 1472SOL    HW2  838   2.107   1.467   1.770
 1474SOL     OW  839   2.792   1.678   1.465
 1474SOL    HW1  840   2.768   1.660   1.370
 1474SOL    HW2  841   2.822   1.772   1.475
 1476SOL     OW  842   2.021   1.137   1.466
 1476SOL    HW1  843   2.043   1.076   1.542
 1476SOL    HW2  844   2.031   1.088   1.380
 1480SOL     OW  845   3.114   1.731   1.128
 1480SOL    HW1  846   3.198   1.736   1.074
 1480SOL    HW2  847   3.091   1.635   1.146
 1481SOL     OW  848   1.945   1.258   1.022
 1481SOL    HW1  849   1.940   1.257   1.122
 1481SOL    HW2  850   1.862   1.217   0.984
 1482SOL     OW  851   2.550   1.662   1.716
 1482SOL    HW1  852   2.494   1.743   1.725
 1482SOL    HW2  853   2.602   1.666   1.630
 1486SOL     OW  854   1.992   1.794   1.851
 1486SOL    HW1  855   1.951   1.720   1.904
 1486SOL    HW2  856   2.056   1.845   1.909
 1488SOL     OW  857   2.692   1.273   1.422
 1488SOL    HW1  858   2.687   1.306   1.517
 1488SOL    HW2  859   2.606   1.292   1.376
 1490SOL     OW  860   3.512   1.720   1.394
 1490SOL    HW1  861   3.565   1.730   1.310
 1490SOL    HW2  862   3.485   1.810   1.428
 1494SOL     OW  863   2.684   1.002   1.372
 1494SOL    HW1  864   2.724   1.001   1.280
 1494SOL    HW2  865   2.694   1.094   1.412
 1497SOL     OW  866   2.234   1.288   1.490
 1497SOL    HW1  867   2.221   1.381   1.456
 1497SOL    HW2  868   2.150   1.236   1.477
 1504SOL     OW  869   1.967   1.013   1.726
 1504SOL    HW1  870   1.890   0.980   1.780
 1504SOL    HW2  871   2.052   0.983   1.768
 1508SOL     OW  872   2.475   0.842   1.431
 1508SOL    HW1  873   2.531   0.923   1.414
 1508SOL    HW2  874   2.534   0.762   1.434
 1511SOL     OW  875   3.312   1.220   1.633
 1511SOL    HW1  876   3.303   1.210   1.732
 1511SOL    HW2  877   3.408   1.213   1.607
 1512SOL     OW  878   2.252   1.741   1.560
 1512SOL    HW1  879   2.161   1.782   1.558
 1512SOL    HW2  880   2.245   1.647   1.592
 1519SOL     OW  881   2.523   1.790   0.953
 1519SOL    HW1  882   2.477   1.878   0.940
 1519SOL    HW2  883   2.622   1.802   0.946
 1523SOL     OW  884   2.083   1.314   1.844
 1523SOL    HW1  885   2.018   1.241   1.823
 1523SOL    HW2  886   2.087   1.328   1.942
 1525SOL     OW  887   2.534   1.391   1.624
 1525SOL    HW1  888   2.456   1.341   1.662
 1525SOL    HW2  889   2.531   1.486   1.655
 1534SOL     OW  890   2.480   1.567   1.284
 1534SOL    HW1  891   2.475   1.649   1.341
 1534SOL    HW2  892   2.569   1.564   1.239
 1540SOL     OW  893   2.092   0.628   1.975
 1540SOL    HW1  894   1.999   0.626   2.012
 1540SOL    HW2  895   2.093   0.589   1.883
 1543SOL     OW  896   2.431   1.275   3.027
 1543SOL    HW1  897   2.338   1.268   2.990
 1543SOL    HW2  898   2.442   1.364   3.071
 1544SOL     OW  899   3.417   1.511   2.565
 1544SOL    HW1  900   3.360   1.495   2.646
 1544SOL    HW2  901   3.358   1.521   2.485
 1545SOL     OW  902   2.997   0.703   2.579
 1545SOL    HW1  903   3.054   0.781   2.554
 1545SOL    HW2  904   2.937   0.729   2.655
 1547SOL     OW  905   2.630   1.144   2.885
 1547SOL    HW1  906   2.552   1.161   2.945
 1547SOL    HW2  907   2.664   1.231   2.849
 1549SOL     OW  908   2.547   1.012   2.527
 1549SOL    HW1  909   2.616   0.996   2.597
 1549SOL    HW2  910   2.474   1.069   2.565
 1550SOL     OW  911   2.548   1.161   3.665
 1550SOL    HW1  912   2.608   1.240   3.679
 1550SOL    HW2  913   2.462   1.192   3.624
 1551SOL     OW  914   2.197   1.435   2.923
 1551SOL    HW1  915   2.119   1.404   2.870
 1551SOL    HW2  916   2.255   1.493   2.866
 1552SOL     OW  917   3.322   1.505   3.201
 1552SOL    HW1  918   3.346   1.599   3.227
 1552SOL    HW2  919   3.306   1.451   3.283
 1555SOL     OW  920   2.093   1.713   2.345
 1555SOL    HW1  921   2.127   1.790   2.399
 1555SOL    HW2  922   2.137   1.713   2.255
 1556SOL     OW  923   2.989   1.341   3.552
 1556SOL    HW1  924   3.036   1.341   3.640
 1556SOL    HW2  925   2.941   1.254   3.541
 1557SOL     OW  926   2.092   1.434   2.400
 1557SOL    HW1  927   2.066   1.530   2.400
 1557SOL    HW2  928   2.021   1.380   2.445
 1558SOL     OW  929   2.102   1.091   2.748
 1558SOL    HW1  930   2.116   1.007   2.800
 1558SOL    HW2  931   2.047   1.155   2.803
 1559SOL     OW  932   2.482   1.786   3.301
 1559SOL    HW1  933   2.390   1.769   3.336
 1559SOL    HW2  934   2.510   1.878   3.327
 1560SOL     OW  935   2.468   0.964   1.985
 1560SOL    HW1  936   2.475   1.048   1.931
 1560SOL    HW2  937   2.514   0.977   2.073
 1562SOL     OW  938   1.984   0.643   2.425
 1562SOL    HW1  939   1.939   0.555   2.442
 1562SOL    HW2  940   1.983   0.697   2.509
 1563SOL     OW  941   3.704   1.767   2.221
 1563SOL    HW1  942   3.758   1.738   2.301
 1563SOL    HW2  943   3.734   1.857   2.192
 1564SOL     OW  944   1.889   1.596   1.979
 1564SOL    HW1  945   1.870   1.500   2.000
 1564SOL    HW2  946   1.856   1.654   2.054
 1566SOL     OW  947   3.503   1.108   2.294
 1566SOL    HW1  948   3.589   1.110   2.242
 1566SOL    HW2  949   3.517   1.155   2.382
 1568SOL     OW  950   2.475   1.365   2.588
 1568SOL    HW1  951   2.426   1.278   2.597
 1568SOL    HW2  952   2.452   1.408   2.501
 1569SOL     OW  953   3.155   1.228   3.285
 1569SOL    HW1  954   3.192   1.155   3.227
 1569SOL    HW2  955   3.207   1.233   3.370
 1571SOL     OW  956   2.059   0.976   3.126
 1571SOL    HW1  957   2.148   0.931   3.112
 1571SOL    HW2  958   1.986   0.911   3.107
 1572SOL     OW  959   3.387   0.999   2.052
 1572SOL    HW1  960   3.324   0.923   2.065
 1572SOL    HW2  961   3.435   1.017   2.138
 1573SOL     OW  962   3.049   1.792   3.478
 1573SOL    HW1  963   3.073   1.852   3.402
 1573SOL    HW2  964   3.056   1.697   3.448
 1575SOL     OW  965   3.328   1.417   2.815
 1575SOL    HW1  966   3.269   1.423   2.895
 1575SOL    HW2  967   3.313   1.329   2.769
 1576SOL     OW  968   3.529   1.714   2.434
 1576SOL    HW1  969   3.488   1.691   2.346
 1576SOL    HW2  970   3.511   1.640   2.499
 1577SOL     OW  971   2.460   0.729   2.132
 1577SOL    HW1  972   2.484   0.798   2.064
 1577SOL    HW2  973   2.382   0.762   2.186
 1579SOL     OW  974   3.438   1.662   2.169
 1579SOL    HW1  975   3.527   1.708   2.172
 1579SOL    HW2  976   3.417   1.638   2.074
 1584SOL     OW  977   2.903   0.701   2.291
 1584SOL    HW1  978   2.929   0.697   2.387
 1584SOL    HW2  979   2.818   0.650   2.277
 1585SOL     OW  980   1.938   0.811   2.651
 1585SOL    HW1  981   2.037   0.799   2.660
 1585SOL    HW2  982   1.914   0.906   2.672
 1586SOL     OW  983   1.992   1.821   3.433
 1586SOL    HW1  984   1.982   1.806   3.532
 1586SOL    HW2  985   1.906   1.857   3.397
 1589SOL     OW  986   3.224   1.144   2.407
 1589SOL    HW1  987   3.307   1.115   2.359
 1589SOL    HW2  988   3.175   1.211   2.351
 1591SOL     OW  989   2.870   1.456   2.339
 1591SOL    HW1  990   2.824   1.528   2.287
 1591SOL    HW2  991   2.866   1.476   2.437
 1592SOL     OW  992   2.213   1.801   2.715
 1592SOL    HW1  993   2.263   1.715   2.721
 1592SOL    HW2  994   2.278   1.878   2.712
 1594SOL     OW  995   3.089   1.550   3.368
 1594SOL    HW1  996   3.095   1.473   3.432
 1594SOL    HW2  997   3.037   1.524   3.288
 1595SOL     OW  998   2.183   0.943   2.104
 1595SOL    HW1  999   2.265   0.982   2.062
 1595SOL    HW2 1000   2.156   0.861   2.055
 1597SOL     OW 1001   2.323   1.266   3.589
 1597SOL    HW1 1002   2.273   1.267   3.503
 1597SOL    HW2 1003   2.260   1.248   3.665
 1598SOL     OW 1004   2.973   1.776   2.099
 1598SOL    HW1 1005   2.913   1.714   2.149
 1598SOL    HW2 1006   3.004   1.732   2.014
 1600SOL     OW 1007   3.494   1.377   1.943
 1600SOL    HW1 1008   3.462   1.471   1.933
 1600SOL    HW2 1009   3.418   1.314   1.931
 1601SOL     OW 1010   2.326   1.743   2.185
 1601SOL    HW1 1011   2.359   1.782   2.271
 1601SOL    HW2 1012   2.402   1.736   2.120
 1603SOL     OW 1013   2.111   1.785   3.103
 1603SOL    HW1 1014   2.168   1.720   3.153
 1603SOL    HW2 1015   2.095   1.752   3.010
 1604SOL     OW 1016   2.802   1.698   2.766
 1604SOL    HW1 1017   2.882   1.641   2.787
 1604SOL    HW2 1018   2.753   1.658   2.689
 1605SOL     OW 1019   2.244   0.700   2.342
 1605SOL    HW1 1020   2.289   0.610   2.339
 1605SOL    HW2 1021   2.150   0.689   2.375
 1609SOL     OW 1022   2.750   1.514   3.057
 1609SOL    HW1 1023   2.727   1.489   2.963
 1609SOL    HW2 1024   2.811   1.445   3.096
 1611SOL     OW 1025   2.665   1.402   2.786
 1611SOL    HW1 1026   2.755   1.416   2.744
 1611SOL    HW2 1027   2.594   1.404   2.715
 1614SOL     OW 1028   3.296   1.188   1.903
 1614SOL    HW1 1029   3.328   1.112   1.960
 1614SOL    HW2 1030   3.204   1.215   1.933
 1618SOL     OW 1031   3.089   1.570   2.655
 1618SOL    HW1 1032   3.110   1.644   2.590
 1618SOL    HW2 1033   3.157   1.570   2.728
 1619SOL     OW 1034   2.321   1.152   2.603
 1619SOL    HW1 1035   2.250   1.125   2.668
 1619SOL    HW2 1036   2.295   1.124   2.510
 1620SOL     OW 1037   3.133   1.797   2.453
 1620SOL    HW1 1038   3.177   1.861   2.389
 1620SOL    HW2 1039   3.083   1.849   2.523
 1626SOL     OW 1040   3.291   1.173   2.729
 1626SOL    HW1 1041   3.236   1.089   2.722
 1626SOL    HW2 1042   3.317   1.202   2.637
 1629SOL     OW 1043   2.350   1.385   2.036
 1629SOL    HW1 1044   2.263   1.370   2.083
 1629SOL    HW2 1045   2.333   1.411   1.941
 1630SOL     OW 1046   3.526   1.280   2.519
 1630SOL    HW1 1047   3.625   1.288   2.533
 1630SOL    HW2 1048   3.481   1.364   2.550
 1634SOL     OW 1049   2.926   1.347   3.202
 1634SOL    HW1 1050   2.846   1.324   3.257
 1634SOL    HW2 1051   3.009   1.321   3.251
 1635SOL     OW 1052   3.454   1.629   3.487
 1635SOL    HW1 1053   3.481   1.663   3.397
 1635SOL    HW2 1054   3.533   1.591   3.533
 1636SOL     OW 1055   2.973   1.195   2.962
 1636SOL    HW1 1056   2.933   1.239   3.043
 1636SOL    HW2 1057   2.932   1.232   2.879
 1640SOL     OW 1058   2.567   1.050   2.230
 1640SOL    HW1 1059   2.553   1.057   2.329
 1640SOL    HW2 1060   2.651   0.999   2.212
 1641SOL     OW 1061   2.272   0.813   3.113
 1641SOL    HW1 1062   2.358   0.825   3.163
 1641SOL    HW2 1063   2.230   0.726   3.140
 1643SOL     OW 1064   1.926   1.564   3.193
 1643SOL    HW1 1065   1.880   1.646   3.159
 1643SOL    HW2 1066   2.024   1.583   3.202
 1644SOL     OW 1067   2.229   1.100   2.363
 1644SOL    HW1 1068   2.222   1.183   2.307
 1644SOL    HW2 1069   2.233   1.020   2.303
 1646SOL     OW 1070   3.114   1.348   2.250
 1646SOL    HW1 1071   3.164   1.425   2.290
 1646SOL    HW2 1072   3.019   1.350   2.282
 1647SOL     OW 1073   3.134   1.445   3.004
 1647SOL    HW1 1074   3.181   1.458   3.091
 1647SOL    HW2 1075   3.068   1.371   3.013
 1649SOL     OW 1076   2.216   1.510   3.191
 1649SOL    HW1 1077   2.195   1.466   3.104
 1649SOL    HW2 1078   2.313   1.536   3.194
 1654SOL     OW 1079   2.435   0.870   2.891
 1654SOL    HW1 1080   2.479   0.959   2.882
 1654SOL    HW2 1081   2.372   0.870   2.968
 1658SOL     OW 1082   1.899   1.310   3.144
 1658SOL    HW1 1083   1.952   1.261   3.212
 1658SOL    HW2 1084   1.921   1.408   3.149
 1663SOL     OW 1085   2.885   0.766   2.828
 1663SOL    HW1 1086   2.900   0.787   2.924
 1663SOL    HW2 1087   2.855   0.671   2.819
 1664SOL     OW 1088   2.842   1.573   3.562
 1664SOL    HW1 1089   2.822   1.617   3.474
 1664SOL    HW2 1090   2.881   1.482   3.546
 1668SOL     OW 1091   3.165   0.838   1.904
 1668SOL    HW1 1092   3.199   0.745   1.919
 1668SOL    HW2 1093   3.183   0.865   1.809
 1669SOL     OW 1094   2.930   1.333   2.711
 1669SOL    HW1 1095   2.937   1.249   2.656
 1669SOL    HW2 1096   2.992   1.402   2.675
 1670SOL     OW 1097   2.181   0.810   2.811
 1670SOL    HW1 1098   2.274   0.846   2.816
 1670SOL    HW2 1099   2.175   0.725   2.863
 1674SOL     OW 1100   1.870   1.326   2.062
 1674SOL    HW1 1101   1.777   1.347   2.031
 1674SOL    HW2 1102   1.880   1.227   2.075
 1675SOL     OW 1103   1.950   1.801   2.789
 1675SOL    HW1 1104   1.908   1.715   2.762
 1675SOL    HW2 1105   2.044   1.804   2.755
 1676SOL     OW 1106   2.366   1.568   2.772
 1676SOL    HW1 1107   2.432   1.642   2.781
 1676SOL    HW2 1108   2.410   1.489   2.730
 1677SOL     OW 1109   2.864   0.796   3.100
 1677SOL    HW1 1110   2.905   0.764   3.186
 1677SOL    HW2 1111   2.768   0.769   3.097
 1683SOL     OW 1112   2.114   1.564   3.606
 1683SOL    HW1 1113   2.084   1.621   3.682
 1683SOL    HW2 1114   2.107   1.467   3.632
 1685SOL     OW 1115   2.792   1.678   3.327
 1685SOL    HW1 1116   2.768   1.660   3.232
 1685SOL    HW2 1117   2.822   1.772   3.337
 1687SOL     OW 1118   2.021   1.137   3.328
 1687SOL    HW1 1119   2.043   1.076   3.404
 1687SOL    HW2 1120   2.031   1.088   3.242
 1688SOL     OW 1121   3.209   1.059   3.096
 1688SOL    HW1 1122   3.233   0.996   3.022
 1688SOL    HW2 1123   3.119   1.099   3.078
 1689SOL     OW 1124   3.164   0.855   2.171
 1689SOL    HW1 1125   3.078   0.824   2.213
 1689SOL    HW2 1126   3.160   0.841   2.072
 1690SOL     OW 1127   3.621   1.747   3.016
 1690SOL    HW1 1128   3.682   1.777   2.943
 1690SOL    HW2 1129   3.583   1.658   2.994
 1691SOL     OW 1130   3.114   1.731   2.990
 1691SOL    HW1 1131   3.198   1.736   2.936
 1691SOL    HW2 1132   3.091   1.635   3.008
 1692SOL     OW 1133   1.945   1.258   2.884
 1692SOL    HW1 1134   1.940   1.257   2.984
 1692SOL    HW2 1135   1.862   1.217   2.846
 1693SOL     OW 1136   2.550   1.662   3.578
 1693SOL    HW1 1137   2.494   1.743   3.587
 1693SOL    HW2 1138   2.602   1.666   3.492
 1695SOL     OW 1139   3.250   1.573   2.339
 1695SOL    HW1 1140   3.317   1.585   2.265
 1695SOL    HW2 1141   3.210   1.662   2.362
 1696SOL     OW 1142   1.992   1.794   3.713
 1696SOL    HW1 1143   1.951   1.720   3.766
 1696SOL    HW2 1144   2.056   1.845   3.771
 1697SOL     OW 1145   3.142   0.927   2.534
 1697SOL    HW1 1146   3.202   0.846   2.536
 1697SOL    HW2 1147   3.182   0.996   2.474
 1698SOL     OW 1148   2.692   1.273   3.284
 1698SOL    HW1 1149   2.687   1.306   3.379
 1698SOL    HW2 1150   2.606   1.292   3.238
 1699SOL     OW 1151   2.534   1.616   2.016
 1699SOL    HW1 1152   2.543   1.626   1.917
 1699SOL    HW2 1153   2.494   1.527   2.037
 1700SOL     OW 1154   3.512   1.720   3.256
 1700SOL    HW1 1155   3.565   1.730   3.172
 1700SOL    HW2 1156   3.485   1.810   3.290
 1703SOL     OW 1157   3.056   1.612   1.893
 1703SOL    HW1 1158   3.062   1.519   1.930
 1703SOL    HW2 1159   2.997   1.612   1.813
 1704SOL     OW 1160   2.684   1.002   3.234
 1704SOL    HW1 1161   2.724   1.001   3.142
 1704SOL    HW2 1162   2.694   1.094   3.274
 1705SOL     OW 1163   2.778   0.910   2.153
 1705SOL    HW1 1164   2.841   0.948   2.085
 1705SOL    HW2 1165   2.818   0.827   2.192
 1706SOL     OW 1166   3.366   1.607   1.906
 1706SOL    HW1 1167   3.274   1.644   1.913
 1706SOL    HW2 1168   3.404   1.627   1.816
 1707SOL     OW 1169   2.234   1.288   3.352
 1707SOL    HW1 1170   2.221   1.381   3.318
 1707SOL    HW2 1171   2.150   1.236   3.339
 1708SOL     OW 1172   3.476   1.292   3.151
 1708SOL    HW1 1173   3.536   1.295   3.231
 1708SOL    HW2 1174   3.401   1.356   3.164
 1709SOL     OW 1175   2.901   1.098   2.558
 1709SOL    HW1 1176   2.831   1.051   2.612
 1709SOL    HW2 1177   2.960   1.030   2.515
 1711SOL     OW 1178   2.452   1.487   2.353
 1711SOL    HW1 1179   2.494   1.429   2.283
 1711SOL    HW2 1180   2.408   1.566   2.309
 1713SOL     OW 1181   2.117   1.348   2.152
 1713SOL    HW1 1182   2.021   1.349   2.125
 1713SOL    HW2 1183   2.129   1.401   2.236
 1719SOL     OW 1184   3.045   1.335   1.981
 1719SOL    HW1 1185   2.946   1.324   1.983
 1719SOL    HW2 1186   3.079   1.350   2.074
 1720SOL     OW 1187   2.475   0.842   3.293
 1720SOL    HW1 1188   2.531   0.923   3.276
 1720SOL    HW2 1189   2.534   0.762   3.296
 1721SOL     OW 1190   3.355   1.767   2.821
 1721SOL    HW1 1191   3.388   1.831   2.752
 1721SOL    HW2 1192   3.421   1.761   2.896
 1724SOL     OW 1193   2.252   1.741   3.422
 1724SOL    HW1 1194   2.161   1.782   3.420
 1724SOL    HW2 1195   2.245   1.647   3.454
 1727SOL     OW 1196   2.456   0.745   2.514
 1727SOL    HW1 1197   2.506   0.830   2.495
 1727SOL    HW2 1198   2.368   0.747   2.466
 1730SOL     OW 1199   2.721   1.374   1.878
 1730SOL    HW1 1200   2.675   1.389   1.966
 1730SOL    HW2 1201   2.765   1.459   1.848
 1731SOL     OW 1202   2.523   1.790   2.815
 1731SOL    HW1 1203   2.477   1.878   2.802
 1731SOL    HW2 1204   2.622   1.802   2.808
 1732SOL     OW 1205   2.721   0.956   2.723
 1732SOL    HW1 1206   2.775   0.887   2.771
 1732SOL    HW2 1207   2.689   1.025   2.789
 1733SOL     OW 1208   2.945   0.984   1.949
 1733SOL    HW1 1209   2.922   1.037   1.867
 1733SOL    HW2 1210   3.026   0.928   1.930
 1734SOL     OW 1211   3.723   1.569   2.713
 1734SOL    HW1 1212   3.652   1.557   2.643
 1734SOL    HW2 1213   3.724   1.490   2.773
 1735SOL     OW 1214   2.083   1.314   3.706
 1735SOL    HW1 1215   2.018   1.241   3.685
 1735SOL    HW2 1216   2.087   1.328   3.804
 1736SOL     OW 1217   1.941   1.240   2.515
 1736SOL    HW1 1218   1.940   1.193   2.603
 1736SOL    HW2 1219   2.023   1.212   2.464
 1737SOL     OW 1220   2.534   1.391   3.486
 1737SOL    HW1 1221   2.456   1.341   3.524
 1737SOL    HW2 1222   2.531   1.486   3.517
 1740SOL     OW 1223   3.567   1.487   2.966
 1740SOL    HW1 1224   3.474   1.462   2.939
 1740SOL    HW2 1225   3.593   1.437   3.048
 1742SOL     OW 1226   2.674   1.586   2.549
 1742SOL    HW1 1227   2.706   1.596   2.455
 1742SOL    HW2 1228   2.595   1.524   2.551
 1745SOL     OW 1229   2.632   1.330   2.163
 1745SOL    HW1 1230   2.586   1.243   2.180
 1745SOL    HW2 1231   2.723   1.327   2.204
 1746SOL     OW 1232   2.480   1.567   3.146
 1746SOL    HW1 1233   2.475   1.649   3.203
 1746SOL    HW2 1234   2.569   1.564   3.101
 1750SOL     OW 1235   1.901   1.077   2.162
 1750SOL    HW1 1236   2.000   1.066   2.153
 1750SOL    HW2 1237   1.861   0.991   2.194
 1751SOL     OW 1238   2.737   1.646   2.199
 1751SOL    HW1 1239   2.660   1.611   2.145
 1751SOL    HW2 1240   2.705   1.717   2.261
 1766SOL     OW 1241   1.889   1.596   3.841
 1766SOL    HW1 1242   1.870   1.500   3.862
 1766SOL    HW2 1243   1.856   1.654   3.916
 1829SOL     OW 1244   2.534   1.616   3.878
 1829SOL    HW1 1245   2.543   1.626   3.779
 1829SOL    HW2 1246   2.494   1.527   3.899
 1832SOL     OW 1247   3.056   1.612   3.755
 1832SOL    HW1 1248   3.062   1.519   3.792
 1832SOL    HW2 1249   2.997   1.612   3.675
 1843SOL     OW 1250   2.721   1.374   3.740
 1843SOL    HW1 1251   2.675   1.389   3.828
 1843SOL    HW2 1252   2.765   1.459   3.710
 1859SOL     OW 1253   2.087   2.137   0.996
 1859SOL    HW1 1254   2.122   2.120   1.088
 1859SOL    HW2 1255   1.999   2.092   0.984
 1860SOL     OW 1256   1.881   2.230   0.647
 1860SOL    HW1 1257   1.799   2.273   0.686
 1860SOL    HW2 1258   1.853   2.157   0.584
 1861SOL     OW 1259   2.431   3.137   1.165
 1861SOL    HW1 1260   2.338   3.130   1.128
 1861SOL    HW2 1261   2.442   3.226   1.209
 1863SOL     OW 1262   2.997   2.565   0.717
 1863SOL    HW1 1263   3.054   2.643   0.692
 1863SOL    HW2 1264   2.937   2.591   0.793
 1865SOL     OW 1265   2.630   3.006   1.023
 1865SOL    HW1 1266   2.552   3.023   1.083
 1865SOL    HW2 1267   2.664   3.093   0.987
 1866SOL     OW 1268   2.712   2.660   1.823
 1866SOL    HW1 1269   2.708   2.736   1.888
 1866SOL    HW2 1270   2.734   2.696   1.732
 1867SOL     OW 1271   2.547   2.874   0.665
 1867SOL    HW1 1272   2.616   2.858   0.735
 1867SOL    HW2 1273   2.474   2.931   0.703
 1868SOL     OW 1274   2.548   3.023   1.803
 1868SOL    HW1 1275   2.608   3.102   1.817
 1868SOL    HW2 1276   2.462   3.054   1.762
 1869SOL     OW 1277   2.197   3.297   1.061
 1869SOL    HW1 1278   2.119   3.266   1.008
 1869SOL    HW2 1279   2.255   3.355   1.004
 1870SOL     OW 1280   3.322   3.367   1.339
 1870SOL    HW1 1281   3.346   3.461   1.365
 1870SOL    HW2 1282   3.306   3.313   1.421
 1871SOL     OW 1283   2.300   2.254   1.499
 1871SOL    HW1 1284   2.382   2.198   1.508
 1871SOL    HW2 1285   2.219   2.196   1.503
 1874SOL     OW 1286   2.989   3.203   1.690
 1874SOL    HW1 1287   3.036   3.203   1.778
 1874SOL    HW2 1288   2.941   3.116   1.679
 1876SOL     OW 1289   2.102   2.953   0.886
 1876SOL    HW1 1290   2.116   2.869   0.938
 1876SOL    HW2 1291   2.047   3.017   0.941
 1877SOL     OW 1292   2.482   3.648   1.439
 1877SOL    HW1 1293   2.390   3.631   1.474
 1877SOL    HW2 1294   2.510   3.740   1.465
 1879SOL     OW 1295   3.456   1.976   1.480
 1879SOL    HW1 1296   3.438   2.043   1.408
 1879SOL    HW2 1297   3.453   2.022   1.569
 1884SOL     OW 1298   1.975   2.599   1.597
 1884SOL    HW1 1299   2.063   2.586   1.642
 1884SOL    HW2 1300   1.962   2.696   1.575
 1886SOL     OW 1301   3.155   3.090   1.423
 1886SOL    HW1 1302   3.192   3.017   1.365
 1886SOL    HW2 1303   3.207   3.095   1.508
 1888SOL     OW 1304   2.059   2.838   1.264
 1888SOL    HW1 1305   2.148   2.793   1.250
 1888SOL    HW2 1306   1.986   2.773   1.245
 1890SOL     OW 1307   3.049   3.654   1.616
 1890SOL    HW1 1308   3.073   3.714   1.540
 1890SOL    HW2 1309   3.056   3.559   1.586
 1891SOL     OW 1310   2.179   2.113   1.801
 1891SOL    HW1 1311   2.250   2.184   1.807
 1891SOL    HW2 1312   2.091   2.152   1.829
 1895SOL     OW 1313   3.143   2.207   0.944
 1895SOL    HW1 1314   3.057   2.157   0.931
 1895SOL    HW2 1315   3.205   2.153   1.000
 1897SOL     OW 1316   2.669   2.467   1.465
 1897SOL    HW1 1317   2.622   2.464   1.554
 1897SOL    HW2 1318   2.618   2.412   1.399
 1898SOL     OW 1319   3.256   2.331   1.674
 1898SOL    HW1 1320   3.236   2.374   1.762
 1898SOL    HW2 1321   3.334   2.269   1.683
 1899SOL     OW 1322   2.835   2.752   1.572
 1899SOL    HW1 1323   2.881   2.668   1.543
 1899SOL    HW2 1324   2.779   2.786   1.497
 1900SOL     OW 1325   2.853   2.272   1.242
 1900SOL    HW1 1326   2.776   2.306   1.296
 1900SOL    HW2 1327   2.819   2.221   1.163
 1902SOL     OW 1328   1.938   2.673   0.789
 1902SOL    HW1 1329   2.037   2.661   0.798
 1902SOL    HW2 1330   1.914   2.768   0.810
 1903SOL     OW 1331   1.992   3.683   1.571
 1903SOL    HW1 1332   1.982   3.668   1.670
 1903SOL    HW2 1333   1.906   3.719   1.535
 1905SOL     OW 1334   3.581   2.447   1.831
 1905SOL    HW1 1335   3.555   2.536   1.795
 1905SOL    HW2 1336   3.579   2.379   1.758
 1907SOL     OW 1337   2.412   2.058   0.885
 1907SOL    HW1 1338   2.407   2.053   0.985
 1907SOL    HW2 1339   2.414   2.154   0.856
 1911SOL     OW 1340   3.089   3.412   1.506
 1911SOL    HW1 1341   3.095   3.335   1.570
 1911SOL    HW2 1342   3.037   3.386   1.426
 1914SOL     OW 1343   2.323   3.128   1.727
 1914SOL    HW1 1344   2.273   3.129   1.641
 1914SOL    HW2 1345   2.260   3.110   1.803
 1916SOL     OW 1346   2.064   2.147   1.498
 1916SOL    HW1 1347   1.984   2.207   1.485
 1916SOL    HW2 1348   2.054   2.098   1.584
 1920SOL     OW 1349   2.111   3.647   1.241
 1920SOL    HW1 1350   2.168   3.582   1.291
 1920SOL    HW2 1351   2.095   3.614   1.148
 1923SOL     OW 1352   3.409   2.084   1.729
 1923SOL    HW1 1353   3.404   2.121   1.821
 1923SOL    HW2 1354   3.337   2.015   1.717
 1924SOL     OW 1355   2.643   2.126   1.749
 1924SOL    HW1 1356   2.710   2.065   1.792
 1924SOL    HW2 1357   2.570   2.145   1.814
 1925SOL     OW 1358   2.750   3.376   1.195
 1925SOL    HW1 1359   2.727   3.351   1.101
 1925SOL    HW2 1360   2.811   3.307   1.234
 1926SOL     OW 1361   3.213   2.452   1.433
 1926SOL    HW1 1362   3.241   2.409   1.518
 1926SOL    HW2 1363   3.238   2.548   1.434
 1927SOL     OW 1364   2.665   3.264   0.924
 1927SOL    HW1 1365   2.755   3.278   0.882
 1927SOL    HW2 1366   2.594   3.266   0.853
 1928SOL     OW 1367   2.784   2.365   0.899
 1928SOL    HW1 1368   2.759   2.356   0.803
 1928SOL    HW2 1369   2.832   2.283   0.930
 1933SOL     OW 1370   2.938   2.545   1.464
 1933SOL    HW1 1371   2.858   2.484   1.467
 1933SOL    HW2 1372   3.019   2.492   1.440
 1935SOL     OW 1373   2.321   3.014   0.741
 1935SOL    HW1 1374   2.250   2.987   0.806
 1935SOL    HW2 1375   2.295   2.986   0.648
 1938SOL     OW 1376   1.940   2.418   1.386
 1938SOL    HW1 1377   2.032   2.417   1.345
 1938SOL    HW2 1378   1.934   2.492   1.453
 1939SOL     OW 1379   2.423   2.084   1.147
 1939SOL    HW1 1380   2.461   2.000   1.184
 1939SOL    HW2 1381   2.335   2.103   1.191
 1940SOL     OW 1382   2.728   2.316   0.642
 1940SOL    HW1 1383   2.696   2.388   0.580
 1940SOL    HW2 1384   2.752   2.235   0.589
 1941SOL     OW 1385   2.879   1.901   0.753
 1941SOL    HW1 1386   2.807   1.906   0.684
 1941SOL    HW2 1387   2.855   1.832   0.822
 1943SOL     OW 1388   3.328   2.452   0.992
 1943SOL    HW1 1389   3.298   2.357   0.999
 1943SOL    HW2 1390   3.401   2.468   1.058
 1949SOL     OW 1391   3.616   3.085   1.588
 1949SOL    HW1 1392   3.707   3.046   1.575
 1949SOL    HW2 1393   3.624   3.181   1.612
 1950SOL     OW 1394   2.926   3.209   1.340
 1950SOL    HW1 1395   2.846   3.186   1.395
 1950SOL    HW2 1396   3.009   3.183   1.389
 1951SOL     OW 1397   3.454   3.491   1.625
 1951SOL    HW1 1398   3.481   3.525   1.535
 1951SOL    HW2 1399   3.533   3.453   1.671
 1952SOL     OW 1400   2.973   3.057   1.100
 1952SOL    HW1 1401   2.933   3.101   1.181
 1952SOL    HW2 1402   2.932   3.094   1.017
 1954SOL     OW 1403   2.777   1.951   1.402
 1954SOL    HW1 1404   2.802   1.931   1.307
 1954SOL    HW2 1405   2.849   2.007   1.444
 1955SOL     OW 1406   2.842   2.978   1.719
 1955SOL    HW1 1407   2.743   2.984   1.729
 1955SOL    HW2 1408   2.865   2.898   1.663
 1957SOL     OW 1409   2.272   2.675   1.251
 1957SOL    HW1 1410   2.358   2.687   1.301
 1957SOL    HW2 1411   2.230   2.588   1.278
 1958SOL     OW 1412   3.136   2.248   1.262
 1958SOL    HW1 1413   3.157   2.322   1.326
 1958SOL    HW2 1414   3.047   2.265   1.219
 1959SOL     OW 1415   1.926   3.426   1.331
 1959SOL    HW1 1416   1.880   3.508   1.297
 1959SOL    HW2 1417   2.024   3.445   1.340
 1961SOL     OW 1418   2.428   2.399   0.865
 1961SOL    HW1 1419   2.440   2.465   0.791
 1961SOL    HW2 1420   2.474   2.433   0.948
 1963SOL     OW 1421   3.134   3.307   1.142
 1963SOL    HW1 1422   3.181   3.320   1.229
 1963SOL    HW2 1423   3.068   3.233   1.151
 1965SOL     OW 1424   2.216   3.372   1.329
 1965SOL    HW1 1425   2.195   3.328   1.242
 1965SOL    HW2 1426   2.313   3.398   1.332
 1966SOL     OW 1427   2.264   2.613   1.598
 1966SOL    HW1 1428   2.332   2.668   1.551
 1966SOL    HW2 1429   2.304   2.525   1.625
 1967SOL     OW 1430   3.449   2.641   1.670
 1967SOL    HW1 1431   3.357   2.679   1.665
 1967SOL    HW2 1432   3.509   2.688   1.605
 1968SOL     OW 1433   2.875   1.967   1.770
 1968SOL    HW1 1434   2.881   2.052   1.718
 1968SOL    HW2 1435   2.907   1.891   1.713
 1969SOL     OW 1436   2.366   1.912   1.740
 1969SOL    HW1 1437   2.324   1.855   1.670
 1969SOL    HW2 1438   2.300   1.981   1.772
 1970SOL     OW 1439   2.435   2.732   1.029
 1970SOL    HW1 1440   2.479   2.821   1.020
 1970SOL    HW2 1441   2.372   2.732   1.106
 1971SOL     OW 1442   3.222   2.724   1.045
 1971SOL    HW1 1443   3.147   2.724   0.979
 1971SOL    HW2 1444   3.259   2.632   1.054
 1973SOL     OW 1445   2.169   2.075   1.231
 1973SOL    HW1 1446   2.146   2.112   1.321
 1973SOL    HW2 1447   2.139   1.980   1.225
 1974SOL     OW 1448   1.899   3.172   1.282
 1974SOL    HW1 1449   1.952   3.123   1.350
 1974SOL    HW2 1450   1.921   3.270   1.287
 1975SOL     OW 1451   2.594   2.496   1.064
 1975SOL    HW1 1452   2.653   2.470   0.988
 1975SOL    HW2 1453   2.566   2.592   1.053
 1976SOL     OW 1454   3.590   2.797   1.854
 1976SOL    HW1 1455   3.544   2.790   1.765
 1976SOL    HW2 1456   3.528   2.841   1.920
 1977SOL     OW 1457   2.169   1.925   0.618
 1977SOL    HW1 1458   2.158   2.019   0.651
 1977SOL    HW2 1459   2.164   1.862   0.695
 1979SOL     OW 1460   2.885   2.628   0.966
 1979SOL    HW1 1461   2.900   2.649   1.062
 1979SOL    HW2 1462   2.855   2.533   0.957
 1980SOL     OW 1463   2.842   3.435   1.700
 1980SOL    HW1 1464   2.822   3.479   1.612
 1980SOL    HW2 1465   2.881   3.344   1.684
 1982SOL     OW 1466   2.212   2.760   1.804
 1982SOL    HW1 1467   2.288   2.804   1.852
 1982SOL    HW2 1468   2.247   2.713   1.722
 1986SOL     OW 1469   2.181   2.672   0.949
 1986SOL    HW1 1470   2.274   2.708   0.954
 1986SOL    HW2 1471   2.175   2.587   1.001
 1987SOL     OW 1472   2.201   2.371   1.006
 1987SOL    HW1 1473   2.149   2.288   0.989
 1987SOL    HW2 1474   2.278   2.376   0.942
 1988SOL     OW 1475   3.000   2.242   1.678
 1988SOL    HW1 1476   2.955   2.305   1.742
 1988SOL    HW2 1477   3.093   2.273   1.661
 1989SOL     OW 1478   3.022   2.069   1.477
 1989SOL    HW1 1479   3.022   2.133   1.554
 1989SOL    HW2 1480   3.050   2.117   1.394
 1992SOL     OW 1481   2.366   3.430   0.910
 1992SOL    HW1 1482   2.432   3.504   0.919
 1992SOL    HW2 1483   2.410   3.351   0.868
 1993SOL     OW 1484   2.864   2.658   1.238
 1993SOL    HW1 1485   2.905   2.626   1.324
 1993SOL    HW2 1486   2.768   2.631   1.235
 1994SOL     OW 1487   1.902   2.406   1.114
 1994SOL    HW1 1488   1.987   2.373   1.073
 1994SOL    HW2 1489   1.915   2.421   1.212
 1995SOL     OW 1490   2.051   2.382   1.722
 1995SOL    HW1 1491   2.110   2.342   1.652
 1995SOL    HW2 1492   1.993   2.453   1.681
 1996SOL     OW 1493   3.231   2.812   1.660
 1996SOL    HW1 1494   3.270   2.901   1.680
 1996SOL    HW2 1495   3.241   2.792   1.563
 1998SOL     OW 1496   3.519   2.466   1.206
 1998SOL    HW1 1497   3.481   2.397   1.268
 1998SOL    HW2 1498   3.601   2.430   1.162
 1999SOL     OW 1499   2.114   3.426   1.744
 1999SOL    HW1 1500   2.084   3.483   1.820
 1999SOL    HW2 1501   2.107   3.329   1.770
 2000SOL     OW 1502   2.533   2.326   1.269
 2000SOL    HW1 1503   2.499   2.237   1.239
 2000SOL    HW2 1504   2.559   2.380   1.189
 2001SOL     OW 1505   2.792   3.540   1.465
 2001SOL    HW1 1506   2.768   3.522   1.370
 2001SOL    HW2 1507   2.822   3.634   1.475
 2003SOL     OW 1508   2.021   2.999   1.466
 2003SOL    HW1 1509   2.043   2.938   1.542
 2003SOL    HW2 1510   2.031   2.950   1.380
 2004SOL     OW 1511   3.209   2.921   1.234
 2004SOL    HW1 1512   3.233   2.858   1.160
 2004SOL    HW2 1513   3.119   2.961   1.216
 2008SOL     OW 1514   1.945   3.120   1.022
 2008SOL    HW1 1515   1.940   3.119   1.122
 2008SOL    HW2 1516   1.862   3.079   0.984
 2009SOL     OW 1517   2.550   3.524   1.716
 2009SOL    HW1 1518   2.494   3.605   1.725
 2009SOL    HW2 1519   2.602   3.528   1.630
 2013SOL     OW 1520   1.992   3.656   1.851
 2013SOL    HW1 1521   1.951   3.582   1.904
 2013SOL    HW2 1522   2.056   3.707   1.909
 2015SOL     OW 1523   2.692   3.135   1.422
 2015SOL    HW1 1524   2.687   3.168   1.517
 2015SOL    HW2 1525   2.606   3.154   1.376
 2019SOL     OW 1526   2.125   2.188   0.720
 2019SOL    HW1 1527   2.046   2.239   0.686
 2019SOL    HW2 1528   2.116   2.173   0.818
 2021SOL     OW 1529   2.684   2.864   1.372
 2021SOL    HW1 1530   2.724   2.863   1.280
 2021SOL    HW2 1531   2.694   2.956   1.412
 2024SOL     OW 1532   2.234   3.150   1.490
 2024SOL    HW1 1533   2.221   3.243   1.456
 2024SOL    HW2 1534   2.150   3.098   1.477
 2025SOL     OW 1535   3.476   3.154   1.289
 2025SOL    HW1 1536   3.536   3.157   1.369
 2025SOL    HW2 1537   3.401   3.218   1.302
 2027SOL     OW 1538   2.876   2.098   0.971
 2027SOL    HW1 1539   2.868   2.062   0.878
 2027SOL    HW2 1540   2.874   2.022   1.036
 2029SOL     OW 1541   3.571   2.247   1.381
 2029SOL    HW1 1542   3.644   2.316   1.385
 2029SOL    HW2 1543   3.599   2.172   1.322
 2031SOL     OW 1544   1.967   2.875   1.726
 2031SOL    HW1 1545   1.890   2.842   1.780
 2031SOL    HW2 1546   2.052   2.845   1.768
 2032SOL     OW 1547   2.534   2.065   1.489
 2032SOL    HW1 1548   2.624   2.049   1.449
 2032SOL    HW2 1549   2.542   2.070   1.588
 2033SOL     OW 1550   3.302   2.718   1.398
 2033SOL    HW1 1551   3.245   2.770   1.335
 2033SOL    HW2 1552   3.398   2.730   1.374
 2036SOL     OW 1553   2.475   2.704   1.431
 2036SOL    HW1 1554   2.531   2.785   1.414
 2036SOL    HW2 1555   2.534   2.624   1.434
 2038SOL     OW 1556   2.578   2.427   1.708
 2038SOL    HW1 1557   2.597   2.492   1.782
 2038SOL    HW2 1558   2.638   2.347   1.717
 2039SOL     OW 1559   3.312   3.082   1.633
 2039SOL    HW1 1560   3.303   3.072   1.732
 2039SOL    HW2 1561   3.408   3.075   1.607
 2040SOL     OW 1562   2.252   3.603   1.560
 2040SOL    HW1 1563   2.161   3.644   1.558
 2040SOL    HW2 1564   2.245   3.509   1.592
 2041SOL     OW 1565   3.536   2.745   1.254
 2041SOL    HW1 1566   3.509   2.656   1.217
 2041SOL    HW2 1567   3.537   2.813   1.181
 2043SOL     OW 1568   2.456   2.607   0.652
 2043SOL    HW1 1569   2.506   2.692   0.633
 2043SOL    HW2 1570   2.368   2.609   0.604
 2044SOL     OW 1571   3.639   2.204   1.642
 2044SOL    HW1 1572   3.622   2.235   1.548
 2044SOL    HW2 1573   3.555   2.167   1.680
 2045SOL     OW 1574   3.592   2.796   1.517
 2045SOL    HW1 1575   3.630   2.887   1.532
 2045SOL    HW2 1576   3.584   2.779   1.418
 2048SOL     OW 1577   2.721   2.818   0.861
 2048SOL    HW1 1578   2.775   2.749   0.909
 2048SOL    HW2 1579   2.689   2.887   0.927
 2051SOL     OW 1580   2.083   3.176   1.844
 2051SOL    HW1 1581   2.018   3.103   1.823
 2051SOL    HW2 1582   2.087   3.190   1.942
 2053SOL     OW 1583   2.534   3.253   1.624
 2053SOL    HW1 1584   2.456   3.203   1.662
 2053SOL    HW2 1585   2.531   3.348   1.655
 2054SOL     OW 1586   3.686   2.054   1.227
 2054SOL    HW1 1587   3.682   1.964   1.271
 2054SOL    HW2 1588   3.689   2.043   1.128
 2057SOL     OW 1589   2.179   2.409   1.280
 2057SOL    HW1 1590   2.217   2.350   1.352
 2057SOL    HW2 1591   2.219   2.383   1.192
 2059SOL     OW 1592   3.286   2.076   1.112
 2059SOL    HW1 1593   3.338   2.011   1.167
 2059SOL    HW2 1594   3.237   2.139   1.173
 2060SOL     OW 1595   2.863   1.896   1.154
 2060SOL    HW1 1596   2.800   1.824   1.123
 2060SOL    HW2 1597   2.956   1.860   1.154
 2062SOL     OW 1598   2.480   3.429   1.284
 2062SOL    HW1 1599   2.475   3.511   1.341
 2062SOL    HW2 1600   2.569   3.426   1.239
 2068SOL     OW 1601   2.092   2.490   1.975
 2068SOL    HW1 1602   1.999   2.488   2.012
 2068SOL    HW2 1603   2.093   2.451   1.883
 2069SOL     OW 1604   2.087   2.137   2.858
 2069SOL    HW1 1605   2.122   2.120   2.950
 2069SOL    HW2 1606   1.999   2.092   2.846
 2070SOL     OW 1607   1.881   2.230   2.509
 2070SOL    HW1 1608   1.799   2.273   2.548
 2070SOL    HW2 1609   1.853   2.157   2.446
 2071SOL     OW 1610   2.431   3.137   3.027
 2071SOL    HW1 1611   2.338   3.130   2.990
 2071SOL    HW2 1612   2.442   3.226   3.071
 2072SOL     OW 1613   3.417   3.373   2.565
 2072SOL    HW1 1614   3.360   3.357   2.646
 2072SOL    HW2 1615   3.358   3.383   2.485
 2073SOL     OW 1616   2.997   2.565   2.579
 2073SOL    HW1 1617   3.054   2.643   2.554
 2073SOL    HW2 1618   2.937   2.591   2.655
 2074SOL     OW 1619   3.617   2.469   2.093
 2074SOL    HW1 1620   3.605   2.456   1.994
 2074SOL    HW2 1621   3.587   2.388   2.142
 2075SOL     OW 1622   2.630   3.006   2.885
 2075SOL    HW1 1623   2.552   3.023   2.945
 2075SOL    HW2 1624   2.664   3.093   2.849
 2076SOL     OW 1625   2.712   2.660   3.685
 2076SOL    HW1 1626   2.708   2.736   3.750
 2076SOL    HW2 1627   2.734   2.696   3.594
 2077SOL     OW 1628   2.547   2.874   2.527
 2077SOL    HW1 1629   2.616   2.858   2.597
 2077SOL    HW2 1630   2.474   2.931   2.565
 2078SOL     OW 1631   2.548   3.023   3.665
 2078SOL    HW1 1632   2.608   3.102   3.679
 2078SOL    HW2 1633   2.462   3.054   3.624
 2079SOL     OW 1634   2.197   3.297   2.923
 2079SOL    HW1 1635   2.119   3.266   2.870
 2079SOL    HW2 1636   2.255   3.355   2.866
 2080SOL     OW 1637   3.322   3.367   3.201
 2080SOL    HW1 1638   3.346   3.461   3.227
 2080SOL    HW2 1639   3.306   3.313   3.283
 2081SOL     OW 1640   2.300   2.254   3.361
 2081SOL    HW1 1641   2.382   2.198   3.370
 2081SOL    HW2 1642   2.219   2.196   3.365
 2082SOL     OW 1643   3.465   2.309   2.599
 2082SOL    HW1 1644   3.391   2.355   2.549
 2082SOL    HW2 1645   3.516   2.377   2.652
 2083SOL     OW 1646   2.093   3.575   2.345
 2083SOL    HW1 1647   2.127   3.652   2.399
 2083SOL    HW2 1648   2.137   3.575   2.255
 2084SOL     OW 1649   2.989   3.203   3.552
 2084SOL    HW1 1650   3.036   3.203   3.640
 2084SOL    HW2 1651   2.941   3.116   3.541
 2085SOL     OW 1652   2.092   3.296   2.400
 2085SOL    HW1 1653   2.066   3.392   2.400
 2085SOL    HW2 1654   2.021   3.242   2.445
 2086SOL     OW 1655   2.102   2.953   2.748
 2086SOL    HW1 1656   2.116   2.869   2.800
 2086SOL    HW2 1657   2.047   3.017   2.803
 2087SOL     OW 1658   2.482   3.648   3.301
 2087SOL    HW1 1659   2.390   3.631   3.336
 2087SOL    HW2 1660   2.510   3.740   3.327
 2088SOL     OW 1661   2.468   2.826   1.985
 2088SOL    HW1 1662   2.475   2.910   1.931
 2088SOL    HW2 1663   2.514   2.839   2.073
 2089SOL     OW 1664   3.456   1.976   3.342
 2089SOL    HW1 1665   3.438   2.043   3.270
 2089SOL    HW2 1666   3.453   2.022   3.431
 2091SOL     OW 1667   1.889   3.458   1.979
 2091SOL    HW1 1668   1.870   3.362   2.000
 2091SOL    HW2 1669   1.856   3.516   2.054
 2092SOL     OW 1670   3.551   2.784   2.474
 2092SOL    HW1 1671   3.646   2.755   2.482
 2092SOL    HW2 1672   3.543   2.849   2.399
 2093SOL     OW 1673   3.503   2.970   2.294
 2093SOL    HW1 1674   3.589   2.972   2.242
 2093SOL    HW2 1675   3.517   3.017   2.382
 2094SOL     OW 1676   1.975   2.599   3.459
 2094SOL    HW1 1677   2.063   2.586   3.504
 2094SOL    HW2 1678   1.962   2.696   3.437
 2095SOL     OW 1679   2.475   3.227   2.588
 2095SOL    HW1 1680   2.426   3.140   2.597
 2095SOL    HW2 1681   2.452   3.270   2.501
 2096SOL     OW 1682   3.155   3.090   3.285
 2096SOL    HW1 1683   3.192   3.017   3.227
 2096SOL    HW2 1684   3.207   3.095   3.370
 2097SOL     OW 1685   2.671   1.866   2.364
 2097SOL    HW1 1686   2.711   1.957   2.355
 2097SOL    HW2 1687   2.571   1.874   2.370
 2098SOL     OW 1688   2.059   2.838   3.126
 2098SOL    HW1 1689   2.148   2.793   3.112
 2098SOL    HW2 1690   1.986   2.773   3.107
 2099SOL     OW 1691   3.387   2.861   2.052
 2099SOL    HW1 1692   3.324   2.785   2.065
 2099SOL    HW2 1693   3.435   2.879   2.138
 2101SOL     OW 1694   2.179   2.113   3.663
 2101SOL    HW1 1695   2.250   2.184   3.669
 2101SOL    HW2 1696   2.091   2.152   3.691
 2102SOL     OW 1697   3.328   3.279   2.815
 2102SOL    HW1 1698   3.269   3.285   2.895
 2102SOL    HW2 1699   3.313   3.191   2.769
 2103SOL     OW 1700   3.529   3.576   2.434
 2103SOL    HW1 1701   3.488   3.553   2.346
 2103SOL    HW2 1702   3.511   3.502   2.499
 2104SOL     OW 1703   3.143   2.207   2.806
 2104SOL    HW1 1704   3.057   2.157   2.793
 2104SOL    HW2 1705   3.205   2.153   2.862
 2105SOL     OW 1706   3.438   3.524   2.169
 2105SOL    HW1 1707   3.527   3.570   2.172
 2105SOL    HW2 1708   3.417   3.500   2.074
 2106SOL     OW 1709   2.669   2.467   3.327
 2106SOL    HW1 1710   2.622   2.464   3.416
 2106SOL    HW2 1711   2.618   2.412   3.261
 2107SOL     OW 1712   3.256   2.331   3.536
 2107SOL    HW1 1713   3.236   2.374   3.624
 2107SOL    HW2 1714   3.334   2.269   3.545
 2108SOL     OW 1715   2.835   2.752   3.434
 2108SOL    HW1 1716   2.881   2.668   3.405
 2108SOL    HW2 1717   2.779   2.786   3.359
 2109SOL     OW 1718   2.853   2.272   3.104
 2109SOL    HW1 1719   2.776   2.306   3.158
 2109SOL    HW2 1720   2.819   2.221   3.025
 2110SOL     OW 1721   2.903   2.563   2.291
 2110SOL    HW1 1722   2.929   2.559   2.387
 2110SOL    HW2 1723   2.818   2.512   2.277
 2111SOL     OW 1724   1.938   2.673   2.651
 2111SOL    HW1 1725   2.037   2.661   2.660
 2111SOL    HW2 1726   1.914   2.768   2.672
 2112SOL     OW 1727   1.992   3.683   3.433
 2112SOL    HW1 1728   1.982   3.668   3.532
 2112SOL    HW2 1729   1.906   3.719   3.397
 2113SOL     OW 1730   2.727   2.210   2.057
 2113SOL    HW1 1731   2.786   2.273   2.008
 2113SOL    HW2 1732   2.746   2.116   2.028
 2115SOL     OW 1733   3.224   3.006   2.407
 2115SOL    HW1 1734   3.307   2.977   2.359
 2115SOL    HW2 1735   3.175   3.073   2.351
 2116SOL     OW 1736   2.412   2.058   2.747
 2116SOL    HW1 1737   2.407   2.053   2.847
 2116SOL    HW2 1738   2.414   2.154   2.718
 2117SOL     OW 1739   2.870   3.318   2.339
 2117SOL    HW1 1740   2.824   3.390   2.287
 2117SOL    HW2 1741   2.866   3.338   2.437
 2118SOL     OW 1742   2.213   3.663   2.715
 2118SOL    HW1 1743   2.263   3.577   2.721
 2118SOL    HW2 1744   2.278   3.740   2.712
 2119SOL     OW 1745   3.657   2.928   2.735
 2119SOL    HW1 1746   3.595   2.913   2.659
 2119SOL    HW2 1747   3.605   2.939   2.820
 2120SOL     OW 1748   3.089   3.412   3.368
 2120SOL    HW1 1749   3.095   3.335   3.432
 2120SOL    HW2 1750   3.037   3.386   3.288
 2121SOL     OW 1751   2.183   2.805   2.104
 2121SOL    HW1 1752   2.265   2.844   2.062
 2121SOL    HW2 1753   2.156   2.723   2.055
 2122SOL     OW 1754   3.320   2.597   2.590
 2122SOL    HW1 1755   3.315   2.532   2.665
 2122SOL    HW2 1756   3.400   2.656   2.603
 2123SOL     OW 1757   2.323   3.128   3.589
 2123SOL    HW1 1758   2.273   3.129   3.503
 2123SOL    HW2 1759   2.260   3.110   3.665
 2124SOL     OW 1760   2.973   3.638   2.099
 2124SOL    HW1 1761   2.913   3.576   2.149
 2124SOL    HW2 1762   3.004   3.594   2.014
 2125SOL     OW 1763   2.064   2.147   3.360
 2125SOL    HW1 1764   1.984   2.207   3.347
 2125SOL    HW2 1765   2.054   2.098   3.446
 2126SOL     OW 1766   3.494   3.239   1.943
 2126SOL    HW1 1767   3.462   3.333   1.933
 2126SOL    HW2 1768   3.418   3.176   1.931
 2127SOL     OW 1769   2.326   3.605   2.185
 2127SOL    HW1 1770   2.359   3.644   2.271
 2127SOL    HW2 1771   2.402   3.598   2.120
 2128SOL     OW 1772   3.262   1.969   2.288
 2128SOL    HW1 1773   3.238   1.932   2.198
 2128SOL    HW2 1774   3.361   1.985   2.292
 2129SOL     OW 1775   2.111   3.647   3.103
 2129SOL    HW1 1776   2.168   3.582   3.153
 2129SOL    HW2 1777   2.095   3.614   3.010
 2130SOL     OW 1778   2.802   3.560   2.766
 2130SOL    HW1 1779   2.882   3.503   2.787
 2130SOL    HW2 1780   2.753   3.520   2.689
 2131SOL     OW 1781   3.409   2.084   3.591
 2131SOL    HW1 1782   3.404   2.121   3.683
 2131SOL    HW2 1783   3.337   2.015   3.579
 2132SOL     OW 1784   2.476   1.984   1.979
 2132SOL    HW1 1785   2.574   1.962   1.986
 2132SOL    HW2 1786   2.445   1.967   1.886
 2133SOL     OW 1787   2.643   2.126   3.611
 2133SOL    HW1 1788   2.710   2.065   3.654
 2133SOL    HW2 1789   2.570   2.145   3.676
 2134SOL     OW 1790   2.750   3.376   3.057
 2134SOL    HW1 1791   2.727   3.351   2.963
 2134SOL    HW2 1792   2.811   3.307   3.096
 2135SOL     OW 1793   3.213   2.452   3.295
 2135SOL    HW1 1794   3.241   2.409   3.380
 2135SOL    HW2 1795   3.238   2.548   3.296
 2136SOL     OW 1796   2.665   3.264   2.786
 2136SOL    HW1 1797   2.755   3.278   2.744
 2136SOL    HW2 1798   2.594   3.266   2.715
 2137SOL     OW 1799   2.784   2.365   2.761
 2137SOL    HW1 1800   2.759   2.356   2.665
 2137SOL    HW2 1801   2.832   2.283   2.792
 2138SOL     OW 1802   3.296   3.050   1.903
 2138SOL    HW1 1803   3.328   2.974   1.960
 2138SOL    HW2 1804   3.204   3.077   1.933
 2139SOL     OW 1805   2.159   1.897   2.033
 2139SOL    HW1 1806   2.208   1.981   2.012
 2139SOL    HW2 1807   2.221   1.832   2.078
 2140SOL     OW 1808   2.797   2.098   2.342
 2140SOL    HW1 1809   2.749   2.139   2.264
 2140SOL    HW2 1810   2.896   2.096   2.323
 2141SOL     OW 1811   2.938   2.545   3.326
 2141SOL    HW1 1812   2.858   2.484   3.329
 2141SOL    HW2 1813   3.019   2.492   3.302
 2142SOL     OW 1814   3.089   3.432   2.655
 2142SOL    HW1 1815   3.110   3.506   2.590
 2142SOL    HW2 1816   3.157   3.432   2.728
 2143SOL     OW 1817   2.321   3.014   2.603
 2143SOL    HW1 1818   2.250   2.987   2.668
 2143SOL    HW2 1819   2.295   2.986   2.510
 2144SOL     OW 1820   3.133   3.659   2.453
 2144SOL    HW1 1821   3.177   3.723   2.389
 2144SOL    HW2 1822   3.083   3.711   2.523
 2145SOL     OW 1823   2.894   2.411   1.878
 2145SOL    HW1 1824   2.853   2.493   1.839
 2145SOL    HW2 1825   2.958   2.437   1.951
 2146SOL     OW 1826   1.940   2.418   3.248
 2146SOL    HW1 1827   2.032   2.417   3.207
 2146SOL    HW2 1828   1.934   2.492   3.315
 2147SOL     OW 1829   2.423   2.084   3.009
 2147SOL    HW1 1830   2.461   2.000   3.046
 2147SOL    HW2 1831   2.335   2.103   3.053
 2148SOL     OW 1832   2.728   2.316   2.504
 2148SOL    HW1 1833   2.696   2.388   2.442
 2148SOL    HW2 1834   2.752   2.235   2.451
 2149SOL     OW 1835   2.879   1.901   2.615
 2149SOL    HW1 1836   2.807   1.906   2.546
 2149SOL    HW2 1837   2.855   1.832   2.684
 2150SOL     OW 1838   3.291   3.035   2.729
 2150SOL    HW1 1839   3.236   2.951   2.722
 2150SOL    HW2 1840   3.317   3.064   2.637
 2151SOL     OW 1841   3.328   2.452   2.854
 2151SOL    HW1 1842   3.298   2.357   2.861
 2151SOL    HW2 1843   3.401   2.468   2.920
 2152SOL     OW 1844   3.719   2.695   2.239
 2152SOL    HW1 1845   3.761   2.631   2.303
 2152SOL    HW2 1846   3.681   2.644   2.161
 2153SOL     OW 1847   2.350   3.247   2.036
 2153SOL    HW1 1848   2.263   3.232   2.083
 2153SOL    HW2 1849   2.333   3.273   1.941
 2154SOL     OW 1850   3.526   3.142   2.519
 2154SOL    HW1 1851   3.625   3.150   2.533
 2154SOL    HW2 1852   3.481   3.226   2.550
 2155SOL     OW 1853   3.252   2.437   1.940
 2155SOL    HW1 1854   3.198   2.416   2.021
 2155SOL    HW2 1855   3.343   2.396   1.949
 2157SOL     OW 1856   2.926   3.209   3.202
 2157SOL    HW1 1857   2.846   3.186   3.257
 2157SOL    HW2 1858   3.009   3.183   3.251
 2159SOL     OW 1859   2.973   3.057   2.962
 2159SOL    HW1 1860   2.933   3.101   3.043
 2159SOL    HW2 1861   2.932   3.094   2.879
 2160SOL     OW 1862   3.500   2.961   2.941
 2160SOL    HW1 1863   3.505   3.042   3.000
 2160SOL    HW2 1864   3.414   2.963   2.890
 2161SOL     OW 1865   2.777   1.951   3.264
 2161SOL    HW1 1866   2.802   1.931   3.169
 2161SOL    HW2 1867   2.849   2.007   3.306
 2162SOL     OW 1868   2.842   2.978   3.581
 2162SOL    HW1 1869   2.743   2.984   3.591
 2162SOL    HW2 1870   2.865   2.898   3.525
 2163SOL     OW 1871   2.567   2.912   2.230
 2163SOL    HW1 1872   2.553   2.919   2.329
 2163SOL    HW2 1873   2.651   2.861   2.212
 2164SOL     OW 1874   2.272   2.675   3.113
 2164SOL    HW1 1875   2.358   2.687   3.163
 2164SOL    HW2 1876   2.230   2.588   3.140
 2165SOL     OW 1877   3.136   2.248   3.124
 2165SOL    HW1 1878   3.157   2.322   3.188
 2165SOL    HW2 1879   3.047   2.265   3.081
 2166SOL     OW 1880   1.926   3.426   3.193
 2166SOL    HW1 1881   1.880   3.508   3.159
 2166SOL    HW2 1882   2.024   3.445   3.202
 2167SOL     OW 1883   2.229   2.962   2.363
 2167SOL    HW1 1884   2.222   3.045   2.307
 2167SOL    HW2 1885   2.233   2.882   2.303
 2168SOL     OW 1886   3.114   3.210   2.250
 2168SOL    HW1 1887   3.164   3.287   2.290
 2168SOL    HW2 1888   3.019   3.212   2.282
 2169SOL     OW 1889   3.134   3.307   3.004
 2169SOL    HW1 1890   3.181   3.320   3.091
 2169SOL    HW2 1891   3.068   3.233   3.013
 2170SOL     OW 1892   3.444   2.501   2.334
 2170SOL    HW1 1893   3.413   2.562   2.407
 2170SOL    HW2 1894   3.494   2.553   2.265
 2171SOL     OW 1895   2.216   3.372   3.191
 2171SOL    HW1 1896   2.195   3.328   3.104
 2171SOL    HW2 1897   2.313   3.398   3.194
 2172SOL     OW 1898   2.264   2.613   3.460
 2172SOL    HW1 1899   2.332   2.668   3.413
 2172SOL    HW2 1900   2.304   2.525   3.487
 2173SOL     OW 1901   3.449   2.641   3.532
 2173SOL    HW1 1902   3.357   2.679   3.527
 2173SOL    HW2 1903   3.509   2.688   3.467
 2174SOL     OW 1904   2.875   1.967   3.632
 2174SOL    HW1 1905   2.881   2.052   3.580
 2174SOL    HW2 1906   2.907   1.891   3.575
 2175SOL     OW 1907   2.366   1.912   3.602
 2175SOL    HW1 1908   2.324   1.855   3.532
 2175SOL    HW2 1909   2.300   1.981   3.634
 2176SOL     OW 1910   2.435   2.732   2.891
 2176SOL    HW1 1911   2.479   2.821   2.882
 2176SOL    HW2 1912   2.372   2.732   2.968
 2177SOL     OW 1913   3.222   2.724   2.907
 2177SOL    HW1 1914   3.147   2.724   2.841
 2177SOL    HW2 1915   3.259   2.632   2.916
 2178SOL     OW 1916   3.071   2.387   2.137
 2178SOL    HW1 1917   3.084   2.303   2.191
 2178SOL    HW2 1918   3.042   2.461   2.197
 2179SOL     OW 1919   2.169   2.075   3.093
 2179SOL    HW1 1920   2.146   2.112   3.183
 2179SOL    HW2 1921   2.139   1.980   3.087
 2180SOL     OW 1922   1.899   3.172   3.144
 2180SOL    HW1 1923   1.952   3.123   3.212
 2180SOL    HW2 1924   1.921   3.270   3.149
 2181SOL     OW 1925   2.594   2.496   2.926
 2181SOL    HW1 1926   2.653   2.470   2.850
 2181SOL    HW2 1927   2.566   2.592   2.915
 2183SOL     OW 1928   2.169   1.925   2.480
 2183SOL    HW1 1929   2.158   2.019   2.513
 2183SOL    HW2 1930   2.164   1.862   2.557
 2184SOL     OW 1931   3.484   2.229   2.236
 2184SOL    HW1 1932   3.486   2.153   2.300
 2184SOL    HW2 1933   3.436   2.306   2.276
 2185SOL     OW 1934   2.885   2.628   2.828
 2185SOL    HW1 1935   2.900   2.649   2.924
 2185SOL    HW2 1936   2.855   2.533   2.819
 2186SOL     OW 1937   2.842   3.435   3.562
 2186SOL    HW1 1938   2.822   3.479   3.474
 2186SOL    HW2 1939   2.881   3.344   3.546
 2188SOL     OW 1940   2.212   2.760   3.666
 2188SOL    HW1 1941   2.288   2.804   3.714
 2188SOL    HW2 1942   2.247   2.713   3.584
 2189SOL     OW 1943   3.402   2.136   1.987
 2189SOL    HW1 1944   3.341   2.061   2.010
 2189SOL    HW2 1945   3.424   2.188   2.070
 2190SOL     OW 1946   3.165   2.700   1.904
 2190SOL    HW1 1947   3.199   2.607   1.919
 2190SOL    HW2 1948   3.183   2.727   1.809
 2191SOL     OW 1949   2.930   3.195   2.711
 2191SOL    HW1 1950   2.937   3.111   2.656
 2191SOL    HW2 1951   2.992   3.264   2.675
 2192SOL     OW 1952   2.181   2.672   2.811
 2192SOL    HW1 1953   2.274   2.708   2.816
 2192SOL    HW2 1954   2.175   2.587   2.863
 2193SOL     OW 1955   2.201   2.371   2.868
 2193SOL    HW1 1956   2.149   2.288   2.851
 2193SOL    HW2 1957   2.278   2.376   2.804
 2194SOL     OW 1958   3.000   2.242   3.540
 2194SOL    HW1 1959   2.955   2.305   3.604
 2194SOL    HW2 1960   3.093   2.273   3.523
 2195SOL     OW 1961   3.022   2.069   3.339
 2195SOL    HW1 1962   3.022   2.133   3.416
 2195SOL    HW2 1963   3.050   2.117   3.256
 2196SOL     OW 1964   1.870   3.188   2.062
 2196SOL    HW1 1965   1.777   3.209   2.031
 2196SOL    HW2 1966   1.880   3.089   2.075
 2197SOL     OW 1967   1.950   3.663   2.789
 2197SOL    HW1 1968   1.908   3.577   2.762
 2197SOL    HW2 1969   2.044   3.666   2.755
 2198SOL     OW 1970   2.366   3.430   2.772
 2198SOL    HW1 1971   2.432   3.504   2.781
 2198SOL    HW2 1972   2.410   3.351   2.730
 2199SOL     OW 1973   2.864   2.658   3.100
 2199SOL    HW1 1974   2.905   2.626   3.186
 2199SOL    HW2 1975   2.768   2.631   3.097
 2200SOL     OW 1976   1.902   2.406   2.976
 2200SOL    HW1 1977   1.987   2.373   2.935
 2200SOL    HW2 1978   1.915   2.421   3.074
 2201SOL     OW 1979   2.051   2.382   3.584
 2201SOL    HW1 1980   2.110   2.342   3.514
 2201SOL    HW2 1981   1.993   2.453   3.543
 2202SOL     OW 1982   3.231   2.812   3.522
 2202SOL    HW1 1983   3.270   2.901   3.542
 2202SOL    HW2 1984   3.241   2.792   3.425
 2203SOL     OW 1985   3.519   2.466   3.068
 2203SOL    HW1 1986   3.481   2.397   3.130
 2203SOL    HW2 1987   3.601   2.430   3.024
 2204SOL     OW 1988   2.114   3.426   3.606
 2204SOL    HW1 1989   2.084   3.483   3.682
 2204SOL    HW2 1990   2.107   3.329   3.632
 2205SOL     OW 1991   2.533   2.326   3.131
 2205SOL    HW1 1992   2.499   2.237   3.101
 2205SOL    HW2 1993   2.559   2.380   3.051
 2206SOL     OW 1994   2.792   3.540   3.327
 2206SOL    HW1 1995   2.768   3.522   3.232
 2206SOL    HW2 1996   2.822   3.634   3.337
 2207SOL     OW 1997   2.021   2.999   3.328
 2207SOL    HW1 1998   2.043   2.938   3.404
 2207SOL    HW2 1999   2.031   2.950   3.242
 2208SOL     OW 2000   3.209   2.921   3.096
 2208SOL    HW1 2001   3.233   2.858   3.022
 2208SOL    HW2 2002   3.119   2.961   3.078
 2209SOL     OW 2003   3.164   2.717   2.171
 2209SOL    HW1 2004   3.078   2.686   2.213
 2209SOL    HW2 2005   3.160   2.703   2.072
 2211SOL     OW 2006   3.114   3.593   2.990
 2211SOL    HW1 2007   3.198   3.598   2.936
 2211SOL    HW2 2008   3.091   3.497   3.008
 2212SOL     OW 2009   1.945   3.120   2.884
 2212SOL    HW1 2010   1.940   3.119   2.984
 2212SOL    HW2 2011   1.862   3.079   2.846
 2213SOL     OW 2012   2.550   3.524   3.578
 2213SOL    HW1 2013   2.494   3.605   3.587
 2213SOL    HW2 2014   2.602   3.528   3.492
 2214SOL     OW 2015   3.588   1.997   2.385
 2214SOL    HW1 2016   3.661   1.980   2.318
 2214SOL    HW2 2017   3.557   1.910   2.423
 2215SOL     OW 2018   3.250   3.435   2.339
 2215SOL    HW1 2019   3.317   3.447   2.265
 2215SOL    HW2 2020   3.210   3.524   2.362
 2217SOL     OW 2021   3.142   2.789   2.534
 2217SOL    HW1 2022   3.202   2.708   2.536
 2217SOL    HW2 2023   3.182   2.858   2.474
 2218SOL     OW 2024   2.692   3.135   3.284
 2218SOL    HW1 2025   2.687   3.168   3.379
 2218SOL    HW2 2026   2.606   3.154   3.238
 2219SOL     OW 2027   2.534   3.478   2.016
 2219SOL    HW1 2028   2.543   3.488   1.917
 2219SOL    HW2 2029   2.494   3.389   2.037
 2221SOL     OW 2030   3.703   2.037   2.825
 2221SOL    HW1 2031   3.742   1.952   2.789
 2221SOL    HW2 2032   3.605   2.039   2.806
 2222SOL     OW 2033   3.056   3.474   1.893
 2222SOL    HW1 2034   3.062   3.381   1.930
 2222SOL    HW2 2035   2.997   3.474   1.813
 2223SOL     OW 2036   2.684   2.864   3.234
 2223SOL    HW1 2037   2.724   2.863   3.142
 2223SOL    HW2 2038   2.694   2.956   3.274
 2224SOL     OW 2039   2.778   2.772   2.153
 2224SOL    HW1 2040   2.841   2.810   2.085
 2224SOL    HW2 2041   2.818   2.689   2.192
 2225SOL     OW 2042   3.366   3.469   1.906
 2225SOL    HW1 2043   3.274   3.506   1.913
 2225SOL    HW2 2044   3.404   3.489   1.816
 2226SOL     OW 2045   2.234   3.150   3.352
 2226SOL    HW1 2046   2.221   3.243   3.318
 2226SOL    HW2 2047   2.150   3.098   3.339
 2227SOL     OW 2048   3.476   3.154   3.151
 2227SOL    HW1 2049   3.536   3.157   3.231
 2227SOL    HW2 2050   3.401   3.218   3.164
 2228SOL     OW 2051   2.901   2.960   2.558
 2228SOL    HW1 2052   2.831   2.913   2.612
 2228SOL    HW2 2053   2.960   2.892   2.515
 2229SOL     OW 2054   2.876   2.098   2.833
 2229SOL    HW1 2055   2.868   2.062   2.740
 2229SOL    HW2 2056   2.874   2.022   2.898
 2230SOL     OW 2057   2.452   3.349   2.353
 2230SOL    HW1 2058   2.494   3.291   2.283
 2230SOL    HW2 2059   2.408   3.428   2.309
 2231SOL     OW 2060   3.571   2.247   3.243
 2231SOL    HW1 2061   3.644   2.316   3.247
 2231SOL    HW2 2062   3.599   2.172   3.184
 2232SOL     OW 2063   2.117   3.210   2.152
 2232SOL    HW1 2064   2.021   3.211   2.125
 2232SOL    HW2 2065   2.129   3.263   2.236
 2233SOL     OW 2066   1.967   2.875   3.588
 2233SOL    HW1 2067   1.890   2.842   3.642
 2233SOL    HW2 2068   2.052   2.845   3.630
 2234SOL     OW 2069   2.534   2.065   3.351
 2234SOL    HW1 2070   2.624   2.049   3.311
 2234SOL    HW2 2071   2.542   2.070   3.450
 2235SOL     OW 2072   1.937   2.207   1.895
 2235SOL    HW1 2073   1.845   2.179   1.866
 2235SOL    HW2 2074   1.968   2.284   1.839
 2236SOL     OW 2075   3.302   2.718   3.260
 2236SOL    HW1 2076   3.245   2.770   3.197
 2236SOL    HW2 2077   3.398   2.730   3.236
 2237SOL     OW 2078   1.934   2.028   2.180
 2237SOL    HW1 2079   1.917   2.111   2.126
 2237SOL    HW2 2080   2.024   1.991   2.158
 2238SOL     OW 2081   3.045   3.197   1.981
 2238SOL    HW1 2082   2.946   3.186   1.983
 2238SOL    HW2 2083   3.079   3.212   2.074
 2239SOL     OW 2084   2.475   2.704   3.293
 2239SOL    HW1 2085   2.531   2.785   3.276
 2239SOL    HW2 2086   2.534   2.624   3.296
 2240SOL     OW 2087   3.355   3.629   2.821
 2240SOL    HW1 2088   3.388   3.693   2.752
 2240SOL    HW2 2089   3.421   3.623   2.896
 2241SOL     OW 2090   2.578   2.427   3.570
 2241SOL    HW1 2091   2.597   2.492   3.644
 2241SOL    HW2 2092   2.638   2.347   3.579
 2242SOL     OW 2093   3.312   3.082   3.495
 2242SOL    HW1 2094   3.303   3.072   3.594
 2242SOL    HW2 2095   3.408   3.075   3.469
 2243SOL     OW 2096   2.252   3.603   3.422
 2243SOL    HW1 2097   2.161   3.644   3.420
 2243SOL    HW2 2098   2.245   3.509   3.454
 2244SOL     OW 2099   3.536   2.745   3.116
 2244SOL    HW1 2100   3.509   2.656   3.079
 2244SOL    HW2 2101   3.537   2.813   3.043
 2245SOL     OW 2102   3.087   2.187   2.311
 2245SOL    HW1 2103   3.152   2.113   2.300
 2245SOL    HW2 2104   3.107   2.237   2.395
 2246SOL     OW 2105   3.639   2.204   3.504
 2246SOL    HW1 2106   3.622   2.235   3.410
 2246SOL    HW2 2107   3.555   2.167   3.542
 2247SOL     OW 2108   3.592   2.796   3.379
 2247SOL    HW1 2109   3.630   2.887   3.394
 2247SOL    HW2 2110   3.584   2.779   3.280
 2248SOL     OW 2111   2.721   3.236   1.878
 2248SOL    HW1 2112   2.675   3.251   1.966
 2248SOL    HW2 2113   2.765   3.321   1.848
 2249SOL     OW 2114   2.523   3.652   2.815
 2249SOL    HW1 2115   2.477   3.740   2.802
 2249SOL    HW2 2116   2.622   3.664   2.808
 2250SOL     OW 2117   2.721   2.818   2.723
 2250SOL    HW1 2118   2.775   2.749   2.771
 2250SOL    HW2 2119   2.689   2.887   2.789
 2251SOL     OW 2120   2.945   2.846   1.949
 2251SOL    HW1 2121   2.922   2.899   1.867
 2251SOL    HW2 2122   3.026   2.790   1.930
 2252SOL     OW 2123   3.723   3.431   2.713
 2252SOL    HW1 2124   3.652   3.419   2.643
 2252SOL    HW2 2125   3.724   3.352   2.773
 2253SOL     OW 2126   2.083   3.176   3.706
 2253SOL    HW1 2127   2.018   3.103   3.685
 2253SOL    HW2 2128   2.087   3.190   3.804
 2254SOL     OW 2129   1.941   3.102   2.515
 2254SOL    HW1 2130   1.940   3.055   2.603
 2254SOL    HW2 2131   2.023   3.074   2.464
 2255SOL     OW 2132   2.534   3.253   3.486
 2255SOL    HW1 2133   2.456   3.203   3.524
 2255SOL    HW2 2134   2.531   3.348   3.517
 2256SOL     OW 2135   3.686   2.054   3.089
 2256SOL    HW1 2136   3.682   1.964   3.133
 2256SOL    HW2 2137   3.689   2.043   2.990
 2257SOL     OW 2138   3.567   3.349   2.966
 2257SOL    HW1 2139   3.474   3.324   2.939
 2257SOL    HW2 2140   3.593   3.299   3.048
 2258SOL     OW 2141   2.179   2.409   3.142
 2258SOL    HW1 2142   2.217   2.350   3.214
 2258SOL    HW2 2143   2.219   2.383   3.054
 2259SOL     OW 2144   2.674   3.448   2.549
 2259SOL    HW1 2145   2.706   3.458   2.455
 2259SOL    HW2 2146   2.595   3.386   2.551
 2260SOL     OW 2147   3.286   2.076   2.974
 2260SOL    HW1 2148   3.338   2.011   3.029
 2260SOL    HW2 2149   3.237   2.139   3.035
 2261SOL     OW 2150   2.863   1.896   3.016
 2261SOL    HW1 2151   2.800   1.824   2.985
 2261SOL    HW2 2152   2.956   1.860   3.016
 2262SOL     OW 2153   2.632   3.192   2.163
 2262SOL    HW1 2154   2.586   3.105   2.180
 2262SOL    HW2 2155   2.723   3.189   2.204
 2263SOL     OW 2156   2.480   3.429   3.146
 2263SOL    HW1 2157   2.475   3.511   3.203
 2263SOL    HW2 2158   2.569   3.426   3.101
 2264SOL     OW 2159   3.214   1.914   2.030
 2264SOL    HW1 2160   3.249   1.873   1.946
 2264SOL    HW2 2161   3.124   1.876   2.050
 2265SOL     OW 2162   3.162   2.315   2.553
 2265SOL    HW1 2163   3.103   2.395   2.557
 2265SOL    HW2 2164   3.177   2.280   2.646
 2266SOL     OW 2165   3.455   2.083   2.744
 2266SOL    HW1 2166   3.371   2.082   2.798
 2266SOL    HW2 2167   3.457   2.166   2.688
 2267SOL     OW 2168   1.901   2.939   2.162
 2267SOL    HW1 2169   2.000   2.928   2.153
 2267SOL    HW2 2170   1.861   2.853   2.194
 2268SOL     OW 2171   2.737   3.508   2.199
 2268SOL    HW1 2172   2.660   3.473   2.145
 2268SOL    HW2 2173   2.705   3.579   2.261
 2269SOL     OW 2174   2.092   2.490   3.837
 2269SOL    HW1 2175   1.999   2.488   3.874
 2269SOL    HW2 2176   2.093   2.451   3.745
 2280SOL     OW 2177   2.468   2.826   3.847
 2280SOL    HW1 2178   2.475   2.910   3.793
 2280SOL    HW2 2179   2.514   2.839   3.935
 2291SOL     OW 2180   2.460   2.591   3.994
 2291SOL    HW1 2181   2.484   2.660   3.926
 2291SOL    HW2 2182   2.382   2.624   4.048
 2296SOL     OW 2183   2.727   2.210   3.919
 2296SOL    HW1 2184   2.786   2.273   3.870
 2296SOL    HW2 2185   2.746   2.116   3.890
 2302SOL     OW 2186   2.183   2.805   3.966
 2302SOL    HW1 2187   2.265   2.844   3.924
 2302SOL    HW2 2188   2.156   2.723   3.917
 2309SOL     OW 2189   2.476   1.984   3.841
 2309SOL    HW1 2190   2.574   1.962   3.848
 2309SOL    HW2 2191   2.445   1.967   3.748
 2312SOL     OW 2192   2.159   1.897   3.895
 2312SOL    HW1 2193   2.208   1.981   3.874
 2312SOL    HW2 2194   2.221   1.832   3.940
 2317SOL     OW 2195   2.894   2.411   3.740
 2317SOL    HW1 2196   2.853   2.493   3.701
 2317SOL    HW2 2197   2.958   2.437   3.813
 2321SOL     OW 2198   2.350   3.247   3.898
 2321SOL    HW1 2199   2.263   3.232   3.945
 2321SOL    HW2 2200   2.333   3.273   3.803
 2323SOL     OW 2201   3.252   2.437   3.802
 2323SOL    HW1 2202   3.198   2.416   3.883
 2323SOL    HW2 2203   3.343   2.396   3.811
 2324SOL     OW 2204   2.389   2.118   4.052
 2324SOL    HW1 2205   2.416   2.059   3.977
 2324SOL    HW2 2206   2.389   2.213   4.021
 2335SOL     OW 2207   3.165   2.700   3.766
 2335SOL    HW1 2208   3.199   2.607   3.781
 2335SOL    HW2 2209   3.183   2.727   3.671
 2340SOL     OW 2210   2.677   2.434   4.049
 2340SOL    HW1 2211   2.684   2.345   4.003
 2340SOL    HW2 2212   2.583   2.468   4.041
 2341SOL     OW 2213   2.335   2.362   3.915
 2341SOL    HW1 2214   2.396   2.442   3.919
 2341SOL    HW2 2215   2.240   2.393   3.922
 2351SOL     OW 2216   2.778   2.772   4.015
 2351SOL    HW1 2217   2.841   2.810   3.947
 2351SOL    HW2 2218   2.818   2.689   4.054
 2356SOL     OW 2219   1.937   2.207   3.757
 2356SOL    HW1 2220   1.845   2.179   3.728
 2356SOL    HW2 2221   1.968   2.284   3.701
 2357SOL     OW 2222   1.934   2.028   4.042
 2357SOL    HW1 2223   1.917   2.111   3.988
 2357SOL    HW2 2224   2.024   1.991   4.020
 2361SOL     OW 2225   2.721   3.236   3.740
 2361SOL    HW1 2226   2.675   3.251   3.828
 2361SOL    HW2 2227   2.765   3.321   3.710
 2364SOL     OW 2228   2.945   2.846   3.811
 2364SOL    HW1 2229   2.922   2.899   3.729
 2364SOL    HW2 2230   3.026   2.790   3.792
 2388SOL     OW 2231   2.179   3.975   1.801
 2388SOL    HW1 2232   2.250   4.046   1.807
 2388SOL    HW2 2233   2.091   4.014   1.829
 2405SOL     OW 2234   2.643   3.988   1.749
 2405SOL    HW1 2235   2.710   3.927   1.792
 2405SOL    HW2 2236   2.570   4.007   1.814
 2421SOL     OW 2237   2.777   3.813   1.402
 2421SOL    HW1 2238   2.802   3.793   1.307
 2421SOL    HW2 2239   2.849   3.869   1.444
 2428SOL     OW 2240   2.875   3.829   1.770
 2428SOL    HW1 2241   2.881   3.914   1.718
 2428SOL    HW2 2242   2.907   3.753   1.713
 2429SOL     OW 2243   2.366   3.774   1.740
 2429SOL    HW1 2244   2.324   3.717   1.670
 2429SOL    HW2 2245   2.300   3.843   1.772
 2482SOL     OW 2246   2.087   3.999   2.858
 2482SOL    HW1 2247   2.122   3.982   2.950
 2482SOL    HW2 2248   1.999   3.954   2.846
 2493SOL     OW 2249   2.671   3.728   2.364
 2493SOL    HW1 2250   2.711   3.819   2.355
 2493SOL    HW2 2251   2.571   3.736   2.370
 2503SOL     OW 2252   2.727   4.072   2.057
 2503SOL    HW1 2253   2.786   4.135   2.008
 2503SOL    HW2 2254   2.746   3.978   2.028
 2505SOL     OW 2255   2.412   3.920   2.747
 2505SOL    HW1 2256   2.407   3.915   2.847
 2505SOL    HW2 2257   2.414   4.016   2.718
 2508SOL     OW 2258   3.262   3.831   2.288
 2508SOL    HW1 2259   3.238   3.794   2.198
 2508SOL    HW2 2260   3.361   3.847   2.292
 2511SOL     OW 2261   2.476   3.846   1.979
 2511SOL    HW1 2262   2.574   3.824   1.986
 2511SOL    HW2 2263   2.445   3.829   1.886
 2515SOL     OW 2264   2.401   3.788   2.374
 2515SOL    HW1 2265   2.320   3.789   2.432
 2515SOL    HW2 2266   2.404   3.871   2.319
 2516SOL     OW 2267   2.159   3.759   2.033
 2516SOL    HW1 2268   2.208   3.843   2.012
 2516SOL    HW2 2269   2.221   3.694   2.078
 2517SOL     OW 2270   2.797   3.960   2.342
 2517SOL    HW1 2271   2.749   4.001   2.264
 2517SOL    HW2 2272   2.896   3.958   2.323
 2521SOL     OW 2273   2.423   3.946   3.009
 2521SOL    HW1 2274   2.461   3.862   3.046
 2521SOL    HW2 2275   2.335   3.965   3.053
 2523SOL     OW 2276   2.879   3.763   2.615
 2523SOL    HW1 2277   2.807   3.768   2.546
 2523SOL    HW2 2278   2.855   3.694   2.684
 2527SOL     OW 2279   2.389   3.980   2.190
 2527SOL    HW1 2280   2.416   3.921   2.115
 2527SOL    HW2 2281   2.389   4.075   2.159
 2528SOL     OW 2282   2.777   3.813   3.264
 2528SOL    HW1 2283   2.802   3.793   3.169
 2528SOL    HW2 2284   2.849   3.869   3.306
 2540SOL     OW 2285   2.169   3.937   3.093
 2540SOL    HW1 2286   2.146   3.974   3.183
 2540SOL    HW2 2287   2.139   3.842   3.087
 2543SOL     OW 2288   2.169   3.787   2.480
 2543SOL    HW1 2289   2.158   3.881   2.513
 2543SOL    HW2 2290   2.164   3.724   2.557
 2565SOL     OW 2291   2.125   4.050   2.582
 2565SOL    HW1 2292   2.046   4.101   2.548
 2565SOL    HW2 2293   2.116   4.035   2.680
 2567SOL     OW 2294   2.876   3.960   2.833
 2567SOL    HW1 2295   2.868   3.924   2.740
 2567SOL    HW2 2296   2.874   3.884   2.898
 2573SOL     OW 2297   1.934   3.890   2.180
 2573SOL    HW1 2298   1.917   3.973   2.126
 2573SOL    HW2 2299   2.024   3.853   2.158
 2585SOL     OW 2300   2.863   3.758   3.016
 2585SOL    HW1 2301   2.800   3.686   2.985
 2585SOL    HW2 2302   2.956   3.722   3.016
 2586SOL     OW 2303   3.214   3.776   2.030
 2586SOL    HW1 2304   3.249   3.735   1.946
 2586SOL    HW2 2305   3.124   3.738   2.050
 2667SOL     OW 2306   3.854   1.821   1.571
 2667SOL    HW1 2307   3.844   1.806   1.670
 2667SOL    HW2 2308   3.768   1.857   1.535
 2723SOL     OW 2309   3.854   1.794   1.851
 2723SOL    HW1 2310   3.813   1.720   1.904
 2723SOL    HW2 2311   3.918   1.845   1.909
 2761SOL     OW 2312   3.955   1.713   2.345
 2761SOL    HW1 2313   3.989   1.790   2.399
 2761SOL    HW2 2314   3.999   1.713   2.255
 2767SOL     OW 2315   3.751   1.596   1.979
 2767SOL    HW1 2316   3.732   1.500   2.000
 2767SOL    HW2 2317   3.718   1.654   2.054
 2819SOL     OW 2318   3.732   1.326   2.062
 2819SOL    HW1 2319   3.639   1.347   2.031
 2819SOL    HW2 2320   3.742   1.227   2.075
 2820SOL     OW 2321   3.812   1.801   2.789
 2820SOL    HW1 2322   3.770   1.715   2.762
 2820SOL    HW2 2323   3.906   1.804   2.755
 2934SOL     OW 2324   3.837   2.599   1.597
 2934SOL    HW1 2325   3.925   2.586   1.642
 2934SOL    HW2 2326   3.824   2.696   1.575
 2938SOL     OW 2327   4.041   2.113   1.801
 2938SOL    HW1 2328   4.112   2.184   1.807
 2938SOL    HW2 2329   3.953   2.152   1.829
 2960SOL     OW 2330   3.802   2.418   1.386
 2960SOL    HW1 2331   3.894   2.417   1.345
 2960SOL    HW2 2332   3.796   2.492   1.453
 2988SOL     OW 2333   3.913   2.382   1.722
 2988SOL    HW1 2334   3.972   2.342   1.652
 2988SOL    HW2 2335   3.855   2.453   1.681
 3006SOL     OW 2336   3.829   2.875   1.726
 3006SOL    HW1 2337   3.752   2.842   1.780
 3006SOL    HW2 2338   3.914   2.845   1.768
 3026SOL     OW 2339   3.954   2.490   1.975
 3026SOL    HW1 2340   3.861   2.488   2.012
 3026SOL    HW2 2341   3.955   2.451   1.883
 3027SOL     OW 2342   3.949   2.137   2.858
 3027SOL    HW1 2343   3.984   2.120   2.950
 3027SOL    HW2 2344   3.861   2.092   2.846
 3028SOL     OW 2345   3.743   2.230   2.509
 3028SOL    HW1 2346   3.661   2.273   2.548
 3028SOL    HW2 2347   3.715   2.157   2.446
 3038SOL     OW 2348   3.964   2.953   2.748
 3038SOL    HW1 2349   3.978   2.869   2.800
 3038SOL    HW2 2350   3.909   3.017   2.803
 3041SOL     OW 2351   3.846   2.505   2.425
 3041SOL    HW1 2352   3.801   2.417   2.442
 3041SOL    HW2 2353   3.845   2.559   2.509
 3050SOL     OW 2354   3.800   2.673   2.651
 3050SOL    HW1 2355   3.899   2.661   2.660
 3050SOL    HW2 2356   3.776   2.768   2.672
 3056SOL     OW 2357   4.045   2.805   2.104
 3056SOL    HW1 2358   4.127   2.844   2.062
 3056SOL    HW2 2359   4.018   2.723   2.055
 3062SOL     OW 2360   4.106   2.562   2.342
 3062SOL    HW1 2361   4.151   2.472   2.339
 3062SOL    HW2 2362   4.012   2.551   2.375
 3068SOL     OW 2363   4.021   1.897   2.033
 3068SOL    HW1 2364   4.070   1.981   2.012
 3068SOL    HW2 2365   4.083   1.832   2.078
 3070SOL     OW 2366   3.802   2.418   3.248
 3070SOL    HW1 2367   3.894   2.417   3.207
 3070SOL    HW2 2368   3.796   2.492   3.315
 3088SOL     OW 2369   4.031   1.925   2.480
 3088SOL    HW1 2370   4.020   2.019   2.513
 3088SOL    HW2 2371   4.026   1.862   2.557
 3092SOL     OW 2372   4.043   2.672   2.811
 3092SOL    HW1 2373   4.136   2.708   2.816
 3092SOL    HW2 2374   4.037   2.587   2.863
 3093SOL     OW 2375   4.063   2.371   2.868
 3093SOL    HW1 2376   4.011   2.288   2.851
 3093SOL    HW2 2377   4.140   2.376   2.804
 3094SOL     OW 2378   3.732   3.188   2.062
 3094SOL    HW1 2379   3.639   3.209   2.031
 3094SOL    HW2 2380   3.742   3.089   2.075
 3097SOL     OW 2381   3.764   2.406   2.976
 3097SOL    HW1 2382   3.849   2.373   2.935
 3097SOL    HW2 2383   3.777   2.421   3.074
 3104SOL     OW 2384   3.807   3.120   2.884
 3104SOL    HW1 2385   3.802   3.119   2.984
 3104SOL    HW2 2386   3.724   3.079   2.846
 3110SOL     OW 2387   3.987   2.188   2.582
 3110SOL    HW1 2388   3.908   2.239   2.548
 3110SOL    HW2 2389   3.978   2.173   2.680
 3117SOL     OW 2390   3.799   2.207   1.895
 3117SOL    HW1 2391   3.707   2.179   1.866
 3117SOL    HW2 2392   3.830   2.284   1.839
 3118SOL     OW 2393   3.796   2.028   2.180
 3118SOL    HW1 2394   3.779   2.111   2.126
 3118SOL    HW2 2395   3.886   1.991   2.158
 3126SOL     OW 2396   3.803   3.102   2.515
 3126SOL    HW1 2397   3.802   3.055   2.603
 3126SOL    HW2 2398   3.885   3.074   2.464
 3134SOL     OW 2399   3.763   2.939   2.162
 3134SOL    HW1 2400   3.862   2.928   2.153
 3134SOL    HW2 2401   3.723   2.853   2.194
   4.69010   4.69010   4.69010
