; mobley_2659552_GMX.itp created by acpype (v: 2023.10.27) on Wed May 20 23:42:01 2026

[ atomtypes ]
;name   bond_type     mass     charge   ptype   sigma         epsilon       Amb
 ca       ca          0.00000  0.00000   A     3.31521e-01   4.13379e-01 ; 1.86  0.0988
 c        c           0.00000  0.00000   A     3.31521e-01   4.13379e-01 ; 1.86  0.0988
 c3       c3          0.00000  0.00000   A     3.39771e-01   4.51035e-01 ; 1.91  0.1078
 n        n           0.00000  0.00000   A     3.18086e-01   6.84502e-01 ; 1.79  0.1636
 o        o           0.00000  0.00000   A     3.04812e-01   6.12119e-01 ; 1.71  0.1463
 ha       ha          0.00000  0.00000   A     2.62548e-01   6.73624e-02 ; 1.47  0.0161
 hc       hc          0.00000  0.00000   A     2.60018e-01   8.70272e-02 ; 1.46  0.0208
 h1       h1          0.00000  0.00000   A     2.42200e-01   8.70272e-02 ; 1.36  0.0208

[ moleculetype ]
;name            nrexcl
 mobley_2659552   3

[ atoms ]
;   nr  type  resi  res  atom  cgnr     charge      mass       ; qtot   bond_type
     1   ca     1   MOL    C1    1    -0.090000     12.01000 ; qtot -0.090
     2   ca     1   MOL    C2    2    -0.090000     12.01000 ; qtot -0.180
     3   ca     1   MOL    C3    3    -0.139500     12.01000 ; qtot -0.320
     4   ca     1   MOL    C4    4    -0.139500     12.01000 ; qtot -0.459
     5   ca     1   MOL    C5    5    -0.138600     12.01000 ; qtot -0.598
     6   ca     1   MOL    C6    6    -0.057300     12.01000 ; qtot -0.655
     7    c     1   MOL    C7    7     0.676702     12.01000 ; qtot 0.022
     8   c3     1   MOL    C8    8    -0.058800     12.01000 ; qtot -0.037
     9   c3     1   MOL    C9    9     0.080800     12.01000 ; qtot 0.044
    10   c3     1   MOL   C10   10     0.080800     12.01000 ; qtot 0.125
    11    n     1   MOL    N1   11    -0.480800     14.01000 ; qtot -0.356
    12    o     1   MOL    O1   12    -0.602100     16.00000 ; qtot -0.958
    13   ha     1   MOL    H1   13     0.144000      1.00800 ; qtot -0.814
    14   ha     1   MOL    H2   14     0.144000      1.00800 ; qtot -0.670
    15   ha     1   MOL    H3   15     0.136000      1.00800 ; qtot -0.534
    16   ha     1   MOL    H4   16     0.136000      1.00800 ; qtot -0.398
    17   hc     1   MOL    H5   17     0.047700      1.00800 ; qtot -0.351
    18   hc     1   MOL    H6   18     0.047700      1.00800 ; qtot -0.303
    19   hc     1   MOL    H7   19     0.047700      1.00800 ; qtot -0.255
    20   h1     1   MOL    H8   20     0.042533      1.00800 ; qtot -0.213
    21   h1     1   MOL    H9   21     0.042533      1.00800 ; qtot -0.170
    22   h1     1   MOL   H10   22     0.042533      1.00800 ; qtot -0.128
    23   h1     1   MOL   H11   23     0.042533      1.00800 ; qtot -0.085
    24   h1     1   MOL   H12   24     0.042533      1.00800 ; qtot -0.043
    25   h1     1   MOL   H13   25     0.042533      1.00800 ; qtot -0.000

[ bonds ]
;   ai     aj funct   r             k
     1      3   1    1.3986e-01    2.9644e+05 ;     C1 - C3    
     1      5   1    1.3986e-01    2.9644e+05 ;     C1 - C5    
     1     13   1    1.0860e-01    3.0183e+05 ;     C1 - H1    
     2      4   1    1.3986e-01    2.9644e+05 ;     C2 - C4    
     2      5   1    1.3986e-01    2.9644e+05 ;     C2 - C5    
     2     14   1    1.0860e-01    3.0183e+05 ;     C2 - H2    
     3      6   1    1.3986e-01    2.9644e+05 ;     C3 - C6    
     3     15   1    1.0860e-01    3.0183e+05 ;     C3 - H3    
     4      6   1    1.3986e-01    2.9644e+05 ;     C4 - C6    
     4     16   1    1.0860e-01    3.0183e+05 ;     C4 - H4    
     5      7   1    1.4907e-01    2.1994e+05 ;     C5 - C7    
     6      8   1    1.5147e-01    2.0410e+05 ;     C6 - C8    
     7     11   1    1.3967e-01    2.6565e+05 ;     C7 - N1    
     7     12   1    1.2190e-01    4.9421e+05 ;     C7 - O1    
     8     17   1    1.0962e-01    2.8891e+05 ;     C8 - H5    
     8     18   1    1.0962e-01    2.8891e+05 ;     C8 - H6    
     8     19   1    1.0962e-01    2.8891e+05 ;     C8 - H7    
     9     11   1    1.4643e-01    2.1293e+05 ;     C9 - N1    
     9     20   1    1.0969e-01    2.8804e+05 ;     C9 - H8    
     9     21   1    1.0969e-01    2.8804e+05 ;     C9 - H9    
     9     22   1    1.0969e-01    2.8804e+05 ;     C9 - H10   
    10     11   1    1.4643e-01    2.1293e+05 ;    C10 - N1    
    10     23   1    1.0969e-01    2.8804e+05 ;    C10 - H11   
    10     24   1    1.0969e-01    2.8804e+05 ;    C10 - H12   
    10     25   1    1.0969e-01    2.8804e+05 ;    C10 - H13   

[ pairs ]
;   ai     aj    funct
     1      4      1 ;     C1 - C4    
     1      8      1 ;     C1 - C8    
     1     11      1 ;     C1 - N1    
     1     12      1 ;     C1 - O1    
     1     14      1 ;     C1 - H2    
     2      3      1 ;     C2 - C3    
     2      8      1 ;     C2 - C8    
     2     11      1 ;     C2 - N1    
     2     12      1 ;     C2 - O1    
     3      7      1 ;     C3 - C7    
     3     16      1 ;     C3 - H4    
     3     17      1 ;     C3 - H5    
     3     18      1 ;     C3 - H6    
     3     19      1 ;     C3 - H7    
     4      7      1 ;     C4 - C7    
     4     15      1 ;     C4 - H3    
     4     17      1 ;     C4 - H5    
     4     18      1 ;     C4 - H6    
     4     19      1 ;     C4 - H7    
     5      6      1 ;     C5 - C6    
     5      9      1 ;     C5 - C9    
     5     10      1 ;     C5 - C10   
     5     15      1 ;     C5 - H3    
     5     16      1 ;     C5 - H4    
     6     14      1 ;     C6 - H2    
     7     14      1 ;     C7 - H2    
     7     20      1 ;     C7 - H8    
     7     21      1 ;     C7 - H9    
     7     22      1 ;     C7 - H10   
     7     23      1 ;     C7 - H11   
     7     24      1 ;     C7 - H12   
     7     25      1 ;     C7 - H13   
     8     15      1 ;     C8 - H3    
     8     16      1 ;     C8 - H4    
     9     12      1 ;     C9 - O1    
     9     23      1 ;     C9 - H11   
     9     24      1 ;     C9 - H12   
     9     25      1 ;     C9 - H13   
    10     12      1 ;    C10 - O1    
    10     20      1 ;    C10 - H8    
    10     21      1 ;    C10 - H9    
    10     22      1 ;    C10 - H10   
    13      2      1 ;     H1 - C2    
    13      6      1 ;     H1 - C6    
    13      7      1 ;     H1 - C7    
    13     15      1 ;     H1 - H3    
    14     16      1 ;     H2 - H4    

[ angles ]
;   ai     aj     ak    funct   theta         cth
     1      3      6      1    1.2002e+02    5.3279e+02 ;     C1 - C3     - C6    
     1      3     15      1    1.1988e+02    3.7572e+02 ;     C1 - C3     - H3    
     1      5      2      1    1.2002e+02    5.3279e+02 ;     C1 - C5     - C2    
     1      5      7      1    1.2033e+02    5.1413e+02 ;     C1 - C5     - C7    
     2      4      6      1    1.2002e+02    5.3279e+02 ;     C2 - C4     - C6    
     2      4     16      1    1.1988e+02    3.7572e+02 ;     C2 - C4     - H4    
     2      5      7      1    1.2033e+02    5.1413e+02 ;     C2 - C5     - C7    
     3      1      5      1    1.2002e+02    5.3279e+02 ;     C3 - C1     - C5    
     3      1     13      1    1.1988e+02    3.7572e+02 ;     C3 - C1     - H1    
     3      6      4      1    1.2002e+02    5.3279e+02 ;     C3 - C6     - C4    
     3      6      8      1    1.2083e+02    5.0827e+02 ;     C3 - C6     - C8    
     4      2      5      1    1.2002e+02    5.3279e+02 ;     C4 - C2     - C5    
     4      2     14      1    1.1988e+02    3.7572e+02 ;     C4 - C2     - H2    
     4      6      8      1    1.2083e+02    5.0827e+02 ;     C4 - C6     - C8    
     5      1     13      1    1.1988e+02    3.7572e+02 ;     C5 - C1     - H1    
     5      2     14      1    1.1988e+02    3.7572e+02 ;     C5 - C2     - H2    
     5      7     11      1    1.1588e+02    5.5647e+02 ;     C5 - C7     - N1    
     5      7     12      1    1.2260e+02    6.5237e+02 ;     C5 - C7     - O1    
     6      3     15      1    1.1988e+02    3.7572e+02 ;     C6 - C3     - H3    
     6      4     16      1    1.1988e+02    3.7572e+02 ;     C6 - C4     - H4    
     6      8     17      1    1.1063e+02    3.6493e+02 ;     C6 - C8     - H5    
     6      8     18      1    1.1063e+02    3.6493e+02 ;     C6 - C8     - H6    
     6      8     19      1    1.1063e+02    3.6493e+02 ;     C6 - C8     - H7    
     7     11      9      1    1.1883e+02    6.4634e+02 ;     C7 - N1     - C9    
     7     11     10      1    1.1883e+02    6.4634e+02 ;     C7 - N1     - C10   
     9     11     10      1    1.1675e+02    6.3773e+02 ;     C9 - N1     - C10   
    11      7     12      1    1.2257e+02    7.2534e+02 ;     N1 - C7     - O1    
    11      9     20      1    1.0876e+02    4.0242e+02 ;     N1 - C9     - H8    
    11      9     21      1    1.0876e+02    4.0242e+02 ;     N1 - C9     - H9    
    11      9     22      1    1.0876e+02    4.0242e+02 ;     N1 - C9     - H10   
    11     10     23      1    1.0876e+02    4.0242e+02 ;     N1 - C10    - H11   
    11     10     24      1    1.0876e+02    4.0242e+02 ;     N1 - C10    - H12   
    11     10     25      1    1.0876e+02    4.0242e+02 ;     N1 - C10    - H13   
    17      8     18      1    1.0773e+02    2.9957e+02 ;     H5 - C8     - H6    
    17      8     19      1    1.0773e+02    2.9957e+02 ;     H5 - C8     - H7    
    18      8     19      1    1.0773e+02    2.9957e+02 ;     H6 - C8     - H7    
    20      9     21      1    1.0855e+02    2.9824e+02 ;     H8 - C9     - H9    
    20      9     22      1    1.0855e+02    2.9824e+02 ;     H8 - C9     - H10   
    21      9     22      1    1.0855e+02    2.9824e+02 ;     H9 - C9     - H10   
    23     10     24      1    1.0855e+02    2.9824e+02 ;    H11 - C10    - H12   
    23     10     25      1    1.0855e+02    2.9824e+02 ;    H11 - C10    - H13   
    24     10     25      1    1.0855e+02    2.9824e+02 ;    H12 - C10    - H13   

[ dihedrals ] ; propers
; for gromacs 4.5 or higher, using funct 9
;    i      j      k      l   func   phase     kd      pn
     1      3      6      4      9   180.00  15.16700   2 ;     C1-    C3-    C6-    C4
     1      3      6      8      9   180.00  15.16700   2 ;     C1-    C3-    C6-    C8
     1      5      2      4      9   180.00  15.16700   2 ;     C1-    C5-    C2-    C4
     1      5      2     14      9   180.00  15.16700   2 ;     C1-    C5-    C2-    H2
     1      5      7     11      9   180.00   8.88054   2 ;     C1-    C5-    C7-    N1
     1      5      7     12      9   180.00   2.42672   2 ;     C1-    C5-    C7-    O1
     2      4      6      3      9   180.00  15.16700   2 ;     C2-    C4-    C6-    C3
     2      4      6      8      9   180.00  15.16700   2 ;     C2-    C4-    C6-    C8
     2      5      7     11      9   180.00   8.88054   2 ;     C2-    C5-    C7-    N1
     2      5      7     12      9   180.00   2.42672   2 ;     C2-    C5-    C7-    O1
     3      1      5      2      9   180.00  15.16700   2 ;     C3-    C1-    C5-    C2
     3      1      5      7      9   180.00  15.16700   2 ;     C3-    C1-    C5-    C7
     3      6      4     16      9   180.00  15.16700   2 ;     C3-    C6-    C4-    H4
     3      6      8     17      9     0.00   0.00000   0 ;     C3-    C6-    C8-    H5
     3      6      8     18      9     0.00   0.00000   0 ;     C3-    C6-    C8-    H6
     3      6      8     19      9     0.00   0.00000   0 ;     C3-    C6-    C8-    H7
     4      2      5      7      9   180.00  15.16700   2 ;     C4-    C2-    C5-    C7
     4      6      3     15      9   180.00  15.16700   2 ;     C4-    C6-    C3-    H3
     4      6      8     17      9     0.00   0.00000   0 ;     C4-    C6-    C8-    H5
     4      6      8     18      9     0.00   0.00000   0 ;     C4-    C6-    C8-    H6
     4      6      8     19      9     0.00   0.00000   0 ;     C4-    C6-    C8-    H7
     5      1      3      6      9   180.00  15.16700   2 ;     C5-    C1-    C3-    C6
     5      1      3     15      9   180.00  15.16700   2 ;     C5-    C1-    C3-    H3
     5      2      4      6      9   180.00  15.16700   2 ;     C5-    C2-    C4-    C6
     5      2      4     16      9   180.00  15.16700   2 ;     C5-    C2-    C4-    H4
     5      7     11      9      9     0.00   1.71544   3 ;     C5-    C7-    N1-    C9
     5      7     11      9      9     0.00  20.16688   1 ;     C5-    C7-    N1-    C9
     5      7     11      9      9   180.00   9.12112   2 ;     C5-    C7-    N1-    C9
     5      7     11     10      9     0.00   1.71544   3 ;     C5-    C7-    N1-   C10
     5      7     11     10      9     0.00  20.16688   1 ;     C5-    C7-    N1-   C10
     5      7     11     10      9   180.00   9.12112   2 ;     C5-    C7-    N1-   C10
     6      4      2     14      9   180.00  15.16700   2 ;     C6-    C4-    C2-    H2
     7      5      2     14      9   180.00  15.16700   2 ;     C7-    C5-    C2-    H2
     7     11      9     20      9   180.00   0.00000   2 ;     C7-    N1-    C9-    H8
     7     11      9     21      9   180.00   0.00000   2 ;     C7-    N1-    C9-    H9
     7     11      9     22      9   180.00   0.00000   2 ;     C7-    N1-    C9-   H10
     7     11     10     23      9   180.00   0.00000   2 ;     C7-    N1-   C10-   H11
     7     11     10     24      9   180.00   0.00000   2 ;     C7-    N1-   C10-   H12
     7     11     10     25      9   180.00   0.00000   2 ;     C7-    N1-   C10-   H13
     8      6      3     15      9   180.00  15.16700   2 ;     C8-    C6-    C3-    H3
     8      6      4     16      9   180.00  15.16700   2 ;     C8-    C6-    C4-    H4
     9     11      7     12      9   180.00  10.46000   2 ;     C9-    N1-    C7-    O1
     9     11     10     23      9     0.00   0.00000   0 ;     C9-    N1-   C10-   H11
     9     11     10     24      9     0.00   0.00000   0 ;     C9-    N1-   C10-   H12
     9     11     10     25      9     0.00   0.00000   0 ;     C9-    N1-   C10-   H13
    10     11      7     12      9   180.00  10.46000   2 ;    C10-    N1-    C7-    O1
    10     11      9     20      9     0.00   0.00000   0 ;    C10-    N1-    C9-    H8
    10     11      9     21      9     0.00   0.00000   0 ;    C10-    N1-    C9-    H9
    10     11      9     22      9     0.00   0.00000   0 ;    C10-    N1-    C9-   H10
    13      1      3      6      9   180.00  15.16700   2 ;     H1-    C1-    C3-    C6
    13      1      3     15      9   180.00  15.16700   2 ;     H1-    C1-    C3-    H3
    13      1      5      2      9   180.00  15.16700   2 ;     H1-    C1-    C5-    C2
    13      1      5      7      9   180.00  15.16700   2 ;     H1-    C1-    C5-    C7
    14      2      4     16      9   180.00  15.16700   2 ;     H2-    C2-    C4-    H4

[ dihedrals ] ; impropers
; treated as propers in GROMACS to use correct AMBER analytical function
;    i      j      k      l   func   phase     kd      pn
     1      6      3     15      4   180.00   4.60240   2 ;     C1-    C6-    C3-    H3
     2      6      4     16      4   180.00   4.60240   2 ;     C2-    C6-    C4-    H4
     3      4      6      8      4   180.00   4.60240   2 ;     C3-    C4-    C6-    C8
     4      5      2     14      4   180.00   4.60240   2 ;     C4-    C5-    C2-    H2
     5     11      7     12      4   180.00  43.93200   2 ;     C5-    N1-    C7-    O1
     7      1      5      2      4   180.00   4.60240   2 ;     C7-    C1-    C5-    C2
     7      9     11     10      4   180.00   4.60240   2 ;     C7-    C9-    N1-   C10
    13      1      5      3      4   180.00   4.60240   2 ;     H1-    C1-    C5-    C3
