; mobley_6861308_GMX.itp created by acpype (v: 2023.10.27) on Thu May 21 00:23:53 2026

[ atomtypes ]
;name   bond_type     mass     charge   ptype   sigma         epsilon       Amb
 ca       ca          0.00000  0.00000   A     3.31521e-01   4.13379e-01 ; 1.86  0.0988
 c        c           0.00000  0.00000   A     3.31521e-01   4.13379e-01 ; 1.86  0.0988
 c3       c3          0.00000  0.00000   A     3.39771e-01   4.51035e-01 ; 1.91  0.1078
 ns       ns          0.00000  0.00000   A     3.26995e-01   4.91202e-01 ; 1.84  0.1174
 n        n           0.00000  0.00000   A     3.18086e-01   6.84502e-01 ; 1.79  0.1636
 o        o           0.00000  0.00000   A     3.04812e-01   6.12119e-01 ; 1.71  0.1463
 ha       ha          0.00000  0.00000   A     2.62548e-01   6.73624e-02 ; 1.47  0.0161
 h1       h1          0.00000  0.00000   A     2.42200e-01   8.70272e-02 ; 1.36  0.0208
 hn       hn          0.00000  0.00000   A     1.10650e-01   4.18400e-02 ; 0.62  0.0100

[ moleculetype ]
;name            nrexcl
 mobley_6861308   3

[ atoms ]
;   nr  type  resi  res  atom  cgnr     charge      mass       ; qtot   bond_type
     1   ca     1   MOL    C1    1    -0.153000     12.01000 ; qtot -0.153
     2   ca     1   MOL    C2    2    -0.108500     12.01000 ; qtot -0.262
     3   ca     1   MOL    C3    3    -0.108500     12.01000 ; qtot -0.370
     4   ca     1   MOL    C4    4    -0.159500     12.01000 ; qtot -0.529
     5   ca     1   MOL    C5    5    -0.159500     12.01000 ; qtot -0.689
     6   ca     1   MOL    C6    6     0.063600     12.01000 ; qtot -0.625
     7    c     1   MOL    C7    7     0.760100     12.01000 ; qtot 0.135
     8   c3     1   MOL    C8    8     0.069300     12.01000 ; qtot 0.204
     9   c3     1   MOL    C9    9     0.069300     12.01000 ; qtot 0.273
    10   ns     1   MOL    N1   10    -0.458100     14.01000 ; qtot -0.185
    11    n     1   MOL    N2   11    -0.461800     14.01000 ; qtot -0.647
    12    o     1   MOL    O1   12    -0.622100     16.00000 ; qtot -1.269
    13   ha     1   MOL    H1   13     0.132000      1.00800 ; qtot -1.137
    14   ha     1   MOL    H2   14     0.132000      1.00800 ; qtot -1.005
    15   ha     1   MOL    H3   15     0.132000      1.00800 ; qtot -0.873
    16   ha     1   MOL    H4   16     0.148000      1.00800 ; qtot -0.725
    17   ha     1   MOL    H5   17     0.148000      1.00800 ; qtot -0.577
    18   h1     1   MOL    H6   18     0.044700      1.00800 ; qtot -0.532
    19   h1     1   MOL    H7   19     0.044700      1.00800 ; qtot -0.487
    20   h1     1   MOL    H8   20     0.044700      1.00800 ; qtot -0.443
    21   h1     1   MOL    H9   21     0.044700      1.00800 ; qtot -0.398
    22   h1     1   MOL   H10   22     0.044700      1.00800 ; qtot -0.353
    23   h1     1   MOL   H11   23     0.044700      1.00800 ; qtot -0.308
    24   hn     1   MOL   H12   24     0.308500      1.00800 ; qtot 0.000

[ bonds ]
;   ai     aj funct   r             k
     1      2   1    1.3986e-01    2.9644e+05 ;     C1 - C2    
     1      3   1    1.3986e-01    2.9644e+05 ;     C1 - C3    
     1     13   1    1.0860e-01    3.0183e+05 ;     C1 - H1    
     2      4   1    1.3986e-01    2.9644e+05 ;     C2 - C4    
     2     14   1    1.0860e-01    3.0183e+05 ;     C2 - H2    
     3      5   1    1.3986e-01    2.9644e+05 ;     C3 - C5    
     3     15   1    1.0860e-01    3.0183e+05 ;     C3 - H3    
     4      6   1    1.3986e-01    2.9644e+05 ;     C4 - C6    
     4     16   1    1.0860e-01    3.0183e+05 ;     C4 - H4    
     5      6   1    1.3986e-01    2.9644e+05 ;     C5 - C6    
     5     17   1    1.0860e-01    3.0183e+05 ;     C5 - H5    
     6     10   1    1.4070e-01    2.5667e+05 ;     C6 - N1    
     7     10   1    1.3798e-01    2.8122e+05 ;     C7 - N1    
     7     11   1    1.3967e-01    2.6565e+05 ;     C7 - N2    
     7     12   1    1.2190e-01    4.9421e+05 ;     C7 - O1    
     8     11   1    1.4643e-01    2.1293e+05 ;     C8 - N2    
     8     18   1    1.0969e-01    2.8804e+05 ;     C8 - H6    
     8     19   1    1.0969e-01    2.8804e+05 ;     C8 - H7    
     8     20   1    1.0969e-01    2.8804e+05 ;     C8 - H8    
     9     11   1    1.4643e-01    2.1293e+05 ;     C9 - N2    
     9     21   1    1.0969e-01    2.8804e+05 ;     C9 - H9    
     9     22   1    1.0969e-01    2.8804e+05 ;     C9 - H10   
     9     23   1    1.0969e-01    2.8804e+05 ;     C9 - H11   
    10     24   1    1.0132e-01    3.9630e+05 ;     N1 - H12   

[ pairs ]
;   ai     aj    funct
     1      6      1 ;     C1 - C6    
     1     16      1 ;     C1 - H4    
     1     17      1 ;     C1 - H5    
     2      5      1 ;     C2 - C5    
     2     10      1 ;     C2 - N1    
     2     15      1 ;     C2 - H3    
     3      4      1 ;     C3 - C4    
     3     10      1 ;     C3 - N1    
     3     14      1 ;     C3 - H2    
     4      7      1 ;     C4 - C7    
     4     17      1 ;     C4 - H5    
     4     24      1 ;     C4 - H12   
     5      7      1 ;     C5 - C7    
     5     16      1 ;     C5 - H4    
     5     24      1 ;     C5 - H12   
     6     11      1 ;     C6 - N2    
     6     12      1 ;     C6 - O1    
     6     14      1 ;     C6 - H2    
     6     15      1 ;     C6 - H3    
     7     18      1 ;     C7 - H6    
     7     19      1 ;     C7 - H7    
     7     20      1 ;     C7 - H8    
     7     21      1 ;     C7 - H9    
     7     22      1 ;     C7 - H10   
     7     23      1 ;     C7 - H11   
     8     10      1 ;     C8 - N1    
     8     12      1 ;     C8 - O1    
     8     21      1 ;     C8 - H9    
     8     22      1 ;     C8 - H10   
     8     23      1 ;     C8 - H11   
     9     10      1 ;     C9 - N1    
     9     12      1 ;     C9 - O1    
     9     18      1 ;     C9 - H6    
     9     19      1 ;     C9 - H7    
     9     20      1 ;     C9 - H8    
    10     16      1 ;     N1 - H4    
    10     17      1 ;     N1 - H5    
    11     24      1 ;     N2 - H12   
    12     24      1 ;     O1 - H12   
    13      4      1 ;     H1 - C4    
    13      5      1 ;     H1 - C5    
    13     14      1 ;     H1 - H2    
    13     15      1 ;     H1 - H3    
    14     16      1 ;     H2 - H4    
    15     17      1 ;     H3 - H5    

[ angles ]
;   ai     aj     ak    funct   theta         cth
     1      2      4      1    1.2002e+02    5.3279e+02 ;     C1 - C2     - C4    
     1      2     14      1    1.1988e+02    3.7572e+02 ;     C1 - C2     - H2    
     1      3      5      1    1.2002e+02    5.3279e+02 ;     C1 - C3     - C5    
     1      3     15      1    1.1988e+02    3.7572e+02 ;     C1 - C3     - H3    
     2      1      3      1    1.2002e+02    5.3279e+02 ;     C2 - C1     - C3    
     2      1     13      1    1.1988e+02    3.7572e+02 ;     C2 - C1     - H1    
     2      4      6      1    1.2002e+02    5.3279e+02 ;     C2 - C4     - C6    
     2      4     16      1    1.1988e+02    3.7572e+02 ;     C2 - C4     - H4    
     3      1     13      1    1.1988e+02    3.7572e+02 ;     C3 - C1     - H1    
     3      5      6      1    1.2002e+02    5.3279e+02 ;     C3 - C5     - C6    
     3      5     17      1    1.1988e+02    3.7572e+02 ;     C3 - C5     - H5    
     4      2     14      1    1.1988e+02    3.7572e+02 ;     C4 - C2     - H2    
     4      6      5      1    1.2002e+02    5.3279e+02 ;     C4 - C6     - C5    
     4      6     10      1    1.2019e+02    5.6350e+02 ;     C4 - C6     - N1    
     5      3     15      1    1.1988e+02    3.7572e+02 ;     C5 - C3     - H3    
     5      6     10      1    1.2019e+02    5.6350e+02 ;     C5 - C6     - N1    
     6      4     16      1    1.1988e+02    3.7572e+02 ;     C6 - C4     - H4    
     6      5     17      1    1.1988e+02    3.7572e+02 ;     C6 - C5     - H5    
     6     10      7      1    1.2751e+02    6.4116e+02 ;     C6 - N1     - C7    
     6     10     24      1    1.1604e+02    4.7430e+02 ;     C6 - N1     - H12   
     7     10     24      1    1.1726e+02    4.8007e+02 ;     C7 - N1     - H12   
     7     11      8      1    1.1883e+02    6.4634e+02 ;     C7 - N2     - C8    
     7     11      9      1    1.1883e+02    6.4634e+02 ;     C7 - N2     - C9    
     8     11      9      1    1.1675e+02    6.3773e+02 ;     C8 - N2     - C9    
    10      7     11      1    1.1437e+02    6.1965e+02 ;     N1 - C7     - N2    
    10      7     12      1    1.2305e+02    7.2977e+02 ;     N1 - C7     - O1    
    11      7     12      1    1.2257e+02    7.2534e+02 ;     N2 - C7     - O1    
    11      8     18      1    1.0876e+02    4.0242e+02 ;     N2 - C8     - H6    
    11      8     19      1    1.0876e+02    4.0242e+02 ;     N2 - C8     - H7    
    11      8     20      1    1.0876e+02    4.0242e+02 ;     N2 - C8     - H8    
    11      9     21      1    1.0876e+02    4.0242e+02 ;     N2 - C9     - H9    
    11      9     22      1    1.0876e+02    4.0242e+02 ;     N2 - C9     - H10   
    11      9     23      1    1.0876e+02    4.0242e+02 ;     N2 - C9     - H11   
    18      8     19      1    1.0855e+02    2.9824e+02 ;     H6 - C8     - H7    
    18      8     20      1    1.0855e+02    2.9824e+02 ;     H6 - C8     - H8    
    19      8     20      1    1.0855e+02    2.9824e+02 ;     H7 - C8     - H8    
    21      9     22      1    1.0855e+02    2.9824e+02 ;     H9 - C9     - H10   
    21      9     23      1    1.0855e+02    2.9824e+02 ;     H9 - C9     - H11   
    22      9     23      1    1.0855e+02    2.9824e+02 ;    H10 - C9     - H11   

[ dihedrals ] ; propers
; for gromacs 4.5 or higher, using funct 9
;    i      j      k      l   func   phase     kd      pn
     1      2      4      6      9   180.00  15.16700   2 ;     C1-    C2-    C4-    C6
     1      2      4     16      9   180.00  15.16700   2 ;     C1-    C2-    C4-    H4
     1      3      5      6      9   180.00  15.16700   2 ;     C1-    C3-    C5-    C6
     1      3      5     17      9   180.00  15.16700   2 ;     C1-    C3-    C5-    H5
     2      1      3      5      9   180.00  15.16700   2 ;     C2-    C1-    C3-    C5
     2      1      3     15      9   180.00  15.16700   2 ;     C2-    C1-    C3-    H3
     2      4      6      5      9   180.00  15.16700   2 ;     C2-    C4-    C6-    C5
     2      4      6     10      9   180.00  15.16700   2 ;     C2-    C4-    C6-    N1
     3      1      2      4      9   180.00  15.16700   2 ;     C3-    C1-    C2-    C4
     3      1      2     14      9   180.00  15.16700   2 ;     C3-    C1-    C2-    H2
     3      5      6      4      9   180.00  15.16700   2 ;     C3-    C5-    C6-    C4
     3      5      6     10      9   180.00  15.16700   2 ;     C3-    C5-    C6-    N1
     4      6      5     17      9   180.00  15.16700   2 ;     C4-    C6-    C5-    H5
     4      6     10      7      9   180.00   5.89944   2 ;     C4-    C6-    N1-    C7
     4      6     10     24      9   180.00   1.88280   2 ;     C4-    C6-    N1-   H12
     5      6      4     16      9   180.00  15.16700   2 ;     C5-    C6-    C4-    H4
     5      6     10      7      9   180.00   5.89944   2 ;     C5-    C6-    N1-    C7
     5      6     10     24      9   180.00   1.88280   2 ;     C5-    C6-    N1-   H12
     6      4      2     14      9   180.00  15.16700   2 ;     C6-    C4-    C2-    H2
     6      5      3     15      9   180.00  15.16700   2 ;     C6-    C5-    C3-    H3
     6     10      7     11      9   180.00  10.46000   2 ;     C6-    N1-    C7-    N2
     6     10      7     12      9   180.00  10.46000   2 ;     C6-    N1-    C7-    O1
     7     11      8     18      9   180.00   0.00000   2 ;     C7-    N2-    C8-    H6
     7     11      8     19      9   180.00   0.00000   2 ;     C7-    N2-    C8-    H7
     7     11      8     20      9   180.00   0.00000   2 ;     C7-    N2-    C8-    H8
     7     11      9     21      9   180.00   0.00000   2 ;     C7-    N2-    C9-    H9
     7     11      9     22      9   180.00   0.00000   2 ;     C7-    N2-    C9-   H10
     7     11      9     23      9   180.00   0.00000   2 ;     C7-    N2-    C9-   H11
     8     11      7     10      9   180.00  10.46000   2 ;     C8-    N2-    C7-    N1
     8     11      7     12      9   180.00  10.46000   2 ;     C8-    N2-    C7-    O1
     8     11      9     21      9     0.00   0.00000   0 ;     C8-    N2-    C9-    H9
     8     11      9     22      9     0.00   0.00000   0 ;     C8-    N2-    C9-   H10
     8     11      9     23      9     0.00   0.00000   0 ;     C8-    N2-    C9-   H11
     9     11      7     10      9   180.00  10.46000   2 ;     C9-    N2-    C7-    N1
     9     11      7     12      9   180.00  10.46000   2 ;     C9-    N2-    C7-    O1
     9     11      8     18      9     0.00   0.00000   0 ;     C9-    N2-    C8-    H6
     9     11      8     19      9     0.00   0.00000   0 ;     C9-    N2-    C8-    H7
     9     11      8     20      9     0.00   0.00000   0 ;     C9-    N2-    C8-    H8
    10      6      4     16      9   180.00  15.16700   2 ;     N1-    C6-    C4-    H4
    10      6      5     17      9   180.00  15.16700   2 ;     N1-    C6-    C5-    H5
    11      7     10     24      9   180.00  10.46000   2 ;     N2-    C7-    N1-   H12
    12      7     10     24      9     0.00   8.36800   1 ;     O1-    C7-    N1-   H12
    12      7     10     24      9   180.00  10.46000   2 ;     O1-    C7-    N1-   H12
    13      1      2      4      9   180.00  15.16700   2 ;     H1-    C1-    C2-    C4
    13      1      2     14      9   180.00  15.16700   2 ;     H1-    C1-    C2-    H2
    13      1      3      5      9   180.00  15.16700   2 ;     H1-    C1-    C3-    C5
    13      1      3     15      9   180.00  15.16700   2 ;     H1-    C1-    C3-    H3
    14      2      4     16      9   180.00  15.16700   2 ;     H2-    C2-    C4-    H4
    15      3      5     17      9   180.00  15.16700   2 ;     H3-    C3-    C5-    H5

[ dihedrals ] ; impropers
; treated as propers in GROMACS to use correct AMBER analytical function
;    i      j      k      l   func   phase     kd      pn
     1      4      2     14      4   180.00   4.60240   2 ;     C1-    C4-    C2-    H2
     1      5      3     15      4   180.00   4.60240   2 ;     C1-    C5-    C3-    H3
     2      6      4     16      4   180.00   4.60240   2 ;     C2-    C6-    C4-    H4
     3      6      5     17      4   180.00   4.60240   2 ;     C3-    C6-    C5-    H5
     4      5      6     10      4   180.00   4.60240   2 ;     C4-    C5-    C6-    N1
     7      6     10     24      4   180.00   4.60240   2 ;     C7-    C6-    N1-   H12
     7      8     11      9      4   180.00   4.60240   2 ;     C7-    C8-    N2-    C9
    11     10      7     12      4   180.00  43.93200   2 ;     N2-    N1-    C7-    O1
    13      1      3      2      4   180.00   4.60240   2 ;     H1-    C1-    C3-    C2
