; mobley_8260524_GMX.itp created by acpype (v: 2023.10.27) on Wed May 20 23:42:50 2026

[ atomtypes ]
;name   bond_type     mass     charge   ptype   sigma         epsilon       Amb
 c1       c1          0.00000  0.00000   A     3.47896e-01   6.67766e-01 ; 1.95  0.1596
 c3       c3          0.00000  0.00000   A     3.39771e-01   4.51035e-01 ; 1.91  0.1078
 ha       ha          0.00000  0.00000   A     2.62548e-01   6.73624e-02 ; 1.47  0.0161
 hc       hc          0.00000  0.00000   A     2.60018e-01   8.70272e-02 ; 1.46  0.0208

[ moleculetype ]
;name            nrexcl
 mobley_8260524   3

[ atoms ]
;   nr  type  resi  res  atom  cgnr     charge      mass       ; qtot   bond_type
     1   c1     1   MOL    C1    1    -0.163500     12.01000 ; qtot -0.164
     2   c1     1   MOL    C2    2    -0.140100     12.01000 ; qtot -0.304
     3   c3     1   MOL    C3    3    -0.022000     12.01000 ; qtot -0.326
     4   ha     1   MOL    H1    4     0.161500      1.00800 ; qtot -0.164
     5   hc     1   MOL    H2    5     0.054700      1.00800 ; qtot -0.109
     6   hc     1   MOL    H3    6     0.054700      1.00800 ; qtot -0.055
     7   hc     1   MOL    H4    7     0.054700      1.00800 ; qtot -0.000

[ bonds ]
;   ai     aj funct   r             k
     1      2   1    1.2095e-01    5.8503e+05 ;     C1 - C2    
     1      4   1    1.0666e-01    3.2839e+05 ;     C1 - H1    
     2      3   1    1.4656e-01    2.3814e+05 ;     C2 - C3    
     3      5   1    1.0962e-01    2.8891e+05 ;     C3 - H2    
     3      6   1    1.0962e-01    2.8891e+05 ;     C3 - H3    
     3      7   1    1.0962e-01    2.8891e+05 ;     C3 - H4    

[ pairs ]
;   ai     aj    funct
     1      5      1 ;     C1 - H2    
     1      6      1 ;     C1 - H3    
     1      7      1 ;     C1 - H4    
     4      3      1 ;     H1 - C3    

[ angles ]
;   ai     aj     ak    funct   theta         cth
     1      2      3      1    1.7867e+02    4.4836e+02 ;     C1 - C2     - C3    
     2      1      4      1    1.7928e+02    3.4351e+02 ;     C2 - C1     - H1    
     2      3      5      1    1.0945e+02    3.7765e+02 ;     C2 - C3     - H2    
     2      3      6      1    1.0945e+02    3.7765e+02 ;     C2 - C3     - H3    
     2      3      7      1    1.0945e+02    3.7765e+02 ;     C2 - C3     - H4    
     5      3      6      1    1.0773e+02    2.9957e+02 ;     H2 - C3     - H3    
     5      3      7      1    1.0773e+02    2.9957e+02 ;     H2 - C3     - H4    
     6      3      7      1    1.0773e+02    2.9957e+02 ;     H3 - C3     - H4    

[ dihedrals ] ; propers
; for gromacs 4.5 or higher, using funct 9
;    i      j      k      l   func   phase     kd      pn
     1      2      3      5      9   180.00   0.00000   2 ;     C1-    C2-    C3-    H2
     1      2      3      6      9   180.00   0.00000   2 ;     C1-    C2-    C3-    H3
     1      2      3      7      9   180.00   0.00000   2 ;     C1-    C2-    C3-    H4
     4      1      2      3      9   180.00   0.00000   2 ;     H1-    C1-    C2-    C3
