; mobley_9112978_GMX.itp created by acpype (v: 2023.10.27) on Thu May 21 00:16:26 2026

[ atomtypes ]
;name   bond_type     mass     charge   ptype   sigma         epsilon       Amb
 c2       c2          0.00000  0.00000   A     3.31521e-01   4.13379e-01 ; 1.86  0.0988
 c3       c3          0.00000  0.00000   A     3.39771e-01   4.51035e-01 ; 1.91  0.1078
 ha       ha          0.00000  0.00000   A     2.62548e-01   6.73624e-02 ; 1.47  0.0161
 hc       hc          0.00000  0.00000   A     2.60018e-01   8.70272e-02 ; 1.46  0.0208

[ moleculetype ]
;name            nrexcl
 mobley_9112978   3

[ atoms ]
;   nr  type  resi  res  atom  cgnr     charge      mass       ; qtot   bond_type
     1   c2     1   MOL    C1    1    -0.178200     12.01000 ; qtot -0.178
     2   c2     1   MOL    C2    2    -0.169200     12.01000 ; qtot -0.347
     3   c3     1   MOL    C3    3    -0.063900     12.01000 ; qtot -0.411
     4   c3     1   MOL    C4    4    -0.091100     12.01000 ; qtot -0.502
     5   c3     1   MOL    C5    5    -0.050200     12.01000 ; qtot -0.553
     6   ha     1   MOL    H1    6     0.116000      1.00800 ; qtot -0.437
     7   ha     1   MOL    H2    7     0.120000      1.00800 ; qtot -0.317
     8   hc     1   MOL    H3    8     0.040367      1.00800 ; qtot -0.276
     9   hc     1   MOL    H4    9     0.040367      1.00800 ; qtot -0.236
    10   hc     1   MOL    H5   10     0.040367      1.00800 ; qtot -0.195
    11   hc     1   MOL    H6   11     0.034033      1.00800 ; qtot -0.161
    12   hc     1   MOL    H7   12     0.034033      1.00800 ; qtot -0.127
    13   hc     1   MOL    H8   13     0.034033      1.00800 ; qtot -0.093
    14   hc     1   MOL    H9   14     0.046700      1.00800 ; qtot -0.047
    15   hc     1   MOL   H10   15     0.046700      1.00800 ; qtot -0.000

[ bonds ]
;   ai     aj funct   r             k
     1      2   1    1.3379e-01    3.6484e+05 ;     C1 - C2    
     1      3   1    1.5088e-01    2.0786e+05 ;     C1 - C3    
     1      6   1    1.0882e-01    2.9898e+05 ;     C1 - H1    
     2      5   1    1.5088e-01    2.0786e+05 ;     C2 - C5    
     2      7   1    1.0882e-01    2.9898e+05 ;     C2 - H2    
     3      8   1    1.0962e-01    2.8891e+05 ;     C3 - H3    
     3      9   1    1.0962e-01    2.8891e+05 ;     C3 - H4    
     3     10   1    1.0962e-01    2.8891e+05 ;     C3 - H5    
     4      5   1    1.5354e-01    1.9154e+05 ;     C4 - C5    
     4     11   1    1.0962e-01    2.8891e+05 ;     C4 - H6    
     4     12   1    1.0962e-01    2.8891e+05 ;     C4 - H7    
     4     13   1    1.0962e-01    2.8891e+05 ;     C4 - H8    
     5     14   1    1.0962e-01    2.8891e+05 ;     C5 - H9    
     5     15   1    1.0962e-01    2.8891e+05 ;     C5 - H10   

[ pairs ]
;   ai     aj    funct
     1      4      1 ;     C1 - C4    
     1     14      1 ;     C1 - H9    
     1     15      1 ;     C1 - H10   
     2      8      1 ;     C2 - H3    
     2      9      1 ;     C2 - H4    
     2     10      1 ;     C2 - H5    
     2     11      1 ;     C2 - H6    
     2     12      1 ;     C2 - H7    
     2     13      1 ;     C2 - H8    
     3      5      1 ;     C3 - C5    
     3      7      1 ;     C3 - H2    
     4      7      1 ;     C4 - H2    
     6      5      1 ;     H1 - C5    
     6      7      1 ;     H1 - H2    
     6      8      1 ;     H1 - H3    
     6      9      1 ;     H1 - H4    
     6     10      1 ;     H1 - H5    
     7     14      1 ;     H2 - H9    
     7     15      1 ;     H2 - H10   
    11     14      1 ;     H6 - H9    
    11     15      1 ;     H6 - H10   
    12     14      1 ;     H7 - H9    
    12     15      1 ;     H7 - H10   
    13     14      1 ;     H8 - H9    
    13     15      1 ;     H8 - H10   

[ angles ]
;   ai     aj     ak    funct   theta         cth
     1      2      5      1    1.2495e+02    5.0944e+02 ;     C1 - C2     - C5    
     1      2      7      1    1.2039e+02    3.8802e+02 ;     C1 - C2     - H2    
     1      3      8      1    1.1065e+02    3.6618e+02 ;     C1 - C3     - H3    
     1      3      9      1    1.1065e+02    3.6618e+02 ;     C1 - C3     - H4    
     1      3     10      1    1.1065e+02    3.6618e+02 ;     C1 - C3     - H5    
     2      1      3      1    1.2495e+02    5.0944e+02 ;     C2 - C1     - C3    
     2      1      6      1    1.2039e+02    3.8802e+02 ;     C2 - C1     - H1    
     2      5      4      1    1.1258e+02    5.0543e+02 ;     C2 - C5     - C4    
     2      5     14      1    1.1065e+02    3.6618e+02 ;     C2 - C5     - H9    
     2      5     15      1    1.1065e+02    3.6618e+02 ;     C2 - C5     - H10   
     3      1      6      1    1.1505e+02    3.5941e+02 ;     C3 - C1     - H1    
     4      5     14      1    1.0968e+02    3.6208e+02 ;     C4 - C5     - H9    
     4      5     15      1    1.0968e+02    3.6208e+02 ;     C4 - C5     - H10   
     5      2      7      1    1.1505e+02    3.5941e+02 ;     C5 - C2     - H2    
     5      4     11      1    1.0968e+02    3.6208e+02 ;     C5 - C4     - H6    
     5      4     12      1    1.0968e+02    3.6208e+02 ;     C5 - C4     - H7    
     5      4     13      1    1.0968e+02    3.6208e+02 ;     C5 - C4     - H8    
     8      3      9      1    1.0773e+02    2.9957e+02 ;     H3 - C3     - H4    
     8      3     10      1    1.0773e+02    2.9957e+02 ;     H3 - C3     - H5    
     9      3     10      1    1.0773e+02    2.9957e+02 ;     H4 - C3     - H5    
    11      4     12      1    1.0773e+02    2.9957e+02 ;     H6 - C4     - H7    
    11      4     13      1    1.0773e+02    2.9957e+02 ;     H6 - C4     - H8    
    12      4     13      1    1.0773e+02    2.9957e+02 ;     H7 - C4     - H8    
    14      5     15      1    1.0773e+02    2.9957e+02 ;     H9 - C5     - H10   

[ dihedrals ] ; propers
; for gromacs 4.5 or higher, using funct 9
;    i      j      k      l   func   phase     kd      pn
     1      2      5      4      9     0.00   0.00000   0 ;     C1-    C2-    C5-    C4
     1      2      5     14      9   180.00   1.08784   3 ;     C1-    C2-    C5-    H9
     1      2      5     15      9   180.00   1.08784   3 ;     C1-    C2-    C5-   H10
     2      1      3      8      9   180.00   1.08784   3 ;     C2-    C1-    C3-    H3
     2      1      3      9      9   180.00   1.08784   3 ;     C2-    C1-    C3-    H4
     2      1      3     10      9   180.00   1.08784   3 ;     C2-    C1-    C3-    H5
     2      5      4     11      9     0.00   0.65084   3 ;     C2-    C5-    C4-    H6
     2      5      4     12      9     0.00   0.65084   3 ;     C2-    C5-    C4-    H7
     2      5      4     13      9     0.00   0.65084   3 ;     C2-    C5-    C4-    H8
     3      1      2      5      9     0.00   0.62760   1 ;     C3-    C1-    C2-    C5
     3      1      2      5      9   180.00   5.56472   3 ;     C3-    C1-    C2-    C5
     3      1      2      5      9   180.00  24.18352   2 ;     C3-    C1-    C2-    C5
     3      1      2      7      9   180.00  27.82360   2 ;     C3-    C1-    C2-    H2
     4      5      2      7      9     0.00   0.00000   0 ;     C4-    C5-    C2-    H2
     6      1      2      5      9   180.00  27.82360   2 ;     H1-    C1-    C2-    C5
     6      1      2      7      9   180.00  27.82360   2 ;     H1-    C1-    C2-    H2
     6      1      3      8      9     0.00   0.00000   0 ;     H1-    C1-    C3-    H3
     6      1      3      9      9     0.00   0.00000   0 ;     H1-    C1-    C3-    H4
     6      1      3     10      9     0.00   0.00000   0 ;     H1-    C1-    C3-    H5
     7      2      5     14      9     0.00   0.00000   0 ;     H2-    C2-    C5-    H9
     7      2      5     15      9     0.00   0.00000   0 ;     H2-    C2-    C5-   H10
    11      4      5     14      9     0.00   0.50208   3 ;     H6-    C4-    C5-    H9
    11      4      5     15      9     0.00   0.50208   3 ;     H6-    C4-    C5-   H10
    12      4      5     14      9     0.00   0.50208   3 ;     H7-    C4-    C5-    H9
    12      4      5     15      9     0.00   0.50208   3 ;     H7-    C4-    C5-   H10
    13      4      5     14      9     0.00   0.50208   3 ;     H8-    C4-    C5-    H9
    13      4      5     15      9     0.00   0.50208   3 ;     H8-    C4-    C5-   H10

[ dihedrals ] ; impropers
; treated as propers in GROMACS to use correct AMBER analytical function
;    i      j      k      l   func   phase     kd      pn
     1      5      2      7      4   180.00   4.60240   2 ;     C1-    C5-    C2-    H2
     6      1      3      2      4   180.00   4.60240   2 ;     H1-    C1-    C3-    C2
