; mobley_4850657_GMX.itp created by acpype (v: 2023.10.27) on Thu May 21 00:12:34 2026

[ atomtypes ]
;name   bond_type     mass     charge   ptype   sigma         epsilon       Amb
 c3       c3          0.00000  0.00000   A     3.39771e-01   4.51035e-01 ; 1.91  0.1078
 o        o           0.00000  0.00000   A     3.04812e-01   6.12119e-01 ; 1.71  0.1463
 s6       s6          0.00000  0.00000   A     4.05840e-01   2.56898e-01 ; 2.28  0.0614
 cl       cl          0.00000  0.00000   A     3.46595e-01   1.10374e+00 ; 1.95  0.2638
 h1       h1          0.00000  0.00000   A     2.42200e-01   8.70272e-02 ; 1.36  0.0208

[ moleculetype ]
;name            nrexcl
 mobley_4850657   3

[ atoms ]
;   nr  type  resi  res  atom  cgnr     charge      mass       ; qtot   bond_type
     1   c3     1   MOL    C1    1    -0.390300     12.01000 ; qtot -0.390
     2    o     1   MOL    O1    2    -0.581800     16.00000 ; qtot -0.972
     3    o     1   MOL    O2    3    -0.581800     16.00000 ; qtot -1.554
     4   s6     1   MOL    S1    4     1.359701     32.06000 ; qtot -0.194
     5   cl     1   MOL   CL1    5    -0.225900     35.45000 ; qtot -0.420
     6   h1     1   MOL    H1    6     0.140033      1.00800 ; qtot -0.280
     7   h1     1   MOL    H2    7     0.140033      1.00800 ; qtot -0.140
     8   h1     1   MOL    H3    8     0.140033      1.00800 ; qtot 0.000

[ bonds ]
;   ai     aj funct   r             k
     1      4   1    1.8127e-01    1.6609e+05 ;     C1 - S1    
     1      6   1    1.0969e-01    2.8804e+05 ;     C1 - H1    
     1      7   1    1.0969e-01    2.8804e+05 ;     C1 - H2    
     1      8   1    1.0969e-01    2.8804e+05 ;     C1 - H3    
     2      4   1    1.4657e-01    5.1421e+05 ;     O1 - S1    
     3      4   1    1.4657e-01    5.1421e+05 ;     O2 - S1    
     4      5   1    2.0986e-01    1.8543e+05 ;     S1 - CL1   

[ pairs ]
;   ai     aj    funct
     6      2      1 ;     H1 - O1    
     6      3      1 ;     H1 - O2    
     6      5      1 ;     H1 - CL1   
     7      2      1 ;     H2 - O1    
     7      3      1 ;     H2 - O2    
     7      5      1 ;     H2 - CL1   
     8      2      1 ;     H3 - O1    
     8      3      1 ;     H3 - O2    
     8      5      1 ;     H3 - CL1   

[ angles ]
;   ai     aj     ak    funct   theta         cth
     1      4      2      1    1.0851e+02    9.9797e+02 ;     C1 - S1     - O1    
     1      4      3      1    1.0851e+02    9.9797e+02 ;     C1 - S1     - O2    
     1      4      5      1    9.9390e+01    8.3981e+02 ;     C1 - S1     - CL1   
     2      4      3      1    1.2021e+02    1.3263e+03 ;     O1 - S1     - O2    
     2      4      5      1    1.0742e+02    1.0289e+03 ;     O1 - S1     - CL1   
     3      4      5      1    1.0742e+02    1.0289e+03 ;     O2 - S1     - CL1   
     4      1      6      1    1.0707e+02    3.6066e+02 ;     S1 - C1     - H1    
     4      1      7      1    1.0707e+02    3.6066e+02 ;     S1 - C1     - H2    
     4      1      8      1    1.0707e+02    3.6066e+02 ;     S1 - C1     - H3    
     6      1      7      1    1.0855e+02    2.9824e+02 ;     H1 - C1     - H2    
     6      1      8      1    1.0855e+02    2.9824e+02 ;     H1 - C1     - H3    
     7      1      8      1    1.0855e+02    2.9824e+02 ;     H2 - C1     - H3    

[ dihedrals ] ; propers
; for gromacs 4.5 or higher, using funct 9
;    i      j      k      l   func   phase     kd      pn
     6      1      4      2      9     0.00   0.60436   3 ;     H1-    C1-    S1-    O1
     6      1      4      3      9     0.00   0.60436   3 ;     H1-    C1-    S1-    O2
     6      1      4      5      9     0.00   0.60436   3 ;     H1-    C1-    S1-   CL1
     7      1      4      2      9     0.00   0.60436   3 ;     H2-    C1-    S1-    O1
     7      1      4      3      9     0.00   0.60436   3 ;     H2-    C1-    S1-    O2
     7      1      4      5      9     0.00   0.60436   3 ;     H2-    C1-    S1-   CL1
     8      1      4      2      9     0.00   0.60436   3 ;     H3-    C1-    S1-    O1
     8      1      4      3      9     0.00   0.60436   3 ;     H3-    C1-    S1-    O2
     8      1      4      5      9     0.00   0.60436   3 ;     H3-    C1-    S1-   CL1
