mobley_8525830_GMX.gro created by acpype (v: 2023.10.27) on Thu May 21 00:12:16 2026
 2381
    1MOL     C1    1   2.562   2.281   2.225
    1MOL     C2    2   2.473   2.394   2.274
    1MOL     C3    3   2.393   2.358   2.400
    1MOL     C4    4   2.301   2.471   2.448
    1MOL     C5    5   2.221   2.429   2.571
    1MOL     I1    6   2.092   2.586   2.635
    1MOL     H1    7   2.503   2.196   2.190
    1MOL     H2    8   2.623   2.316   2.141
    1MOL     H3    9   2.629   2.246   2.304
    1MOL     H4   10   2.404   2.424   2.194
    1MOL     H5   11   2.536   2.481   2.297
    1MOL     H6   12   2.464   2.333   2.480
    1MOL     H7   13   2.333   2.268   2.381
    1MOL     H8   14   2.362   2.560   2.471
    1MOL     H9   15   2.232   2.500   2.367
    1MOL    H10   16   2.289   2.403   2.653
    1MOL    H11   17   2.162   2.340   2.548
   14SOL     OW   18   1.460   1.505   1.339
   14SOL    HW1   19   1.484   1.599   1.365
   14SOL    HW2   20   1.444   1.451   1.421
   18SOL     OW   21   1.127   1.341   1.690
   18SOL    HW1   22   1.174   1.341   1.778
   18SOL    HW2   23   1.079   1.254   1.679
   35SOL     OW   24   1.187   1.792   1.616
   35SOL    HW1   25   1.211   1.852   1.540
   35SOL    HW2   26   1.194   1.697   1.586
   56SOL     OW   27   1.227   1.550   1.506
   56SOL    HW1   28   1.233   1.473   1.570
   56SOL    HW2   29   1.175   1.524   1.426
   95SOL     OW   30   1.754   1.223   1.588
   95SOL    HW1   31   1.845   1.184   1.575
   95SOL    HW2   32   1.762   1.319   1.612
   97SOL     OW   33   1.592   1.629   1.625
   97SOL    HW1   34   1.619   1.663   1.535
   97SOL    HW2   35   1.671   1.591   1.671
  122SOL     OW   36   1.728   0.935   1.854
  122SOL    HW1   37   1.682   0.928   1.765
  122SOL    HW2   38   1.666   0.979   1.920
  126SOL     OW   39   0.980   1.573   1.700
  126SOL    HW1   40   0.960   1.617   1.612
  126SOL    HW2   41   1.019   1.482   1.684
  127SOL     OW   42   1.859   1.518   1.605
  127SOL    HW1   43   1.873   1.545   1.510
  127SOL    HW2   44   1.942   1.540   1.658
  152SOL     OW   45   1.759   1.747   1.154
  152SOL    HW1   46   1.820   1.777   1.081
  152SOL    HW2   47   1.721   1.658   1.132
  163SOL     OW   48   1.650   1.720   1.394
  163SOL    HW1   49   1.703   1.730   1.310
  163SOL    HW2   50   1.623   1.810   1.428
  171SOL     OW   51   1.614   1.292   1.289
  171SOL    HW1   52   1.674   1.295   1.369
  171SOL    HW2   53   1.539   1.356   1.302
  184SOL     OW   54   1.493   1.767   0.959
  184SOL    HW1   55   1.526   1.831   0.890
  184SOL    HW2   56   1.559   1.761   1.034
  186SOL     OW   57   1.450   1.220   1.633
  186SOL    HW1   58   1.441   1.210   1.732
  186SOL    HW2   59   1.546   1.213   1.607
  203SOL     OW   60   1.705   1.487   1.104
  203SOL    HW1   61   1.612   1.462   1.077
  203SOL    HW2   62   1.731   1.437   1.186
  219SOL     OW   63   1.555   1.511   2.565
  219SOL    HW1   64   1.498   1.495   2.646
  219SOL    HW2   65   1.496   1.521   2.485
  227SOL     OW   66   1.460   1.505   3.201
  227SOL    HW1   67   1.484   1.599   3.227
  227SOL    HW2   68   1.444   1.451   3.283
  238SOL     OW   69   1.842   1.767   2.221
  238SOL    HW1   70   1.896   1.738   2.301
  238SOL    HW2   71   1.872   1.857   2.192
  240SOL     OW   72   1.689   0.922   2.474
  240SOL    HW1   73   1.784   0.893   2.482
  240SOL    HW2   74   1.681   0.987   2.399
  241SOL     OW   75   1.641   1.108   2.294
  241SOL    HW1   76   1.727   1.110   2.242
  241SOL    HW2   77   1.655   1.155   2.382
  247SOL     OW   78   1.525   0.999   2.052
  247SOL    HW1   79   1.462   0.923   2.065
  247SOL    HW2   80   1.573   1.017   2.138
  248SOL     OW   81   1.187   1.792   3.478
  248SOL    HW1   82   1.211   1.852   3.402
  248SOL    HW2   83   1.194   1.697   3.448
  250SOL     OW   84   1.466   1.417   2.815
  250SOL    HW1   85   1.407   1.423   2.895
  250SOL    HW2   86   1.451   1.329   2.769
  251SOL     OW   87   1.667   1.714   2.434
  251SOL    HW1   88   1.626   1.691   2.346
  251SOL    HW2   89   1.649   1.640   2.499
  254SOL     OW   90   1.576   1.662   2.169
  254SOL    HW1   91   1.665   1.708   2.172
  254SOL    HW2   92   1.555   1.638   2.074
  264SOL     OW   93   1.362   1.144   2.407
  264SOL    HW1   94   1.445   1.115   2.359
  264SOL    HW2   95   1.313   1.211   2.351
  266SOL     OW   96   1.008   1.456   2.339
  266SOL    HW1   97   0.962   1.528   2.287
  266SOL    HW2   98   1.004   1.476   2.437
  268SOL     OW   99   1.795   1.066   2.735
  268SOL    HW1  100   1.733   1.051   2.659
  268SOL    HW2  101   1.743   1.077   2.820
  269SOL     OW  102   1.227   1.550   3.368
  269SOL    HW1  103   1.233   1.473   3.432
  269SOL    HW2  104   1.175   1.524   3.288
  273SOL     OW  105   1.111   1.776   2.099
  273SOL    HW1  106   1.051   1.714   2.149
  273SOL    HW2  107   1.142   1.732   2.014
  275SOL     OW  108   1.632   1.377   1.943
  275SOL    HW1  109   1.600   1.471   1.933
  275SOL    HW2  110   1.556   1.314   1.931
  279SOL     OW  111   0.940   1.698   2.766
  279SOL    HW1  112   1.020   1.641   2.787
  279SOL    HW2  113   0.891   1.658   2.689
  289SOL     OW  114   1.434   1.188   1.903
  289SOL    HW1  115   1.466   1.112   1.960
  289SOL    HW2  116   1.342   1.215   1.933
  293SOL     OW  117   1.227   1.570   2.655
  293SOL    HW1  118   1.248   1.644   2.590
  293SOL    HW2  119   1.295   1.570   2.728
  295SOL     OW  120   1.271   1.797   2.453
  295SOL    HW1  121   1.315   1.861   2.389
  295SOL    HW2  122   1.221   1.849   2.523
  301SOL     OW  123   1.429   1.173   2.729
  301SOL    HW1  124   1.374   1.089   2.722
  301SOL    HW2  125   1.455   1.202   2.637
  303SOL     OW  126   1.857   0.833   2.239
  303SOL    HW1  127   1.899   0.769   2.303
  303SOL    HW2  128   1.819   0.782   2.161
  305SOL     OW  129   1.664   1.280   2.519
  305SOL    HW1  130   1.763   1.288   2.533
  305SOL    HW2  131   1.619   1.364   2.550
  308SOL     OW  132   1.754   1.223   3.450
  308SOL    HW1  133   1.845   1.184   3.437
  308SOL    HW2  134   1.762   1.319   3.474
  310SOL     OW  135   1.592   1.629   3.487
  310SOL    HW1  136   1.619   1.663   3.397
  310SOL    HW2  137   1.671   1.591   3.533
  312SOL     OW  138   1.638   1.099   2.941
  312SOL    HW1  139   1.643   1.180   3.000
  312SOL    HW2  140   1.552   1.101   2.890
  321SOL     OW  141   1.252   1.348   2.250
  321SOL    HW1  142   1.302   1.425   2.290
  321SOL    HW2  143   1.157   1.350   2.282
  322SOL     OW  144   1.272   1.445   3.004
  322SOL    HW1  145   1.319   1.458   3.091
  322SOL    HW2  146   1.206   1.371   3.013
  340SOL     OW  147   1.859   1.518   3.467
  340SOL    HW1  148   1.873   1.545   3.372
  340SOL    HW2  149   1.942   1.540   3.520
  344SOL     OW  150   1.068   1.333   2.711
  344SOL    HW1  151   1.075   1.249   2.656
  344SOL    HW2  152   1.130   1.402   2.675
  365SOL     OW  153   1.759   1.747   3.016
  365SOL    HW1  154   1.820   1.777   2.943
  365SOL    HW2  155   1.721   1.658   2.994
  366SOL     OW  156   1.252   1.731   2.990
  366SOL    HW1  157   1.336   1.736   2.936
  366SOL    HW2  158   1.229   1.635   3.008
  370SOL     OW  159   1.388   1.573   2.339
  370SOL    HW1  160   1.455   1.585   2.265
  370SOL    HW2  161   1.348   1.662   2.362
  375SOL     OW  162   1.650   1.720   3.256
  375SOL    HW1  163   1.703   1.730   3.172
  375SOL    HW2  164   1.623   1.810   3.290
  378SOL     OW  165   1.194   1.612   1.893
  378SOL    HW1  166   1.200   1.519   1.930
  378SOL    HW2  167   1.135   1.612   1.813
  381SOL     OW  168   1.504   1.607   1.906
  381SOL    HW1  169   1.412   1.644   1.913
  381SOL    HW2  170   1.542   1.627   1.816
  383SOL     OW  171   1.614   1.292   3.151
  383SOL    HW1  172   1.674   1.295   3.231
  383SOL    HW2  173   1.539   1.356   3.164
  394SOL     OW  174   1.183   1.335   1.981
  394SOL    HW1  175   1.084   1.324   1.983
  394SOL    HW2  176   1.217   1.350   2.074
  396SOL     OW  177   1.493   1.767   2.821
  396SOL    HW1  178   1.526   1.831   2.752
  396SOL    HW2  179   1.559   1.761   2.896
  409SOL     OW  180   1.861   1.569   2.713
  409SOL    HW1  181   1.790   1.557   2.643
  409SOL    HW2  182   1.862   1.490   2.773
  415SOL     OW  183   1.705   1.487   2.966
  415SOL    HW1  184   1.612   1.462   2.939
  415SOL    HW2  185   1.731   1.437   3.048
  417SOL     OW  186   0.812   1.586   2.549
  417SOL    HW1  187   0.844   1.596   2.455
  417SOL    HW2  188   0.733   1.524   2.551
  426SOL     OW  189   0.875   1.646   2.199
  426SOL    HW1  190   0.798   1.611   2.145
  426SOL    HW2  191   0.843   1.717   2.261
  553SOL     OW  192   0.850   2.660   1.823
  553SOL    HW1  193   0.846   2.736   1.888
  553SOL    HW2  194   0.872   2.696   1.732
  557SOL     OW  195   1.460   3.367   1.339
  557SOL    HW1  196   1.484   3.461   1.365
  557SOL    HW2  197   1.444   3.313   1.421
  561SOL     OW  198   1.127   3.203   1.690
  561SOL    HW1  199   1.174   3.203   1.778
  561SOL    HW2  200   1.079   3.116   1.679
  566SOL     OW  201   1.594   1.976   1.480
  566SOL    HW1  202   1.576   2.043   1.408
  566SOL    HW2  203   1.591   2.022   1.569
  574SOL     OW  204   1.293   3.090   1.423
  574SOL    HW1  205   1.330   3.017   1.365
  574SOL    HW2  206   1.345   3.095   1.508
  586SOL     OW  207   1.394   2.331   1.674
  586SOL    HW1  208   1.374   2.374   1.762
  586SOL    HW2  209   1.472   2.269   1.683
  587SOL     OW  210   0.973   2.752   1.572
  587SOL    HW1  211   1.019   2.668   1.543
  587SOL    HW2  212   0.917   2.786   1.497
  593SOL     OW  213   1.719   2.447   1.831
  593SOL    HW1  214   1.693   2.536   1.795
  593SOL    HW2  215   1.717   2.379   1.758
  598SOL     OW  216   1.795   2.928   0.873
  598SOL    HW1  217   1.733   2.913   0.797
  598SOL    HW2  218   1.743   2.939   0.958
  599SOL     OW  219   1.227   3.412   1.506
  599SOL    HW1  220   1.233   3.335   1.570
  599SOL    HW2  221   1.175   3.386   1.426
  611SOL     OW  222   1.547   2.084   1.729
  611SOL    HW1  223   1.542   2.121   1.821
  611SOL    HW2  224   1.475   2.015   1.717
  613SOL     OW  225   0.781   2.126   1.749
  613SOL    HW1  226   0.848   2.065   1.792
  613SOL    HW2  227   0.708   2.145   1.814
  615SOL     OW  228   1.351   2.452   1.433
  615SOL    HW1  229   1.379   2.409   1.518
  615SOL    HW2  230   1.376   2.548   1.434
  621SOL     OW  231   1.076   2.545   1.464
  621SOL    HW1  232   0.996   2.484   1.467
  621SOL    HW2  233   1.157   2.492   1.440
  631SOL     OW  234   1.466   2.452   0.992
  631SOL    HW1  235   1.436   2.357   0.999
  631SOL    HW2  236   1.539   2.468   1.058
  637SOL     OW  237   1.754   3.085   1.588
  637SOL    HW1  238   1.845   3.046   1.575
  637SOL    HW2  239   1.762   3.181   1.612
  639SOL     OW  240   1.592   3.491   1.625
  639SOL    HW1  241   1.619   3.525   1.535
  639SOL    HW2  242   1.671   3.453   1.671
  641SOL     OW  243   1.638   2.961   1.079
  641SOL    HW1  244   1.643   3.042   1.138
  641SOL    HW2  245   1.552   2.963   1.028
  643SOL     OW  246   0.980   2.978   1.719
  643SOL    HW1  247   0.881   2.984   1.729
  643SOL    HW2  248   1.003   2.898   1.663
  646SOL     OW  249   1.274   2.248   1.262
  646SOL    HW1  250   1.295   2.322   1.326
  646SOL    HW2  251   1.185   2.265   1.219
  655SOL     OW  252   1.587   2.641   1.670
  655SOL    HW1  253   1.495   2.679   1.665
  655SOL    HW2  254   1.647   2.688   1.605
  656SOL     OW  255   1.013   1.967   1.770
  656SOL    HW1  256   1.019   2.052   1.718
  656SOL    HW2  257   1.045   1.891   1.713
  659SOL     OW  258   1.360   2.724   1.045
  659SOL    HW1  259   1.285   2.724   0.979
  659SOL    HW2  260   1.397   2.632   1.054
  664SOL     OW  261   1.728   2.797   1.854
  664SOL    HW1  262   1.682   2.790   1.765
  664SOL    HW2  263   1.666   2.841   1.920
  669SOL     OW  264   1.859   3.380   1.605
  669SOL    HW1  265   1.873   3.407   1.510
  669SOL    HW2  266   1.942   3.402   1.658
  676SOL     OW  267   1.138   2.242   1.678
  676SOL    HW1  268   1.093   2.305   1.742
  676SOL    HW2  269   1.231   2.273   1.661
  677SOL     OW  270   1.160   2.069   1.477
  677SOL    HW1  271   1.160   2.133   1.554
  677SOL    HW2  272   1.188   2.117   1.394
  684SOL     OW  273   1.369   2.812   1.660
  684SOL    HW1  274   1.408   2.901   1.680
  684SOL    HW2  275   1.379   2.792   1.563
  686SOL     OW  276   1.657   2.466   1.206
  686SOL    HW1  277   1.619   2.397   1.268
  686SOL    HW2  278   1.739   2.430   1.162
  692SOL     OW  279   1.347   2.921   1.234
  692SOL    HW1  280   1.371   2.858   1.160
  692SOL    HW2  281   1.257   2.961   1.216
  705SOL     OW  282   1.650   3.582   1.394
  705SOL    HW1  283   1.703   3.592   1.310
  705SOL    HW2  284   1.623   3.672   1.428
  706SOL     OW  285   1.841   2.037   0.963
  706SOL    HW1  286   1.880   1.952   0.927
  706SOL    HW2  287   1.743   2.039   0.944
  713SOL     OW  288   1.614   3.154   1.289
  713SOL    HW1  289   1.674   3.157   1.369
  713SOL    HW2  290   1.539   3.218   1.302
  717SOL     OW  291   1.709   2.247   1.381
  717SOL    HW1  292   1.782   2.316   1.385
  717SOL    HW2  293   1.737   2.172   1.322
  722SOL     OW  294   1.440   2.718   1.398
  722SOL    HW1  295   1.383   2.770   1.335
  722SOL    HW2  296   1.536   2.730   1.374
  728SOL     OW  297   1.450   3.082   1.633
  728SOL    HW1  298   1.441   3.072   1.732
  728SOL    HW2  299   1.546   3.075   1.607
  730SOL     OW  300   1.674   2.745   1.254
  730SOL    HW1  301   1.647   2.656   1.217
  730SOL    HW2  302   1.675   2.813   1.181
  733SOL     OW  303   1.777   2.204   1.642
  733SOL    HW1  304   1.760   2.235   1.548
  733SOL    HW2  305   1.693   2.167   1.680
  734SOL     OW  306   1.730   2.796   1.517
  734SOL    HW1  307   1.768   2.887   1.532
  734SOL    HW2  308   1.722   2.779   1.418
  743SOL     OW  309   1.824   2.054   1.227
  743SOL    HW1  310   1.820   1.964   1.271
  743SOL    HW2  311   1.827   2.043   1.128
  745SOL     OW  312   1.705   3.349   1.104
  745SOL    HW1  313   1.612   3.324   1.077
  745SOL    HW2  314   1.731   3.299   1.186
  748SOL     OW  315   1.424   2.076   1.112
  748SOL    HW1  316   1.476   2.011   1.167
  748SOL    HW2  317   1.375   2.139   1.173
  754SOL     OW  318   1.593   2.083   0.882
  754SOL    HW1  319   1.509   2.082   0.936
  754SOL    HW2  320   1.595   2.166   0.826
  761SOL     OW  321   1.555   3.373   2.565
  761SOL    HW1  322   1.498   3.357   2.646
  761SOL    HW2  323   1.496   3.383   2.485
  762SOL     OW  324   1.135   2.565   2.579
  762SOL    HW1  325   1.192   2.643   2.554
  762SOL    HW2  326   1.075   2.591   2.655
  763SOL     OW  327   1.755   2.469   2.093
  763SOL    HW1  328   1.743   2.456   1.994
  763SOL    HW2  329   1.725   2.388   2.142
  766SOL     OW  330   0.685   2.874   2.527
  766SOL    HW1  331   0.754   2.858   2.597
  766SOL    HW2  332   0.612   2.931   2.565
  769SOL     OW  333   1.460   3.367   3.201
  769SOL    HW1  334   1.484   3.461   3.227
  769SOL    HW2  335   1.444   3.313   3.283
  771SOL     OW  336   1.603   2.309   2.599
  771SOL    HW1  337   1.529   2.355   2.549
  771SOL    HW2  338   1.654   2.377   2.652
  778SOL     OW  339   1.594   1.976   3.342
  778SOL    HW1  340   1.576   2.043   3.270
  778SOL    HW2  341   1.591   2.022   3.431
  780SOL     OW  342   1.842   3.629   2.221
  780SOL    HW1  343   1.896   3.600   2.301
  780SOL    HW2  344   1.872   3.719   2.192
  782SOL     OW  345   1.689   2.784   2.474
  782SOL    HW1  346   1.784   2.755   2.482
  782SOL    HW2  347   1.681   2.849   2.399
  783SOL     OW  348   1.641   2.970   2.294
  783SOL    HW1  349   1.727   2.972   2.242
  783SOL    HW2  350   1.655   3.017   2.382
  786SOL     OW  351   1.293   3.090   3.285
  786SOL    HW1  352   1.330   3.017   3.227
  786SOL    HW2  353   1.345   3.095   3.370
  787SOL     OW  354   0.809   1.866   2.364
  787SOL    HW1  355   0.849   1.957   2.355
  787SOL    HW2  356   0.709   1.874   2.370
  789SOL     OW  357   1.525   2.861   2.052
  789SOL    HW1  358   1.462   2.785   2.065
  789SOL    HW2  359   1.573   2.879   2.138
  792SOL     OW  360   1.466   3.279   2.815
  792SOL    HW1  361   1.407   3.285   2.895
  792SOL    HW2  362   1.451   3.191   2.769
  793SOL     OW  363   1.667   3.576   2.434
  793SOL    HW1  364   1.626   3.553   2.346
  793SOL    HW2  365   1.649   3.502   2.499
  795SOL     OW  366   1.281   2.207   2.806
  795SOL    HW1  367   1.195   2.157   2.793
  795SOL    HW2  368   1.343   2.153   2.862
  796SOL     OW  369   1.576   3.524   2.169
  796SOL    HW1  370   1.665   3.570   2.172
  796SOL    HW2  371   1.555   3.500   2.074
  798SOL     OW  372   1.394   2.331   3.536
  798SOL    HW1  373   1.374   2.374   3.624
  798SOL    HW2  374   1.472   2.269   3.545
  799SOL     OW  375   0.973   2.752   3.434
  799SOL    HW1  376   1.019   2.668   3.405
  799SOL    HW2  377   0.917   2.786   3.359
  800SOL     OW  378   0.991   2.272   3.104
  800SOL    HW1  379   0.914   2.306   3.158
  800SOL    HW2  380   0.957   2.221   3.025
  801SOL     OW  381   1.041   2.563   2.291
  801SOL    HW1  382   1.067   2.559   2.387
  801SOL    HW2  383   0.956   2.512   2.277
  804SOL     OW  384   0.865   2.210   2.057
  804SOL    HW1  385   0.924   2.273   2.008
  804SOL    HW2  386   0.884   2.116   2.028
  805SOL     OW  387   1.719   2.447   3.693
  805SOL    HW1  388   1.693   2.536   3.657
  805SOL    HW2  389   1.717   2.379   3.620
  806SOL     OW  390   1.362   3.006   2.407
  806SOL    HW1  391   1.445   2.977   2.359
  806SOL    HW2  392   1.313   3.073   2.351
  808SOL     OW  393   1.008   3.318   2.339
  808SOL    HW1  394   0.962   3.390   2.287
  808SOL    HW2  395   1.004   3.338   2.437
  810SOL     OW  396   1.795   2.928   2.735
  810SOL    HW1  397   1.733   2.913   2.659
  810SOL    HW2  398   1.743   2.939   2.820
  813SOL     OW  399   1.458   2.597   2.590
  813SOL    HW1  400   1.453   2.532   2.665
  813SOL    HW2  401   1.538   2.656   2.603
  817SOL     OW  402   1.632   3.239   1.943
  817SOL    HW1  403   1.600   3.333   1.933
  817SOL    HW2  404   1.556   3.176   1.931
  819SOL     OW  405   1.400   1.969   2.288
  819SOL    HW1  406   1.376   1.932   2.198
  819SOL    HW2  407   1.499   1.985   2.292
  823SOL     OW  408   1.547   2.084   3.591
  823SOL    HW1  409   1.542   2.121   3.683
  823SOL    HW2  410   1.475   2.015   3.579
  827SOL     OW  411   1.351   2.452   3.295
  827SOL    HW1  412   1.379   2.409   3.380
  827SOL    HW2  413   1.376   2.548   3.296
  829SOL     OW  414   0.922   2.365   2.761
  829SOL    HW1  415   0.897   2.356   2.665
  829SOL    HW2  416   0.970   2.283   2.792
  831SOL     OW  417   1.434   3.050   1.903
  831SOL    HW1  418   1.466   2.974   1.960
  831SOL    HW2  419   1.342   3.077   1.933
  833SOL     OW  420   0.935   2.098   2.342
  833SOL    HW1  421   0.887   2.139   2.264
  833SOL    HW2  422   1.034   2.096   2.323
  834SOL     OW  423   1.076   2.545   3.326
  834SOL    HW1  424   0.996   2.484   3.329
  834SOL    HW2  425   1.157   2.492   3.302
  835SOL     OW  426   1.227   3.432   2.655
  835SOL    HW1  427   1.248   3.506   2.590
  835SOL    HW2  428   1.295   3.432   2.728
  837SOL     OW  429   1.271   3.659   2.453
  837SOL    HW1  430   1.315   3.723   2.389
  837SOL    HW2  431   1.221   3.711   2.523
  838SOL     OW  432   1.032   2.411   1.878
  838SOL    HW1  433   0.991   2.493   1.839
  838SOL    HW2  434   1.096   2.437   1.951
  841SOL     OW  435   0.866   2.316   2.504
  841SOL    HW1  436   0.834   2.388   2.442
  841SOL    HW2  437   0.890   2.235   2.451
  842SOL     OW  438   1.017   1.901   2.615
  842SOL    HW1  439   0.945   1.906   2.546
  842SOL    HW2  440   0.993   1.832   2.684
  843SOL     OW  441   1.429   3.035   2.729
  843SOL    HW1  442   1.374   2.951   2.722
  843SOL    HW2  443   1.455   3.064   2.637
  844SOL     OW  444   1.466   2.452   2.854
  844SOL    HW1  445   1.436   2.357   2.861
  844SOL    HW2  446   1.539   2.468   2.920
  845SOL     OW  447   1.857   2.695   2.239
  845SOL    HW1  448   1.899   2.631   2.303
  845SOL    HW2  449   1.819   2.644   2.161
  847SOL     OW  450   1.664   3.142   2.519
  847SOL    HW1  451   1.763   3.150   2.533
  847SOL    HW2  452   1.619   3.226   2.550
  848SOL     OW  453   1.390   2.437   1.940
  848SOL    HW1  454   1.336   2.416   2.021
  848SOL    HW2  455   1.481   2.396   1.949
  850SOL     OW  456   1.754   3.085   3.450
  850SOL    HW1  457   1.845   3.046   3.437
  850SOL    HW2  458   1.762   3.181   3.474
  851SOL     OW  459   1.064   3.209   3.202
  851SOL    HW1  460   0.984   3.186   3.257
  851SOL    HW2  461   1.147   3.183   3.251
  852SOL     OW  462   1.592   3.491   3.487
  852SOL    HW1  463   1.619   3.525   3.397
  852SOL    HW2  464   1.671   3.453   3.533
  853SOL     OW  465   1.111   3.057   2.962
  853SOL    HW1  466   1.071   3.101   3.043
  853SOL    HW2  467   1.070   3.094   2.879
  854SOL     OW  468   1.638   2.961   2.941
  854SOL    HW1  469   1.643   3.042   3.000
  854SOL    HW2  470   1.552   2.963   2.890
  855SOL     OW  471   0.915   1.951   3.264
  855SOL    HW1  472   0.940   1.931   3.169
  855SOL    HW2  473   0.987   2.007   3.306
  857SOL     OW  474   0.705   2.912   2.230
  857SOL    HW1  475   0.691   2.919   2.329
  857SOL    HW2  476   0.789   2.861   2.212
  859SOL     OW  477   1.274   2.248   3.124
  859SOL    HW1  478   1.295   2.322   3.188
  859SOL    HW2  479   1.185   2.265   3.081
  863SOL     OW  480   1.252   3.210   2.250
  863SOL    HW1  481   1.302   3.287   2.290
  863SOL    HW2  482   1.157   3.212   2.282
  864SOL     OW  483   1.272   3.307   3.004
  864SOL    HW1  484   1.319   3.320   3.091
  864SOL    HW2  485   1.206   3.233   3.013
  865SOL     OW  486   1.582   2.501   2.334
  865SOL    HW1  487   1.551   2.562   2.407
  865SOL    HW2  488   1.632   2.553   2.265
  868SOL     OW  489   1.587   2.641   3.532
  868SOL    HW1  490   1.495   2.679   3.527
  868SOL    HW2  491   1.647   2.688   3.467
  872SOL     OW  492   1.360   2.724   2.907
  872SOL    HW1  493   1.285   2.724   2.841
  872SOL    HW2  494   1.397   2.632   2.916
  873SOL     OW  495   1.209   2.387   2.137
  873SOL    HW1  496   1.222   2.303   2.191
  873SOL    HW2  497   1.180   2.461   2.197
  876SOL     OW  498   0.732   2.496   2.926
  876SOL    HW1  499   0.791   2.470   2.850
  876SOL    HW2  500   0.704   2.592   2.915
  877SOL     OW  501   1.728   2.797   3.716
  877SOL    HW1  502   1.682   2.790   3.627
  877SOL    HW2  503   1.666   2.841   3.782
  879SOL     OW  504   1.622   2.229   2.236
  879SOL    HW1  505   1.624   2.153   2.300
  879SOL    HW2  506   1.574   2.306   2.276
  880SOL     OW  507   1.023   2.628   2.828
  880SOL    HW1  508   1.038   2.649   2.924
  880SOL    HW2  509   0.993   2.533   2.819
  882SOL     OW  510   1.859   3.380   3.467
  882SOL    HW1  511   1.873   3.407   3.372
  882SOL    HW2  512   1.942   3.402   3.520
  884SOL     OW  513   1.540   2.136   1.987
  884SOL    HW1  514   1.479   2.061   2.010
  884SOL    HW2  515   1.562   2.188   2.070
  885SOL     OW  516   1.303   2.700   1.904
  885SOL    HW1  517   1.337   2.607   1.919
  885SOL    HW2  518   1.321   2.727   1.809
  886SOL     OW  519   1.068   3.195   2.711
  886SOL    HW1  520   1.075   3.111   2.656
  886SOL    HW2  521   1.130   3.264   2.675
  889SOL     OW  522   1.138   2.242   3.540
  889SOL    HW1  523   1.093   2.305   3.604
  889SOL    HW2  524   1.231   2.273   3.523
  890SOL     OW  525   1.160   2.069   3.339
  890SOL    HW1  526   1.160   2.133   3.416
  890SOL    HW2  527   1.188   2.117   3.256
  894SOL     OW  528   1.002   2.658   3.100
  894SOL    HW1  529   1.043   2.626   3.186
  894SOL    HW2  530   0.906   2.631   3.097
  897SOL     OW  531   1.369   2.812   3.522
  897SOL    HW1  532   1.408   2.901   3.542
  897SOL    HW2  533   1.379   2.792   3.425
  898SOL     OW  534   0.815   2.434   2.187
  898SOL    HW1  535   0.822   2.345   2.141
  898SOL    HW2  536   0.721   2.468   2.179
  899SOL     OW  537   1.657   2.466   3.068
  899SOL    HW1  538   1.619   2.397   3.130
  899SOL    HW2  539   1.739   2.430   3.024
  905SOL     OW  540   1.347   2.921   3.096
  905SOL    HW1  541   1.371   2.858   3.022
  905SOL    HW2  542   1.257   2.961   3.078
  906SOL     OW  543   1.302   2.717   2.171
  906SOL    HW1  544   1.216   2.686   2.213
  906SOL    HW2  545   1.298   2.703   2.072
  907SOL     OW  546   1.759   3.609   3.016
  907SOL    HW1  547   1.820   3.639   2.943
  907SOL    HW2  548   1.721   3.520   2.994
  908SOL     OW  549   1.252   3.593   2.990
  908SOL    HW1  550   1.336   3.598   2.936
  908SOL    HW2  551   1.229   3.497   3.008
  911SOL     OW  552   1.726   1.997   2.385
  911SOL    HW1  553   1.799   1.980   2.318
  911SOL    HW2  554   1.695   1.910   2.423
  912SOL     OW  555   1.388   3.435   2.339
  912SOL    HW1  556   1.455   3.447   2.265
  912SOL    HW2  557   1.348   3.524   2.362
  914SOL     OW  558   1.280   2.789   2.534
  914SOL    HW1  559   1.340   2.708   2.536
  914SOL    HW2  560   1.320   2.858   2.474
  917SOL     OW  561   1.650   3.582   3.256
  917SOL    HW1  562   1.703   3.592   3.172
  917SOL    HW2  563   1.623   3.672   3.290
  918SOL     OW  564   1.841   2.037   2.825
  918SOL    HW1  565   1.880   1.952   2.789
  918SOL    HW2  566   1.743   2.039   2.806
  920SOL     OW  567   1.194   3.474   1.893
  920SOL    HW1  568   1.200   3.381   1.930
  920SOL    HW2  569   1.135   3.474   1.813
  922SOL     OW  570   0.916   2.772   2.153
  922SOL    HW1  571   0.979   2.810   2.085
  922SOL    HW2  572   0.956   2.689   2.192
  923SOL     OW  573   1.504   3.469   1.906
  923SOL    HW1  574   1.412   3.506   1.913
  923SOL    HW2  575   1.542   3.489   1.816
  925SOL     OW  576   1.614   3.154   3.151
  925SOL    HW1  577   1.674   3.157   3.231
  925SOL    HW2  578   1.539   3.218   3.164
  926SOL     OW  579   1.039   2.960   2.558
  926SOL    HW1  580   0.969   2.913   2.612
  926SOL    HW2  581   1.098   2.892   2.515
  927SOL     OW  582   1.014   2.098   2.833
  927SOL    HW1  583   1.006   2.062   2.740
  927SOL    HW2  584   1.012   2.022   2.898
  929SOL     OW  585   1.709   2.247   3.243
  929SOL    HW1  586   1.782   2.316   3.247
  929SOL    HW2  587   1.737   2.172   3.184
  934SOL     OW  588   1.440   2.718   3.260
  934SOL    HW1  589   1.383   2.770   3.197
  934SOL    HW2  590   1.536   2.730   3.236
  936SOL     OW  591   1.183   3.197   1.981
  936SOL    HW1  592   1.084   3.186   1.983
  936SOL    HW2  593   1.217   3.212   2.074
  938SOL     OW  594   1.493   3.629   2.821
  938SOL    HW1  595   1.526   3.693   2.752
  938SOL    HW2  596   1.559   3.623   2.896
  940SOL     OW  597   1.450   3.082   3.495
  940SOL    HW1  598   1.441   3.072   3.594
  940SOL    HW2  599   1.546   3.075   3.469
  942SOL     OW  600   1.674   2.745   3.116
  942SOL    HW1  601   1.647   2.656   3.079
  942SOL    HW2  602   1.675   2.813   3.043
  943SOL     OW  603   1.225   2.187   2.311
  943SOL    HW1  604   1.290   2.113   2.300
  943SOL    HW2  605   1.245   2.237   2.395
  945SOL     OW  606   1.777   2.204   3.504
  945SOL    HW1  607   1.760   2.235   3.410
  945SOL    HW2  608   1.693   2.167   3.542
  946SOL     OW  609   1.730   2.796   3.379
  946SOL    HW1  610   1.768   2.887   3.394
  946SOL    HW2  611   1.722   2.779   3.280
  949SOL     OW  612   0.859   2.818   2.723
  949SOL    HW1  613   0.913   2.749   2.771
  949SOL    HW2  614   0.827   2.887   2.789
  950SOL     OW  615   1.083   2.846   1.949
  950SOL    HW1  616   1.060   2.899   1.867
  950SOL    HW2  617   1.164   2.790   1.930
  951SOL     OW  618   1.861   3.431   2.713
  951SOL    HW1  619   1.790   3.419   2.643
  951SOL    HW2  620   1.862   3.352   2.773
  955SOL     OW  621   1.824   2.054   3.089
  955SOL    HW1  622   1.820   1.964   3.133
  955SOL    HW2  623   1.827   2.043   2.990
  957SOL     OW  624   1.705   3.349   2.966
  957SOL    HW1  625   1.612   3.324   2.939
  957SOL    HW2  626   1.731   3.299   3.048
  960SOL     OW  627   1.424   2.076   2.974
  960SOL    HW1  628   1.476   2.011   3.029
  960SOL    HW2  629   1.375   2.139   3.035
  961SOL     OW  630   1.001   1.896   3.016
  961SOL    HW1  631   0.938   1.824   2.985
  961SOL    HW2  632   1.094   1.860   3.016
  964SOL     OW  633   1.352   1.914   2.030
  964SOL    HW1  634   1.387   1.873   1.946
  964SOL    HW2  635   1.262   1.876   2.050
  965SOL     OW  636   1.300   2.315   2.553
  965SOL    HW1  637   1.241   2.395   2.557
  965SOL    HW2  638   1.315   2.280   2.646
  966SOL     OW  639   1.593   2.083   2.744
  966SOL    HW1  640   1.509   2.082   2.798
  966SOL    HW2  641   1.595   2.166   2.688
  974SOL     OW  642   1.755   2.469   3.955
  974SOL    HW1  643   1.743   2.456   3.856
  974SOL    HW2  644   1.725   2.388   4.004
 1027SOL     OW  645   1.390   2.437   3.802
 1027SOL    HW1  646   1.336   2.416   3.883
 1027SOL    HW2  647   1.481   2.396   3.811
 1040SOL     OW  648   1.540   2.136   3.849
 1040SOL    HW1  649   1.479   2.061   3.872
 1040SOL    HW2  650   1.562   2.188   3.932
 1041SOL     OW  651   1.303   2.700   3.766
 1041SOL    HW1  652   1.337   2.607   3.781
 1041SOL    HW2  653   1.321   2.727   3.671
 1236SOL     OW  654   1.400   3.831   2.288
 1236SOL    HW1  655   1.376   3.794   2.198
 1236SOL    HW2  656   1.499   3.847   2.292
 1294SOL     OW  657   1.726   3.859   2.385
 1294SOL    HW1  658   1.799   3.842   2.318
 1294SOL    HW2  659   1.695   3.772   2.423
 1296SOL     OW  660   1.841   3.899   2.825
 1296SOL    HW1  661   1.880   3.814   2.789
 1296SOL    HW2  662   1.743   3.901   2.806
 1314SOL     OW  663   1.824   3.916   3.089
 1314SOL    HW1  664   1.820   3.826   3.133
 1314SOL    HW2  665   1.827   3.905   2.990
 1319SOL     OW  666   1.352   3.776   2.030
 1319SOL    HW1  667   1.387   3.735   1.946
 1319SOL    HW2  668   1.262   3.738   2.050
 1321SOL     OW  669   1.593   3.945   2.744
 1321SOL    HW1  670   1.509   3.944   2.798
 1321SOL    HW2  671   1.595   4.028   2.688
 1389SOL     OW  672   2.431   1.275   1.165
 1389SOL    HW1  673   2.338   1.268   1.128
 1389SOL    HW2  674   2.442   1.364   1.209
 1394SOL     OW  675   2.712   0.798   1.823
 1394SOL    HW1  676   2.708   0.874   1.888
 1394SOL    HW2  677   2.734   0.834   1.732
 1396SOL     OW  678   2.548   1.161   1.803
 1396SOL    HW1  679   2.608   1.240   1.817
 1396SOL    HW2  680   2.462   1.192   1.762
 1397SOL     OW  681   2.197   1.435   1.061
 1397SOL    HW1  682   2.119   1.404   1.008
 1397SOL    HW2  683   2.255   1.493   1.004
 1398SOL     OW  684   3.322   1.505   1.339
 1398SOL    HW1  685   3.346   1.599   1.365
 1398SOL    HW2  686   3.306   1.451   1.421
 1402SOL     OW  687   2.989   1.341   1.690
 1402SOL    HW1  688   3.036   1.341   1.778
 1402SOL    HW2  689   2.941   1.254   1.679
 1405SOL     OW  690   2.482   1.786   1.439
 1405SOL    HW1  691   2.390   1.769   1.474
 1405SOL    HW2  692   2.510   1.878   1.465
 1415SOL     OW  693   3.155   1.228   1.423
 1415SOL    HW1  694   3.192   1.155   1.365
 1415SOL    HW2  695   3.207   1.233   1.508
 1419SOL     OW  696   3.049   1.792   1.616
 1419SOL    HW1  697   3.073   1.852   1.540
 1419SOL    HW2  698   3.056   1.697   1.586
 1428SOL     OW  699   2.835   0.890   1.572
 1428SOL    HW1  700   2.881   0.806   1.543
 1428SOL    HW2  701   2.779   0.924   1.497
 1432SOL     OW  702   1.992   1.821   1.571
 1432SOL    HW1  703   1.982   1.806   1.670
 1432SOL    HW2  704   1.906   1.857   1.535
 1438SOL     OW  705   2.213   1.801   0.853
 1438SOL    HW1  706   2.263   1.715   0.859
 1438SOL    HW2  707   2.278   1.878   0.850
 1440SOL     OW  708   3.089   1.550   1.506
 1440SOL    HW1  709   3.095   1.473   1.570
 1440SOL    HW2  710   3.037   1.524   1.426
 1443SOL     OW  711   2.323   1.266   1.727
 1443SOL    HW1  712   2.273   1.267   1.641
 1443SOL    HW2  713   2.260   1.248   1.803
 1449SOL     OW  714   2.111   1.785   1.241
 1449SOL    HW1  715   2.168   1.720   1.291
 1449SOL    HW2  716   2.095   1.752   1.148
 1450SOL     OW  717   2.802   1.698   0.904
 1450SOL    HW1  718   2.882   1.641   0.925
 1450SOL    HW2  719   2.753   1.658   0.827
 1455SOL     OW  720   2.750   1.514   1.195
 1455SOL    HW1  721   2.727   1.489   1.101
 1455SOL    HW2  722   2.811   1.445   1.234
 1457SOL     OW  723   2.665   1.402   0.924
 1457SOL    HW1  724   2.755   1.416   0.882
 1457SOL    HW2  725   2.594   1.404   0.853
 1480SOL     OW  726   2.926   1.347   1.340
 1480SOL    HW1  727   2.846   1.324   1.395
 1480SOL    HW2  728   3.009   1.321   1.389
 1481SOL     OW  729   3.454   1.629   1.625
 1481SOL    HW1  730   3.481   1.663   1.535
 1481SOL    HW2  731   3.533   1.591   1.671
 1485SOL     OW  732   2.842   1.116   1.719
 1485SOL    HW1  733   2.743   1.122   1.729
 1485SOL    HW2  734   2.865   1.036   1.663
 1489SOL     OW  735   1.926   1.564   1.331
 1489SOL    HW1  736   1.880   1.646   1.297
 1489SOL    HW2  737   2.024   1.583   1.340
 1493SOL     OW  738   3.134   1.445   1.142
 1493SOL    HW1  739   3.181   1.458   1.229
 1493SOL    HW2  740   3.068   1.371   1.151
 1495SOL     OW  741   2.216   1.510   1.329
 1495SOL    HW1  742   2.195   1.466   1.242
 1495SOL    HW2  743   2.313   1.536   1.332
 1504SOL     OW  744   1.899   1.310   1.282
 1504SOL    HW1  745   1.952   1.261   1.350
 1504SOL    HW2  746   1.921   1.408   1.287
 1510SOL     OW  747   2.842   1.573   1.700
 1510SOL    HW1  748   2.822   1.617   1.612
 1510SOL    HW2  749   2.881   1.482   1.684
 1511SOL     OW  750   3.721   1.518   1.605
 1511SOL    HW1  751   3.735   1.545   1.510
 1511SOL    HW2  752   3.804   1.540   1.658
 1512SOL     OW  753   2.212   0.898   1.804
 1512SOL    HW1  754   2.288   0.942   1.852
 1512SOL    HW2  755   2.247   0.851   1.722
 1521SOL     OW  756   1.950   1.801   0.927
 1521SOL    HW1  757   1.908   1.715   0.900
 1521SOL    HW2  758   2.044   1.804   0.893
 1522SOL     OW  759   2.366   1.568   0.910
 1522SOL    HW1  760   2.432   1.642   0.919
 1522SOL    HW2  761   2.410   1.489   0.868
 1529SOL     OW  762   2.114   1.564   1.744
 1529SOL    HW1  763   2.084   1.621   1.820
 1529SOL    HW2  764   2.107   1.467   1.770
 1531SOL     OW  765   2.792   1.678   1.465
 1531SOL    HW1  766   2.768   1.660   1.370
 1531SOL    HW2  767   2.822   1.772   1.475
 1533SOL     OW  768   2.021   1.137   1.466
 1533SOL    HW1  769   2.043   1.076   1.542
 1533SOL    HW2  770   2.031   1.088   1.380
 1537SOL     OW  771   3.114   1.731   1.128
 1537SOL    HW1  772   3.198   1.736   1.074
 1537SOL    HW2  773   3.091   1.635   1.146
 1539SOL     OW  774   2.550   1.662   1.716
 1539SOL    HW1  775   2.494   1.743   1.725
 1539SOL    HW2  776   2.602   1.666   1.630
 1543SOL     OW  777   1.992   1.794   1.851
 1543SOL    HW1  778   1.951   1.720   1.904
 1543SOL    HW2  779   2.056   1.845   1.909
 1545SOL     OW  780   2.692   1.273   1.422
 1545SOL    HW1  781   2.687   1.306   1.517
 1545SOL    HW2  782   2.606   1.292   1.376
 1547SOL     OW  783   3.512   1.720   1.394
 1547SOL    HW1  784   3.565   1.730   1.310
 1547SOL    HW2  785   3.485   1.810   1.428
 1551SOL     OW  786   2.684   1.002   1.372
 1551SOL    HW1  787   2.724   1.001   1.280
 1551SOL    HW2  788   2.694   1.094   1.412
 1554SOL     OW  789   2.234   1.288   1.490
 1554SOL    HW1  790   2.221   1.381   1.456
 1554SOL    HW2  791   2.150   1.236   1.477
 1561SOL     OW  792   1.967   1.013   1.726
 1561SOL    HW1  793   1.890   0.980   1.780
 1561SOL    HW2  794   2.052   0.983   1.768
 1569SOL     OW  795   3.312   1.220   1.633
 1569SOL    HW1  796   3.303   1.210   1.732
 1569SOL    HW2  797   3.408   1.213   1.607
 1570SOL     OW  798   2.252   1.741   1.560
 1570SOL    HW1  799   2.161   1.782   1.558
 1570SOL    HW2  800   2.245   1.647   1.592
 1577SOL     OW  801   2.523   1.790   0.953
 1577SOL    HW1  802   2.477   1.878   0.940
 1577SOL    HW2  803   2.622   1.802   0.946
 1581SOL     OW  804   2.083   1.314   1.844
 1581SOL    HW1  805   2.018   1.241   1.823
 1581SOL    HW2  806   2.087   1.328   1.942
 1583SOL     OW  807   2.534   1.391   1.624
 1583SOL    HW1  808   2.456   1.341   1.662
 1583SOL    HW2  809   2.531   1.486   1.655
 1592SOL     OW  810   2.480   1.567   1.284
 1592SOL    HW1  811   2.475   1.649   1.341
 1592SOL    HW2  812   2.569   1.564   1.239
 1601SOL     OW  813   2.431   1.275   3.027
 1601SOL    HW1  814   2.338   1.268   2.990
 1601SOL    HW2  815   2.442   1.364   3.071
 1602SOL     OW  816   3.417   1.511   2.565
 1602SOL    HW1  817   3.360   1.495   2.646
 1602SOL    HW2  818   3.358   1.521   2.485
 1605SOL     OW  819   2.630   1.144   2.885
 1605SOL    HW1  820   2.552   1.161   2.945
 1605SOL    HW2  821   2.664   1.231   2.849
 1607SOL     OW  822   2.547   1.012   2.527
 1607SOL    HW1  823   2.616   0.996   2.597
 1607SOL    HW2  824   2.474   1.069   2.565
 1608SOL     OW  825   2.548   1.161   3.665
 1608SOL    HW1  826   2.608   1.240   3.679
 1608SOL    HW2  827   2.462   1.192   3.624
 1609SOL     OW  828   2.197   1.435   2.923
 1609SOL    HW1  829   2.119   1.404   2.870
 1609SOL    HW2  830   2.255   1.493   2.866
 1610SOL     OW  831   3.322   1.505   3.201
 1610SOL    HW1  832   3.346   1.599   3.227
 1610SOL    HW2  833   3.306   1.451   3.283
 1613SOL     OW  834   2.093   1.713   2.345
 1613SOL    HW1  835   2.127   1.790   2.399
 1613SOL    HW2  836   2.137   1.713   2.255
 1614SOL     OW  837   2.989   1.341   3.552
 1614SOL    HW1  838   3.036   1.341   3.640
 1614SOL    HW2  839   2.941   1.254   3.541
 1615SOL     OW  840   2.092   1.434   2.400
 1615SOL    HW1  841   2.066   1.530   2.400
 1615SOL    HW2  842   2.021   1.380   2.445
 1616SOL     OW  843   2.102   1.091   2.748
 1616SOL    HW1  844   2.116   1.007   2.800
 1616SOL    HW2  845   2.047   1.155   2.803
 1617SOL     OW  846   2.482   1.786   3.301
 1617SOL    HW1  847   2.390   1.769   3.336
 1617SOL    HW2  848   2.510   1.878   3.327
 1618SOL     OW  849   2.468   0.964   1.985
 1618SOL    HW1  850   2.475   1.048   1.931
 1618SOL    HW2  851   2.514   0.977   2.073
 1620SOL     OW  852   1.984   0.643   2.425
 1620SOL    HW1  853   1.939   0.555   2.442
 1620SOL    HW2  854   1.983   0.697   2.509
 1621SOL     OW  855   3.704   1.767   2.221
 1621SOL    HW1  856   3.758   1.738   2.301
 1621SOL    HW2  857   3.734   1.857   2.192
 1622SOL     OW  858   1.889   1.596   1.979
 1622SOL    HW1  859   1.870   1.500   2.000
 1622SOL    HW2  860   1.856   1.654   2.054
 1624SOL     OW  861   3.503   1.108   2.294
 1624SOL    HW1  862   3.589   1.110   2.242
 1624SOL    HW2  863   3.517   1.155   2.382
 1626SOL     OW  864   2.475   1.365   2.588
 1626SOL    HW1  865   2.426   1.278   2.597
 1626SOL    HW2  866   2.452   1.408   2.501
 1627SOL     OW  867   3.155   1.228   3.285
 1627SOL    HW1  868   3.192   1.155   3.227
 1627SOL    HW2  869   3.207   1.233   3.370
 1629SOL     OW  870   2.059   0.976   3.126
 1629SOL    HW1  871   2.148   0.931   3.112
 1629SOL    HW2  872   1.986   0.911   3.107
 1630SOL     OW  873   3.387   0.999   2.052
 1630SOL    HW1  874   3.324   0.923   2.065
 1630SOL    HW2  875   3.435   1.017   2.138
 1631SOL     OW  876   3.049   1.792   3.478
 1631SOL    HW1  877   3.073   1.852   3.402
 1631SOL    HW2  878   3.056   1.697   3.448
 1633SOL     OW  879   3.328   1.417   2.815
 1633SOL    HW1  880   3.269   1.423   2.895
 1633SOL    HW2  881   3.313   1.329   2.769
 1634SOL     OW  882   3.529   1.714   2.434
 1634SOL    HW1  883   3.488   1.691   2.346
 1634SOL    HW2  884   3.511   1.640   2.499
 1635SOL     OW  885   2.460   0.729   2.132
 1635SOL    HW1  886   2.484   0.798   2.064
 1635SOL    HW2  887   2.382   0.762   2.186
 1637SOL     OW  888   3.438   1.662   2.169
 1637SOL    HW1  889   3.527   1.708   2.172
 1637SOL    HW2  890   3.417   1.638   2.074
 1642SOL     OW  891   2.903   0.701   2.291
 1642SOL    HW1  892   2.929   0.697   2.387
 1642SOL    HW2  893   2.818   0.650   2.277
 1643SOL     OW  894   1.938   0.811   2.651
 1643SOL    HW1  895   2.037   0.799   2.660
 1643SOL    HW2  896   1.914   0.906   2.672
 1644SOL     OW  897   1.992   1.821   3.433
 1644SOL    HW1  898   1.982   1.806   3.532
 1644SOL    HW2  899   1.906   1.857   3.397
 1647SOL     OW  900   3.224   1.144   2.407
 1647SOL    HW1  901   3.307   1.115   2.359
 1647SOL    HW2  902   3.175   1.211   2.351
 1649SOL     OW  903   2.870   1.456   2.339
 1649SOL    HW1  904   2.824   1.528   2.287
 1649SOL    HW2  905   2.866   1.476   2.437
 1650SOL     OW  906   2.213   1.801   2.715
 1650SOL    HW1  907   2.263   1.715   2.721
 1650SOL    HW2  908   2.278   1.878   2.712
 1652SOL     OW  909   3.089   1.550   3.368
 1652SOL    HW1  910   3.095   1.473   3.432
 1652SOL    HW2  911   3.037   1.524   3.288
 1653SOL     OW  912   2.183   0.943   2.104
 1653SOL    HW1  913   2.265   0.982   2.062
 1653SOL    HW2  914   2.156   0.861   2.055
 1655SOL     OW  915   2.323   1.266   3.589
 1655SOL    HW1  916   2.273   1.267   3.503
 1655SOL    HW2  917   2.260   1.248   3.665
 1656SOL     OW  918   2.973   1.776   2.099
 1656SOL    HW1  919   2.913   1.714   2.149
 1656SOL    HW2  920   3.004   1.732   2.014
 1658SOL     OW  921   3.494   1.377   1.943
 1658SOL    HW1  922   3.462   1.471   1.933
 1658SOL    HW2  923   3.418   1.314   1.931
 1659SOL     OW  924   2.326   1.743   2.185
 1659SOL    HW1  925   2.359   1.782   2.271
 1659SOL    HW2  926   2.402   1.736   2.120
 1661SOL     OW  927   2.111   1.785   3.103
 1661SOL    HW1  928   2.168   1.720   3.153
 1661SOL    HW2  929   2.095   1.752   3.010
 1662SOL     OW  930   2.802   1.698   2.766
 1662SOL    HW1  931   2.882   1.641   2.787
 1662SOL    HW2  932   2.753   1.658   2.689
 1663SOL     OW  933   2.244   0.700   2.342
 1663SOL    HW1  934   2.289   0.610   2.339
 1663SOL    HW2  935   2.150   0.689   2.375
 1667SOL     OW  936   2.750   1.514   3.057
 1667SOL    HW1  937   2.727   1.489   2.963
 1667SOL    HW2  938   2.811   1.445   3.096
 1669SOL     OW  939   2.665   1.402   2.786
 1669SOL    HW1  940   2.755   1.416   2.744
 1669SOL    HW2  941   2.594   1.404   2.715
 1672SOL     OW  942   3.296   1.188   1.903
 1672SOL    HW1  943   3.328   1.112   1.960
 1672SOL    HW2  944   3.204   1.215   1.933
 1676SOL     OW  945   3.089   1.570   2.655
 1676SOL    HW1  946   3.110   1.644   2.590
 1676SOL    HW2  947   3.157   1.570   2.728
 1677SOL     OW  948   2.321   1.152   2.603
 1677SOL    HW1  949   2.250   1.125   2.668
 1677SOL    HW2  950   2.295   1.124   2.510
 1678SOL     OW  951   3.133   1.797   2.453
 1678SOL    HW1  952   3.177   1.861   2.389
 1678SOL    HW2  953   3.083   1.849   2.523
 1684SOL     OW  954   3.291   1.173   2.729
 1684SOL    HW1  955   3.236   1.089   2.722
 1684SOL    HW2  956   3.317   1.202   2.637
 1687SOL     OW  957   2.350   1.385   2.036
 1687SOL    HW1  958   2.263   1.370   2.083
 1687SOL    HW2  959   2.333   1.411   1.941
 1688SOL     OW  960   3.526   1.280   2.519
 1688SOL    HW1  961   3.625   1.288   2.533
 1688SOL    HW2  962   3.481   1.364   2.550
 1692SOL     OW  963   2.926   1.347   3.202
 1692SOL    HW1  964   2.846   1.324   3.257
 1692SOL    HW2  965   3.009   1.321   3.251
 1693SOL     OW  966   3.454   1.629   3.487
 1693SOL    HW1  967   3.481   1.663   3.397
 1693SOL    HW2  968   3.533   1.591   3.533
 1694SOL     OW  969   2.973   1.195   2.962
 1694SOL    HW1  970   2.933   1.239   3.043
 1694SOL    HW2  971   2.932   1.232   2.879
 1695SOL     OW  972   3.500   1.099   2.941
 1695SOL    HW1  973   3.505   1.180   3.000
 1695SOL    HW2  974   3.414   1.101   2.890
 1698SOL     OW  975   2.567   1.050   2.230
 1698SOL    HW1  976   2.553   1.057   2.329
 1698SOL    HW2  977   2.651   0.999   2.212
 1699SOL     OW  978   2.272   0.813   3.113
 1699SOL    HW1  979   2.358   0.825   3.163
 1699SOL    HW2  980   2.230   0.726   3.140
 1701SOL     OW  981   1.926   1.564   3.193
 1701SOL    HW1  982   1.880   1.646   3.159
 1701SOL    HW2  983   2.024   1.583   3.202
 1702SOL     OW  984   2.229   1.100   2.363
 1702SOL    HW1  985   2.222   1.183   2.307
 1702SOL    HW2  986   2.233   1.020   2.303
 1704SOL     OW  987   3.114   1.348   2.250
 1704SOL    HW1  988   3.164   1.425   2.290
 1704SOL    HW2  989   3.019   1.350   2.282
 1705SOL     OW  990   3.134   1.445   3.004
 1705SOL    HW1  991   3.181   1.458   3.091
 1705SOL    HW2  992   3.068   1.371   3.013
 1707SOL     OW  993   2.216   1.510   3.191
 1707SOL    HW1  994   2.195   1.466   3.104
 1707SOL    HW2  995   2.313   1.536   3.194
 1712SOL     OW  996   2.435   0.870   2.891
 1712SOL    HW1  997   2.479   0.959   2.882
 1712SOL    HW2  998   2.372   0.870   2.968
 1716SOL     OW  999   1.899   1.310   3.144
 1716SOL    HW1 1000   1.952   1.261   3.212
 1716SOL    HW2 1001   1.921   1.408   3.149
 1721SOL     OW 1002   2.885   0.766   2.828
 1721SOL    HW1 1003   2.900   0.787   2.924
 1721SOL    HW2 1004   2.855   0.671   2.819
 1722SOL     OW 1005   2.842   1.573   3.562
 1722SOL    HW1 1006   2.822   1.617   3.474
 1722SOL    HW2 1007   2.881   1.482   3.546
 1726SOL     OW 1008   3.165   0.838   1.904
 1726SOL    HW1 1009   3.199   0.745   1.919
 1726SOL    HW2 1010   3.183   0.865   1.809
 1727SOL     OW 1011   2.930   1.333   2.711
 1727SOL    HW1 1012   2.937   1.249   2.656
 1727SOL    HW2 1013   2.992   1.402   2.675
 1728SOL     OW 1014   2.181   0.810   2.811
 1728SOL    HW1 1015   2.274   0.846   2.816
 1728SOL    HW2 1016   2.175   0.725   2.863
 1732SOL     OW 1017   1.870   1.326   2.062
 1732SOL    HW1 1018   1.777   1.347   2.031
 1732SOL    HW2 1019   1.880   1.227   2.075
 1733SOL     OW 1020   1.950   1.801   2.789
 1733SOL    HW1 1021   1.908   1.715   2.762
 1733SOL    HW2 1022   2.044   1.804   2.755
 1734SOL     OW 1023   2.366   1.568   2.772
 1734SOL    HW1 1024   2.432   1.642   2.781
 1734SOL    HW2 1025   2.410   1.489   2.730
 1741SOL     OW 1026   2.114   1.564   3.606
 1741SOL    HW1 1027   2.084   1.621   3.682
 1741SOL    HW2 1028   2.107   1.467   3.632
 1743SOL     OW 1029   2.792   1.678   3.327
 1743SOL    HW1 1030   2.768   1.660   3.232
 1743SOL    HW2 1031   2.822   1.772   3.337
 1745SOL     OW 1032   2.021   1.137   3.328
 1745SOL    HW1 1033   2.043   1.076   3.404
 1745SOL    HW2 1034   2.031   1.088   3.242
 1746SOL     OW 1035   3.209   1.059   3.096
 1746SOL    HW1 1036   3.233   0.996   3.022
 1746SOL    HW2 1037   3.119   1.099   3.078
 1747SOL     OW 1038   3.164   0.855   2.171
 1747SOL    HW1 1039   3.078   0.824   2.213
 1747SOL    HW2 1040   3.160   0.841   2.072
 1748SOL     OW 1041   3.621   1.747   3.016
 1748SOL    HW1 1042   3.682   1.777   2.943
 1748SOL    HW2 1043   3.583   1.658   2.994
 1749SOL     OW 1044   3.114   1.731   2.990
 1749SOL    HW1 1045   3.198   1.736   2.936
 1749SOL    HW2 1046   3.091   1.635   3.008
 1750SOL     OW 1047   1.945   1.258   2.884
 1750SOL    HW1 1048   1.940   1.257   2.984
 1750SOL    HW2 1049   1.862   1.217   2.846
 1751SOL     OW 1050   2.550   1.662   3.578
 1751SOL    HW1 1051   2.494   1.743   3.587
 1751SOL    HW2 1052   2.602   1.666   3.492
 1753SOL     OW 1053   3.250   1.573   2.339
 1753SOL    HW1 1054   3.317   1.585   2.265
 1753SOL    HW2 1055   3.210   1.662   2.362
 1754SOL     OW 1056   1.992   1.794   3.713
 1754SOL    HW1 1057   1.951   1.720   3.766
 1754SOL    HW2 1058   2.056   1.845   3.771
 1755SOL     OW 1059   3.142   0.927   2.534
 1755SOL    HW1 1060   3.202   0.846   2.536
 1755SOL    HW2 1061   3.182   0.996   2.474
 1756SOL     OW 1062   2.692   1.273   3.284
 1756SOL    HW1 1063   2.687   1.306   3.379
 1756SOL    HW2 1064   2.606   1.292   3.238
 1757SOL     OW 1065   2.534   1.616   2.016
 1757SOL    HW1 1066   2.543   1.626   1.917
 1757SOL    HW2 1067   2.494   1.527   2.037
 1758SOL     OW 1068   3.512   1.720   3.256
 1758SOL    HW1 1069   3.565   1.730   3.172
 1758SOL    HW2 1070   3.485   1.810   3.290
 1761SOL     OW 1071   3.056   1.612   1.893
 1761SOL    HW1 1072   3.062   1.519   1.930
 1761SOL    HW2 1073   2.997   1.612   1.813
 1762SOL     OW 1074   2.684   1.002   3.234
 1762SOL    HW1 1075   2.724   1.001   3.142
 1762SOL    HW2 1076   2.694   1.094   3.274
 1763SOL     OW 1077   2.778   0.910   2.153
 1763SOL    HW1 1078   2.841   0.948   2.085
 1763SOL    HW2 1079   2.818   0.827   2.192
 1764SOL     OW 1080   3.366   1.607   1.906
 1764SOL    HW1 1081   3.274   1.644   1.913
 1764SOL    HW2 1082   3.404   1.627   1.816
 1765SOL     OW 1083   2.234   1.288   3.352
 1765SOL    HW1 1084   2.221   1.381   3.318
 1765SOL    HW2 1085   2.150   1.236   3.339
 1766SOL     OW 1086   3.476   1.292   3.151
 1766SOL    HW1 1087   3.536   1.295   3.231
 1766SOL    HW2 1088   3.401   1.356   3.164
 1767SOL     OW 1089   2.901   1.098   2.558
 1767SOL    HW1 1090   2.831   1.051   2.612
 1767SOL    HW2 1091   2.960   1.030   2.515
 1769SOL     OW 1092   2.452   1.487   2.353
 1769SOL    HW1 1093   2.494   1.429   2.283
 1769SOL    HW2 1094   2.408   1.566   2.309
 1771SOL     OW 1095   2.117   1.348   2.152
 1771SOL    HW1 1096   2.021   1.349   2.125
 1771SOL    HW2 1097   2.129   1.401   2.236
 1777SOL     OW 1098   3.045   1.335   1.981
 1777SOL    HW1 1099   2.946   1.324   1.983
 1777SOL    HW2 1100   3.079   1.350   2.074
 1778SOL     OW 1101   2.475   0.842   3.293
 1778SOL    HW1 1102   2.531   0.923   3.276
 1778SOL    HW2 1103   2.534   0.762   3.296
 1779SOL     OW 1104   3.355   1.767   2.821
 1779SOL    HW1 1105   3.388   1.831   2.752
 1779SOL    HW2 1106   3.421   1.761   2.896
 1782SOL     OW 1107   2.252   1.741   3.422
 1782SOL    HW1 1108   2.161   1.782   3.420
 1782SOL    HW2 1109   2.245   1.647   3.454
 1785SOL     OW 1110   2.456   0.745   2.514
 1785SOL    HW1 1111   2.506   0.830   2.495
 1785SOL    HW2 1112   2.368   0.747   2.466
 1788SOL     OW 1113   2.721   1.374   1.878
 1788SOL    HW1 1114   2.675   1.389   1.966
 1788SOL    HW2 1115   2.765   1.459   1.848
 1789SOL     OW 1116   2.523   1.790   2.815
 1789SOL    HW1 1117   2.477   1.878   2.802
 1789SOL    HW2 1118   2.622   1.802   2.808
 1790SOL     OW 1119   2.721   0.956   2.723
 1790SOL    HW1 1120   2.775   0.887   2.771
 1790SOL    HW2 1121   2.689   1.025   2.789
 1791SOL     OW 1122   2.945   0.984   1.949
 1791SOL    HW1 1123   2.922   1.037   1.867
 1791SOL    HW2 1124   3.026   0.928   1.930
 1792SOL     OW 1125   3.723   1.569   2.713
 1792SOL    HW1 1126   3.652   1.557   2.643
 1792SOL    HW2 1127   3.724   1.490   2.773
 1793SOL     OW 1128   2.083   1.314   3.706
 1793SOL    HW1 1129   2.018   1.241   3.685
 1793SOL    HW2 1130   2.087   1.328   3.804
 1794SOL     OW 1131   1.941   1.240   2.515
 1794SOL    HW1 1132   1.940   1.193   2.603
 1794SOL    HW2 1133   2.023   1.212   2.464
 1795SOL     OW 1134   2.534   1.391   3.486
 1795SOL    HW1 1135   2.456   1.341   3.524
 1795SOL    HW2 1136   2.531   1.486   3.517
 1798SOL     OW 1137   3.567   1.487   2.966
 1798SOL    HW1 1138   3.474   1.462   2.939
 1798SOL    HW2 1139   3.593   1.437   3.048
 1800SOL     OW 1140   2.674   1.586   2.549
 1800SOL    HW1 1141   2.706   1.596   2.455
 1800SOL    HW2 1142   2.595   1.524   2.551
 1803SOL     OW 1143   2.632   1.330   2.163
 1803SOL    HW1 1144   2.586   1.243   2.180
 1803SOL    HW2 1145   2.723   1.327   2.204
 1804SOL     OW 1146   2.480   1.567   3.146
 1804SOL    HW1 1147   2.475   1.649   3.203
 1804SOL    HW2 1148   2.569   1.564   3.101
 1808SOL     OW 1149   1.901   1.077   2.162
 1808SOL    HW1 1150   2.000   1.066   2.153
 1808SOL    HW2 1151   1.861   0.991   2.194
 1809SOL     OW 1152   2.737   1.646   2.199
 1809SOL    HW1 1153   2.660   1.611   2.145
 1809SOL    HW2 1154   2.705   1.717   2.261
 1825SOL     OW 1155   1.889   1.596   3.841
 1825SOL    HW1 1156   1.870   1.500   3.862
 1825SOL    HW2 1157   1.856   1.654   3.916
 1845SOL     OW 1158   2.973   1.776   3.961
 1845SOL    HW1 1159   2.913   1.714   4.011
 1845SOL    HW2 1160   3.004   1.732   3.876
 1847SOL     OW 1161   2.326   1.743   4.047
 1847SOL    HW1 1162   2.359   1.782   4.133
 1847SOL    HW2 1163   2.402   1.736   3.982
 1897SOL     OW 1164   2.534   1.616   3.878
 1897SOL    HW1 1165   2.543   1.626   3.779
 1897SOL    HW2 1166   2.494   1.527   3.899
 1900SOL     OW 1167   3.056   1.612   3.755
 1900SOL    HW1 1168   3.062   1.519   3.792
 1900SOL    HW2 1169   2.997   1.612   3.675
 1913SOL     OW 1170   2.721   1.374   3.740
 1913SOL    HW1 1171   2.675   1.389   3.828
 1913SOL    HW2 1172   2.765   1.459   3.710
 1929SOL     OW 1173   2.087   2.137   0.996
 1929SOL    HW1 1174   2.122   2.120   1.088
 1929SOL    HW2 1175   1.999   2.092   0.984
 1931SOL     OW 1176   2.431   3.137   1.165
 1931SOL    HW1 1177   2.338   3.130   1.128
 1931SOL    HW2 1178   2.442   3.226   1.209
 1933SOL     OW 1179   2.997   2.565   0.717
 1933SOL    HW1 1180   3.054   2.643   0.692
 1933SOL    HW2 1181   2.937   2.591   0.793
 1935SOL     OW 1182   2.630   3.006   1.023
 1935SOL    HW1 1183   2.552   3.023   1.083
 1935SOL    HW2 1184   2.664   3.093   0.987
 1936SOL     OW 1185   2.712   2.660   1.823
 1936SOL    HW1 1186   2.708   2.736   1.888
 1936SOL    HW2 1187   2.734   2.696   1.732
 1937SOL     OW 1188   2.547   2.874   0.665
 1937SOL    HW1 1189   2.616   2.858   0.735
 1937SOL    HW2 1190   2.474   2.931   0.703
 1938SOL     OW 1191   2.548   3.023   1.803
 1938SOL    HW1 1192   2.608   3.102   1.817
 1938SOL    HW2 1193   2.462   3.054   1.762
 1939SOL     OW 1194   2.197   3.297   1.061
 1939SOL    HW1 1195   2.119   3.266   1.008
 1939SOL    HW2 1196   2.255   3.355   1.004
 1940SOL     OW 1197   3.322   3.367   1.339
 1940SOL    HW1 1198   3.346   3.461   1.365
 1940SOL    HW2 1199   3.306   3.313   1.421
 1941SOL     OW 1200   2.300   2.254   1.499
 1941SOL    HW1 1201   2.382   2.198   1.508
 1941SOL    HW2 1202   2.219   2.196   1.503
 1944SOL     OW 1203   2.989   3.203   1.690
 1944SOL    HW1 1204   3.036   3.203   1.778
 1944SOL    HW2 1205   2.941   3.116   1.679
 1946SOL     OW 1206   2.102   2.953   0.886
 1946SOL    HW1 1207   2.116   2.869   0.938
 1946SOL    HW2 1208   2.047   3.017   0.941
 1947SOL     OW 1209   2.482   3.648   1.439
 1947SOL    HW1 1210   2.390   3.631   1.474
 1947SOL    HW2 1211   2.510   3.740   1.465
 1949SOL     OW 1212   3.456   1.976   1.480
 1949SOL    HW1 1213   3.438   2.043   1.408
 1949SOL    HW2 1214   3.453   2.022   1.569
 1955SOL     OW 1215   1.975   2.599   1.597
 1955SOL    HW1 1216   2.063   2.586   1.642
 1955SOL    HW2 1217   1.962   2.696   1.575
 1957SOL     OW 1218   3.155   3.090   1.423
 1957SOL    HW1 1219   3.192   3.017   1.365
 1957SOL    HW2 1220   3.207   3.095   1.508
 1959SOL     OW 1221   2.059   2.838   1.264
 1959SOL    HW1 1222   2.148   2.793   1.250
 1959SOL    HW2 1223   1.986   2.773   1.245
 1961SOL     OW 1224   3.049   3.654   1.616
 1961SOL    HW1 1225   3.073   3.714   1.540
 1961SOL    HW2 1226   3.056   3.559   1.586
 1962SOL     OW 1227   2.179   2.113   1.801
 1962SOL    HW1 1228   2.250   2.184   1.807
 1962SOL    HW2 1229   2.091   2.152   1.829
 1966SOL     OW 1230   3.143   2.207   0.944
 1966SOL    HW1 1231   3.057   2.157   0.931
 1966SOL    HW2 1232   3.205   2.153   1.000
 1968SOL     OW 1233   2.669   2.467   1.465
 1968SOL    HW1 1234   2.622   2.464   1.554
 1968SOL    HW2 1235   2.618   2.412   1.399
 1969SOL     OW 1236   3.256   2.331   1.674
 1969SOL    HW1 1237   3.236   2.374   1.762
 1969SOL    HW2 1238   3.334   2.269   1.683
 1970SOL     OW 1239   2.835   2.752   1.572
 1970SOL    HW1 1240   2.881   2.668   1.543
 1970SOL    HW2 1241   2.779   2.786   1.497
 1971SOL     OW 1242   2.853   2.272   1.242
 1971SOL    HW1 1243   2.776   2.306   1.296
 1971SOL    HW2 1244   2.819   2.221   1.163
 1973SOL     OW 1245   1.938   2.673   0.789
 1973SOL    HW1 1246   2.037   2.661   0.798
 1973SOL    HW2 1247   1.914   2.768   0.810
 1974SOL     OW 1248   1.992   3.683   1.571
 1974SOL    HW1 1249   1.982   3.668   1.670
 1974SOL    HW2 1250   1.906   3.719   1.535
 1976SOL     OW 1251   3.581   2.447   1.831
 1976SOL    HW1 1252   3.555   2.536   1.795
 1976SOL    HW2 1253   3.579   2.379   1.758
 1978SOL     OW 1254   2.412   2.058   0.885
 1978SOL    HW1 1255   2.407   2.053   0.985
 1978SOL    HW2 1256   2.414   2.154   0.856
 1982SOL     OW 1257   3.089   3.412   1.506
 1982SOL    HW1 1258   3.095   3.335   1.570
 1982SOL    HW2 1259   3.037   3.386   1.426
 1985SOL     OW 1260   2.323   3.128   1.727
 1985SOL    HW1 1261   2.273   3.129   1.641
 1985SOL    HW2 1262   2.260   3.110   1.803
 1987SOL     OW 1263   2.064   2.147   1.498
 1987SOL    HW1 1264   1.984   2.207   1.485
 1987SOL    HW2 1265   2.054   2.098   1.584
 1991SOL     OW 1266   2.111   3.647   1.241
 1991SOL    HW1 1267   2.168   3.582   1.291
 1991SOL    HW2 1268   2.095   3.614   1.148
 1994SOL     OW 1269   3.409   2.084   1.729
 1994SOL    HW1 1270   3.404   2.121   1.821
 1994SOL    HW2 1271   3.337   2.015   1.717
 1996SOL     OW 1272   2.643   2.126   1.749
 1996SOL    HW1 1273   2.710   2.065   1.792
 1996SOL    HW2 1274   2.570   2.145   1.814
 1997SOL     OW 1275   2.750   3.376   1.195
 1997SOL    HW1 1276   2.727   3.351   1.101
 1997SOL    HW2 1277   2.811   3.307   1.234
 1998SOL     OW 1278   3.213   2.452   1.433
 1998SOL    HW1 1279   3.241   2.409   1.518
 1998SOL    HW2 1280   3.238   2.548   1.434
 1999SOL     OW 1281   2.665   3.264   0.924
 1999SOL    HW1 1282   2.755   3.278   0.882
 1999SOL    HW2 1283   2.594   3.266   0.853
 2000SOL     OW 1284   2.784   2.365   0.899
 2000SOL    HW1 1285   2.759   2.356   0.803
 2000SOL    HW2 1286   2.832   2.283   0.930
 2004SOL     OW 1287   2.938   2.545   1.464
 2004SOL    HW1 1288   2.858   2.484   1.467
 2004SOL    HW2 1289   3.019   2.492   1.440
 2006SOL     OW 1290   2.321   3.014   0.741
 2006SOL    HW1 1291   2.250   2.987   0.806
 2006SOL    HW2 1292   2.295   2.986   0.648
 2009SOL     OW 1293   1.940   2.418   1.386
 2009SOL    HW1 1294   2.032   2.417   1.345
 2009SOL    HW2 1295   1.934   2.492   1.453
 2010SOL     OW 1296   2.423   2.084   1.147
 2010SOL    HW1 1297   2.461   2.000   1.184
 2010SOL    HW2 1298   2.335   2.103   1.191
 2011SOL     OW 1299   2.728   2.316   0.642
 2011SOL    HW1 1300   2.696   2.388   0.580
 2011SOL    HW2 1301   2.752   2.235   0.589
 2012SOL     OW 1302   2.879   1.901   0.753
 2012SOL    HW1 1303   2.807   1.906   0.684
 2012SOL    HW2 1304   2.855   1.832   0.822
 2014SOL     OW 1305   3.328   2.452   0.992
 2014SOL    HW1 1306   3.298   2.357   0.999
 2014SOL    HW2 1307   3.401   2.468   1.058
 2020SOL     OW 1308   3.616   3.085   1.588
 2020SOL    HW1 1309   3.707   3.046   1.575
 2020SOL    HW2 1310   3.624   3.181   1.612
 2021SOL     OW 1311   2.926   3.209   1.340
 2021SOL    HW1 1312   2.846   3.186   1.395
 2021SOL    HW2 1313   3.009   3.183   1.389
 2022SOL     OW 1314   3.454   3.491   1.625
 2022SOL    HW1 1315   3.481   3.525   1.535
 2022SOL    HW2 1316   3.533   3.453   1.671
 2023SOL     OW 1317   2.973   3.057   1.100
 2023SOL    HW1 1318   2.933   3.101   1.181
 2023SOL    HW2 1319   2.932   3.094   1.017
 2025SOL     OW 1320   2.777   1.951   1.402
 2025SOL    HW1 1321   2.802   1.931   1.307
 2025SOL    HW2 1322   2.849   2.007   1.444
 2026SOL     OW 1323   2.842   2.978   1.719
 2026SOL    HW1 1324   2.743   2.984   1.729
 2026SOL    HW2 1325   2.865   2.898   1.663
 2028SOL     OW 1326   2.272   2.675   1.251
 2028SOL    HW1 1327   2.358   2.687   1.301
 2028SOL    HW2 1328   2.230   2.588   1.278
 2029SOL     OW 1329   3.136   2.248   1.262
 2029SOL    HW1 1330   3.157   2.322   1.326
 2029SOL    HW2 1331   3.047   2.265   1.219
 2030SOL     OW 1332   1.926   3.426   1.331
 2030SOL    HW1 1333   1.880   3.508   1.297
 2030SOL    HW2 1334   2.024   3.445   1.340
 2032SOL     OW 1335   2.428   2.399   0.865
 2032SOL    HW1 1336   2.440   2.465   0.791
 2032SOL    HW2 1337   2.474   2.433   0.948
 2034SOL     OW 1338   3.134   3.307   1.142
 2034SOL    HW1 1339   3.181   3.320   1.229
 2034SOL    HW2 1340   3.068   3.233   1.151
 2036SOL     OW 1341   2.216   3.372   1.329
 2036SOL    HW1 1342   2.195   3.328   1.242
 2036SOL    HW2 1343   2.313   3.398   1.332
 2037SOL     OW 1344   2.264   2.613   1.598
 2037SOL    HW1 1345   2.332   2.668   1.551
 2037SOL    HW2 1346   2.304   2.525   1.625
 2038SOL     OW 1347   3.449   2.641   1.670
 2038SOL    HW1 1348   3.357   2.679   1.665
 2038SOL    HW2 1349   3.509   2.688   1.605
 2039SOL     OW 1350   2.875   1.967   1.770
 2039SOL    HW1 1351   2.881   2.052   1.718
 2039SOL    HW2 1352   2.907   1.891   1.713
 2040SOL     OW 1353   2.366   1.912   1.740
 2040SOL    HW1 1354   2.324   1.855   1.670
 2040SOL    HW2 1355   2.300   1.981   1.772
 2041SOL     OW 1356   2.435   2.732   1.029
 2041SOL    HW1 1357   2.479   2.821   1.020
 2041SOL    HW2 1358   2.372   2.732   1.106
 2042SOL     OW 1359   3.222   2.724   1.045
 2042SOL    HW1 1360   3.147   2.724   0.979
 2042SOL    HW2 1361   3.259   2.632   1.054
 2044SOL     OW 1362   2.169   2.075   1.231
 2044SOL    HW1 1363   2.146   2.112   1.321
 2044SOL    HW2 1364   2.139   1.980   1.225
 2045SOL     OW 1365   1.899   3.172   1.282
 2045SOL    HW1 1366   1.952   3.123   1.350
 2045SOL    HW2 1367   1.921   3.270   1.287
 2046SOL     OW 1368   2.594   2.496   1.064
 2046SOL    HW1 1369   2.653   2.470   0.988
 2046SOL    HW2 1370   2.566   2.592   1.053
 2047SOL     OW 1371   3.590   2.797   1.854
 2047SOL    HW1 1372   3.544   2.790   1.765
 2047SOL    HW2 1373   3.528   2.841   1.920
 2050SOL     OW 1374   2.885   2.628   0.966
 2050SOL    HW1 1375   2.900   2.649   1.062
 2050SOL    HW2 1376   2.855   2.533   0.957
 2051SOL     OW 1377   2.842   3.435   1.700
 2051SOL    HW1 1378   2.822   3.479   1.612
 2051SOL    HW2 1379   2.881   3.344   1.684
 2053SOL     OW 1380   2.212   2.760   1.804
 2053SOL    HW1 1381   2.288   2.804   1.852
 2053SOL    HW2 1382   2.247   2.713   1.722
 2057SOL     OW 1383   2.181   2.672   0.949
 2057SOL    HW1 1384   2.274   2.708   0.954
 2057SOL    HW2 1385   2.175   2.587   1.001
 2058SOL     OW 1386   2.201   2.371   1.006
 2058SOL    HW1 1387   2.149   2.288   0.989
 2058SOL    HW2 1388   2.278   2.376   0.942
 2059SOL     OW 1389   3.000   2.242   1.678
 2059SOL    HW1 1390   2.955   2.305   1.742
 2059SOL    HW2 1391   3.093   2.273   1.661
 2060SOL     OW 1392   3.022   2.069   1.477
 2060SOL    HW1 1393   3.022   2.133   1.554
 2060SOL    HW2 1394   3.050   2.117   1.394
 2064SOL     OW 1395   2.864   2.658   1.238
 2064SOL    HW1 1396   2.905   2.626   1.324
 2064SOL    HW2 1397   2.768   2.631   1.235
 2065SOL     OW 1398   1.902   2.406   1.114
 2065SOL    HW1 1399   1.987   2.373   1.073
 2065SOL    HW2 1400   1.915   2.421   1.212
 2066SOL     OW 1401   2.051   2.382   1.722
 2066SOL    HW1 1402   2.110   2.342   1.652
 2066SOL    HW2 1403   1.993   2.453   1.681
 2067SOL     OW 1404   3.231   2.812   1.660
 2067SOL    HW1 1405   3.270   2.901   1.680
 2067SOL    HW2 1406   3.241   2.792   1.563
 2069SOL     OW 1407   3.519   2.466   1.206
 2069SOL    HW1 1408   3.481   2.397   1.268
 2069SOL    HW2 1409   3.601   2.430   1.162
 2070SOL     OW 1410   2.114   3.426   1.744
 2070SOL    HW1 1411   2.084   3.483   1.820
 2070SOL    HW2 1412   2.107   3.329   1.770
 2071SOL     OW 1413   2.533   2.326   1.269
 2071SOL    HW1 1414   2.499   2.237   1.239
 2071SOL    HW2 1415   2.559   2.380   1.189
 2072SOL     OW 1416   2.792   3.540   1.465
 2072SOL    HW1 1417   2.768   3.522   1.370
 2072SOL    HW2 1418   2.822   3.634   1.475
 2074SOL     OW 1419   2.021   2.999   1.466
 2074SOL    HW1 1420   2.043   2.938   1.542
 2074SOL    HW2 1421   2.031   2.950   1.380
 2075SOL     OW 1422   3.209   2.921   1.234
 2075SOL    HW1 1423   3.233   2.858   1.160
 2075SOL    HW2 1424   3.119   2.961   1.216
 2079SOL     OW 1425   1.945   3.120   1.022
 2079SOL    HW1 1426   1.940   3.119   1.122
 2079SOL    HW2 1427   1.862   3.079   0.984
 2080SOL     OW 1428   2.550   3.524   1.716
 2080SOL    HW1 1429   2.494   3.605   1.725
 2080SOL    HW2 1430   2.602   3.528   1.630
 2084SOL     OW 1431   1.992   3.656   1.851
 2084SOL    HW1 1432   1.951   3.582   1.904
 2084SOL    HW2 1433   2.056   3.707   1.909
 2086SOL     OW 1434   2.692   3.135   1.422
 2086SOL    HW1 1435   2.687   3.168   1.517
 2086SOL    HW2 1436   2.606   3.154   1.376
 2090SOL     OW 1437   2.125   2.188   0.720
 2090SOL    HW1 1438   2.046   2.239   0.686
 2090SOL    HW2 1439   2.116   2.173   0.818
 2092SOL     OW 1440   2.684   2.864   1.372
 2092SOL    HW1 1441   2.724   2.863   1.280
 2092SOL    HW2 1442   2.694   2.956   1.412
 2095SOL     OW 1443   2.234   3.150   1.490
 2095SOL    HW1 1444   2.221   3.243   1.456
 2095SOL    HW2 1445   2.150   3.098   1.477
 2096SOL     OW 1446   3.476   3.154   1.289
 2096SOL    HW1 1447   3.536   3.157   1.369
 2096SOL    HW2 1448   3.401   3.218   1.302
 2098SOL     OW 1449   2.876   2.098   0.971
 2098SOL    HW1 1450   2.868   2.062   0.878
 2098SOL    HW2 1451   2.874   2.022   1.036
 2100SOL     OW 1452   3.571   2.247   1.381
 2100SOL    HW1 1453   3.644   2.316   1.385
 2100SOL    HW2 1454   3.599   2.172   1.322
 2102SOL     OW 1455   1.967   2.875   1.726
 2102SOL    HW1 1456   1.890   2.842   1.780
 2102SOL    HW2 1457   2.052   2.845   1.768
 2103SOL     OW 1458   2.534   2.065   1.489
 2103SOL    HW1 1459   2.624   2.049   1.449
 2103SOL    HW2 1460   2.542   2.070   1.588
 2105SOL     OW 1461   3.302   2.718   1.398
 2105SOL    HW1 1462   3.245   2.770   1.335
 2105SOL    HW2 1463   3.398   2.730   1.374
 2107SOL     OW 1464   2.475   2.704   1.431
 2107SOL    HW1 1465   2.531   2.785   1.414
 2107SOL    HW2 1466   2.534   2.624   1.434
 2109SOL     OW 1467   2.578   2.427   1.708
 2109SOL    HW1 1468   2.597   2.492   1.782
 2109SOL    HW2 1469   2.638   2.347   1.717
 2110SOL     OW 1470   3.312   3.082   1.633
 2110SOL    HW1 1471   3.303   3.072   1.732
 2110SOL    HW2 1472   3.408   3.075   1.607
 2111SOL     OW 1473   2.252   3.603   1.560
 2111SOL    HW1 1474   2.161   3.644   1.558
 2111SOL    HW2 1475   2.245   3.509   1.592
 2112SOL     OW 1476   3.536   2.745   1.254
 2112SOL    HW1 1477   3.509   2.656   1.217
 2112SOL    HW2 1478   3.537   2.813   1.181
 2114SOL     OW 1479   2.456   2.607   0.652
 2114SOL    HW1 1480   2.506   2.692   0.633
 2114SOL    HW2 1481   2.368   2.609   0.604
 2115SOL     OW 1482   3.639   2.204   1.642
 2115SOL    HW1 1483   3.622   2.235   1.548
 2115SOL    HW2 1484   3.555   2.167   1.680
 2116SOL     OW 1485   3.592   2.796   1.517
 2116SOL    HW1 1486   3.630   2.887   1.532
 2116SOL    HW2 1487   3.584   2.779   1.418
 2119SOL     OW 1488   2.721   2.818   0.861
 2119SOL    HW1 1489   2.775   2.749   0.909
 2119SOL    HW2 1490   2.689   2.887   0.927
 2122SOL     OW 1491   2.083   3.176   1.844
 2122SOL    HW1 1492   2.018   3.103   1.823
 2122SOL    HW2 1493   2.087   3.190   1.942
 2124SOL     OW 1494   2.534   3.253   1.624
 2124SOL    HW1 1495   2.456   3.203   1.662
 2124SOL    HW2 1496   2.531   3.348   1.655
 2125SOL     OW 1497   3.686   2.054   1.227
 2125SOL    HW1 1498   3.682   1.964   1.271
 2125SOL    HW2 1499   3.689   2.043   1.128
 2128SOL     OW 1500   2.179   2.409   1.280
 2128SOL    HW1 1501   2.217   2.350   1.352
 2128SOL    HW2 1502   2.219   2.383   1.192
 2130SOL     OW 1503   3.286   2.076   1.112
 2130SOL    HW1 1504   3.338   2.011   1.167
 2130SOL    HW2 1505   3.237   2.139   1.173
 2131SOL     OW 1506   2.863   1.896   1.154
 2131SOL    HW1 1507   2.800   1.824   1.123
 2131SOL    HW2 1508   2.956   1.860   1.154
 2133SOL     OW 1509   2.480   3.429   1.284
 2133SOL    HW1 1510   2.475   3.511   1.341
 2133SOL    HW2 1511   2.569   3.426   1.239
 2139SOL     OW 1512   2.092   2.490   1.975
 2139SOL    HW1 1513   1.999   2.488   2.012
 2139SOL    HW2 1514   2.093   2.451   1.883
 2140SOL     OW 1515   2.087   2.137   2.858
 2140SOL    HW1 1516   2.122   2.120   2.950
 2140SOL    HW2 1517   1.999   2.092   2.846
 2141SOL     OW 1518   1.881   2.230   2.509
 2141SOL    HW1 1519   1.799   2.273   2.548
 2141SOL    HW2 1520   1.853   2.157   2.446
 2142SOL     OW 1521   2.431   3.137   3.027
 2142SOL    HW1 1522   2.338   3.130   2.990
 2142SOL    HW2 1523   2.442   3.226   3.071
 2143SOL     OW 1524   3.417   3.373   2.565
 2143SOL    HW1 1525   3.360   3.357   2.646
 2143SOL    HW2 1526   3.358   3.383   2.485
 2144SOL     OW 1527   2.997   2.565   2.579
 2144SOL    HW1 1528   3.054   2.643   2.554
 2144SOL    HW2 1529   2.937   2.591   2.655
 2145SOL     OW 1530   3.617   2.469   2.093
 2145SOL    HW1 1531   3.605   2.456   1.994
 2145SOL    HW2 1532   3.587   2.388   2.142
 2146SOL     OW 1533   2.630   3.006   2.885
 2146SOL    HW1 1534   2.552   3.023   2.945
 2146SOL    HW2 1535   2.664   3.093   2.849
 2147SOL     OW 1536   2.712   2.660   3.685
 2147SOL    HW1 1537   2.708   2.736   3.750
 2147SOL    HW2 1538   2.734   2.696   3.594
 2148SOL     OW 1539   2.547   2.874   2.527
 2148SOL    HW1 1540   2.616   2.858   2.597
 2148SOL    HW2 1541   2.474   2.931   2.565
 2149SOL     OW 1542   2.548   3.023   3.665
 2149SOL    HW1 1543   2.608   3.102   3.679
 2149SOL    HW2 1544   2.462   3.054   3.624
 2150SOL     OW 1545   2.197   3.297   2.923
 2150SOL    HW1 1546   2.119   3.266   2.870
 2150SOL    HW2 1547   2.255   3.355   2.866
 2151SOL     OW 1548   3.322   3.367   3.201
 2151SOL    HW1 1549   3.346   3.461   3.227
 2151SOL    HW2 1550   3.306   3.313   3.283
 2152SOL     OW 1551   2.300   2.254   3.361
 2152SOL    HW1 1552   2.382   2.198   3.370
 2152SOL    HW2 1553   2.219   2.196   3.365
 2153SOL     OW 1554   3.465   2.309   2.599
 2153SOL    HW1 1555   3.391   2.355   2.549
 2153SOL    HW2 1556   3.516   2.377   2.652
 2154SOL     OW 1557   2.093   3.575   2.345
 2154SOL    HW1 1558   2.127   3.652   2.399
 2154SOL    HW2 1559   2.137   3.575   2.255
 2155SOL     OW 1560   2.989   3.203   3.552
 2155SOL    HW1 1561   3.036   3.203   3.640
 2155SOL    HW2 1562   2.941   3.116   3.541
 2156SOL     OW 1563   2.092   3.296   2.400
 2156SOL    HW1 1564   2.066   3.392   2.400
 2156SOL    HW2 1565   2.021   3.242   2.445
 2157SOL     OW 1566   2.102   2.953   2.748
 2157SOL    HW1 1567   2.116   2.869   2.800
 2157SOL    HW2 1568   2.047   3.017   2.803
 2158SOL     OW 1569   2.482   3.648   3.301
 2158SOL    HW1 1570   2.390   3.631   3.336
 2158SOL    HW2 1571   2.510   3.740   3.327
 2159SOL     OW 1572   2.468   2.826   1.985
 2159SOL    HW1 1573   2.475   2.910   1.931
 2159SOL    HW2 1574   2.514   2.839   2.073
 2160SOL     OW 1575   3.456   1.976   3.342
 2160SOL    HW1 1576   3.438   2.043   3.270
 2160SOL    HW2 1577   3.453   2.022   3.431
 2162SOL     OW 1578   1.889   3.458   1.979
 2162SOL    HW1 1579   1.870   3.362   2.000
 2162SOL    HW2 1580   1.856   3.516   2.054
 2163SOL     OW 1581   3.551   2.784   2.474
 2163SOL    HW1 1582   3.646   2.755   2.482
 2163SOL    HW2 1583   3.543   2.849   2.399
 2164SOL     OW 1584   3.503   2.970   2.294
 2164SOL    HW1 1585   3.589   2.972   2.242
 2164SOL    HW2 1586   3.517   3.017   2.382
 2165SOL     OW 1587   1.975   2.599   3.459
 2165SOL    HW1 1588   2.063   2.586   3.504
 2165SOL    HW2 1589   1.962   2.696   3.437
 2166SOL     OW 1590   2.475   3.227   2.588
 2166SOL    HW1 1591   2.426   3.140   2.597
 2166SOL    HW2 1592   2.452   3.270   2.501
 2167SOL     OW 1593   3.155   3.090   3.285
 2167SOL    HW1 1594   3.192   3.017   3.227
 2167SOL    HW2 1595   3.207   3.095   3.370
 2168SOL     OW 1596   2.671   1.866   2.364
 2168SOL    HW1 1597   2.711   1.957   2.355
 2168SOL    HW2 1598   2.571   1.874   2.370
 2169SOL     OW 1599   2.059   2.838   3.126
 2169SOL    HW1 1600   2.148   2.793   3.112
 2169SOL    HW2 1601   1.986   2.773   3.107
 2170SOL     OW 1602   3.387   2.861   2.052
 2170SOL    HW1 1603   3.324   2.785   2.065
 2170SOL    HW2 1604   3.435   2.879   2.138
 2171SOL     OW 1605   3.049   3.654   3.478
 2171SOL    HW1 1606   3.073   3.714   3.402
 2171SOL    HW2 1607   3.056   3.559   3.448
 2172SOL     OW 1608   2.179   2.113   3.663
 2172SOL    HW1 1609   2.250   2.184   3.669
 2172SOL    HW2 1610   2.091   2.152   3.691
 2173SOL     OW 1611   3.328   3.279   2.815
 2173SOL    HW1 1612   3.269   3.285   2.895
 2173SOL    HW2 1613   3.313   3.191   2.769
 2174SOL     OW 1614   3.529   3.576   2.434
 2174SOL    HW1 1615   3.488   3.553   2.346
 2174SOL    HW2 1616   3.511   3.502   2.499
 2175SOL     OW 1617   2.460   2.591   2.132
 2175SOL    HW1 1618   2.484   2.660   2.064
 2175SOL    HW2 1619   2.382   2.624   2.186
 2176SOL     OW 1620   3.143   2.207   2.806
 2176SOL    HW1 1621   3.057   2.157   2.793
 2176SOL    HW2 1622   3.205   2.153   2.862
 2177SOL     OW 1623   3.438   3.524   2.169
 2177SOL    HW1 1624   3.527   3.570   2.172
 2177SOL    HW2 1625   3.417   3.500   2.074
 2178SOL     OW 1626   2.669   2.467   3.327
 2178SOL    HW1 1627   2.622   2.464   3.416
 2178SOL    HW2 1628   2.618   2.412   3.261
 2179SOL     OW 1629   3.256   2.331   3.536
 2179SOL    HW1 1630   3.236   2.374   3.624
 2179SOL    HW2 1631   3.334   2.269   3.545
 2180SOL     OW 1632   2.835   2.752   3.434
 2180SOL    HW1 1633   2.881   2.668   3.405
 2180SOL    HW2 1634   2.779   2.786   3.359
 2181SOL     OW 1635   2.853   2.272   3.104
 2181SOL    HW1 1636   2.776   2.306   3.158
 2181SOL    HW2 1637   2.819   2.221   3.025
 2182SOL     OW 1638   2.903   2.563   2.291
 2182SOL    HW1 1639   2.929   2.559   2.387
 2182SOL    HW2 1640   2.818   2.512   2.277
 2183SOL     OW 1641   1.992   3.683   3.433
 2183SOL    HW1 1642   1.982   3.668   3.532
 2183SOL    HW2 1643   1.906   3.719   3.397
 2184SOL     OW 1644   2.727   2.210   2.057
 2184SOL    HW1 1645   2.786   2.273   2.008
 2184SOL    HW2 1646   2.746   2.116   2.028
 2185SOL     OW 1647   3.581   2.447   3.693
 2185SOL    HW1 1648   3.555   2.536   3.657
 2185SOL    HW2 1649   3.579   2.379   3.620
 2186SOL     OW 1650   3.224   3.006   2.407
 2186SOL    HW1 1651   3.307   2.977   2.359
 2186SOL    HW2 1652   3.175   3.073   2.351
 2187SOL     OW 1653   2.412   2.058   2.747
 2187SOL    HW1 1654   2.407   2.053   2.847
 2187SOL    HW2 1655   2.414   2.154   2.718
 2188SOL     OW 1656   2.870   3.318   2.339
 2188SOL    HW1 1657   2.824   3.390   2.287
 2188SOL    HW2 1658   2.866   3.338   2.437
 2189SOL     OW 1659   2.213   3.663   2.715
 2189SOL    HW1 1660   2.263   3.577   2.721
 2189SOL    HW2 1661   2.278   3.740   2.712
 2190SOL     OW 1662   3.657   2.928   2.735
 2190SOL    HW1 1663   3.595   2.913   2.659
 2190SOL    HW2 1664   3.605   2.939   2.820
 2191SOL     OW 1665   3.089   3.412   3.368
 2191SOL    HW1 1666   3.095   3.335   3.432
 2191SOL    HW2 1667   3.037   3.386   3.288
 2192SOL     OW 1668   2.183   2.805   2.104
 2192SOL    HW1 1669   2.265   2.844   2.062
 2192SOL    HW2 1670   2.156   2.723   2.055
 2193SOL     OW 1671   3.320   2.597   2.590
 2193SOL    HW1 1672   3.315   2.532   2.665
 2193SOL    HW2 1673   3.400   2.656   2.603
 2194SOL     OW 1674   2.323   3.128   3.589
 2194SOL    HW1 1675   2.273   3.129   3.503
 2194SOL    HW2 1676   2.260   3.110   3.665
 2195SOL     OW 1677   2.973   3.638   2.099
 2195SOL    HW1 1678   2.913   3.576   2.149
 2195SOL    HW2 1679   3.004   3.594   2.014
 2196SOL     OW 1680   2.064   2.147   3.360
 2196SOL    HW1 1681   1.984   2.207   3.347
 2196SOL    HW2 1682   2.054   2.098   3.446
 2197SOL     OW 1683   3.494   3.239   1.943
 2197SOL    HW1 1684   3.462   3.333   1.933
 2197SOL    HW2 1685   3.418   3.176   1.931
 2198SOL     OW 1686   2.326   3.605   2.185
 2198SOL    HW1 1687   2.359   3.644   2.271
 2198SOL    HW2 1688   2.402   3.598   2.120
 2199SOL     OW 1689   3.262   1.969   2.288
 2199SOL    HW1 1690   3.238   1.932   2.198
 2199SOL    HW2 1691   3.361   1.985   2.292
 2200SOL     OW 1692   2.111   3.647   3.103
 2200SOL    HW1 1693   2.168   3.582   3.153
 2200SOL    HW2 1694   2.095   3.614   3.010
 2201SOL     OW 1695   2.802   3.560   2.766
 2201SOL    HW1 1696   2.882   3.503   2.787
 2201SOL    HW2 1697   2.753   3.520   2.689
 2202SOL     OW 1698   3.409   2.084   3.591
 2202SOL    HW1 1699   3.404   2.121   3.683
 2202SOL    HW2 1700   3.337   2.015   3.579
 2203SOL     OW 1701   2.476   1.984   1.979
 2203SOL    HW1 1702   2.574   1.962   1.986
 2203SOL    HW2 1703   2.445   1.967   1.886
 2204SOL     OW 1704   2.643   2.126   3.611
 2204SOL    HW1 1705   2.710   2.065   3.654
 2204SOL    HW2 1706   2.570   2.145   3.676
 2205SOL     OW 1707   2.750   3.376   3.057
 2205SOL    HW1 1708   2.727   3.351   2.963
 2205SOL    HW2 1709   2.811   3.307   3.096
 2206SOL     OW 1710   3.213   2.452   3.295
 2206SOL    HW1 1711   3.241   2.409   3.380
 2206SOL    HW2 1712   3.238   2.548   3.296
 2207SOL     OW 1713   2.665   3.264   2.786
 2207SOL    HW1 1714   2.755   3.278   2.744
 2207SOL    HW2 1715   2.594   3.266   2.715
 2208SOL     OW 1716   2.784   2.365   2.761
 2208SOL    HW1 1717   2.759   2.356   2.665
 2208SOL    HW2 1718   2.832   2.283   2.792
 2209SOL     OW 1719   2.401   1.926   2.374
 2209SOL    HW1 1720   2.320   1.927   2.432
 2209SOL    HW2 1721   2.404   2.009   2.319
 2210SOL     OW 1722   3.296   3.050   1.903
 2210SOL    HW1 1723   3.328   2.974   1.960
 2210SOL    HW2 1724   3.204   3.077   1.933
 2211SOL     OW 1725   2.159   1.897   2.033
 2211SOL    HW1 1726   2.208   1.981   2.012
 2211SOL    HW2 1727   2.221   1.832   2.078
 2212SOL     OW 1728   2.797   2.098   2.342
 2212SOL    HW1 1729   2.749   2.139   2.264
 2212SOL    HW2 1730   2.896   2.096   2.323
 2213SOL     OW 1731   2.938   2.545   3.326
 2213SOL    HW1 1732   2.858   2.484   3.329
 2213SOL    HW2 1733   3.019   2.492   3.302
 2214SOL     OW 1734   3.089   3.432   2.655
 2214SOL    HW1 1735   3.110   3.506   2.590
 2214SOL    HW2 1736   3.157   3.432   2.728
 2215SOL     OW 1737   2.321   3.014   2.603
 2215SOL    HW1 1738   2.250   2.987   2.668
 2215SOL    HW2 1739   2.295   2.986   2.510
 2216SOL     OW 1740   3.133   3.659   2.453
 2216SOL    HW1 1741   3.177   3.723   2.389
 2216SOL    HW2 1742   3.083   3.711   2.523
 2217SOL     OW 1743   2.894   2.411   1.878
 2217SOL    HW1 1744   2.853   2.493   1.839
 2217SOL    HW2 1745   2.958   2.437   1.951
 2218SOL     OW 1746   1.940   2.418   3.248
 2218SOL    HW1 1747   2.032   2.417   3.207
 2218SOL    HW2 1748   1.934   2.492   3.315
 2219SOL     OW 1749   2.423   2.084   3.009
 2219SOL    HW1 1750   2.461   2.000   3.046
 2219SOL    HW2 1751   2.335   2.103   3.053
 2220SOL     OW 1752   2.728   2.316   2.504
 2220SOL    HW1 1753   2.696   2.388   2.442
 2220SOL    HW2 1754   2.752   2.235   2.451
 2221SOL     OW 1755   2.879   1.901   2.615
 2221SOL    HW1 1756   2.807   1.906   2.546
 2221SOL    HW2 1757   2.855   1.832   2.684
 2222SOL     OW 1758   3.291   3.035   2.729
 2222SOL    HW1 1759   3.236   2.951   2.722
 2222SOL    HW2 1760   3.317   3.064   2.637
 2223SOL     OW 1761   3.328   2.452   2.854
 2223SOL    HW1 1762   3.298   2.357   2.861
 2223SOL    HW2 1763   3.401   2.468   2.920
 2224SOL     OW 1764   3.719   2.695   2.239
 2224SOL    HW1 1765   3.761   2.631   2.303
 2224SOL    HW2 1766   3.681   2.644   2.161
 2225SOL     OW 1767   2.350   3.247   2.036
 2225SOL    HW1 1768   2.263   3.232   2.083
 2225SOL    HW2 1769   2.333   3.273   1.941
 2226SOL     OW 1770   3.526   3.142   2.519
 2226SOL    HW1 1771   3.625   3.150   2.533
 2226SOL    HW2 1772   3.481   3.226   2.550
 2227SOL     OW 1773   3.252   2.437   1.940
 2227SOL    HW1 1774   3.198   2.416   2.021
 2227SOL    HW2 1775   3.343   2.396   1.949
 2228SOL     OW 1776   3.616   3.085   3.450
 2228SOL    HW1 1777   3.707   3.046   3.437
 2228SOL    HW2 1778   3.624   3.181   3.474
 2229SOL     OW 1779   2.926   3.209   3.202
 2229SOL    HW1 1780   2.846   3.186   3.257
 2229SOL    HW2 1781   3.009   3.183   3.251
 2231SOL     OW 1782   2.973   3.057   2.962
 2231SOL    HW1 1783   2.933   3.101   3.043
 2231SOL    HW2 1784   2.932   3.094   2.879
 2232SOL     OW 1785   3.500   2.961   2.941
 2232SOL    HW1 1786   3.505   3.042   3.000
 2232SOL    HW2 1787   3.414   2.963   2.890
 2233SOL     OW 1788   2.777   1.951   3.264
 2233SOL    HW1 1789   2.802   1.931   3.169
 2233SOL    HW2 1790   2.849   2.007   3.306
 2234SOL     OW 1791   2.842   2.978   3.581
 2234SOL    HW1 1792   2.743   2.984   3.591
 2234SOL    HW2 1793   2.865   2.898   3.525
 2235SOL     OW 1794   2.567   2.912   2.230
 2235SOL    HW1 1795   2.553   2.919   2.329
 2235SOL    HW2 1796   2.651   2.861   2.212
 2236SOL     OW 1797   2.272   2.675   3.113
 2236SOL    HW1 1798   2.358   2.687   3.163
 2236SOL    HW2 1799   2.230   2.588   3.140
 2237SOL     OW 1800   3.136   2.248   3.124
 2237SOL    HW1 1801   3.157   2.322   3.188
 2237SOL    HW2 1802   3.047   2.265   3.081
 2238SOL     OW 1803   1.926   3.426   3.193
 2238SOL    HW1 1804   1.880   3.508   3.159
 2238SOL    HW2 1805   2.024   3.445   3.202
 2239SOL     OW 1806   2.229   2.962   2.363
 2239SOL    HW1 1807   2.222   3.045   2.307
 2239SOL    HW2 1808   2.233   2.882   2.303
 2240SOL     OW 1809   2.428   2.399   2.727
 2240SOL    HW1 1810   2.440   2.465   2.653
 2240SOL    HW2 1811   2.474   2.433   2.810
 2241SOL     OW 1812   3.114   3.210   2.250
 2241SOL    HW1 1813   3.164   3.287   2.290
 2241SOL    HW2 1814   3.019   3.212   2.282
 2242SOL     OW 1815   3.134   3.307   3.004
 2242SOL    HW1 1816   3.181   3.320   3.091
 2242SOL    HW2 1817   3.068   3.233   3.013
 2243SOL     OW 1818   3.444   2.501   2.334
 2243SOL    HW1 1819   3.413   2.562   2.407
 2243SOL    HW2 1820   3.494   2.553   2.265
 2244SOL     OW 1821   2.216   3.372   3.191
 2244SOL    HW1 1822   2.195   3.328   3.104
 2244SOL    HW2 1823   2.313   3.398   3.194
 2245SOL     OW 1824   2.264   2.613   3.460
 2245SOL    HW1 1825   2.332   2.668   3.413
 2245SOL    HW2 1826   2.304   2.525   3.487
 2246SOL     OW 1827   3.449   2.641   3.532
 2246SOL    HW1 1828   3.357   2.679   3.527
 2246SOL    HW2 1829   3.509   2.688   3.467
 2247SOL     OW 1830   2.875   1.967   3.632
 2247SOL    HW1 1831   2.881   2.052   3.580
 2247SOL    HW2 1832   2.907   1.891   3.575
 2248SOL     OW 1833   2.366   1.912   3.602
 2248SOL    HW1 1834   2.324   1.855   3.532
 2248SOL    HW2 1835   2.300   1.981   3.634
 2249SOL     OW 1836   2.435   2.732   2.891
 2249SOL    HW1 1837   2.479   2.821   2.882
 2249SOL    HW2 1838   2.372   2.732   2.968
 2250SOL     OW 1839   3.222   2.724   2.907
 2250SOL    HW1 1840   3.147   2.724   2.841
 2250SOL    HW2 1841   3.259   2.632   2.916
 2251SOL     OW 1842   3.071   2.387   2.137
 2251SOL    HW1 1843   3.084   2.303   2.191
 2251SOL    HW2 1844   3.042   2.461   2.197
 2252SOL     OW 1845   2.169   2.075   3.093
 2252SOL    HW1 1846   2.146   2.112   3.183
 2252SOL    HW2 1847   2.139   1.980   3.087
 2253SOL     OW 1848   1.899   3.172   3.144
 2253SOL    HW1 1849   1.952   3.123   3.212
 2253SOL    HW2 1850   1.921   3.270   3.149
 2254SOL     OW 1851   2.594   2.496   2.926
 2254SOL    HW1 1852   2.653   2.470   2.850
 2254SOL    HW2 1853   2.566   2.592   2.915
 2256SOL     OW 1854   2.169   1.925   2.480
 2256SOL    HW1 1855   2.158   2.019   2.513
 2256SOL    HW2 1856   2.164   1.862   2.557
 2257SOL     OW 1857   3.484   2.229   2.236
 2257SOL    HW1 1858   3.486   2.153   2.300
 2257SOL    HW2 1859   3.436   2.306   2.276
 2258SOL     OW 1860   2.885   2.628   2.828
 2258SOL    HW1 1861   2.900   2.649   2.924
 2258SOL    HW2 1862   2.855   2.533   2.819
 2259SOL     OW 1863   2.842   3.435   3.562
 2259SOL    HW1 1864   2.822   3.479   3.474
 2259SOL    HW2 1865   2.881   3.344   3.546
 2261SOL     OW 1866   2.212   2.760   3.666
 2261SOL    HW1 1867   2.288   2.804   3.714
 2261SOL    HW2 1868   2.247   2.713   3.584
 2262SOL     OW 1869   3.402   2.136   1.987
 2262SOL    HW1 1870   3.341   2.061   2.010
 2262SOL    HW2 1871   3.424   2.188   2.070
 2263SOL     OW 1872   3.165   2.700   1.904
 2263SOL    HW1 1873   3.199   2.607   1.919
 2263SOL    HW2 1874   3.183   2.727   1.809
 2264SOL     OW 1875   2.930   3.195   2.711
 2264SOL    HW1 1876   2.937   3.111   2.656
 2264SOL    HW2 1877   2.992   3.264   2.675
 2265SOL     OW 1878   2.181   2.672   2.811
 2265SOL    HW1 1879   2.274   2.708   2.816
 2265SOL    HW2 1880   2.175   2.587   2.863
 2266SOL     OW 1881   2.201   2.371   2.868
 2266SOL    HW1 1882   2.149   2.288   2.851
 2266SOL    HW2 1883   2.278   2.376   2.804
 2267SOL     OW 1884   3.000   2.242   3.540
 2267SOL    HW1 1885   2.955   2.305   3.604
 2267SOL    HW2 1886   3.093   2.273   3.523
 2268SOL     OW 1887   3.022   2.069   3.339
 2268SOL    HW1 1888   3.022   2.133   3.416
 2268SOL    HW2 1889   3.050   2.117   3.256
 2269SOL     OW 1890   1.870   3.188   2.062
 2269SOL    HW1 1891   1.777   3.209   2.031
 2269SOL    HW2 1892   1.880   3.089   2.075
 2270SOL     OW 1893   1.950   3.663   2.789
 2270SOL    HW1 1894   1.908   3.577   2.762
 2270SOL    HW2 1895   2.044   3.666   2.755
 2271SOL     OW 1896   2.366   3.430   2.772
 2271SOL    HW1 1897   2.432   3.504   2.781
 2271SOL    HW2 1898   2.410   3.351   2.730
 2272SOL     OW 1899   2.864   2.658   3.100
 2272SOL    HW1 1900   2.905   2.626   3.186
 2272SOL    HW2 1901   2.768   2.631   3.097
 2273SOL     OW 1902   1.902   2.406   2.976
 2273SOL    HW1 1903   1.987   2.373   2.935
 2273SOL    HW2 1904   1.915   2.421   3.074
 2274SOL     OW 1905   2.051   2.382   3.584
 2274SOL    HW1 1906   2.110   2.342   3.514
 2274SOL    HW2 1907   1.993   2.453   3.543
 2275SOL     OW 1908   3.231   2.812   3.522
 2275SOL    HW1 1909   3.270   2.901   3.542
 2275SOL    HW2 1910   3.241   2.792   3.425
 2276SOL     OW 1911   3.519   2.466   3.068
 2276SOL    HW1 1912   3.481   2.397   3.130
 2276SOL    HW2 1913   3.601   2.430   3.024
 2277SOL     OW 1914   2.114   3.426   3.606
 2277SOL    HW1 1915   2.084   3.483   3.682
 2277SOL    HW2 1916   2.107   3.329   3.632
 2278SOL     OW 1917   2.533   2.326   3.131
 2278SOL    HW1 1918   2.499   2.237   3.101
 2278SOL    HW2 1919   2.559   2.380   3.051
 2279SOL     OW 1920   2.792   3.540   3.327
 2279SOL    HW1 1921   2.768   3.522   3.232
 2279SOL    HW2 1922   2.822   3.634   3.337
 2280SOL     OW 1923   2.335   2.362   2.053
 2280SOL    HW1 1924   2.396   2.442   2.057
 2280SOL    HW2 1925   2.240   2.393   2.060
 2281SOL     OW 1926   2.021   2.999   3.328
 2281SOL    HW1 1927   2.043   2.938   3.404
 2281SOL    HW2 1928   2.031   2.950   3.242
 2282SOL     OW 1929   3.209   2.921   3.096
 2282SOL    HW1 1930   3.233   2.858   3.022
 2282SOL    HW2 1931   3.119   2.961   3.078
 2283SOL     OW 1932   3.164   2.717   2.171
 2283SOL    HW1 1933   3.078   2.686   2.213
 2283SOL    HW2 1934   3.160   2.703   2.072
 2285SOL     OW 1935   3.114   3.593   2.990
 2285SOL    HW1 1936   3.198   3.598   2.936
 2285SOL    HW2 1937   3.091   3.497   3.008
 2286SOL     OW 1938   1.945   3.120   2.884
 2286SOL    HW1 1939   1.940   3.119   2.984
 2286SOL    HW2 1940   1.862   3.079   2.846
 2287SOL     OW 1941   2.550   3.524   3.578
 2287SOL    HW1 1942   2.494   3.605   3.587
 2287SOL    HW2 1943   2.602   3.528   3.492
 2288SOL     OW 1944   3.588   1.997   2.385
 2288SOL    HW1 1945   3.661   1.980   2.318
 2288SOL    HW2 1946   3.557   1.910   2.423
 2289SOL     OW 1947   3.250   3.435   2.339
 2289SOL    HW1 1948   3.317   3.447   2.265
 2289SOL    HW2 1949   3.210   3.524   2.362
 2291SOL     OW 1950   3.142   2.789   2.534
 2291SOL    HW1 1951   3.202   2.708   2.536
 2291SOL    HW2 1952   3.182   2.858   2.474
 2292SOL     OW 1953   2.692   3.135   3.284
 2292SOL    HW1 1954   2.687   3.168   3.379
 2292SOL    HW2 1955   2.606   3.154   3.238
 2293SOL     OW 1956   2.534   3.478   2.016
 2293SOL    HW1 1957   2.543   3.488   1.917
 2293SOL    HW2 1958   2.494   3.389   2.037
 2295SOL     OW 1959   3.703   2.037   2.825
 2295SOL    HW1 1960   3.742   1.952   2.789
 2295SOL    HW2 1961   3.605   2.039   2.806
 2296SOL     OW 1962   2.125   2.188   2.582
 2296SOL    HW1 1963   2.046   2.239   2.548
 2296SOL    HW2 1964   2.116   2.173   2.680
 2297SOL     OW 1965   3.056   3.474   1.893
 2297SOL    HW1 1966   3.062   3.381   1.930
 2297SOL    HW2 1967   2.997   3.474   1.813
 2298SOL     OW 1968   2.684   2.864   3.234
 2298SOL    HW1 1969   2.724   2.863   3.142
 2298SOL    HW2 1970   2.694   2.956   3.274
 2299SOL     OW 1971   2.778   2.772   2.153
 2299SOL    HW1 1972   2.841   2.810   2.085
 2299SOL    HW2 1973   2.818   2.689   2.192
 2300SOL     OW 1974   3.366   3.469   1.906
 2300SOL    HW1 1975   3.274   3.506   1.913
 2300SOL    HW2 1976   3.404   3.489   1.816
 2301SOL     OW 1977   2.234   3.150   3.352
 2301SOL    HW1 1978   2.221   3.243   3.318
 2301SOL    HW2 1979   2.150   3.098   3.339
 2302SOL     OW 1980   3.476   3.154   3.151
 2302SOL    HW1 1981   3.536   3.157   3.231
 2302SOL    HW2 1982   3.401   3.218   3.164
 2303SOL     OW 1983   2.901   2.960   2.558
 2303SOL    HW1 1984   2.831   2.913   2.612
 2303SOL    HW2 1985   2.960   2.892   2.515
 2304SOL     OW 1986   2.876   2.098   2.833
 2304SOL    HW1 1987   2.868   2.062   2.740
 2304SOL    HW2 1988   2.874   2.022   2.898
 2305SOL     OW 1989   2.452   3.349   2.353
 2305SOL    HW1 1990   2.494   3.291   2.283
 2305SOL    HW2 1991   2.408   3.428   2.309
 2306SOL     OW 1992   3.571   2.247   3.243
 2306SOL    HW1 1993   3.644   2.316   3.247
 2306SOL    HW2 1994   3.599   2.172   3.184
 2307SOL     OW 1995   2.117   3.210   2.152
 2307SOL    HW1 1996   2.021   3.211   2.125
 2307SOL    HW2 1997   2.129   3.263   2.236
 2308SOL     OW 1998   1.967   2.875   3.588
 2308SOL    HW1 1999   1.890   2.842   3.642
 2308SOL    HW2 2000   2.052   2.845   3.630
 2309SOL     OW 2001   2.534   2.065   3.351
 2309SOL    HW1 2002   2.624   2.049   3.311
 2309SOL    HW2 2003   2.542   2.070   3.450
 2310SOL     OW 2004   1.937   2.207   1.895
 2310SOL    HW1 2005   1.845   2.179   1.866
 2310SOL    HW2 2006   1.968   2.284   1.839
 2311SOL     OW 2007   3.302   2.718   3.260
 2311SOL    HW1 2008   3.245   2.770   3.197
 2311SOL    HW2 2009   3.398   2.730   3.236
 2312SOL     OW 2010   1.934   2.028   2.180
 2312SOL    HW1 2011   1.917   2.111   2.126
 2312SOL    HW2 2012   2.024   1.991   2.158
 2313SOL     OW 2013   3.045   3.197   1.981
 2313SOL    HW1 2014   2.946   3.186   1.983
 2313SOL    HW2 2015   3.079   3.212   2.074
 2314SOL     OW 2016   2.475   2.704   3.293
 2314SOL    HW1 2017   2.531   2.785   3.276
 2314SOL    HW2 2018   2.534   2.624   3.296
 2315SOL     OW 2019   3.355   3.629   2.821
 2315SOL    HW1 2020   3.388   3.693   2.752
 2315SOL    HW2 2021   3.421   3.623   2.896
 2316SOL     OW 2022   2.578   2.427   3.570
 2316SOL    HW1 2023   2.597   2.492   3.644
 2316SOL    HW2 2024   2.638   2.347   3.579
 2317SOL     OW 2025   3.312   3.082   3.495
 2317SOL    HW1 2026   3.303   3.072   3.594
 2317SOL    HW2 2027   3.408   3.075   3.469
 2318SOL     OW 2028   2.252   3.603   3.422
 2318SOL    HW1 2029   2.161   3.644   3.420
 2318SOL    HW2 2030   2.245   3.509   3.454
 2319SOL     OW 2031   3.536   2.745   3.116
 2319SOL    HW1 2032   3.509   2.656   3.079
 2319SOL    HW2 2033   3.537   2.813   3.043
 2320SOL     OW 2034   3.087   2.187   2.311
 2320SOL    HW1 2035   3.152   2.113   2.300
 2320SOL    HW2 2036   3.107   2.237   2.395
 2321SOL     OW 2037   3.639   2.204   3.504
 2321SOL    HW1 2038   3.622   2.235   3.410
 2321SOL    HW2 2039   3.555   2.167   3.542
 2322SOL     OW 2040   3.592   2.796   3.379
 2322SOL    HW1 2041   3.630   2.887   3.394
 2322SOL    HW2 2042   3.584   2.779   3.280
 2323SOL     OW 2043   2.721   3.236   1.878
 2323SOL    HW1 2044   2.675   3.251   1.966
 2323SOL    HW2 2045   2.765   3.321   1.848
 2324SOL     OW 2046   2.523   3.652   2.815
 2324SOL    HW1 2047   2.477   3.740   2.802
 2324SOL    HW2 2048   2.622   3.664   2.808
 2325SOL     OW 2049   2.721   2.818   2.723
 2325SOL    HW1 2050   2.775   2.749   2.771
 2325SOL    HW2 2051   2.689   2.887   2.789
 2326SOL     OW 2052   2.945   2.846   1.949
 2326SOL    HW1 2053   2.922   2.899   1.867
 2326SOL    HW2 2054   3.026   2.790   1.930
 2327SOL     OW 2055   3.723   3.431   2.713
 2327SOL    HW1 2056   3.652   3.419   2.643
 2327SOL    HW2 2057   3.724   3.352   2.773
 2328SOL     OW 2058   2.083   3.176   3.706
 2328SOL    HW1 2059   2.018   3.103   3.685
 2328SOL    HW2 2060   2.087   3.190   3.804
 2329SOL     OW 2061   1.941   3.102   2.515
 2329SOL    HW1 2062   1.940   3.055   2.603
 2329SOL    HW2 2063   2.023   3.074   2.464
 2330SOL     OW 2064   2.534   3.253   3.486
 2330SOL    HW1 2065   2.456   3.203   3.524
 2330SOL    HW2 2066   2.531   3.348   3.517
 2331SOL     OW 2067   3.686   2.054   3.089
 2331SOL    HW1 2068   3.682   1.964   3.133
 2331SOL    HW2 2069   3.689   2.043   2.990
 2332SOL     OW 2070   3.567   3.349   2.966
 2332SOL    HW1 2071   3.474   3.324   2.939
 2332SOL    HW2 2072   3.593   3.299   3.048
 2333SOL     OW 2073   2.179   2.409   3.142
 2333SOL    HW1 2074   2.217   2.350   3.214
 2333SOL    HW2 2075   2.219   2.383   3.054
 2334SOL     OW 2076   2.674   3.448   2.549
 2334SOL    HW1 2077   2.706   3.458   2.455
 2334SOL    HW2 2078   2.595   3.386   2.551
 2335SOL     OW 2079   3.286   2.076   2.974
 2335SOL    HW1 2080   3.338   2.011   3.029
 2335SOL    HW2 2081   3.237   2.139   3.035
 2336SOL     OW 2082   2.863   1.896   3.016
 2336SOL    HW1 2083   2.800   1.824   2.985
 2336SOL    HW2 2084   2.956   1.860   3.016
 2337SOL     OW 2085   2.632   3.192   2.163
 2337SOL    HW1 2086   2.586   3.105   2.180
 2337SOL    HW2 2087   2.723   3.189   2.204
 2338SOL     OW 2088   2.480   3.429   3.146
 2338SOL    HW1 2089   2.475   3.511   3.203
 2338SOL    HW2 2090   2.569   3.426   3.101
 2339SOL     OW 2091   3.214   1.914   2.030
 2339SOL    HW1 2092   3.249   1.873   1.946
 2339SOL    HW2 2093   3.124   1.876   2.050
 2340SOL     OW 2094   3.162   2.315   2.553
 2340SOL    HW1 2095   3.103   2.395   2.557
 2340SOL    HW2 2096   3.177   2.280   2.646
 2341SOL     OW 2097   3.455   2.083   2.744
 2341SOL    HW1 2098   3.371   2.082   2.798
 2341SOL    HW2 2099   3.457   2.166   2.688
 2342SOL     OW 2100   1.901   2.939   2.162
 2342SOL    HW1 2101   2.000   2.928   2.153
 2342SOL    HW2 2102   1.861   2.853   2.194
 2343SOL     OW 2103   2.737   3.508   2.199
 2343SOL    HW1 2104   2.660   3.473   2.145
 2343SOL    HW2 2105   2.705   3.579   2.261
 2344SOL     OW 2106   2.092   2.490   3.837
 2344SOL    HW1 2107   1.999   2.488   3.874
 2344SOL    HW2 2108   2.093   2.451   3.745
 2356SOL     OW 2109   2.468   2.826   3.847
 2356SOL    HW1 2110   2.475   2.910   3.793
 2356SOL    HW2 2111   2.514   2.839   3.935
 2367SOL     OW 2112   2.460   2.591   3.994
 2367SOL    HW1 2113   2.484   2.660   3.926
 2367SOL    HW2 2114   2.382   2.624   4.048
 2372SOL     OW 2115   2.727   2.210   3.919
 2372SOL    HW1 2116   2.786   2.273   3.870
 2372SOL    HW2 2117   2.746   2.116   3.890
 2377SOL     OW 2118   2.183   2.805   3.966
 2377SOL    HW1 2119   2.265   2.844   3.924
 2377SOL    HW2 2120   2.156   2.723   3.917
 2386SOL     OW 2121   2.476   1.984   3.841
 2386SOL    HW1 2122   2.574   1.962   3.848
 2386SOL    HW2 2123   2.445   1.967   3.748
 2389SOL     OW 2124   3.296   3.050   3.765
 2389SOL    HW1 2125   3.328   2.974   3.822
 2389SOL    HW2 2126   3.204   3.077   3.795
 2390SOL     OW 2127   2.159   1.897   3.895
 2390SOL    HW1 2128   2.208   1.981   3.874
 2390SOL    HW2 2129   2.221   1.832   3.940
 2395SOL     OW 2130   2.894   2.411   3.740
 2395SOL    HW1 2131   2.853   2.493   3.701
 2395SOL    HW2 2132   2.958   2.437   3.813
 2400SOL     OW 2133   2.350   3.247   3.898
 2400SOL    HW1 2134   2.263   3.232   3.945
 2400SOL    HW2 2135   2.333   3.273   3.803
 2402SOL     OW 2136   3.252   2.437   3.802
 2402SOL    HW1 2137   3.198   2.416   3.883
 2402SOL    HW2 2138   3.343   2.396   3.811
 2403SOL     OW 2139   2.389   2.118   4.052
 2403SOL    HW1 2140   2.416   2.059   3.977
 2403SOL    HW2 2141   2.389   2.213   4.021
 2405SOL     OW 2142   2.567   2.912   4.092
 2405SOL    HW1 2143   2.553   2.919   4.191
 2405SOL    HW2 2144   2.651   2.861   4.074
 2410SOL     OW 2145   3.071   2.387   3.999
 2410SOL    HW1 2146   3.084   2.303   4.053
 2410SOL    HW2 2147   3.042   2.461   4.059
 2415SOL     OW 2148   3.402   2.136   3.849
 2415SOL    HW1 2149   3.341   2.061   3.872
 2415SOL    HW2 2150   3.424   2.188   3.932
 2416SOL     OW 2151   3.165   2.700   3.766
 2416SOL    HW1 2152   3.199   2.607   3.781
 2416SOL    HW2 2153   3.183   2.727   3.671
 2422SOL     OW 2154   2.677   2.434   4.049
 2422SOL    HW1 2155   2.684   2.345   4.003
 2422SOL    HW2 2156   2.583   2.468   4.041
 2424SOL     OW 2157   2.335   2.362   3.915
 2424SOL    HW1 2158   2.396   2.442   3.919
 2424SOL    HW2 2159   2.240   2.393   3.922
 2436SOL     OW 2160   2.778   2.772   4.015
 2436SOL    HW1 2161   2.841   2.810   3.947
 2436SOL    HW2 2162   2.818   2.689   4.054
 2442SOL     OW 2163   1.937   2.207   3.757
 2442SOL    HW1 2164   1.845   2.179   3.728
 2442SOL    HW2 2165   1.968   2.284   3.701
 2443SOL     OW 2166   1.934   2.028   4.042
 2443SOL    HW1 2167   1.917   2.111   3.988
 2443SOL    HW2 2168   2.024   1.991   4.020
 2444SOL     OW 2169   3.045   3.197   3.843
 2444SOL    HW1 2170   2.946   3.186   3.845
 2444SOL    HW2 2171   3.079   3.212   3.936
 2448SOL     OW 2172   2.721   3.236   3.740
 2448SOL    HW1 2173   2.675   3.251   3.828
 2448SOL    HW2 2174   2.765   3.321   3.710
 2451SOL     OW 2175   2.945   2.846   3.811
 2451SOL    HW1 2176   2.922   2.899   3.729
 2451SOL    HW2 2177   3.026   2.790   3.792
 2458SOL     OW 2178   3.214   1.914   3.892
 2458SOL    HW1 2179   3.249   1.873   3.808
 2458SOL    HW2 2180   3.124   1.876   3.912
 2461SOL     OW 2181   1.901   2.939   4.024
 2461SOL    HW1 2182   2.000   2.928   4.015
 2461SOL    HW2 2183   1.861   2.853   4.056
 2480SOL     OW 2184   2.179   3.975   1.801
 2480SOL    HW1 2185   2.250   4.046   1.807
 2480SOL    HW2 2186   2.091   4.014   1.829
 2498SOL     OW 2187   2.643   3.988   1.749
 2498SOL    HW1 2188   2.710   3.927   1.792
 2498SOL    HW2 2189   2.570   4.007   1.814
 2514SOL     OW 2190   2.777   3.813   1.402
 2514SOL    HW1 2191   2.802   3.793   1.307
 2514SOL    HW2 2192   2.849   3.869   1.444
 2521SOL     OW 2193   2.875   3.829   1.770
 2521SOL    HW1 2194   2.881   3.914   1.718
 2521SOL    HW2 2195   2.907   3.753   1.713
 2522SOL     OW 2196   2.366   3.774   1.740
 2522SOL    HW1 2197   2.324   3.717   1.670
 2522SOL    HW2 2198   2.300   3.843   1.772
 2559SOL     OW 2199   2.534   3.927   1.489
 2559SOL    HW1 2200   2.624   3.911   1.449
 2559SOL    HW2 2201   2.542   3.932   1.588
 2579SOL     OW 2202   2.087   3.999   2.858
 2579SOL    HW1 2203   2.122   3.982   2.950
 2579SOL    HW2 2204   1.999   3.954   2.846
 2580SOL     OW 2205   1.881   4.092   2.509
 2580SOL    HW1 2206   1.799   4.135   2.548
 2580SOL    HW2 2207   1.853   4.019   2.446
 2592SOL     OW 2208   2.671   3.728   2.364
 2592SOL    HW1 2209   2.711   3.819   2.355
 2592SOL    HW2 2210   2.571   3.736   2.370
 2604SOL     OW 2211   2.727   4.072   2.057
 2604SOL    HW1 2212   2.786   4.135   2.008
 2604SOL    HW2 2213   2.746   3.978   2.028
 2606SOL     OW 2214   2.412   3.920   2.747
 2606SOL    HW1 2215   2.407   3.915   2.847
 2606SOL    HW2 2216   2.414   4.016   2.718
 2609SOL     OW 2217   3.262   3.831   2.288
 2609SOL    HW1 2218   3.238   3.794   2.198
 2609SOL    HW2 2219   3.361   3.847   2.292
 2612SOL     OW 2220   2.476   3.846   1.979
 2612SOL    HW1 2221   2.574   3.824   1.986
 2612SOL    HW2 2222   2.445   3.829   1.886
 2616SOL     OW 2223   2.401   3.788   2.374
 2616SOL    HW1 2224   2.320   3.789   2.432
 2616SOL    HW2 2225   2.404   3.871   2.319
 2617SOL     OW 2226   2.159   3.759   2.033
 2617SOL    HW1 2227   2.208   3.843   2.012
 2617SOL    HW2 2228   2.221   3.694   2.078
 2618SOL     OW 2229   2.797   3.960   2.342
 2618SOL    HW1 2230   2.749   4.001   2.264
 2618SOL    HW2 2231   2.896   3.958   2.323
 2622SOL     OW 2232   2.423   3.946   3.009
 2622SOL    HW1 2233   2.461   3.862   3.046
 2622SOL    HW2 2234   2.335   3.965   3.053
 2624SOL     OW 2235   2.879   3.763   2.615
 2624SOL    HW1 2236   2.807   3.768   2.546
 2624SOL    HW2 2237   2.855   3.694   2.684
 2628SOL     OW 2238   2.389   3.980   2.190
 2628SOL    HW1 2239   2.416   3.921   2.115
 2628SOL    HW2 2240   2.389   4.075   2.159
 2630SOL     OW 2241   2.777   3.813   3.264
 2630SOL    HW1 2242   2.802   3.793   3.169
 2630SOL    HW2 2243   2.849   3.869   3.306
 2642SOL     OW 2244   2.169   3.937   3.093
 2642SOL    HW1 2245   2.146   3.974   3.183
 2642SOL    HW2 2246   2.139   3.842   3.087
 2645SOL     OW 2247   2.169   3.787   2.480
 2645SOL    HW1 2248   2.158   3.881   2.513
 2645SOL    HW2 2249   2.164   3.724   2.557
 2669SOL     OW 2250   2.125   4.050   2.582
 2669SOL    HW1 2251   2.046   4.101   2.548
 2669SOL    HW2 2252   2.116   4.035   2.680
 2671SOL     OW 2253   2.876   3.960   2.833
 2671SOL    HW1 2254   2.868   3.924   2.740
 2671SOL    HW2 2255   2.874   3.884   2.898
 2677SOL     OW 2256   1.934   3.890   2.180
 2677SOL    HW1 2257   1.917   3.973   2.126
 2677SOL    HW2 2258   2.024   3.853   2.158
 2687SOL     OW 2259   2.290   4.148   2.382
 2687SOL    HW1 2260   2.320   4.076   2.320
 2687SOL    HW2 2261   2.251   4.108   2.465
 2690SOL     OW 2262   2.863   3.758   3.016
 2690SOL    HW1 2263   2.800   3.686   2.985
 2690SOL    HW2 2264   2.956   3.722   3.016
 2691SOL     OW 2265   3.214   3.776   2.030
 2691SOL    HW1 2266   3.249   3.735   1.946
 2691SOL    HW2 2267   3.124   3.738   2.050
 2784SOL     OW 2268   3.854   1.821   1.571
 2784SOL    HW1 2269   3.844   1.806   1.670
 2784SOL    HW2 2270   3.768   1.857   1.535
 2846SOL     OW 2271   3.854   1.794   1.851
 2846SOL    HW1 2272   3.813   1.720   1.904
 2846SOL    HW2 2273   3.918   1.845   1.909
 2889SOL     OW 2274   3.955   1.713   2.345
 2889SOL    HW1 2275   3.989   1.790   2.399
 2889SOL    HW2 2276   3.999   1.713   2.255
 2895SOL     OW 2277   3.751   1.596   1.979
 2895SOL    HW1 2278   3.732   1.500   2.000
 2895SOL    HW2 2279   3.718   1.654   2.054
 2952SOL     OW 2280   3.732   1.326   2.062
 2952SOL    HW1 2281   3.639   1.347   2.031
 2952SOL    HW2 2282   3.742   1.227   2.075
 2953SOL     OW 2283   3.812   1.801   2.789
 2953SOL    HW1 2284   3.770   1.715   2.762
 2953SOL    HW2 2285   3.906   1.804   2.755
 3085SOL     OW 2286   3.837   2.599   1.597
 3085SOL    HW1 2287   3.925   2.586   1.642
 3085SOL    HW2 2288   3.824   2.696   1.575
 3089SOL     OW 2289   4.041   2.113   1.801
 3089SOL    HW1 2290   4.112   2.184   1.807
 3089SOL    HW2 2291   3.953   2.152   1.829
 3102SOL     OW 2292   3.926   2.147   1.498
 3102SOL    HW1 2293   3.846   2.207   1.485
 3102SOL    HW2 2294   3.916   2.098   1.584
 3115SOL     OW 2295   3.802   2.418   1.386
 3115SOL    HW1 2296   3.894   2.417   1.345
 3115SOL    HW2 2297   3.796   2.492   1.453
 3147SOL     OW 2298   3.913   2.382   1.722
 3147SOL    HW1 2299   3.972   2.342   1.652
 3147SOL    HW2 2300   3.855   2.453   1.681
 3167SOL     OW 2301   3.829   2.875   1.726
 3167SOL    HW1 2302   3.752   2.842   1.780
 3167SOL    HW2 2303   3.914   2.845   1.768
 3190SOL     OW 2304   3.954   2.490   1.975
 3190SOL    HW1 2305   3.861   2.488   2.012
 3190SOL    HW2 2306   3.955   2.451   1.883
 3191SOL     OW 2307   3.949   2.137   2.858
 3191SOL    HW1 2308   3.984   2.120   2.950
 3191SOL    HW2 2309   3.861   2.092   2.846
 3192SOL     OW 2310   3.743   2.230   2.509
 3192SOL    HW1 2311   3.661   2.273   2.548
 3192SOL    HW2 2312   3.715   2.157   2.446
 3202SOL     OW 2313   3.964   2.953   2.748
 3202SOL    HW1 2314   3.978   2.869   2.800
 3202SOL    HW2 2315   3.909   3.017   2.803
 3205SOL     OW 2316   3.846   2.505   2.425
 3205SOL    HW1 2317   3.801   2.417   2.442
 3205SOL    HW2 2318   3.845   2.559   2.509
 3206SOL     OW 2319   3.751   3.458   1.979
 3206SOL    HW1 2320   3.732   3.362   2.000
 3206SOL    HW2 2321   3.718   3.516   2.054
 3210SOL     OW 2322   3.921   2.838   3.126
 3210SOL    HW1 2323   4.010   2.793   3.112
 3210SOL    HW2 2324   3.848   2.773   3.107
 3216SOL     OW 2325   3.800   2.673   2.651
 3216SOL    HW1 2326   3.899   2.661   2.660
 3216SOL    HW2 2327   3.776   2.768   2.672
 3222SOL     OW 2328   4.045   2.805   2.104
 3222SOL    HW1 2329   4.127   2.844   2.062
 3222SOL    HW2 2330   4.018   2.723   2.055
 3227SOL     OW 2331   4.106   2.562   2.342
 3227SOL    HW1 2332   4.151   2.472   2.339
 3227SOL    HW2 2333   4.012   2.551   2.375
 3234SOL     OW 2334   4.021   1.897   2.033
 3234SOL    HW1 2335   4.070   1.981   2.012
 3234SOL    HW2 2336   4.083   1.832   2.078
 3238SOL     OW 2337   3.802   2.418   3.248
 3238SOL    HW1 2338   3.894   2.417   3.207
 3238SOL    HW2 2339   3.796   2.492   3.315
 3248SOL     OW 2340   4.091   2.962   2.363
 3248SOL    HW1 2341   4.084   3.045   2.307
 3248SOL    HW2 2342   4.095   2.882   2.303
 3257SOL     OW 2343   3.761   3.172   3.144
 3257SOL    HW1 2344   3.814   3.123   3.212
 3257SOL    HW2 2345   3.783   3.270   3.149
 3259SOL     OW 2346   4.031   1.925   2.480
 3259SOL    HW1 2347   4.020   2.019   2.513
 3259SOL    HW2 2348   4.026   1.862   2.557
 3263SOL     OW 2349   4.043   2.672   2.811
 3263SOL    HW1 2350   4.136   2.708   2.816
 3263SOL    HW2 2351   4.037   2.587   2.863
 3264SOL     OW 2352   4.063   2.371   2.868
 3264SOL    HW1 2353   4.011   2.288   2.851
 3264SOL    HW2 2354   4.140   2.376   2.804
 3265SOL     OW 2355   3.732   3.188   2.062
 3265SOL    HW1 2356   3.639   3.209   2.031
 3265SOL    HW2 2357   3.742   3.089   2.075
 3269SOL     OW 2358   3.764   2.406   2.976
 3269SOL    HW1 2359   3.849   2.373   2.935
 3269SOL    HW2 2360   3.777   2.421   3.074
 3277SOL     OW 2361   3.807   3.120   2.884
 3277SOL    HW1 2362   3.802   3.119   2.984
 3277SOL    HW2 2363   3.724   3.079   2.846
 3283SOL     OW 2364   3.987   2.188   2.582
 3283SOL    HW1 2365   3.908   2.239   2.548
 3283SOL    HW2 2366   3.978   2.173   2.680
 3291SOL     OW 2367   3.799   2.207   1.895
 3291SOL    HW1 2368   3.707   2.179   1.866
 3291SOL    HW2 2369   3.830   2.284   1.839
 3292SOL     OW 2370   3.796   2.028   2.180
 3292SOL    HW1 2371   3.779   2.111   2.126
 3292SOL    HW2 2372   3.886   1.991   2.158
 3302SOL     OW 2373   3.803   3.102   2.515
 3302SOL    HW1 2374   3.802   3.055   2.603
 3302SOL    HW2 2375   3.885   3.074   2.464
 3304SOL     OW 2376   4.152   2.286   2.382
 3304SOL    HW1 2377   4.182   2.214   2.320
 3304SOL    HW2 2378   4.113   2.246   2.465
 3310SOL     OW 2379   3.763   2.939   2.162
 3310SOL    HW1 2380   3.862   2.928   2.153
 3310SOL    HW2 2381   3.723   2.853   2.194
   4.77388   4.77388   4.77388
