mobley_2923700_GMX.gro created by acpype (v: 2023.10.27) on Thu May 21 00:05:53 2026
 2374
    1MOL     C1    1   2.304   2.474   2.414
    1MOL     C2    2   2.516   2.358   2.420
    1MOL     C3    3   2.302   2.477   2.554
    1MOL     C4    4   2.514   2.361   2.559
    1MOL     C5    5   2.411   2.415   2.347
    1MOL     C6    6   2.407   2.421   2.626
    1MOL     C7    7   2.346   2.286   2.142
    1MOL     C8    8   2.413   2.411   2.198
    1MOL     O1    9   2.405   2.424   2.762
    1MOL     H1   10   2.222   2.518   2.359
    1MOL     H2   11   2.599   2.312   2.369
    1MOL     H3   12   2.218   2.524   2.606
    1MOL     H4   13   2.596   2.318   2.615
    1MOL     H5   14   2.396   2.195   2.177
    1MOL     H6   15   2.349   2.286   2.033
    1MOL     H7   16   2.241   2.280   2.173
    1MOL     H8   17   2.363   2.500   2.157
    1MOL     H9   18   2.516   2.416   2.161
    1MOL    H10   19   2.340   2.490   2.791
   14SOL     OW   20   1.460   1.505   1.339
   14SOL    HW1   21   1.484   1.599   1.365
   14SOL    HW2   22   1.444   1.451   1.421
   18SOL     OW   23   1.127   1.341   1.690
   18SOL    HW1   24   1.174   1.341   1.778
   18SOL    HW2   25   1.079   1.254   1.679
   35SOL     OW   26   1.187   1.792   1.616
   35SOL    HW1   27   1.211   1.852   1.540
   35SOL    HW2   28   1.194   1.697   1.586
   56SOL     OW   29   1.227   1.550   1.506
   56SOL    HW1   30   1.233   1.473   1.570
   56SOL    HW2   31   1.175   1.524   1.426
   95SOL     OW   32   1.754   1.223   1.588
   95SOL    HW1   33   1.845   1.184   1.575
   95SOL    HW2   34   1.762   1.319   1.612
   97SOL     OW   35   1.592   1.629   1.625
   97SOL    HW1   36   1.619   1.663   1.535
   97SOL    HW2   37   1.671   1.591   1.671
  122SOL     OW   38   1.728   0.935   1.854
  122SOL    HW1   39   1.682   0.928   1.765
  122SOL    HW2   40   1.666   0.979   1.920
  126SOL     OW   41   0.980   1.573   1.700
  126SOL    HW1   42   0.960   1.617   1.612
  126SOL    HW2   43   1.019   1.482   1.684
  127SOL     OW   44   1.859   1.518   1.605
  127SOL    HW1   45   1.873   1.545   1.510
  127SOL    HW2   46   1.942   1.540   1.658
  152SOL     OW   47   1.759   1.747   1.154
  152SOL    HW1   48   1.820   1.777   1.081
  152SOL    HW2   49   1.721   1.658   1.132
  163SOL     OW   50   1.650   1.720   1.394
  163SOL    HW1   51   1.703   1.730   1.310
  163SOL    HW2   52   1.623   1.810   1.428
  171SOL     OW   53   1.614   1.292   1.289
  171SOL    HW1   54   1.674   1.295   1.369
  171SOL    HW2   55   1.539   1.356   1.302
  186SOL     OW   56   1.450   1.220   1.633
  186SOL    HW1   57   1.441   1.210   1.732
  186SOL    HW2   58   1.546   1.213   1.607
  203SOL     OW   59   1.705   1.487   1.104
  203SOL    HW1   60   1.612   1.462   1.077
  203SOL    HW2   61   1.731   1.437   1.186
  219SOL     OW   62   1.555   1.511   2.565
  219SOL    HW1   63   1.498   1.495   2.646
  219SOL    HW2   64   1.496   1.521   2.485
  227SOL     OW   65   1.460   1.505   3.201
  227SOL    HW1   66   1.484   1.599   3.227
  227SOL    HW2   67   1.444   1.451   3.283
  238SOL     OW   68   1.842   1.767   2.221
  238SOL    HW1   69   1.896   1.738   2.301
  238SOL    HW2   70   1.872   1.857   2.192
  240SOL     OW   71   1.689   0.922   2.474
  240SOL    HW1   72   1.784   0.893   2.482
  240SOL    HW2   73   1.681   0.987   2.399
  241SOL     OW   74   1.641   1.108   2.294
  241SOL    HW1   75   1.727   1.110   2.242
  241SOL    HW2   76   1.655   1.155   2.382
  247SOL     OW   77   1.525   0.999   2.052
  247SOL    HW1   78   1.462   0.923   2.065
  247SOL    HW2   79   1.573   1.017   2.138
  248SOL     OW   80   1.187   1.792   3.478
  248SOL    HW1   81   1.211   1.852   3.402
  248SOL    HW2   82   1.194   1.697   3.448
  250SOL     OW   83   1.466   1.417   2.815
  250SOL    HW1   84   1.407   1.423   2.895
  250SOL    HW2   85   1.451   1.329   2.769
  251SOL     OW   86   1.667   1.714   2.434
  251SOL    HW1   87   1.626   1.691   2.346
  251SOL    HW2   88   1.649   1.640   2.499
  254SOL     OW   89   1.576   1.662   2.169
  254SOL    HW1   90   1.665   1.708   2.172
  254SOL    HW2   91   1.555   1.638   2.074
  264SOL     OW   92   1.362   1.144   2.407
  264SOL    HW1   93   1.445   1.115   2.359
  264SOL    HW2   94   1.313   1.211   2.351
  266SOL     OW   95   1.008   1.456   2.339
  266SOL    HW1   96   0.962   1.528   2.287
  266SOL    HW2   97   1.004   1.476   2.437
  268SOL     OW   98   1.795   1.066   2.735
  268SOL    HW1   99   1.733   1.051   2.659
  268SOL    HW2  100   1.743   1.077   2.820
  269SOL     OW  101   1.227   1.550   3.368
  269SOL    HW1  102   1.233   1.473   3.432
  269SOL    HW2  103   1.175   1.524   3.288
  273SOL     OW  104   1.111   1.776   2.099
  273SOL    HW1  105   1.051   1.714   2.149
  273SOL    HW2  106   1.142   1.732   2.014
  275SOL     OW  107   1.632   1.377   1.943
  275SOL    HW1  108   1.600   1.471   1.933
  275SOL    HW2  109   1.556   1.314   1.931
  279SOL     OW  110   0.940   1.698   2.766
  279SOL    HW1  111   1.020   1.641   2.787
  279SOL    HW2  112   0.891   1.658   2.689
  289SOL     OW  113   1.434   1.188   1.903
  289SOL    HW1  114   1.466   1.112   1.960
  289SOL    HW2  115   1.342   1.215   1.933
  293SOL     OW  116   1.227   1.570   2.655
  293SOL    HW1  117   1.248   1.644   2.590
  293SOL    HW2  118   1.295   1.570   2.728
  295SOL     OW  119   1.271   1.797   2.453
  295SOL    HW1  120   1.315   1.861   2.389
  295SOL    HW2  121   1.221   1.849   2.523
  301SOL     OW  122   1.429   1.173   2.729
  301SOL    HW1  123   1.374   1.089   2.722
  301SOL    HW2  124   1.455   1.202   2.637
  303SOL     OW  125   1.857   0.833   2.239
  303SOL    HW1  126   1.899   0.769   2.303
  303SOL    HW2  127   1.819   0.782   2.161
  305SOL     OW  128   1.664   1.280   2.519
  305SOL    HW1  129   1.763   1.288   2.533
  305SOL    HW2  130   1.619   1.364   2.550
  308SOL     OW  131   1.754   1.223   3.450
  308SOL    HW1  132   1.845   1.184   3.437
  308SOL    HW2  133   1.762   1.319   3.474
  310SOL     OW  134   1.592   1.629   3.487
  310SOL    HW1  135   1.619   1.663   3.397
  310SOL    HW2  136   1.671   1.591   3.533
  312SOL     OW  137   1.638   1.099   2.941
  312SOL    HW1  138   1.643   1.180   3.000
  312SOL    HW2  139   1.552   1.101   2.890
  321SOL     OW  140   1.252   1.348   2.250
  321SOL    HW1  141   1.302   1.425   2.290
  321SOL    HW2  142   1.157   1.350   2.282
  322SOL     OW  143   1.272   1.445   3.004
  322SOL    HW1  144   1.319   1.458   3.091
  322SOL    HW2  145   1.206   1.371   3.013
  340SOL     OW  146   1.859   1.518   3.467
  340SOL    HW1  147   1.873   1.545   3.372
  340SOL    HW2  148   1.942   1.540   3.520
  344SOL     OW  149   1.068   1.333   2.711
  344SOL    HW1  150   1.075   1.249   2.656
  344SOL    HW2  151   1.130   1.402   2.675
  365SOL     OW  152   1.759   1.747   3.016
  365SOL    HW1  153   1.820   1.777   2.943
  365SOL    HW2  154   1.721   1.658   2.994
  366SOL     OW  155   1.252   1.731   2.990
  366SOL    HW1  156   1.336   1.736   2.936
  366SOL    HW2  157   1.229   1.635   3.008
  370SOL     OW  158   1.388   1.573   2.339
  370SOL    HW1  159   1.455   1.585   2.265
  370SOL    HW2  160   1.348   1.662   2.362
  375SOL     OW  161   1.650   1.720   3.256
  375SOL    HW1  162   1.703   1.730   3.172
  375SOL    HW2  163   1.623   1.810   3.290
  378SOL     OW  164   1.194   1.612   1.893
  378SOL    HW1  165   1.200   1.519   1.930
  378SOL    HW2  166   1.135   1.612   1.813
  381SOL     OW  167   1.504   1.607   1.906
  381SOL    HW1  168   1.412   1.644   1.913
  381SOL    HW2  169   1.542   1.627   1.816
  383SOL     OW  170   1.614   1.292   3.151
  383SOL    HW1  171   1.674   1.295   3.231
  383SOL    HW2  172   1.539   1.356   3.164
  394SOL     OW  173   1.183   1.335   1.981
  394SOL    HW1  174   1.084   1.324   1.983
  394SOL    HW2  175   1.217   1.350   2.074
  396SOL     OW  176   1.493   1.767   2.821
  396SOL    HW1  177   1.526   1.831   2.752
  396SOL    HW2  178   1.559   1.761   2.896
  409SOL     OW  179   1.861   1.569   2.713
  409SOL    HW1  180   1.790   1.557   2.643
  409SOL    HW2  181   1.862   1.490   2.773
  415SOL     OW  182   1.705   1.487   2.966
  415SOL    HW1  183   1.612   1.462   2.939
  415SOL    HW2  184   1.731   1.437   3.048
  417SOL     OW  185   0.812   1.586   2.549
  417SOL    HW1  186   0.844   1.596   2.455
  417SOL    HW2  187   0.733   1.524   2.551
  426SOL     OW  188   0.875   1.646   2.199
  426SOL    HW1  189   0.798   1.611   2.145
  426SOL    HW2  190   0.843   1.717   2.261
  554SOL     OW  191   0.850   2.660   1.823
  554SOL    HW1  192   0.846   2.736   1.888
  554SOL    HW2  193   0.872   2.696   1.732
  558SOL     OW  194   1.460   3.367   1.339
  558SOL    HW1  195   1.484   3.461   1.365
  558SOL    HW2  196   1.444   3.313   1.421
  562SOL     OW  197   1.127   3.203   1.690
  562SOL    HW1  198   1.174   3.203   1.778
  562SOL    HW2  199   1.079   3.116   1.679
  567SOL     OW  200   1.594   1.976   1.480
  567SOL    HW1  201   1.576   2.043   1.408
  567SOL    HW2  202   1.591   2.022   1.569
  575SOL     OW  203   1.293   3.090   1.423
  575SOL    HW1  204   1.330   3.017   1.365
  575SOL    HW2  205   1.345   3.095   1.508
  587SOL     OW  206   1.394   2.331   1.674
  587SOL    HW1  207   1.374   2.374   1.762
  587SOL    HW2  208   1.472   2.269   1.683
  588SOL     OW  209   0.973   2.752   1.572
  588SOL    HW1  210   1.019   2.668   1.543
  588SOL    HW2  211   0.917   2.786   1.497
  594SOL     OW  212   1.719   2.447   1.831
  594SOL    HW1  213   1.693   2.536   1.795
  594SOL    HW2  214   1.717   2.379   1.758
  599SOL     OW  215   1.795   2.928   0.873
  599SOL    HW1  216   1.733   2.913   0.797
  599SOL    HW2  217   1.743   2.939   0.958
  600SOL     OW  218   1.227   3.412   1.506
  600SOL    HW1  219   1.233   3.335   1.570
  600SOL    HW2  220   1.175   3.386   1.426
  612SOL     OW  221   1.547   2.084   1.729
  612SOL    HW1  222   1.542   2.121   1.821
  612SOL    HW2  223   1.475   2.015   1.717
  614SOL     OW  224   0.781   2.126   1.749
  614SOL    HW1  225   0.848   2.065   1.792
  614SOL    HW2  226   0.708   2.145   1.814
  616SOL     OW  227   1.351   2.452   1.433
  616SOL    HW1  228   1.379   2.409   1.518
  616SOL    HW2  229   1.376   2.548   1.434
  622SOL     OW  230   1.076   2.545   1.464
  622SOL    HW1  231   0.996   2.484   1.467
  622SOL    HW2  232   1.157   2.492   1.440
  632SOL     OW  233   1.466   2.452   0.992
  632SOL    HW1  234   1.436   2.357   0.999
  632SOL    HW2  235   1.539   2.468   1.058
  638SOL     OW  236   1.754   3.085   1.588
  638SOL    HW1  237   1.845   3.046   1.575
  638SOL    HW2  238   1.762   3.181   1.612
  640SOL     OW  239   1.592   3.491   1.625
  640SOL    HW1  240   1.619   3.525   1.535
  640SOL    HW2  241   1.671   3.453   1.671
  642SOL     OW  242   1.638   2.961   1.079
  642SOL    HW1  243   1.643   3.042   1.138
  642SOL    HW2  244   1.552   2.963   1.028
  644SOL     OW  245   0.980   2.978   1.719
  644SOL    HW1  246   0.881   2.984   1.729
  644SOL    HW2  247   1.003   2.898   1.663
  647SOL     OW  248   1.274   2.248   1.262
  647SOL    HW1  249   1.295   2.322   1.326
  647SOL    HW2  250   1.185   2.265   1.219
  656SOL     OW  251   1.587   2.641   1.670
  656SOL    HW1  252   1.495   2.679   1.665
  656SOL    HW2  253   1.647   2.688   1.605
  657SOL     OW  254   1.013   1.967   1.770
  657SOL    HW1  255   1.019   2.052   1.718
  657SOL    HW2  256   1.045   1.891   1.713
  660SOL     OW  257   1.360   2.724   1.045
  660SOL    HW1  258   1.285   2.724   0.979
  660SOL    HW2  259   1.397   2.632   1.054
  665SOL     OW  260   1.728   2.797   1.854
  665SOL    HW1  261   1.682   2.790   1.765
  665SOL    HW2  262   1.666   2.841   1.920
  670SOL     OW  263   1.859   3.380   1.605
  670SOL    HW1  264   1.873   3.407   1.510
  670SOL    HW2  265   1.942   3.402   1.658
  677SOL     OW  266   1.138   2.242   1.678
  677SOL    HW1  267   1.093   2.305   1.742
  677SOL    HW2  268   1.231   2.273   1.661
  678SOL     OW  269   1.160   2.069   1.477
  678SOL    HW1  270   1.160   2.133   1.554
  678SOL    HW2  271   1.188   2.117   1.394
  685SOL     OW  272   1.369   2.812   1.660
  685SOL    HW1  273   1.408   2.901   1.680
  685SOL    HW2  274   1.379   2.792   1.563
  687SOL     OW  275   1.657   2.466   1.206
  687SOL    HW1  276   1.619   2.397   1.268
  687SOL    HW2  277   1.739   2.430   1.162
  693SOL     OW  278   1.347   2.921   1.234
  693SOL    HW1  279   1.371   2.858   1.160
  693SOL    HW2  280   1.257   2.961   1.216
  706SOL     OW  281   1.650   3.582   1.394
  706SOL    HW1  282   1.703   3.592   1.310
  706SOL    HW2  283   1.623   3.672   1.428
  707SOL     OW  284   1.841   2.037   0.963
  707SOL    HW1  285   1.880   1.952   0.927
  707SOL    HW2  286   1.743   2.039   0.944
  714SOL     OW  287   1.614   3.154   1.289
  714SOL    HW1  288   1.674   3.157   1.369
  714SOL    HW2  289   1.539   3.218   1.302
  718SOL     OW  290   1.709   2.247   1.381
  718SOL    HW1  291   1.782   2.316   1.385
  718SOL    HW2  292   1.737   2.172   1.322
  723SOL     OW  293   1.440   2.718   1.398
  723SOL    HW1  294   1.383   2.770   1.335
  723SOL    HW2  295   1.536   2.730   1.374
  729SOL     OW  296   1.450   3.082   1.633
  729SOL    HW1  297   1.441   3.072   1.732
  729SOL    HW2  298   1.546   3.075   1.607
  731SOL     OW  299   1.674   2.745   1.254
  731SOL    HW1  300   1.647   2.656   1.217
  731SOL    HW2  301   1.675   2.813   1.181
  734SOL     OW  302   1.777   2.204   1.642
  734SOL    HW1  303   1.760   2.235   1.548
  734SOL    HW2  304   1.693   2.167   1.680
  735SOL     OW  305   1.730   2.796   1.517
  735SOL    HW1  306   1.768   2.887   1.532
  735SOL    HW2  307   1.722   2.779   1.418
  744SOL     OW  308   1.824   2.054   1.227
  744SOL    HW1  309   1.820   1.964   1.271
  744SOL    HW2  310   1.827   2.043   1.128
  746SOL     OW  311   1.705   3.349   1.104
  746SOL    HW1  312   1.612   3.324   1.077
  746SOL    HW2  313   1.731   3.299   1.186
  749SOL     OW  314   1.424   2.076   1.112
  749SOL    HW1  315   1.476   2.011   1.167
  749SOL    HW2  316   1.375   2.139   1.173
  755SOL     OW  317   1.593   2.083   0.882
  755SOL    HW1  318   1.509   2.082   0.936
  755SOL    HW2  319   1.595   2.166   0.826
  762SOL     OW  320   1.555   3.373   2.565
  762SOL    HW1  321   1.498   3.357   2.646
  762SOL    HW2  322   1.496   3.383   2.485
  763SOL     OW  323   1.135   2.565   2.579
  763SOL    HW1  324   1.192   2.643   2.554
  763SOL    HW2  325   1.075   2.591   2.655
  764SOL     OW  326   1.755   2.469   2.093
  764SOL    HW1  327   1.743   2.456   1.994
  764SOL    HW2  328   1.725   2.388   2.142
  767SOL     OW  329   0.685   2.874   2.527
  767SOL    HW1  330   0.754   2.858   2.597
  767SOL    HW2  331   0.612   2.931   2.565
  770SOL     OW  332   1.460   3.367   3.201
  770SOL    HW1  333   1.484   3.461   3.227
  770SOL    HW2  334   1.444   3.313   3.283
  772SOL     OW  335   1.603   2.309   2.599
  772SOL    HW1  336   1.529   2.355   2.549
  772SOL    HW2  337   1.654   2.377   2.652
  779SOL     OW  338   1.594   1.976   3.342
  779SOL    HW1  339   1.576   2.043   3.270
  779SOL    HW2  340   1.591   2.022   3.431
  781SOL     OW  341   1.842   3.629   2.221
  781SOL    HW1  342   1.896   3.600   2.301
  781SOL    HW2  343   1.872   3.719   2.192
  783SOL     OW  344   1.689   2.784   2.474
  783SOL    HW1  345   1.784   2.755   2.482
  783SOL    HW2  346   1.681   2.849   2.399
  784SOL     OW  347   1.641   2.970   2.294
  784SOL    HW1  348   1.727   2.972   2.242
  784SOL    HW2  349   1.655   3.017   2.382
  787SOL     OW  350   1.293   3.090   3.285
  787SOL    HW1  351   1.330   3.017   3.227
  787SOL    HW2  352   1.345   3.095   3.370
  788SOL     OW  353   0.809   1.866   2.364
  788SOL    HW1  354   0.849   1.957   2.355
  788SOL    HW2  355   0.709   1.874   2.370
  790SOL     OW  356   1.525   2.861   2.052
  790SOL    HW1  357   1.462   2.785   2.065
  790SOL    HW2  358   1.573   2.879   2.138
  793SOL     OW  359   1.466   3.279   2.815
  793SOL    HW1  360   1.407   3.285   2.895
  793SOL    HW2  361   1.451   3.191   2.769
  794SOL     OW  362   1.667   3.576   2.434
  794SOL    HW1  363   1.626   3.553   2.346
  794SOL    HW2  364   1.649   3.502   2.499
  796SOL     OW  365   1.281   2.207   2.806
  796SOL    HW1  366   1.195   2.157   2.793
  796SOL    HW2  367   1.343   2.153   2.862
  797SOL     OW  368   1.576   3.524   2.169
  797SOL    HW1  369   1.665   3.570   2.172
  797SOL    HW2  370   1.555   3.500   2.074
  799SOL     OW  371   1.394   2.331   3.536
  799SOL    HW1  372   1.374   2.374   3.624
  799SOL    HW2  373   1.472   2.269   3.545
  800SOL     OW  374   0.973   2.752   3.434
  800SOL    HW1  375   1.019   2.668   3.405
  800SOL    HW2  376   0.917   2.786   3.359
  801SOL     OW  377   0.991   2.272   3.104
  801SOL    HW1  378   0.914   2.306   3.158
  801SOL    HW2  379   0.957   2.221   3.025
  802SOL     OW  380   1.041   2.563   2.291
  802SOL    HW1  381   1.067   2.559   2.387
  802SOL    HW2  382   0.956   2.512   2.277
  805SOL     OW  383   0.865   2.210   2.057
  805SOL    HW1  384   0.924   2.273   2.008
  805SOL    HW2  385   0.884   2.116   2.028
  806SOL     OW  386   1.719   2.447   3.693
  806SOL    HW1  387   1.693   2.536   3.657
  806SOL    HW2  388   1.717   2.379   3.620
  807SOL     OW  389   1.362   3.006   2.407
  807SOL    HW1  390   1.445   2.977   2.359
  807SOL    HW2  391   1.313   3.073   2.351
  809SOL     OW  392   1.008   3.318   2.339
  809SOL    HW1  393   0.962   3.390   2.287
  809SOL    HW2  394   1.004   3.338   2.437
  811SOL     OW  395   1.795   2.928   2.735
  811SOL    HW1  396   1.733   2.913   2.659
  811SOL    HW2  397   1.743   2.939   2.820
  814SOL     OW  398   1.458   2.597   2.590
  814SOL    HW1  399   1.453   2.532   2.665
  814SOL    HW2  400   1.538   2.656   2.603
  818SOL     OW  401   1.632   3.239   1.943
  818SOL    HW1  402   1.600   3.333   1.933
  818SOL    HW2  403   1.556   3.176   1.931
  820SOL     OW  404   1.400   1.969   2.288
  820SOL    HW1  405   1.376   1.932   2.198
  820SOL    HW2  406   1.499   1.985   2.292
  824SOL     OW  407   1.547   2.084   3.591
  824SOL    HW1  408   1.542   2.121   3.683
  824SOL    HW2  409   1.475   2.015   3.579
  828SOL     OW  410   1.351   2.452   3.295
  828SOL    HW1  411   1.379   2.409   3.380
  828SOL    HW2  412   1.376   2.548   3.296
  830SOL     OW  413   0.922   2.365   2.761
  830SOL    HW1  414   0.897   2.356   2.665
  830SOL    HW2  415   0.970   2.283   2.792
  832SOL     OW  416   1.434   3.050   1.903
  832SOL    HW1  417   1.466   2.974   1.960
  832SOL    HW2  418   1.342   3.077   1.933
  834SOL     OW  419   0.935   2.098   2.342
  834SOL    HW1  420   0.887   2.139   2.264
  834SOL    HW2  421   1.034   2.096   2.323
  835SOL     OW  422   1.076   2.545   3.326
  835SOL    HW1  423   0.996   2.484   3.329
  835SOL    HW2  424   1.157   2.492   3.302
  836SOL     OW  425   1.227   3.432   2.655
  836SOL    HW1  426   1.248   3.506   2.590
  836SOL    HW2  427   1.295   3.432   2.728
  838SOL     OW  428   1.271   3.659   2.453
  838SOL    HW1  429   1.315   3.723   2.389
  838SOL    HW2  430   1.221   3.711   2.523
  839SOL     OW  431   1.032   2.411   1.878
  839SOL    HW1  432   0.991   2.493   1.839
  839SOL    HW2  433   1.096   2.437   1.951
  842SOL     OW  434   0.866   2.316   2.504
  842SOL    HW1  435   0.834   2.388   2.442
  842SOL    HW2  436   0.890   2.235   2.451
  843SOL     OW  437   1.017   1.901   2.615
  843SOL    HW1  438   0.945   1.906   2.546
  843SOL    HW2  439   0.993   1.832   2.684
  844SOL     OW  440   1.429   3.035   2.729
  844SOL    HW1  441   1.374   2.951   2.722
  844SOL    HW2  442   1.455   3.064   2.637
  845SOL     OW  443   1.466   2.452   2.854
  845SOL    HW1  444   1.436   2.357   2.861
  845SOL    HW2  445   1.539   2.468   2.920
  846SOL     OW  446   1.857   2.695   2.239
  846SOL    HW1  447   1.899   2.631   2.303
  846SOL    HW2  448   1.819   2.644   2.161
  848SOL     OW  449   1.664   3.142   2.519
  848SOL    HW1  450   1.763   3.150   2.533
  848SOL    HW2  451   1.619   3.226   2.550
  849SOL     OW  452   1.390   2.437   1.940
  849SOL    HW1  453   1.336   2.416   2.021
  849SOL    HW2  454   1.481   2.396   1.949
  851SOL     OW  455   1.754   3.085   3.450
  851SOL    HW1  456   1.845   3.046   3.437
  851SOL    HW2  457   1.762   3.181   3.474
  852SOL     OW  458   1.064   3.209   3.202
  852SOL    HW1  459   0.984   3.186   3.257
  852SOL    HW2  460   1.147   3.183   3.251
  853SOL     OW  461   1.592   3.491   3.487
  853SOL    HW1  462   1.619   3.525   3.397
  853SOL    HW2  463   1.671   3.453   3.533
  854SOL     OW  464   1.111   3.057   2.962
  854SOL    HW1  465   1.071   3.101   3.043
  854SOL    HW2  466   1.070   3.094   2.879
  855SOL     OW  467   1.638   2.961   2.941
  855SOL    HW1  468   1.643   3.042   3.000
  855SOL    HW2  469   1.552   2.963   2.890
  856SOL     OW  470   0.915   1.951   3.264
  856SOL    HW1  471   0.940   1.931   3.169
  856SOL    HW2  472   0.987   2.007   3.306
  858SOL     OW  473   0.705   2.912   2.230
  858SOL    HW1  474   0.691   2.919   2.329
  858SOL    HW2  475   0.789   2.861   2.212
  860SOL     OW  476   1.274   2.248   3.124
  860SOL    HW1  477   1.295   2.322   3.188
  860SOL    HW2  478   1.185   2.265   3.081
  864SOL     OW  479   1.252   3.210   2.250
  864SOL    HW1  480   1.302   3.287   2.290
  864SOL    HW2  481   1.157   3.212   2.282
  865SOL     OW  482   1.272   3.307   3.004
  865SOL    HW1  483   1.319   3.320   3.091
  865SOL    HW2  484   1.206   3.233   3.013
  866SOL     OW  485   1.582   2.501   2.334
  866SOL    HW1  486   1.551   2.562   2.407
  866SOL    HW2  487   1.632   2.553   2.265
  869SOL     OW  488   1.587   2.641   3.532
  869SOL    HW1  489   1.495   2.679   3.527
  869SOL    HW2  490   1.647   2.688   3.467
  873SOL     OW  491   1.360   2.724   2.907
  873SOL    HW1  492   1.285   2.724   2.841
  873SOL    HW2  493   1.397   2.632   2.916
  874SOL     OW  494   1.209   2.387   2.137
  874SOL    HW1  495   1.222   2.303   2.191
  874SOL    HW2  496   1.180   2.461   2.197
  877SOL     OW  497   0.732   2.496   2.926
  877SOL    HW1  498   0.791   2.470   2.850
  877SOL    HW2  499   0.704   2.592   2.915
  878SOL     OW  500   1.728   2.797   3.716
  878SOL    HW1  501   1.682   2.790   3.627
  878SOL    HW2  502   1.666   2.841   3.782
  880SOL     OW  503   1.622   2.229   2.236
  880SOL    HW1  504   1.624   2.153   2.300
  880SOL    HW2  505   1.574   2.306   2.276
  881SOL     OW  506   1.023   2.628   2.828
  881SOL    HW1  507   1.038   2.649   2.924
  881SOL    HW2  508   0.993   2.533   2.819
  883SOL     OW  509   1.859   3.380   3.467
  883SOL    HW1  510   1.873   3.407   3.372
  883SOL    HW2  511   1.942   3.402   3.520
  885SOL     OW  512   1.540   2.136   1.987
  885SOL    HW1  513   1.479   2.061   2.010
  885SOL    HW2  514   1.562   2.188   2.070
  886SOL     OW  515   1.303   2.700   1.904
  886SOL    HW1  516   1.337   2.607   1.919
  886SOL    HW2  517   1.321   2.727   1.809
  887SOL     OW  518   1.068   3.195   2.711
  887SOL    HW1  519   1.075   3.111   2.656
  887SOL    HW2  520   1.130   3.264   2.675
  890SOL     OW  521   1.138   2.242   3.540
  890SOL    HW1  522   1.093   2.305   3.604
  890SOL    HW2  523   1.231   2.273   3.523
  891SOL     OW  524   1.160   2.069   3.339
  891SOL    HW1  525   1.160   2.133   3.416
  891SOL    HW2  526   1.188   2.117   3.256
  895SOL     OW  527   1.002   2.658   3.100
  895SOL    HW1  528   1.043   2.626   3.186
  895SOL    HW2  529   0.906   2.631   3.097
  898SOL     OW  530   1.369   2.812   3.522
  898SOL    HW1  531   1.408   2.901   3.542
  898SOL    HW2  532   1.379   2.792   3.425
  899SOL     OW  533   0.815   2.434   2.187
  899SOL    HW1  534   0.822   2.345   2.141
  899SOL    HW2  535   0.721   2.468   2.179
  900SOL     OW  536   1.657   2.466   3.068
  900SOL    HW1  537   1.619   2.397   3.130
  900SOL    HW2  538   1.739   2.430   3.024
  906SOL     OW  539   1.347   2.921   3.096
  906SOL    HW1  540   1.371   2.858   3.022
  906SOL    HW2  541   1.257   2.961   3.078
  907SOL     OW  542   1.302   2.717   2.171
  907SOL    HW1  543   1.216   2.686   2.213
  907SOL    HW2  544   1.298   2.703   2.072
  908SOL     OW  545   1.759   3.609   3.016
  908SOL    HW1  546   1.820   3.639   2.943
  908SOL    HW2  547   1.721   3.520   2.994
  909SOL     OW  548   1.252   3.593   2.990
  909SOL    HW1  549   1.336   3.598   2.936
  909SOL    HW2  550   1.229   3.497   3.008
  912SOL     OW  551   1.726   1.997   2.385
  912SOL    HW1  552   1.799   1.980   2.318
  912SOL    HW2  553   1.695   1.910   2.423
  913SOL     OW  554   1.388   3.435   2.339
  913SOL    HW1  555   1.455   3.447   2.265
  913SOL    HW2  556   1.348   3.524   2.362
  915SOL     OW  557   1.280   2.789   2.534
  915SOL    HW1  558   1.340   2.708   2.536
  915SOL    HW2  559   1.320   2.858   2.474
  918SOL     OW  560   1.650   3.582   3.256
  918SOL    HW1  561   1.703   3.592   3.172
  918SOL    HW2  562   1.623   3.672   3.290
  919SOL     OW  563   1.841   2.037   2.825
  919SOL    HW1  564   1.880   1.952   2.789
  919SOL    HW2  565   1.743   2.039   2.806
  921SOL     OW  566   1.194   3.474   1.893
  921SOL    HW1  567   1.200   3.381   1.930
  921SOL    HW2  568   1.135   3.474   1.813
  923SOL     OW  569   0.916   2.772   2.153
  923SOL    HW1  570   0.979   2.810   2.085
  923SOL    HW2  571   0.956   2.689   2.192
  924SOL     OW  572   1.504   3.469   1.906
  924SOL    HW1  573   1.412   3.506   1.913
  924SOL    HW2  574   1.542   3.489   1.816
  926SOL     OW  575   1.614   3.154   3.151
  926SOL    HW1  576   1.674   3.157   3.231
  926SOL    HW2  577   1.539   3.218   3.164
  927SOL     OW  578   1.039   2.960   2.558
  927SOL    HW1  579   0.969   2.913   2.612
  927SOL    HW2  580   1.098   2.892   2.515
  928SOL     OW  581   1.014   2.098   2.833
  928SOL    HW1  582   1.006   2.062   2.740
  928SOL    HW2  583   1.012   2.022   2.898
  930SOL     OW  584   1.709   2.247   3.243
  930SOL    HW1  585   1.782   2.316   3.247
  930SOL    HW2  586   1.737   2.172   3.184
  935SOL     OW  587   1.440   2.718   3.260
  935SOL    HW1  588   1.383   2.770   3.197
  935SOL    HW2  589   1.536   2.730   3.236
  937SOL     OW  590   1.183   3.197   1.981
  937SOL    HW1  591   1.084   3.186   1.983
  937SOL    HW2  592   1.217   3.212   2.074
  939SOL     OW  593   1.493   3.629   2.821
  939SOL    HW1  594   1.526   3.693   2.752
  939SOL    HW2  595   1.559   3.623   2.896
  941SOL     OW  596   1.450   3.082   3.495
  941SOL    HW1  597   1.441   3.072   3.594
  941SOL    HW2  598   1.546   3.075   3.469
  943SOL     OW  599   1.674   2.745   3.116
  943SOL    HW1  600   1.647   2.656   3.079
  943SOL    HW2  601   1.675   2.813   3.043
  944SOL     OW  602   1.225   2.187   2.311
  944SOL    HW1  603   1.290   2.113   2.300
  944SOL    HW2  604   1.245   2.237   2.395
  946SOL     OW  605   1.777   2.204   3.504
  946SOL    HW1  606   1.760   2.235   3.410
  946SOL    HW2  607   1.693   2.167   3.542
  947SOL     OW  608   1.730   2.796   3.379
  947SOL    HW1  609   1.768   2.887   3.394
  947SOL    HW2  610   1.722   2.779   3.280
  950SOL     OW  611   0.859   2.818   2.723
  950SOL    HW1  612   0.913   2.749   2.771
  950SOL    HW2  613   0.827   2.887   2.789
  951SOL     OW  614   1.083   2.846   1.949
  951SOL    HW1  615   1.060   2.899   1.867
  951SOL    HW2  616   1.164   2.790   1.930
  952SOL     OW  617   1.861   3.431   2.713
  952SOL    HW1  618   1.790   3.419   2.643
  952SOL    HW2  619   1.862   3.352   2.773
  956SOL     OW  620   1.824   2.054   3.089
  956SOL    HW1  621   1.820   1.964   3.133
  956SOL    HW2  622   1.827   2.043   2.990
  958SOL     OW  623   1.705   3.349   2.966
  958SOL    HW1  624   1.612   3.324   2.939
  958SOL    HW2  625   1.731   3.299   3.048
  961SOL     OW  626   1.424   2.076   2.974
  961SOL    HW1  627   1.476   2.011   3.029
  961SOL    HW2  628   1.375   2.139   3.035
  962SOL     OW  629   1.001   1.896   3.016
  962SOL    HW1  630   0.938   1.824   2.985
  962SOL    HW2  631   1.094   1.860   3.016
  965SOL     OW  632   1.352   1.914   2.030
  965SOL    HW1  633   1.387   1.873   1.946
  965SOL    HW2  634   1.262   1.876   2.050
  966SOL     OW  635   1.300   2.315   2.553
  966SOL    HW1  636   1.241   2.395   2.557
  966SOL    HW2  637   1.315   2.280   2.646
  967SOL     OW  638   1.593   2.083   2.744
  967SOL    HW1  639   1.509   2.082   2.798
  967SOL    HW2  640   1.595   2.166   2.688
  975SOL     OW  641   1.755   2.469   3.955
  975SOL    HW1  642   1.743   2.456   3.856
  975SOL    HW2  643   1.725   2.388   4.004
 1017SOL     OW  644   1.434   3.050   3.765
 1017SOL    HW1  645   1.466   2.974   3.822
 1017SOL    HW2  646   1.342   3.077   3.795
 1030SOL     OW  647   1.390   2.437   3.802
 1030SOL    HW1  648   1.336   2.416   3.883
 1030SOL    HW2  649   1.481   2.396   3.811
 1044SOL     OW  650   1.540   2.136   3.849
 1044SOL    HW1  651   1.479   2.061   3.872
 1044SOL    HW2  652   1.562   2.188   3.932
 1045SOL     OW  653   1.303   2.700   3.766
 1045SOL    HW1  654   1.337   2.607   3.781
 1045SOL    HW2  655   1.321   2.727   3.671
 1240SOL     OW  656   1.400   3.831   2.288
 1240SOL    HW1  657   1.376   3.794   2.198
 1240SOL    HW2  658   1.499   3.847   2.292
 1298SOL     OW  659   1.726   3.859   2.385
 1298SOL    HW1  660   1.799   3.842   2.318
 1298SOL    HW2  661   1.695   3.772   2.423
 1300SOL     OW  662   1.841   3.899   2.825
 1300SOL    HW1  663   1.880   3.814   2.789
 1300SOL    HW2  664   1.743   3.901   2.806
 1320SOL     OW  665   1.824   3.916   3.089
 1320SOL    HW1  666   1.820   3.826   3.133
 1320SOL    HW2  667   1.827   3.905   2.990
 1325SOL     OW  668   1.352   3.776   2.030
 1325SOL    HW1  669   1.387   3.735   1.946
 1325SOL    HW2  670   1.262   3.738   2.050
 1327SOL     OW  671   1.593   3.945   2.744
 1327SOL    HW1  672   1.509   3.944   2.798
 1327SOL    HW2  673   1.595   4.028   2.688
 1397SOL     OW  674   2.431   1.275   1.165
 1397SOL    HW1  675   2.338   1.268   1.128
 1397SOL    HW2  676   2.442   1.364   1.209
 1402SOL     OW  677   2.712   0.798   1.823
 1402SOL    HW1  678   2.708   0.874   1.888
 1402SOL    HW2  679   2.734   0.834   1.732
 1404SOL     OW  680   2.548   1.161   1.803
 1404SOL    HW1  681   2.608   1.240   1.817
 1404SOL    HW2  682   2.462   1.192   1.762
 1405SOL     OW  683   2.197   1.435   1.061
 1405SOL    HW1  684   2.119   1.404   1.008
 1405SOL    HW2  685   2.255   1.493   1.004
 1406SOL     OW  686   3.322   1.505   1.339
 1406SOL    HW1  687   3.346   1.599   1.365
 1406SOL    HW2  688   3.306   1.451   1.421
 1410SOL     OW  689   2.989   1.341   1.690
 1410SOL    HW1  690   3.036   1.341   1.778
 1410SOL    HW2  691   2.941   1.254   1.679
 1413SOL     OW  692   2.482   1.786   1.439
 1413SOL    HW1  693   2.390   1.769   1.474
 1413SOL    HW2  694   2.510   1.878   1.465
 1423SOL     OW  695   3.155   1.228   1.423
 1423SOL    HW1  696   3.192   1.155   1.365
 1423SOL    HW2  697   3.207   1.233   1.508
 1427SOL     OW  698   3.049   1.792   1.616
 1427SOL    HW1  699   3.073   1.852   1.540
 1427SOL    HW2  700   3.056   1.697   1.586
 1436SOL     OW  701   2.835   0.890   1.572
 1436SOL    HW1  702   2.881   0.806   1.543
 1436SOL    HW2  703   2.779   0.924   1.497
 1440SOL     OW  704   1.992   1.821   1.571
 1440SOL    HW1  705   1.982   1.806   1.670
 1440SOL    HW2  706   1.906   1.857   1.535
 1446SOL     OW  707   2.213   1.801   0.853
 1446SOL    HW1  708   2.263   1.715   0.859
 1446SOL    HW2  709   2.278   1.878   0.850
 1448SOL     OW  710   3.089   1.550   1.506
 1448SOL    HW1  711   3.095   1.473   1.570
 1448SOL    HW2  712   3.037   1.524   1.426
 1451SOL     OW  713   2.323   1.266   1.727
 1451SOL    HW1  714   2.273   1.267   1.641
 1451SOL    HW2  715   2.260   1.248   1.803
 1457SOL     OW  716   2.111   1.785   1.241
 1457SOL    HW1  717   2.168   1.720   1.291
 1457SOL    HW2  718   2.095   1.752   1.148
 1458SOL     OW  719   2.802   1.698   0.904
 1458SOL    HW1  720   2.882   1.641   0.925
 1458SOL    HW2  721   2.753   1.658   0.827
 1463SOL     OW  722   2.750   1.514   1.195
 1463SOL    HW1  723   2.727   1.489   1.101
 1463SOL    HW2  724   2.811   1.445   1.234
 1465SOL     OW  725   2.665   1.402   0.924
 1465SOL    HW1  726   2.755   1.416   0.882
 1465SOL    HW2  727   2.594   1.404   0.853
 1488SOL     OW  728   2.926   1.347   1.340
 1488SOL    HW1  729   2.846   1.324   1.395
 1488SOL    HW2  730   3.009   1.321   1.389
 1489SOL     OW  731   3.454   1.629   1.625
 1489SOL    HW1  732   3.481   1.663   1.535
 1489SOL    HW2  733   3.533   1.591   1.671
 1493SOL     OW  734   2.842   1.116   1.719
 1493SOL    HW1  735   2.743   1.122   1.729
 1493SOL    HW2  736   2.865   1.036   1.663
 1497SOL     OW  737   1.926   1.564   1.331
 1497SOL    HW1  738   1.880   1.646   1.297
 1497SOL    HW2  739   2.024   1.583   1.340
 1501SOL     OW  740   3.134   1.445   1.142
 1501SOL    HW1  741   3.181   1.458   1.229
 1501SOL    HW2  742   3.068   1.371   1.151
 1503SOL     OW  743   2.216   1.510   1.329
 1503SOL    HW1  744   2.195   1.466   1.242
 1503SOL    HW2  745   2.313   1.536   1.332
 1512SOL     OW  746   1.899   1.310   1.282
 1512SOL    HW1  747   1.952   1.261   1.350
 1512SOL    HW2  748   1.921   1.408   1.287
 1518SOL     OW  749   2.842   1.573   1.700
 1518SOL    HW1  750   2.822   1.617   1.612
 1518SOL    HW2  751   2.881   1.482   1.684
 1519SOL     OW  752   3.721   1.518   1.605
 1519SOL    HW1  753   3.735   1.545   1.510
 1519SOL    HW2  754   3.804   1.540   1.658
 1520SOL     OW  755   2.212   0.898   1.804
 1520SOL    HW1  756   2.288   0.942   1.852
 1520SOL    HW2  757   2.247   0.851   1.722
 1529SOL     OW  758   1.950   1.801   0.927
 1529SOL    HW1  759   1.908   1.715   0.900
 1529SOL    HW2  760   2.044   1.804   0.893
 1530SOL     OW  761   2.366   1.568   0.910
 1530SOL    HW1  762   2.432   1.642   0.919
 1530SOL    HW2  763   2.410   1.489   0.868
 1537SOL     OW  764   2.114   1.564   1.744
 1537SOL    HW1  765   2.084   1.621   1.820
 1537SOL    HW2  766   2.107   1.467   1.770
 1539SOL     OW  767   2.792   1.678   1.465
 1539SOL    HW1  768   2.768   1.660   1.370
 1539SOL    HW2  769   2.822   1.772   1.475
 1541SOL     OW  770   2.021   1.137   1.466
 1541SOL    HW1  771   2.043   1.076   1.542
 1541SOL    HW2  772   2.031   1.088   1.380
 1545SOL     OW  773   3.114   1.731   1.128
 1545SOL    HW1  774   3.198   1.736   1.074
 1545SOL    HW2  775   3.091   1.635   1.146
 1547SOL     OW  776   2.550   1.662   1.716
 1547SOL    HW1  777   2.494   1.743   1.725
 1547SOL    HW2  778   2.602   1.666   1.630
 1551SOL     OW  779   1.992   1.794   1.851
 1551SOL    HW1  780   1.951   1.720   1.904
 1551SOL    HW2  781   2.056   1.845   1.909
 1553SOL     OW  782   2.692   1.273   1.422
 1553SOL    HW1  783   2.687   1.306   1.517
 1553SOL    HW2  784   2.606   1.292   1.376
 1555SOL     OW  785   3.512   1.720   1.394
 1555SOL    HW1  786   3.565   1.730   1.310
 1555SOL    HW2  787   3.485   1.810   1.428
 1559SOL     OW  788   2.684   1.002   1.372
 1559SOL    HW1  789   2.724   1.001   1.280
 1559SOL    HW2  790   2.694   1.094   1.412
 1562SOL     OW  791   2.234   1.288   1.490
 1562SOL    HW1  792   2.221   1.381   1.456
 1562SOL    HW2  793   2.150   1.236   1.477
 1569SOL     OW  794   1.967   1.013   1.726
 1569SOL    HW1  795   1.890   0.980   1.780
 1569SOL    HW2  796   2.052   0.983   1.768
 1577SOL     OW  797   3.312   1.220   1.633
 1577SOL    HW1  798   3.303   1.210   1.732
 1577SOL    HW2  799   3.408   1.213   1.607
 1578SOL     OW  800   2.252   1.741   1.560
 1578SOL    HW1  801   2.161   1.782   1.558
 1578SOL    HW2  802   2.245   1.647   1.592
 1585SOL     OW  803   2.523   1.790   0.953
 1585SOL    HW1  804   2.477   1.878   0.940
 1585SOL    HW2  805   2.622   1.802   0.946
 1589SOL     OW  806   2.083   1.314   1.844
 1589SOL    HW1  807   2.018   1.241   1.823
 1589SOL    HW2  808   2.087   1.328   1.942
 1591SOL     OW  809   2.534   1.391   1.624
 1591SOL    HW1  810   2.456   1.341   1.662
 1591SOL    HW2  811   2.531   1.486   1.655
 1600SOL     OW  812   2.480   1.567   1.284
 1600SOL    HW1  813   2.475   1.649   1.341
 1600SOL    HW2  814   2.569   1.564   1.239
 1609SOL     OW  815   2.431   1.275   3.027
 1609SOL    HW1  816   2.338   1.268   2.990
 1609SOL    HW2  817   2.442   1.364   3.071
 1610SOL     OW  818   3.417   1.511   2.565
 1610SOL    HW1  819   3.360   1.495   2.646
 1610SOL    HW2  820   3.358   1.521   2.485
 1613SOL     OW  821   2.630   1.144   2.885
 1613SOL    HW1  822   2.552   1.161   2.945
 1613SOL    HW2  823   2.664   1.231   2.849
 1615SOL     OW  824   2.547   1.012   2.527
 1615SOL    HW1  825   2.616   0.996   2.597
 1615SOL    HW2  826   2.474   1.069   2.565
 1616SOL     OW  827   2.548   1.161   3.665
 1616SOL    HW1  828   2.608   1.240   3.679
 1616SOL    HW2  829   2.462   1.192   3.624
 1617SOL     OW  830   2.197   1.435   2.923
 1617SOL    HW1  831   2.119   1.404   2.870
 1617SOL    HW2  832   2.255   1.493   2.866
 1618SOL     OW  833   3.322   1.505   3.201
 1618SOL    HW1  834   3.346   1.599   3.227
 1618SOL    HW2  835   3.306   1.451   3.283
 1621SOL     OW  836   2.093   1.713   2.345
 1621SOL    HW1  837   2.127   1.790   2.399
 1621SOL    HW2  838   2.137   1.713   2.255
 1622SOL     OW  839   2.989   1.341   3.552
 1622SOL    HW1  840   3.036   1.341   3.640
 1622SOL    HW2  841   2.941   1.254   3.541
 1623SOL     OW  842   2.092   1.434   2.400
 1623SOL    HW1  843   2.066   1.530   2.400
 1623SOL    HW2  844   2.021   1.380   2.445
 1624SOL     OW  845   2.102   1.091   2.748
 1624SOL    HW1  846   2.116   1.007   2.800
 1624SOL    HW2  847   2.047   1.155   2.803
 1625SOL     OW  848   2.482   1.786   3.301
 1625SOL    HW1  849   2.390   1.769   3.336
 1625SOL    HW2  850   2.510   1.878   3.327
 1626SOL     OW  851   2.468   0.964   1.985
 1626SOL    HW1  852   2.475   1.048   1.931
 1626SOL    HW2  853   2.514   0.977   2.073
 1628SOL     OW  854   1.984   0.643   2.425
 1628SOL    HW1  855   1.939   0.555   2.442
 1628SOL    HW2  856   1.983   0.697   2.509
 1629SOL     OW  857   3.704   1.767   2.221
 1629SOL    HW1  858   3.758   1.738   2.301
 1629SOL    HW2  859   3.734   1.857   2.192
 1630SOL     OW  860   1.889   1.596   1.979
 1630SOL    HW1  861   1.870   1.500   2.000
 1630SOL    HW2  862   1.856   1.654   2.054
 1632SOL     OW  863   3.503   1.108   2.294
 1632SOL    HW1  864   3.589   1.110   2.242
 1632SOL    HW2  865   3.517   1.155   2.382
 1634SOL     OW  866   2.475   1.365   2.588
 1634SOL    HW1  867   2.426   1.278   2.597
 1634SOL    HW2  868   2.452   1.408   2.501
 1635SOL     OW  869   3.155   1.228   3.285
 1635SOL    HW1  870   3.192   1.155   3.227
 1635SOL    HW2  871   3.207   1.233   3.370
 1637SOL     OW  872   2.059   0.976   3.126
 1637SOL    HW1  873   2.148   0.931   3.112
 1637SOL    HW2  874   1.986   0.911   3.107
 1638SOL     OW  875   3.387   0.999   2.052
 1638SOL    HW1  876   3.324   0.923   2.065
 1638SOL    HW2  877   3.435   1.017   2.138
 1639SOL     OW  878   3.049   1.792   3.478
 1639SOL    HW1  879   3.073   1.852   3.402
 1639SOL    HW2  880   3.056   1.697   3.448
 1641SOL     OW  881   3.328   1.417   2.815
 1641SOL    HW1  882   3.269   1.423   2.895
 1641SOL    HW2  883   3.313   1.329   2.769
 1642SOL     OW  884   3.529   1.714   2.434
 1642SOL    HW1  885   3.488   1.691   2.346
 1642SOL    HW2  886   3.511   1.640   2.499
 1643SOL     OW  887   2.460   0.729   2.132
 1643SOL    HW1  888   2.484   0.798   2.064
 1643SOL    HW2  889   2.382   0.762   2.186
 1645SOL     OW  890   3.438   1.662   2.169
 1645SOL    HW1  891   3.527   1.708   2.172
 1645SOL    HW2  892   3.417   1.638   2.074
 1650SOL     OW  893   2.903   0.701   2.291
 1650SOL    HW1  894   2.929   0.697   2.387
 1650SOL    HW2  895   2.818   0.650   2.277
 1651SOL     OW  896   1.938   0.811   2.651
 1651SOL    HW1  897   2.037   0.799   2.660
 1651SOL    HW2  898   1.914   0.906   2.672
 1652SOL     OW  899   1.992   1.821   3.433
 1652SOL    HW1  900   1.982   1.806   3.532
 1652SOL    HW2  901   1.906   1.857   3.397
 1655SOL     OW  902   3.224   1.144   2.407
 1655SOL    HW1  903   3.307   1.115   2.359
 1655SOL    HW2  904   3.175   1.211   2.351
 1657SOL     OW  905   2.870   1.456   2.339
 1657SOL    HW1  906   2.824   1.528   2.287
 1657SOL    HW2  907   2.866   1.476   2.437
 1658SOL     OW  908   2.213   1.801   2.715
 1658SOL    HW1  909   2.263   1.715   2.721
 1658SOL    HW2  910   2.278   1.878   2.712
 1660SOL     OW  911   3.089   1.550   3.368
 1660SOL    HW1  912   3.095   1.473   3.432
 1660SOL    HW2  913   3.037   1.524   3.288
 1661SOL     OW  914   2.183   0.943   2.104
 1661SOL    HW1  915   2.265   0.982   2.062
 1661SOL    HW2  916   2.156   0.861   2.055
 1663SOL     OW  917   2.323   1.266   3.589
 1663SOL    HW1  918   2.273   1.267   3.503
 1663SOL    HW2  919   2.260   1.248   3.665
 1664SOL     OW  920   2.973   1.776   2.099
 1664SOL    HW1  921   2.913   1.714   2.149
 1664SOL    HW2  922   3.004   1.732   2.014
 1666SOL     OW  923   3.494   1.377   1.943
 1666SOL    HW1  924   3.462   1.471   1.933
 1666SOL    HW2  925   3.418   1.314   1.931
 1667SOL     OW  926   2.326   1.743   2.185
 1667SOL    HW1  927   2.359   1.782   2.271
 1667SOL    HW2  928   2.402   1.736   2.120
 1669SOL     OW  929   2.111   1.785   3.103
 1669SOL    HW1  930   2.168   1.720   3.153
 1669SOL    HW2  931   2.095   1.752   3.010
 1670SOL     OW  932   2.802   1.698   2.766
 1670SOL    HW1  933   2.882   1.641   2.787
 1670SOL    HW2  934   2.753   1.658   2.689
 1671SOL     OW  935   2.244   0.700   2.342
 1671SOL    HW1  936   2.289   0.610   2.339
 1671SOL    HW2  937   2.150   0.689   2.375
 1675SOL     OW  938   2.750   1.514   3.057
 1675SOL    HW1  939   2.727   1.489   2.963
 1675SOL    HW2  940   2.811   1.445   3.096
 1677SOL     OW  941   2.665   1.402   2.786
 1677SOL    HW1  942   2.755   1.416   2.744
 1677SOL    HW2  943   2.594   1.404   2.715
 1680SOL     OW  944   3.296   1.188   1.903
 1680SOL    HW1  945   3.328   1.112   1.960
 1680SOL    HW2  946   3.204   1.215   1.933
 1684SOL     OW  947   3.089   1.570   2.655
 1684SOL    HW1  948   3.110   1.644   2.590
 1684SOL    HW2  949   3.157   1.570   2.728
 1685SOL     OW  950   2.321   1.152   2.603
 1685SOL    HW1  951   2.250   1.125   2.668
 1685SOL    HW2  952   2.295   1.124   2.510
 1686SOL     OW  953   3.133   1.797   2.453
 1686SOL    HW1  954   3.177   1.861   2.389
 1686SOL    HW2  955   3.083   1.849   2.523
 1692SOL     OW  956   3.291   1.173   2.729
 1692SOL    HW1  957   3.236   1.089   2.722
 1692SOL    HW2  958   3.317   1.202   2.637
 1695SOL     OW  959   2.350   1.385   2.036
 1695SOL    HW1  960   2.263   1.370   2.083
 1695SOL    HW2  961   2.333   1.411   1.941
 1696SOL     OW  962   3.526   1.280   2.519
 1696SOL    HW1  963   3.625   1.288   2.533
 1696SOL    HW2  964   3.481   1.364   2.550
 1700SOL     OW  965   2.926   1.347   3.202
 1700SOL    HW1  966   2.846   1.324   3.257
 1700SOL    HW2  967   3.009   1.321   3.251
 1701SOL     OW  968   3.454   1.629   3.487
 1701SOL    HW1  969   3.481   1.663   3.397
 1701SOL    HW2  970   3.533   1.591   3.533
 1702SOL     OW  971   2.973   1.195   2.962
 1702SOL    HW1  972   2.933   1.239   3.043
 1702SOL    HW2  973   2.932   1.232   2.879
 1703SOL     OW  974   3.500   1.099   2.941
 1703SOL    HW1  975   3.505   1.180   3.000
 1703SOL    HW2  976   3.414   1.101   2.890
 1706SOL     OW  977   2.567   1.050   2.230
 1706SOL    HW1  978   2.553   1.057   2.329
 1706SOL    HW2  979   2.651   0.999   2.212
 1707SOL     OW  980   2.272   0.813   3.113
 1707SOL    HW1  981   2.358   0.825   3.163
 1707SOL    HW2  982   2.230   0.726   3.140
 1709SOL     OW  983   1.926   1.564   3.193
 1709SOL    HW1  984   1.880   1.646   3.159
 1709SOL    HW2  985   2.024   1.583   3.202
 1710SOL     OW  986   2.229   1.100   2.363
 1710SOL    HW1  987   2.222   1.183   2.307
 1710SOL    HW2  988   2.233   1.020   2.303
 1712SOL     OW  989   3.114   1.348   2.250
 1712SOL    HW1  990   3.164   1.425   2.290
 1712SOL    HW2  991   3.019   1.350   2.282
 1713SOL     OW  992   3.134   1.445   3.004
 1713SOL    HW1  993   3.181   1.458   3.091
 1713SOL    HW2  994   3.068   1.371   3.013
 1715SOL     OW  995   2.216   1.510   3.191
 1715SOL    HW1  996   2.195   1.466   3.104
 1715SOL    HW2  997   2.313   1.536   3.194
 1720SOL     OW  998   2.435   0.870   2.891
 1720SOL    HW1  999   2.479   0.959   2.882
 1720SOL    HW2 1000   2.372   0.870   2.968
 1724SOL     OW 1001   1.899   1.310   3.144
 1724SOL    HW1 1002   1.952   1.261   3.212
 1724SOL    HW2 1003   1.921   1.408   3.149
 1729SOL     OW 1004   2.885   0.766   2.828
 1729SOL    HW1 1005   2.900   0.787   2.924
 1729SOL    HW2 1006   2.855   0.671   2.819
 1730SOL     OW 1007   2.842   1.573   3.562
 1730SOL    HW1 1008   2.822   1.617   3.474
 1730SOL    HW2 1009   2.881   1.482   3.546
 1735SOL     OW 1010   2.930   1.333   2.711
 1735SOL    HW1 1011   2.937   1.249   2.656
 1735SOL    HW2 1012   2.992   1.402   2.675
 1736SOL     OW 1013   2.181   0.810   2.811
 1736SOL    HW1 1014   2.274   0.846   2.816
 1736SOL    HW2 1015   2.175   0.725   2.863
 1740SOL     OW 1016   1.870   1.326   2.062
 1740SOL    HW1 1017   1.777   1.347   2.031
 1740SOL    HW2 1018   1.880   1.227   2.075
 1741SOL     OW 1019   1.950   1.801   2.789
 1741SOL    HW1 1020   1.908   1.715   2.762
 1741SOL    HW2 1021   2.044   1.804   2.755
 1742SOL     OW 1022   2.366   1.568   2.772
 1742SOL    HW1 1023   2.432   1.642   2.781
 1742SOL    HW2 1024   2.410   1.489   2.730
 1749SOL     OW 1025   2.114   1.564   3.606
 1749SOL    HW1 1026   2.084   1.621   3.682
 1749SOL    HW2 1027   2.107   1.467   3.632
 1751SOL     OW 1028   2.792   1.678   3.327
 1751SOL    HW1 1029   2.768   1.660   3.232
 1751SOL    HW2 1030   2.822   1.772   3.337
 1753SOL     OW 1031   2.021   1.137   3.328
 1753SOL    HW1 1032   2.043   1.076   3.404
 1753SOL    HW2 1033   2.031   1.088   3.242
 1754SOL     OW 1034   3.209   1.059   3.096
 1754SOL    HW1 1035   3.233   0.996   3.022
 1754SOL    HW2 1036   3.119   1.099   3.078
 1755SOL     OW 1037   3.164   0.855   2.171
 1755SOL    HW1 1038   3.078   0.824   2.213
 1755SOL    HW2 1039   3.160   0.841   2.072
 1756SOL     OW 1040   3.621   1.747   3.016
 1756SOL    HW1 1041   3.682   1.777   2.943
 1756SOL    HW2 1042   3.583   1.658   2.994
 1757SOL     OW 1043   3.114   1.731   2.990
 1757SOL    HW1 1044   3.198   1.736   2.936
 1757SOL    HW2 1045   3.091   1.635   3.008
 1758SOL     OW 1046   1.945   1.258   2.884
 1758SOL    HW1 1047   1.940   1.257   2.984
 1758SOL    HW2 1048   1.862   1.217   2.846
 1759SOL     OW 1049   2.550   1.662   3.578
 1759SOL    HW1 1050   2.494   1.743   3.587
 1759SOL    HW2 1051   2.602   1.666   3.492
 1761SOL     OW 1052   3.250   1.573   2.339
 1761SOL    HW1 1053   3.317   1.585   2.265
 1761SOL    HW2 1054   3.210   1.662   2.362
 1762SOL     OW 1055   1.992   1.794   3.713
 1762SOL    HW1 1056   1.951   1.720   3.766
 1762SOL    HW2 1057   2.056   1.845   3.771
 1763SOL     OW 1058   3.142   0.927   2.534
 1763SOL    HW1 1059   3.202   0.846   2.536
 1763SOL    HW2 1060   3.182   0.996   2.474
 1764SOL     OW 1061   2.692   1.273   3.284
 1764SOL    HW1 1062   2.687   1.306   3.379
 1764SOL    HW2 1063   2.606   1.292   3.238
 1765SOL     OW 1064   2.534   1.616   2.016
 1765SOL    HW1 1065   2.543   1.626   1.917
 1765SOL    HW2 1066   2.494   1.527   2.037
 1766SOL     OW 1067   3.512   1.720   3.256
 1766SOL    HW1 1068   3.565   1.730   3.172
 1766SOL    HW2 1069   3.485   1.810   3.290
 1769SOL     OW 1070   3.056   1.612   1.893
 1769SOL    HW1 1071   3.062   1.519   1.930
 1769SOL    HW2 1072   2.997   1.612   1.813
 1770SOL     OW 1073   2.684   1.002   3.234
 1770SOL    HW1 1074   2.724   1.001   3.142
 1770SOL    HW2 1075   2.694   1.094   3.274
 1771SOL     OW 1076   2.778   0.910   2.153
 1771SOL    HW1 1077   2.841   0.948   2.085
 1771SOL    HW2 1078   2.818   0.827   2.192
 1772SOL     OW 1079   3.366   1.607   1.906
 1772SOL    HW1 1080   3.274   1.644   1.913
 1772SOL    HW2 1081   3.404   1.627   1.816
 1773SOL     OW 1082   2.234   1.288   3.352
 1773SOL    HW1 1083   2.221   1.381   3.318
 1773SOL    HW2 1084   2.150   1.236   3.339
 1774SOL     OW 1085   3.476   1.292   3.151
 1774SOL    HW1 1086   3.536   1.295   3.231
 1774SOL    HW2 1087   3.401   1.356   3.164
 1775SOL     OW 1088   2.901   1.098   2.558
 1775SOL    HW1 1089   2.831   1.051   2.612
 1775SOL    HW2 1090   2.960   1.030   2.515
 1777SOL     OW 1091   2.452   1.487   2.353
 1777SOL    HW1 1092   2.494   1.429   2.283
 1777SOL    HW2 1093   2.408   1.566   2.309
 1779SOL     OW 1094   2.117   1.348   2.152
 1779SOL    HW1 1095   2.021   1.349   2.125
 1779SOL    HW2 1096   2.129   1.401   2.236
 1785SOL     OW 1097   3.045   1.335   1.981
 1785SOL    HW1 1098   2.946   1.324   1.983
 1785SOL    HW2 1099   3.079   1.350   2.074
 1786SOL     OW 1100   2.475   0.842   3.293
 1786SOL    HW1 1101   2.531   0.923   3.276
 1786SOL    HW2 1102   2.534   0.762   3.296
 1787SOL     OW 1103   3.355   1.767   2.821
 1787SOL    HW1 1104   3.388   1.831   2.752
 1787SOL    HW2 1105   3.421   1.761   2.896
 1790SOL     OW 1106   2.252   1.741   3.422
 1790SOL    HW1 1107   2.161   1.782   3.420
 1790SOL    HW2 1108   2.245   1.647   3.454
 1793SOL     OW 1109   2.456   0.745   2.514
 1793SOL    HW1 1110   2.506   0.830   2.495
 1793SOL    HW2 1111   2.368   0.747   2.466
 1796SOL     OW 1112   2.721   1.374   1.878
 1796SOL    HW1 1113   2.675   1.389   1.966
 1796SOL    HW2 1114   2.765   1.459   1.848
 1797SOL     OW 1115   2.523   1.790   2.815
 1797SOL    HW1 1116   2.477   1.878   2.802
 1797SOL    HW2 1117   2.622   1.802   2.808
 1798SOL     OW 1118   2.721   0.956   2.723
 1798SOL    HW1 1119   2.775   0.887   2.771
 1798SOL    HW2 1120   2.689   1.025   2.789
 1799SOL     OW 1121   2.945   0.984   1.949
 1799SOL    HW1 1122   2.922   1.037   1.867
 1799SOL    HW2 1123   3.026   0.928   1.930
 1800SOL     OW 1124   3.723   1.569   2.713
 1800SOL    HW1 1125   3.652   1.557   2.643
 1800SOL    HW2 1126   3.724   1.490   2.773
 1801SOL     OW 1127   2.083   1.314   3.706
 1801SOL    HW1 1128   2.018   1.241   3.685
 1801SOL    HW2 1129   2.087   1.328   3.804
 1802SOL     OW 1130   1.941   1.240   2.515
 1802SOL    HW1 1131   1.940   1.193   2.603
 1802SOL    HW2 1132   2.023   1.212   2.464
 1803SOL     OW 1133   2.534   1.391   3.486
 1803SOL    HW1 1134   2.456   1.341   3.524
 1803SOL    HW2 1135   2.531   1.486   3.517
 1806SOL     OW 1136   3.567   1.487   2.966
 1806SOL    HW1 1137   3.474   1.462   2.939
 1806SOL    HW2 1138   3.593   1.437   3.048
 1808SOL     OW 1139   2.674   1.586   2.549
 1808SOL    HW1 1140   2.706   1.596   2.455
 1808SOL    HW2 1141   2.595   1.524   2.551
 1811SOL     OW 1142   2.632   1.330   2.163
 1811SOL    HW1 1143   2.586   1.243   2.180
 1811SOL    HW2 1144   2.723   1.327   2.204
 1812SOL     OW 1145   2.480   1.567   3.146
 1812SOL    HW1 1146   2.475   1.649   3.203
 1812SOL    HW2 1147   2.569   1.564   3.101
 1816SOL     OW 1148   1.901   1.077   2.162
 1816SOL    HW1 1149   2.000   1.066   2.153
 1816SOL    HW2 1150   1.861   0.991   2.194
 1817SOL     OW 1151   2.737   1.646   2.199
 1817SOL    HW1 1152   2.660   1.611   2.145
 1817SOL    HW2 1153   2.705   1.717   2.261
 1834SOL     OW 1154   1.889   1.596   3.841
 1834SOL    HW1 1155   1.870   1.500   3.862
 1834SOL    HW2 1156   1.856   1.654   3.916
 1855SOL     OW 1157   2.973   1.776   3.961
 1855SOL    HW1 1158   2.913   1.714   4.011
 1855SOL    HW2 1159   3.004   1.732   3.876
 1857SOL     OW 1160   2.326   1.743   4.047
 1857SOL    HW1 1161   2.359   1.782   4.133
 1857SOL    HW2 1162   2.402   1.736   3.982
 1907SOL     OW 1163   2.534   1.616   3.878
 1907SOL    HW1 1164   2.543   1.626   3.779
 1907SOL    HW2 1165   2.494   1.527   3.899
 1910SOL     OW 1166   3.056   1.612   3.755
 1910SOL    HW1 1167   3.062   1.519   3.792
 1910SOL    HW2 1168   2.997   1.612   3.675
 1922SOL     OW 1169   2.721   1.374   3.740
 1922SOL    HW1 1170   2.675   1.389   3.828
 1922SOL    HW2 1171   2.765   1.459   3.710
 1938SOL     OW 1172   2.087   2.137   0.996
 1938SOL    HW1 1173   2.122   2.120   1.088
 1938SOL    HW2 1174   1.999   2.092   0.984
 1940SOL     OW 1175   2.431   3.137   1.165
 1940SOL    HW1 1176   2.338   3.130   1.128
 1940SOL    HW2 1177   2.442   3.226   1.209
 1942SOL     OW 1178   2.997   2.565   0.717
 1942SOL    HW1 1179   3.054   2.643   0.692
 1942SOL    HW2 1180   2.937   2.591   0.793
 1944SOL     OW 1181   2.630   3.006   1.023
 1944SOL    HW1 1182   2.552   3.023   1.083
 1944SOL    HW2 1183   2.664   3.093   0.987
 1945SOL     OW 1184   2.712   2.660   1.823
 1945SOL    HW1 1185   2.708   2.736   1.888
 1945SOL    HW2 1186   2.734   2.696   1.732
 1947SOL     OW 1187   2.548   3.023   1.803
 1947SOL    HW1 1188   2.608   3.102   1.817
 1947SOL    HW2 1189   2.462   3.054   1.762
 1948SOL     OW 1190   2.197   3.297   1.061
 1948SOL    HW1 1191   2.119   3.266   1.008
 1948SOL    HW2 1192   2.255   3.355   1.004
 1949SOL     OW 1193   3.322   3.367   1.339
 1949SOL    HW1 1194   3.346   3.461   1.365
 1949SOL    HW2 1195   3.306   3.313   1.421
 1950SOL     OW 1196   2.300   2.254   1.499
 1950SOL    HW1 1197   2.382   2.198   1.508
 1950SOL    HW2 1198   2.219   2.196   1.503
 1953SOL     OW 1199   2.989   3.203   1.690
 1953SOL    HW1 1200   3.036   3.203   1.778
 1953SOL    HW2 1201   2.941   3.116   1.679
 1955SOL     OW 1202   2.102   2.953   0.886
 1955SOL    HW1 1203   2.116   2.869   0.938
 1955SOL    HW2 1204   2.047   3.017   0.941
 1956SOL     OW 1205   2.482   3.648   1.439
 1956SOL    HW1 1206   2.390   3.631   1.474
 1956SOL    HW2 1207   2.510   3.740   1.465
 1958SOL     OW 1208   3.456   1.976   1.480
 1958SOL    HW1 1209   3.438   2.043   1.408
 1958SOL    HW2 1210   3.453   2.022   1.569
 1964SOL     OW 1211   1.975   2.599   1.597
 1964SOL    HW1 1212   2.063   2.586   1.642
 1964SOL    HW2 1213   1.962   2.696   1.575
 1966SOL     OW 1214   3.155   3.090   1.423
 1966SOL    HW1 1215   3.192   3.017   1.365
 1966SOL    HW2 1216   3.207   3.095   1.508
 1968SOL     OW 1217   2.059   2.838   1.264
 1968SOL    HW1 1218   2.148   2.793   1.250
 1968SOL    HW2 1219   1.986   2.773   1.245
 1970SOL     OW 1220   3.049   3.654   1.616
 1970SOL    HW1 1221   3.073   3.714   1.540
 1970SOL    HW2 1222   3.056   3.559   1.586
 1971SOL     OW 1223   2.179   2.113   1.801
 1971SOL    HW1 1224   2.250   2.184   1.807
 1971SOL    HW2 1225   2.091   2.152   1.829
 1975SOL     OW 1226   3.143   2.207   0.944
 1975SOL    HW1 1227   3.057   2.157   0.931
 1975SOL    HW2 1228   3.205   2.153   1.000
 1977SOL     OW 1229   2.669   2.467   1.465
 1977SOL    HW1 1230   2.622   2.464   1.554
 1977SOL    HW2 1231   2.618   2.412   1.399
 1978SOL     OW 1232   3.256   2.331   1.674
 1978SOL    HW1 1233   3.236   2.374   1.762
 1978SOL    HW2 1234   3.334   2.269   1.683
 1979SOL     OW 1235   2.835   2.752   1.572
 1979SOL    HW1 1236   2.881   2.668   1.543
 1979SOL    HW2 1237   2.779   2.786   1.497
 1980SOL     OW 1238   2.853   2.272   1.242
 1980SOL    HW1 1239   2.776   2.306   1.296
 1980SOL    HW2 1240   2.819   2.221   1.163
 1982SOL     OW 1241   1.938   2.673   0.789
 1982SOL    HW1 1242   2.037   2.661   0.798
 1982SOL    HW2 1243   1.914   2.768   0.810
 1983SOL     OW 1244   1.992   3.683   1.571
 1983SOL    HW1 1245   1.982   3.668   1.670
 1983SOL    HW2 1246   1.906   3.719   1.535
 1985SOL     OW 1247   3.581   2.447   1.831
 1985SOL    HW1 1248   3.555   2.536   1.795
 1985SOL    HW2 1249   3.579   2.379   1.758
 1987SOL     OW 1250   2.412   2.058   0.885
 1987SOL    HW1 1251   2.407   2.053   0.985
 1987SOL    HW2 1252   2.414   2.154   0.856
 1991SOL     OW 1253   3.089   3.412   1.506
 1991SOL    HW1 1254   3.095   3.335   1.570
 1991SOL    HW2 1255   3.037   3.386   1.426
 1994SOL     OW 1256   2.323   3.128   1.727
 1994SOL    HW1 1257   2.273   3.129   1.641
 1994SOL    HW2 1258   2.260   3.110   1.803
 1996SOL     OW 1259   2.064   2.147   1.498
 1996SOL    HW1 1260   1.984   2.207   1.485
 1996SOL    HW2 1261   2.054   2.098   1.584
 2000SOL     OW 1262   2.111   3.647   1.241
 2000SOL    HW1 1263   2.168   3.582   1.291
 2000SOL    HW2 1264   2.095   3.614   1.148
 2003SOL     OW 1265   3.409   2.084   1.729
 2003SOL    HW1 1266   3.404   2.121   1.821
 2003SOL    HW2 1267   3.337   2.015   1.717
 2005SOL     OW 1268   2.643   2.126   1.749
 2005SOL    HW1 1269   2.710   2.065   1.792
 2005SOL    HW2 1270   2.570   2.145   1.814
 2006SOL     OW 1271   2.750   3.376   1.195
 2006SOL    HW1 1272   2.727   3.351   1.101
 2006SOL    HW2 1273   2.811   3.307   1.234
 2007SOL     OW 1274   3.213   2.452   1.433
 2007SOL    HW1 1275   3.241   2.409   1.518
 2007SOL    HW2 1276   3.238   2.548   1.434
 2008SOL     OW 1277   2.665   3.264   0.924
 2008SOL    HW1 1278   2.755   3.278   0.882
 2008SOL    HW2 1279   2.594   3.266   0.853
 2009SOL     OW 1280   2.784   2.365   0.899
 2009SOL    HW1 1281   2.759   2.356   0.803
 2009SOL    HW2 1282   2.832   2.283   0.930
 2013SOL     OW 1283   2.938   2.545   1.464
 2013SOL    HW1 1284   2.858   2.484   1.467
 2013SOL    HW2 1285   3.019   2.492   1.440
 2015SOL     OW 1286   2.321   3.014   0.741
 2015SOL    HW1 1287   2.250   2.987   0.806
 2015SOL    HW2 1288   2.295   2.986   0.648
 2018SOL     OW 1289   1.940   2.418   1.386
 2018SOL    HW1 1290   2.032   2.417   1.345
 2018SOL    HW2 1291   1.934   2.492   1.453
 2019SOL     OW 1292   2.423   2.084   1.147
 2019SOL    HW1 1293   2.461   2.000   1.184
 2019SOL    HW2 1294   2.335   2.103   1.191
 2020SOL     OW 1295   2.728   2.316   0.642
 2020SOL    HW1 1296   2.696   2.388   0.580
 2020SOL    HW2 1297   2.752   2.235   0.589
 2021SOL     OW 1298   2.879   1.901   0.753
 2021SOL    HW1 1299   2.807   1.906   0.684
 2021SOL    HW2 1300   2.855   1.832   0.822
 2023SOL     OW 1301   3.328   2.452   0.992
 2023SOL    HW1 1302   3.298   2.357   0.999
 2023SOL    HW2 1303   3.401   2.468   1.058
 2029SOL     OW 1304   3.616   3.085   1.588
 2029SOL    HW1 1305   3.707   3.046   1.575
 2029SOL    HW2 1306   3.624   3.181   1.612
 2030SOL     OW 1307   2.926   3.209   1.340
 2030SOL    HW1 1308   2.846   3.186   1.395
 2030SOL    HW2 1309   3.009   3.183   1.389
 2031SOL     OW 1310   3.454   3.491   1.625
 2031SOL    HW1 1311   3.481   3.525   1.535
 2031SOL    HW2 1312   3.533   3.453   1.671
 2032SOL     OW 1313   2.973   3.057   1.100
 2032SOL    HW1 1314   2.933   3.101   1.181
 2032SOL    HW2 1315   2.932   3.094   1.017
 2034SOL     OW 1316   2.777   1.951   1.402
 2034SOL    HW1 1317   2.802   1.931   1.307
 2034SOL    HW2 1318   2.849   2.007   1.444
 2035SOL     OW 1319   2.842   2.978   1.719
 2035SOL    HW1 1320   2.743   2.984   1.729
 2035SOL    HW2 1321   2.865   2.898   1.663
 2037SOL     OW 1322   2.272   2.675   1.251
 2037SOL    HW1 1323   2.358   2.687   1.301
 2037SOL    HW2 1324   2.230   2.588   1.278
 2038SOL     OW 1325   3.136   2.248   1.262
 2038SOL    HW1 1326   3.157   2.322   1.326
 2038SOL    HW2 1327   3.047   2.265   1.219
 2039SOL     OW 1328   1.926   3.426   1.331
 2039SOL    HW1 1329   1.880   3.508   1.297
 2039SOL    HW2 1330   2.024   3.445   1.340
 2041SOL     OW 1331   2.428   2.399   0.865
 2041SOL    HW1 1332   2.440   2.465   0.791
 2041SOL    HW2 1333   2.474   2.433   0.948
 2043SOL     OW 1334   3.134   3.307   1.142
 2043SOL    HW1 1335   3.181   3.320   1.229
 2043SOL    HW2 1336   3.068   3.233   1.151
 2045SOL     OW 1337   2.216   3.372   1.329
 2045SOL    HW1 1338   2.195   3.328   1.242
 2045SOL    HW2 1339   2.313   3.398   1.332
 2046SOL     OW 1340   2.264   2.613   1.598
 2046SOL    HW1 1341   2.332   2.668   1.551
 2046SOL    HW2 1342   2.304   2.525   1.625
 2047SOL     OW 1343   3.449   2.641   1.670
 2047SOL    HW1 1344   3.357   2.679   1.665
 2047SOL    HW2 1345   3.509   2.688   1.605
 2048SOL     OW 1346   2.875   1.967   1.770
 2048SOL    HW1 1347   2.881   2.052   1.718
 2048SOL    HW2 1348   2.907   1.891   1.713
 2049SOL     OW 1349   2.366   1.912   1.740
 2049SOL    HW1 1350   2.324   1.855   1.670
 2049SOL    HW2 1351   2.300   1.981   1.772
 2050SOL     OW 1352   2.435   2.732   1.029
 2050SOL    HW1 1353   2.479   2.821   1.020
 2050SOL    HW2 1354   2.372   2.732   1.106
 2051SOL     OW 1355   3.222   2.724   1.045
 2051SOL    HW1 1356   3.147   2.724   0.979
 2051SOL    HW2 1357   3.259   2.632   1.054
 2053SOL     OW 1358   2.169   2.075   1.231
 2053SOL    HW1 1359   2.146   2.112   1.321
 2053SOL    HW2 1360   2.139   1.980   1.225
 2054SOL     OW 1361   1.899   3.172   1.282
 2054SOL    HW1 1362   1.952   3.123   1.350
 2054SOL    HW2 1363   1.921   3.270   1.287
 2055SOL     OW 1364   2.594   2.496   1.064
 2055SOL    HW1 1365   2.653   2.470   0.988
 2055SOL    HW2 1366   2.566   2.592   1.053
 2056SOL     OW 1367   3.590   2.797   1.854
 2056SOL    HW1 1368   3.544   2.790   1.765
 2056SOL    HW2 1369   3.528   2.841   1.920
 2059SOL     OW 1370   2.885   2.628   0.966
 2059SOL    HW1 1371   2.900   2.649   1.062
 2059SOL    HW2 1372   2.855   2.533   0.957
 2060SOL     OW 1373   2.842   3.435   1.700
 2060SOL    HW1 1374   2.822   3.479   1.612
 2060SOL    HW2 1375   2.881   3.344   1.684
 2062SOL     OW 1376   2.212   2.760   1.804
 2062SOL    HW1 1377   2.288   2.804   1.852
 2062SOL    HW2 1378   2.247   2.713   1.722
 2066SOL     OW 1379   2.181   2.672   0.949
 2066SOL    HW1 1380   2.274   2.708   0.954
 2066SOL    HW2 1381   2.175   2.587   1.001
 2067SOL     OW 1382   2.201   2.371   1.006
 2067SOL    HW1 1383   2.149   2.288   0.989
 2067SOL    HW2 1384   2.278   2.376   0.942
 2068SOL     OW 1385   3.000   2.242   1.678
 2068SOL    HW1 1386   2.955   2.305   1.742
 2068SOL    HW2 1387   3.093   2.273   1.661
 2069SOL     OW 1388   3.022   2.069   1.477
 2069SOL    HW1 1389   3.022   2.133   1.554
 2069SOL    HW2 1390   3.050   2.117   1.394
 2073SOL     OW 1391   2.864   2.658   1.238
 2073SOL    HW1 1392   2.905   2.626   1.324
 2073SOL    HW2 1393   2.768   2.631   1.235
 2074SOL     OW 1394   1.902   2.406   1.114
 2074SOL    HW1 1395   1.987   2.373   1.073
 2074SOL    HW2 1396   1.915   2.421   1.212
 2075SOL     OW 1397   2.051   2.382   1.722
 2075SOL    HW1 1398   2.110   2.342   1.652
 2075SOL    HW2 1399   1.993   2.453   1.681
 2076SOL     OW 1400   3.231   2.812   1.660
 2076SOL    HW1 1401   3.270   2.901   1.680
 2076SOL    HW2 1402   3.241   2.792   1.563
 2078SOL     OW 1403   3.519   2.466   1.206
 2078SOL    HW1 1404   3.481   2.397   1.268
 2078SOL    HW2 1405   3.601   2.430   1.162
 2079SOL     OW 1406   2.114   3.426   1.744
 2079SOL    HW1 1407   2.084   3.483   1.820
 2079SOL    HW2 1408   2.107   3.329   1.770
 2080SOL     OW 1409   2.533   2.326   1.269
 2080SOL    HW1 1410   2.499   2.237   1.239
 2080SOL    HW2 1411   2.559   2.380   1.189
 2081SOL     OW 1412   2.792   3.540   1.465
 2081SOL    HW1 1413   2.768   3.522   1.370
 2081SOL    HW2 1414   2.822   3.634   1.475
 2083SOL     OW 1415   2.021   2.999   1.466
 2083SOL    HW1 1416   2.043   2.938   1.542
 2083SOL    HW2 1417   2.031   2.950   1.380
 2084SOL     OW 1418   3.209   2.921   1.234
 2084SOL    HW1 1419   3.233   2.858   1.160
 2084SOL    HW2 1420   3.119   2.961   1.216
 2088SOL     OW 1421   1.945   3.120   1.022
 2088SOL    HW1 1422   1.940   3.119   1.122
 2088SOL    HW2 1423   1.862   3.079   0.984
 2089SOL     OW 1424   2.550   3.524   1.716
 2089SOL    HW1 1425   2.494   3.605   1.725
 2089SOL    HW2 1426   2.602   3.528   1.630
 2093SOL     OW 1427   1.992   3.656   1.851
 2093SOL    HW1 1428   1.951   3.582   1.904
 2093SOL    HW2 1429   2.056   3.707   1.909
 2095SOL     OW 1430   2.692   3.135   1.422
 2095SOL    HW1 1431   2.687   3.168   1.517
 2095SOL    HW2 1432   2.606   3.154   1.376
 2099SOL     OW 1433   2.125   2.188   0.720
 2099SOL    HW1 1434   2.046   2.239   0.686
 2099SOL    HW2 1435   2.116   2.173   0.818
 2101SOL     OW 1436   2.684   2.864   1.372
 2101SOL    HW1 1437   2.724   2.863   1.280
 2101SOL    HW2 1438   2.694   2.956   1.412
 2104SOL     OW 1439   2.234   3.150   1.490
 2104SOL    HW1 1440   2.221   3.243   1.456
 2104SOL    HW2 1441   2.150   3.098   1.477
 2105SOL     OW 1442   3.476   3.154   1.289
 2105SOL    HW1 1443   3.536   3.157   1.369
 2105SOL    HW2 1444   3.401   3.218   1.302
 2107SOL     OW 1445   2.876   2.098   0.971
 2107SOL    HW1 1446   2.868   2.062   0.878
 2107SOL    HW2 1447   2.874   2.022   1.036
 2109SOL     OW 1448   3.571   2.247   1.381
 2109SOL    HW1 1449   3.644   2.316   1.385
 2109SOL    HW2 1450   3.599   2.172   1.322
 2111SOL     OW 1451   1.967   2.875   1.726
 2111SOL    HW1 1452   1.890   2.842   1.780
 2111SOL    HW2 1453   2.052   2.845   1.768
 2112SOL     OW 1454   2.534   2.065   1.489
 2112SOL    HW1 1455   2.624   2.049   1.449
 2112SOL    HW2 1456   2.542   2.070   1.588
 2114SOL     OW 1457   3.302   2.718   1.398
 2114SOL    HW1 1458   3.245   2.770   1.335
 2114SOL    HW2 1459   3.398   2.730   1.374
 2116SOL     OW 1460   2.475   2.704   1.431
 2116SOL    HW1 1461   2.531   2.785   1.414
 2116SOL    HW2 1462   2.534   2.624   1.434
 2118SOL     OW 1463   2.578   2.427   1.708
 2118SOL    HW1 1464   2.597   2.492   1.782
 2118SOL    HW2 1465   2.638   2.347   1.717
 2119SOL     OW 1466   3.312   3.082   1.633
 2119SOL    HW1 1467   3.303   3.072   1.732
 2119SOL    HW2 1468   3.408   3.075   1.607
 2120SOL     OW 1469   2.252   3.603   1.560
 2120SOL    HW1 1470   2.161   3.644   1.558
 2120SOL    HW2 1471   2.245   3.509   1.592
 2121SOL     OW 1472   3.536   2.745   1.254
 2121SOL    HW1 1473   3.509   2.656   1.217
 2121SOL    HW2 1474   3.537   2.813   1.181
 2123SOL     OW 1475   2.456   2.607   0.652
 2123SOL    HW1 1476   2.506   2.692   0.633
 2123SOL    HW2 1477   2.368   2.609   0.604
 2124SOL     OW 1478   3.639   2.204   1.642
 2124SOL    HW1 1479   3.622   2.235   1.548
 2124SOL    HW2 1480   3.555   2.167   1.680
 2125SOL     OW 1481   3.592   2.796   1.517
 2125SOL    HW1 1482   3.630   2.887   1.532
 2125SOL    HW2 1483   3.584   2.779   1.418
 2128SOL     OW 1484   2.721   2.818   0.861
 2128SOL    HW1 1485   2.775   2.749   0.909
 2128SOL    HW2 1486   2.689   2.887   0.927
 2131SOL     OW 1487   2.083   3.176   1.844
 2131SOL    HW1 1488   2.018   3.103   1.823
 2131SOL    HW2 1489   2.087   3.190   1.942
 2133SOL     OW 1490   2.534   3.253   1.624
 2133SOL    HW1 1491   2.456   3.203   1.662
 2133SOL    HW2 1492   2.531   3.348   1.655
 2134SOL     OW 1493   3.686   2.054   1.227
 2134SOL    HW1 1494   3.682   1.964   1.271
 2134SOL    HW2 1495   3.689   2.043   1.128
 2137SOL     OW 1496   2.179   2.409   1.280
 2137SOL    HW1 1497   2.217   2.350   1.352
 2137SOL    HW2 1498   2.219   2.383   1.192
 2139SOL     OW 1499   3.286   2.076   1.112
 2139SOL    HW1 1500   3.338   2.011   1.167
 2139SOL    HW2 1501   3.237   2.139   1.173
 2140SOL     OW 1502   2.863   1.896   1.154
 2140SOL    HW1 1503   2.800   1.824   1.123
 2140SOL    HW2 1504   2.956   1.860   1.154
 2142SOL     OW 1505   2.480   3.429   1.284
 2142SOL    HW1 1506   2.475   3.511   1.341
 2142SOL    HW2 1507   2.569   3.426   1.239
 2148SOL     OW 1508   2.092   2.490   1.975
 2148SOL    HW1 1509   1.999   2.488   2.012
 2148SOL    HW2 1510   2.093   2.451   1.883
 2149SOL     OW 1511   2.087   2.137   2.858
 2149SOL    HW1 1512   2.122   2.120   2.950
 2149SOL    HW2 1513   1.999   2.092   2.846
 2150SOL     OW 1514   1.881   2.230   2.509
 2150SOL    HW1 1515   1.799   2.273   2.548
 2150SOL    HW2 1516   1.853   2.157   2.446
 2151SOL     OW 1517   2.431   3.137   3.027
 2151SOL    HW1 1518   2.338   3.130   2.990
 2151SOL    HW2 1519   2.442   3.226   3.071
 2152SOL     OW 1520   3.417   3.373   2.565
 2152SOL    HW1 1521   3.360   3.357   2.646
 2152SOL    HW2 1522   3.358   3.383   2.485
 2153SOL     OW 1523   2.997   2.565   2.579
 2153SOL    HW1 1524   3.054   2.643   2.554
 2153SOL    HW2 1525   2.937   2.591   2.655
 2154SOL     OW 1526   3.617   2.469   2.093
 2154SOL    HW1 1527   3.605   2.456   1.994
 2154SOL    HW2 1528   3.587   2.388   2.142
 2155SOL     OW 1529   2.630   3.006   2.885
 2155SOL    HW1 1530   2.552   3.023   2.945
 2155SOL    HW2 1531   2.664   3.093   2.849
 2156SOL     OW 1532   2.712   2.660   3.685
 2156SOL    HW1 1533   2.708   2.736   3.750
 2156SOL    HW2 1534   2.734   2.696   3.594
 2157SOL     OW 1535   2.547   2.874   2.527
 2157SOL    HW1 1536   2.616   2.858   2.597
 2157SOL    HW2 1537   2.474   2.931   2.565
 2158SOL     OW 1538   2.548   3.023   3.665
 2158SOL    HW1 1539   2.608   3.102   3.679
 2158SOL    HW2 1540   2.462   3.054   3.624
 2159SOL     OW 1541   2.197   3.297   2.923
 2159SOL    HW1 1542   2.119   3.266   2.870
 2159SOL    HW2 1543   2.255   3.355   2.866
 2160SOL     OW 1544   3.322   3.367   3.201
 2160SOL    HW1 1545   3.346   3.461   3.227
 2160SOL    HW2 1546   3.306   3.313   3.283
 2161SOL     OW 1547   2.300   2.254   3.361
 2161SOL    HW1 1548   2.382   2.198   3.370
 2161SOL    HW2 1549   2.219   2.196   3.365
 2162SOL     OW 1550   3.465   2.309   2.599
 2162SOL    HW1 1551   3.391   2.355   2.549
 2162SOL    HW2 1552   3.516   2.377   2.652
 2163SOL     OW 1553   2.093   3.575   2.345
 2163SOL    HW1 1554   2.127   3.652   2.399
 2163SOL    HW2 1555   2.137   3.575   2.255
 2164SOL     OW 1556   2.989   3.203   3.552
 2164SOL    HW1 1557   3.036   3.203   3.640
 2164SOL    HW2 1558   2.941   3.116   3.541
 2165SOL     OW 1559   2.092   3.296   2.400
 2165SOL    HW1 1560   2.066   3.392   2.400
 2165SOL    HW2 1561   2.021   3.242   2.445
 2166SOL     OW 1562   2.102   2.953   2.748
 2166SOL    HW1 1563   2.116   2.869   2.800
 2166SOL    HW2 1564   2.047   3.017   2.803
 2167SOL     OW 1565   2.482   3.648   3.301
 2167SOL    HW1 1566   2.390   3.631   3.336
 2167SOL    HW2 1567   2.510   3.740   3.327
 2168SOL     OW 1568   2.468   2.826   1.985
 2168SOL    HW1 1569   2.475   2.910   1.931
 2168SOL    HW2 1570   2.514   2.839   2.073
 2169SOL     OW 1571   3.456   1.976   3.342
 2169SOL    HW1 1572   3.438   2.043   3.270
 2169SOL    HW2 1573   3.453   2.022   3.431
 2170SOL     OW 1574   1.984   2.505   2.425
 2170SOL    HW1 1575   1.939   2.417   2.442
 2170SOL    HW2 1576   1.983   2.559   2.509
 2172SOL     OW 1577   1.889   3.458   1.979
 2172SOL    HW1 1578   1.870   3.362   2.000
 2172SOL    HW2 1579   1.856   3.516   2.054
 2173SOL     OW 1580   3.551   2.784   2.474
 2173SOL    HW1 1581   3.646   2.755   2.482
 2173SOL    HW2 1582   3.543   2.849   2.399
 2174SOL     OW 1583   3.503   2.970   2.294
 2174SOL    HW1 1584   3.589   2.972   2.242
 2174SOL    HW2 1585   3.517   3.017   2.382
 2175SOL     OW 1586   1.975   2.599   3.459
 2175SOL    HW1 1587   2.063   2.586   3.504
 2175SOL    HW2 1588   1.962   2.696   3.437
 2176SOL     OW 1589   2.475   3.227   2.588
 2176SOL    HW1 1590   2.426   3.140   2.597
 2176SOL    HW2 1591   2.452   3.270   2.501
 2177SOL     OW 1592   3.155   3.090   3.285
 2177SOL    HW1 1593   3.192   3.017   3.227
 2177SOL    HW2 1594   3.207   3.095   3.370
 2178SOL     OW 1595   2.671   1.866   2.364
 2178SOL    HW1 1596   2.711   1.957   2.355
 2178SOL    HW2 1597   2.571   1.874   2.370
 2179SOL     OW 1598   2.059   2.838   3.126
 2179SOL    HW1 1599   2.148   2.793   3.112
 2179SOL    HW2 1600   1.986   2.773   3.107
 2180SOL     OW 1601   3.387   2.861   2.052
 2180SOL    HW1 1602   3.324   2.785   2.065
 2180SOL    HW2 1603   3.435   2.879   2.138
 2181SOL     OW 1604   3.049   3.654   3.478
 2181SOL    HW1 1605   3.073   3.714   3.402
 2181SOL    HW2 1606   3.056   3.559   3.448
 2182SOL     OW 1607   2.179   2.113   3.663
 2182SOL    HW1 1608   2.250   2.184   3.669
 2182SOL    HW2 1609   2.091   2.152   3.691
 2183SOL     OW 1610   3.328   3.279   2.815
 2183SOL    HW1 1611   3.269   3.285   2.895
 2183SOL    HW2 1612   3.313   3.191   2.769
 2184SOL     OW 1613   3.529   3.576   2.434
 2184SOL    HW1 1614   3.488   3.553   2.346
 2184SOL    HW2 1615   3.511   3.502   2.499
 2185SOL     OW 1616   3.143   2.207   2.806
 2185SOL    HW1 1617   3.057   2.157   2.793
 2185SOL    HW2 1618   3.205   2.153   2.862
 2186SOL     OW 1619   3.438   3.524   2.169
 2186SOL    HW1 1620   3.527   3.570   2.172
 2186SOL    HW2 1621   3.417   3.500   2.074
 2187SOL     OW 1622   2.669   2.467   3.327
 2187SOL    HW1 1623   2.622   2.464   3.416
 2187SOL    HW2 1624   2.618   2.412   3.261
 2188SOL     OW 1625   3.256   2.331   3.536
 2188SOL    HW1 1626   3.236   2.374   3.624
 2188SOL    HW2 1627   3.334   2.269   3.545
 2189SOL     OW 1628   2.835   2.752   3.434
 2189SOL    HW1 1629   2.881   2.668   3.405
 2189SOL    HW2 1630   2.779   2.786   3.359
 2190SOL     OW 1631   2.853   2.272   3.104
 2190SOL    HW1 1632   2.776   2.306   3.158
 2190SOL    HW2 1633   2.819   2.221   3.025
 2191SOL     OW 1634   2.903   2.563   2.291
 2191SOL    HW1 1635   2.929   2.559   2.387
 2191SOL    HW2 1636   2.818   2.512   2.277
 2192SOL     OW 1637   1.938   2.673   2.651
 2192SOL    HW1 1638   2.037   2.661   2.660
 2192SOL    HW2 1639   1.914   2.768   2.672
 2193SOL     OW 1640   1.992   3.683   3.433
 2193SOL    HW1 1641   1.982   3.668   3.532
 2193SOL    HW2 1642   1.906   3.719   3.397
 2194SOL     OW 1643   2.727   2.210   2.057
 2194SOL    HW1 1644   2.786   2.273   2.008
 2194SOL    HW2 1645   2.746   2.116   2.028
 2195SOL     OW 1646   3.581   2.447   3.693
 2195SOL    HW1 1647   3.555   2.536   3.657
 2195SOL    HW2 1648   3.579   2.379   3.620
 2196SOL     OW 1649   3.224   3.006   2.407
 2196SOL    HW1 1650   3.307   2.977   2.359
 2196SOL    HW2 1651   3.175   3.073   2.351
 2197SOL     OW 1652   2.412   2.058   2.747
 2197SOL    HW1 1653   2.407   2.053   2.847
 2197SOL    HW2 1654   2.414   2.154   2.718
 2198SOL     OW 1655   2.870   3.318   2.339
 2198SOL    HW1 1656   2.824   3.390   2.287
 2198SOL    HW2 1657   2.866   3.338   2.437
 2199SOL     OW 1658   2.213   3.663   2.715
 2199SOL    HW1 1659   2.263   3.577   2.721
 2199SOL    HW2 1660   2.278   3.740   2.712
 2200SOL     OW 1661   3.657   2.928   2.735
 2200SOL    HW1 1662   3.595   2.913   2.659
 2200SOL    HW2 1663   3.605   2.939   2.820
 2201SOL     OW 1664   3.089   3.412   3.368
 2201SOL    HW1 1665   3.095   3.335   3.432
 2201SOL    HW2 1666   3.037   3.386   3.288
 2202SOL     OW 1667   2.183   2.805   2.104
 2202SOL    HW1 1668   2.265   2.844   2.062
 2202SOL    HW2 1669   2.156   2.723   2.055
 2203SOL     OW 1670   3.320   2.597   2.590
 2203SOL    HW1 1671   3.315   2.532   2.665
 2203SOL    HW2 1672   3.400   2.656   2.603
 2204SOL     OW 1673   2.323   3.128   3.589
 2204SOL    HW1 1674   2.273   3.129   3.503
 2204SOL    HW2 1675   2.260   3.110   3.665
 2205SOL     OW 1676   2.973   3.638   2.099
 2205SOL    HW1 1677   2.913   3.576   2.149
 2205SOL    HW2 1678   3.004   3.594   2.014
 2206SOL     OW 1679   2.064   2.147   3.360
 2206SOL    HW1 1680   1.984   2.207   3.347
 2206SOL    HW2 1681   2.054   2.098   3.446
 2207SOL     OW 1682   3.494   3.239   1.943
 2207SOL    HW1 1683   3.462   3.333   1.933
 2207SOL    HW2 1684   3.418   3.176   1.931
 2208SOL     OW 1685   2.326   3.605   2.185
 2208SOL    HW1 1686   2.359   3.644   2.271
 2208SOL    HW2 1687   2.402   3.598   2.120
 2209SOL     OW 1688   3.262   1.969   2.288
 2209SOL    HW1 1689   3.238   1.932   2.198
 2209SOL    HW2 1690   3.361   1.985   2.292
 2210SOL     OW 1691   2.111   3.647   3.103
 2210SOL    HW1 1692   2.168   3.582   3.153
 2210SOL    HW2 1693   2.095   3.614   3.010
 2211SOL     OW 1694   2.802   3.560   2.766
 2211SOL    HW1 1695   2.882   3.503   2.787
 2211SOL    HW2 1696   2.753   3.520   2.689
 2212SOL     OW 1697   3.409   2.084   3.591
 2212SOL    HW1 1698   3.404   2.121   3.683
 2212SOL    HW2 1699   3.337   2.015   3.579
 2213SOL     OW 1700   2.476   1.984   1.979
 2213SOL    HW1 1701   2.574   1.962   1.986
 2213SOL    HW2 1702   2.445   1.967   1.886
 2214SOL     OW 1703   2.643   2.126   3.611
 2214SOL    HW1 1704   2.710   2.065   3.654
 2214SOL    HW2 1705   2.570   2.145   3.676
 2215SOL     OW 1706   2.750   3.376   3.057
 2215SOL    HW1 1707   2.727   3.351   2.963
 2215SOL    HW2 1708   2.811   3.307   3.096
 2216SOL     OW 1709   3.213   2.452   3.295
 2216SOL    HW1 1710   3.241   2.409   3.380
 2216SOL    HW2 1711   3.238   2.548   3.296
 2217SOL     OW 1712   2.665   3.264   2.786
 2217SOL    HW1 1713   2.755   3.278   2.744
 2217SOL    HW2 1714   2.594   3.266   2.715
 2218SOL     OW 1715   2.784   2.365   2.761
 2218SOL    HW1 1716   2.759   2.356   2.665
 2218SOL    HW2 1717   2.832   2.283   2.792
 2219SOL     OW 1718   2.401   1.926   2.374
 2219SOL    HW1 1719   2.320   1.927   2.432
 2219SOL    HW2 1720   2.404   2.009   2.319
 2220SOL     OW 1721   3.296   3.050   1.903
 2220SOL    HW1 1722   3.328   2.974   1.960
 2220SOL    HW2 1723   3.204   3.077   1.933
 2221SOL     OW 1724   2.159   1.897   2.033
 2221SOL    HW1 1725   2.208   1.981   2.012
 2221SOL    HW2 1726   2.221   1.832   2.078
 2222SOL     OW 1727   2.797   2.098   2.342
 2222SOL    HW1 1728   2.749   2.139   2.264
 2222SOL    HW2 1729   2.896   2.096   2.323
 2223SOL     OW 1730   2.938   2.545   3.326
 2223SOL    HW1 1731   2.858   2.484   3.329
 2223SOL    HW2 1732   3.019   2.492   3.302
 2224SOL     OW 1733   3.089   3.432   2.655
 2224SOL    HW1 1734   3.110   3.506   2.590
 2224SOL    HW2 1735   3.157   3.432   2.728
 2225SOL     OW 1736   2.321   3.014   2.603
 2225SOL    HW1 1737   2.250   2.987   2.668
 2225SOL    HW2 1738   2.295   2.986   2.510
 2226SOL     OW 1739   3.133   3.659   2.453
 2226SOL    HW1 1740   3.177   3.723   2.389
 2226SOL    HW2 1741   3.083   3.711   2.523
 2227SOL     OW 1742   2.894   2.411   1.878
 2227SOL    HW1 1743   2.853   2.493   1.839
 2227SOL    HW2 1744   2.958   2.437   1.951
 2228SOL     OW 1745   1.940   2.418   3.248
 2228SOL    HW1 1746   2.032   2.417   3.207
 2228SOL    HW2 1747   1.934   2.492   3.315
 2229SOL     OW 1748   2.423   2.084   3.009
 2229SOL    HW1 1749   2.461   2.000   3.046
 2229SOL    HW2 1750   2.335   2.103   3.053
 2230SOL     OW 1751   2.728   2.316   2.504
 2230SOL    HW1 1752   2.696   2.388   2.442
 2230SOL    HW2 1753   2.752   2.235   2.451
 2231SOL     OW 1754   2.879   1.901   2.615
 2231SOL    HW1 1755   2.807   1.906   2.546
 2231SOL    HW2 1756   2.855   1.832   2.684
 2232SOL     OW 1757   3.291   3.035   2.729
 2232SOL    HW1 1758   3.236   2.951   2.722
 2232SOL    HW2 1759   3.317   3.064   2.637
 2233SOL     OW 1760   3.328   2.452   2.854
 2233SOL    HW1 1761   3.298   2.357   2.861
 2233SOL    HW2 1762   3.401   2.468   2.920
 2234SOL     OW 1763   3.719   2.695   2.239
 2234SOL    HW1 1764   3.761   2.631   2.303
 2234SOL    HW2 1765   3.681   2.644   2.161
 2235SOL     OW 1766   2.350   3.247   2.036
 2235SOL    HW1 1767   2.263   3.232   2.083
 2235SOL    HW2 1768   2.333   3.273   1.941
 2236SOL     OW 1769   3.526   3.142   2.519
 2236SOL    HW1 1770   3.625   3.150   2.533
 2236SOL    HW2 1771   3.481   3.226   2.550
 2237SOL     OW 1772   3.252   2.437   1.940
 2237SOL    HW1 1773   3.198   2.416   2.021
 2237SOL    HW2 1774   3.343   2.396   1.949
 2238SOL     OW 1775   3.616   3.085   3.450
 2238SOL    HW1 1776   3.707   3.046   3.437
 2238SOL    HW2 1777   3.624   3.181   3.474
 2239SOL     OW 1778   2.926   3.209   3.202
 2239SOL    HW1 1779   2.846   3.186   3.257
 2239SOL    HW2 1780   3.009   3.183   3.251
 2241SOL     OW 1781   2.973   3.057   2.962
 2241SOL    HW1 1782   2.933   3.101   3.043
 2241SOL    HW2 1783   2.932   3.094   2.879
 2242SOL     OW 1784   3.500   2.961   2.941
 2242SOL    HW1 1785   3.505   3.042   3.000
 2242SOL    HW2 1786   3.414   2.963   2.890
 2243SOL     OW 1787   2.777   1.951   3.264
 2243SOL    HW1 1788   2.802   1.931   3.169
 2243SOL    HW2 1789   2.849   2.007   3.306
 2244SOL     OW 1790   2.842   2.978   3.581
 2244SOL    HW1 1791   2.743   2.984   3.591
 2244SOL    HW2 1792   2.865   2.898   3.525
 2245SOL     OW 1793   2.567   2.912   2.230
 2245SOL    HW1 1794   2.553   2.919   2.329
 2245SOL    HW2 1795   2.651   2.861   2.212
 2246SOL     OW 1796   2.272   2.675   3.113
 2246SOL    HW1 1797   2.358   2.687   3.163
 2246SOL    HW2 1798   2.230   2.588   3.140
 2247SOL     OW 1799   3.136   2.248   3.124
 2247SOL    HW1 1800   3.157   2.322   3.188
 2247SOL    HW2 1801   3.047   2.265   3.081
 2248SOL     OW 1802   1.926   3.426   3.193
 2248SOL    HW1 1803   1.880   3.508   3.159
 2248SOL    HW2 1804   2.024   3.445   3.202
 2249SOL     OW 1805   2.229   2.962   2.363
 2249SOL    HW1 1806   2.222   3.045   2.307
 2249SOL    HW2 1807   2.233   2.882   2.303
 2250SOL     OW 1808   3.114   3.210   2.250
 2250SOL    HW1 1809   3.164   3.287   2.290
 2250SOL    HW2 1810   3.019   3.212   2.282
 2251SOL     OW 1811   3.134   3.307   3.004
 2251SOL    HW1 1812   3.181   3.320   3.091
 2251SOL    HW2 1813   3.068   3.233   3.013
 2252SOL     OW 1814   3.444   2.501   2.334
 2252SOL    HW1 1815   3.413   2.562   2.407
 2252SOL    HW2 1816   3.494   2.553   2.265
 2253SOL     OW 1817   2.216   3.372   3.191
 2253SOL    HW1 1818   2.195   3.328   3.104
 2253SOL    HW2 1819   2.313   3.398   3.194
 2254SOL     OW 1820   2.264   2.613   3.460
 2254SOL    HW1 1821   2.332   2.668   3.413
 2254SOL    HW2 1822   2.304   2.525   3.487
 2255SOL     OW 1823   3.449   2.641   3.532
 2255SOL    HW1 1824   3.357   2.679   3.527
 2255SOL    HW2 1825   3.509   2.688   3.467
 2256SOL     OW 1826   2.875   1.967   3.632
 2256SOL    HW1 1827   2.881   2.052   3.580
 2256SOL    HW2 1828   2.907   1.891   3.575
 2257SOL     OW 1829   2.366   1.912   3.602
 2257SOL    HW1 1830   2.324   1.855   3.532
 2257SOL    HW2 1831   2.300   1.981   3.634
 2258SOL     OW 1832   2.435   2.732   2.891
 2258SOL    HW1 1833   2.479   2.821   2.882
 2258SOL    HW2 1834   2.372   2.732   2.968
 2259SOL     OW 1835   3.222   2.724   2.907
 2259SOL    HW1 1836   3.147   2.724   2.841
 2259SOL    HW2 1837   3.259   2.632   2.916
 2260SOL     OW 1838   3.071   2.387   2.137
 2260SOL    HW1 1839   3.084   2.303   2.191
 2260SOL    HW2 1840   3.042   2.461   2.197
 2261SOL     OW 1841   2.169   2.075   3.093
 2261SOL    HW1 1842   2.146   2.112   3.183
 2261SOL    HW2 1843   2.139   1.980   3.087
 2262SOL     OW 1844   1.899   3.172   3.144
 2262SOL    HW1 1845   1.952   3.123   3.212
 2262SOL    HW2 1846   1.921   3.270   3.149
 2263SOL     OW 1847   2.594   2.496   2.926
 2263SOL    HW1 1848   2.653   2.470   2.850
 2263SOL    HW2 1849   2.566   2.592   2.915
 2265SOL     OW 1850   2.169   1.925   2.480
 2265SOL    HW1 1851   2.158   2.019   2.513
 2265SOL    HW2 1852   2.164   1.862   2.557
 2266SOL     OW 1853   3.484   2.229   2.236
 2266SOL    HW1 1854   3.486   2.153   2.300
 2266SOL    HW2 1855   3.436   2.306   2.276
 2267SOL     OW 1856   2.885   2.628   2.828
 2267SOL    HW1 1857   2.900   2.649   2.924
 2267SOL    HW2 1858   2.855   2.533   2.819
 2268SOL     OW 1859   2.842   3.435   3.562
 2268SOL    HW1 1860   2.822   3.479   3.474
 2268SOL    HW2 1861   2.881   3.344   3.546
 2270SOL     OW 1862   2.212   2.760   3.666
 2270SOL    HW1 1863   2.288   2.804   3.714
 2270SOL    HW2 1864   2.247   2.713   3.584
 2271SOL     OW 1865   3.402   2.136   1.987
 2271SOL    HW1 1866   3.341   2.061   2.010
 2271SOL    HW2 1867   3.424   2.188   2.070
 2272SOL     OW 1868   3.165   2.700   1.904
 2272SOL    HW1 1869   3.199   2.607   1.919
 2272SOL    HW2 1870   3.183   2.727   1.809
 2273SOL     OW 1871   2.930   3.195   2.711
 2273SOL    HW1 1872   2.937   3.111   2.656
 2273SOL    HW2 1873   2.992   3.264   2.675
 2274SOL     OW 1874   2.181   2.672   2.811
 2274SOL    HW1 1875   2.274   2.708   2.816
 2274SOL    HW2 1876   2.175   2.587   2.863
 2275SOL     OW 1877   3.000   2.242   3.540
 2275SOL    HW1 1878   2.955   2.305   3.604
 2275SOL    HW2 1879   3.093   2.273   3.523
 2276SOL     OW 1880   3.022   2.069   3.339
 2276SOL    HW1 1881   3.022   2.133   3.416
 2276SOL    HW2 1882   3.050   2.117   3.256
 2277SOL     OW 1883   1.870   3.188   2.062
 2277SOL    HW1 1884   1.777   3.209   2.031
 2277SOL    HW2 1885   1.880   3.089   2.075
 2278SOL     OW 1886   1.950   3.663   2.789
 2278SOL    HW1 1887   1.908   3.577   2.762
 2278SOL    HW2 1888   2.044   3.666   2.755
 2279SOL     OW 1889   2.366   3.430   2.772
 2279SOL    HW1 1890   2.432   3.504   2.781
 2279SOL    HW2 1891   2.410   3.351   2.730
 2280SOL     OW 1892   2.864   2.658   3.100
 2280SOL    HW1 1893   2.905   2.626   3.186
 2280SOL    HW2 1894   2.768   2.631   3.097
 2281SOL     OW 1895   1.902   2.406   2.976
 2281SOL    HW1 1896   1.987   2.373   2.935
 2281SOL    HW2 1897   1.915   2.421   3.074
 2282SOL     OW 1898   2.051   2.382   3.584
 2282SOL    HW1 1899   2.110   2.342   3.514
 2282SOL    HW2 1900   1.993   2.453   3.543
 2283SOL     OW 1901   3.231   2.812   3.522
 2283SOL    HW1 1902   3.270   2.901   3.542
 2283SOL    HW2 1903   3.241   2.792   3.425
 2284SOL     OW 1904   3.519   2.466   3.068
 2284SOL    HW1 1905   3.481   2.397   3.130
 2284SOL    HW2 1906   3.601   2.430   3.024
 2285SOL     OW 1907   2.114   3.426   3.606
 2285SOL    HW1 1908   2.084   3.483   3.682
 2285SOL    HW2 1909   2.107   3.329   3.632
 2286SOL     OW 1910   2.533   2.326   3.131
 2286SOL    HW1 1911   2.499   2.237   3.101
 2286SOL    HW2 1912   2.559   2.380   3.051
 2287SOL     OW 1913   2.792   3.540   3.327
 2287SOL    HW1 1914   2.768   3.522   3.232
 2287SOL    HW2 1915   2.822   3.634   3.337
 2288SOL     OW 1916   2.021   2.999   3.328
 2288SOL    HW1 1917   2.043   2.938   3.404
 2288SOL    HW2 1918   2.031   2.950   3.242
 2289SOL     OW 1919   3.209   2.921   3.096
 2289SOL    HW1 1920   3.233   2.858   3.022
 2289SOL    HW2 1921   3.119   2.961   3.078
 2290SOL     OW 1922   3.164   2.717   2.171
 2290SOL    HW1 1923   3.078   2.686   2.213
 2290SOL    HW2 1924   3.160   2.703   2.072
 2292SOL     OW 1925   3.114   3.593   2.990
 2292SOL    HW1 1926   3.198   3.598   2.936
 2292SOL    HW2 1927   3.091   3.497   3.008
 2293SOL     OW 1928   1.945   3.120   2.884
 2293SOL    HW1 1929   1.940   3.119   2.984
 2293SOL    HW2 1930   1.862   3.079   2.846
 2294SOL     OW 1931   2.550   3.524   3.578
 2294SOL    HW1 1932   2.494   3.605   3.587
 2294SOL    HW2 1933   2.602   3.528   3.492
 2295SOL     OW 1934   3.588   1.997   2.385
 2295SOL    HW1 1935   3.661   1.980   2.318
 2295SOL    HW2 1936   3.557   1.910   2.423
 2296SOL     OW 1937   3.250   3.435   2.339
 2296SOL    HW1 1938   3.317   3.447   2.265
 2296SOL    HW2 1939   3.210   3.524   2.362
 2298SOL     OW 1940   3.142   2.789   2.534
 2298SOL    HW1 1941   3.202   2.708   2.536
 2298SOL    HW2 1942   3.182   2.858   2.474
 2299SOL     OW 1943   2.692   3.135   3.284
 2299SOL    HW1 1944   2.687   3.168   3.379
 2299SOL    HW2 1945   2.606   3.154   3.238
 2300SOL     OW 1946   2.534   3.478   2.016
 2300SOL    HW1 1947   2.543   3.488   1.917
 2300SOL    HW2 1948   2.494   3.389   2.037
 2302SOL     OW 1949   3.703   2.037   2.825
 2302SOL    HW1 1950   3.742   1.952   2.789
 2302SOL    HW2 1951   3.605   2.039   2.806
 2303SOL     OW 1952   2.125   2.188   2.582
 2303SOL    HW1 1953   2.046   2.239   2.548
 2303SOL    HW2 1954   2.116   2.173   2.680
 2304SOL     OW 1955   3.056   3.474   1.893
 2304SOL    HW1 1956   3.062   3.381   1.930
 2304SOL    HW2 1957   2.997   3.474   1.813
 2305SOL     OW 1958   2.684   2.864   3.234
 2305SOL    HW1 1959   2.724   2.863   3.142
 2305SOL    HW2 1960   2.694   2.956   3.274
 2306SOL     OW 1961   2.778   2.772   2.153
 2306SOL    HW1 1962   2.841   2.810   2.085
 2306SOL    HW2 1963   2.818   2.689   2.192
 2307SOL     OW 1964   3.366   3.469   1.906
 2307SOL    HW1 1965   3.274   3.506   1.913
 2307SOL    HW2 1966   3.404   3.489   1.816
 2308SOL     OW 1967   2.234   3.150   3.352
 2308SOL    HW1 1968   2.221   3.243   3.318
 2308SOL    HW2 1969   2.150   3.098   3.339
 2309SOL     OW 1970   3.476   3.154   3.151
 2309SOL    HW1 1971   3.536   3.157   3.231
 2309SOL    HW2 1972   3.401   3.218   3.164
 2310SOL     OW 1973   2.901   2.960   2.558
 2310SOL    HW1 1974   2.831   2.913   2.612
 2310SOL    HW2 1975   2.960   2.892   2.515
 2311SOL     OW 1976   2.876   2.098   2.833
 2311SOL    HW1 1977   2.868   2.062   2.740
 2311SOL    HW2 1978   2.874   2.022   2.898
 2312SOL     OW 1979   2.452   3.349   2.353
 2312SOL    HW1 1980   2.494   3.291   2.283
 2312SOL    HW2 1981   2.408   3.428   2.309
 2313SOL     OW 1982   3.571   2.247   3.243
 2313SOL    HW1 1983   3.644   2.316   3.247
 2313SOL    HW2 1984   3.599   2.172   3.184
 2314SOL     OW 1985   2.117   3.210   2.152
 2314SOL    HW1 1986   2.021   3.211   2.125
 2314SOL    HW2 1987   2.129   3.263   2.236
 2315SOL     OW 1988   1.967   2.875   3.588
 2315SOL    HW1 1989   1.890   2.842   3.642
 2315SOL    HW2 1990   2.052   2.845   3.630
 2316SOL     OW 1991   2.534   2.065   3.351
 2316SOL    HW1 1992   2.624   2.049   3.311
 2316SOL    HW2 1993   2.542   2.070   3.450
 2317SOL     OW 1994   1.937   2.207   1.895
 2317SOL    HW1 1995   1.845   2.179   1.866
 2317SOL    HW2 1996   1.968   2.284   1.839
 2318SOL     OW 1997   3.302   2.718   3.260
 2318SOL    HW1 1998   3.245   2.770   3.197
 2318SOL    HW2 1999   3.398   2.730   3.236
 2319SOL     OW 2000   1.934   2.028   2.180
 2319SOL    HW1 2001   1.917   2.111   2.126
 2319SOL    HW2 2002   2.024   1.991   2.158
 2320SOL     OW 2003   3.045   3.197   1.981
 2320SOL    HW1 2004   2.946   3.186   1.983
 2320SOL    HW2 2005   3.079   3.212   2.074
 2321SOL     OW 2006   2.475   2.704   3.293
 2321SOL    HW1 2007   2.531   2.785   3.276
 2321SOL    HW2 2008   2.534   2.624   3.296
 2322SOL     OW 2009   3.355   3.629   2.821
 2322SOL    HW1 2010   3.388   3.693   2.752
 2322SOL    HW2 2011   3.421   3.623   2.896
 2323SOL     OW 2012   2.578   2.427   3.570
 2323SOL    HW1 2013   2.597   2.492   3.644
 2323SOL    HW2 2014   2.638   2.347   3.579
 2324SOL     OW 2015   3.312   3.082   3.495
 2324SOL    HW1 2016   3.303   3.072   3.594
 2324SOL    HW2 2017   3.408   3.075   3.469
 2325SOL     OW 2018   2.252   3.603   3.422
 2325SOL    HW1 2019   2.161   3.644   3.420
 2325SOL    HW2 2020   2.245   3.509   3.454
 2326SOL     OW 2021   3.536   2.745   3.116
 2326SOL    HW1 2022   3.509   2.656   3.079
 2326SOL    HW2 2023   3.537   2.813   3.043
 2327SOL     OW 2024   3.087   2.187   2.311
 2327SOL    HW1 2025   3.152   2.113   2.300
 2327SOL    HW2 2026   3.107   2.237   2.395
 2328SOL     OW 2027   3.639   2.204   3.504
 2328SOL    HW1 2028   3.622   2.235   3.410
 2328SOL    HW2 2029   3.555   2.167   3.542
 2329SOL     OW 2030   3.592   2.796   3.379
 2329SOL    HW1 2031   3.630   2.887   3.394
 2329SOL    HW2 2032   3.584   2.779   3.280
 2330SOL     OW 2033   2.721   3.236   1.878
 2330SOL    HW1 2034   2.675   3.251   1.966
 2330SOL    HW2 2035   2.765   3.321   1.848
 2331SOL     OW 2036   2.523   3.652   2.815
 2331SOL    HW1 2037   2.477   3.740   2.802
 2331SOL    HW2 2038   2.622   3.664   2.808
 2332SOL     OW 2039   2.721   2.818   2.723
 2332SOL    HW1 2040   2.775   2.749   2.771
 2332SOL    HW2 2041   2.689   2.887   2.789
 2333SOL     OW 2042   2.945   2.846   1.949
 2333SOL    HW1 2043   2.922   2.899   1.867
 2333SOL    HW2 2044   3.026   2.790   1.930
 2334SOL     OW 2045   3.723   3.431   2.713
 2334SOL    HW1 2046   3.652   3.419   2.643
 2334SOL    HW2 2047   3.724   3.352   2.773
 2335SOL     OW 2048   2.083   3.176   3.706
 2335SOL    HW1 2049   2.018   3.103   3.685
 2335SOL    HW2 2050   2.087   3.190   3.804
 2336SOL     OW 2051   1.941   3.102   2.515
 2336SOL    HW1 2052   1.940   3.055   2.603
 2336SOL    HW2 2053   2.023   3.074   2.464
 2337SOL     OW 2054   2.534   3.253   3.486
 2337SOL    HW1 2055   2.456   3.203   3.524
 2337SOL    HW2 2056   2.531   3.348   3.517
 2338SOL     OW 2057   3.686   2.054   3.089
 2338SOL    HW1 2058   3.682   1.964   3.133
 2338SOL    HW2 2059   3.689   2.043   2.990
 2339SOL     OW 2060   3.567   3.349   2.966
 2339SOL    HW1 2061   3.474   3.324   2.939
 2339SOL    HW2 2062   3.593   3.299   3.048
 2340SOL     OW 2063   2.179   2.409   3.142
 2340SOL    HW1 2064   2.217   2.350   3.214
 2340SOL    HW2 2065   2.219   2.383   3.054
 2341SOL     OW 2066   2.674   3.448   2.549
 2341SOL    HW1 2067   2.706   3.458   2.455
 2341SOL    HW2 2068   2.595   3.386   2.551
 2342SOL     OW 2069   3.286   2.076   2.974
 2342SOL    HW1 2070   3.338   2.011   3.029
 2342SOL    HW2 2071   3.237   2.139   3.035
 2343SOL     OW 2072   2.863   1.896   3.016
 2343SOL    HW1 2073   2.800   1.824   2.985
 2343SOL    HW2 2074   2.956   1.860   3.016
 2344SOL     OW 2075   2.632   3.192   2.163
 2344SOL    HW1 2076   2.586   3.105   2.180
 2344SOL    HW2 2077   2.723   3.189   2.204
 2345SOL     OW 2078   2.480   3.429   3.146
 2345SOL    HW1 2079   2.475   3.511   3.203
 2345SOL    HW2 2080   2.569   3.426   3.101
 2346SOL     OW 2081   3.214   1.914   2.030
 2346SOL    HW1 2082   3.249   1.873   1.946
 2346SOL    HW2 2083   3.124   1.876   2.050
 2347SOL     OW 2084   3.162   2.315   2.553
 2347SOL    HW1 2085   3.103   2.395   2.557
 2347SOL    HW2 2086   3.177   2.280   2.646
 2348SOL     OW 2087   3.455   2.083   2.744
 2348SOL    HW1 2088   3.371   2.082   2.798
 2348SOL    HW2 2089   3.457   2.166   2.688
 2349SOL     OW 2090   1.901   2.939   2.162
 2349SOL    HW1 2091   2.000   2.928   2.153
 2349SOL    HW2 2092   1.861   2.853   2.194
 2350SOL     OW 2093   2.737   3.508   2.199
 2350SOL    HW1 2094   2.660   3.473   2.145
 2350SOL    HW2 2095   2.705   3.579   2.261
 2351SOL     OW 2096   2.092   2.490   3.837
 2351SOL    HW1 2097   1.999   2.488   3.874
 2351SOL    HW2 2098   2.093   2.451   3.745
 2364SOL     OW 2099   2.468   2.826   3.847
 2364SOL    HW1 2100   2.475   2.910   3.793
 2364SOL    HW2 2101   2.514   2.839   3.935
 2375SOL     OW 2102   2.460   2.591   3.994
 2375SOL    HW1 2103   2.484   2.660   3.926
 2375SOL    HW2 2104   2.382   2.624   4.048
 2380SOL     OW 2105   2.727   2.210   3.919
 2380SOL    HW1 2106   2.786   2.273   3.870
 2380SOL    HW2 2107   2.746   2.116   3.890
 2386SOL     OW 2108   2.183   2.805   3.966
 2386SOL    HW1 2109   2.265   2.844   3.924
 2386SOL    HW2 2110   2.156   2.723   3.917
 2395SOL     OW 2111   2.476   1.984   3.841
 2395SOL    HW1 2112   2.574   1.962   3.848
 2395SOL    HW2 2113   2.445   1.967   3.748
 2398SOL     OW 2114   3.296   3.050   3.765
 2398SOL    HW1 2115   3.328   2.974   3.822
 2398SOL    HW2 2116   3.204   3.077   3.795
 2399SOL     OW 2117   2.159   1.897   3.895
 2399SOL    HW1 2118   2.208   1.981   3.874
 2399SOL    HW2 2119   2.221   1.832   3.940
 2404SOL     OW 2120   2.894   2.411   3.740
 2404SOL    HW1 2121   2.853   2.493   3.701
 2404SOL    HW2 2122   2.958   2.437   3.813
 2409SOL     OW 2123   2.350   3.247   3.898
 2409SOL    HW1 2124   2.263   3.232   3.945
 2409SOL    HW2 2125   2.333   3.273   3.803
 2411SOL     OW 2126   3.252   2.437   3.802
 2411SOL    HW1 2127   3.198   2.416   3.883
 2411SOL    HW2 2128   3.343   2.396   3.811
 2412SOL     OW 2129   2.389   2.118   4.052
 2412SOL    HW1 2130   2.416   2.059   3.977
 2412SOL    HW2 2131   2.389   2.213   4.021
 2414SOL     OW 2132   2.567   2.912   4.092
 2414SOL    HW1 2133   2.553   2.919   4.191
 2414SOL    HW2 2134   2.651   2.861   4.074
 2420SOL     OW 2135   3.071   2.387   3.999
 2420SOL    HW1 2136   3.084   2.303   4.053
 2420SOL    HW2 2137   3.042   2.461   4.059
 2425SOL     OW 2138   3.402   2.136   3.849
 2425SOL    HW1 2139   3.341   2.061   3.872
 2425SOL    HW2 2140   3.424   2.188   3.932
 2426SOL     OW 2141   3.165   2.700   3.766
 2426SOL    HW1 2142   3.199   2.607   3.781
 2426SOL    HW2 2143   3.183   2.727   3.671
 2432SOL     OW 2144   2.677   2.434   4.049
 2432SOL    HW1 2145   2.684   2.345   4.003
 2432SOL    HW2 2146   2.583   2.468   4.041
 2434SOL     OW 2147   2.335   2.362   3.915
 2434SOL    HW1 2148   2.396   2.442   3.919
 2434SOL    HW2 2149   2.240   2.393   3.922
 2445SOL     OW 2150   2.778   2.772   4.015
 2445SOL    HW1 2151   2.841   2.810   3.947
 2445SOL    HW2 2152   2.818   2.689   4.054
 2450SOL     OW 2153   1.937   2.207   3.757
 2450SOL    HW1 2154   1.845   2.179   3.728
 2450SOL    HW2 2155   1.968   2.284   3.701
 2451SOL     OW 2156   1.934   2.028   4.042
 2451SOL    HW1 2157   1.917   2.111   3.988
 2451SOL    HW2 2158   2.024   1.991   4.020
 2452SOL     OW 2159   3.045   3.197   3.843
 2452SOL    HW1 2160   2.946   3.186   3.845
 2452SOL    HW2 2161   3.079   3.212   3.936
 2456SOL     OW 2162   2.721   3.236   3.740
 2456SOL    HW1 2163   2.675   3.251   3.828
 2456SOL    HW2 2164   2.765   3.321   3.710
 2459SOL     OW 2165   2.945   2.846   3.811
 2459SOL    HW1 2166   2.922   2.899   3.729
 2459SOL    HW2 2167   3.026   2.790   3.792
 2466SOL     OW 2168   3.214   1.914   3.892
 2466SOL    HW1 2169   3.249   1.873   3.808
 2466SOL    HW2 2170   3.124   1.876   3.912
 2469SOL     OW 2171   1.901   2.939   4.024
 2469SOL    HW1 2172   2.000   2.928   4.015
 2469SOL    HW2 2173   1.861   2.853   4.056
 2488SOL     OW 2174   2.179   3.975   1.801
 2488SOL    HW1 2175   2.250   4.046   1.807
 2488SOL    HW2 2176   2.091   4.014   1.829
 2506SOL     OW 2177   2.643   3.988   1.749
 2506SOL    HW1 2178   2.710   3.927   1.792
 2506SOL    HW2 2179   2.570   4.007   1.814
 2522SOL     OW 2180   2.777   3.813   1.402
 2522SOL    HW1 2181   2.802   3.793   1.307
 2522SOL    HW2 2182   2.849   3.869   1.444
 2529SOL     OW 2183   2.875   3.829   1.770
 2529SOL    HW1 2184   2.881   3.914   1.718
 2529SOL    HW2 2185   2.907   3.753   1.713
 2530SOL     OW 2186   2.366   3.774   1.740
 2530SOL    HW1 2187   2.324   3.717   1.670
 2530SOL    HW2 2188   2.300   3.843   1.772
 2567SOL     OW 2189   2.534   3.927   1.489
 2567SOL    HW1 2190   2.624   3.911   1.449
 2567SOL    HW2 2191   2.542   3.932   1.588
 2589SOL     OW 2192   2.087   3.999   2.858
 2589SOL    HW1 2193   2.122   3.982   2.950
 2589SOL    HW2 2194   1.999   3.954   2.846
 2590SOL     OW 2195   1.881   4.092   2.509
 2590SOL    HW1 2196   1.799   4.135   2.548
 2590SOL    HW2 2197   1.853   4.019   2.446
 2602SOL     OW 2198   2.671   3.728   2.364
 2602SOL    HW1 2199   2.711   3.819   2.355
 2602SOL    HW2 2200   2.571   3.736   2.370
 2614SOL     OW 2201   2.727   4.072   2.057
 2614SOL    HW1 2202   2.786   4.135   2.008
 2614SOL    HW2 2203   2.746   3.978   2.028
 2616SOL     OW 2204   2.412   3.920   2.747
 2616SOL    HW1 2205   2.407   3.915   2.847
 2616SOL    HW2 2206   2.414   4.016   2.718
 2619SOL     OW 2207   3.262   3.831   2.288
 2619SOL    HW1 2208   3.238   3.794   2.198
 2619SOL    HW2 2209   3.361   3.847   2.292
 2622SOL     OW 2210   2.476   3.846   1.979
 2622SOL    HW1 2211   2.574   3.824   1.986
 2622SOL    HW2 2212   2.445   3.829   1.886
 2626SOL     OW 2213   2.401   3.788   2.374
 2626SOL    HW1 2214   2.320   3.789   2.432
 2626SOL    HW2 2215   2.404   3.871   2.319
 2627SOL     OW 2216   2.159   3.759   2.033
 2627SOL    HW1 2217   2.208   3.843   2.012
 2627SOL    HW2 2218   2.221   3.694   2.078
 2628SOL     OW 2219   2.797   3.960   2.342
 2628SOL    HW1 2220   2.749   4.001   2.264
 2628SOL    HW2 2221   2.896   3.958   2.323
 2632SOL     OW 2222   2.423   3.946   3.009
 2632SOL    HW1 2223   2.461   3.862   3.046
 2632SOL    HW2 2224   2.335   3.965   3.053
 2634SOL     OW 2225   2.879   3.763   2.615
 2634SOL    HW1 2226   2.807   3.768   2.546
 2634SOL    HW2 2227   2.855   3.694   2.684
 2638SOL     OW 2228   2.389   3.980   2.190
 2638SOL    HW1 2229   2.416   3.921   2.115
 2638SOL    HW2 2230   2.389   4.075   2.159
 2640SOL     OW 2231   2.777   3.813   3.264
 2640SOL    HW1 2232   2.802   3.793   3.169
 2640SOL    HW2 2233   2.849   3.869   3.306
 2652SOL     OW 2234   2.169   3.937   3.093
 2652SOL    HW1 2235   2.146   3.974   3.183
 2652SOL    HW2 2236   2.139   3.842   3.087
 2655SOL     OW 2237   2.169   3.787   2.480
 2655SOL    HW1 2238   2.158   3.881   2.513
 2655SOL    HW2 2239   2.164   3.724   2.557
 2679SOL     OW 2240   2.125   4.050   2.582
 2679SOL    HW1 2241   2.046   4.101   2.548
 2679SOL    HW2 2242   2.116   4.035   2.680
 2681SOL     OW 2243   2.876   3.960   2.833
 2681SOL    HW1 2244   2.868   3.924   2.740
 2681SOL    HW2 2245   2.874   3.884   2.898
 2687SOL     OW 2246   1.934   3.890   2.180
 2687SOL    HW1 2247   1.917   3.973   2.126
 2687SOL    HW2 2248   2.024   3.853   2.158
 2691SOL     OW 2249   3.087   4.049   2.311
 2691SOL    HW1 2250   3.152   3.975   2.300
 2691SOL    HW2 2251   3.107   4.099   2.395
 2699SOL     OW 2252   2.290   4.148   2.382
 2699SOL    HW1 2253   2.320   4.076   2.320
 2699SOL    HW2 2254   2.251   4.108   2.465
 2702SOL     OW 2255   2.863   3.758   3.016
 2702SOL    HW1 2256   2.800   3.686   2.985
 2702SOL    HW2 2257   2.956   3.722   3.016
 2703SOL     OW 2258   3.214   3.776   2.030
 2703SOL    HW1 2259   3.249   3.735   1.946
 2703SOL    HW2 2260   3.124   3.738   2.050
 2798SOL     OW 2261   3.854   1.821   1.571
 2798SOL    HW1 2262   3.844   1.806   1.670
 2798SOL    HW2 2263   3.768   1.857   1.535
 2859SOL     OW 2264   3.854   1.794   1.851
 2859SOL    HW1 2265   3.813   1.720   1.904
 2859SOL    HW2 2266   3.918   1.845   1.909
 2903SOL     OW 2267   3.955   1.713   2.345
 2903SOL    HW1 2268   3.989   1.790   2.399
 2903SOL    HW2 2269   3.999   1.713   2.255
 2909SOL     OW 2270   3.751   1.596   1.979
 2909SOL    HW1 2271   3.732   1.500   2.000
 2909SOL    HW2 2272   3.718   1.654   2.054
 2965SOL     OW 2273   3.732   1.326   2.062
 2965SOL    HW1 2274   3.639   1.347   2.031
 2965SOL    HW2 2275   3.742   1.227   2.075
 2966SOL     OW 2276   3.812   1.801   2.789
 2966SOL    HW1 2277   3.770   1.715   2.762
 2966SOL    HW2 2278   3.906   1.804   2.755
 3100SOL     OW 2279   3.837   2.599   1.597
 3100SOL    HW1 2280   3.925   2.586   1.642
 3100SOL    HW2 2281   3.824   2.696   1.575
 3104SOL     OW 2282   4.041   2.113   1.801
 3104SOL    HW1 2283   4.112   2.184   1.807
 3104SOL    HW2 2284   3.953   2.152   1.829
 3117SOL     OW 2285   3.926   2.147   1.498
 3117SOL    HW1 2286   3.846   2.207   1.485
 3117SOL    HW2 2287   3.916   2.098   1.584
 3130SOL     OW 2288   3.802   2.418   1.386
 3130SOL    HW1 2289   3.894   2.417   1.345
 3130SOL    HW2 2290   3.796   2.492   1.453
 3162SOL     OW 2291   3.913   2.382   1.722
 3162SOL    HW1 2292   3.972   2.342   1.652
 3162SOL    HW2 2293   3.855   2.453   1.681
 3183SOL     OW 2294   3.829   2.875   1.726
 3183SOL    HW1 2295   3.752   2.842   1.780
 3183SOL    HW2 2296   3.914   2.845   1.768
 3206SOL     OW 2297   3.954   2.490   1.975
 3206SOL    HW1 2298   3.861   2.488   2.012
 3206SOL    HW2 2299   3.955   2.451   1.883
 3207SOL     OW 2300   3.949   2.137   2.858
 3207SOL    HW1 2301   3.984   2.120   2.950
 3207SOL    HW2 2302   3.861   2.092   2.846
 3208SOL     OW 2303   3.743   2.230   2.509
 3208SOL    HW1 2304   3.661   2.273   2.548
 3208SOL    HW2 2305   3.715   2.157   2.446
 3218SOL     OW 2306   3.964   2.953   2.748
 3218SOL    HW1 2307   3.978   2.869   2.800
 3218SOL    HW2 2308   3.909   3.017   2.803
 3221SOL     OW 2309   3.846   2.505   2.425
 3221SOL    HW1 2310   3.801   2.417   2.442
 3221SOL    HW2 2311   3.845   2.559   2.509
 3222SOL     OW 2312   3.751   3.458   1.979
 3222SOL    HW1 2313   3.732   3.362   2.000
 3222SOL    HW2 2314   3.718   3.516   2.054
 3226SOL     OW 2315   3.921   2.838   3.126
 3226SOL    HW1 2316   4.010   2.793   3.112
 3226SOL    HW2 2317   3.848   2.773   3.107
 3232SOL     OW 2318   3.800   2.673   2.651
 3232SOL    HW1 2319   3.899   2.661   2.660
 3232SOL    HW2 2320   3.776   2.768   2.672
 3238SOL     OW 2321   4.045   2.805   2.104
 3238SOL    HW1 2322   4.127   2.844   2.062
 3238SOL    HW2 2323   4.018   2.723   2.055
 3243SOL     OW 2324   4.106   2.562   2.342
 3243SOL    HW1 2325   4.151   2.472   2.339
 3243SOL    HW2 2326   4.012   2.551   2.375
 3250SOL     OW 2327   4.021   1.897   2.033
 3250SOL    HW1 2328   4.070   1.981   2.012
 3250SOL    HW2 2329   4.083   1.832   2.078
 3254SOL     OW 2330   3.802   2.418   3.248
 3254SOL    HW1 2331   3.894   2.417   3.207
 3254SOL    HW2 2332   3.796   2.492   3.315
 3264SOL     OW 2333   4.091   2.962   2.363
 3264SOL    HW1 2334   4.084   3.045   2.307
 3264SOL    HW2 2335   4.095   2.882   2.303
 3273SOL     OW 2336   3.761   3.172   3.144
 3273SOL    HW1 2337   3.814   3.123   3.212
 3273SOL    HW2 2338   3.783   3.270   3.149
 3275SOL     OW 2339   4.031   1.925   2.480
 3275SOL    HW1 2340   4.020   2.019   2.513
 3275SOL    HW2 2341   4.026   1.862   2.557
 3279SOL     OW 2342   4.043   2.672   2.811
 3279SOL    HW1 2343   4.136   2.708   2.816
 3279SOL    HW2 2344   4.037   2.587   2.863
 3280SOL     OW 2345   4.063   2.371   2.868
 3280SOL    HW1 2346   4.011   2.288   2.851
 3280SOL    HW2 2347   4.140   2.376   2.804
 3281SOL     OW 2348   3.732   3.188   2.062
 3281SOL    HW1 2349   3.639   3.209   2.031
 3281SOL    HW2 2350   3.742   3.089   2.075
 3285SOL     OW 2351   3.764   2.406   2.976
 3285SOL    HW1 2352   3.849   2.373   2.935
 3285SOL    HW2 2353   3.777   2.421   3.074
 3293SOL     OW 2354   3.807   3.120   2.884
 3293SOL    HW1 2355   3.802   3.119   2.984
 3293SOL    HW2 2356   3.724   3.079   2.846
 3299SOL     OW 2357   3.987   2.188   2.582
 3299SOL    HW1 2358   3.908   2.239   2.548
 3299SOL    HW2 2359   3.978   2.173   2.680
 3308SOL     OW 2360   3.799   2.207   1.895
 3308SOL    HW1 2361   3.707   2.179   1.866
 3308SOL    HW2 2362   3.830   2.284   1.839
 3309SOL     OW 2363   3.796   2.028   2.180
 3309SOL    HW1 2364   3.779   2.111   2.126
 3309SOL    HW2 2365   3.886   1.991   2.158
 3319SOL     OW 2366   3.803   3.102   2.515
 3319SOL    HW1 2367   3.802   3.055   2.603
 3319SOL    HW2 2368   3.885   3.074   2.464
 3321SOL     OW 2369   4.152   2.286   2.382
 3321SOL    HW1 2370   4.182   2.214   2.320
 3321SOL    HW2 2371   4.113   2.246   2.465
 3327SOL     OW 2372   3.763   2.939   2.162
 3327SOL    HW1 2373   3.862   2.928   2.153
 3327SOL    HW2 2374   3.723   2.853   2.194
   4.78502   4.78502   4.78502
