; mobley_8785107_GMX.itp created by acpype (v: 2023.10.27) on Thu May 21 00:14:42 2026

[ atomtypes ]
;name   bond_type     mass     charge   ptype   sigma         epsilon       Amb
 c5       c5          0.00000  0.00000   A     3.39771e-01   4.51035e-01 ; 1.91  0.1078
 c3       c3          0.00000  0.00000   A     3.39771e-01   4.51035e-01 ; 1.91  0.1078
 os       os          0.00000  0.00000   A     3.15610e-01   3.03758e-01 ; 1.77  0.0726
 hc       hc          0.00000  0.00000   A     2.60018e-01   8.70272e-02 ; 1.46  0.0208
 h1       h1          0.00000  0.00000   A     2.42200e-01   8.70272e-02 ; 1.36  0.0208

[ moleculetype ]
;name            nrexcl
 mobley_8785107   3

[ atoms ]
;   nr  type  resi  res  atom  cgnr     charge      mass       ; qtot   bond_type
     1   c5     1   MOL    C1    1    -0.103400     12.01000 ; qtot -0.103
     2   c5     1   MOL    C2    2    -0.103400     12.01000 ; qtot -0.207
     3   c5     1   MOL    C3    3     0.140100     12.01000 ; qtot -0.067
     4   c5     1   MOL    C4    4     0.140100     12.01000 ; qtot 0.073
     5   c3     1   MOL    C5    5    -0.104100     12.01000 ; qtot -0.031
     6   c3     1   MOL    C6    6    -0.104100     12.01000 ; qtot -0.135
     7   os     1   MOL    O1    7    -0.428600     16.00000 ; qtot -0.563
     8   hc     1   MOL    H1    8     0.051700      1.00800 ; qtot -0.512
     9   hc     1   MOL    H2    9     0.051700      1.00800 ; qtot -0.460
    10   hc     1   MOL    H3   10     0.051700      1.00800 ; qtot -0.408
    11   hc     1   MOL    H4   11     0.051700      1.00800 ; qtot -0.357
    12   h1     1   MOL    H5   12     0.050200      1.00800 ; qtot -0.306
    13   h1     1   MOL    H6   13     0.050200      1.00800 ; qtot -0.256
    14   hc     1   MOL    H7   14     0.042700      1.00800 ; qtot -0.213
    15   hc     1   MOL    H8   15     0.042700      1.00800 ; qtot -0.171
    16   hc     1   MOL    H9   16     0.042700      1.00800 ; qtot -0.128
    17   hc     1   MOL   H10   17     0.042700      1.00800 ; qtot -0.085
    18   hc     1   MOL   H11   18     0.042700      1.00800 ; qtot -0.043
    19   hc     1   MOL   H12   19     0.042700      1.00800 ; qtot -0.000

[ bonds ]
;   ai     aj funct   r             k
     1      2   1    1.5483e-01    1.8418e+05 ;     C1 - C2    
     1      3   1    1.5483e-01    1.8418e+05 ;     C1 - C3    
     1      8   1    1.0954e-01    2.8989e+05 ;     C1 - H1    
     1      9   1    1.0954e-01    2.8989e+05 ;     C1 - H2    
     2      4   1    1.5483e-01    1.8418e+05 ;     C2 - C4    
     2     10   1    1.0954e-01    2.8989e+05 ;     C2 - H3    
     2     11   1    1.0954e-01    2.8989e+05 ;     C2 - H4    
     3      5   1    1.5372e-01    1.9049e+05 ;     C3 - C5    
     3      7   1    1.4346e-01    2.3063e+05 ;     C3 - O1    
     3     12   1    1.0972e-01    2.8768e+05 ;     C3 - H5    
     4      6   1    1.5372e-01    1.9049e+05 ;     C4 - C6    
     4      7   1    1.4346e-01    2.3063e+05 ;     C4 - O1    
     4     13   1    1.0972e-01    2.8768e+05 ;     C4 - H6    
     5     14   1    1.0962e-01    2.8891e+05 ;     C5 - H7    
     5     15   1    1.0962e-01    2.8891e+05 ;     C5 - H8    
     5     16   1    1.0962e-01    2.8891e+05 ;     C5 - H9    
     6     17   1    1.0962e-01    2.8891e+05 ;     C6 - H10   
     6     18   1    1.0962e-01    2.8891e+05 ;     C6 - H11   
     6     19   1    1.0962e-01    2.8891e+05 ;     C6 - H12   

[ pairs ]
;   ai     aj    funct
     1      6      1 ;     C1 - C6    
     1     13      1 ;     C1 - H6    
     1     14      1 ;     C1 - H7    
     1     15      1 ;     C1 - H8    
     1     16      1 ;     C1 - H9    
     2      5      1 ;     C2 - C5    
     2     12      1 ;     C2 - H5    
     2     17      1 ;     C2 - H10   
     2     18      1 ;     C2 - H11   
     2     19      1 ;     C2 - H12   
     3      6      1 ;     C3 - C6    
     3     10      1 ;     C3 - H3    
     3     11      1 ;     C3 - H4    
     3     13      1 ;     C3 - H6    
     4      5      1 ;     C4 - C5    
     4     12      1 ;     C4 - H5    
     6     10      1 ;     C6 - H3    
     6     11      1 ;     C6 - H4    
     7     10      1 ;     O1 - H3    
     7     11      1 ;     O1 - H4    
     7     14      1 ;     O1 - H7    
     7     15      1 ;     O1 - H8    
     7     16      1 ;     O1 - H9    
     7     17      1 ;     O1 - H10   
     7     18      1 ;     O1 - H11   
     7     19      1 ;     O1 - H12   
     8      4      1 ;     H1 - C4    
     8      5      1 ;     H1 - C5    
     8      7      1 ;     H1 - O1    
     8     10      1 ;     H1 - H3    
     8     11      1 ;     H1 - H4    
     8     12      1 ;     H1 - H5    
     9      4      1 ;     H2 - C4    
     9      5      1 ;     H2 - C5    
     9      7      1 ;     H2 - O1    
     9     10      1 ;     H2 - H3    
     9     11      1 ;     H2 - H4    
     9     12      1 ;     H2 - H5    
    10     13      1 ;     H3 - H6    
    11     13      1 ;     H4 - H6    
    12     14      1 ;     H5 - H7    
    12     15      1 ;     H5 - H8    
    12     16      1 ;     H5 - H9    
    13     17      1 ;     H6 - H10   
    13     18      1 ;     H6 - H11   
    13     19      1 ;     H6 - H12   

[ angles ]
;   ai     aj     ak    funct   theta         cth
     1      2      4      1    1.0383e+02    5.1748e+02 ;     C1 - C2     - C4    
     1      2     10      1    1.1117e+02    3.5690e+02 ;     C1 - C2     - H3    
     1      2     11      1    1.1117e+02    3.5690e+02 ;     C1 - C2     - H4    
     1      3      5      1    1.1360e+02    4.9647e+02 ;     C1 - C3     - C5    
     1      3      7      1    1.0614e+02    6.4793e+02 ;     C1 - C3     - O1    
     1      3     12      1    1.1117e+02    3.5690e+02 ;     C1 - C3     - H5    
     2      1      3      1    1.0383e+02    5.1748e+02 ;     C2 - C1     - C3    
     2      1      8      1    1.1117e+02    3.5690e+02 ;     C2 - C1     - H1    
     2      1      9      1    1.1117e+02    3.5690e+02 ;     C2 - C1     - H2    
     2      4      6      1    1.1360e+02    4.9647e+02 ;     C2 - C4     - C6    
     2      4      7      1    1.0614e+02    6.4793e+02 ;     C2 - C4     - O1    
     2      4     13      1    1.1117e+02    3.5690e+02 ;     C2 - C4     - H6    
     3      1      8      1    1.1117e+02    3.5690e+02 ;     C3 - C1     - H1    
     3      1      9      1    1.1117e+02    3.5690e+02 ;     C3 - C1     - H2    
     3      5     14      1    1.1053e+02    3.6033e+02 ;     C3 - C5     - H7    
     3      5     15      1    1.1053e+02    3.6033e+02 ;     C3 - C5     - H8    
     3      5     16      1    1.1053e+02    3.6033e+02 ;     C3 - C5     - H9    
     3      7      4      1    1.0926e+02    7.4986e+02 ;     C3 - O1     - C4    
     4      2     10      1    1.1117e+02    3.5690e+02 ;     C4 - C2     - H3    
     4      2     11      1    1.1117e+02    3.5690e+02 ;     C4 - C2     - H4    
     4      6     17      1    1.1053e+02    3.6033e+02 ;     C4 - C6     - H10   
     4      6     18      1    1.1053e+02    3.6033e+02 ;     C4 - C6     - H11   
     4      6     19      1    1.1053e+02    3.6033e+02 ;     C4 - C6     - H12   
     5      3      7      1    1.0897e+02    6.4224e+02 ;     C5 - C3     - O1    
     5      3     12      1    1.0924e+02    3.6242e+02 ;     C5 - C3     - H5    
     6      4      7      1    1.0897e+02    6.4224e+02 ;     C6 - C4     - O1    
     6      4     13      1    1.0924e+02    3.6242e+02 ;     C6 - C4     - H6    
     7      3     12      1    1.0846e+02    4.7229e+02 ;     O1 - C3     - H5    
     7      4     13      1    1.0846e+02    4.7229e+02 ;     O1 - C4     - H6    
     8      1      9      1    1.0722e+02    3.0049e+02 ;     H1 - C1     - H2    
    10      2     11      1    1.0722e+02    3.0049e+02 ;     H3 - C2     - H4    
    14      5     15      1    1.0773e+02    2.9957e+02 ;     H7 - C5     - H8    
    14      5     16      1    1.0773e+02    2.9957e+02 ;     H7 - C5     - H9    
    15      5     16      1    1.0773e+02    2.9957e+02 ;     H8 - C5     - H9    
    17      6     18      1    1.0773e+02    2.9957e+02 ;    H10 - C6     - H11   
    17      6     19      1    1.0773e+02    2.9957e+02 ;    H10 - C6     - H12   
    18      6     19      1    1.0773e+02    2.9957e+02 ;    H11 - C6     - H12   

[ dihedrals ] ; propers
; for gromacs 4.5 or higher, using funct 9
;    i      j      k      l   func   phase     kd      pn
     1      2      4      6      9     0.00   2.17568   3 ;     C1-    C2-    C4-    C6
     1      2      4      7      9     0.00   0.65084   3 ;     C1-    C2-    C4-    O1
     1      2      4     13      9     0.00   0.65084   3 ;     C1-    C2-    C4-    H6
     1      3      5     14      9     0.00   0.54392   3 ;     C1-    C3-    C5-    H7
     1      3      5     15      9     0.00   0.54392   3 ;     C1-    C3-    C5-    H8
     1      3      5     16      9     0.00   0.54392   3 ;     C1-    C3-    C5-    H9
     1      3      7      4      9     0.00   0.33472   2 ;     C1-    C3-    O1-    C4
     1      3      7      4      9     0.00   3.13800   3 ;     C1-    C3-    O1-    C4
     1      3      7      4      9   180.00   3.68192   1 ;     C1-    C3-    O1-    C4
     2      1      3      5      9     0.00   2.17568   3 ;     C2-    C1-    C3-    C5
     2      1      3      7      9     0.00   0.65084   3 ;     C2-    C1-    C3-    O1
     2      1      3     12      9     0.00   0.65084   3 ;     C2-    C1-    C3-    H5
     2      4      6     17      9     0.00   0.54392   3 ;     C2-    C4-    C6-   H10
     2      4      6     18      9     0.00   0.54392   3 ;     C2-    C4-    C6-   H11
     2      4      6     19      9     0.00   0.54392   3 ;     C2-    C4-    C6-   H12
     2      4      7      3      9     0.00   0.33472   2 ;     C2-    C4-    O1-    C3
     2      4      7      3      9     0.00   3.13800   3 ;     C2-    C4-    O1-    C3
     2      4      7      3      9   180.00   3.68192   1 ;     C2-    C4-    O1-    C3
     3      1      2      4      9     0.00   2.17568   3 ;     C3-    C1-    C2-    C4
     3      1      2     10      9     0.00   0.54392   3 ;     C3-    C1-    C2-    H3
     3      1      2     11      9     0.00   0.54392   3 ;     C3-    C1-    C2-    H4
     3      7      4      6      9     0.00   0.33472   2 ;     C3-    O1-    C4-    C6
     3      7      4      6      9     0.00   3.13800   3 ;     C3-    O1-    C4-    C6
     3      7      4      6      9   180.00   3.68192   1 ;     C3-    O1-    C4-    C6
     3      7      4     13      9     0.00   1.41001   3 ;     C3-    O1-    C4-    H6
     4      7      3      5      9     0.00   0.33472   2 ;     C4-    O1-    C3-    C5
     4      7      3      5      9     0.00   3.13800   3 ;     C4-    O1-    C3-    C5
     4      7      3      5      9   180.00   3.68192   1 ;     C4-    O1-    C3-    C5
     4      7      3     12      9     0.00   1.41001   3 ;     C4-    O1-    C3-    H5
     6      4      2     10      9     0.00   0.54392   3 ;     C6-    C4-    C2-    H3
     6      4      2     11      9     0.00   0.54392   3 ;     C6-    C4-    C2-    H4
     7      3      5     14      9     0.00   0.00000   0 ;     O1-    C3-    C5-    H7
     7      3      5     14      9     0.00   1.04600   1 ;     O1-    C3-    C5-    H7
     7      3      5     15      9     0.00   0.00000   0 ;     O1-    C3-    C5-    H8
     7      3      5     15      9     0.00   1.04600   1 ;     O1-    C3-    C5-    H8
     7      3      5     16      9     0.00   0.00000   0 ;     O1-    C3-    C5-    H9
     7      3      5     16      9     0.00   1.04600   1 ;     O1-    C3-    C5-    H9
     7      4      2     10      9     0.00   0.00000   0 ;     O1-    C4-    C2-    H3
     7      4      2     10      9     0.00   1.04600   1 ;     O1-    C4-    C2-    H3
     7      4      2     11      9     0.00   0.00000   0 ;     O1-    C4-    C2-    H4
     7      4      2     11      9     0.00   1.04600   1 ;     O1-    C4-    C2-    H4
     7      4      6     17      9     0.00   0.00000   0 ;     O1-    C4-    C6-   H10
     7      4      6     17      9     0.00   1.04600   1 ;     O1-    C4-    C6-   H10
     7      4      6     18      9     0.00   0.00000   0 ;     O1-    C4-    C6-   H11
     7      4      6     18      9     0.00   1.04600   1 ;     O1-    C4-    C6-   H11
     7      4      6     19      9     0.00   0.00000   0 ;     O1-    C4-    C6-   H12
     7      4      6     19      9     0.00   1.04600   1 ;     O1-    C4-    C6-   H12
     8      1      2      4      9     0.00   0.54392   3 ;     H1-    C1-    C2-    C4
     8      1      2     10      9     0.00   0.50208   3 ;     H1-    C1-    C2-    H3
     8      1      2     11      9     0.00   0.50208   3 ;     H1-    C1-    C2-    H4
     8      1      3      5      9     0.00   0.54392   3 ;     H1-    C1-    C3-    C5
     8      1      3      7      9     0.00   0.00000   0 ;     H1-    C1-    C3-    O1
     8      1      3      7      9     0.00   1.04600   1 ;     H1-    C1-    C3-    O1
     8      1      3     12      9     0.00   0.65084   3 ;     H1-    C1-    C3-    H5
     9      1      2      4      9     0.00   0.54392   3 ;     H2-    C1-    C2-    C4
     9      1      2     10      9     0.00   0.50208   3 ;     H2-    C1-    C2-    H3
     9      1      2     11      9     0.00   0.50208   3 ;     H2-    C1-    C2-    H4
     9      1      3      5      9     0.00   0.54392   3 ;     H2-    C1-    C3-    C5
     9      1      3      7      9     0.00   0.00000   0 ;     H2-    C1-    C3-    O1
     9      1      3      7      9     0.00   1.04600   1 ;     H2-    C1-    C3-    O1
     9      1      3     12      9     0.00   0.65084   3 ;     H2-    C1-    C3-    H5
    10      2      4     13      9     0.00   0.65084   3 ;     H3-    C2-    C4-    H6
    11      2      4     13      9     0.00   0.65084   3 ;     H4-    C2-    C4-    H6
    12      3      5     14      9     0.00   0.65084   3 ;     H5-    C3-    C5-    H7
    12      3      5     15      9     0.00   0.65084   3 ;     H5-    C3-    C5-    H8
    12      3      5     16      9     0.00   0.65084   3 ;     H5-    C3-    C5-    H9
    13      4      6     17      9     0.00   0.65084   3 ;     H6-    C4-    C6-   H10
    13      4      6     18      9     0.00   0.65084   3 ;     H6-    C4-    C6-   H11
    13      4      6     19      9     0.00   0.65084   3 ;     H6-    C4-    C6-   H12
