mobley_1733799_GMX.gro created by acpype (v: 2023.10.27) on Wed May 20 23:44:56 2026
 2392
    1MOL     C1    1   2.210   2.382   2.268
    1MOL     C2    2   2.422   2.266   2.274
    1MOL     C3    3   2.208   2.385   2.408
    1MOL     C4    4   2.420   2.269   2.413
    1MOL     C5    5   2.317   2.323   2.201
    1MOL     C6    6   2.313   2.329   2.480
    1MOL     O1    7   2.319   2.320   2.065
    1MOL    BR1    8   2.310   2.334   2.669
    1MOL     H1    9   2.128   2.426   2.213
    1MOL     H2   10   2.505   2.220   2.222
    1MOL     H3   11   2.124   2.432   2.458
    1MOL     H4   12   2.503   2.225   2.468
    1MOL     H5   13   2.396   2.268   2.036
   14SOL     OW   14   1.460   1.505   1.339
   14SOL    HW1   15   1.484   1.599   1.365
   14SOL    HW2   16   1.444   1.451   1.421
   18SOL     OW   17   1.127   1.341   1.690
   18SOL    HW1   18   1.174   1.341   1.778
   18SOL    HW2   19   1.079   1.254   1.679
   31SOL     OW   20   1.293   1.228   1.423
   31SOL    HW1   21   1.330   1.155   1.365
   31SOL    HW2   22   1.345   1.233   1.508
   35SOL     OW   23   1.187   1.792   1.616
   35SOL    HW1   24   1.211   1.852   1.540
   35SOL    HW2   25   1.194   1.697   1.586
   56SOL     OW   26   1.227   1.550   1.506
   56SOL    HW1   27   1.233   1.473   1.570
   56SOL    HW2   28   1.175   1.524   1.426
   95SOL     OW   29   1.754   1.223   1.588
   95SOL    HW1   30   1.845   1.184   1.575
   95SOL    HW2   31   1.762   1.319   1.612
   97SOL     OW   32   1.592   1.629   1.625
   97SOL    HW1   33   1.619   1.663   1.535
   97SOL    HW2   34   1.671   1.591   1.671
  122SOL     OW   35   1.728   0.935   1.854
  122SOL    HW1   36   1.682   0.928   1.765
  122SOL    HW2   37   1.666   0.979   1.920
  126SOL     OW   38   0.980   1.573   1.700
  126SOL    HW1   39   0.960   1.617   1.612
  126SOL    HW2   40   1.019   1.482   1.684
  127SOL     OW   41   1.859   1.518   1.605
  127SOL    HW1   42   1.873   1.545   1.510
  127SOL    HW2   43   1.942   1.540   1.658
  142SOL     OW   44   1.369   0.950   1.660
  142SOL    HW1   45   1.408   1.039   1.680
  142SOL    HW2   46   1.379   0.930   1.563
  147SOL     OW   47   0.930   1.678   1.465
  147SOL    HW1   48   0.906   1.660   1.370
  147SOL    HW2   49   0.960   1.772   1.475
  152SOL     OW   50   1.759   1.747   1.154
  152SOL    HW1   51   1.820   1.777   1.081
  152SOL    HW2   52   1.721   1.658   1.132
  153SOL     OW   53   1.252   1.731   1.128
  153SOL    HW1   54   1.336   1.736   1.074
  153SOL    HW2   55   1.229   1.635   1.146
  163SOL     OW   56   1.650   1.720   1.394
  163SOL    HW1   57   1.703   1.730   1.310
  163SOL    HW2   58   1.623   1.810   1.428
  171SOL     OW   59   1.614   1.292   1.289
  171SOL    HW1   60   1.674   1.295   1.369
  171SOL    HW2   61   1.539   1.356   1.302
  184SOL     OW   62   1.493   1.767   0.959
  184SOL    HW1   63   1.526   1.831   0.890
  184SOL    HW2   64   1.559   1.761   1.034
  186SOL     OW   65   1.450   1.220   1.633
  186SOL    HW1   66   1.441   1.210   1.732
  186SOL    HW2   67   1.546   1.213   1.607
  192SOL     OW   68   1.730   0.934   1.517
  192SOL    HW1   69   1.768   1.025   1.532
  192SOL    HW2   70   1.722   0.917   1.418
  197SOL     OW   71   1.861   1.569   0.851
  197SOL    HW1   72   1.790   1.557   0.781
  197SOL    HW2   73   1.862   1.490   0.911
  203SOL     OW   74   1.705   1.487   1.104
  203SOL    HW1   75   1.612   1.462   1.077
  203SOL    HW2   76   1.731   1.437   1.186
  219SOL     OW   77   1.555   1.511   2.565
  219SOL    HW1   78   1.498   1.495   2.646
  219SOL    HW2   79   1.496   1.521   2.485
  227SOL     OW   80   1.460   1.505   3.201
  227SOL    HW1   81   1.484   1.599   3.227
  227SOL    HW2   82   1.444   1.451   3.283
  238SOL     OW   83   1.842   1.767   2.221
  238SOL    HW1   84   1.896   1.738   2.301
  238SOL    HW2   85   1.872   1.857   2.192
  240SOL     OW   86   1.689   0.922   2.474
  240SOL    HW1   87   1.784   0.893   2.482
  240SOL    HW2   88   1.681   0.987   2.399
  241SOL     OW   89   1.641   1.108   2.294
  241SOL    HW1   90   1.727   1.110   2.242
  241SOL    HW2   91   1.655   1.155   2.382
  244SOL     OW   92   1.293   1.228   3.285
  244SOL    HW1   93   1.330   1.155   3.227
  244SOL    HW2   94   1.345   1.233   3.370
  247SOL     OW   95   1.525   0.999   2.052
  247SOL    HW1   96   1.462   0.923   2.065
  247SOL    HW2   97   1.573   1.017   2.138
  248SOL     OW   98   1.187   1.792   3.478
  248SOL    HW1   99   1.211   1.852   3.402
  248SOL    HW2  100   1.194   1.697   3.448
  250SOL     OW  101   1.466   1.417   2.815
  250SOL    HW1  102   1.407   1.423   2.895
  250SOL    HW2  103   1.451   1.329   2.769
  251SOL     OW  104   1.667   1.714   2.434
  251SOL    HW1  105   1.626   1.691   2.346
  251SOL    HW2  106   1.649   1.640   2.499
  254SOL     OW  107   1.576   1.662   2.169
  254SOL    HW1  108   1.665   1.708   2.172
  254SOL    HW2  109   1.555   1.638   2.074
  264SOL     OW  110   1.362   1.144   2.407
  264SOL    HW1  111   1.445   1.115   2.359
  264SOL    HW2  112   1.313   1.211   2.351
  266SOL     OW  113   1.008   1.456   2.339
  266SOL    HW1  114   0.962   1.528   2.287
  266SOL    HW2  115   1.004   1.476   2.437
  268SOL     OW  116   1.795   1.066   2.735
  268SOL    HW1  117   1.733   1.051   2.659
  268SOL    HW2  118   1.743   1.077   2.820
  269SOL     OW  119   1.227   1.550   3.368
  269SOL    HW1  120   1.233   1.473   3.432
  269SOL    HW2  121   1.175   1.524   3.288
  273SOL     OW  122   1.111   1.776   2.099
  273SOL    HW1  123   1.051   1.714   2.149
  273SOL    HW2  124   1.142   1.732   2.014
  275SOL     OW  125   1.632   1.377   1.943
  275SOL    HW1  126   1.600   1.471   1.933
  275SOL    HW2  127   1.556   1.314   1.931
  279SOL     OW  128   0.940   1.698   2.766
  279SOL    HW1  129   1.020   1.641   2.787
  279SOL    HW2  130   0.891   1.658   2.689
  289SOL     OW  131   1.434   1.188   1.903
  289SOL    HW1  132   1.466   1.112   1.960
  289SOL    HW2  133   1.342   1.215   1.933
  293SOL     OW  134   1.227   1.570   2.655
  293SOL    HW1  135   1.248   1.644   2.590
  293SOL    HW2  136   1.295   1.570   2.728
  295SOL     OW  137   1.271   1.797   2.453
  295SOL    HW1  138   1.315   1.861   2.389
  295SOL    HW2  139   1.221   1.849   2.523
  301SOL     OW  140   1.429   1.173   2.729
  301SOL    HW1  141   1.374   1.089   2.722
  301SOL    HW2  142   1.455   1.202   2.637
  303SOL     OW  143   1.857   0.833   2.239
  303SOL    HW1  144   1.899   0.769   2.303
  303SOL    HW2  145   1.819   0.782   2.161
  305SOL     OW  146   1.664   1.280   2.519
  305SOL    HW1  147   1.763   1.288   2.533
  305SOL    HW2  148   1.619   1.364   2.550
  308SOL     OW  149   1.754   1.223   3.450
  308SOL    HW1  150   1.845   1.184   3.437
  308SOL    HW2  151   1.762   1.319   3.474
  310SOL     OW  152   1.592   1.629   3.487
  310SOL    HW1  153   1.619   1.663   3.397
  310SOL    HW2  154   1.671   1.591   3.533
  311SOL     OW  155   1.111   1.195   2.962
  311SOL    HW1  156   1.071   1.239   3.043
  311SOL    HW2  157   1.070   1.232   2.879
  312SOL     OW  158   1.638   1.099   2.941
  312SOL    HW1  159   1.643   1.180   3.000
  312SOL    HW2  160   1.552   1.101   2.890
  321SOL     OW  161   1.252   1.348   2.250
  321SOL    HW1  162   1.302   1.425   2.290
  321SOL    HW2  163   1.157   1.350   2.282
  322SOL     OW  164   1.272   1.445   3.004
  322SOL    HW1  165   1.319   1.458   3.091
  322SOL    HW2  166   1.206   1.371   3.013
  340SOL     OW  167   1.859   1.518   3.467
  340SOL    HW1  168   1.873   1.545   3.372
  340SOL    HW2  169   1.942   1.540   3.520
  344SOL     OW  170   1.068   1.333   2.711
  344SOL    HW1  171   1.075   1.249   2.656
  344SOL    HW2  172   1.130   1.402   2.675
  363SOL     OW  173   1.347   1.059   3.096
  363SOL    HW1  174   1.371   0.996   3.022
  363SOL    HW2  175   1.257   1.099   3.078
  364SOL     OW  176   1.302   0.855   2.171
  364SOL    HW1  177   1.216   0.824   2.213
  364SOL    HW2  178   1.298   0.841   2.072
  365SOL     OW  179   1.759   1.747   3.016
  365SOL    HW1  180   1.820   1.777   2.943
  365SOL    HW2  181   1.721   1.658   2.994
  366SOL     OW  182   1.252   1.731   2.990
  366SOL    HW1  183   1.336   1.736   2.936
  366SOL    HW2  184   1.229   1.635   3.008
  370SOL     OW  185   1.388   1.573   2.339
  370SOL    HW1  186   1.455   1.585   2.265
  370SOL    HW2  187   1.348   1.662   2.362
  372SOL     OW  188   1.280   0.927   2.534
  372SOL    HW1  189   1.340   0.846   2.536
  372SOL    HW2  190   1.320   0.996   2.474
  375SOL     OW  191   1.650   1.720   3.256
  375SOL    HW1  192   1.703   1.730   3.172
  375SOL    HW2  193   1.623   1.810   3.290
  378SOL     OW  194   1.194   1.612   1.893
  378SOL    HW1  195   1.200   1.519   1.930
  378SOL    HW2  196   1.135   1.612   1.813
  381SOL     OW  197   1.504   1.607   1.906
  381SOL    HW1  198   1.412   1.644   1.913
  381SOL    HW2  199   1.542   1.627   1.816
  383SOL     OW  200   1.614   1.292   3.151
  383SOL    HW1  201   1.674   1.295   3.231
  383SOL    HW2  202   1.539   1.356   3.164
  384SOL     OW  203   1.039   1.098   2.558
  384SOL    HW1  204   0.969   1.051   2.612
  384SOL    HW2  205   1.098   1.030   2.515
  394SOL     OW  206   1.183   1.335   1.981
  394SOL    HW1  207   1.084   1.324   1.983
  394SOL    HW2  208   1.217   1.350   2.074
  396SOL     OW  209   1.493   1.767   2.821
  396SOL    HW1  210   1.526   1.831   2.752
  396SOL    HW2  211   1.559   1.761   2.896
  400SOL     OW  212   1.674   0.883   3.116
  400SOL    HW1  213   1.647   0.794   3.079
  400SOL    HW2  214   1.675   0.951   3.043
  405SOL     OW  215   0.859   1.374   1.878
  405SOL    HW1  216   0.813   1.389   1.966
  405SOL    HW2  217   0.903   1.459   1.848
  409SOL     OW  218   1.861   1.569   2.713
  409SOL    HW1  219   1.790   1.557   2.643
  409SOL    HW2  220   1.862   1.490   2.773
  415SOL     OW  221   1.705   1.487   2.966
  415SOL    HW1  222   1.612   1.462   2.939
  415SOL    HW2  223   1.731   1.437   3.048
  417SOL     OW  224   0.812   1.586   2.549
  417SOL    HW1  225   0.844   1.596   2.455
  417SOL    HW2  226   0.733   1.524   2.551
  426SOL     OW  227   0.875   1.646   2.199
  426SOL    HW1  228   0.798   1.611   2.145
  426SOL    HW2  229   0.843   1.717   2.261
  534SOL     OW  230   0.850   2.660   1.823
  534SOL    HW1  231   0.846   2.736   1.888
  534SOL    HW2  232   0.872   2.696   1.732
  538SOL     OW  233   1.460   3.367   1.339
  538SOL    HW1  234   1.484   3.461   1.365
  538SOL    HW2  235   1.444   3.313   1.421
  540SOL     OW  236   1.603   2.309   0.737
  540SOL    HW1  237   1.529   2.355   0.687
  540SOL    HW2  238   1.654   2.377   0.790
  542SOL     OW  239   1.127   3.203   1.690
  542SOL    HW1  240   1.174   3.203   1.778
  542SOL    HW2  241   1.079   3.116   1.679
  547SOL     OW  242   1.594   1.976   1.480
  547SOL    HW1  243   1.576   2.043   1.408
  547SOL    HW2  244   1.591   2.022   1.569
  555SOL     OW  245   1.293   3.090   1.423
  555SOL    HW1  246   1.330   3.017   1.365
  555SOL    HW2  247   1.345   3.095   1.508
  564SOL     OW  248   1.281   2.207   0.944
  564SOL    HW1  249   1.195   2.157   0.931
  564SOL    HW2  250   1.343   2.153   1.000
  566SOL     OW  251   0.807   2.467   1.465
  566SOL    HW1  252   0.760   2.464   1.554
  566SOL    HW2  253   0.756   2.412   1.399
  567SOL     OW  254   1.394   2.331   1.674
  567SOL    HW1  255   1.374   2.374   1.762
  567SOL    HW2  256   1.472   2.269   1.683
  568SOL     OW  257   0.973   2.752   1.572
  568SOL    HW1  258   1.019   2.668   1.543
  568SOL    HW2  259   0.917   2.786   1.497
  569SOL     OW  260   0.991   2.272   1.242
  569SOL    HW1  261   0.914   2.306   1.296
  569SOL    HW2  262   0.957   2.221   1.163
  574SOL     OW  263   1.719   2.447   1.831
  574SOL    HW1  264   1.693   2.536   1.795
  574SOL    HW2  265   1.717   2.379   1.758
  579SOL     OW  266   1.795   2.928   0.873
  579SOL    HW1  267   1.733   2.913   0.797
  579SOL    HW2  268   1.743   2.939   0.958
  580SOL     OW  269   1.227   3.412   1.506
  580SOL    HW1  270   1.233   3.335   1.570
  580SOL    HW2  271   1.175   3.386   1.426
  592SOL     OW  272   1.547   2.084   1.729
  592SOL    HW1  273   1.542   2.121   1.821
  592SOL    HW2  274   1.475   2.015   1.717
  593SOL     OW  275   0.781   2.126   1.749
  593SOL    HW1  276   0.848   2.065   1.792
  593SOL    HW2  277   0.708   2.145   1.814
  595SOL     OW  278   1.351   2.452   1.433
  595SOL    HW1  279   1.379   2.409   1.518
  595SOL    HW2  280   1.376   2.548   1.434
  602SOL     OW  281   1.076   2.545   1.464
  602SOL    HW1  282   0.996   2.484   1.467
  602SOL    HW2  283   1.157   2.492   1.440
  612SOL     OW  284   1.466   2.452   0.992
  612SOL    HW1  285   1.436   2.357   0.999
  612SOL    HW2  286   1.539   2.468   1.058
  618SOL     OW  287   1.754   3.085   1.588
  618SOL    HW1  288   1.845   3.046   1.575
  618SOL    HW2  289   1.762   3.181   1.612
  620SOL     OW  290   1.592   3.491   1.625
  620SOL    HW1  291   1.619   3.525   1.535
  620SOL    HW2  292   1.671   3.453   1.671
  622SOL     OW  293   1.638   2.961   1.079
  622SOL    HW1  294   1.643   3.042   1.138
  622SOL    HW2  295   1.552   2.963   1.028
  623SOL     OW  296   0.915   1.951   1.402
  623SOL    HW1  297   0.940   1.931   1.307
  623SOL    HW2  298   0.987   2.007   1.444
  624SOL     OW  299   0.980   2.978   1.719
  624SOL    HW1  300   0.881   2.984   1.729
  624SOL    HW2  301   1.003   2.898   1.663
  627SOL     OW  302   1.274   2.248   1.262
  627SOL    HW1  303   1.295   2.322   1.326
  627SOL    HW2  304   1.185   2.265   1.219
  636SOL     OW  305   1.587   2.641   1.670
  636SOL    HW1  306   1.495   2.679   1.665
  636SOL    HW2  307   1.647   2.688   1.605
  637SOL     OW  308   1.013   1.967   1.770
  637SOL    HW1  309   1.019   2.052   1.718
  637SOL    HW2  310   1.045   1.891   1.713
  640SOL     OW  311   1.360   2.724   1.045
  640SOL    HW1  312   1.285   2.724   0.979
  640SOL    HW2  313   1.397   2.632   1.054
  645SOL     OW  314   1.728   2.797   1.854
  645SOL    HW1  315   1.682   2.790   1.765
  645SOL    HW2  316   1.666   2.841   1.920
  650SOL     OW  317   1.859   3.380   1.605
  650SOL    HW1  318   1.873   3.407   1.510
  650SOL    HW2  319   1.942   3.402   1.658
  657SOL     OW  320   1.138   2.242   1.678
  657SOL    HW1  321   1.093   2.305   1.742
  657SOL    HW2  322   1.231   2.273   1.661
  658SOL     OW  323   1.160   2.069   1.477
  658SOL    HW1  324   1.160   2.133   1.554
  658SOL    HW2  325   1.188   2.117   1.394
  662SOL     OW  326   1.002   2.658   1.238
  662SOL    HW1  327   1.043   2.626   1.324
  662SOL    HW2  328   0.906   2.631   1.235
  665SOL     OW  329   1.369   2.812   1.660
  665SOL    HW1  330   1.408   2.901   1.680
  665SOL    HW2  331   1.379   2.792   1.563
  667SOL     OW  332   1.657   2.466   1.206
  667SOL    HW1  333   1.619   2.397   1.268
  667SOL    HW2  334   1.739   2.430   1.162
  673SOL     OW  335   1.347   2.921   1.234
  673SOL    HW1  336   1.371   2.858   1.160
  673SOL    HW2  337   1.257   2.961   1.216
  686SOL     OW  338   1.650   3.582   1.394
  686SOL    HW1  339   1.703   3.592   1.310
  686SOL    HW2  340   1.623   3.672   1.428
  687SOL     OW  341   1.841   2.037   0.963
  687SOL    HW1  342   1.880   1.952   0.927
  687SOL    HW2  343   1.743   2.039   0.944
  694SOL     OW  344   1.614   3.154   1.289
  694SOL    HW1  345   1.674   3.157   1.369
  694SOL    HW2  346   1.539   3.218   1.302
  698SOL     OW  347   1.709   2.247   1.381
  698SOL    HW1  348   1.782   2.316   1.385
  698SOL    HW2  349   1.737   2.172   1.322
  703SOL     OW  350   1.440   2.718   1.398
  703SOL    HW1  351   1.383   2.770   1.335
  703SOL    HW2  352   1.536   2.730   1.374
  708SOL     OW  353   0.716   2.427   1.708
  708SOL    HW1  354   0.735   2.492   1.782
  708SOL    HW2  355   0.776   2.347   1.717
  709SOL     OW  356   1.450   3.082   1.633
  709SOL    HW1  357   1.441   3.072   1.732
  709SOL    HW2  358   1.546   3.075   1.607
  711SOL     OW  359   1.674   2.745   1.254
  711SOL    HW1  360   1.647   2.656   1.217
  711SOL    HW2  361   1.675   2.813   1.181
  714SOL     OW  362   1.777   2.204   1.642
  714SOL    HW1  363   1.760   2.235   1.548
  714SOL    HW2  364   1.693   2.167   1.680
  715SOL     OW  365   1.730   2.796   1.517
  715SOL    HW1  366   1.768   2.887   1.532
  715SOL    HW2  367   1.722   2.779   1.418
  724SOL     OW  368   1.824   2.054   1.227
  724SOL    HW1  369   1.820   1.964   1.271
  724SOL    HW2  370   1.827   2.043   1.128
  726SOL     OW  371   1.705   3.349   1.104
  726SOL    HW1  372   1.612   3.324   1.077
  726SOL    HW2  373   1.731   3.299   1.186
  729SOL     OW  374   1.424   2.076   1.112
  729SOL    HW1  375   1.476   2.011   1.167
  729SOL    HW2  376   1.375   2.139   1.173
  735SOL     OW  377   1.593   2.083   0.882
  735SOL    HW1  378   1.509   2.082   0.936
  735SOL    HW2  379   1.595   2.166   0.826
  742SOL     OW  380   1.555   3.373   2.565
  742SOL    HW1  381   1.498   3.357   2.646
  742SOL    HW2  382   1.496   3.383   2.485
  743SOL     OW  383   1.135   2.565   2.579
  743SOL    HW1  384   1.192   2.643   2.554
  743SOL    HW2  385   1.075   2.591   2.655
  744SOL     OW  386   1.755   2.469   2.093
  744SOL    HW1  387   1.743   2.456   1.994
  744SOL    HW2  388   1.725   2.388   2.142
  745SOL     OW  389   0.768   3.006   2.885
  745SOL    HW1  390   0.690   3.023   2.945
  745SOL    HW2  391   0.802   3.093   2.849
  747SOL     OW  392   0.685   2.874   2.527
  747SOL    HW1  393   0.754   2.858   2.597
  747SOL    HW2  394   0.612   2.931   2.565
  750SOL     OW  395   1.460   3.367   3.201
  750SOL    HW1  396   1.484   3.461   3.227
  750SOL    HW2  397   1.444   3.313   3.283
  752SOL     OW  398   1.603   2.309   2.599
  752SOL    HW1  399   1.529   2.355   2.549
  752SOL    HW2  400   1.654   2.377   2.652
  759SOL     OW  401   1.594   1.976   3.342
  759SOL    HW1  402   1.576   2.043   3.270
  759SOL    HW2  403   1.591   2.022   3.431
  761SOL     OW  404   1.842   3.629   2.221
  761SOL    HW1  405   1.896   3.600   2.301
  761SOL    HW2  406   1.872   3.719   2.192
  763SOL     OW  407   1.689   2.784   2.474
  763SOL    HW1  408   1.784   2.755   2.482
  763SOL    HW2  409   1.681   2.849   2.399
  764SOL     OW  410   1.641   2.970   2.294
  764SOL    HW1  411   1.727   2.972   2.242
  764SOL    HW2  412   1.655   3.017   2.382
  767SOL     OW  413   1.293   3.090   3.285
  767SOL    HW1  414   1.330   3.017   3.227
  767SOL    HW2  415   1.345   3.095   3.370
  768SOL     OW  416   0.809   1.866   2.364
  768SOL    HW1  417   0.849   1.957   2.355
  768SOL    HW2  418   0.709   1.874   2.370
  770SOL     OW  419   1.525   2.861   2.052
  770SOL    HW1  420   1.462   2.785   2.065
  770SOL    HW2  421   1.573   2.879   2.138
  773SOL     OW  422   1.466   3.279   2.815
  773SOL    HW1  423   1.407   3.285   2.895
  773SOL    HW2  424   1.451   3.191   2.769
  774SOL     OW  425   1.667   3.576   2.434
  774SOL    HW1  426   1.626   3.553   2.346
  774SOL    HW2  427   1.649   3.502   2.499
  775SOL     OW  428   0.598   2.591   2.132
  775SOL    HW1  429   0.622   2.660   2.064
  775SOL    HW2  430   0.520   2.624   2.186
  776SOL     OW  431   1.281   2.207   2.806
  776SOL    HW1  432   1.195   2.157   2.793
  776SOL    HW2  433   1.343   2.153   2.862
  777SOL     OW  434   1.576   3.524   2.169
  777SOL    HW1  435   1.665   3.570   2.172
  777SOL    HW2  436   1.555   3.500   2.074
  779SOL     OW  437   1.394   2.331   3.536
  779SOL    HW1  438   1.374   2.374   3.624
  779SOL    HW2  439   1.472   2.269   3.545
  781SOL     OW  440   0.991   2.272   3.104
  781SOL    HW1  441   0.914   2.306   3.158
  781SOL    HW2  442   0.957   2.221   3.025
  782SOL     OW  443   1.041   2.563   2.291
  782SOL    HW1  444   1.067   2.559   2.387
  782SOL    HW2  445   0.956   2.512   2.277
  785SOL     OW  446   0.865   2.210   2.057
  785SOL    HW1  447   0.924   2.273   2.008
  785SOL    HW2  448   0.884   2.116   2.028
  786SOL     OW  449   1.719   2.447   3.693
  786SOL    HW1  450   1.693   2.536   3.657
  786SOL    HW2  451   1.717   2.379   3.620
  787SOL     OW  452   1.362   3.006   2.407
  787SOL    HW1  453   1.445   2.977   2.359
  787SOL    HW2  454   1.313   3.073   2.351
  789SOL     OW  455   1.008   3.318   2.339
  789SOL    HW1  456   0.962   3.390   2.287
  789SOL    HW2  457   1.004   3.338   2.437
  791SOL     OW  458   1.795   2.928   2.735
  791SOL    HW1  459   1.733   2.913   2.659
  791SOL    HW2  460   1.743   2.939   2.820
  794SOL     OW  461   1.458   2.597   2.590
  794SOL    HW1  462   1.453   2.532   2.665
  794SOL    HW2  463   1.538   2.656   2.603
  798SOL     OW  464   1.632   3.239   1.943
  798SOL    HW1  465   1.600   3.333   1.933
  798SOL    HW2  466   1.556   3.176   1.931
  800SOL     OW  467   1.400   1.969   2.288
  800SOL    HW1  468   1.376   1.932   2.198
  800SOL    HW2  469   1.499   1.985   2.292
  804SOL     OW  470   1.547   2.084   3.591
  804SOL    HW1  471   1.542   2.121   3.683
  804SOL    HW2  472   1.475   2.015   3.579
  805SOL     OW  473   0.614   1.984   1.979
  805SOL    HW1  474   0.712   1.962   1.986
  805SOL    HW2  475   0.583   1.967   1.886
  808SOL     OW  476   1.351   2.452   3.295
  808SOL    HW1  477   1.379   2.409   3.380
  808SOL    HW2  478   1.376   2.548   3.296
  810SOL     OW  479   0.922   2.365   2.761
  810SOL    HW1  480   0.897   2.356   2.665
  810SOL    HW2  481   0.970   2.283   2.792
  812SOL     OW  482   1.434   3.050   1.903
  812SOL    HW1  483   1.466   2.974   1.960
  812SOL    HW2  484   1.342   3.077   1.933
  814SOL     OW  485   0.935   2.098   2.342
  814SOL    HW1  486   0.887   2.139   2.264
  814SOL    HW2  487   1.034   2.096   2.323
  815SOL     OW  488   1.076   2.545   3.326
  815SOL    HW1  489   0.996   2.484   3.329
  815SOL    HW2  490   1.157   2.492   3.302
  816SOL     OW  491   1.227   3.432   2.655
  816SOL    HW1  492   1.248   3.506   2.590
  816SOL    HW2  493   1.295   3.432   2.728
  818SOL     OW  494   1.271   3.659   2.453
  818SOL    HW1  495   1.315   3.723   2.389
  818SOL    HW2  496   1.221   3.711   2.523
  819SOL     OW  497   1.032   2.411   1.878
  819SOL    HW1  498   0.991   2.493   1.839
  819SOL    HW2  499   1.096   2.437   1.951
  822SOL     OW  500   0.866   2.316   2.504
  822SOL    HW1  501   0.834   2.388   2.442
  822SOL    HW2  502   0.890   2.235   2.451
  823SOL     OW  503   1.017   1.901   2.615
  823SOL    HW1  504   0.945   1.906   2.546
  823SOL    HW2  505   0.993   1.832   2.684
  824SOL     OW  506   1.429   3.035   2.729
  824SOL    HW1  507   1.374   2.951   2.722
  824SOL    HW2  508   1.455   3.064   2.637
  825SOL     OW  509   1.466   2.452   2.854
  825SOL    HW1  510   1.436   2.357   2.861
  825SOL    HW2  511   1.539   2.468   2.920
  826SOL     OW  512   1.857   2.695   2.239
  826SOL    HW1  513   1.899   2.631   2.303
  826SOL    HW2  514   1.819   2.644   2.161
  828SOL     OW  515   1.664   3.142   2.519
  828SOL    HW1  516   1.763   3.150   2.533
  828SOL    HW2  517   1.619   3.226   2.550
  829SOL     OW  518   1.390   2.437   1.940
  829SOL    HW1  519   1.336   2.416   2.021
  829SOL    HW2  520   1.481   2.396   1.949
  831SOL     OW  521   1.754   3.085   3.450
  831SOL    HW1  522   1.845   3.046   3.437
  831SOL    HW2  523   1.762   3.181   3.474
  832SOL     OW  524   1.064   3.209   3.202
  832SOL    HW1  525   0.984   3.186   3.257
  832SOL    HW2  526   1.147   3.183   3.251
  834SOL     OW  527   1.111   3.057   2.962
  834SOL    HW1  528   1.071   3.101   3.043
  834SOL    HW2  529   1.070   3.094   2.879
  835SOL     OW  530   1.638   2.961   2.941
  835SOL    HW1  531   1.643   3.042   3.000
  835SOL    HW2  532   1.552   2.963   2.890
  836SOL     OW  533   0.915   1.951   3.264
  836SOL    HW1  534   0.940   1.931   3.169
  836SOL    HW2  535   0.987   2.007   3.306
  838SOL     OW  536   0.705   2.912   2.230
  838SOL    HW1  537   0.691   2.919   2.329
  838SOL    HW2  538   0.789   2.861   2.212
  840SOL     OW  539   1.274   2.248   3.124
  840SOL    HW1  540   1.295   2.322   3.188
  840SOL    HW2  541   1.185   2.265   3.081
  844SOL     OW  542   1.252   3.210   2.250
  844SOL    HW1  543   1.302   3.287   2.290
  844SOL    HW2  544   1.157   3.212   2.282
  845SOL     OW  545   1.272   3.307   3.004
  845SOL    HW1  546   1.319   3.320   3.091
  845SOL    HW2  547   1.206   3.233   3.013
  846SOL     OW  548   1.582   2.501   2.334
  846SOL    HW1  549   1.551   2.562   2.407
  846SOL    HW2  550   1.632   2.553   2.265
  849SOL     OW  551   1.587   2.641   3.532
  849SOL    HW1  552   1.495   2.679   3.527
  849SOL    HW2  553   1.647   2.688   3.467
  853SOL     OW  554   1.360   2.724   2.907
  853SOL    HW1  555   1.285   2.724   2.841
  853SOL    HW2  556   1.397   2.632   2.916
  854SOL     OW  557   1.209   2.387   2.137
  854SOL    HW1  558   1.222   2.303   2.191
  854SOL    HW2  559   1.180   2.461   2.197
  857SOL     OW  560   0.732   2.496   2.926
  857SOL    HW1  561   0.791   2.470   2.850
  857SOL    HW2  562   0.704   2.592   2.915
  858SOL     OW  563   1.728   2.797   3.716
  858SOL    HW1  564   1.682   2.790   3.627
  858SOL    HW2  565   1.666   2.841   3.782
  860SOL     OW  566   1.622   2.229   2.236
  860SOL    HW1  567   1.624   2.153   2.300
  860SOL    HW2  568   1.574   2.306   2.276
  861SOL     OW  569   1.023   2.628   2.828
  861SOL    HW1  570   1.038   2.649   2.924
  861SOL    HW2  571   0.993   2.533   2.819
  863SOL     OW  572   1.859   3.380   3.467
  863SOL    HW1  573   1.873   3.407   3.372
  863SOL    HW2  574   1.942   3.402   3.520
  865SOL     OW  575   1.540   2.136   1.987
  865SOL    HW1  576   1.479   2.061   2.010
  865SOL    HW2  577   1.562   2.188   2.070
  866SOL     OW  578   1.303   2.700   1.904
  866SOL    HW1  579   1.337   2.607   1.919
  866SOL    HW2  580   1.321   2.727   1.809
  867SOL     OW  581   1.068   3.195   2.711
  867SOL    HW1  582   1.075   3.111   2.656
  867SOL    HW2  583   1.130   3.264   2.675
  870SOL     OW  584   1.138   2.242   3.540
  870SOL    HW1  585   1.093   2.305   3.604
  870SOL    HW2  586   1.231   2.273   3.523
  871SOL     OW  587   1.160   2.069   3.339
  871SOL    HW1  588   1.160   2.133   3.416
  871SOL    HW2  589   1.188   2.117   3.256
  875SOL     OW  590   1.002   2.658   3.100
  875SOL    HW1  591   1.043   2.626   3.186
  875SOL    HW2  592   0.906   2.631   3.097
  878SOL     OW  593   1.369   2.812   3.522
  878SOL    HW1  594   1.408   2.901   3.542
  878SOL    HW2  595   1.379   2.792   3.425
  879SOL     OW  596   0.815   2.434   2.187
  879SOL    HW1  597   0.822   2.345   2.141
  879SOL    HW2  598   0.721   2.468   2.179
  880SOL     OW  599   1.657   2.466   3.068
  880SOL    HW1  600   1.619   2.397   3.130
  880SOL    HW2  601   1.739   2.430   3.024
  886SOL     OW  602   1.347   2.921   3.096
  886SOL    HW1  603   1.371   2.858   3.022
  886SOL    HW2  604   1.257   2.961   3.078
  887SOL     OW  605   1.302   2.717   2.171
  887SOL    HW1  606   1.216   2.686   2.213
  887SOL    HW2  607   1.298   2.703   2.072
  888SOL     OW  608   1.759   3.609   3.016
  888SOL    HW1  609   1.820   3.639   2.943
  888SOL    HW2  610   1.721   3.520   2.994
  889SOL     OW  611   1.252   3.593   2.990
  889SOL    HW1  612   1.336   3.598   2.936
  889SOL    HW2  613   1.229   3.497   3.008
  892SOL     OW  614   1.726   1.997   2.385
  892SOL    HW1  615   1.799   1.980   2.318
  892SOL    HW2  616   1.695   1.910   2.423
  893SOL     OW  617   1.388   3.435   2.339
  893SOL    HW1  618   1.455   3.447   2.265
  893SOL    HW2  619   1.348   3.524   2.362
  895SOL     OW  620   1.280   2.789   2.534
  895SOL    HW1  621   1.340   2.708   2.536
  895SOL    HW2  622   1.320   2.858   2.474
  898SOL     OW  623   1.650   3.582   3.256
  898SOL    HW1  624   1.703   3.592   3.172
  898SOL    HW2  625   1.623   3.672   3.290
  899SOL     OW  626   1.841   2.037   2.825
  899SOL    HW1  627   1.880   1.952   2.789
  899SOL    HW2  628   1.743   2.039   2.806
  901SOL     OW  629   1.194   3.474   1.893
  901SOL    HW1  630   1.200   3.381   1.930
  901SOL    HW2  631   1.135   3.474   1.813
  903SOL     OW  632   0.916   2.772   2.153
  903SOL    HW1  633   0.979   2.810   2.085
  903SOL    HW2  634   0.956   2.689   2.192
  904SOL     OW  635   1.504   3.469   1.906
  904SOL    HW1  636   1.412   3.506   1.913
  904SOL    HW2  637   1.542   3.489   1.816
  906SOL     OW  638   1.614   3.154   3.151
  906SOL    HW1  639   1.674   3.157   3.231
  906SOL    HW2  640   1.539   3.218   3.164
  907SOL     OW  641   1.039   2.960   2.558
  907SOL    HW1  642   0.969   2.913   2.612
  907SOL    HW2  643   1.098   2.892   2.515
  908SOL     OW  644   1.014   2.098   2.833
  908SOL    HW1  645   1.006   2.062   2.740
  908SOL    HW2  646   1.012   2.022   2.898
  910SOL     OW  647   1.709   2.247   3.243
  910SOL    HW1  648   1.782   2.316   3.247
  910SOL    HW2  649   1.737   2.172   3.184
  915SOL     OW  650   1.440   2.718   3.260
  915SOL    HW1  651   1.383   2.770   3.197
  915SOL    HW2  652   1.536   2.730   3.236
  917SOL     OW  653   1.183   3.197   1.981
  917SOL    HW1  654   1.084   3.186   1.983
  917SOL    HW2  655   1.217   3.212   2.074
  919SOL     OW  656   1.493   3.629   2.821
  919SOL    HW1  657   1.526   3.693   2.752
  919SOL    HW2  658   1.559   3.623   2.896
  921SOL     OW  659   1.450   3.082   3.495
  921SOL    HW1  660   1.441   3.072   3.594
  921SOL    HW2  661   1.546   3.075   3.469
  923SOL     OW  662   1.674   2.745   3.116
  923SOL    HW1  663   1.647   2.656   3.079
  923SOL    HW2  664   1.675   2.813   3.043
  924SOL     OW  665   1.225   2.187   2.311
  924SOL    HW1  666   1.290   2.113   2.300
  924SOL    HW2  667   1.245   2.237   2.395
  925SOL     OW  668   0.594   2.607   2.514
  925SOL    HW1  669   0.644   2.692   2.495
  925SOL    HW2  670   0.506   2.609   2.466
  926SOL     OW  671   1.777   2.204   3.504
  926SOL    HW1  672   1.760   2.235   3.410
  926SOL    HW2  673   1.693   2.167   3.542
  927SOL     OW  674   1.730   2.796   3.379
  927SOL    HW1  675   1.768   2.887   3.394
  927SOL    HW2  676   1.722   2.779   3.280
  928SOL     OW  677   0.859   3.236   1.878
  928SOL    HW1  678   0.813   3.251   1.966
  928SOL    HW2  679   0.903   3.321   1.848
  930SOL     OW  680   0.859   2.818   2.723
  930SOL    HW1  681   0.913   2.749   2.771
  930SOL    HW2  682   0.827   2.887   2.789
  931SOL     OW  683   1.083   2.846   1.949
  931SOL    HW1  684   1.060   2.899   1.867
  931SOL    HW2  685   1.164   2.790   1.930
  932SOL     OW  686   1.861   3.431   2.713
  932SOL    HW1  687   1.790   3.419   2.643
  932SOL    HW2  688   1.862   3.352   2.773
  936SOL     OW  689   1.824   2.054   3.089
  936SOL    HW1  690   1.820   1.964   3.133
  936SOL    HW2  691   1.827   2.043   2.990
  938SOL     OW  692   1.705   3.349   2.966
  938SOL    HW1  693   1.612   3.324   2.939
  938SOL    HW2  694   1.731   3.299   3.048
  941SOL     OW  695   1.424   2.076   2.974
  941SOL    HW1  696   1.476   2.011   3.029
  941SOL    HW2  697   1.375   2.139   3.035
  942SOL     OW  698   1.001   1.896   3.016
  942SOL    HW1  699   0.938   1.824   2.985
  942SOL    HW2  700   1.094   1.860   3.016
  943SOL     OW  701   0.770   3.192   2.163
  943SOL    HW1  702   0.724   3.105   2.180
  943SOL    HW2  703   0.861   3.189   2.204
  945SOL     OW  704   1.352   1.914   2.030
  945SOL    HW1  705   1.387   1.873   1.946
  945SOL    HW2  706   1.262   1.876   2.050
  946SOL     OW  707   1.300   2.315   2.553
  946SOL    HW1  708   1.241   2.395   2.557
  946SOL    HW2  709   1.315   2.280   2.646
  947SOL     OW  710   1.593   2.083   2.744
  947SOL    HW1  711   1.509   2.082   2.798
  947SOL    HW2  712   1.595   2.166   2.688
  954SOL     OW  713   1.755   2.469   3.955
  954SOL    HW1  714   1.743   2.456   3.856
  954SOL    HW2  715   1.725   2.388   4.004
 1002SOL     OW  716   1.390   2.437   3.802
 1002SOL    HW1  717   1.336   2.416   3.883
 1002SOL    HW2  718   1.481   2.396   3.811
 1012SOL     OW  719   1.540   2.136   3.849
 1012SOL    HW1  720   1.479   2.061   3.872
 1012SOL    HW2  721   1.562   2.188   3.932
 1178SOL     OW  722   1.400   3.831   2.288
 1178SOL    HW1  723   1.376   3.794   2.198
 1178SOL    HW2  724   1.499   3.847   2.292
 1229SOL     OW  725   1.726   3.859   2.385
 1229SOL    HW1  726   1.799   3.842   2.318
 1229SOL    HW2  727   1.695   3.772   2.423
 1231SOL     OW  728   1.841   3.899   2.825
 1231SOL    HW1  729   1.880   3.814   2.789
 1231SOL    HW2  730   1.743   3.901   2.806
 1252SOL     OW  731   1.352   3.776   2.030
 1252SOL    HW1  732   1.387   3.735   1.946
 1252SOL    HW2  733   1.262   3.738   2.050
 1307SOL     OW  734   2.431   1.275   1.165
 1307SOL    HW1  735   2.338   1.268   1.128
 1307SOL    HW2  736   2.442   1.364   1.209
 1311SOL     OW  737   2.630   1.144   1.023
 1311SOL    HW1  738   2.552   1.161   1.083
 1311SOL    HW2  739   2.664   1.231   0.987
 1312SOL     OW  740   2.712   0.798   1.823
 1312SOL    HW1  741   2.708   0.874   1.888
 1312SOL    HW2  742   2.734   0.834   1.732
 1314SOL     OW  743   2.548   1.161   1.803
 1314SOL    HW1  744   2.608   1.240   1.817
 1314SOL    HW2  745   2.462   1.192   1.762
 1315SOL     OW  746   2.197   1.435   1.061
 1315SOL    HW1  747   2.119   1.404   1.008
 1315SOL    HW2  748   2.255   1.493   1.004
 1316SOL     OW  749   3.322   1.505   1.339
 1316SOL    HW1  750   3.346   1.599   1.365
 1316SOL    HW2  751   3.306   1.451   1.421
 1320SOL     OW  752   2.989   1.341   1.690
 1320SOL    HW1  753   3.036   1.341   1.778
 1320SOL    HW2  754   2.941   1.254   1.679
 1323SOL     OW  755   2.482   1.786   1.439
 1323SOL    HW1  756   2.390   1.769   1.474
 1323SOL    HW2  757   2.510   1.878   1.465
 1331SOL     OW  758   1.975   0.737   1.597
 1331SOL    HW1  759   2.063   0.724   1.642
 1331SOL    HW2  760   1.962   0.834   1.575
 1333SOL     OW  761   3.155   1.228   1.423
 1333SOL    HW1  762   3.192   1.155   1.365
 1333SOL    HW2  763   3.207   1.233   1.508
 1335SOL     OW  764   2.059   0.976   1.264
 1335SOL    HW1  765   2.148   0.931   1.250
 1335SOL    HW2  766   1.986   0.911   1.245
 1337SOL     OW  767   3.049   1.792   1.616
 1337SOL    HW1  768   3.073   1.852   1.540
 1337SOL    HW2  769   3.056   1.697   1.586
 1346SOL     OW  770   2.835   0.890   1.572
 1346SOL    HW1  771   2.881   0.806   1.543
 1346SOL    HW2  772   2.779   0.924   1.497
 1350SOL     OW  773   1.992   1.821   1.571
 1350SOL    HW1  774   1.982   1.806   1.670
 1350SOL    HW2  775   1.906   1.857   1.535
 1356SOL     OW  776   2.213   1.801   0.853
 1356SOL    HW1  777   2.263   1.715   0.859
 1356SOL    HW2  778   2.278   1.878   0.850
 1358SOL     OW  779   3.089   1.550   1.506
 1358SOL    HW1  780   3.095   1.473   1.570
 1358SOL    HW2  781   3.037   1.524   1.426
 1361SOL     OW  782   2.323   1.266   1.727
 1361SOL    HW1  783   2.273   1.267   1.641
 1361SOL    HW2  784   2.260   1.248   1.803
 1367SOL     OW  785   2.111   1.785   1.241
 1367SOL    HW1  786   2.168   1.720   1.291
 1367SOL    HW2  787   2.095   1.752   1.148
 1368SOL     OW  788   2.802   1.698   0.904
 1368SOL    HW1  789   2.882   1.641   0.925
 1368SOL    HW2  790   2.753   1.658   0.827
 1373SOL     OW  791   2.750   1.514   1.195
 1373SOL    HW1  792   2.727   1.489   1.101
 1373SOL    HW2  793   2.811   1.445   1.234
 1375SOL     OW  794   2.665   1.402   0.924
 1375SOL    HW1  795   2.755   1.416   0.882
 1375SOL    HW2  796   2.594   1.404   0.853
 1398SOL     OW  797   2.926   1.347   1.340
 1398SOL    HW1  798   2.846   1.324   1.395
 1398SOL    HW2  799   3.009   1.321   1.389
 1399SOL     OW  800   3.454   1.629   1.625
 1399SOL    HW1  801   3.481   1.663   1.535
 1399SOL    HW2  802   3.533   1.591   1.671
 1400SOL     OW  803   2.973   1.195   1.100
 1400SOL    HW1  804   2.933   1.239   1.181
 1400SOL    HW2  805   2.932   1.232   1.017
 1403SOL     OW  806   2.842   1.116   1.719
 1403SOL    HW1  807   2.743   1.122   1.729
 1403SOL    HW2  808   2.865   1.036   1.663
 1407SOL     OW  809   1.926   1.564   1.331
 1407SOL    HW1  810   1.880   1.646   1.297
 1407SOL    HW2  811   2.024   1.583   1.340
 1411SOL     OW  812   3.134   1.445   1.142
 1411SOL    HW1  813   3.181   1.458   1.229
 1411SOL    HW2  814   3.068   1.371   1.151
 1413SOL     OW  815   2.216   1.510   1.329
 1413SOL    HW1  816   2.195   1.466   1.242
 1413SOL    HW2  817   2.313   1.536   1.332
 1414SOL     OW  818   2.264   0.751   1.598
 1414SOL    HW1  819   2.332   0.806   1.551
 1414SOL    HW2  820   2.304   0.663   1.625
 1422SOL     OW  821   1.899   1.310   1.282
 1422SOL    HW1  822   1.952   1.261   1.350
 1422SOL    HW2  823   1.921   1.408   1.287
 1428SOL     OW  824   2.842   1.573   1.700
 1428SOL    HW1  825   2.822   1.617   1.612
 1428SOL    HW2  826   2.881   1.482   1.684
 1429SOL     OW  827   3.721   1.518   1.605
 1429SOL    HW1  828   3.735   1.545   1.510
 1429SOL    HW2  829   3.804   1.540   1.658
 1430SOL     OW  830   2.212   0.898   1.804
 1430SOL    HW1  831   2.288   0.942   1.852
 1430SOL    HW2  832   2.247   0.851   1.722
 1439SOL     OW  833   1.950   1.801   0.927
 1439SOL    HW1  834   1.908   1.715   0.900
 1439SOL    HW2  835   2.044   1.804   0.893
 1440SOL     OW  836   2.366   1.568   0.910
 1440SOL    HW1  837   2.432   1.642   0.919
 1440SOL    HW2  838   2.410   1.489   0.868
 1444SOL     OW  839   3.231   0.950   1.660
 1444SOL    HW1  840   3.270   1.039   1.680
 1444SOL    HW2  841   3.241   0.930   1.563
 1447SOL     OW  842   2.114   1.564   1.744
 1447SOL    HW1  843   2.084   1.621   1.820
 1447SOL    HW2  844   2.107   1.467   1.770
 1449SOL     OW  845   2.792   1.678   1.465
 1449SOL    HW1  846   2.768   1.660   1.370
 1449SOL    HW2  847   2.822   1.772   1.475
 1451SOL     OW  848   2.021   1.137   1.466
 1451SOL    HW1  849   2.043   1.076   1.542
 1451SOL    HW2  850   2.031   1.088   1.380
 1455SOL     OW  851   3.114   1.731   1.128
 1455SOL    HW1  852   3.198   1.736   1.074
 1455SOL    HW2  853   3.091   1.635   1.146
 1456SOL     OW  854   1.945   1.258   1.022
 1456SOL    HW1  855   1.940   1.257   1.122
 1456SOL    HW2  856   1.862   1.217   0.984
 1457SOL     OW  857   2.550   1.662   1.716
 1457SOL    HW1  858   2.494   1.743   1.725
 1457SOL    HW2  859   2.602   1.666   1.630
 1461SOL     OW  860   1.992   1.794   1.851
 1461SOL    HW1  861   1.951   1.720   1.904
 1461SOL    HW2  862   2.056   1.845   1.909
 1463SOL     OW  863   2.692   1.273   1.422
 1463SOL    HW1  864   2.687   1.306   1.517
 1463SOL    HW2  865   2.606   1.292   1.376
 1465SOL     OW  866   3.512   1.720   1.394
 1465SOL    HW1  867   3.565   1.730   1.310
 1465SOL    HW2  868   3.485   1.810   1.428
 1469SOL     OW  869   2.684   1.002   1.372
 1469SOL    HW1  870   2.724   1.001   1.280
 1469SOL    HW2  871   2.694   1.094   1.412
 1472SOL     OW  872   2.234   1.288   1.490
 1472SOL    HW1  873   2.221   1.381   1.456
 1472SOL    HW2  874   2.150   1.236   1.477
 1479SOL     OW  875   1.967   1.013   1.726
 1479SOL    HW1  876   1.890   0.980   1.780
 1479SOL    HW2  877   2.052   0.983   1.768
 1484SOL     OW  878   2.475   0.842   1.431
 1484SOL    HW1  879   2.531   0.923   1.414
 1484SOL    HW2  880   2.534   0.762   1.434
 1485SOL     OW  881   3.355   1.767   0.959
 1485SOL    HW1  882   3.388   1.831   0.890
 1485SOL    HW2  883   3.421   1.761   1.034
 1487SOL     OW  884   3.312   1.220   1.633
 1487SOL    HW1  885   3.303   1.210   1.732
 1487SOL    HW2  886   3.408   1.213   1.607
 1488SOL     OW  887   2.252   1.741   1.560
 1488SOL    HW1  888   2.161   1.782   1.558
 1488SOL    HW2  889   2.245   1.647   1.592
 1495SOL     OW  890   2.523   1.790   0.953
 1495SOL    HW1  891   2.477   1.878   0.940
 1495SOL    HW2  892   2.622   1.802   0.946
 1499SOL     OW  893   2.083   1.314   1.844
 1499SOL    HW1  894   2.018   1.241   1.823
 1499SOL    HW2  895   2.087   1.328   1.942
 1501SOL     OW  896   2.534   1.391   1.624
 1501SOL    HW1  897   2.456   1.341   1.662
 1501SOL    HW2  898   2.531   1.486   1.655
 1510SOL     OW  899   2.480   1.567   1.284
 1510SOL    HW1  900   2.475   1.649   1.341
 1510SOL    HW2  901   2.569   1.564   1.239
 1516SOL     OW  902   2.092   0.628   1.975
 1516SOL    HW1  903   1.999   0.626   2.012
 1516SOL    HW2  904   2.093   0.589   1.883
 1519SOL     OW  905   2.431   1.275   3.027
 1519SOL    HW1  906   2.338   1.268   2.990
 1519SOL    HW2  907   2.442   1.364   3.071
 1520SOL     OW  908   3.417   1.511   2.565
 1520SOL    HW1  909   3.360   1.495   2.646
 1520SOL    HW2  910   3.358   1.521   2.485
 1521SOL     OW  911   2.997   0.703   2.579
 1521SOL    HW1  912   3.054   0.781   2.554
 1521SOL    HW2  913   2.937   0.729   2.655
 1523SOL     OW  914   2.630   1.144   2.885
 1523SOL    HW1  915   2.552   1.161   2.945
 1523SOL    HW2  916   2.664   1.231   2.849
 1525SOL     OW  917   2.547   1.012   2.527
 1525SOL    HW1  918   2.616   0.996   2.597
 1525SOL    HW2  919   2.474   1.069   2.565
 1526SOL     OW  920   2.548   1.161   3.665
 1526SOL    HW1  921   2.608   1.240   3.679
 1526SOL    HW2  922   2.462   1.192   3.624
 1527SOL     OW  923   2.197   1.435   2.923
 1527SOL    HW1  924   2.119   1.404   2.870
 1527SOL    HW2  925   2.255   1.493   2.866
 1528SOL     OW  926   3.322   1.505   3.201
 1528SOL    HW1  927   3.346   1.599   3.227
 1528SOL    HW2  928   3.306   1.451   3.283
 1531SOL     OW  929   2.093   1.713   2.345
 1531SOL    HW1  930   2.127   1.790   2.399
 1531SOL    HW2  931   2.137   1.713   2.255
 1532SOL     OW  932   2.989   1.341   3.552
 1532SOL    HW1  933   3.036   1.341   3.640
 1532SOL    HW2  934   2.941   1.254   3.541
 1533SOL     OW  935   2.092   1.434   2.400
 1533SOL    HW1  936   2.066   1.530   2.400
 1533SOL    HW2  937   2.021   1.380   2.445
 1534SOL     OW  938   2.102   1.091   2.748
 1534SOL    HW1  939   2.116   1.007   2.800
 1534SOL    HW2  940   2.047   1.155   2.803
 1535SOL     OW  941   2.482   1.786   3.301
 1535SOL    HW1  942   2.390   1.769   3.336
 1535SOL    HW2  943   2.510   1.878   3.327
 1536SOL     OW  944   2.468   0.964   1.985
 1536SOL    HW1  945   2.475   1.048   1.931
 1536SOL    HW2  946   2.514   0.977   2.073
 1538SOL     OW  947   1.984   0.643   2.425
 1538SOL    HW1  948   1.939   0.555   2.442
 1538SOL    HW2  949   1.983   0.697   2.509
 1539SOL     OW  950   3.704   1.767   2.221
 1539SOL    HW1  951   3.758   1.738   2.301
 1539SOL    HW2  952   3.734   1.857   2.192
 1540SOL     OW  953   1.889   1.596   1.979
 1540SOL    HW1  954   1.870   1.500   2.000
 1540SOL    HW2  955   1.856   1.654   2.054
 1542SOL     OW  956   3.503   1.108   2.294
 1542SOL    HW1  957   3.589   1.110   2.242
 1542SOL    HW2  958   3.517   1.155   2.382
 1544SOL     OW  959   2.475   1.365   2.588
 1544SOL    HW1  960   2.426   1.278   2.597
 1544SOL    HW2  961   2.452   1.408   2.501
 1545SOL     OW  962   3.155   1.228   3.285
 1545SOL    HW1  963   3.192   1.155   3.227
 1545SOL    HW2  964   3.207   1.233   3.370
 1547SOL     OW  965   2.059   0.976   3.126
 1547SOL    HW1  966   2.148   0.931   3.112
 1547SOL    HW2  967   1.986   0.911   3.107
 1548SOL     OW  968   3.387   0.999   2.052
 1548SOL    HW1  969   3.324   0.923   2.065
 1548SOL    HW2  970   3.435   1.017   2.138
 1549SOL     OW  971   3.049   1.792   3.478
 1549SOL    HW1  972   3.073   1.852   3.402
 1549SOL    HW2  973   3.056   1.697   3.448
 1551SOL     OW  974   3.328   1.417   2.815
 1551SOL    HW1  975   3.269   1.423   2.895
 1551SOL    HW2  976   3.313   1.329   2.769
 1552SOL     OW  977   3.529   1.714   2.434
 1552SOL    HW1  978   3.488   1.691   2.346
 1552SOL    HW2  979   3.511   1.640   2.499
 1553SOL     OW  980   2.460   0.729   2.132
 1553SOL    HW1  981   2.484   0.798   2.064
 1553SOL    HW2  982   2.382   0.762   2.186
 1555SOL     OW  983   3.438   1.662   2.169
 1555SOL    HW1  984   3.527   1.708   2.172
 1555SOL    HW2  985   3.417   1.638   2.074
 1560SOL     OW  986   2.903   0.701   2.291
 1560SOL    HW1  987   2.929   0.697   2.387
 1560SOL    HW2  988   2.818   0.650   2.277
 1561SOL     OW  989   1.938   0.811   2.651
 1561SOL    HW1  990   2.037   0.799   2.660
 1561SOL    HW2  991   1.914   0.906   2.672
 1562SOL     OW  992   1.992   1.821   3.433
 1562SOL    HW1  993   1.982   1.806   3.532
 1562SOL    HW2  994   1.906   1.857   3.397
 1565SOL     OW  995   3.224   1.144   2.407
 1565SOL    HW1  996   3.307   1.115   2.359
 1565SOL    HW2  997   3.175   1.211   2.351
 1567SOL     OW  998   2.870   1.456   2.339
 1567SOL    HW1  999   2.824   1.528   2.287
 1567SOL    HW2 1000   2.866   1.476   2.437
 1568SOL     OW 1001   2.213   1.801   2.715
 1568SOL    HW1 1002   2.263   1.715   2.721
 1568SOL    HW2 1003   2.278   1.878   2.712
 1570SOL     OW 1004   3.089   1.550   3.368
 1570SOL    HW1 1005   3.095   1.473   3.432
 1570SOL    HW2 1006   3.037   1.524   3.288
 1571SOL     OW 1007   2.183   0.943   2.104
 1571SOL    HW1 1008   2.265   0.982   2.062
 1571SOL    HW2 1009   2.156   0.861   2.055
 1573SOL     OW 1010   2.323   1.266   3.589
 1573SOL    HW1 1011   2.273   1.267   3.503
 1573SOL    HW2 1012   2.260   1.248   3.665
 1574SOL     OW 1013   2.973   1.776   2.099
 1574SOL    HW1 1014   2.913   1.714   2.149
 1574SOL    HW2 1015   3.004   1.732   2.014
 1576SOL     OW 1016   3.494   1.377   1.943
 1576SOL    HW1 1017   3.462   1.471   1.933
 1576SOL    HW2 1018   3.418   1.314   1.931
 1577SOL     OW 1019   2.326   1.743   2.185
 1577SOL    HW1 1020   2.359   1.782   2.271
 1577SOL    HW2 1021   2.402   1.736   2.120
 1579SOL     OW 1022   2.111   1.785   3.103
 1579SOL    HW1 1023   2.168   1.720   3.153
 1579SOL    HW2 1024   2.095   1.752   3.010
 1580SOL     OW 1025   2.802   1.698   2.766
 1580SOL    HW1 1026   2.882   1.641   2.787
 1580SOL    HW2 1027   2.753   1.658   2.689
 1581SOL     OW 1028   2.244   0.700   2.342
 1581SOL    HW1 1029   2.289   0.610   2.339
 1581SOL    HW2 1030   2.150   0.689   2.375
 1585SOL     OW 1031   2.750   1.514   3.057
 1585SOL    HW1 1032   2.727   1.489   2.963
 1585SOL    HW2 1033   2.811   1.445   3.096
 1587SOL     OW 1034   2.665   1.402   2.786
 1587SOL    HW1 1035   2.755   1.416   2.744
 1587SOL    HW2 1036   2.594   1.404   2.715
 1590SOL     OW 1037   3.296   1.188   1.903
 1590SOL    HW1 1038   3.328   1.112   1.960
 1590SOL    HW2 1039   3.204   1.215   1.933
 1594SOL     OW 1040   3.089   1.570   2.655
 1594SOL    HW1 1041   3.110   1.644   2.590
 1594SOL    HW2 1042   3.157   1.570   2.728
 1595SOL     OW 1043   2.321   1.152   2.603
 1595SOL    HW1 1044   2.250   1.125   2.668
 1595SOL    HW2 1045   2.295   1.124   2.510
 1596SOL     OW 1046   3.133   1.797   2.453
 1596SOL    HW1 1047   3.177   1.861   2.389
 1596SOL    HW2 1048   3.083   1.849   2.523
 1602SOL     OW 1049   3.291   1.173   2.729
 1602SOL    HW1 1050   3.236   1.089   2.722
 1602SOL    HW2 1051   3.317   1.202   2.637
 1605SOL     OW 1052   2.350   1.385   2.036
 1605SOL    HW1 1053   2.263   1.370   2.083
 1605SOL    HW2 1054   2.333   1.411   1.941
 1606SOL     OW 1055   3.526   1.280   2.519
 1606SOL    HW1 1056   3.625   1.288   2.533
 1606SOL    HW2 1057   3.481   1.364   2.550
 1610SOL     OW 1058   2.926   1.347   3.202
 1610SOL    HW1 1059   2.846   1.324   3.257
 1610SOL    HW2 1060   3.009   1.321   3.251
 1611SOL     OW 1061   3.454   1.629   3.487
 1611SOL    HW1 1062   3.481   1.663   3.397
 1611SOL    HW2 1063   3.533   1.591   3.533
 1612SOL     OW 1064   2.973   1.195   2.962
 1612SOL    HW1 1065   2.933   1.239   3.043
 1612SOL    HW2 1066   2.932   1.232   2.879
 1616SOL     OW 1067   2.567   1.050   2.230
 1616SOL    HW1 1068   2.553   1.057   2.329
 1616SOL    HW2 1069   2.651   0.999   2.212
 1617SOL     OW 1070   2.272   0.813   3.113
 1617SOL    HW1 1071   2.358   0.825   3.163
 1617SOL    HW2 1072   2.230   0.726   3.140
 1619SOL     OW 1073   1.926   1.564   3.193
 1619SOL    HW1 1074   1.880   1.646   3.159
 1619SOL    HW2 1075   2.024   1.583   3.202
 1620SOL     OW 1076   2.229   1.100   2.363
 1620SOL    HW1 1077   2.222   1.183   2.307
 1620SOL    HW2 1078   2.233   1.020   2.303
 1622SOL     OW 1079   3.114   1.348   2.250
 1622SOL    HW1 1080   3.164   1.425   2.290
 1622SOL    HW2 1081   3.019   1.350   2.282
 1623SOL     OW 1082   3.134   1.445   3.004
 1623SOL    HW1 1083   3.181   1.458   3.091
 1623SOL    HW2 1084   3.068   1.371   3.013
 1625SOL     OW 1085   2.216   1.510   3.191
 1625SOL    HW1 1086   2.195   1.466   3.104
 1625SOL    HW2 1087   2.313   1.536   3.194
 1630SOL     OW 1088   2.435   0.870   2.891
 1630SOL    HW1 1089   2.479   0.959   2.882
 1630SOL    HW2 1090   2.372   0.870   2.968
 1634SOL     OW 1091   1.899   1.310   3.144
 1634SOL    HW1 1092   1.952   1.261   3.212
 1634SOL    HW2 1093   1.921   1.408   3.149
 1639SOL     OW 1094   2.885   0.766   2.828
 1639SOL    HW1 1095   2.900   0.787   2.924
 1639SOL    HW2 1096   2.855   0.671   2.819
 1640SOL     OW 1097   2.842   1.573   3.562
 1640SOL    HW1 1098   2.822   1.617   3.474
 1640SOL    HW2 1099   2.881   1.482   3.546
 1644SOL     OW 1100   3.165   0.838   1.904
 1644SOL    HW1 1101   3.199   0.745   1.919
 1644SOL    HW2 1102   3.183   0.865   1.809
 1645SOL     OW 1103   2.930   1.333   2.711
 1645SOL    HW1 1104   2.937   1.249   2.656
 1645SOL    HW2 1105   2.992   1.402   2.675
 1646SOL     OW 1106   2.181   0.810   2.811
 1646SOL    HW1 1107   2.274   0.846   2.816
 1646SOL    HW2 1108   2.175   0.725   2.863
 1650SOL     OW 1109   1.870   1.326   2.062
 1650SOL    HW1 1110   1.777   1.347   2.031
 1650SOL    HW2 1111   1.880   1.227   2.075
 1651SOL     OW 1112   1.950   1.801   2.789
 1651SOL    HW1 1113   1.908   1.715   2.762
 1651SOL    HW2 1114   2.044   1.804   2.755
 1652SOL     OW 1115   2.366   1.568   2.772
 1652SOL    HW1 1116   2.432   1.642   2.781
 1652SOL    HW2 1117   2.410   1.489   2.730
 1653SOL     OW 1118   2.864   0.796   3.100
 1653SOL    HW1 1119   2.905   0.764   3.186
 1653SOL    HW2 1120   2.768   0.769   3.097
 1657SOL     OW 1121   2.677   0.572   2.187
 1657SOL    HW1 1122   2.684   0.483   2.141
 1657SOL    HW2 1123   2.583   0.606   2.179
 1659SOL     OW 1124   2.114   1.564   3.606
 1659SOL    HW1 1125   2.084   1.621   3.682
 1659SOL    HW2 1126   2.107   1.467   3.632
 1661SOL     OW 1127   2.792   1.678   3.327
 1661SOL    HW1 1128   2.768   1.660   3.232
 1661SOL    HW2 1129   2.822   1.772   3.337
 1663SOL     OW 1130   2.021   1.137   3.328
 1663SOL    HW1 1131   2.043   1.076   3.404
 1663SOL    HW2 1132   2.031   1.088   3.242
 1664SOL     OW 1133   3.209   1.059   3.096
 1664SOL    HW1 1134   3.233   0.996   3.022
 1664SOL    HW2 1135   3.119   1.099   3.078
 1665SOL     OW 1136   3.164   0.855   2.171
 1665SOL    HW1 1137   3.078   0.824   2.213
 1665SOL    HW2 1138   3.160   0.841   2.072
 1666SOL     OW 1139   3.621   1.747   3.016
 1666SOL    HW1 1140   3.682   1.777   2.943
 1666SOL    HW2 1141   3.583   1.658   2.994
 1667SOL     OW 1142   3.114   1.731   2.990
 1667SOL    HW1 1143   3.198   1.736   2.936
 1667SOL    HW2 1144   3.091   1.635   3.008
 1668SOL     OW 1145   1.945   1.258   2.884
 1668SOL    HW1 1146   1.940   1.257   2.984
 1668SOL    HW2 1147   1.862   1.217   2.846
 1669SOL     OW 1148   2.550   1.662   3.578
 1669SOL    HW1 1149   2.494   1.743   3.587
 1669SOL    HW2 1150   2.602   1.666   3.492
 1671SOL     OW 1151   3.250   1.573   2.339
 1671SOL    HW1 1152   3.317   1.585   2.265
 1671SOL    HW2 1153   3.210   1.662   2.362
 1672SOL     OW 1154   1.992   1.794   3.713
 1672SOL    HW1 1155   1.951   1.720   3.766
 1672SOL    HW2 1156   2.056   1.845   3.771
 1673SOL     OW 1157   3.142   0.927   2.534
 1673SOL    HW1 1158   3.202   0.846   2.536
 1673SOL    HW2 1159   3.182   0.996   2.474
 1674SOL     OW 1160   2.692   1.273   3.284
 1674SOL    HW1 1161   2.687   1.306   3.379
 1674SOL    HW2 1162   2.606   1.292   3.238
 1675SOL     OW 1163   2.534   1.616   2.016
 1675SOL    HW1 1164   2.543   1.626   1.917
 1675SOL    HW2 1165   2.494   1.527   2.037
 1676SOL     OW 1166   3.512   1.720   3.256
 1676SOL    HW1 1167   3.565   1.730   3.172
 1676SOL    HW2 1168   3.485   1.810   3.290
 1679SOL     OW 1169   3.056   1.612   1.893
 1679SOL    HW1 1170   3.062   1.519   1.930
 1679SOL    HW2 1171   2.997   1.612   1.813
 1680SOL     OW 1172   2.684   1.002   3.234
 1680SOL    HW1 1173   2.724   1.001   3.142
 1680SOL    HW2 1174   2.694   1.094   3.274
 1681SOL     OW 1175   2.778   0.910   2.153
 1681SOL    HW1 1176   2.841   0.948   2.085
 1681SOL    HW2 1177   2.818   0.827   2.192
 1682SOL     OW 1178   3.366   1.607   1.906
 1682SOL    HW1 1179   3.274   1.644   1.913
 1682SOL    HW2 1180   3.404   1.627   1.816
 1683SOL     OW 1181   2.234   1.288   3.352
 1683SOL    HW1 1182   2.221   1.381   3.318
 1683SOL    HW2 1183   2.150   1.236   3.339
 1684SOL     OW 1184   3.476   1.292   3.151
 1684SOL    HW1 1185   3.536   1.295   3.231
 1684SOL    HW2 1186   3.401   1.356   3.164
 1685SOL     OW 1187   2.901   1.098   2.558
 1685SOL    HW1 1188   2.831   1.051   2.612
 1685SOL    HW2 1189   2.960   1.030   2.515
 1687SOL     OW 1190   2.452   1.487   2.353
 1687SOL    HW1 1191   2.494   1.429   2.283
 1687SOL    HW2 1192   2.408   1.566   2.309
 1689SOL     OW 1193   2.117   1.348   2.152
 1689SOL    HW1 1194   2.021   1.349   2.125
 1689SOL    HW2 1195   2.129   1.401   2.236
 1695SOL     OW 1196   3.045   1.335   1.981
 1695SOL    HW1 1197   2.946   1.324   1.983
 1695SOL    HW2 1198   3.079   1.350   2.074
 1696SOL     OW 1199   2.475   0.842   3.293
 1696SOL    HW1 1200   2.531   0.923   3.276
 1696SOL    HW2 1201   2.534   0.762   3.296
 1697SOL     OW 1202   3.355   1.767   2.821
 1697SOL    HW1 1203   3.388   1.831   2.752
 1697SOL    HW2 1204   3.421   1.761   2.896
 1700SOL     OW 1205   2.252   1.741   3.422
 1700SOL    HW1 1206   2.161   1.782   3.420
 1700SOL    HW2 1207   2.245   1.647   3.454
 1703SOL     OW 1208   2.456   0.745   2.514
 1703SOL    HW1 1209   2.506   0.830   2.495
 1703SOL    HW2 1210   2.368   0.747   2.466
 1706SOL     OW 1211   2.721   1.374   1.878
 1706SOL    HW1 1212   2.675   1.389   1.966
 1706SOL    HW2 1213   2.765   1.459   1.848
 1707SOL     OW 1214   2.523   1.790   2.815
 1707SOL    HW1 1215   2.477   1.878   2.802
 1707SOL    HW2 1216   2.622   1.802   2.808
 1708SOL     OW 1217   2.721   0.956   2.723
 1708SOL    HW1 1218   2.775   0.887   2.771
 1708SOL    HW2 1219   2.689   1.025   2.789
 1709SOL     OW 1220   2.945   0.984   1.949
 1709SOL    HW1 1221   2.922   1.037   1.867
 1709SOL    HW2 1222   3.026   0.928   1.930
 1710SOL     OW 1223   3.723   1.569   2.713
 1710SOL    HW1 1224   3.652   1.557   2.643
 1710SOL    HW2 1225   3.724   1.490   2.773
 1711SOL     OW 1226   2.083   1.314   3.706
 1711SOL    HW1 1227   2.018   1.241   3.685
 1711SOL    HW2 1228   2.087   1.328   3.804
 1712SOL     OW 1229   1.941   1.240   2.515
 1712SOL    HW1 1230   1.940   1.193   2.603
 1712SOL    HW2 1231   2.023   1.212   2.464
 1713SOL     OW 1232   2.534   1.391   3.486
 1713SOL    HW1 1233   2.456   1.341   3.524
 1713SOL    HW2 1234   2.531   1.486   3.517
 1716SOL     OW 1235   3.567   1.487   2.966
 1716SOL    HW1 1236   3.474   1.462   2.939
 1716SOL    HW2 1237   3.593   1.437   3.048
 1718SOL     OW 1238   2.674   1.586   2.549
 1718SOL    HW1 1239   2.706   1.596   2.455
 1718SOL    HW2 1240   2.595   1.524   2.551
 1721SOL     OW 1241   2.632   1.330   2.163
 1721SOL    HW1 1242   2.586   1.243   2.180
 1721SOL    HW2 1243   2.723   1.327   2.204
 1722SOL     OW 1244   2.480   1.567   3.146
 1722SOL    HW1 1245   2.475   1.649   3.203
 1722SOL    HW2 1246   2.569   1.564   3.101
 1726SOL     OW 1247   1.901   1.077   2.162
 1726SOL    HW1 1248   2.000   1.066   2.153
 1726SOL    HW2 1249   1.861   0.991   2.194
 1727SOL     OW 1250   2.737   1.646   2.199
 1727SOL    HW1 1251   2.660   1.611   2.145
 1727SOL    HW2 1252   2.705   1.717   2.261
 1743SOL     OW 1253   1.889   1.596   3.841
 1743SOL    HW1 1254   1.870   1.500   3.862
 1743SOL    HW2 1255   1.856   1.654   3.916
 1801SOL     OW 1256   2.534   1.616   3.878
 1801SOL    HW1 1257   2.543   1.626   3.779
 1801SOL    HW2 1258   2.494   1.527   3.899
 1804SOL     OW 1259   3.056   1.612   3.755
 1804SOL    HW1 1260   3.062   1.519   3.792
 1804SOL    HW2 1261   2.997   1.612   3.675
 1815SOL     OW 1262   2.721   1.374   3.740
 1815SOL    HW1 1263   2.675   1.389   3.828
 1815SOL    HW2 1264   2.765   1.459   3.710
 1829SOL     OW 1265   2.087   2.137   0.996
 1829SOL    HW1 1266   2.122   2.120   1.088
 1829SOL    HW2 1267   1.999   2.092   0.984
 1830SOL     OW 1268   1.881   2.230   0.647
 1830SOL    HW1 1269   1.799   2.273   0.686
 1830SOL    HW2 1270   1.853   2.157   0.584
 1831SOL     OW 1271   2.431   3.137   1.165
 1831SOL    HW1 1272   2.338   3.130   1.128
 1831SOL    HW2 1273   2.442   3.226   1.209
 1833SOL     OW 1274   2.997   2.565   0.717
 1833SOL    HW1 1275   3.054   2.643   0.692
 1833SOL    HW2 1276   2.937   2.591   0.793
 1835SOL     OW 1277   2.630   3.006   1.023
 1835SOL    HW1 1278   2.552   3.023   1.083
 1835SOL    HW2 1279   2.664   3.093   0.987
 1836SOL     OW 1280   2.712   2.660   1.823
 1836SOL    HW1 1281   2.708   2.736   1.888
 1836SOL    HW2 1282   2.734   2.696   1.732
 1837SOL     OW 1283   2.547   2.874   0.665
 1837SOL    HW1 1284   2.616   2.858   0.735
 1837SOL    HW2 1285   2.474   2.931   0.703
 1838SOL     OW 1286   2.548   3.023   1.803
 1838SOL    HW1 1287   2.608   3.102   1.817
 1838SOL    HW2 1288   2.462   3.054   1.762
 1839SOL     OW 1289   2.197   3.297   1.061
 1839SOL    HW1 1290   2.119   3.266   1.008
 1839SOL    HW2 1291   2.255   3.355   1.004
 1840SOL     OW 1292   3.322   3.367   1.339
 1840SOL    HW1 1293   3.346   3.461   1.365
 1840SOL    HW2 1294   3.306   3.313   1.421
 1841SOL     OW 1295   2.300   2.254   1.499
 1841SOL    HW1 1296   2.382   2.198   1.508
 1841SOL    HW2 1297   2.219   2.196   1.503
 1844SOL     OW 1298   2.989   3.203   1.690
 1844SOL    HW1 1299   3.036   3.203   1.778
 1844SOL    HW2 1300   2.941   3.116   1.679
 1846SOL     OW 1301   2.102   2.953   0.886
 1846SOL    HW1 1302   2.116   2.869   0.938
 1846SOL    HW2 1303   2.047   3.017   0.941
 1847SOL     OW 1304   2.482   3.648   1.439
 1847SOL    HW1 1305   2.390   3.631   1.474
 1847SOL    HW2 1306   2.510   3.740   1.465
 1849SOL     OW 1307   3.456   1.976   1.480
 1849SOL    HW1 1308   3.438   2.043   1.408
 1849SOL    HW2 1309   3.453   2.022   1.569
 1850SOL     OW 1310   1.984   2.505   0.563
 1850SOL    HW1 1311   1.939   2.417   0.580
 1850SOL    HW2 1312   1.983   2.559   0.647
 1855SOL     OW 1313   1.975   2.599   1.597
 1855SOL    HW1 1314   2.063   2.586   1.642
 1855SOL    HW2 1315   1.962   2.696   1.575
 1857SOL     OW 1316   3.155   3.090   1.423
 1857SOL    HW1 1317   3.192   3.017   1.365
 1857SOL    HW2 1318   3.207   3.095   1.508
 1859SOL     OW 1319   2.059   2.838   1.264
 1859SOL    HW1 1320   2.148   2.793   1.250
 1859SOL    HW2 1321   1.986   2.773   1.245
 1861SOL     OW 1322   3.049   3.654   1.616
 1861SOL    HW1 1323   3.073   3.714   1.540
 1861SOL    HW2 1324   3.056   3.559   1.586
 1862SOL     OW 1325   2.179   2.113   1.801
 1862SOL    HW1 1326   2.250   2.184   1.807
 1862SOL    HW2 1327   2.091   2.152   1.829
 1866SOL     OW 1328   3.143   2.207   0.944
 1866SOL    HW1 1329   3.057   2.157   0.931
 1866SOL    HW2 1330   3.205   2.153   1.000
 1868SOL     OW 1331   2.669   2.467   1.465
 1868SOL    HW1 1332   2.622   2.464   1.554
 1868SOL    HW2 1333   2.618   2.412   1.399
 1869SOL     OW 1334   3.256   2.331   1.674
 1869SOL    HW1 1335   3.236   2.374   1.762
 1869SOL    HW2 1336   3.334   2.269   1.683
 1870SOL     OW 1337   2.835   2.752   1.572
 1870SOL    HW1 1338   2.881   2.668   1.543
 1870SOL    HW2 1339   2.779   2.786   1.497
 1871SOL     OW 1340   2.853   2.272   1.242
 1871SOL    HW1 1341   2.776   2.306   1.296
 1871SOL    HW2 1342   2.819   2.221   1.163
 1873SOL     OW 1343   1.938   2.673   0.789
 1873SOL    HW1 1344   2.037   2.661   0.798
 1873SOL    HW2 1345   1.914   2.768   0.810
 1874SOL     OW 1346   1.992   3.683   1.571
 1874SOL    HW1 1347   1.982   3.668   1.670
 1874SOL    HW2 1348   1.906   3.719   1.535
 1876SOL     OW 1349   3.581   2.447   1.831
 1876SOL    HW1 1350   3.555   2.536   1.795
 1876SOL    HW2 1351   3.579   2.379   1.758
 1878SOL     OW 1352   2.412   2.058   0.885
 1878SOL    HW1 1353   2.407   2.053   0.985
 1878SOL    HW2 1354   2.414   2.154   0.856
 1882SOL     OW 1355   3.089   3.412   1.506
 1882SOL    HW1 1356   3.095   3.335   1.570
 1882SOL    HW2 1357   3.037   3.386   1.426
 1885SOL     OW 1358   2.323   3.128   1.727
 1885SOL    HW1 1359   2.273   3.129   1.641
 1885SOL    HW2 1360   2.260   3.110   1.803
 1887SOL     OW 1361   2.064   2.147   1.498
 1887SOL    HW1 1362   1.984   2.207   1.485
 1887SOL    HW2 1363   2.054   2.098   1.584
 1891SOL     OW 1364   2.111   3.647   1.241
 1891SOL    HW1 1365   2.168   3.582   1.291
 1891SOL    HW2 1366   2.095   3.614   1.148
 1894SOL     OW 1367   3.409   2.084   1.729
 1894SOL    HW1 1368   3.404   2.121   1.821
 1894SOL    HW2 1369   3.337   2.015   1.717
 1895SOL     OW 1370   2.643   2.126   1.749
 1895SOL    HW1 1371   2.710   2.065   1.792
 1895SOL    HW2 1372   2.570   2.145   1.814
 1896SOL     OW 1373   2.750   3.376   1.195
 1896SOL    HW1 1374   2.727   3.351   1.101
 1896SOL    HW2 1375   2.811   3.307   1.234
 1897SOL     OW 1376   3.213   2.452   1.433
 1897SOL    HW1 1377   3.241   2.409   1.518
 1897SOL    HW2 1378   3.238   2.548   1.434
 1898SOL     OW 1379   2.665   3.264   0.924
 1898SOL    HW1 1380   2.755   3.278   0.882
 1898SOL    HW2 1381   2.594   3.266   0.853
 1899SOL     OW 1382   2.784   2.365   0.899
 1899SOL    HW1 1383   2.759   2.356   0.803
 1899SOL    HW2 1384   2.832   2.283   0.930
 1904SOL     OW 1385   2.938   2.545   1.464
 1904SOL    HW1 1386   2.858   2.484   1.467
 1904SOL    HW2 1387   3.019   2.492   1.440
 1906SOL     OW 1388   2.321   3.014   0.741
 1906SOL    HW1 1389   2.250   2.987   0.806
 1906SOL    HW2 1390   2.295   2.986   0.648
 1909SOL     OW 1391   1.940   2.418   1.386
 1909SOL    HW1 1392   2.032   2.417   1.345
 1909SOL    HW2 1393   1.934   2.492   1.453
 1910SOL     OW 1394   2.423   2.084   1.147
 1910SOL    HW1 1395   2.461   2.000   1.184
 1910SOL    HW2 1396   2.335   2.103   1.191
 1911SOL     OW 1397   2.728   2.316   0.642
 1911SOL    HW1 1398   2.696   2.388   0.580
 1911SOL    HW2 1399   2.752   2.235   0.589
 1912SOL     OW 1400   2.879   1.901   0.753
 1912SOL    HW1 1401   2.807   1.906   0.684
 1912SOL    HW2 1402   2.855   1.832   0.822
 1914SOL     OW 1403   3.328   2.452   0.992
 1914SOL    HW1 1404   3.298   2.357   0.999
 1914SOL    HW2 1405   3.401   2.468   1.058
 1920SOL     OW 1406   3.616   3.085   1.588
 1920SOL    HW1 1407   3.707   3.046   1.575
 1920SOL    HW2 1408   3.624   3.181   1.612
 1921SOL     OW 1409   2.926   3.209   1.340
 1921SOL    HW1 1410   2.846   3.186   1.395
 1921SOL    HW2 1411   3.009   3.183   1.389
 1922SOL     OW 1412   3.454   3.491   1.625
 1922SOL    HW1 1413   3.481   3.525   1.535
 1922SOL    HW2 1414   3.533   3.453   1.671
 1923SOL     OW 1415   2.973   3.057   1.100
 1923SOL    HW1 1416   2.933   3.101   1.181
 1923SOL    HW2 1417   2.932   3.094   1.017
 1925SOL     OW 1418   2.777   1.951   1.402
 1925SOL    HW1 1419   2.802   1.931   1.307
 1925SOL    HW2 1420   2.849   2.007   1.444
 1926SOL     OW 1421   2.842   2.978   1.719
 1926SOL    HW1 1422   2.743   2.984   1.729
 1926SOL    HW2 1423   2.865   2.898   1.663
 1928SOL     OW 1424   2.272   2.675   1.251
 1928SOL    HW1 1425   2.358   2.687   1.301
 1928SOL    HW2 1426   2.230   2.588   1.278
 1929SOL     OW 1427   3.136   2.248   1.262
 1929SOL    HW1 1428   3.157   2.322   1.326
 1929SOL    HW2 1429   3.047   2.265   1.219
 1930SOL     OW 1430   1.926   3.426   1.331
 1930SOL    HW1 1431   1.880   3.508   1.297
 1930SOL    HW2 1432   2.024   3.445   1.340
 1932SOL     OW 1433   2.428   2.399   0.865
 1932SOL    HW1 1434   2.440   2.465   0.791
 1932SOL    HW2 1435   2.474   2.433   0.948
 1934SOL     OW 1436   3.134   3.307   1.142
 1934SOL    HW1 1437   3.181   3.320   1.229
 1934SOL    HW2 1438   3.068   3.233   1.151
 1936SOL     OW 1439   2.216   3.372   1.329
 1936SOL    HW1 1440   2.195   3.328   1.242
 1936SOL    HW2 1441   2.313   3.398   1.332
 1937SOL     OW 1442   2.264   2.613   1.598
 1937SOL    HW1 1443   2.332   2.668   1.551
 1937SOL    HW2 1444   2.304   2.525   1.625
 1938SOL     OW 1445   3.449   2.641   1.670
 1938SOL    HW1 1446   3.357   2.679   1.665
 1938SOL    HW2 1447   3.509   2.688   1.605
 1939SOL     OW 1448   2.875   1.967   1.770
 1939SOL    HW1 1449   2.881   2.052   1.718
 1939SOL    HW2 1450   2.907   1.891   1.713
 1940SOL     OW 1451   2.366   1.912   1.740
 1940SOL    HW1 1452   2.324   1.855   1.670
 1940SOL    HW2 1453   2.300   1.981   1.772
 1941SOL     OW 1454   2.435   2.732   1.029
 1941SOL    HW1 1455   2.479   2.821   1.020
 1941SOL    HW2 1456   2.372   2.732   1.106
 1942SOL     OW 1457   3.222   2.724   1.045
 1942SOL    HW1 1458   3.147   2.724   0.979
 1942SOL    HW2 1459   3.259   2.632   1.054
 1944SOL     OW 1460   2.169   2.075   1.231
 1944SOL    HW1 1461   2.146   2.112   1.321
 1944SOL    HW2 1462   2.139   1.980   1.225
 1945SOL     OW 1463   1.899   3.172   1.282
 1945SOL    HW1 1464   1.952   3.123   1.350
 1945SOL    HW2 1465   1.921   3.270   1.287
 1946SOL     OW 1466   2.594   2.496   1.064
 1946SOL    HW1 1467   2.653   2.470   0.988
 1946SOL    HW2 1468   2.566   2.592   1.053
 1947SOL     OW 1469   3.590   2.797   1.854
 1947SOL    HW1 1470   3.544   2.790   1.765
 1947SOL    HW2 1471   3.528   2.841   1.920
 1948SOL     OW 1472   2.169   1.925   0.618
 1948SOL    HW1 1473   2.158   2.019   0.651
 1948SOL    HW2 1474   2.164   1.862   0.695
 1950SOL     OW 1475   2.885   2.628   0.966
 1950SOL    HW1 1476   2.900   2.649   1.062
 1950SOL    HW2 1477   2.855   2.533   0.957
 1951SOL     OW 1478   2.842   3.435   1.700
 1951SOL    HW1 1479   2.822   3.479   1.612
 1951SOL    HW2 1480   2.881   3.344   1.684
 1953SOL     OW 1481   2.212   2.760   1.804
 1953SOL    HW1 1482   2.288   2.804   1.852
 1953SOL    HW2 1483   2.247   2.713   1.722
 1957SOL     OW 1484   2.181   2.672   0.949
 1957SOL    HW1 1485   2.274   2.708   0.954
 1957SOL    HW2 1486   2.175   2.587   1.001
 1958SOL     OW 1487   2.201   2.371   1.006
 1958SOL    HW1 1488   2.149   2.288   0.989
 1958SOL    HW2 1489   2.278   2.376   0.942
 1959SOL     OW 1490   3.000   2.242   1.678
 1959SOL    HW1 1491   2.955   2.305   1.742
 1959SOL    HW2 1492   3.093   2.273   1.661
 1960SOL     OW 1493   3.022   2.069   1.477
 1960SOL    HW1 1494   3.022   2.133   1.554
 1960SOL    HW2 1495   3.050   2.117   1.394
 1963SOL     OW 1496   2.366   3.430   0.910
 1963SOL    HW1 1497   2.432   3.504   0.919
 1963SOL    HW2 1498   2.410   3.351   0.868
 1964SOL     OW 1499   2.864   2.658   1.238
 1964SOL    HW1 1500   2.905   2.626   1.324
 1964SOL    HW2 1501   2.768   2.631   1.235
 1965SOL     OW 1502   1.902   2.406   1.114
 1965SOL    HW1 1503   1.987   2.373   1.073
 1965SOL    HW2 1504   1.915   2.421   1.212
 1966SOL     OW 1505   2.051   2.382   1.722
 1966SOL    HW1 1506   2.110   2.342   1.652
 1966SOL    HW2 1507   1.993   2.453   1.681
 1967SOL     OW 1508   3.231   2.812   1.660
 1967SOL    HW1 1509   3.270   2.901   1.680
 1967SOL    HW2 1510   3.241   2.792   1.563
 1969SOL     OW 1511   3.519   2.466   1.206
 1969SOL    HW1 1512   3.481   2.397   1.268
 1969SOL    HW2 1513   3.601   2.430   1.162
 1970SOL     OW 1514   2.114   3.426   1.744
 1970SOL    HW1 1515   2.084   3.483   1.820
 1970SOL    HW2 1516   2.107   3.329   1.770
 1971SOL     OW 1517   2.533   2.326   1.269
 1971SOL    HW1 1518   2.499   2.237   1.239
 1971SOL    HW2 1519   2.559   2.380   1.189
 1972SOL     OW 1520   2.792   3.540   1.465
 1972SOL    HW1 1521   2.768   3.522   1.370
 1972SOL    HW2 1522   2.822   3.634   1.475
 1974SOL     OW 1523   2.021   2.999   1.466
 1974SOL    HW1 1524   2.043   2.938   1.542
 1974SOL    HW2 1525   2.031   2.950   1.380
 1975SOL     OW 1526   3.209   2.921   1.234
 1975SOL    HW1 1527   3.233   2.858   1.160
 1975SOL    HW2 1528   3.119   2.961   1.216
 1979SOL     OW 1529   1.945   3.120   1.022
 1979SOL    HW1 1530   1.940   3.119   1.122
 1979SOL    HW2 1531   1.862   3.079   0.984
 1980SOL     OW 1532   2.550   3.524   1.716
 1980SOL    HW1 1533   2.494   3.605   1.725
 1980SOL    HW2 1534   2.602   3.528   1.630
 1984SOL     OW 1535   1.992   3.656   1.851
 1984SOL    HW1 1536   1.951   3.582   1.904
 1984SOL    HW2 1537   2.056   3.707   1.909
 1986SOL     OW 1538   2.692   3.135   1.422
 1986SOL    HW1 1539   2.687   3.168   1.517
 1986SOL    HW2 1540   2.606   3.154   1.376
 1990SOL     OW 1541   2.125   2.188   0.720
 1990SOL    HW1 1542   2.046   2.239   0.686
 1990SOL    HW2 1543   2.116   2.173   0.818
 1992SOL     OW 1544   2.684   2.864   1.372
 1992SOL    HW1 1545   2.724   2.863   1.280
 1992SOL    HW2 1546   2.694   2.956   1.412
 1995SOL     OW 1547   2.234   3.150   1.490
 1995SOL    HW1 1548   2.221   3.243   1.456
 1995SOL    HW2 1549   2.150   3.098   1.477
 1996SOL     OW 1550   3.476   3.154   1.289
 1996SOL    HW1 1551   3.536   3.157   1.369
 1996SOL    HW2 1552   3.401   3.218   1.302
 1998SOL     OW 1553   2.876   2.098   0.971
 1998SOL    HW1 1554   2.868   2.062   0.878
 1998SOL    HW2 1555   2.874   2.022   1.036
 2000SOL     OW 1556   3.571   2.247   1.381
 2000SOL    HW1 1557   3.644   2.316   1.385
 2000SOL    HW2 1558   3.599   2.172   1.322
 2002SOL     OW 1559   1.967   2.875   1.726
 2002SOL    HW1 1560   1.890   2.842   1.780
 2002SOL    HW2 1561   2.052   2.845   1.768
 2003SOL     OW 1562   2.534   2.065   1.489
 2003SOL    HW1 1563   2.624   2.049   1.449
 2003SOL    HW2 1564   2.542   2.070   1.588
 2004SOL     OW 1565   3.302   2.718   1.398
 2004SOL    HW1 1566   3.245   2.770   1.335
 2004SOL    HW2 1567   3.398   2.730   1.374
 2007SOL     OW 1568   2.475   2.704   1.431
 2007SOL    HW1 1569   2.531   2.785   1.414
 2007SOL    HW2 1570   2.534   2.624   1.434
 2009SOL     OW 1571   2.578   2.427   1.708
 2009SOL    HW1 1572   2.597   2.492   1.782
 2009SOL    HW2 1573   2.638   2.347   1.717
 2010SOL     OW 1574   3.312   3.082   1.633
 2010SOL    HW1 1575   3.303   3.072   1.732
 2010SOL    HW2 1576   3.408   3.075   1.607
 2011SOL     OW 1577   2.252   3.603   1.560
 2011SOL    HW1 1578   2.161   3.644   1.558
 2011SOL    HW2 1579   2.245   3.509   1.592
 2012SOL     OW 1580   3.536   2.745   1.254
 2012SOL    HW1 1581   3.509   2.656   1.217
 2012SOL    HW2 1582   3.537   2.813   1.181
 2014SOL     OW 1583   2.456   2.607   0.652
 2014SOL    HW1 1584   2.506   2.692   0.633
 2014SOL    HW2 1585   2.368   2.609   0.604
 2015SOL     OW 1586   3.639   2.204   1.642
 2015SOL    HW1 1587   3.622   2.235   1.548
 2015SOL    HW2 1588   3.555   2.167   1.680
 2016SOL     OW 1589   3.592   2.796   1.517
 2016SOL    HW1 1590   3.630   2.887   1.532
 2016SOL    HW2 1591   3.584   2.779   1.418
 2019SOL     OW 1592   2.721   2.818   0.861
 2019SOL    HW1 1593   2.775   2.749   0.909
 2019SOL    HW2 1594   2.689   2.887   0.927
 2022SOL     OW 1595   2.083   3.176   1.844
 2022SOL    HW1 1596   2.018   3.103   1.823
 2022SOL    HW2 1597   2.087   3.190   1.942
 2024SOL     OW 1598   2.534   3.253   1.624
 2024SOL    HW1 1599   2.456   3.203   1.662
 2024SOL    HW2 1600   2.531   3.348   1.655
 2025SOL     OW 1601   3.686   2.054   1.227
 2025SOL    HW1 1602   3.682   1.964   1.271
 2025SOL    HW2 1603   3.689   2.043   1.128
 2028SOL     OW 1604   2.179   2.409   1.280
 2028SOL    HW1 1605   2.217   2.350   1.352
 2028SOL    HW2 1606   2.219   2.383   1.192
 2030SOL     OW 1607   3.286   2.076   1.112
 2030SOL    HW1 1608   3.338   2.011   1.167
 2030SOL    HW2 1609   3.237   2.139   1.173
 2031SOL     OW 1610   2.863   1.896   1.154
 2031SOL    HW1 1611   2.800   1.824   1.123
 2031SOL    HW2 1612   2.956   1.860   1.154
 2033SOL     OW 1613   2.480   3.429   1.284
 2033SOL    HW1 1614   2.475   3.511   1.341
 2033SOL    HW2 1615   2.569   3.426   1.239
 2039SOL     OW 1616   2.092   2.490   1.975
 2039SOL    HW1 1617   1.999   2.488   2.012
 2039SOL    HW2 1618   2.093   2.451   1.883
 2040SOL     OW 1619   2.087   2.137   2.858
 2040SOL    HW1 1620   2.122   2.120   2.950
 2040SOL    HW2 1621   1.999   2.092   2.846
 2041SOL     OW 1622   1.881   2.230   2.509
 2041SOL    HW1 1623   1.799   2.273   2.548
 2041SOL    HW2 1624   1.853   2.157   2.446
 2042SOL     OW 1625   2.431   3.137   3.027
 2042SOL    HW1 1626   2.338   3.130   2.990
 2042SOL    HW2 1627   2.442   3.226   3.071
 2043SOL     OW 1628   3.417   3.373   2.565
 2043SOL    HW1 1629   3.360   3.357   2.646
 2043SOL    HW2 1630   3.358   3.383   2.485
 2044SOL     OW 1631   2.997   2.565   2.579
 2044SOL    HW1 1632   3.054   2.643   2.554
 2044SOL    HW2 1633   2.937   2.591   2.655
 2045SOL     OW 1634   3.617   2.469   2.093
 2045SOL    HW1 1635   3.605   2.456   1.994
 2045SOL    HW2 1636   3.587   2.388   2.142
 2046SOL     OW 1637   2.630   3.006   2.885
 2046SOL    HW1 1638   2.552   3.023   2.945
 2046SOL    HW2 1639   2.664   3.093   2.849
 2047SOL     OW 1640   2.712   2.660   3.685
 2047SOL    HW1 1641   2.708   2.736   3.750
 2047SOL    HW2 1642   2.734   2.696   3.594
 2048SOL     OW 1643   2.547   2.874   2.527
 2048SOL    HW1 1644   2.616   2.858   2.597
 2048SOL    HW2 1645   2.474   2.931   2.565
 2049SOL     OW 1646   2.548   3.023   3.665
 2049SOL    HW1 1647   2.608   3.102   3.679
 2049SOL    HW2 1648   2.462   3.054   3.624
 2050SOL     OW 1649   2.197   3.297   2.923
 2050SOL    HW1 1650   2.119   3.266   2.870
 2050SOL    HW2 1651   2.255   3.355   2.866
 2051SOL     OW 1652   3.322   3.367   3.201
 2051SOL    HW1 1653   3.346   3.461   3.227
 2051SOL    HW2 1654   3.306   3.313   3.283
 2052SOL     OW 1655   2.300   2.254   3.361
 2052SOL    HW1 1656   2.382   2.198   3.370
 2052SOL    HW2 1657   2.219   2.196   3.365
 2053SOL     OW 1658   3.465   2.309   2.599
 2053SOL    HW1 1659   3.391   2.355   2.549
 2053SOL    HW2 1660   3.516   2.377   2.652
 2054SOL     OW 1661   2.093   3.575   2.345
 2054SOL    HW1 1662   2.127   3.652   2.399
 2054SOL    HW2 1663   2.137   3.575   2.255
 2055SOL     OW 1664   2.989   3.203   3.552
 2055SOL    HW1 1665   3.036   3.203   3.640
 2055SOL    HW2 1666   2.941   3.116   3.541
 2056SOL     OW 1667   2.092   3.296   2.400
 2056SOL    HW1 1668   2.066   3.392   2.400
 2056SOL    HW2 1669   2.021   3.242   2.445
 2057SOL     OW 1670   2.102   2.953   2.748
 2057SOL    HW1 1671   2.116   2.869   2.800
 2057SOL    HW2 1672   2.047   3.017   2.803
 2058SOL     OW 1673   2.482   3.648   3.301
 2058SOL    HW1 1674   2.390   3.631   3.336
 2058SOL    HW2 1675   2.510   3.740   3.327
 2059SOL     OW 1676   2.468   2.826   1.985
 2059SOL    HW1 1677   2.475   2.910   1.931
 2059SOL    HW2 1678   2.514   2.839   2.073
 2060SOL     OW 1679   3.456   1.976   3.342
 2060SOL    HW1 1680   3.438   2.043   3.270
 2060SOL    HW2 1681   3.453   2.022   3.431
 2061SOL     OW 1682   1.984   2.505   2.425
 2061SOL    HW1 1683   1.939   2.417   2.442
 2061SOL    HW2 1684   1.983   2.559   2.509
 2063SOL     OW 1685   1.889   3.458   1.979
 2063SOL    HW1 1686   1.870   3.362   2.000
 2063SOL    HW2 1687   1.856   3.516   2.054
 2064SOL     OW 1688   3.551   2.784   2.474
 2064SOL    HW1 1689   3.646   2.755   2.482
 2064SOL    HW2 1690   3.543   2.849   2.399
 2065SOL     OW 1691   3.503   2.970   2.294
 2065SOL    HW1 1692   3.589   2.972   2.242
 2065SOL    HW2 1693   3.517   3.017   2.382
 2066SOL     OW 1694   1.975   2.599   3.459
 2066SOL    HW1 1695   2.063   2.586   3.504
 2066SOL    HW2 1696   1.962   2.696   3.437
 2067SOL     OW 1697   2.475   3.227   2.588
 2067SOL    HW1 1698   2.426   3.140   2.597
 2067SOL    HW2 1699   2.452   3.270   2.501
 2068SOL     OW 1700   3.155   3.090   3.285
 2068SOL    HW1 1701   3.192   3.017   3.227
 2068SOL    HW2 1702   3.207   3.095   3.370
 2069SOL     OW 1703   2.671   1.866   2.364
 2069SOL    HW1 1704   2.711   1.957   2.355
 2069SOL    HW2 1705   2.571   1.874   2.370
 2070SOL     OW 1706   2.059   2.838   3.126
 2070SOL    HW1 1707   2.148   2.793   3.112
 2070SOL    HW2 1708   1.986   2.773   3.107
 2071SOL     OW 1709   3.387   2.861   2.052
 2071SOL    HW1 1710   3.324   2.785   2.065
 2071SOL    HW2 1711   3.435   2.879   2.138
 2073SOL     OW 1712   2.179   2.113   3.663
 2073SOL    HW1 1713   2.250   2.184   3.669
 2073SOL    HW2 1714   2.091   2.152   3.691
 2074SOL     OW 1715   3.328   3.279   2.815
 2074SOL    HW1 1716   3.269   3.285   2.895
 2074SOL    HW2 1717   3.313   3.191   2.769
 2075SOL     OW 1718   3.529   3.576   2.434
 2075SOL    HW1 1719   3.488   3.553   2.346
 2075SOL    HW2 1720   3.511   3.502   2.499
 2076SOL     OW 1721   2.460   2.591   2.132
 2076SOL    HW1 1722   2.484   2.660   2.064
 2076SOL    HW2 1723   2.382   2.624   2.186
 2077SOL     OW 1724   3.143   2.207   2.806
 2077SOL    HW1 1725   3.057   2.157   2.793
 2077SOL    HW2 1726   3.205   2.153   2.862
 2078SOL     OW 1727   3.438   3.524   2.169
 2078SOL    HW1 1728   3.527   3.570   2.172
 2078SOL    HW2 1729   3.417   3.500   2.074
 2079SOL     OW 1730   2.669   2.467   3.327
 2079SOL    HW1 1731   2.622   2.464   3.416
 2079SOL    HW2 1732   2.618   2.412   3.261
 2080SOL     OW 1733   3.256   2.331   3.536
 2080SOL    HW1 1734   3.236   2.374   3.624
 2080SOL    HW2 1735   3.334   2.269   3.545
 2081SOL     OW 1736   2.835   2.752   3.434
 2081SOL    HW1 1737   2.881   2.668   3.405
 2081SOL    HW2 1738   2.779   2.786   3.359
 2082SOL     OW 1739   2.853   2.272   3.104
 2082SOL    HW1 1740   2.776   2.306   3.158
 2082SOL    HW2 1741   2.819   2.221   3.025
 2083SOL     OW 1742   2.903   2.563   2.291
 2083SOL    HW1 1743   2.929   2.559   2.387
 2083SOL    HW2 1744   2.818   2.512   2.277
 2084SOL     OW 1745   1.938   2.673   2.651
 2084SOL    HW1 1746   2.037   2.661   2.660
 2084SOL    HW2 1747   1.914   2.768   2.672
 2085SOL     OW 1748   1.992   3.683   3.433
 2085SOL    HW1 1749   1.982   3.668   3.532
 2085SOL    HW2 1750   1.906   3.719   3.397
 2086SOL     OW 1751   2.727   2.210   2.057
 2086SOL    HW1 1752   2.786   2.273   2.008
 2086SOL    HW2 1753   2.746   2.116   2.028
 2088SOL     OW 1754   3.224   3.006   2.407
 2088SOL    HW1 1755   3.307   2.977   2.359
 2088SOL    HW2 1756   3.175   3.073   2.351
 2089SOL     OW 1757   2.412   2.058   2.747
 2089SOL    HW1 1758   2.407   2.053   2.847
 2089SOL    HW2 1759   2.414   2.154   2.718
 2090SOL     OW 1760   2.870   3.318   2.339
 2090SOL    HW1 1761   2.824   3.390   2.287
 2090SOL    HW2 1762   2.866   3.338   2.437
 2091SOL     OW 1763   2.213   3.663   2.715
 2091SOL    HW1 1764   2.263   3.577   2.721
 2091SOL    HW2 1765   2.278   3.740   2.712
 2092SOL     OW 1766   3.657   2.928   2.735
 2092SOL    HW1 1767   3.595   2.913   2.659
 2092SOL    HW2 1768   3.605   2.939   2.820
 2093SOL     OW 1769   3.089   3.412   3.368
 2093SOL    HW1 1770   3.095   3.335   3.432
 2093SOL    HW2 1771   3.037   3.386   3.288
 2094SOL     OW 1772   2.183   2.805   2.104
 2094SOL    HW1 1773   2.265   2.844   2.062
 2094SOL    HW2 1774   2.156   2.723   2.055
 2095SOL     OW 1775   3.320   2.597   2.590
 2095SOL    HW1 1776   3.315   2.532   2.665
 2095SOL    HW2 1777   3.400   2.656   2.603
 2096SOL     OW 1778   2.323   3.128   3.589
 2096SOL    HW1 1779   2.273   3.129   3.503
 2096SOL    HW2 1780   2.260   3.110   3.665
 2097SOL     OW 1781   2.973   3.638   2.099
 2097SOL    HW1 1782   2.913   3.576   2.149
 2097SOL    HW2 1783   3.004   3.594   2.014
 2098SOL     OW 1784   2.064   2.147   3.360
 2098SOL    HW1 1785   1.984   2.207   3.347
 2098SOL    HW2 1786   2.054   2.098   3.446
 2099SOL     OW 1787   3.494   3.239   1.943
 2099SOL    HW1 1788   3.462   3.333   1.933
 2099SOL    HW2 1789   3.418   3.176   1.931
 2100SOL     OW 1790   2.326   3.605   2.185
 2100SOL    HW1 1791   2.359   3.644   2.271
 2100SOL    HW2 1792   2.402   3.598   2.120
 2101SOL     OW 1793   3.262   1.969   2.288
 2101SOL    HW1 1794   3.238   1.932   2.198
 2101SOL    HW2 1795   3.361   1.985   2.292
 2102SOL     OW 1796   2.111   3.647   3.103
 2102SOL    HW1 1797   2.168   3.582   3.153
 2102SOL    HW2 1798   2.095   3.614   3.010
 2103SOL     OW 1799   2.802   3.560   2.766
 2103SOL    HW1 1800   2.882   3.503   2.787
 2103SOL    HW2 1801   2.753   3.520   2.689
 2104SOL     OW 1802   3.409   2.084   3.591
 2104SOL    HW1 1803   3.404   2.121   3.683
 2104SOL    HW2 1804   3.337   2.015   3.579
 2105SOL     OW 1805   2.476   1.984   1.979
 2105SOL    HW1 1806   2.574   1.962   1.986
 2105SOL    HW2 1807   2.445   1.967   1.886
 2106SOL     OW 1808   2.643   2.126   3.611
 2106SOL    HW1 1809   2.710   2.065   3.654
 2106SOL    HW2 1810   2.570   2.145   3.676
 2107SOL     OW 1811   2.750   3.376   3.057
 2107SOL    HW1 1812   2.727   3.351   2.963
 2107SOL    HW2 1813   2.811   3.307   3.096
 2108SOL     OW 1814   3.213   2.452   3.295
 2108SOL    HW1 1815   3.241   2.409   3.380
 2108SOL    HW2 1816   3.238   2.548   3.296
 2109SOL     OW 1817   2.665   3.264   2.786
 2109SOL    HW1 1818   2.755   3.278   2.744
 2109SOL    HW2 1819   2.594   3.266   2.715
 2110SOL     OW 1820   2.784   2.365   2.761
 2110SOL    HW1 1821   2.759   2.356   2.665
 2110SOL    HW2 1822   2.832   2.283   2.792
 2111SOL     OW 1823   2.401   1.926   2.374
 2111SOL    HW1 1824   2.320   1.927   2.432
 2111SOL    HW2 1825   2.404   2.009   2.319
 2112SOL     OW 1826   3.296   3.050   1.903
 2112SOL    HW1 1827   3.328   2.974   1.960
 2112SOL    HW2 1828   3.204   3.077   1.933
 2113SOL     OW 1829   2.159   1.897   2.033
 2113SOL    HW1 1830   2.208   1.981   2.012
 2113SOL    HW2 1831   2.221   1.832   2.078
 2114SOL     OW 1832   2.797   2.098   2.342
 2114SOL    HW1 1833   2.749   2.139   2.264
 2114SOL    HW2 1834   2.896   2.096   2.323
 2115SOL     OW 1835   2.938   2.545   3.326
 2115SOL    HW1 1836   2.858   2.484   3.329
 2115SOL    HW2 1837   3.019   2.492   3.302
 2116SOL     OW 1838   3.089   3.432   2.655
 2116SOL    HW1 1839   3.110   3.506   2.590
 2116SOL    HW2 1840   3.157   3.432   2.728
 2117SOL     OW 1841   2.321   3.014   2.603
 2117SOL    HW1 1842   2.250   2.987   2.668
 2117SOL    HW2 1843   2.295   2.986   2.510
 2118SOL     OW 1844   3.133   3.659   2.453
 2118SOL    HW1 1845   3.177   3.723   2.389
 2118SOL    HW2 1846   3.083   3.711   2.523
 2119SOL     OW 1847   2.894   2.411   1.878
 2119SOL    HW1 1848   2.853   2.493   1.839
 2119SOL    HW2 1849   2.958   2.437   1.951
 2120SOL     OW 1850   1.940   2.418   3.248
 2120SOL    HW1 1851   2.032   2.417   3.207
 2120SOL    HW2 1852   1.934   2.492   3.315
 2121SOL     OW 1853   2.423   2.084   3.009
 2121SOL    HW1 1854   2.461   2.000   3.046
 2121SOL    HW2 1855   2.335   2.103   3.053
 2122SOL     OW 1856   2.728   2.316   2.504
 2122SOL    HW1 1857   2.696   2.388   2.442
 2122SOL    HW2 1858   2.752   2.235   2.451
 2123SOL     OW 1859   2.879   1.901   2.615
 2123SOL    HW1 1860   2.807   1.906   2.546
 2123SOL    HW2 1861   2.855   1.832   2.684
 2124SOL     OW 1862   3.291   3.035   2.729
 2124SOL    HW1 1863   3.236   2.951   2.722
 2124SOL    HW2 1864   3.317   3.064   2.637
 2125SOL     OW 1865   3.328   2.452   2.854
 2125SOL    HW1 1866   3.298   2.357   2.861
 2125SOL    HW2 1867   3.401   2.468   2.920
 2126SOL     OW 1868   3.719   2.695   2.239
 2126SOL    HW1 1869   3.761   2.631   2.303
 2126SOL    HW2 1870   3.681   2.644   2.161
 2127SOL     OW 1871   2.350   3.247   2.036
 2127SOL    HW1 1872   2.263   3.232   2.083
 2127SOL    HW2 1873   2.333   3.273   1.941
 2128SOL     OW 1874   3.526   3.142   2.519
 2128SOL    HW1 1875   3.625   3.150   2.533
 2128SOL    HW2 1876   3.481   3.226   2.550
 2129SOL     OW 1877   3.252   2.437   1.940
 2129SOL    HW1 1878   3.198   2.416   2.021
 2129SOL    HW2 1879   3.343   2.396   1.949
 2131SOL     OW 1880   2.926   3.209   3.202
 2131SOL    HW1 1881   2.846   3.186   3.257
 2131SOL    HW2 1882   3.009   3.183   3.251
 2133SOL     OW 1883   2.973   3.057   2.962
 2133SOL    HW1 1884   2.933   3.101   3.043
 2133SOL    HW2 1885   2.932   3.094   2.879
 2134SOL     OW 1886   3.500   2.961   2.941
 2134SOL    HW1 1887   3.505   3.042   3.000
 2134SOL    HW2 1888   3.414   2.963   2.890
 2135SOL     OW 1889   2.777   1.951   3.264
 2135SOL    HW1 1890   2.802   1.931   3.169
 2135SOL    HW2 1891   2.849   2.007   3.306
 2136SOL     OW 1892   2.842   2.978   3.581
 2136SOL    HW1 1893   2.743   2.984   3.591
 2136SOL    HW2 1894   2.865   2.898   3.525
 2137SOL     OW 1895   2.567   2.912   2.230
 2137SOL    HW1 1896   2.553   2.919   2.329
 2137SOL    HW2 1897   2.651   2.861   2.212
 2138SOL     OW 1898   2.272   2.675   3.113
 2138SOL    HW1 1899   2.358   2.687   3.163
 2138SOL    HW2 1900   2.230   2.588   3.140
 2139SOL     OW 1901   3.136   2.248   3.124
 2139SOL    HW1 1902   3.157   2.322   3.188
 2139SOL    HW2 1903   3.047   2.265   3.081
 2140SOL     OW 1904   1.926   3.426   3.193
 2140SOL    HW1 1905   1.880   3.508   3.159
 2140SOL    HW2 1906   2.024   3.445   3.202
 2141SOL     OW 1907   2.229   2.962   2.363
 2141SOL    HW1 1908   2.222   3.045   2.307
 2141SOL    HW2 1909   2.233   2.882   2.303
 2142SOL     OW 1910   3.114   3.210   2.250
 2142SOL    HW1 1911   3.164   3.287   2.290
 2142SOL    HW2 1912   3.019   3.212   2.282
 2143SOL     OW 1913   3.134   3.307   3.004
 2143SOL    HW1 1914   3.181   3.320   3.091
 2143SOL    HW2 1915   3.068   3.233   3.013
 2144SOL     OW 1916   3.444   2.501   2.334
 2144SOL    HW1 1917   3.413   2.562   2.407
 2144SOL    HW2 1918   3.494   2.553   2.265
 2145SOL     OW 1919   2.216   3.372   3.191
 2145SOL    HW1 1920   2.195   3.328   3.104
 2145SOL    HW2 1921   2.313   3.398   3.194
 2146SOL     OW 1922   2.264   2.613   3.460
 2146SOL    HW1 1923   2.332   2.668   3.413
 2146SOL    HW2 1924   2.304   2.525   3.487
 2147SOL     OW 1925   3.449   2.641   3.532
 2147SOL    HW1 1926   3.357   2.679   3.527
 2147SOL    HW2 1927   3.509   2.688   3.467
 2148SOL     OW 1928   2.875   1.967   3.632
 2148SOL    HW1 1929   2.881   2.052   3.580
 2148SOL    HW2 1930   2.907   1.891   3.575
 2149SOL     OW 1931   2.366   1.912   3.602
 2149SOL    HW1 1932   2.324   1.855   3.532
 2149SOL    HW2 1933   2.300   1.981   3.634
 2150SOL     OW 1934   2.435   2.732   2.891
 2150SOL    HW1 1935   2.479   2.821   2.882
 2150SOL    HW2 1936   2.372   2.732   2.968
 2151SOL     OW 1937   3.222   2.724   2.907
 2151SOL    HW1 1938   3.147   2.724   2.841
 2151SOL    HW2 1939   3.259   2.632   2.916
 2152SOL     OW 1940   3.071   2.387   2.137
 2152SOL    HW1 1941   3.084   2.303   2.191
 2152SOL    HW2 1942   3.042   2.461   2.197
 2153SOL     OW 1943   2.169   2.075   3.093
 2153SOL    HW1 1944   2.146   2.112   3.183
 2153SOL    HW2 1945   2.139   1.980   3.087
 2154SOL     OW 1946   1.899   3.172   3.144
 2154SOL    HW1 1947   1.952   3.123   3.212
 2154SOL    HW2 1948   1.921   3.270   3.149
 2155SOL     OW 1949   2.594   2.496   2.926
 2155SOL    HW1 1950   2.653   2.470   2.850
 2155SOL    HW2 1951   2.566   2.592   2.915
 2157SOL     OW 1952   2.169   1.925   2.480
 2157SOL    HW1 1953   2.158   2.019   2.513
 2157SOL    HW2 1954   2.164   1.862   2.557
 2158SOL     OW 1955   3.484   2.229   2.236
 2158SOL    HW1 1956   3.486   2.153   2.300
 2158SOL    HW2 1957   3.436   2.306   2.276
 2159SOL     OW 1958   2.885   2.628   2.828
 2159SOL    HW1 1959   2.900   2.649   2.924
 2159SOL    HW2 1960   2.855   2.533   2.819
 2160SOL     OW 1961   2.842   3.435   3.562
 2160SOL    HW1 1962   2.822   3.479   3.474
 2160SOL    HW2 1963   2.881   3.344   3.546
 2162SOL     OW 1964   2.212   2.760   3.666
 2162SOL    HW1 1965   2.288   2.804   3.714
 2162SOL    HW2 1966   2.247   2.713   3.584
 2163SOL     OW 1967   3.402   2.136   1.987
 2163SOL    HW1 1968   3.341   2.061   2.010
 2163SOL    HW2 1969   3.424   2.188   2.070
 2164SOL     OW 1970   3.165   2.700   1.904
 2164SOL    HW1 1971   3.199   2.607   1.919
 2164SOL    HW2 1972   3.183   2.727   1.809
 2165SOL     OW 1973   2.930   3.195   2.711
 2165SOL    HW1 1974   2.937   3.111   2.656
 2165SOL    HW2 1975   2.992   3.264   2.675
 2166SOL     OW 1976   2.181   2.672   2.811
 2166SOL    HW1 1977   2.274   2.708   2.816
 2166SOL    HW2 1978   2.175   2.587   2.863
 2167SOL     OW 1979   3.000   2.242   3.540
 2167SOL    HW1 1980   2.955   2.305   3.604
 2167SOL    HW2 1981   3.093   2.273   3.523
 2168SOL     OW 1982   3.022   2.069   3.339
 2168SOL    HW1 1983   3.022   2.133   3.416
 2168SOL    HW2 1984   3.050   2.117   3.256
 2169SOL     OW 1985   1.870   3.188   2.062
 2169SOL    HW1 1986   1.777   3.209   2.031
 2169SOL    HW2 1987   1.880   3.089   2.075
 2170SOL     OW 1988   1.950   3.663   2.789
 2170SOL    HW1 1989   1.908   3.577   2.762
 2170SOL    HW2 1990   2.044   3.666   2.755
 2171SOL     OW 1991   2.366   3.430   2.772
 2171SOL    HW1 1992   2.432   3.504   2.781
 2171SOL    HW2 1993   2.410   3.351   2.730
 2172SOL     OW 1994   2.864   2.658   3.100
 2172SOL    HW1 1995   2.905   2.626   3.186
 2172SOL    HW2 1996   2.768   2.631   3.097
 2173SOL     OW 1997   1.902   2.406   2.976
 2173SOL    HW1 1998   1.987   2.373   2.935
 2173SOL    HW2 1999   1.915   2.421   3.074
 2174SOL     OW 2000   2.051   2.382   3.584
 2174SOL    HW1 2001   2.110   2.342   3.514
 2174SOL    HW2 2002   1.993   2.453   3.543
 2175SOL     OW 2003   3.231   2.812   3.522
 2175SOL    HW1 2004   3.270   2.901   3.542
 2175SOL    HW2 2005   3.241   2.792   3.425
 2176SOL     OW 2006   2.677   2.434   2.187
 2176SOL    HW1 2007   2.684   2.345   2.141
 2176SOL    HW2 2008   2.583   2.468   2.179
 2177SOL     OW 2009   3.519   2.466   3.068
 2177SOL    HW1 2010   3.481   2.397   3.130
 2177SOL    HW2 2011   3.601   2.430   3.024
 2178SOL     OW 2012   2.114   3.426   3.606
 2178SOL    HW1 2013   2.084   3.483   3.682
 2178SOL    HW2 2014   2.107   3.329   3.632
 2179SOL     OW 2015   2.533   2.326   3.131
 2179SOL    HW1 2016   2.499   2.237   3.101
 2179SOL    HW2 2017   2.559   2.380   3.051
 2180SOL     OW 2018   2.792   3.540   3.327
 2180SOL    HW1 2019   2.768   3.522   3.232
 2180SOL    HW2 2020   2.822   3.634   3.337
 2181SOL     OW 2021   2.021   2.999   3.328
 2181SOL    HW1 2022   2.043   2.938   3.404
 2181SOL    HW2 2023   2.031   2.950   3.242
 2182SOL     OW 2024   3.209   2.921   3.096
 2182SOL    HW1 2025   3.233   2.858   3.022
 2182SOL    HW2 2026   3.119   2.961   3.078
 2183SOL     OW 2027   3.164   2.717   2.171
 2183SOL    HW1 2028   3.078   2.686   2.213
 2183SOL    HW2 2029   3.160   2.703   2.072
 2185SOL     OW 2030   3.114   3.593   2.990
 2185SOL    HW1 2031   3.198   3.598   2.936
 2185SOL    HW2 2032   3.091   3.497   3.008
 2186SOL     OW 2033   1.945   3.120   2.884
 2186SOL    HW1 2034   1.940   3.119   2.984
 2186SOL    HW2 2035   1.862   3.079   2.846
 2187SOL     OW 2036   2.550   3.524   3.578
 2187SOL    HW1 2037   2.494   3.605   3.587
 2187SOL    HW2 2038   2.602   3.528   3.492
 2188SOL     OW 2039   3.588   1.997   2.385
 2188SOL    HW1 2040   3.661   1.980   2.318
 2188SOL    HW2 2041   3.557   1.910   2.423
 2189SOL     OW 2042   3.250   3.435   2.339
 2189SOL    HW1 2043   3.317   3.447   2.265
 2189SOL    HW2 2044   3.210   3.524   2.362
 2191SOL     OW 2045   3.142   2.789   2.534
 2191SOL    HW1 2046   3.202   2.708   2.536
 2191SOL    HW2 2047   3.182   2.858   2.474
 2192SOL     OW 2048   2.692   3.135   3.284
 2192SOL    HW1 2049   2.687   3.168   3.379
 2192SOL    HW2 2050   2.606   3.154   3.238
 2193SOL     OW 2051   2.534   3.478   2.016
 2193SOL    HW1 2052   2.543   3.488   1.917
 2193SOL    HW2 2053   2.494   3.389   2.037
 2195SOL     OW 2054   3.703   2.037   2.825
 2195SOL    HW1 2055   3.742   1.952   2.789
 2195SOL    HW2 2056   3.605   2.039   2.806
 2196SOL     OW 2057   2.125   2.188   2.582
 2196SOL    HW1 2058   2.046   2.239   2.548
 2196SOL    HW2 2059   2.116   2.173   2.680
 2197SOL     OW 2060   3.056   3.474   1.893
 2197SOL    HW1 2061   3.062   3.381   1.930
 2197SOL    HW2 2062   2.997   3.474   1.813
 2198SOL     OW 2063   2.684   2.864   3.234
 2198SOL    HW1 2064   2.724   2.863   3.142
 2198SOL    HW2 2065   2.694   2.956   3.274
 2199SOL     OW 2066   2.778   2.772   2.153
 2199SOL    HW1 2067   2.841   2.810   2.085
 2199SOL    HW2 2068   2.818   2.689   2.192
 2200SOL     OW 2069   3.366   3.469   1.906
 2200SOL    HW1 2070   3.274   3.506   1.913
 2200SOL    HW2 2071   3.404   3.489   1.816
 2201SOL     OW 2072   2.234   3.150   3.352
 2201SOL    HW1 2073   2.221   3.243   3.318
 2201SOL    HW2 2074   2.150   3.098   3.339
 2202SOL     OW 2075   3.476   3.154   3.151
 2202SOL    HW1 2076   3.536   3.157   3.231
 2202SOL    HW2 2077   3.401   3.218   3.164
 2203SOL     OW 2078   2.901   2.960   2.558
 2203SOL    HW1 2079   2.831   2.913   2.612
 2203SOL    HW2 2080   2.960   2.892   2.515
 2204SOL     OW 2081   2.876   2.098   2.833
 2204SOL    HW1 2082   2.868   2.062   2.740
 2204SOL    HW2 2083   2.874   2.022   2.898
 2205SOL     OW 2084   2.452   3.349   2.353
 2205SOL    HW1 2085   2.494   3.291   2.283
 2205SOL    HW2 2086   2.408   3.428   2.309
 2206SOL     OW 2087   3.571   2.247   3.243
 2206SOL    HW1 2088   3.644   2.316   3.247
 2206SOL    HW2 2089   3.599   2.172   3.184
 2207SOL     OW 2090   2.117   3.210   2.152
 2207SOL    HW1 2091   2.021   3.211   2.125
 2207SOL    HW2 2092   2.129   3.263   2.236
 2208SOL     OW 2093   1.967   2.875   3.588
 2208SOL    HW1 2094   1.890   2.842   3.642
 2208SOL    HW2 2095   2.052   2.845   3.630
 2209SOL     OW 2096   2.534   2.065   3.351
 2209SOL    HW1 2097   2.624   2.049   3.311
 2209SOL    HW2 2098   2.542   2.070   3.450
 2210SOL     OW 2099   1.937   2.207   1.895
 2210SOL    HW1 2100   1.845   2.179   1.866
 2210SOL    HW2 2101   1.968   2.284   1.839
 2211SOL     OW 2102   3.302   2.718   3.260
 2211SOL    HW1 2103   3.245   2.770   3.197
 2211SOL    HW2 2104   3.398   2.730   3.236
 2212SOL     OW 2105   1.934   2.028   2.180
 2212SOL    HW1 2106   1.917   2.111   2.126
 2212SOL    HW2 2107   2.024   1.991   2.158
 2213SOL     OW 2108   3.045   3.197   1.981
 2213SOL    HW1 2109   2.946   3.186   1.983
 2213SOL    HW2 2110   3.079   3.212   2.074
 2214SOL     OW 2111   2.475   2.704   3.293
 2214SOL    HW1 2112   2.531   2.785   3.276
 2214SOL    HW2 2113   2.534   2.624   3.296
 2215SOL     OW 2114   3.355   3.629   2.821
 2215SOL    HW1 2115   3.388   3.693   2.752
 2215SOL    HW2 2116   3.421   3.623   2.896
 2216SOL     OW 2117   2.578   2.427   3.570
 2216SOL    HW1 2118   2.597   2.492   3.644
 2216SOL    HW2 2119   2.638   2.347   3.579
 2217SOL     OW 2120   3.312   3.082   3.495
 2217SOL    HW1 2121   3.303   3.072   3.594
 2217SOL    HW2 2122   3.408   3.075   3.469
 2218SOL     OW 2123   2.252   3.603   3.422
 2218SOL    HW1 2124   2.161   3.644   3.420
 2218SOL    HW2 2125   2.245   3.509   3.454
 2219SOL     OW 2126   3.536   2.745   3.116
 2219SOL    HW1 2127   3.509   2.656   3.079
 2219SOL    HW2 2128   3.537   2.813   3.043
 2220SOL     OW 2129   3.087   2.187   2.311
 2220SOL    HW1 2130   3.152   2.113   2.300
 2220SOL    HW2 2131   3.107   2.237   2.395
 2221SOL     OW 2132   2.456   2.607   2.514
 2221SOL    HW1 2133   2.506   2.692   2.495
 2221SOL    HW2 2134   2.368   2.609   2.466
 2222SOL     OW 2135   3.639   2.204   3.504
 2222SOL    HW1 2136   3.622   2.235   3.410
 2222SOL    HW2 2137   3.555   2.167   3.542
 2223SOL     OW 2138   3.592   2.796   3.379
 2223SOL    HW1 2139   3.630   2.887   3.394
 2223SOL    HW2 2140   3.584   2.779   3.280
 2224SOL     OW 2141   2.721   3.236   1.878
 2224SOL    HW1 2142   2.675   3.251   1.966
 2224SOL    HW2 2143   2.765   3.321   1.848
 2225SOL     OW 2144   2.523   3.652   2.815
 2225SOL    HW1 2145   2.477   3.740   2.802
 2225SOL    HW2 2146   2.622   3.664   2.808
 2226SOL     OW 2147   2.721   2.818   2.723
 2226SOL    HW1 2148   2.775   2.749   2.771
 2226SOL    HW2 2149   2.689   2.887   2.789
 2227SOL     OW 2150   2.945   2.846   1.949
 2227SOL    HW1 2151   2.922   2.899   1.867
 2227SOL    HW2 2152   3.026   2.790   1.930
 2229SOL     OW 2153   2.083   3.176   3.706
 2229SOL    HW1 2154   2.018   3.103   3.685
 2229SOL    HW2 2155   2.087   3.190   3.804
 2230SOL     OW 2156   1.941   3.102   2.515
 2230SOL    HW1 2157   1.940   3.055   2.603
 2230SOL    HW2 2158   2.023   3.074   2.464
 2231SOL     OW 2159   2.534   3.253   3.486
 2231SOL    HW1 2160   2.456   3.203   3.524
 2231SOL    HW2 2161   2.531   3.348   3.517
 2232SOL     OW 2162   3.686   2.054   3.089
 2232SOL    HW1 2163   3.682   1.964   3.133
 2232SOL    HW2 2164   3.689   2.043   2.990
 2233SOL     OW 2165   3.567   3.349   2.966
 2233SOL    HW1 2166   3.474   3.324   2.939
 2233SOL    HW2 2167   3.593   3.299   3.048
 2234SOL     OW 2168   2.179   2.409   3.142
 2234SOL    HW1 2169   2.217   2.350   3.214
 2234SOL    HW2 2170   2.219   2.383   3.054
 2235SOL     OW 2171   2.674   3.448   2.549
 2235SOL    HW1 2172   2.706   3.458   2.455
 2235SOL    HW2 2173   2.595   3.386   2.551
 2236SOL     OW 2174   3.286   2.076   2.974
 2236SOL    HW1 2175   3.338   2.011   3.029
 2236SOL    HW2 2176   3.237   2.139   3.035
 2237SOL     OW 2177   2.863   1.896   3.016
 2237SOL    HW1 2178   2.800   1.824   2.985
 2237SOL    HW2 2179   2.956   1.860   3.016
 2238SOL     OW 2180   2.632   3.192   2.163
 2238SOL    HW1 2181   2.586   3.105   2.180
 2238SOL    HW2 2182   2.723   3.189   2.204
 2239SOL     OW 2183   2.480   3.429   3.146
 2239SOL    HW1 2184   2.475   3.511   3.203
 2239SOL    HW2 2185   2.569   3.426   3.101
 2240SOL     OW 2186   3.214   1.914   2.030
 2240SOL    HW1 2187   3.249   1.873   1.946
 2240SOL    HW2 2188   3.124   1.876   2.050
 2241SOL     OW 2189   3.162   2.315   2.553
 2241SOL    HW1 2190   3.103   2.395   2.557
 2241SOL    HW2 2191   3.177   2.280   2.646
 2242SOL     OW 2192   3.455   2.083   2.744
 2242SOL    HW1 2193   3.371   2.082   2.798
 2242SOL    HW2 2194   3.457   2.166   2.688
 2243SOL     OW 2195   1.901   2.939   2.162
 2243SOL    HW1 2196   2.000   2.928   2.153
 2243SOL    HW2 2197   1.861   2.853   2.194
 2244SOL     OW 2198   2.737   3.508   2.199
 2244SOL    HW1 2199   2.660   3.473   2.145
 2244SOL    HW2 2200   2.705   3.579   2.261
 2245SOL     OW 2201   2.092   2.490   3.837
 2245SOL    HW1 2202   1.999   2.488   3.874
 2245SOL    HW2 2203   2.093   2.451   3.745
 2257SOL     OW 2204   2.468   2.826   3.847
 2257SOL    HW1 2205   2.475   2.910   3.793
 2257SOL    HW2 2206   2.514   2.839   3.935
 2267SOL     OW 2207   2.460   2.591   3.994
 2267SOL    HW1 2208   2.484   2.660   3.926
 2267SOL    HW2 2209   2.382   2.624   4.048
 2272SOL     OW 2210   2.727   2.210   3.919
 2272SOL    HW1 2211   2.786   2.273   3.870
 2272SOL    HW2 2212   2.746   2.116   3.890
 2278SOL     OW 2213   2.183   2.805   3.966
 2278SOL    HW1 2214   2.265   2.844   3.924
 2278SOL    HW2 2215   2.156   2.723   3.917
 2285SOL     OW 2216   2.476   1.984   3.841
 2285SOL    HW1 2217   2.574   1.962   3.848
 2285SOL    HW2 2218   2.445   1.967   3.748
 2288SOL     OW 2219   2.159   1.897   3.895
 2288SOL    HW1 2220   2.208   1.981   3.874
 2288SOL    HW2 2221   2.221   1.832   3.940
 2292SOL     OW 2222   2.894   2.411   3.740
 2292SOL    HW1 2223   2.853   2.493   3.701
 2292SOL    HW2 2224   2.958   2.437   3.813
 2298SOL     OW 2225   3.252   2.437   3.802
 2298SOL    HW1 2226   3.198   2.416   3.883
 2298SOL    HW2 2227   3.343   2.396   3.811
 2299SOL     OW 2228   2.389   2.118   4.052
 2299SOL    HW1 2229   2.416   2.059   3.977
 2299SOL    HW2 2230   2.389   2.213   4.021
 2309SOL     OW 2231   3.165   2.700   3.766
 2309SOL    HW1 2232   3.199   2.607   3.781
 2309SOL    HW2 2233   3.183   2.727   3.671
 2313SOL     OW 2234   2.677   2.434   4.049
 2313SOL    HW1 2235   2.684   2.345   4.003
 2313SOL    HW2 2236   2.583   2.468   4.041
 2314SOL     OW 2237   2.335   2.362   3.915
 2314SOL    HW1 2238   2.396   2.442   3.919
 2314SOL    HW2 2239   2.240   2.393   3.922
 2328SOL     OW 2240   1.937   2.207   3.757
 2328SOL    HW1 2241   1.845   2.179   3.728
 2328SOL    HW2 2242   1.968   2.284   3.701
 2329SOL     OW 2243   1.934   2.028   4.042
 2329SOL    HW1 2244   1.917   2.111   3.988
 2329SOL    HW2 2245   2.024   1.991   4.020
 2333SOL     OW 2246   2.721   3.236   3.740
 2333SOL    HW1 2247   2.675   3.251   3.828
 2333SOL    HW2 2248   2.765   3.321   3.710
 2336SOL     OW 2249   2.945   2.846   3.811
 2336SOL    HW1 2250   2.922   2.899   3.729
 2336SOL    HW2 2251   3.026   2.790   3.792
 2359SOL     OW 2252   2.179   3.975   1.801
 2359SOL    HW1 2253   2.250   4.046   1.807
 2359SOL    HW2 2254   2.091   4.014   1.829
 2375SOL     OW 2255   2.643   3.988   1.749
 2375SOL    HW1 2256   2.710   3.927   1.792
 2375SOL    HW2 2257   2.570   4.007   1.814
 2399SOL     OW 2258   2.875   3.829   1.770
 2399SOL    HW1 2259   2.881   3.914   1.718
 2399SOL    HW2 2260   2.907   3.753   1.713
 2400SOL     OW 2261   2.366   3.774   1.740
 2400SOL    HW1 2262   2.324   3.717   1.670
 2400SOL    HW2 2263   2.300   3.843   1.772
 2448SOL     OW 2264   2.087   3.999   2.858
 2448SOL    HW1 2265   2.122   3.982   2.950
 2448SOL    HW2 2266   1.999   3.954   2.846
 2459SOL     OW 2267   2.671   3.728   2.364
 2459SOL    HW1 2268   2.711   3.819   2.355
 2459SOL    HW2 2269   2.571   3.736   2.370
 2470SOL     OW 2270   2.412   3.920   2.747
 2470SOL    HW1 2271   2.407   3.915   2.847
 2470SOL    HW2 2272   2.414   4.016   2.718
 2473SOL     OW 2273   3.262   3.831   2.288
 2473SOL    HW1 2274   3.238   3.794   2.198
 2473SOL    HW2 2275   3.361   3.847   2.292
 2476SOL     OW 2276   2.476   3.846   1.979
 2476SOL    HW1 2277   2.574   3.824   1.986
 2476SOL    HW2 2278   2.445   3.829   1.886
 2480SOL     OW 2279   2.401   3.788   2.374
 2480SOL    HW1 2280   2.320   3.789   2.432
 2480SOL    HW2 2281   2.404   3.871   2.319
 2481SOL     OW 2282   2.159   3.759   2.033
 2481SOL    HW1 2283   2.208   3.843   2.012
 2481SOL    HW2 2284   2.221   3.694   2.078
 2482SOL     OW 2285   2.797   3.960   2.342
 2482SOL    HW1 2286   2.749   4.001   2.264
 2482SOL    HW2 2287   2.896   3.958   2.323
 2487SOL     OW 2288   2.423   3.946   3.009
 2487SOL    HW1 2289   2.461   3.862   3.046
 2487SOL    HW2 2290   2.335   3.965   3.053
 2489SOL     OW 2291   2.879   3.763   2.615
 2489SOL    HW1 2292   2.807   3.768   2.546
 2489SOL    HW2 2293   2.855   3.694   2.684
 2493SOL     OW 2294   2.389   3.980   2.190
 2493SOL    HW1 2295   2.416   3.921   2.115
 2493SOL    HW2 2296   2.389   4.075   2.159
 2506SOL     OW 2297   2.169   3.937   3.093
 2506SOL    HW1 2298   2.146   3.974   3.183
 2506SOL    HW2 2299   2.139   3.842   3.087
 2509SOL     OW 2300   2.169   3.787   2.480
 2509SOL    HW1 2301   2.158   3.881   2.513
 2509SOL    HW2 2302   2.164   3.724   2.557
 2527SOL     OW 2303   2.125   4.050   2.582
 2527SOL    HW1 2304   2.046   4.101   2.548
 2527SOL    HW2 2305   2.116   4.035   2.680
 2535SOL     OW 2306   1.934   3.890   2.180
 2535SOL    HW1 2307   1.917   3.973   2.126
 2535SOL    HW2 2308   2.024   3.853   2.158
 2546SOL     OW 2309   2.863   3.758   3.016
 2546SOL    HW1 2310   2.800   3.686   2.985
 2546SOL    HW2 2311   2.956   3.722   3.016
 2547SOL     OW 2312   3.214   3.776   2.030
 2547SOL    HW1 2313   3.249   3.735   1.946
 2547SOL    HW2 2314   3.124   3.738   2.050
 2624SOL     OW 2315   3.854   1.821   1.571
 2624SOL    HW1 2316   3.844   1.806   1.670
 2624SOL    HW2 2317   3.768   1.857   1.535
 2675SOL     OW 2318   3.854   1.794   1.851
 2675SOL    HW1 2319   3.813   1.720   1.904
 2675SOL    HW2 2320   3.918   1.845   1.909
 2710SOL     OW 2321   3.955   1.713   2.345
 2710SOL    HW1 2322   3.989   1.790   2.399
 2710SOL    HW2 2323   3.999   1.713   2.255
 2716SOL     OW 2324   3.751   1.596   1.979
 2716SOL    HW1 2325   3.732   1.500   2.000
 2716SOL    HW2 2326   3.718   1.654   2.054
 2763SOL     OW 2327   3.732   1.326   2.062
 2763SOL    HW1 2328   3.639   1.347   2.031
 2763SOL    HW2 2329   3.742   1.227   2.075
 2764SOL     OW 2330   3.812   1.801   2.789
 2764SOL    HW1 2331   3.770   1.715   2.762
 2764SOL    HW2 2332   3.906   1.804   2.755
 2862SOL     OW 2333   3.837   2.599   1.597
 2862SOL    HW1 2334   3.925   2.586   1.642
 2862SOL    HW2 2335   3.824   2.696   1.575
 2885SOL     OW 2336   3.802   2.418   1.386
 2885SOL    HW1 2337   3.894   2.417   1.345
 2885SOL    HW2 2338   3.796   2.492   1.453
 2911SOL     OW 2339   3.913   2.382   1.722
 2911SOL    HW1 2340   3.972   2.342   1.652
 2911SOL    HW2 2341   3.855   2.453   1.681
 2929SOL     OW 2342   3.829   2.875   1.726
 2929SOL    HW1 2343   3.752   2.842   1.780
 2929SOL    HW2 2344   3.914   2.845   1.768
 2945SOL     OW 2345   3.954   2.490   1.975
 2945SOL    HW1 2346   3.861   2.488   2.012
 2945SOL    HW2 2347   3.955   2.451   1.883
 2946SOL     OW 2348   3.949   2.137   2.858
 2946SOL    HW1 2349   3.984   2.120   2.950
 2946SOL    HW2 2350   3.861   2.092   2.846
 2947SOL     OW 2351   3.743   2.230   2.509
 2947SOL    HW1 2352   3.661   2.273   2.548
 2947SOL    HW2 2353   3.715   2.157   2.446
 2959SOL     OW 2354   3.846   2.505   2.425
 2959SOL    HW1 2355   3.801   2.417   2.442
 2959SOL    HW2 2356   3.845   2.559   2.509
 2968SOL     OW 2357   3.800   2.673   2.651
 2968SOL    HW1 2358   3.899   2.661   2.660
 2968SOL    HW2 2359   3.776   2.768   2.672
 2983SOL     OW 2360   4.021   1.897   2.033
 2983SOL    HW1 2361   4.070   1.981   2.012
 2983SOL    HW2 2362   4.083   1.832   2.078
 2985SOL     OW 2363   3.802   2.418   3.248
 2985SOL    HW1 2364   3.894   2.417   3.207
 2985SOL    HW2 2365   3.796   2.492   3.315
 3001SOL     OW 2366   4.031   1.925   2.480
 3001SOL    HW1 2367   4.020   2.019   2.513
 3001SOL    HW2 2368   4.026   1.862   2.557
 3007SOL     OW 2369   3.732   3.188   2.062
 3007SOL    HW1 2370   3.639   3.209   2.031
 3007SOL    HW2 2371   3.742   3.089   2.075
 3010SOL     OW 2372   3.764   2.406   2.976
 3010SOL    HW1 2373   3.849   2.373   2.935
 3010SOL    HW2 2374   3.777   2.421   3.074
 3017SOL     OW 2375   3.807   3.120   2.884
 3017SOL    HW1 2376   3.802   3.119   2.984
 3017SOL    HW2 2377   3.724   3.079   2.846
 3023SOL     OW 2378   3.987   2.188   2.582
 3023SOL    HW1 2379   3.908   2.239   2.548
 3023SOL    HW2 2380   3.978   2.173   2.680
 3030SOL     OW 2381   3.799   2.207   1.895
 3030SOL    HW1 2382   3.707   2.179   1.866
 3030SOL    HW2 2383   3.830   2.284   1.839
 3031SOL     OW 2384   3.796   2.028   2.180
 3031SOL    HW1 2385   3.779   2.111   2.126
 3031SOL    HW2 2386   3.886   1.991   2.158
 3038SOL     OW 2387   3.803   3.102   2.515
 3038SOL    HW1 2388   3.802   3.055   2.603
 3038SOL    HW2 2389   3.885   3.074   2.464
 3044SOL     OW 2390   3.763   2.939   2.162
 3044SOL    HW1 2391   3.862   2.928   2.153
 3044SOL    HW2 2392   3.723   2.853   2.194
   4.64222   4.64222   4.64222
