mobley_3515580_GMX.gro created by acpype (v: 2023.10.27) on Tue May 19 12:44:00 2026
 2402
    1MOL     C1    1   2.520   2.262   2.225
    1MOL     C2    2   2.408   2.327   2.173
    1MOL     C3    3   2.535   2.249   2.364
    1MOL     C4    4   2.311   2.379   2.258
    1MOL     C5    5   2.438   2.301   2.449
    1MOL     C6    6   2.326   2.367   2.396
    1MOL     C7    7   2.120   2.483   2.417
    1MOL     O1    8   2.453   2.289   2.584
    1MOL     O2    9   2.231   2.418   2.479
    1MOL     H1   10   2.595   2.221   2.159
    1MOL     H2   11   2.397   2.336   2.065
    1MOL     H3   12   2.622   2.198   2.404
    1MOL     H4   13   2.225   2.430   2.217
    1MOL     H5   14   2.051   2.520   2.494
    1MOL     H6   15   2.068   2.413   2.351
    1MOL     H7   16   2.156   2.568   2.358
    1MOL     H8   17   2.535   2.241   2.604
   14SOL     OW   18   1.460   1.505   1.339
   14SOL    HW1   19   1.484   1.599   1.365
   14SOL    HW2   20   1.444   1.451   1.421
   18SOL     OW   21   1.127   1.341   1.690
   18SOL    HW1   22   1.174   1.341   1.778
   18SOL    HW2   23   1.079   1.254   1.679
   35SOL     OW   24   1.187   1.792   1.616
   35SOL    HW1   25   1.211   1.852   1.540
   35SOL    HW2   26   1.194   1.697   1.586
   56SOL     OW   27   1.227   1.550   1.506
   56SOL    HW1   28   1.233   1.473   1.570
   56SOL    HW2   29   1.175   1.524   1.426
   95SOL     OW   30   1.754   1.223   1.588
   95SOL    HW1   31   1.845   1.184   1.575
   95SOL    HW2   32   1.762   1.319   1.612
   97SOL     OW   33   1.592   1.629   1.625
   97SOL    HW1   34   1.619   1.663   1.535
   97SOL    HW2   35   1.671   1.591   1.671
  122SOL     OW   36   1.728   0.935   1.854
  122SOL    HW1   37   1.682   0.928   1.765
  122SOL    HW2   38   1.666   0.979   1.920
  126SOL     OW   39   0.980   1.573   1.700
  126SOL    HW1   40   0.960   1.617   1.612
  126SOL    HW2   41   1.019   1.482   1.684
  127SOL     OW   42   1.859   1.518   1.605
  127SOL    HW1   43   1.873   1.545   1.510
  127SOL    HW2   44   1.942   1.540   1.658
  152SOL     OW   45   1.759   1.747   1.154
  152SOL    HW1   46   1.820   1.777   1.081
  152SOL    HW2   47   1.721   1.658   1.132
  153SOL     OW   48   1.252   1.731   1.128
  153SOL    HW1   49   1.336   1.736   1.074
  153SOL    HW2   50   1.229   1.635   1.146
  163SOL     OW   51   1.650   1.720   1.394
  163SOL    HW1   52   1.703   1.730   1.310
  163SOL    HW2   53   1.623   1.810   1.428
  171SOL     OW   54   1.614   1.292   1.289
  171SOL    HW1   55   1.674   1.295   1.369
  171SOL    HW2   56   1.539   1.356   1.302
  184SOL     OW   57   1.493   1.767   0.959
  184SOL    HW1   58   1.526   1.831   0.890
  184SOL    HW2   59   1.559   1.761   1.034
  186SOL     OW   60   1.450   1.220   1.633
  186SOL    HW1   61   1.441   1.210   1.732
  186SOL    HW2   62   1.546   1.213   1.607
  192SOL     OW   63   1.730   0.934   1.517
  192SOL    HW1   64   1.768   1.025   1.532
  192SOL    HW2   65   1.722   0.917   1.418
  197SOL     OW   66   1.861   1.569   0.851
  197SOL    HW1   67   1.790   1.557   0.781
  197SOL    HW2   68   1.862   1.490   0.911
  203SOL     OW   69   1.705   1.487   1.104
  203SOL    HW1   70   1.612   1.462   1.077
  203SOL    HW2   71   1.731   1.437   1.186
  219SOL     OW   72   1.555   1.511   2.565
  219SOL    HW1   73   1.498   1.495   2.646
  219SOL    HW2   74   1.496   1.521   2.485
  227SOL     OW   75   1.460   1.505   3.201
  227SOL    HW1   76   1.484   1.599   3.227
  227SOL    HW2   77   1.444   1.451   3.283
  238SOL     OW   78   1.842   1.767   2.221
  238SOL    HW1   79   1.896   1.738   2.301
  238SOL    HW2   80   1.872   1.857   2.192
  240SOL     OW   81   1.689   0.922   2.474
  240SOL    HW1   82   1.784   0.893   2.482
  240SOL    HW2   83   1.681   0.987   2.399
  241SOL     OW   84   1.641   1.108   2.294
  241SOL    HW1   85   1.727   1.110   2.242
  241SOL    HW2   86   1.655   1.155   2.382
  247SOL     OW   87   1.525   0.999   2.052
  247SOL    HW1   88   1.462   0.923   2.065
  247SOL    HW2   89   1.573   1.017   2.138
  248SOL     OW   90   1.187   1.792   3.478
  248SOL    HW1   91   1.211   1.852   3.402
  248SOL    HW2   92   1.194   1.697   3.448
  250SOL     OW   93   1.466   1.417   2.815
  250SOL    HW1   94   1.407   1.423   2.895
  250SOL    HW2   95   1.451   1.329   2.769
  251SOL     OW   96   1.667   1.714   2.434
  251SOL    HW1   97   1.626   1.691   2.346
  251SOL    HW2   98   1.649   1.640   2.499
  254SOL     OW   99   1.576   1.662   2.169
  254SOL    HW1  100   1.665   1.708   2.172
  254SOL    HW2  101   1.555   1.638   2.074
  264SOL     OW  102   1.362   1.144   2.407
  264SOL    HW1  103   1.445   1.115   2.359
  264SOL    HW2  104   1.313   1.211   2.351
  266SOL     OW  105   1.008   1.456   2.339
  266SOL    HW1  106   0.962   1.528   2.287
  266SOL    HW2  107   1.004   1.476   2.437
  268SOL     OW  108   1.795   1.066   2.735
  268SOL    HW1  109   1.733   1.051   2.659
  268SOL    HW2  110   1.743   1.077   2.820
  269SOL     OW  111   1.227   1.550   3.368
  269SOL    HW1  112   1.233   1.473   3.432
  269SOL    HW2  113   1.175   1.524   3.288
  273SOL     OW  114   1.111   1.776   2.099
  273SOL    HW1  115   1.051   1.714   2.149
  273SOL    HW2  116   1.142   1.732   2.014
  275SOL     OW  117   1.632   1.377   1.943
  275SOL    HW1  118   1.600   1.471   1.933
  275SOL    HW2  119   1.556   1.314   1.931
  279SOL     OW  120   0.940   1.698   2.766
  279SOL    HW1  121   1.020   1.641   2.787
  279SOL    HW2  122   0.891   1.658   2.689
  289SOL     OW  123   1.434   1.188   1.903
  289SOL    HW1  124   1.466   1.112   1.960
  289SOL    HW2  125   1.342   1.215   1.933
  293SOL     OW  126   1.227   1.570   2.655
  293SOL    HW1  127   1.248   1.644   2.590
  293SOL    HW2  128   1.295   1.570   2.728
  295SOL     OW  129   1.271   1.797   2.453
  295SOL    HW1  130   1.315   1.861   2.389
  295SOL    HW2  131   1.221   1.849   2.523
  301SOL     OW  132   1.429   1.173   2.729
  301SOL    HW1  133   1.374   1.089   2.722
  301SOL    HW2  134   1.455   1.202   2.637
  303SOL     OW  135   1.857   0.833   2.239
  303SOL    HW1  136   1.899   0.769   2.303
  303SOL    HW2  137   1.819   0.782   2.161
  305SOL     OW  138   1.664   1.280   2.519
  305SOL    HW1  139   1.763   1.288   2.533
  305SOL    HW2  140   1.619   1.364   2.550
  308SOL     OW  141   1.754   1.223   3.450
  308SOL    HW1  142   1.845   1.184   3.437
  308SOL    HW2  143   1.762   1.319   3.474
  310SOL     OW  144   1.592   1.629   3.487
  310SOL    HW1  145   1.619   1.663   3.397
  310SOL    HW2  146   1.671   1.591   3.533
  312SOL     OW  147   1.638   1.099   2.941
  312SOL    HW1  148   1.643   1.180   3.000
  312SOL    HW2  149   1.552   1.101   2.890
  321SOL     OW  150   1.252   1.348   2.250
  321SOL    HW1  151   1.302   1.425   2.290
  321SOL    HW2  152   1.157   1.350   2.282
  322SOL     OW  153   1.272   1.445   3.004
  322SOL    HW1  154   1.319   1.458   3.091
  322SOL    HW2  155   1.206   1.371   3.013
  340SOL     OW  156   1.859   1.518   3.467
  340SOL    HW1  157   1.873   1.545   3.372
  340SOL    HW2  158   1.942   1.540   3.520
  344SOL     OW  159   1.068   1.333   2.711
  344SOL    HW1  160   1.075   1.249   2.656
  344SOL    HW2  161   1.130   1.402   2.675
  363SOL     OW  162   1.347   1.059   3.096
  363SOL    HW1  163   1.371   0.996   3.022
  363SOL    HW2  164   1.257   1.099   3.078
  365SOL     OW  165   1.759   1.747   3.016
  365SOL    HW1  166   1.820   1.777   2.943
  365SOL    HW2  167   1.721   1.658   2.994
  366SOL     OW  168   1.252   1.731   2.990
  366SOL    HW1  169   1.336   1.736   2.936
  366SOL    HW2  170   1.229   1.635   3.008
  370SOL     OW  171   1.388   1.573   2.339
  370SOL    HW1  172   1.455   1.585   2.265
  370SOL    HW2  173   1.348   1.662   2.362
  372SOL     OW  174   1.280   0.927   2.534
  372SOL    HW1  175   1.340   0.846   2.536
  372SOL    HW2  176   1.320   0.996   2.474
  375SOL     OW  177   1.650   1.720   3.256
  375SOL    HW1  178   1.703   1.730   3.172
  375SOL    HW2  179   1.623   1.810   3.290
  378SOL     OW  180   1.194   1.612   1.893
  378SOL    HW1  181   1.200   1.519   1.930
  378SOL    HW2  182   1.135   1.612   1.813
  381SOL     OW  183   1.504   1.607   1.906
  381SOL    HW1  184   1.412   1.644   1.913
  381SOL    HW2  185   1.542   1.627   1.816
  383SOL     OW  186   1.614   1.292   3.151
  383SOL    HW1  187   1.674   1.295   3.231
  383SOL    HW2  188   1.539   1.356   3.164
  394SOL     OW  189   1.183   1.335   1.981
  394SOL    HW1  190   1.084   1.324   1.983
  394SOL    HW2  191   1.217   1.350   2.074
  396SOL     OW  192   1.493   1.767   2.821
  396SOL    HW1  193   1.526   1.831   2.752
  396SOL    HW2  194   1.559   1.761   2.896
  400SOL     OW  195   1.674   0.883   3.116
  400SOL    HW1  196   1.647   0.794   3.079
  400SOL    HW2  197   1.675   0.951   3.043
  409SOL     OW  198   1.861   1.569   2.713
  409SOL    HW1  199   1.790   1.557   2.643
  409SOL    HW2  200   1.862   1.490   2.773
  415SOL     OW  201   1.705   1.487   2.966
  415SOL    HW1  202   1.612   1.462   2.939
  415SOL    HW2  203   1.731   1.437   3.048
  417SOL     OW  204   0.812   1.586   2.549
  417SOL    HW1  205   0.844   1.596   2.455
  417SOL    HW2  206   0.733   1.524   2.551
  426SOL     OW  207   0.875   1.646   2.199
  426SOL    HW1  208   0.798   1.611   2.145
  426SOL    HW2  209   0.843   1.717   2.261
  542SOL     OW  210   0.850   2.660   1.823
  542SOL    HW1  211   0.846   2.736   1.888
  542SOL    HW2  212   0.872   2.696   1.732
  546SOL     OW  213   1.460   3.367   1.339
  546SOL    HW1  214   1.484   3.461   1.365
  546SOL    HW2  215   1.444   3.313   1.421
  548SOL     OW  216   1.603   2.309   0.737
  548SOL    HW1  217   1.529   2.355   0.687
  548SOL    HW2  218   1.654   2.377   0.790
  550SOL     OW  219   1.127   3.203   1.690
  550SOL    HW1  220   1.174   3.203   1.778
  550SOL    HW2  221   1.079   3.116   1.679
  555SOL     OW  222   1.594   1.976   1.480
  555SOL    HW1  223   1.576   2.043   1.408
  555SOL    HW2  224   1.591   2.022   1.569
  563SOL     OW  225   1.293   3.090   1.423
  563SOL    HW1  226   1.330   3.017   1.365
  563SOL    HW2  227   1.345   3.095   1.508
  572SOL     OW  228   1.281   2.207   0.944
  572SOL    HW1  229   1.195   2.157   0.931
  572SOL    HW2  230   1.343   2.153   1.000
  574SOL     OW  231   0.807   2.467   1.465
  574SOL    HW1  232   0.760   2.464   1.554
  574SOL    HW2  233   0.756   2.412   1.399
  575SOL     OW  234   1.394   2.331   1.674
  575SOL    HW1  235   1.374   2.374   1.762
  575SOL    HW2  236   1.472   2.269   1.683
  576SOL     OW  237   0.973   2.752   1.572
  576SOL    HW1  238   1.019   2.668   1.543
  576SOL    HW2  239   0.917   2.786   1.497
  577SOL     OW  240   0.991   2.272   1.242
  577SOL    HW1  241   0.914   2.306   1.296
  577SOL    HW2  242   0.957   2.221   1.163
  582SOL     OW  243   1.719   2.447   1.831
  582SOL    HW1  244   1.693   2.536   1.795
  582SOL    HW2  245   1.717   2.379   1.758
  587SOL     OW  246   1.795   2.928   0.873
  587SOL    HW1  247   1.733   2.913   0.797
  587SOL    HW2  248   1.743   2.939   0.958
  588SOL     OW  249   1.227   3.412   1.506
  588SOL    HW1  250   1.233   3.335   1.570
  588SOL    HW2  251   1.175   3.386   1.426
  600SOL     OW  252   1.547   2.084   1.729
  600SOL    HW1  253   1.542   2.121   1.821
  600SOL    HW2  254   1.475   2.015   1.717
  601SOL     OW  255   0.781   2.126   1.749
  601SOL    HW1  256   0.848   2.065   1.792
  601SOL    HW2  257   0.708   2.145   1.814
  603SOL     OW  258   1.351   2.452   1.433
  603SOL    HW1  259   1.379   2.409   1.518
  603SOL    HW2  260   1.376   2.548   1.434
  610SOL     OW  261   1.076   2.545   1.464
  610SOL    HW1  262   0.996   2.484   1.467
  610SOL    HW2  263   1.157   2.492   1.440
  620SOL     OW  264   1.466   2.452   0.992
  620SOL    HW1  265   1.436   2.357   0.999
  620SOL    HW2  266   1.539   2.468   1.058
  626SOL     OW  267   1.754   3.085   1.588
  626SOL    HW1  268   1.845   3.046   1.575
  626SOL    HW2  269   1.762   3.181   1.612
  628SOL     OW  270   1.592   3.491   1.625
  628SOL    HW1  271   1.619   3.525   1.535
  628SOL    HW2  272   1.671   3.453   1.671
  630SOL     OW  273   1.638   2.961   1.079
  630SOL    HW1  274   1.643   3.042   1.138
  630SOL    HW2  275   1.552   2.963   1.028
  631SOL     OW  276   0.915   1.951   1.402
  631SOL    HW1  277   0.940   1.931   1.307
  631SOL    HW2  278   0.987   2.007   1.444
  632SOL     OW  279   0.980   2.978   1.719
  632SOL    HW1  280   0.881   2.984   1.729
  632SOL    HW2  281   1.003   2.898   1.663
  635SOL     OW  282   1.274   2.248   1.262
  635SOL    HW1  283   1.295   2.322   1.326
  635SOL    HW2  284   1.185   2.265   1.219
  644SOL     OW  285   1.587   2.641   1.670
  644SOL    HW1  286   1.495   2.679   1.665
  644SOL    HW2  287   1.647   2.688   1.605
  645SOL     OW  288   1.013   1.967   1.770
  645SOL    HW1  289   1.019   2.052   1.718
  645SOL    HW2  290   1.045   1.891   1.713
  648SOL     OW  291   1.360   2.724   1.045
  648SOL    HW1  292   1.285   2.724   0.979
  648SOL    HW2  293   1.397   2.632   1.054
  653SOL     OW  294   1.728   2.797   1.854
  653SOL    HW1  295   1.682   2.790   1.765
  653SOL    HW2  296   1.666   2.841   1.920
  658SOL     OW  297   1.859   3.380   1.605
  658SOL    HW1  298   1.873   3.407   1.510
  658SOL    HW2  299   1.942   3.402   1.658
  665SOL     OW  300   1.138   2.242   1.678
  665SOL    HW1  301   1.093   2.305   1.742
  665SOL    HW2  302   1.231   2.273   1.661
  666SOL     OW  303   1.160   2.069   1.477
  666SOL    HW1  304   1.160   2.133   1.554
  666SOL    HW2  305   1.188   2.117   1.394
  670SOL     OW  306   1.002   2.658   1.238
  670SOL    HW1  307   1.043   2.626   1.324
  670SOL    HW2  308   0.906   2.631   1.235
  673SOL     OW  309   1.369   2.812   1.660
  673SOL    HW1  310   1.408   2.901   1.680
  673SOL    HW2  311   1.379   2.792   1.563
  675SOL     OW  312   1.657   2.466   1.206
  675SOL    HW1  313   1.619   2.397   1.268
  675SOL    HW2  314   1.739   2.430   1.162
  681SOL     OW  315   1.347   2.921   1.234
  681SOL    HW1  316   1.371   2.858   1.160
  681SOL    HW2  317   1.257   2.961   1.216
  694SOL     OW  318   1.650   3.582   1.394
  694SOL    HW1  319   1.703   3.592   1.310
  694SOL    HW2  320   1.623   3.672   1.428
  695SOL     OW  321   1.841   2.037   0.963
  695SOL    HW1  322   1.880   1.952   0.927
  695SOL    HW2  323   1.743   2.039   0.944
  702SOL     OW  324   1.614   3.154   1.289
  702SOL    HW1  325   1.674   3.157   1.369
  702SOL    HW2  326   1.539   3.218   1.302
  706SOL     OW  327   1.709   2.247   1.381
  706SOL    HW1  328   1.782   2.316   1.385
  706SOL    HW2  329   1.737   2.172   1.322
  711SOL     OW  330   1.440   2.718   1.398
  711SOL    HW1  331   1.383   2.770   1.335
  711SOL    HW2  332   1.536   2.730   1.374
  716SOL     OW  333   0.716   2.427   1.708
  716SOL    HW1  334   0.735   2.492   1.782
  716SOL    HW2  335   0.776   2.347   1.717
  717SOL     OW  336   1.450   3.082   1.633
  717SOL    HW1  337   1.441   3.072   1.732
  717SOL    HW2  338   1.546   3.075   1.607
  719SOL     OW  339   1.674   2.745   1.254
  719SOL    HW1  340   1.647   2.656   1.217
  719SOL    HW2  341   1.675   2.813   1.181
  722SOL     OW  342   1.777   2.204   1.642
  722SOL    HW1  343   1.760   2.235   1.548
  722SOL    HW2  344   1.693   2.167   1.680
  723SOL     OW  345   1.730   2.796   1.517
  723SOL    HW1  346   1.768   2.887   1.532
  723SOL    HW2  347   1.722   2.779   1.418
  732SOL     OW  348   1.824   2.054   1.227
  732SOL    HW1  349   1.820   1.964   1.271
  732SOL    HW2  350   1.827   2.043   1.128
  734SOL     OW  351   1.705   3.349   1.104
  734SOL    HW1  352   1.612   3.324   1.077
  734SOL    HW2  353   1.731   3.299   1.186
  737SOL     OW  354   1.424   2.076   1.112
  737SOL    HW1  355   1.476   2.011   1.167
  737SOL    HW2  356   1.375   2.139   1.173
  743SOL     OW  357   1.593   2.083   0.882
  743SOL    HW1  358   1.509   2.082   0.936
  743SOL    HW2  359   1.595   2.166   0.826
  750SOL     OW  360   1.555   3.373   2.565
  750SOL    HW1  361   1.498   3.357   2.646
  750SOL    HW2  362   1.496   3.383   2.485
  751SOL     OW  363   1.135   2.565   2.579
  751SOL    HW1  364   1.192   2.643   2.554
  751SOL    HW2  365   1.075   2.591   2.655
  752SOL     OW  366   1.755   2.469   2.093
  752SOL    HW1  367   1.743   2.456   1.994
  752SOL    HW2  368   1.725   2.388   2.142
  753SOL     OW  369   0.768   3.006   2.885
  753SOL    HW1  370   0.690   3.023   2.945
  753SOL    HW2  371   0.802   3.093   2.849
  755SOL     OW  372   0.685   2.874   2.527
  755SOL    HW1  373   0.754   2.858   2.597
  755SOL    HW2  374   0.612   2.931   2.565
  758SOL     OW  375   1.460   3.367   3.201
  758SOL    HW1  376   1.484   3.461   3.227
  758SOL    HW2  377   1.444   3.313   3.283
  760SOL     OW  378   1.603   2.309   2.599
  760SOL    HW1  379   1.529   2.355   2.549
  760SOL    HW2  380   1.654   2.377   2.652
  767SOL     OW  381   1.594   1.976   3.342
  767SOL    HW1  382   1.576   2.043   3.270
  767SOL    HW2  383   1.591   2.022   3.431
  769SOL     OW  384   1.842   3.629   2.221
  769SOL    HW1  385   1.896   3.600   2.301
  769SOL    HW2  386   1.872   3.719   2.192
  771SOL     OW  387   1.689   2.784   2.474
  771SOL    HW1  388   1.784   2.755   2.482
  771SOL    HW2  389   1.681   2.849   2.399
  772SOL     OW  390   1.641   2.970   2.294
  772SOL    HW1  391   1.727   2.972   2.242
  772SOL    HW2  392   1.655   3.017   2.382
  775SOL     OW  393   1.293   3.090   3.285
  775SOL    HW1  394   1.330   3.017   3.227
  775SOL    HW2  395   1.345   3.095   3.370
  776SOL     OW  396   0.809   1.866   2.364
  776SOL    HW1  397   0.849   1.957   2.355
  776SOL    HW2  398   0.709   1.874   2.370
  778SOL     OW  399   1.525   2.861   2.052
  778SOL    HW1  400   1.462   2.785   2.065
  778SOL    HW2  401   1.573   2.879   2.138
  781SOL     OW  402   1.466   3.279   2.815
  781SOL    HW1  403   1.407   3.285   2.895
  781SOL    HW2  404   1.451   3.191   2.769
  782SOL     OW  405   1.667   3.576   2.434
  782SOL    HW1  406   1.626   3.553   2.346
  782SOL    HW2  407   1.649   3.502   2.499
  783SOL     OW  408   0.598   2.591   2.132
  783SOL    HW1  409   0.622   2.660   2.064
  783SOL    HW2  410   0.520   2.624   2.186
  784SOL     OW  411   1.281   2.207   2.806
  784SOL    HW1  412   1.195   2.157   2.793
  784SOL    HW2  413   1.343   2.153   2.862
  785SOL     OW  414   1.576   3.524   2.169
  785SOL    HW1  415   1.665   3.570   2.172
  785SOL    HW2  416   1.555   3.500   2.074
  787SOL     OW  417   1.394   2.331   3.536
  787SOL    HW1  418   1.374   2.374   3.624
  787SOL    HW2  419   1.472   2.269   3.545
  788SOL     OW  420   0.973   2.752   3.434
  788SOL    HW1  421   1.019   2.668   3.405
  788SOL    HW2  422   0.917   2.786   3.359
  789SOL     OW  423   0.991   2.272   3.104
  789SOL    HW1  424   0.914   2.306   3.158
  789SOL    HW2  425   0.957   2.221   3.025
  790SOL     OW  426   1.041   2.563   2.291
  790SOL    HW1  427   1.067   2.559   2.387
  790SOL    HW2  428   0.956   2.512   2.277
  793SOL     OW  429   0.865   2.210   2.057
  793SOL    HW1  430   0.924   2.273   2.008
  793SOL    HW2  431   0.884   2.116   2.028
  794SOL     OW  432   1.719   2.447   3.693
  794SOL    HW1  433   1.693   2.536   3.657
  794SOL    HW2  434   1.717   2.379   3.620
  795SOL     OW  435   1.362   3.006   2.407
  795SOL    HW1  436   1.445   2.977   2.359
  795SOL    HW2  437   1.313   3.073   2.351
  797SOL     OW  438   1.008   3.318   2.339
  797SOL    HW1  439   0.962   3.390   2.287
  797SOL    HW2  440   1.004   3.338   2.437
  799SOL     OW  441   1.795   2.928   2.735
  799SOL    HW1  442   1.733   2.913   2.659
  799SOL    HW2  443   1.743   2.939   2.820
  802SOL     OW  444   1.458   2.597   2.590
  802SOL    HW1  445   1.453   2.532   2.665
  802SOL    HW2  446   1.538   2.656   2.603
  806SOL     OW  447   1.632   3.239   1.943
  806SOL    HW1  448   1.600   3.333   1.933
  806SOL    HW2  449   1.556   3.176   1.931
  808SOL     OW  450   1.400   1.969   2.288
  808SOL    HW1  451   1.376   1.932   2.198
  808SOL    HW2  452   1.499   1.985   2.292
  812SOL     OW  453   1.547   2.084   3.591
  812SOL    HW1  454   1.542   2.121   3.683
  812SOL    HW2  455   1.475   2.015   3.579
  816SOL     OW  456   1.351   2.452   3.295
  816SOL    HW1  457   1.379   2.409   3.380
  816SOL    HW2  458   1.376   2.548   3.296
  818SOL     OW  459   0.922   2.365   2.761
  818SOL    HW1  460   0.897   2.356   2.665
  818SOL    HW2  461   0.970   2.283   2.792
  820SOL     OW  462   1.434   3.050   1.903
  820SOL    HW1  463   1.466   2.974   1.960
  820SOL    HW2  464   1.342   3.077   1.933
  822SOL     OW  465   0.935   2.098   2.342
  822SOL    HW1  466   0.887   2.139   2.264
  822SOL    HW2  467   1.034   2.096   2.323
  823SOL     OW  468   1.076   2.545   3.326
  823SOL    HW1  469   0.996   2.484   3.329
  823SOL    HW2  470   1.157   2.492   3.302
  824SOL     OW  471   1.227   3.432   2.655
  824SOL    HW1  472   1.248   3.506   2.590
  824SOL    HW2  473   1.295   3.432   2.728
  826SOL     OW  474   1.271   3.659   2.453
  826SOL    HW1  475   1.315   3.723   2.389
  826SOL    HW2  476   1.221   3.711   2.523
  827SOL     OW  477   1.032   2.411   1.878
  827SOL    HW1  478   0.991   2.493   1.839
  827SOL    HW2  479   1.096   2.437   1.951
  830SOL     OW  480   0.866   2.316   2.504
  830SOL    HW1  481   0.834   2.388   2.442
  830SOL    HW2  482   0.890   2.235   2.451
  831SOL     OW  483   1.017   1.901   2.615
  831SOL    HW1  484   0.945   1.906   2.546
  831SOL    HW2  485   0.993   1.832   2.684
  832SOL     OW  486   1.429   3.035   2.729
  832SOL    HW1  487   1.374   2.951   2.722
  832SOL    HW2  488   1.455   3.064   2.637
  833SOL     OW  489   1.466   2.452   2.854
  833SOL    HW1  490   1.436   2.357   2.861
  833SOL    HW2  491   1.539   2.468   2.920
  834SOL     OW  492   1.857   2.695   2.239
  834SOL    HW1  493   1.899   2.631   2.303
  834SOL    HW2  494   1.819   2.644   2.161
  836SOL     OW  495   1.664   3.142   2.519
  836SOL    HW1  496   1.763   3.150   2.533
  836SOL    HW2  497   1.619   3.226   2.550
  837SOL     OW  498   1.390   2.437   1.940
  837SOL    HW1  499   1.336   2.416   2.021
  837SOL    HW2  500   1.481   2.396   1.949
  839SOL     OW  501   1.754   3.085   3.450
  839SOL    HW1  502   1.845   3.046   3.437
  839SOL    HW2  503   1.762   3.181   3.474
  840SOL     OW  504   1.064   3.209   3.202
  840SOL    HW1  505   0.984   3.186   3.257
  840SOL    HW2  506   1.147   3.183   3.251
  841SOL     OW  507   1.592   3.491   3.487
  841SOL    HW1  508   1.619   3.525   3.397
  841SOL    HW2  509   1.671   3.453   3.533
  842SOL     OW  510   1.111   3.057   2.962
  842SOL    HW1  511   1.071   3.101   3.043
  842SOL    HW2  512   1.070   3.094   2.879
  843SOL     OW  513   1.638   2.961   2.941
  843SOL    HW1  514   1.643   3.042   3.000
  843SOL    HW2  515   1.552   2.963   2.890
  844SOL     OW  516   0.915   1.951   3.264
  844SOL    HW1  517   0.940   1.931   3.169
  844SOL    HW2  518   0.987   2.007   3.306
  846SOL     OW  519   0.705   2.912   2.230
  846SOL    HW1  520   0.691   2.919   2.329
  846SOL    HW2  521   0.789   2.861   2.212
  848SOL     OW  522   1.274   2.248   3.124
  848SOL    HW1  523   1.295   2.322   3.188
  848SOL    HW2  524   1.185   2.265   3.081
  852SOL     OW  525   1.252   3.210   2.250
  852SOL    HW1  526   1.302   3.287   2.290
  852SOL    HW2  527   1.157   3.212   2.282
  853SOL     OW  528   1.272   3.307   3.004
  853SOL    HW1  529   1.319   3.320   3.091
  853SOL    HW2  530   1.206   3.233   3.013
  854SOL     OW  531   1.582   2.501   2.334
  854SOL    HW1  532   1.551   2.562   2.407
  854SOL    HW2  533   1.632   2.553   2.265
  857SOL     OW  534   1.587   2.641   3.532
  857SOL    HW1  535   1.495   2.679   3.527
  857SOL    HW2  536   1.647   2.688   3.467
  861SOL     OW  537   1.360   2.724   2.907
  861SOL    HW1  538   1.285   2.724   2.841
  861SOL    HW2  539   1.397   2.632   2.916
  862SOL     OW  540   1.209   2.387   2.137
  862SOL    HW1  541   1.222   2.303   2.191
  862SOL    HW2  542   1.180   2.461   2.197
  865SOL     OW  543   0.732   2.496   2.926
  865SOL    HW1  544   0.791   2.470   2.850
  865SOL    HW2  545   0.704   2.592   2.915
  866SOL     OW  546   1.728   2.797   3.716
  866SOL    HW1  547   1.682   2.790   3.627
  866SOL    HW2  548   1.666   2.841   3.782
  868SOL     OW  549   1.622   2.229   2.236
  868SOL    HW1  550   1.624   2.153   2.300
  868SOL    HW2  551   1.574   2.306   2.276
  869SOL     OW  552   1.023   2.628   2.828
  869SOL    HW1  553   1.038   2.649   2.924
  869SOL    HW2  554   0.993   2.533   2.819
  871SOL     OW  555   1.859   3.380   3.467
  871SOL    HW1  556   1.873   3.407   3.372
  871SOL    HW2  557   1.942   3.402   3.520
  873SOL     OW  558   1.540   2.136   1.987
  873SOL    HW1  559   1.479   2.061   2.010
  873SOL    HW2  560   1.562   2.188   2.070
  874SOL     OW  561   1.303   2.700   1.904
  874SOL    HW1  562   1.337   2.607   1.919
  874SOL    HW2  563   1.321   2.727   1.809
  875SOL     OW  564   1.068   3.195   2.711
  875SOL    HW1  565   1.075   3.111   2.656
  875SOL    HW2  566   1.130   3.264   2.675
  878SOL     OW  567   1.138   2.242   3.540
  878SOL    HW1  568   1.093   2.305   3.604
  878SOL    HW2  569   1.231   2.273   3.523
  879SOL     OW  570   1.160   2.069   3.339
  879SOL    HW1  571   1.160   2.133   3.416
  879SOL    HW2  572   1.188   2.117   3.256
  883SOL     OW  573   1.002   2.658   3.100
  883SOL    HW1  574   1.043   2.626   3.186
  883SOL    HW2  575   0.906   2.631   3.097
  886SOL     OW  576   1.369   2.812   3.522
  886SOL    HW1  577   1.408   2.901   3.542
  886SOL    HW2  578   1.379   2.792   3.425
  887SOL     OW  579   0.815   2.434   2.187
  887SOL    HW1  580   0.822   2.345   2.141
  887SOL    HW2  581   0.721   2.468   2.179
  888SOL     OW  582   1.657   2.466   3.068
  888SOL    HW1  583   1.619   2.397   3.130
  888SOL    HW2  584   1.739   2.430   3.024
  894SOL     OW  585   1.347   2.921   3.096
  894SOL    HW1  586   1.371   2.858   3.022
  894SOL    HW2  587   1.257   2.961   3.078
  895SOL     OW  588   1.302   2.717   2.171
  895SOL    HW1  589   1.216   2.686   2.213
  895SOL    HW2  590   1.298   2.703   2.072
  896SOL     OW  591   1.759   3.609   3.016
  896SOL    HW1  592   1.820   3.639   2.943
  896SOL    HW2  593   1.721   3.520   2.994
  897SOL     OW  594   1.252   3.593   2.990
  897SOL    HW1  595   1.336   3.598   2.936
  897SOL    HW2  596   1.229   3.497   3.008
  900SOL     OW  597   1.726   1.997   2.385
  900SOL    HW1  598   1.799   1.980   2.318
  900SOL    HW2  599   1.695   1.910   2.423
  901SOL     OW  600   1.388   3.435   2.339
  901SOL    HW1  601   1.455   3.447   2.265
  901SOL    HW2  602   1.348   3.524   2.362
  903SOL     OW  603   1.280   2.789   2.534
  903SOL    HW1  604   1.340   2.708   2.536
  903SOL    HW2  605   1.320   2.858   2.474
  906SOL     OW  606   1.650   3.582   3.256
  906SOL    HW1  607   1.703   3.592   3.172
  906SOL    HW2  608   1.623   3.672   3.290
  907SOL     OW  609   1.841   2.037   2.825
  907SOL    HW1  610   1.880   1.952   2.789
  907SOL    HW2  611   1.743   2.039   2.806
  909SOL     OW  612   1.194   3.474   1.893
  909SOL    HW1  613   1.200   3.381   1.930
  909SOL    HW2  614   1.135   3.474   1.813
  911SOL     OW  615   0.916   2.772   2.153
  911SOL    HW1  616   0.979   2.810   2.085
  911SOL    HW2  617   0.956   2.689   2.192
  912SOL     OW  618   1.504   3.469   1.906
  912SOL    HW1  619   1.412   3.506   1.913
  912SOL    HW2  620   1.542   3.489   1.816
  914SOL     OW  621   1.614   3.154   3.151
  914SOL    HW1  622   1.674   3.157   3.231
  914SOL    HW2  623   1.539   3.218   3.164
  915SOL     OW  624   1.039   2.960   2.558
  915SOL    HW1  625   0.969   2.913   2.612
  915SOL    HW2  626   1.098   2.892   2.515
  916SOL     OW  627   1.014   2.098   2.833
  916SOL    HW1  628   1.006   2.062   2.740
  916SOL    HW2  629   1.012   2.022   2.898
  918SOL     OW  630   1.709   2.247   3.243
  918SOL    HW1  631   1.782   2.316   3.247
  918SOL    HW2  632   1.737   2.172   3.184
  923SOL     OW  633   1.440   2.718   3.260
  923SOL    HW1  634   1.383   2.770   3.197
  923SOL    HW2  635   1.536   2.730   3.236
  925SOL     OW  636   1.183   3.197   1.981
  925SOL    HW1  637   1.084   3.186   1.983
  925SOL    HW2  638   1.217   3.212   2.074
  927SOL     OW  639   1.493   3.629   2.821
  927SOL    HW1  640   1.526   3.693   2.752
  927SOL    HW2  641   1.559   3.623   2.896
  929SOL     OW  642   1.450   3.082   3.495
  929SOL    HW1  643   1.441   3.072   3.594
  929SOL    HW2  644   1.546   3.075   3.469
  931SOL     OW  645   1.674   2.745   3.116
  931SOL    HW1  646   1.647   2.656   3.079
  931SOL    HW2  647   1.675   2.813   3.043
  932SOL     OW  648   1.225   2.187   2.311
  932SOL    HW1  649   1.290   2.113   2.300
  932SOL    HW2  650   1.245   2.237   2.395
  933SOL     OW  651   0.594   2.607   2.514
  933SOL    HW1  652   0.644   2.692   2.495
  933SOL    HW2  653   0.506   2.609   2.466
  934SOL     OW  654   1.777   2.204   3.504
  934SOL    HW1  655   1.760   2.235   3.410
  934SOL    HW2  656   1.693   2.167   3.542
  935SOL     OW  657   1.730   2.796   3.379
  935SOL    HW1  658   1.768   2.887   3.394
  935SOL    HW2  659   1.722   2.779   3.280
  936SOL     OW  660   0.859   3.236   1.878
  936SOL    HW1  661   0.813   3.251   1.966
  936SOL    HW2  662   0.903   3.321   1.848
  938SOL     OW  663   0.859   2.818   2.723
  938SOL    HW1  664   0.913   2.749   2.771
  938SOL    HW2  665   0.827   2.887   2.789
  939SOL     OW  666   1.083   2.846   1.949
  939SOL    HW1  667   1.060   2.899   1.867
  939SOL    HW2  668   1.164   2.790   1.930
  940SOL     OW  669   1.861   3.431   2.713
  940SOL    HW1  670   1.790   3.419   2.643
  940SOL    HW2  671   1.862   3.352   2.773
  944SOL     OW  672   1.824   2.054   3.089
  944SOL    HW1  673   1.820   1.964   3.133
  944SOL    HW2  674   1.827   2.043   2.990
  946SOL     OW  675   1.705   3.349   2.966
  946SOL    HW1  676   1.612   3.324   2.939
  946SOL    HW2  677   1.731   3.299   3.048
  949SOL     OW  678   1.424   2.076   2.974
  949SOL    HW1  679   1.476   2.011   3.029
  949SOL    HW2  680   1.375   2.139   3.035
  950SOL     OW  681   1.001   1.896   3.016
  950SOL    HW1  682   0.938   1.824   2.985
  950SOL    HW2  683   1.094   1.860   3.016
  953SOL     OW  684   1.352   1.914   2.030
  953SOL    HW1  685   1.387   1.873   1.946
  953SOL    HW2  686   1.262   1.876   2.050
  954SOL     OW  687   1.300   2.315   2.553
  954SOL    HW1  688   1.241   2.395   2.557
  954SOL    HW2  689   1.315   2.280   2.646
  955SOL     OW  690   1.593   2.083   2.744
  955SOL    HW1  691   1.509   2.082   2.798
  955SOL    HW2  692   1.595   2.166   2.688
  962SOL     OW  693   1.755   2.469   3.955
  962SOL    HW1  694   1.743   2.456   3.856
  962SOL    HW2  695   1.725   2.388   4.004
 1011SOL     OW  696   1.390   2.437   3.802
 1011SOL    HW1  697   1.336   2.416   3.883
 1011SOL    HW2  698   1.481   2.396   3.811
 1022SOL     OW  699   1.540   2.136   3.849
 1022SOL    HW1  700   1.479   2.061   3.872
 1022SOL    HW2  701   1.562   2.188   3.932
 1023SOL     OW  702   1.303   2.700   3.766
 1023SOL    HW1  703   1.337   2.607   3.781
 1023SOL    HW2  704   1.321   2.727   3.671
 1202SOL     OW  705   1.400   3.831   2.288
 1202SOL    HW1  706   1.376   3.794   2.198
 1202SOL    HW2  707   1.499   3.847   2.292
 1257SOL     OW  708   1.726   3.859   2.385
 1257SOL    HW1  709   1.799   3.842   2.318
 1257SOL    HW2  710   1.695   3.772   2.423
 1259SOL     OW  711   1.841   3.899   2.825
 1259SOL    HW1  712   1.880   3.814   2.789
 1259SOL    HW2  713   1.743   3.901   2.806
 1281SOL     OW  714   1.352   3.776   2.030
 1281SOL    HW1  715   1.387   3.735   1.946
 1281SOL    HW2  716   1.262   3.738   2.050
 1343SOL     OW  717   2.431   1.275   1.165
 1343SOL    HW1  718   2.338   1.268   1.128
 1343SOL    HW2  719   2.442   1.364   1.209
 1348SOL     OW  720   2.712   0.798   1.823
 1348SOL    HW1  721   2.708   0.874   1.888
 1348SOL    HW2  722   2.734   0.834   1.732
 1350SOL     OW  723   2.548   1.161   1.803
 1350SOL    HW1  724   2.608   1.240   1.817
 1350SOL    HW2  725   2.462   1.192   1.762
 1351SOL     OW  726   2.197   1.435   1.061
 1351SOL    HW1  727   2.119   1.404   1.008
 1351SOL    HW2  728   2.255   1.493   1.004
 1352SOL     OW  729   3.322   1.505   1.339
 1352SOL    HW1  730   3.346   1.599   1.365
 1352SOL    HW2  731   3.306   1.451   1.421
 1356SOL     OW  732   2.989   1.341   1.690
 1356SOL    HW1  733   3.036   1.341   1.778
 1356SOL    HW2  734   2.941   1.254   1.679
 1359SOL     OW  735   2.482   1.786   1.439
 1359SOL    HW1  736   2.390   1.769   1.474
 1359SOL    HW2  737   2.510   1.878   1.465
 1368SOL     OW  738   3.155   1.228   1.423
 1368SOL    HW1  739   3.192   1.155   1.365
 1368SOL    HW2  740   3.207   1.233   1.508
 1370SOL     OW  741   2.059   0.976   1.264
 1370SOL    HW1  742   2.148   0.931   1.250
 1370SOL    HW2  743   1.986   0.911   1.245
 1372SOL     OW  744   3.049   1.792   1.616
 1372SOL    HW1  745   3.073   1.852   1.540
 1372SOL    HW2  746   3.056   1.697   1.586
 1381SOL     OW  747   2.835   0.890   1.572
 1381SOL    HW1  748   2.881   0.806   1.543
 1381SOL    HW2  749   2.779   0.924   1.497
 1385SOL     OW  750   1.992   1.821   1.571
 1385SOL    HW1  751   1.982   1.806   1.670
 1385SOL    HW2  752   1.906   1.857   1.535
 1391SOL     OW  753   2.213   1.801   0.853
 1391SOL    HW1  754   2.263   1.715   0.859
 1391SOL    HW2  755   2.278   1.878   0.850
 1393SOL     OW  756   3.089   1.550   1.506
 1393SOL    HW1  757   3.095   1.473   1.570
 1393SOL    HW2  758   3.037   1.524   1.426
 1396SOL     OW  759   2.323   1.266   1.727
 1396SOL    HW1  760   2.273   1.267   1.641
 1396SOL    HW2  761   2.260   1.248   1.803
 1402SOL     OW  762   2.111   1.785   1.241
 1402SOL    HW1  763   2.168   1.720   1.291
 1402SOL    HW2  764   2.095   1.752   1.148
 1403SOL     OW  765   2.802   1.698   0.904
 1403SOL    HW1  766   2.882   1.641   0.925
 1403SOL    HW2  767   2.753   1.658   0.827
 1408SOL     OW  768   2.750   1.514   1.195
 1408SOL    HW1  769   2.727   1.489   1.101
 1408SOL    HW2  770   2.811   1.445   1.234
 1410SOL     OW  771   2.665   1.402   0.924
 1410SOL    HW1  772   2.755   1.416   0.882
 1410SOL    HW2  773   2.594   1.404   0.853
 1433SOL     OW  774   2.926   1.347   1.340
 1433SOL    HW1  775   2.846   1.324   1.395
 1433SOL    HW2  776   3.009   1.321   1.389
 1434SOL     OW  777   3.454   1.629   1.625
 1434SOL    HW1  778   3.481   1.663   1.535
 1434SOL    HW2  779   3.533   1.591   1.671
 1438SOL     OW  780   2.842   1.116   1.719
 1438SOL    HW1  781   2.743   1.122   1.729
 1438SOL    HW2  782   2.865   1.036   1.663
 1442SOL     OW  783   1.926   1.564   1.331
 1442SOL    HW1  784   1.880   1.646   1.297
 1442SOL    HW2  785   2.024   1.583   1.340
 1446SOL     OW  786   3.134   1.445   1.142
 1446SOL    HW1  787   3.181   1.458   1.229
 1446SOL    HW2  788   3.068   1.371   1.151
 1448SOL     OW  789   2.216   1.510   1.329
 1448SOL    HW1  790   2.195   1.466   1.242
 1448SOL    HW2  791   2.313   1.536   1.332
 1449SOL     OW  792   2.264   0.751   1.598
 1449SOL    HW1  793   2.332   0.806   1.551
 1449SOL    HW2  794   2.304   0.663   1.625
 1457SOL     OW  795   1.899   1.310   1.282
 1457SOL    HW1  796   1.952   1.261   1.350
 1457SOL    HW2  797   1.921   1.408   1.287
 1463SOL     OW  798   2.842   1.573   1.700
 1463SOL    HW1  799   2.822   1.617   1.612
 1463SOL    HW2  800   2.881   1.482   1.684
 1464SOL     OW  801   3.721   1.518   1.605
 1464SOL    HW1  802   3.735   1.545   1.510
 1464SOL    HW2  803   3.804   1.540   1.658
 1465SOL     OW  804   2.212   0.898   1.804
 1465SOL    HW1  805   2.288   0.942   1.852
 1465SOL    HW2  806   2.247   0.851   1.722
 1474SOL     OW  807   1.950   1.801   0.927
 1474SOL    HW1  808   1.908   1.715   0.900
 1474SOL    HW2  809   2.044   1.804   0.893
 1475SOL     OW  810   2.366   1.568   0.910
 1475SOL    HW1  811   2.432   1.642   0.919
 1475SOL    HW2  812   2.410   1.489   0.868
 1479SOL     OW  813   3.231   0.950   1.660
 1479SOL    HW1  814   3.270   1.039   1.680
 1479SOL    HW2  815   3.241   0.930   1.563
 1482SOL     OW  816   2.114   1.564   1.744
 1482SOL    HW1  817   2.084   1.621   1.820
 1482SOL    HW2  818   2.107   1.467   1.770
 1484SOL     OW  819   2.792   1.678   1.465
 1484SOL    HW1  820   2.768   1.660   1.370
 1484SOL    HW2  821   2.822   1.772   1.475
 1486SOL     OW  822   2.021   1.137   1.466
 1486SOL    HW1  823   2.043   1.076   1.542
 1486SOL    HW2  824   2.031   1.088   1.380
 1490SOL     OW  825   3.114   1.731   1.128
 1490SOL    HW1  826   3.198   1.736   1.074
 1490SOL    HW2  827   3.091   1.635   1.146
 1491SOL     OW  828   1.945   1.258   1.022
 1491SOL    HW1  829   1.940   1.257   1.122
 1491SOL    HW2  830   1.862   1.217   0.984
 1492SOL     OW  831   2.550   1.662   1.716
 1492SOL    HW1  832   2.494   1.743   1.725
 1492SOL    HW2  833   2.602   1.666   1.630
 1496SOL     OW  834   1.992   1.794   1.851
 1496SOL    HW1  835   1.951   1.720   1.904
 1496SOL    HW2  836   2.056   1.845   1.909
 1498SOL     OW  837   2.692   1.273   1.422
 1498SOL    HW1  838   2.687   1.306   1.517
 1498SOL    HW2  839   2.606   1.292   1.376
 1500SOL     OW  840   3.512   1.720   1.394
 1500SOL    HW1  841   3.565   1.730   1.310
 1500SOL    HW2  842   3.485   1.810   1.428
 1504SOL     OW  843   2.684   1.002   1.372
 1504SOL    HW1  844   2.724   1.001   1.280
 1504SOL    HW2  845   2.694   1.094   1.412
 1507SOL     OW  846   2.234   1.288   1.490
 1507SOL    HW1  847   2.221   1.381   1.456
 1507SOL    HW2  848   2.150   1.236   1.477
 1514SOL     OW  849   1.967   1.013   1.726
 1514SOL    HW1  850   1.890   0.980   1.780
 1514SOL    HW2  851   2.052   0.983   1.768
 1518SOL     OW  852   2.475   0.842   1.431
 1518SOL    HW1  853   2.531   0.923   1.414
 1518SOL    HW2  854   2.534   0.762   1.434
 1521SOL     OW  855   3.312   1.220   1.633
 1521SOL    HW1  856   3.303   1.210   1.732
 1521SOL    HW2  857   3.408   1.213   1.607
 1522SOL     OW  858   2.252   1.741   1.560
 1522SOL    HW1  859   2.161   1.782   1.558
 1522SOL    HW2  860   2.245   1.647   1.592
 1529SOL     OW  861   2.523   1.790   0.953
 1529SOL    HW1  862   2.477   1.878   0.940
 1529SOL    HW2  863   2.622   1.802   0.946
 1533SOL     OW  864   2.083   1.314   1.844
 1533SOL    HW1  865   2.018   1.241   1.823
 1533SOL    HW2  866   2.087   1.328   1.942
 1535SOL     OW  867   2.534   1.391   1.624
 1535SOL    HW1  868   2.456   1.341   1.662
 1535SOL    HW2  869   2.531   1.486   1.655
 1544SOL     OW  870   2.480   1.567   1.284
 1544SOL    HW1  871   2.475   1.649   1.341
 1544SOL    HW2  872   2.569   1.564   1.239
 1550SOL     OW  873   2.092   0.628   1.975
 1550SOL    HW1  874   1.999   0.626   2.012
 1550SOL    HW2  875   2.093   0.589   1.883
 1553SOL     OW  876   2.431   1.275   3.027
 1553SOL    HW1  877   2.338   1.268   2.990
 1553SOL    HW2  878   2.442   1.364   3.071
 1554SOL     OW  879   3.417   1.511   2.565
 1554SOL    HW1  880   3.360   1.495   2.646
 1554SOL    HW2  881   3.358   1.521   2.485
 1555SOL     OW  882   2.997   0.703   2.579
 1555SOL    HW1  883   3.054   0.781   2.554
 1555SOL    HW2  884   2.937   0.729   2.655
 1557SOL     OW  885   2.630   1.144   2.885
 1557SOL    HW1  886   2.552   1.161   2.945
 1557SOL    HW2  887   2.664   1.231   2.849
 1559SOL     OW  888   2.547   1.012   2.527
 1559SOL    HW1  889   2.616   0.996   2.597
 1559SOL    HW2  890   2.474   1.069   2.565
 1560SOL     OW  891   2.548   1.161   3.665
 1560SOL    HW1  892   2.608   1.240   3.679
 1560SOL    HW2  893   2.462   1.192   3.624
 1561SOL     OW  894   2.197   1.435   2.923
 1561SOL    HW1  895   2.119   1.404   2.870
 1561SOL    HW2  896   2.255   1.493   2.866
 1562SOL     OW  897   3.322   1.505   3.201
 1562SOL    HW1  898   3.346   1.599   3.227
 1562SOL    HW2  899   3.306   1.451   3.283
 1565SOL     OW  900   2.093   1.713   2.345
 1565SOL    HW1  901   2.127   1.790   2.399
 1565SOL    HW2  902   2.137   1.713   2.255
 1566SOL     OW  903   2.989   1.341   3.552
 1566SOL    HW1  904   3.036   1.341   3.640
 1566SOL    HW2  905   2.941   1.254   3.541
 1567SOL     OW  906   2.092   1.434   2.400
 1567SOL    HW1  907   2.066   1.530   2.400
 1567SOL    HW2  908   2.021   1.380   2.445
 1568SOL     OW  909   2.102   1.091   2.748
 1568SOL    HW1  910   2.116   1.007   2.800
 1568SOL    HW2  911   2.047   1.155   2.803
 1569SOL     OW  912   2.482   1.786   3.301
 1569SOL    HW1  913   2.390   1.769   3.336
 1569SOL    HW2  914   2.510   1.878   3.327
 1570SOL     OW  915   2.468   0.964   1.985
 1570SOL    HW1  916   2.475   1.048   1.931
 1570SOL    HW2  917   2.514   0.977   2.073
 1572SOL     OW  918   1.984   0.643   2.425
 1572SOL    HW1  919   1.939   0.555   2.442
 1572SOL    HW2  920   1.983   0.697   2.509
 1573SOL     OW  921   3.704   1.767   2.221
 1573SOL    HW1  922   3.758   1.738   2.301
 1573SOL    HW2  923   3.734   1.857   2.192
 1574SOL     OW  924   1.889   1.596   1.979
 1574SOL    HW1  925   1.870   1.500   2.000
 1574SOL    HW2  926   1.856   1.654   2.054
 1576SOL     OW  927   3.503   1.108   2.294
 1576SOL    HW1  928   3.589   1.110   2.242
 1576SOL    HW2  929   3.517   1.155   2.382
 1578SOL     OW  930   2.475   1.365   2.588
 1578SOL    HW1  931   2.426   1.278   2.597
 1578SOL    HW2  932   2.452   1.408   2.501
 1579SOL     OW  933   3.155   1.228   3.285
 1579SOL    HW1  934   3.192   1.155   3.227
 1579SOL    HW2  935   3.207   1.233   3.370
 1581SOL     OW  936   2.059   0.976   3.126
 1581SOL    HW1  937   2.148   0.931   3.112
 1581SOL    HW2  938   1.986   0.911   3.107
 1582SOL     OW  939   3.387   0.999   2.052
 1582SOL    HW1  940   3.324   0.923   2.065
 1582SOL    HW2  941   3.435   1.017   2.138
 1583SOL     OW  942   3.049   1.792   3.478
 1583SOL    HW1  943   3.073   1.852   3.402
 1583SOL    HW2  944   3.056   1.697   3.448
 1585SOL     OW  945   3.328   1.417   2.815
 1585SOL    HW1  946   3.269   1.423   2.895
 1585SOL    HW2  947   3.313   1.329   2.769
 1586SOL     OW  948   3.529   1.714   2.434
 1586SOL    HW1  949   3.488   1.691   2.346
 1586SOL    HW2  950   3.511   1.640   2.499
 1587SOL     OW  951   2.460   0.729   2.132
 1587SOL    HW1  952   2.484   0.798   2.064
 1587SOL    HW2  953   2.382   0.762   2.186
 1589SOL     OW  954   3.438   1.662   2.169
 1589SOL    HW1  955   3.527   1.708   2.172
 1589SOL    HW2  956   3.417   1.638   2.074
 1594SOL     OW  957   2.903   0.701   2.291
 1594SOL    HW1  958   2.929   0.697   2.387
 1594SOL    HW2  959   2.818   0.650   2.277
 1595SOL     OW  960   1.938   0.811   2.651
 1595SOL    HW1  961   2.037   0.799   2.660
 1595SOL    HW2  962   1.914   0.906   2.672
 1596SOL     OW  963   1.992   1.821   3.433
 1596SOL    HW1  964   1.982   1.806   3.532
 1596SOL    HW2  965   1.906   1.857   3.397
 1599SOL     OW  966   3.224   1.144   2.407
 1599SOL    HW1  967   3.307   1.115   2.359
 1599SOL    HW2  968   3.175   1.211   2.351
 1601SOL     OW  969   2.870   1.456   2.339
 1601SOL    HW1  970   2.824   1.528   2.287
 1601SOL    HW2  971   2.866   1.476   2.437
 1602SOL     OW  972   2.213   1.801   2.715
 1602SOL    HW1  973   2.263   1.715   2.721
 1602SOL    HW2  974   2.278   1.878   2.712
 1604SOL     OW  975   3.089   1.550   3.368
 1604SOL    HW1  976   3.095   1.473   3.432
 1604SOL    HW2  977   3.037   1.524   3.288
 1605SOL     OW  978   2.183   0.943   2.104
 1605SOL    HW1  979   2.265   0.982   2.062
 1605SOL    HW2  980   2.156   0.861   2.055
 1607SOL     OW  981   2.323   1.266   3.589
 1607SOL    HW1  982   2.273   1.267   3.503
 1607SOL    HW2  983   2.260   1.248   3.665
 1608SOL     OW  984   2.973   1.776   2.099
 1608SOL    HW1  985   2.913   1.714   2.149
 1608SOL    HW2  986   3.004   1.732   2.014
 1610SOL     OW  987   3.494   1.377   1.943
 1610SOL    HW1  988   3.462   1.471   1.933
 1610SOL    HW2  989   3.418   1.314   1.931
 1611SOL     OW  990   2.326   1.743   2.185
 1611SOL    HW1  991   2.359   1.782   2.271
 1611SOL    HW2  992   2.402   1.736   2.120
 1613SOL     OW  993   2.111   1.785   3.103
 1613SOL    HW1  994   2.168   1.720   3.153
 1613SOL    HW2  995   2.095   1.752   3.010
 1614SOL     OW  996   2.802   1.698   2.766
 1614SOL    HW1  997   2.882   1.641   2.787
 1614SOL    HW2  998   2.753   1.658   2.689
 1615SOL     OW  999   2.244   0.700   2.342
 1615SOL    HW1 1000   2.289   0.610   2.339
 1615SOL    HW2 1001   2.150   0.689   2.375
 1619SOL     OW 1002   2.750   1.514   3.057
 1619SOL    HW1 1003   2.727   1.489   2.963
 1619SOL    HW2 1004   2.811   1.445   3.096
 1621SOL     OW 1005   2.665   1.402   2.786
 1621SOL    HW1 1006   2.755   1.416   2.744
 1621SOL    HW2 1007   2.594   1.404   2.715
 1624SOL     OW 1008   3.296   1.188   1.903
 1624SOL    HW1 1009   3.328   1.112   1.960
 1624SOL    HW2 1010   3.204   1.215   1.933
 1628SOL     OW 1011   3.089   1.570   2.655
 1628SOL    HW1 1012   3.110   1.644   2.590
 1628SOL    HW2 1013   3.157   1.570   2.728
 1629SOL     OW 1014   2.321   1.152   2.603
 1629SOL    HW1 1015   2.250   1.125   2.668
 1629SOL    HW2 1016   2.295   1.124   2.510
 1630SOL     OW 1017   3.133   1.797   2.453
 1630SOL    HW1 1018   3.177   1.861   2.389
 1630SOL    HW2 1019   3.083   1.849   2.523
 1636SOL     OW 1020   3.291   1.173   2.729
 1636SOL    HW1 1021   3.236   1.089   2.722
 1636SOL    HW2 1022   3.317   1.202   2.637
 1639SOL     OW 1023   2.350   1.385   2.036
 1639SOL    HW1 1024   2.263   1.370   2.083
 1639SOL    HW2 1025   2.333   1.411   1.941
 1640SOL     OW 1026   3.526   1.280   2.519
 1640SOL    HW1 1027   3.625   1.288   2.533
 1640SOL    HW2 1028   3.481   1.364   2.550
 1644SOL     OW 1029   2.926   1.347   3.202
 1644SOL    HW1 1030   2.846   1.324   3.257
 1644SOL    HW2 1031   3.009   1.321   3.251
 1645SOL     OW 1032   3.454   1.629   3.487
 1645SOL    HW1 1033   3.481   1.663   3.397
 1645SOL    HW2 1034   3.533   1.591   3.533
 1646SOL     OW 1035   2.973   1.195   2.962
 1646SOL    HW1 1036   2.933   1.239   3.043
 1646SOL    HW2 1037   2.932   1.232   2.879
 1647SOL     OW 1038   3.500   1.099   2.941
 1647SOL    HW1 1039   3.505   1.180   3.000
 1647SOL    HW2 1040   3.414   1.101   2.890
 1650SOL     OW 1041   2.567   1.050   2.230
 1650SOL    HW1 1042   2.553   1.057   2.329
 1650SOL    HW2 1043   2.651   0.999   2.212
 1651SOL     OW 1044   2.272   0.813   3.113
 1651SOL    HW1 1045   2.358   0.825   3.163
 1651SOL    HW2 1046   2.230   0.726   3.140
 1653SOL     OW 1047   1.926   1.564   3.193
 1653SOL    HW1 1048   1.880   1.646   3.159
 1653SOL    HW2 1049   2.024   1.583   3.202
 1654SOL     OW 1050   2.229   1.100   2.363
 1654SOL    HW1 1051   2.222   1.183   2.307
 1654SOL    HW2 1052   2.233   1.020   2.303
 1656SOL     OW 1053   3.114   1.348   2.250
 1656SOL    HW1 1054   3.164   1.425   2.290
 1656SOL    HW2 1055   3.019   1.350   2.282
 1657SOL     OW 1056   3.134   1.445   3.004
 1657SOL    HW1 1057   3.181   1.458   3.091
 1657SOL    HW2 1058   3.068   1.371   3.013
 1659SOL     OW 1059   2.216   1.510   3.191
 1659SOL    HW1 1060   2.195   1.466   3.104
 1659SOL    HW2 1061   2.313   1.536   3.194
 1664SOL     OW 1062   2.435   0.870   2.891
 1664SOL    HW1 1063   2.479   0.959   2.882
 1664SOL    HW2 1064   2.372   0.870   2.968
 1668SOL     OW 1065   1.899   1.310   3.144
 1668SOL    HW1 1066   1.952   1.261   3.212
 1668SOL    HW2 1067   1.921   1.408   3.149
 1673SOL     OW 1068   2.885   0.766   2.828
 1673SOL    HW1 1069   2.900   0.787   2.924
 1673SOL    HW2 1070   2.855   0.671   2.819
 1674SOL     OW 1071   2.842   1.573   3.562
 1674SOL    HW1 1072   2.822   1.617   3.474
 1674SOL    HW2 1073   2.881   1.482   3.546
 1678SOL     OW 1074   3.165   0.838   1.904
 1678SOL    HW1 1075   3.199   0.745   1.919
 1678SOL    HW2 1076   3.183   0.865   1.809
 1679SOL     OW 1077   2.930   1.333   2.711
 1679SOL    HW1 1078   2.937   1.249   2.656
 1679SOL    HW2 1079   2.992   1.402   2.675
 1680SOL     OW 1080   2.181   0.810   2.811
 1680SOL    HW1 1081   2.274   0.846   2.816
 1680SOL    HW2 1082   2.175   0.725   2.863
 1684SOL     OW 1083   1.870   1.326   2.062
 1684SOL    HW1 1084   1.777   1.347   2.031
 1684SOL    HW2 1085   1.880   1.227   2.075
 1685SOL     OW 1086   1.950   1.801   2.789
 1685SOL    HW1 1087   1.908   1.715   2.762
 1685SOL    HW2 1088   2.044   1.804   2.755
 1686SOL     OW 1089   2.366   1.568   2.772
 1686SOL    HW1 1090   2.432   1.642   2.781
 1686SOL    HW2 1091   2.410   1.489   2.730
 1693SOL     OW 1092   2.114   1.564   3.606
 1693SOL    HW1 1093   2.084   1.621   3.682
 1693SOL    HW2 1094   2.107   1.467   3.632
 1695SOL     OW 1095   2.792   1.678   3.327
 1695SOL    HW1 1096   2.768   1.660   3.232
 1695SOL    HW2 1097   2.822   1.772   3.337
 1697SOL     OW 1098   2.021   1.137   3.328
 1697SOL    HW1 1099   2.043   1.076   3.404
 1697SOL    HW2 1100   2.031   1.088   3.242
 1698SOL     OW 1101   3.209   1.059   3.096
 1698SOL    HW1 1102   3.233   0.996   3.022
 1698SOL    HW2 1103   3.119   1.099   3.078
 1699SOL     OW 1104   3.164   0.855   2.171
 1699SOL    HW1 1105   3.078   0.824   2.213
 1699SOL    HW2 1106   3.160   0.841   2.072
 1700SOL     OW 1107   3.621   1.747   3.016
 1700SOL    HW1 1108   3.682   1.777   2.943
 1700SOL    HW2 1109   3.583   1.658   2.994
 1701SOL     OW 1110   3.114   1.731   2.990
 1701SOL    HW1 1111   3.198   1.736   2.936
 1701SOL    HW2 1112   3.091   1.635   3.008
 1702SOL     OW 1113   1.945   1.258   2.884
 1702SOL    HW1 1114   1.940   1.257   2.984
 1702SOL    HW2 1115   1.862   1.217   2.846
 1703SOL     OW 1116   2.550   1.662   3.578
 1703SOL    HW1 1117   2.494   1.743   3.587
 1703SOL    HW2 1118   2.602   1.666   3.492
 1705SOL     OW 1119   3.250   1.573   2.339
 1705SOL    HW1 1120   3.317   1.585   2.265
 1705SOL    HW2 1121   3.210   1.662   2.362
 1706SOL     OW 1122   1.992   1.794   3.713
 1706SOL    HW1 1123   1.951   1.720   3.766
 1706SOL    HW2 1124   2.056   1.845   3.771
 1707SOL     OW 1125   3.142   0.927   2.534
 1707SOL    HW1 1126   3.202   0.846   2.536
 1707SOL    HW2 1127   3.182   0.996   2.474
 1708SOL     OW 1128   2.692   1.273   3.284
 1708SOL    HW1 1129   2.687   1.306   3.379
 1708SOL    HW2 1130   2.606   1.292   3.238
 1709SOL     OW 1131   2.534   1.616   2.016
 1709SOL    HW1 1132   2.543   1.626   1.917
 1709SOL    HW2 1133   2.494   1.527   2.037
 1710SOL     OW 1134   3.512   1.720   3.256
 1710SOL    HW1 1135   3.565   1.730   3.172
 1710SOL    HW2 1136   3.485   1.810   3.290
 1713SOL     OW 1137   3.056   1.612   1.893
 1713SOL    HW1 1138   3.062   1.519   1.930
 1713SOL    HW2 1139   2.997   1.612   1.813
 1714SOL     OW 1140   2.684   1.002   3.234
 1714SOL    HW1 1141   2.724   1.001   3.142
 1714SOL    HW2 1142   2.694   1.094   3.274
 1715SOL     OW 1143   2.778   0.910   2.153
 1715SOL    HW1 1144   2.841   0.948   2.085
 1715SOL    HW2 1145   2.818   0.827   2.192
 1716SOL     OW 1146   3.366   1.607   1.906
 1716SOL    HW1 1147   3.274   1.644   1.913
 1716SOL    HW2 1148   3.404   1.627   1.816
 1717SOL     OW 1149   2.234   1.288   3.352
 1717SOL    HW1 1150   2.221   1.381   3.318
 1717SOL    HW2 1151   2.150   1.236   3.339
 1718SOL     OW 1152   3.476   1.292   3.151
 1718SOL    HW1 1153   3.536   1.295   3.231
 1718SOL    HW2 1154   3.401   1.356   3.164
 1719SOL     OW 1155   2.901   1.098   2.558
 1719SOL    HW1 1156   2.831   1.051   2.612
 1719SOL    HW2 1157   2.960   1.030   2.515
 1721SOL     OW 1158   2.452   1.487   2.353
 1721SOL    HW1 1159   2.494   1.429   2.283
 1721SOL    HW2 1160   2.408   1.566   2.309
 1723SOL     OW 1161   2.117   1.348   2.152
 1723SOL    HW1 1162   2.021   1.349   2.125
 1723SOL    HW2 1163   2.129   1.401   2.236
 1729SOL     OW 1164   3.045   1.335   1.981
 1729SOL    HW1 1165   2.946   1.324   1.983
 1729SOL    HW2 1166   3.079   1.350   2.074
 1730SOL     OW 1167   2.475   0.842   3.293
 1730SOL    HW1 1168   2.531   0.923   3.276
 1730SOL    HW2 1169   2.534   0.762   3.296
 1731SOL     OW 1170   3.355   1.767   2.821
 1731SOL    HW1 1171   3.388   1.831   2.752
 1731SOL    HW2 1172   3.421   1.761   2.896
 1734SOL     OW 1173   2.252   1.741   3.422
 1734SOL    HW1 1174   2.161   1.782   3.420
 1734SOL    HW2 1175   2.245   1.647   3.454
 1737SOL     OW 1176   2.456   0.745   2.514
 1737SOL    HW1 1177   2.506   0.830   2.495
 1737SOL    HW2 1178   2.368   0.747   2.466
 1740SOL     OW 1179   2.721   1.374   1.878
 1740SOL    HW1 1180   2.675   1.389   1.966
 1740SOL    HW2 1181   2.765   1.459   1.848
 1741SOL     OW 1182   2.523   1.790   2.815
 1741SOL    HW1 1183   2.477   1.878   2.802
 1741SOL    HW2 1184   2.622   1.802   2.808
 1742SOL     OW 1185   2.721   0.956   2.723
 1742SOL    HW1 1186   2.775   0.887   2.771
 1742SOL    HW2 1187   2.689   1.025   2.789
 1743SOL     OW 1188   2.945   0.984   1.949
 1743SOL    HW1 1189   2.922   1.037   1.867
 1743SOL    HW2 1190   3.026   0.928   1.930
 1744SOL     OW 1191   3.723   1.569   2.713
 1744SOL    HW1 1192   3.652   1.557   2.643
 1744SOL    HW2 1193   3.724   1.490   2.773
 1745SOL     OW 1194   2.083   1.314   3.706
 1745SOL    HW1 1195   2.018   1.241   3.685
 1745SOL    HW2 1196   2.087   1.328   3.804
 1746SOL     OW 1197   1.941   1.240   2.515
 1746SOL    HW1 1198   1.940   1.193   2.603
 1746SOL    HW2 1199   2.023   1.212   2.464
 1747SOL     OW 1200   2.534   1.391   3.486
 1747SOL    HW1 1201   2.456   1.341   3.524
 1747SOL    HW2 1202   2.531   1.486   3.517
 1750SOL     OW 1203   3.567   1.487   2.966
 1750SOL    HW1 1204   3.474   1.462   2.939
 1750SOL    HW2 1205   3.593   1.437   3.048
 1752SOL     OW 1206   2.674   1.586   2.549
 1752SOL    HW1 1207   2.706   1.596   2.455
 1752SOL    HW2 1208   2.595   1.524   2.551
 1755SOL     OW 1209   2.632   1.330   2.163
 1755SOL    HW1 1210   2.586   1.243   2.180
 1755SOL    HW2 1211   2.723   1.327   2.204
 1756SOL     OW 1212   2.480   1.567   3.146
 1756SOL    HW1 1213   2.475   1.649   3.203
 1756SOL    HW2 1214   2.569   1.564   3.101
 1760SOL     OW 1215   1.901   1.077   2.162
 1760SOL    HW1 1216   2.000   1.066   2.153
 1760SOL    HW2 1217   1.861   0.991   2.194
 1761SOL     OW 1218   2.737   1.646   2.199
 1761SOL    HW1 1219   2.660   1.611   2.145
 1761SOL    HW2 1220   2.705   1.717   2.261
 1776SOL     OW 1221   1.889   1.596   3.841
 1776SOL    HW1 1222   1.870   1.500   3.862
 1776SOL    HW2 1223   1.856   1.654   3.916
 1840SOL     OW 1224   2.534   1.616   3.878
 1840SOL    HW1 1225   2.543   1.626   3.779
 1840SOL    HW2 1226   2.494   1.527   3.899
 1843SOL     OW 1227   3.056   1.612   3.755
 1843SOL    HW1 1228   3.062   1.519   3.792
 1843SOL    HW2 1229   2.997   1.612   3.675
 1855SOL     OW 1230   2.721   1.374   3.740
 1855SOL    HW1 1231   2.675   1.389   3.828
 1855SOL    HW2 1232   2.765   1.459   3.710
 1871SOL     OW 1233   2.087   2.137   0.996
 1871SOL    HW1 1234   2.122   2.120   1.088
 1871SOL    HW2 1235   1.999   2.092   0.984
 1872SOL     OW 1236   1.881   2.230   0.647
 1872SOL    HW1 1237   1.799   2.273   0.686
 1872SOL    HW2 1238   1.853   2.157   0.584
 1873SOL     OW 1239   2.431   3.137   1.165
 1873SOL    HW1 1240   2.338   3.130   1.128
 1873SOL    HW2 1241   2.442   3.226   1.209
 1875SOL     OW 1242   2.997   2.565   0.717
 1875SOL    HW1 1243   3.054   2.643   0.692
 1875SOL    HW2 1244   2.937   2.591   0.793
 1877SOL     OW 1245   2.630   3.006   1.023
 1877SOL    HW1 1246   2.552   3.023   1.083
 1877SOL    HW2 1247   2.664   3.093   0.987
 1878SOL     OW 1248   2.712   2.660   1.823
 1878SOL    HW1 1249   2.708   2.736   1.888
 1878SOL    HW2 1250   2.734   2.696   1.732
 1879SOL     OW 1251   2.547   2.874   0.665
 1879SOL    HW1 1252   2.616   2.858   0.735
 1879SOL    HW2 1253   2.474   2.931   0.703
 1880SOL     OW 1254   2.548   3.023   1.803
 1880SOL    HW1 1255   2.608   3.102   1.817
 1880SOL    HW2 1256   2.462   3.054   1.762
 1881SOL     OW 1257   2.197   3.297   1.061
 1881SOL    HW1 1258   2.119   3.266   1.008
 1881SOL    HW2 1259   2.255   3.355   1.004
 1882SOL     OW 1260   3.322   3.367   1.339
 1882SOL    HW1 1261   3.346   3.461   1.365
 1882SOL    HW2 1262   3.306   3.313   1.421
 1883SOL     OW 1263   2.300   2.254   1.499
 1883SOL    HW1 1264   2.382   2.198   1.508
 1883SOL    HW2 1265   2.219   2.196   1.503
 1886SOL     OW 1266   2.989   3.203   1.690
 1886SOL    HW1 1267   3.036   3.203   1.778
 1886SOL    HW2 1268   2.941   3.116   1.679
 1888SOL     OW 1269   2.102   2.953   0.886
 1888SOL    HW1 1270   2.116   2.869   0.938
 1888SOL    HW2 1271   2.047   3.017   0.941
 1889SOL     OW 1272   2.482   3.648   1.439
 1889SOL    HW1 1273   2.390   3.631   1.474
 1889SOL    HW2 1274   2.510   3.740   1.465
 1891SOL     OW 1275   3.456   1.976   1.480
 1891SOL    HW1 1276   3.438   2.043   1.408
 1891SOL    HW2 1277   3.453   2.022   1.569
 1896SOL     OW 1278   1.975   2.599   1.597
 1896SOL    HW1 1279   2.063   2.586   1.642
 1896SOL    HW2 1280   1.962   2.696   1.575
 1898SOL     OW 1281   3.155   3.090   1.423
 1898SOL    HW1 1282   3.192   3.017   1.365
 1898SOL    HW2 1283   3.207   3.095   1.508
 1900SOL     OW 1284   2.059   2.838   1.264
 1900SOL    HW1 1285   2.148   2.793   1.250
 1900SOL    HW2 1286   1.986   2.773   1.245
 1902SOL     OW 1287   3.049   3.654   1.616
 1902SOL    HW1 1288   3.073   3.714   1.540
 1902SOL    HW2 1289   3.056   3.559   1.586
 1903SOL     OW 1290   2.179   2.113   1.801
 1903SOL    HW1 1291   2.250   2.184   1.807
 1903SOL    HW2 1292   2.091   2.152   1.829
 1907SOL     OW 1293   3.143   2.207   0.944
 1907SOL    HW1 1294   3.057   2.157   0.931
 1907SOL    HW2 1295   3.205   2.153   1.000
 1909SOL     OW 1296   2.669   2.467   1.465
 1909SOL    HW1 1297   2.622   2.464   1.554
 1909SOL    HW2 1298   2.618   2.412   1.399
 1910SOL     OW 1299   3.256   2.331   1.674
 1910SOL    HW1 1300   3.236   2.374   1.762
 1910SOL    HW2 1301   3.334   2.269   1.683
 1911SOL     OW 1302   2.835   2.752   1.572
 1911SOL    HW1 1303   2.881   2.668   1.543
 1911SOL    HW2 1304   2.779   2.786   1.497
 1912SOL     OW 1305   2.853   2.272   1.242
 1912SOL    HW1 1306   2.776   2.306   1.296
 1912SOL    HW2 1307   2.819   2.221   1.163
 1914SOL     OW 1308   1.938   2.673   0.789
 1914SOL    HW1 1309   2.037   2.661   0.798
 1914SOL    HW2 1310   1.914   2.768   0.810
 1915SOL     OW 1311   1.992   3.683   1.571
 1915SOL    HW1 1312   1.982   3.668   1.670
 1915SOL    HW2 1313   1.906   3.719   1.535
 1917SOL     OW 1314   3.581   2.447   1.831
 1917SOL    HW1 1315   3.555   2.536   1.795
 1917SOL    HW2 1316   3.579   2.379   1.758
 1919SOL     OW 1317   2.412   2.058   0.885
 1919SOL    HW1 1318   2.407   2.053   0.985
 1919SOL    HW2 1319   2.414   2.154   0.856
 1923SOL     OW 1320   3.089   3.412   1.506
 1923SOL    HW1 1321   3.095   3.335   1.570
 1923SOL    HW2 1322   3.037   3.386   1.426
 1926SOL     OW 1323   2.323   3.128   1.727
 1926SOL    HW1 1324   2.273   3.129   1.641
 1926SOL    HW2 1325   2.260   3.110   1.803
 1928SOL     OW 1326   2.064   2.147   1.498
 1928SOL    HW1 1327   1.984   2.207   1.485
 1928SOL    HW2 1328   2.054   2.098   1.584
 1932SOL     OW 1329   2.111   3.647   1.241
 1932SOL    HW1 1330   2.168   3.582   1.291
 1932SOL    HW2 1331   2.095   3.614   1.148
 1935SOL     OW 1332   3.409   2.084   1.729
 1935SOL    HW1 1333   3.404   2.121   1.821
 1935SOL    HW2 1334   3.337   2.015   1.717
 1936SOL     OW 1335   2.643   2.126   1.749
 1936SOL    HW1 1336   2.710   2.065   1.792
 1936SOL    HW2 1337   2.570   2.145   1.814
 1937SOL     OW 1338   2.750   3.376   1.195
 1937SOL    HW1 1339   2.727   3.351   1.101
 1937SOL    HW2 1340   2.811   3.307   1.234
 1938SOL     OW 1341   3.213   2.452   1.433
 1938SOL    HW1 1342   3.241   2.409   1.518
 1938SOL    HW2 1343   3.238   2.548   1.434
 1939SOL     OW 1344   2.665   3.264   0.924
 1939SOL    HW1 1345   2.755   3.278   0.882
 1939SOL    HW2 1346   2.594   3.266   0.853
 1940SOL     OW 1347   2.784   2.365   0.899
 1940SOL    HW1 1348   2.759   2.356   0.803
 1940SOL    HW2 1349   2.832   2.283   0.930
 1945SOL     OW 1350   2.938   2.545   1.464
 1945SOL    HW1 1351   2.858   2.484   1.467
 1945SOL    HW2 1352   3.019   2.492   1.440
 1947SOL     OW 1353   2.321   3.014   0.741
 1947SOL    HW1 1354   2.250   2.987   0.806
 1947SOL    HW2 1355   2.295   2.986   0.648
 1950SOL     OW 1356   1.940   2.418   1.386
 1950SOL    HW1 1357   2.032   2.417   1.345
 1950SOL    HW2 1358   1.934   2.492   1.453
 1951SOL     OW 1359   2.423   2.084   1.147
 1951SOL    HW1 1360   2.461   2.000   1.184
 1951SOL    HW2 1361   2.335   2.103   1.191
 1952SOL     OW 1362   2.728   2.316   0.642
 1952SOL    HW1 1363   2.696   2.388   0.580
 1952SOL    HW2 1364   2.752   2.235   0.589
 1953SOL     OW 1365   2.879   1.901   0.753
 1953SOL    HW1 1366   2.807   1.906   0.684
 1953SOL    HW2 1367   2.855   1.832   0.822
 1955SOL     OW 1368   3.328   2.452   0.992
 1955SOL    HW1 1369   3.298   2.357   0.999
 1955SOL    HW2 1370   3.401   2.468   1.058
 1961SOL     OW 1371   3.616   3.085   1.588
 1961SOL    HW1 1372   3.707   3.046   1.575
 1961SOL    HW2 1373   3.624   3.181   1.612
 1962SOL     OW 1374   2.926   3.209   1.340
 1962SOL    HW1 1375   2.846   3.186   1.395
 1962SOL    HW2 1376   3.009   3.183   1.389
 1963SOL     OW 1377   3.454   3.491   1.625
 1963SOL    HW1 1378   3.481   3.525   1.535
 1963SOL    HW2 1379   3.533   3.453   1.671
 1964SOL     OW 1380   2.973   3.057   1.100
 1964SOL    HW1 1381   2.933   3.101   1.181
 1964SOL    HW2 1382   2.932   3.094   1.017
 1966SOL     OW 1383   2.777   1.951   1.402
 1966SOL    HW1 1384   2.802   1.931   1.307
 1966SOL    HW2 1385   2.849   2.007   1.444
 1967SOL     OW 1386   2.842   2.978   1.719
 1967SOL    HW1 1387   2.743   2.984   1.729
 1967SOL    HW2 1388   2.865   2.898   1.663
 1969SOL     OW 1389   2.272   2.675   1.251
 1969SOL    HW1 1390   2.358   2.687   1.301
 1969SOL    HW2 1391   2.230   2.588   1.278
 1970SOL     OW 1392   3.136   2.248   1.262
 1970SOL    HW1 1393   3.157   2.322   1.326
 1970SOL    HW2 1394   3.047   2.265   1.219
 1971SOL     OW 1395   1.926   3.426   1.331
 1971SOL    HW1 1396   1.880   3.508   1.297
 1971SOL    HW2 1397   2.024   3.445   1.340
 1973SOL     OW 1398   2.428   2.399   0.865
 1973SOL    HW1 1399   2.440   2.465   0.791
 1973SOL    HW2 1400   2.474   2.433   0.948
 1975SOL     OW 1401   3.134   3.307   1.142
 1975SOL    HW1 1402   3.181   3.320   1.229
 1975SOL    HW2 1403   3.068   3.233   1.151
 1977SOL     OW 1404   2.216   3.372   1.329
 1977SOL    HW1 1405   2.195   3.328   1.242
 1977SOL    HW2 1406   2.313   3.398   1.332
 1978SOL     OW 1407   2.264   2.613   1.598
 1978SOL    HW1 1408   2.332   2.668   1.551
 1978SOL    HW2 1409   2.304   2.525   1.625
 1979SOL     OW 1410   3.449   2.641   1.670
 1979SOL    HW1 1411   3.357   2.679   1.665
 1979SOL    HW2 1412   3.509   2.688   1.605
 1980SOL     OW 1413   2.875   1.967   1.770
 1980SOL    HW1 1414   2.881   2.052   1.718
 1980SOL    HW2 1415   2.907   1.891   1.713
 1981SOL     OW 1416   2.366   1.912   1.740
 1981SOL    HW1 1417   2.324   1.855   1.670
 1981SOL    HW2 1418   2.300   1.981   1.772
 1982SOL     OW 1419   2.435   2.732   1.029
 1982SOL    HW1 1420   2.479   2.821   1.020
 1982SOL    HW2 1421   2.372   2.732   1.106
 1983SOL     OW 1422   3.222   2.724   1.045
 1983SOL    HW1 1423   3.147   2.724   0.979
 1983SOL    HW2 1424   3.259   2.632   1.054
 1985SOL     OW 1425   2.169   2.075   1.231
 1985SOL    HW1 1426   2.146   2.112   1.321
 1985SOL    HW2 1427   2.139   1.980   1.225
 1986SOL     OW 1428   1.899   3.172   1.282
 1986SOL    HW1 1429   1.952   3.123   1.350
 1986SOL    HW2 1430   1.921   3.270   1.287
 1987SOL     OW 1431   2.594   2.496   1.064
 1987SOL    HW1 1432   2.653   2.470   0.988
 1987SOL    HW2 1433   2.566   2.592   1.053
 1988SOL     OW 1434   3.590   2.797   1.854
 1988SOL    HW1 1435   3.544   2.790   1.765
 1988SOL    HW2 1436   3.528   2.841   1.920
 1989SOL     OW 1437   2.169   1.925   0.618
 1989SOL    HW1 1438   2.158   2.019   0.651
 1989SOL    HW2 1439   2.164   1.862   0.695
 1991SOL     OW 1440   2.885   2.628   0.966
 1991SOL    HW1 1441   2.900   2.649   1.062
 1991SOL    HW2 1442   2.855   2.533   0.957
 1992SOL     OW 1443   2.842   3.435   1.700
 1992SOL    HW1 1444   2.822   3.479   1.612
 1992SOL    HW2 1445   2.881   3.344   1.684
 1994SOL     OW 1446   2.212   2.760   1.804
 1994SOL    HW1 1447   2.288   2.804   1.852
 1994SOL    HW2 1448   2.247   2.713   1.722
 1998SOL     OW 1449   2.181   2.672   0.949
 1998SOL    HW1 1450   2.274   2.708   0.954
 1998SOL    HW2 1451   2.175   2.587   1.001
 1999SOL     OW 1452   2.201   2.371   1.006
 1999SOL    HW1 1453   2.149   2.288   0.989
 1999SOL    HW2 1454   2.278   2.376   0.942
 2000SOL     OW 1455   3.000   2.242   1.678
 2000SOL    HW1 1456   2.955   2.305   1.742
 2000SOL    HW2 1457   3.093   2.273   1.661
 2001SOL     OW 1458   3.022   2.069   1.477
 2001SOL    HW1 1459   3.022   2.133   1.554
 2001SOL    HW2 1460   3.050   2.117   1.394
 2005SOL     OW 1461   2.864   2.658   1.238
 2005SOL    HW1 1462   2.905   2.626   1.324
 2005SOL    HW2 1463   2.768   2.631   1.235
 2006SOL     OW 1464   1.902   2.406   1.114
 2006SOL    HW1 1465   1.987   2.373   1.073
 2006SOL    HW2 1466   1.915   2.421   1.212
 2007SOL     OW 1467   2.051   2.382   1.722
 2007SOL    HW1 1468   2.110   2.342   1.652
 2007SOL    HW2 1469   1.993   2.453   1.681
 2008SOL     OW 1470   3.231   2.812   1.660
 2008SOL    HW1 1471   3.270   2.901   1.680
 2008SOL    HW2 1472   3.241   2.792   1.563
 2010SOL     OW 1473   3.519   2.466   1.206
 2010SOL    HW1 1474   3.481   2.397   1.268
 2010SOL    HW2 1475   3.601   2.430   1.162
 2011SOL     OW 1476   2.114   3.426   1.744
 2011SOL    HW1 1477   2.084   3.483   1.820
 2011SOL    HW2 1478   2.107   3.329   1.770
 2012SOL     OW 1479   2.533   2.326   1.269
 2012SOL    HW1 1480   2.499   2.237   1.239
 2012SOL    HW2 1481   2.559   2.380   1.189
 2013SOL     OW 1482   2.792   3.540   1.465
 2013SOL    HW1 1483   2.768   3.522   1.370
 2013SOL    HW2 1484   2.822   3.634   1.475
 2015SOL     OW 1485   2.021   2.999   1.466
 2015SOL    HW1 1486   2.043   2.938   1.542
 2015SOL    HW2 1487   2.031   2.950   1.380
 2016SOL     OW 1488   3.209   2.921   1.234
 2016SOL    HW1 1489   3.233   2.858   1.160
 2016SOL    HW2 1490   3.119   2.961   1.216
 2020SOL     OW 1491   1.945   3.120   1.022
 2020SOL    HW1 1492   1.940   3.119   1.122
 2020SOL    HW2 1493   1.862   3.079   0.984
 2021SOL     OW 1494   2.550   3.524   1.716
 2021SOL    HW1 1495   2.494   3.605   1.725
 2021SOL    HW2 1496   2.602   3.528   1.630
 2025SOL     OW 1497   1.992   3.656   1.851
 2025SOL    HW1 1498   1.951   3.582   1.904
 2025SOL    HW2 1499   2.056   3.707   1.909
 2027SOL     OW 1500   2.692   3.135   1.422
 2027SOL    HW1 1501   2.687   3.168   1.517
 2027SOL    HW2 1502   2.606   3.154   1.376
 2031SOL     OW 1503   2.125   2.188   0.720
 2031SOL    HW1 1504   2.046   2.239   0.686
 2031SOL    HW2 1505   2.116   2.173   0.818
 2033SOL     OW 1506   2.684   2.864   1.372
 2033SOL    HW1 1507   2.724   2.863   1.280
 2033SOL    HW2 1508   2.694   2.956   1.412
 2036SOL     OW 1509   2.234   3.150   1.490
 2036SOL    HW1 1510   2.221   3.243   1.456
 2036SOL    HW2 1511   2.150   3.098   1.477
 2037SOL     OW 1512   3.476   3.154   1.289
 2037SOL    HW1 1513   3.536   3.157   1.369
 2037SOL    HW2 1514   3.401   3.218   1.302
 2039SOL     OW 1515   2.876   2.098   0.971
 2039SOL    HW1 1516   2.868   2.062   0.878
 2039SOL    HW2 1517   2.874   2.022   1.036
 2041SOL     OW 1518   3.571   2.247   1.381
 2041SOL    HW1 1519   3.644   2.316   1.385
 2041SOL    HW2 1520   3.599   2.172   1.322
 2043SOL     OW 1521   1.967   2.875   1.726
 2043SOL    HW1 1522   1.890   2.842   1.780
 2043SOL    HW2 1523   2.052   2.845   1.768
 2044SOL     OW 1524   2.534   2.065   1.489
 2044SOL    HW1 1525   2.624   2.049   1.449
 2044SOL    HW2 1526   2.542   2.070   1.588
 2045SOL     OW 1527   3.302   2.718   1.398
 2045SOL    HW1 1528   3.245   2.770   1.335
 2045SOL    HW2 1529   3.398   2.730   1.374
 2048SOL     OW 1530   2.475   2.704   1.431
 2048SOL    HW1 1531   2.531   2.785   1.414
 2048SOL    HW2 1532   2.534   2.624   1.434
 2050SOL     OW 1533   2.578   2.427   1.708
 2050SOL    HW1 1534   2.597   2.492   1.782
 2050SOL    HW2 1535   2.638   2.347   1.717
 2051SOL     OW 1536   3.312   3.082   1.633
 2051SOL    HW1 1537   3.303   3.072   1.732
 2051SOL    HW2 1538   3.408   3.075   1.607
 2052SOL     OW 1539   2.252   3.603   1.560
 2052SOL    HW1 1540   2.161   3.644   1.558
 2052SOL    HW2 1541   2.245   3.509   1.592
 2053SOL     OW 1542   3.536   2.745   1.254
 2053SOL    HW1 1543   3.509   2.656   1.217
 2053SOL    HW2 1544   3.537   2.813   1.181
 2055SOL     OW 1545   2.456   2.607   0.652
 2055SOL    HW1 1546   2.506   2.692   0.633
 2055SOL    HW2 1547   2.368   2.609   0.604
 2056SOL     OW 1548   3.639   2.204   1.642
 2056SOL    HW1 1549   3.622   2.235   1.548
 2056SOL    HW2 1550   3.555   2.167   1.680
 2057SOL     OW 1551   3.592   2.796   1.517
 2057SOL    HW1 1552   3.630   2.887   1.532
 2057SOL    HW2 1553   3.584   2.779   1.418
 2060SOL     OW 1554   2.721   2.818   0.861
 2060SOL    HW1 1555   2.775   2.749   0.909
 2060SOL    HW2 1556   2.689   2.887   0.927
 2063SOL     OW 1557   2.083   3.176   1.844
 2063SOL    HW1 1558   2.018   3.103   1.823
 2063SOL    HW2 1559   2.087   3.190   1.942
 2065SOL     OW 1560   2.534   3.253   1.624
 2065SOL    HW1 1561   2.456   3.203   1.662
 2065SOL    HW2 1562   2.531   3.348   1.655
 2066SOL     OW 1563   3.686   2.054   1.227
 2066SOL    HW1 1564   3.682   1.964   1.271
 2066SOL    HW2 1565   3.689   2.043   1.128
 2069SOL     OW 1566   2.179   2.409   1.280
 2069SOL    HW1 1567   2.217   2.350   1.352
 2069SOL    HW2 1568   2.219   2.383   1.192
 2071SOL     OW 1569   3.286   2.076   1.112
 2071SOL    HW1 1570   3.338   2.011   1.167
 2071SOL    HW2 1571   3.237   2.139   1.173
 2072SOL     OW 1572   2.863   1.896   1.154
 2072SOL    HW1 1573   2.800   1.824   1.123
 2072SOL    HW2 1574   2.956   1.860   1.154
 2074SOL     OW 1575   2.480   3.429   1.284
 2074SOL    HW1 1576   2.475   3.511   1.341
 2074SOL    HW2 1577   2.569   3.426   1.239
 2080SOL     OW 1578   2.092   2.490   1.975
 2080SOL    HW1 1579   1.999   2.488   2.012
 2080SOL    HW2 1580   2.093   2.451   1.883
 2081SOL     OW 1581   2.087   2.137   2.858
 2081SOL    HW1 1582   2.122   2.120   2.950
 2081SOL    HW2 1583   1.999   2.092   2.846
 2082SOL     OW 1584   1.881   2.230   2.509
 2082SOL    HW1 1585   1.799   2.273   2.548
 2082SOL    HW2 1586   1.853   2.157   2.446
 2083SOL     OW 1587   2.431   3.137   3.027
 2083SOL    HW1 1588   2.338   3.130   2.990
 2083SOL    HW2 1589   2.442   3.226   3.071
 2084SOL     OW 1590   3.417   3.373   2.565
 2084SOL    HW1 1591   3.360   3.357   2.646
 2084SOL    HW2 1592   3.358   3.383   2.485
 2085SOL     OW 1593   2.997   2.565   2.579
 2085SOL    HW1 1594   3.054   2.643   2.554
 2085SOL    HW2 1595   2.937   2.591   2.655
 2086SOL     OW 1596   3.617   2.469   2.093
 2086SOL    HW1 1597   3.605   2.456   1.994
 2086SOL    HW2 1598   3.587   2.388   2.142
 2087SOL     OW 1599   2.630   3.006   2.885
 2087SOL    HW1 1600   2.552   3.023   2.945
 2087SOL    HW2 1601   2.664   3.093   2.849
 2088SOL     OW 1602   2.712   2.660   3.685
 2088SOL    HW1 1603   2.708   2.736   3.750
 2088SOL    HW2 1604   2.734   2.696   3.594
 2089SOL     OW 1605   2.547   2.874   2.527
 2089SOL    HW1 1606   2.616   2.858   2.597
 2089SOL    HW2 1607   2.474   2.931   2.565
 2090SOL     OW 1608   2.548   3.023   3.665
 2090SOL    HW1 1609   2.608   3.102   3.679
 2090SOL    HW2 1610   2.462   3.054   3.624
 2091SOL     OW 1611   2.197   3.297   2.923
 2091SOL    HW1 1612   2.119   3.266   2.870
 2091SOL    HW2 1613   2.255   3.355   2.866
 2092SOL     OW 1614   3.322   3.367   3.201
 2092SOL    HW1 1615   3.346   3.461   3.227
 2092SOL    HW2 1616   3.306   3.313   3.283
 2093SOL     OW 1617   2.300   2.254   3.361
 2093SOL    HW1 1618   2.382   2.198   3.370
 2093SOL    HW2 1619   2.219   2.196   3.365
 2094SOL     OW 1620   3.465   2.309   2.599
 2094SOL    HW1 1621   3.391   2.355   2.549
 2094SOL    HW2 1622   3.516   2.377   2.652
 2095SOL     OW 1623   2.093   3.575   2.345
 2095SOL    HW1 1624   2.127   3.652   2.399
 2095SOL    HW2 1625   2.137   3.575   2.255
 2096SOL     OW 1626   2.989   3.203   3.552
 2096SOL    HW1 1627   3.036   3.203   3.640
 2096SOL    HW2 1628   2.941   3.116   3.541
 2097SOL     OW 1629   2.092   3.296   2.400
 2097SOL    HW1 1630   2.066   3.392   2.400
 2097SOL    HW2 1631   2.021   3.242   2.445
 2098SOL     OW 1632   2.102   2.953   2.748
 2098SOL    HW1 1633   2.116   2.869   2.800
 2098SOL    HW2 1634   2.047   3.017   2.803
 2099SOL     OW 1635   2.482   3.648   3.301
 2099SOL    HW1 1636   2.390   3.631   3.336
 2099SOL    HW2 1637   2.510   3.740   3.327
 2100SOL     OW 1638   2.468   2.826   1.985
 2100SOL    HW1 1639   2.475   2.910   1.931
 2100SOL    HW2 1640   2.514   2.839   2.073
 2101SOL     OW 1641   3.456   1.976   3.342
 2101SOL    HW1 1642   3.438   2.043   3.270
 2101SOL    HW2 1643   3.453   2.022   3.431
 2103SOL     OW 1644   1.889   3.458   1.979
 2103SOL    HW1 1645   1.870   3.362   2.000
 2103SOL    HW2 1646   1.856   3.516   2.054
 2104SOL     OW 1647   3.551   2.784   2.474
 2104SOL    HW1 1648   3.646   2.755   2.482
 2104SOL    HW2 1649   3.543   2.849   2.399
 2105SOL     OW 1650   3.503   2.970   2.294
 2105SOL    HW1 1651   3.589   2.972   2.242
 2105SOL    HW2 1652   3.517   3.017   2.382
 2106SOL     OW 1653   1.975   2.599   3.459
 2106SOL    HW1 1654   2.063   2.586   3.504
 2106SOL    HW2 1655   1.962   2.696   3.437
 2107SOL     OW 1656   2.475   3.227   2.588
 2107SOL    HW1 1657   2.426   3.140   2.597
 2107SOL    HW2 1658   2.452   3.270   2.501
 2108SOL     OW 1659   3.155   3.090   3.285
 2108SOL    HW1 1660   3.192   3.017   3.227
 2108SOL    HW2 1661   3.207   3.095   3.370
 2109SOL     OW 1662   2.671   1.866   2.364
 2109SOL    HW1 1663   2.711   1.957   2.355
 2109SOL    HW2 1664   2.571   1.874   2.370
 2110SOL     OW 1665   2.059   2.838   3.126
 2110SOL    HW1 1666   2.148   2.793   3.112
 2110SOL    HW2 1667   1.986   2.773   3.107
 2111SOL     OW 1668   3.387   2.861   2.052
 2111SOL    HW1 1669   3.324   2.785   2.065
 2111SOL    HW2 1670   3.435   2.879   2.138
 2113SOL     OW 1671   2.179   2.113   3.663
 2113SOL    HW1 1672   2.250   2.184   3.669
 2113SOL    HW2 1673   2.091   2.152   3.691
 2114SOL     OW 1674   3.328   3.279   2.815
 2114SOL    HW1 1675   3.269   3.285   2.895
 2114SOL    HW2 1676   3.313   3.191   2.769
 2115SOL     OW 1677   3.529   3.576   2.434
 2115SOL    HW1 1678   3.488   3.553   2.346
 2115SOL    HW2 1679   3.511   3.502   2.499
 2116SOL     OW 1680   2.460   2.591   2.132
 2116SOL    HW1 1681   2.484   2.660   2.064
 2116SOL    HW2 1682   2.382   2.624   2.186
 2117SOL     OW 1683   3.143   2.207   2.806
 2117SOL    HW1 1684   3.057   2.157   2.793
 2117SOL    HW2 1685   3.205   2.153   2.862
 2118SOL     OW 1686   3.438   3.524   2.169
 2118SOL    HW1 1687   3.527   3.570   2.172
 2118SOL    HW2 1688   3.417   3.500   2.074
 2119SOL     OW 1689   2.669   2.467   3.327
 2119SOL    HW1 1690   2.622   2.464   3.416
 2119SOL    HW2 1691   2.618   2.412   3.261
 2120SOL     OW 1692   3.256   2.331   3.536
 2120SOL    HW1 1693   3.236   2.374   3.624
 2120SOL    HW2 1694   3.334   2.269   3.545
 2121SOL     OW 1695   2.835   2.752   3.434
 2121SOL    HW1 1696   2.881   2.668   3.405
 2121SOL    HW2 1697   2.779   2.786   3.359
 2122SOL     OW 1698   2.853   2.272   3.104
 2122SOL    HW1 1699   2.776   2.306   3.158
 2122SOL    HW2 1700   2.819   2.221   3.025
 2123SOL     OW 1701   2.903   2.563   2.291
 2123SOL    HW1 1702   2.929   2.559   2.387
 2123SOL    HW2 1703   2.818   2.512   2.277
 2124SOL     OW 1704   1.938   2.673   2.651
 2124SOL    HW1 1705   2.037   2.661   2.660
 2124SOL    HW2 1706   1.914   2.768   2.672
 2125SOL     OW 1707   1.992   3.683   3.433
 2125SOL    HW1 1708   1.982   3.668   3.532
 2125SOL    HW2 1709   1.906   3.719   3.397
 2126SOL     OW 1710   2.727   2.210   2.057
 2126SOL    HW1 1711   2.786   2.273   2.008
 2126SOL    HW2 1712   2.746   2.116   2.028
 2128SOL     OW 1713   3.224   3.006   2.407
 2128SOL    HW1 1714   3.307   2.977   2.359
 2128SOL    HW2 1715   3.175   3.073   2.351
 2129SOL     OW 1716   2.412   2.058   2.747
 2129SOL    HW1 1717   2.407   2.053   2.847
 2129SOL    HW2 1718   2.414   2.154   2.718
 2130SOL     OW 1719   2.870   3.318   2.339
 2130SOL    HW1 1720   2.824   3.390   2.287
 2130SOL    HW2 1721   2.866   3.338   2.437
 2131SOL     OW 1722   2.213   3.663   2.715
 2131SOL    HW1 1723   2.263   3.577   2.721
 2131SOL    HW2 1724   2.278   3.740   2.712
 2132SOL     OW 1725   3.657   2.928   2.735
 2132SOL    HW1 1726   3.595   2.913   2.659
 2132SOL    HW2 1727   3.605   2.939   2.820
 2133SOL     OW 1728   3.089   3.412   3.368
 2133SOL    HW1 1729   3.095   3.335   3.432
 2133SOL    HW2 1730   3.037   3.386   3.288
 2134SOL     OW 1731   2.183   2.805   2.104
 2134SOL    HW1 1732   2.265   2.844   2.062
 2134SOL    HW2 1733   2.156   2.723   2.055
 2135SOL     OW 1734   3.320   2.597   2.590
 2135SOL    HW1 1735   3.315   2.532   2.665
 2135SOL    HW2 1736   3.400   2.656   2.603
 2136SOL     OW 1737   2.323   3.128   3.589
 2136SOL    HW1 1738   2.273   3.129   3.503
 2136SOL    HW2 1739   2.260   3.110   3.665
 2137SOL     OW 1740   2.973   3.638   2.099
 2137SOL    HW1 1741   2.913   3.576   2.149
 2137SOL    HW2 1742   3.004   3.594   2.014
 2138SOL     OW 1743   2.064   2.147   3.360
 2138SOL    HW1 1744   1.984   2.207   3.347
 2138SOL    HW2 1745   2.054   2.098   3.446
 2139SOL     OW 1746   3.494   3.239   1.943
 2139SOL    HW1 1747   3.462   3.333   1.933
 2139SOL    HW2 1748   3.418   3.176   1.931
 2140SOL     OW 1749   2.326   3.605   2.185
 2140SOL    HW1 1750   2.359   3.644   2.271
 2140SOL    HW2 1751   2.402   3.598   2.120
 2141SOL     OW 1752   3.262   1.969   2.288
 2141SOL    HW1 1753   3.238   1.932   2.198
 2141SOL    HW2 1754   3.361   1.985   2.292
 2142SOL     OW 1755   2.111   3.647   3.103
 2142SOL    HW1 1756   2.168   3.582   3.153
 2142SOL    HW2 1757   2.095   3.614   3.010
 2143SOL     OW 1758   2.802   3.560   2.766
 2143SOL    HW1 1759   2.882   3.503   2.787
 2143SOL    HW2 1760   2.753   3.520   2.689
 2144SOL     OW 1761   3.409   2.084   3.591
 2144SOL    HW1 1762   3.404   2.121   3.683
 2144SOL    HW2 1763   3.337   2.015   3.579
 2145SOL     OW 1764   2.476   1.984   1.979
 2145SOL    HW1 1765   2.574   1.962   1.986
 2145SOL    HW2 1766   2.445   1.967   1.886
 2146SOL     OW 1767   2.643   2.126   3.611
 2146SOL    HW1 1768   2.710   2.065   3.654
 2146SOL    HW2 1769   2.570   2.145   3.676
 2147SOL     OW 1770   2.750   3.376   3.057
 2147SOL    HW1 1771   2.727   3.351   2.963
 2147SOL    HW2 1772   2.811   3.307   3.096
 2148SOL     OW 1773   3.213   2.452   3.295
 2148SOL    HW1 1774   3.241   2.409   3.380
 2148SOL    HW2 1775   3.238   2.548   3.296
 2149SOL     OW 1776   2.665   3.264   2.786
 2149SOL    HW1 1777   2.755   3.278   2.744
 2149SOL    HW2 1778   2.594   3.266   2.715
 2150SOL     OW 1779   2.784   2.365   2.761
 2150SOL    HW1 1780   2.759   2.356   2.665
 2150SOL    HW2 1781   2.832   2.283   2.792
 2151SOL     OW 1782   2.401   1.926   2.374
 2151SOL    HW1 1783   2.320   1.927   2.432
 2151SOL    HW2 1784   2.404   2.009   2.319
 2152SOL     OW 1785   3.296   3.050   1.903
 2152SOL    HW1 1786   3.328   2.974   1.960
 2152SOL    HW2 1787   3.204   3.077   1.933
 2153SOL     OW 1788   2.159   1.897   2.033
 2153SOL    HW1 1789   2.208   1.981   2.012
 2153SOL    HW2 1790   2.221   1.832   2.078
 2154SOL     OW 1791   2.797   2.098   2.342
 2154SOL    HW1 1792   2.749   2.139   2.264
 2154SOL    HW2 1793   2.896   2.096   2.323
 2155SOL     OW 1794   2.938   2.545   3.326
 2155SOL    HW1 1795   2.858   2.484   3.329
 2155SOL    HW2 1796   3.019   2.492   3.302
 2156SOL     OW 1797   3.089   3.432   2.655
 2156SOL    HW1 1798   3.110   3.506   2.590
 2156SOL    HW2 1799   3.157   3.432   2.728
 2157SOL     OW 1800   2.321   3.014   2.603
 2157SOL    HW1 1801   2.250   2.987   2.668
 2157SOL    HW2 1802   2.295   2.986   2.510
 2158SOL     OW 1803   3.133   3.659   2.453
 2158SOL    HW1 1804   3.177   3.723   2.389
 2158SOL    HW2 1805   3.083   3.711   2.523
 2159SOL     OW 1806   2.894   2.411   1.878
 2159SOL    HW1 1807   2.853   2.493   1.839
 2159SOL    HW2 1808   2.958   2.437   1.951
 2160SOL     OW 1809   1.940   2.418   3.248
 2160SOL    HW1 1810   2.032   2.417   3.207
 2160SOL    HW2 1811   1.934   2.492   3.315
 2161SOL     OW 1812   2.423   2.084   3.009
 2161SOL    HW1 1813   2.461   2.000   3.046
 2161SOL    HW2 1814   2.335   2.103   3.053
 2162SOL     OW 1815   2.728   2.316   2.504
 2162SOL    HW1 1816   2.696   2.388   2.442
 2162SOL    HW2 1817   2.752   2.235   2.451
 2163SOL     OW 1818   2.879   1.901   2.615
 2163SOL    HW1 1819   2.807   1.906   2.546
 2163SOL    HW2 1820   2.855   1.832   2.684
 2164SOL     OW 1821   3.291   3.035   2.729
 2164SOL    HW1 1822   3.236   2.951   2.722
 2164SOL    HW2 1823   3.317   3.064   2.637
 2165SOL     OW 1824   3.328   2.452   2.854
 2165SOL    HW1 1825   3.298   2.357   2.861
 2165SOL    HW2 1826   3.401   2.468   2.920
 2166SOL     OW 1827   3.719   2.695   2.239
 2166SOL    HW1 1828   3.761   2.631   2.303
 2166SOL    HW2 1829   3.681   2.644   2.161
 2167SOL     OW 1830   2.350   3.247   2.036
 2167SOL    HW1 1831   2.263   3.232   2.083
 2167SOL    HW2 1832   2.333   3.273   1.941
 2168SOL     OW 1833   3.526   3.142   2.519
 2168SOL    HW1 1834   3.625   3.150   2.533
 2168SOL    HW2 1835   3.481   3.226   2.550
 2169SOL     OW 1836   3.252   2.437   1.940
 2169SOL    HW1 1837   3.198   2.416   2.021
 2169SOL    HW2 1838   3.343   2.396   1.949
 2171SOL     OW 1839   2.926   3.209   3.202
 2171SOL    HW1 1840   2.846   3.186   3.257
 2171SOL    HW2 1841   3.009   3.183   3.251
 2173SOL     OW 1842   2.973   3.057   2.962
 2173SOL    HW1 1843   2.933   3.101   3.043
 2173SOL    HW2 1844   2.932   3.094   2.879
 2174SOL     OW 1845   3.500   2.961   2.941
 2174SOL    HW1 1846   3.505   3.042   3.000
 2174SOL    HW2 1847   3.414   2.963   2.890
 2175SOL     OW 1848   2.777   1.951   3.264
 2175SOL    HW1 1849   2.802   1.931   3.169
 2175SOL    HW2 1850   2.849   2.007   3.306
 2176SOL     OW 1851   2.842   2.978   3.581
 2176SOL    HW1 1852   2.743   2.984   3.591
 2176SOL    HW2 1853   2.865   2.898   3.525
 2177SOL     OW 1854   2.567   2.912   2.230
 2177SOL    HW1 1855   2.553   2.919   2.329
 2177SOL    HW2 1856   2.651   2.861   2.212
 2178SOL     OW 1857   2.272   2.675   3.113
 2178SOL    HW1 1858   2.358   2.687   3.163
 2178SOL    HW2 1859   2.230   2.588   3.140
 2179SOL     OW 1860   3.136   2.248   3.124
 2179SOL    HW1 1861   3.157   2.322   3.188
 2179SOL    HW2 1862   3.047   2.265   3.081
 2180SOL     OW 1863   1.926   3.426   3.193
 2180SOL    HW1 1864   1.880   3.508   3.159
 2180SOL    HW2 1865   2.024   3.445   3.202
 2181SOL     OW 1866   2.229   2.962   2.363
 2181SOL    HW1 1867   2.222   3.045   2.307
 2181SOL    HW2 1868   2.233   2.882   2.303
 2182SOL     OW 1869   2.428   2.399   2.727
 2182SOL    HW1 1870   2.440   2.465   2.653
 2182SOL    HW2 1871   2.474   2.433   2.810
 2183SOL     OW 1872   3.114   3.210   2.250
 2183SOL    HW1 1873   3.164   3.287   2.290
 2183SOL    HW2 1874   3.019   3.212   2.282
 2184SOL     OW 1875   3.134   3.307   3.004
 2184SOL    HW1 1876   3.181   3.320   3.091
 2184SOL    HW2 1877   3.068   3.233   3.013
 2185SOL     OW 1878   3.444   2.501   2.334
 2185SOL    HW1 1879   3.413   2.562   2.407
 2185SOL    HW2 1880   3.494   2.553   2.265
 2186SOL     OW 1881   2.216   3.372   3.191
 2186SOL    HW1 1882   2.195   3.328   3.104
 2186SOL    HW2 1883   2.313   3.398   3.194
 2187SOL     OW 1884   2.264   2.613   3.460
 2187SOL    HW1 1885   2.332   2.668   3.413
 2187SOL    HW2 1886   2.304   2.525   3.487
 2188SOL     OW 1887   3.449   2.641   3.532
 2188SOL    HW1 1888   3.357   2.679   3.527
 2188SOL    HW2 1889   3.509   2.688   3.467
 2189SOL     OW 1890   2.875   1.967   3.632
 2189SOL    HW1 1891   2.881   2.052   3.580
 2189SOL    HW2 1892   2.907   1.891   3.575
 2190SOL     OW 1893   2.366   1.912   3.602
 2190SOL    HW1 1894   2.324   1.855   3.532
 2190SOL    HW2 1895   2.300   1.981   3.634
 2191SOL     OW 1896   2.435   2.732   2.891
 2191SOL    HW1 1897   2.479   2.821   2.882
 2191SOL    HW2 1898   2.372   2.732   2.968
 2192SOL     OW 1899   3.222   2.724   2.907
 2192SOL    HW1 1900   3.147   2.724   2.841
 2192SOL    HW2 1901   3.259   2.632   2.916
 2193SOL     OW 1902   3.071   2.387   2.137
 2193SOL    HW1 1903   3.084   2.303   2.191
 2193SOL    HW2 1904   3.042   2.461   2.197
 2194SOL     OW 1905   2.169   2.075   3.093
 2194SOL    HW1 1906   2.146   2.112   3.183
 2194SOL    HW2 1907   2.139   1.980   3.087
 2195SOL     OW 1908   1.899   3.172   3.144
 2195SOL    HW1 1909   1.952   3.123   3.212
 2195SOL    HW2 1910   1.921   3.270   3.149
 2196SOL     OW 1911   2.594   2.496   2.926
 2196SOL    HW1 1912   2.653   2.470   2.850
 2196SOL    HW2 1913   2.566   2.592   2.915
 2198SOL     OW 1914   2.169   1.925   2.480
 2198SOL    HW1 1915   2.158   2.019   2.513
 2198SOL    HW2 1916   2.164   1.862   2.557
 2199SOL     OW 1917   3.484   2.229   2.236
 2199SOL    HW1 1918   3.486   2.153   2.300
 2199SOL    HW2 1919   3.436   2.306   2.276
 2200SOL     OW 1920   2.885   2.628   2.828
 2200SOL    HW1 1921   2.900   2.649   2.924
 2200SOL    HW2 1922   2.855   2.533   2.819
 2201SOL     OW 1923   2.842   3.435   3.562
 2201SOL    HW1 1924   2.822   3.479   3.474
 2201SOL    HW2 1925   2.881   3.344   3.546
 2203SOL     OW 1926   2.212   2.760   3.666
 2203SOL    HW1 1927   2.288   2.804   3.714
 2203SOL    HW2 1928   2.247   2.713   3.584
 2204SOL     OW 1929   3.402   2.136   1.987
 2204SOL    HW1 1930   3.341   2.061   2.010
 2204SOL    HW2 1931   3.424   2.188   2.070
 2205SOL     OW 1932   3.165   2.700   1.904
 2205SOL    HW1 1933   3.199   2.607   1.919
 2205SOL    HW2 1934   3.183   2.727   1.809
 2206SOL     OW 1935   2.930   3.195   2.711
 2206SOL    HW1 1936   2.937   3.111   2.656
 2206SOL    HW2 1937   2.992   3.264   2.675
 2207SOL     OW 1938   2.181   2.672   2.811
 2207SOL    HW1 1939   2.274   2.708   2.816
 2207SOL    HW2 1940   2.175   2.587   2.863
 2208SOL     OW 1941   2.201   2.371   2.868
 2208SOL    HW1 1942   2.149   2.288   2.851
 2208SOL    HW2 1943   2.278   2.376   2.804
 2209SOL     OW 1944   3.000   2.242   3.540
 2209SOL    HW1 1945   2.955   2.305   3.604
 2209SOL    HW2 1946   3.093   2.273   3.523
 2210SOL     OW 1947   3.022   2.069   3.339
 2210SOL    HW1 1948   3.022   2.133   3.416
 2210SOL    HW2 1949   3.050   2.117   3.256
 2211SOL     OW 1950   1.870   3.188   2.062
 2211SOL    HW1 1951   1.777   3.209   2.031
 2211SOL    HW2 1952   1.880   3.089   2.075
 2212SOL     OW 1953   1.950   3.663   2.789
 2212SOL    HW1 1954   1.908   3.577   2.762
 2212SOL    HW2 1955   2.044   3.666   2.755
 2213SOL     OW 1956   2.366   3.430   2.772
 2213SOL    HW1 1957   2.432   3.504   2.781
 2213SOL    HW2 1958   2.410   3.351   2.730
 2214SOL     OW 1959   2.864   2.658   3.100
 2214SOL    HW1 1960   2.905   2.626   3.186
 2214SOL    HW2 1961   2.768   2.631   3.097
 2215SOL     OW 1962   1.902   2.406   2.976
 2215SOL    HW1 1963   1.987   2.373   2.935
 2215SOL    HW2 1964   1.915   2.421   3.074
 2216SOL     OW 1965   2.051   2.382   3.584
 2216SOL    HW1 1966   2.110   2.342   3.514
 2216SOL    HW2 1967   1.993   2.453   3.543
 2217SOL     OW 1968   3.231   2.812   3.522
 2217SOL    HW1 1969   3.270   2.901   3.542
 2217SOL    HW2 1970   3.241   2.792   3.425
 2218SOL     OW 1971   2.677   2.434   2.187
 2218SOL    HW1 1972   2.684   2.345   2.141
 2218SOL    HW2 1973   2.583   2.468   2.179
 2219SOL     OW 1974   3.519   2.466   3.068
 2219SOL    HW1 1975   3.481   2.397   3.130
 2219SOL    HW2 1976   3.601   2.430   3.024
 2220SOL     OW 1977   2.114   3.426   3.606
 2220SOL    HW1 1978   2.084   3.483   3.682
 2220SOL    HW2 1979   2.107   3.329   3.632
 2221SOL     OW 1980   2.533   2.326   3.131
 2221SOL    HW1 1981   2.499   2.237   3.101
 2221SOL    HW2 1982   2.559   2.380   3.051
 2222SOL     OW 1983   2.792   3.540   3.327
 2222SOL    HW1 1984   2.768   3.522   3.232
 2222SOL    HW2 1985   2.822   3.634   3.337
 2223SOL     OW 1986   2.021   2.999   3.328
 2223SOL    HW1 1987   2.043   2.938   3.404
 2223SOL    HW2 1988   2.031   2.950   3.242
 2224SOL     OW 1989   3.209   2.921   3.096
 2224SOL    HW1 1990   3.233   2.858   3.022
 2224SOL    HW2 1991   3.119   2.961   3.078
 2225SOL     OW 1992   3.164   2.717   2.171
 2225SOL    HW1 1993   3.078   2.686   2.213
 2225SOL    HW2 1994   3.160   2.703   2.072
 2227SOL     OW 1995   3.114   3.593   2.990
 2227SOL    HW1 1996   3.198   3.598   2.936
 2227SOL    HW2 1997   3.091   3.497   3.008
 2228SOL     OW 1998   1.945   3.120   2.884
 2228SOL    HW1 1999   1.940   3.119   2.984
 2228SOL    HW2 2000   1.862   3.079   2.846
 2229SOL     OW 2001   2.550   3.524   3.578
 2229SOL    HW1 2002   2.494   3.605   3.587
 2229SOL    HW2 2003   2.602   3.528   3.492
 2230SOL     OW 2004   3.588   1.997   2.385
 2230SOL    HW1 2005   3.661   1.980   2.318
 2230SOL    HW2 2006   3.557   1.910   2.423
 2231SOL     OW 2007   3.250   3.435   2.339
 2231SOL    HW1 2008   3.317   3.447   2.265
 2231SOL    HW2 2009   3.210   3.524   2.362
 2233SOL     OW 2010   3.142   2.789   2.534
 2233SOL    HW1 2011   3.202   2.708   2.536
 2233SOL    HW2 2012   3.182   2.858   2.474
 2234SOL     OW 2013   2.692   3.135   3.284
 2234SOL    HW1 2014   2.687   3.168   3.379
 2234SOL    HW2 2015   2.606   3.154   3.238
 2235SOL     OW 2016   2.534   3.478   2.016
 2235SOL    HW1 2017   2.543   3.488   1.917
 2235SOL    HW2 2018   2.494   3.389   2.037
 2237SOL     OW 2019   3.703   2.037   2.825
 2237SOL    HW1 2020   3.742   1.952   2.789
 2237SOL    HW2 2021   3.605   2.039   2.806
 2238SOL     OW 2022   2.125   2.188   2.582
 2238SOL    HW1 2023   2.046   2.239   2.548
 2238SOL    HW2 2024   2.116   2.173   2.680
 2239SOL     OW 2025   3.056   3.474   1.893
 2239SOL    HW1 2026   3.062   3.381   1.930
 2239SOL    HW2 2027   2.997   3.474   1.813
 2240SOL     OW 2028   2.684   2.864   3.234
 2240SOL    HW1 2029   2.724   2.863   3.142
 2240SOL    HW2 2030   2.694   2.956   3.274
 2241SOL     OW 2031   2.778   2.772   2.153
 2241SOL    HW1 2032   2.841   2.810   2.085
 2241SOL    HW2 2033   2.818   2.689   2.192
 2242SOL     OW 2034   3.366   3.469   1.906
 2242SOL    HW1 2035   3.274   3.506   1.913
 2242SOL    HW2 2036   3.404   3.489   1.816
 2243SOL     OW 2037   2.234   3.150   3.352
 2243SOL    HW1 2038   2.221   3.243   3.318
 2243SOL    HW2 2039   2.150   3.098   3.339
 2244SOL     OW 2040   3.476   3.154   3.151
 2244SOL    HW1 2041   3.536   3.157   3.231
 2244SOL    HW2 2042   3.401   3.218   3.164
 2245SOL     OW 2043   2.901   2.960   2.558
 2245SOL    HW1 2044   2.831   2.913   2.612
 2245SOL    HW2 2045   2.960   2.892   2.515
 2246SOL     OW 2046   2.876   2.098   2.833
 2246SOL    HW1 2047   2.868   2.062   2.740
 2246SOL    HW2 2048   2.874   2.022   2.898
 2247SOL     OW 2049   2.452   3.349   2.353
 2247SOL    HW1 2050   2.494   3.291   2.283
 2247SOL    HW2 2051   2.408   3.428   2.309
 2248SOL     OW 2052   3.571   2.247   3.243
 2248SOL    HW1 2053   3.644   2.316   3.247
 2248SOL    HW2 2054   3.599   2.172   3.184
 2249SOL     OW 2055   2.117   3.210   2.152
 2249SOL    HW1 2056   2.021   3.211   2.125
 2249SOL    HW2 2057   2.129   3.263   2.236
 2250SOL     OW 2058   1.967   2.875   3.588
 2250SOL    HW1 2059   1.890   2.842   3.642
 2250SOL    HW2 2060   2.052   2.845   3.630
 2251SOL     OW 2061   2.534   2.065   3.351
 2251SOL    HW1 2062   2.624   2.049   3.311
 2251SOL    HW2 2063   2.542   2.070   3.450
 2252SOL     OW 2064   1.937   2.207   1.895
 2252SOL    HW1 2065   1.845   2.179   1.866
 2252SOL    HW2 2066   1.968   2.284   1.839
 2253SOL     OW 2067   3.302   2.718   3.260
 2253SOL    HW1 2068   3.245   2.770   3.197
 2253SOL    HW2 2069   3.398   2.730   3.236
 2254SOL     OW 2070   1.934   2.028   2.180
 2254SOL    HW1 2071   1.917   2.111   2.126
 2254SOL    HW2 2072   2.024   1.991   2.158
 2255SOL     OW 2073   3.045   3.197   1.981
 2255SOL    HW1 2074   2.946   3.186   1.983
 2255SOL    HW2 2075   3.079   3.212   2.074
 2256SOL     OW 2076   2.475   2.704   3.293
 2256SOL    HW1 2077   2.531   2.785   3.276
 2256SOL    HW2 2078   2.534   2.624   3.296
 2257SOL     OW 2079   3.355   3.629   2.821
 2257SOL    HW1 2080   3.388   3.693   2.752
 2257SOL    HW2 2081   3.421   3.623   2.896
 2258SOL     OW 2082   2.578   2.427   3.570
 2258SOL    HW1 2083   2.597   2.492   3.644
 2258SOL    HW2 2084   2.638   2.347   3.579
 2259SOL     OW 2085   3.312   3.082   3.495
 2259SOL    HW1 2086   3.303   3.072   3.594
 2259SOL    HW2 2087   3.408   3.075   3.469
 2260SOL     OW 2088   2.252   3.603   3.422
 2260SOL    HW1 2089   2.161   3.644   3.420
 2260SOL    HW2 2090   2.245   3.509   3.454
 2261SOL     OW 2091   3.536   2.745   3.116
 2261SOL    HW1 2092   3.509   2.656   3.079
 2261SOL    HW2 2093   3.537   2.813   3.043
 2262SOL     OW 2094   3.087   2.187   2.311
 2262SOL    HW1 2095   3.152   2.113   2.300
 2262SOL    HW2 2096   3.107   2.237   2.395
 2263SOL     OW 2097   2.456   2.607   2.514
 2263SOL    HW1 2098   2.506   2.692   2.495
 2263SOL    HW2 2099   2.368   2.609   2.466
 2264SOL     OW 2100   3.639   2.204   3.504
 2264SOL    HW1 2101   3.622   2.235   3.410
 2264SOL    HW2 2102   3.555   2.167   3.542
 2265SOL     OW 2103   3.592   2.796   3.379
 2265SOL    HW1 2104   3.630   2.887   3.394
 2265SOL    HW2 2105   3.584   2.779   3.280
 2266SOL     OW 2106   2.721   3.236   1.878
 2266SOL    HW1 2107   2.675   3.251   1.966
 2266SOL    HW2 2108   2.765   3.321   1.848
 2267SOL     OW 2109   2.523   3.652   2.815
 2267SOL    HW1 2110   2.477   3.740   2.802
 2267SOL    HW2 2111   2.622   3.664   2.808
 2268SOL     OW 2112   2.721   2.818   2.723
 2268SOL    HW1 2113   2.775   2.749   2.771
 2268SOL    HW2 2114   2.689   2.887   2.789
 2269SOL     OW 2115   2.945   2.846   1.949
 2269SOL    HW1 2116   2.922   2.899   1.867
 2269SOL    HW2 2117   3.026   2.790   1.930
 2270SOL     OW 2118   3.723   3.431   2.713
 2270SOL    HW1 2119   3.652   3.419   2.643
 2270SOL    HW2 2120   3.724   3.352   2.773
 2271SOL     OW 2121   2.083   3.176   3.706
 2271SOL    HW1 2122   2.018   3.103   3.685
 2271SOL    HW2 2123   2.087   3.190   3.804
 2272SOL     OW 2124   1.941   3.102   2.515
 2272SOL    HW1 2125   1.940   3.055   2.603
 2272SOL    HW2 2126   2.023   3.074   2.464
 2273SOL     OW 2127   2.534   3.253   3.486
 2273SOL    HW1 2128   2.456   3.203   3.524
 2273SOL    HW2 2129   2.531   3.348   3.517
 2274SOL     OW 2130   3.686   2.054   3.089
 2274SOL    HW1 2131   3.682   1.964   3.133
 2274SOL    HW2 2132   3.689   2.043   2.990
 2275SOL     OW 2133   3.567   3.349   2.966
 2275SOL    HW1 2134   3.474   3.324   2.939
 2275SOL    HW2 2135   3.593   3.299   3.048
 2276SOL     OW 2136   2.179   2.409   3.142
 2276SOL    HW1 2137   2.217   2.350   3.214
 2276SOL    HW2 2138   2.219   2.383   3.054
 2277SOL     OW 2139   2.674   3.448   2.549
 2277SOL    HW1 2140   2.706   3.458   2.455
 2277SOL    HW2 2141   2.595   3.386   2.551
 2278SOL     OW 2142   3.286   2.076   2.974
 2278SOL    HW1 2143   3.338   2.011   3.029
 2278SOL    HW2 2144   3.237   2.139   3.035
 2279SOL     OW 2145   2.863   1.896   3.016
 2279SOL    HW1 2146   2.800   1.824   2.985
 2279SOL    HW2 2147   2.956   1.860   3.016
 2280SOL     OW 2148   2.632   3.192   2.163
 2280SOL    HW1 2149   2.586   3.105   2.180
 2280SOL    HW2 2150   2.723   3.189   2.204
 2281SOL     OW 2151   2.480   3.429   3.146
 2281SOL    HW1 2152   2.475   3.511   3.203
 2281SOL    HW2 2153   2.569   3.426   3.101
 2282SOL     OW 2154   3.214   1.914   2.030
 2282SOL    HW1 2155   3.249   1.873   1.946
 2282SOL    HW2 2156   3.124   1.876   2.050
 2283SOL     OW 2157   3.162   2.315   2.553
 2283SOL    HW1 2158   3.103   2.395   2.557
 2283SOL    HW2 2159   3.177   2.280   2.646
 2284SOL     OW 2160   3.455   2.083   2.744
 2284SOL    HW1 2161   3.371   2.082   2.798
 2284SOL    HW2 2162   3.457   2.166   2.688
 2285SOL     OW 2163   1.901   2.939   2.162
 2285SOL    HW1 2164   2.000   2.928   2.153
 2285SOL    HW2 2165   1.861   2.853   2.194
 2286SOL     OW 2166   2.737   3.508   2.199
 2286SOL    HW1 2167   2.660   3.473   2.145
 2286SOL    HW2 2168   2.705   3.579   2.261
 2287SOL     OW 2169   2.092   2.490   3.837
 2287SOL    HW1 2170   1.999   2.488   3.874
 2287SOL    HW2 2171   2.093   2.451   3.745
 2298SOL     OW 2172   2.468   2.826   3.847
 2298SOL    HW1 2173   2.475   2.910   3.793
 2298SOL    HW2 2174   2.514   2.839   3.935
 2309SOL     OW 2175   2.460   2.591   3.994
 2309SOL    HW1 2176   2.484   2.660   3.926
 2309SOL    HW2 2177   2.382   2.624   4.048
 2314SOL     OW 2178   2.727   2.210   3.919
 2314SOL    HW1 2179   2.786   2.273   3.870
 2314SOL    HW2 2180   2.746   2.116   3.890
 2320SOL     OW 2181   2.183   2.805   3.966
 2320SOL    HW1 2182   2.265   2.844   3.924
 2320SOL    HW2 2183   2.156   2.723   3.917
 2327SOL     OW 2184   2.476   1.984   3.841
 2327SOL    HW1 2185   2.574   1.962   3.848
 2327SOL    HW2 2186   2.445   1.967   3.748
 2330SOL     OW 2187   2.159   1.897   3.895
 2330SOL    HW1 2188   2.208   1.981   3.874
 2330SOL    HW2 2189   2.221   1.832   3.940
 2335SOL     OW 2190   2.894   2.411   3.740
 2335SOL    HW1 2191   2.853   2.493   3.701
 2335SOL    HW2 2192   2.958   2.437   3.813
 2339SOL     OW 2193   2.350   3.247   3.898
 2339SOL    HW1 2194   2.263   3.232   3.945
 2339SOL    HW2 2195   2.333   3.273   3.803
 2341SOL     OW 2196   3.252   2.437   3.802
 2341SOL    HW1 2197   3.198   2.416   3.883
 2341SOL    HW2 2198   3.343   2.396   3.811
 2342SOL     OW 2199   2.389   2.118   4.052
 2342SOL    HW1 2200   2.416   2.059   3.977
 2342SOL    HW2 2201   2.389   2.213   4.021
 2348SOL     OW 2202   3.071   2.387   3.999
 2348SOL    HW1 2203   3.084   2.303   4.053
 2348SOL    HW2 2204   3.042   2.461   4.059
 2353SOL     OW 2205   3.165   2.700   3.766
 2353SOL    HW1 2206   3.199   2.607   3.781
 2353SOL    HW2 2207   3.183   2.727   3.671
 2359SOL     OW 2208   2.677   2.434   4.049
 2359SOL    HW1 2209   2.684   2.345   4.003
 2359SOL    HW2 2210   2.583   2.468   4.041
 2360SOL     OW 2211   2.335   2.362   3.915
 2360SOL    HW1 2212   2.396   2.442   3.919
 2360SOL    HW2 2213   2.240   2.393   3.922
 2370SOL     OW 2214   2.778   2.772   4.015
 2370SOL    HW1 2215   2.841   2.810   3.947
 2370SOL    HW2 2216   2.818   2.689   4.054
 2375SOL     OW 2217   1.937   2.207   3.757
 2375SOL    HW1 2218   1.845   2.179   3.728
 2375SOL    HW2 2219   1.968   2.284   3.701
 2376SOL     OW 2220   1.934   2.028   4.042
 2376SOL    HW1 2221   1.917   2.111   3.988
 2376SOL    HW2 2222   2.024   1.991   4.020
 2381SOL     OW 2223   2.721   3.236   3.740
 2381SOL    HW1 2224   2.675   3.251   3.828
 2381SOL    HW2 2225   2.765   3.321   3.710
 2384SOL     OW 2226   2.945   2.846   3.811
 2384SOL    HW1 2227   2.922   2.899   3.729
 2384SOL    HW2 2228   3.026   2.790   3.792
 2409SOL     OW 2229   2.179   3.975   1.801
 2409SOL    HW1 2230   2.250   4.046   1.807
 2409SOL    HW2 2231   2.091   4.014   1.829
 2426SOL     OW 2232   2.643   3.988   1.749
 2426SOL    HW1 2233   2.710   3.927   1.792
 2426SOL    HW2 2234   2.570   4.007   1.814
 2443SOL     OW 2235   2.777   3.813   1.402
 2443SOL    HW1 2236   2.802   3.793   1.307
 2443SOL    HW2 2237   2.849   3.869   1.444
 2450SOL     OW 2238   2.875   3.829   1.770
 2450SOL    HW1 2239   2.881   3.914   1.718
 2450SOL    HW2 2240   2.907   3.753   1.713
 2451SOL     OW 2241   2.366   3.774   1.740
 2451SOL    HW1 2242   2.324   3.717   1.670
 2451SOL    HW2 2243   2.300   3.843   1.772
 2504SOL     OW 2244   2.087   3.999   2.858
 2504SOL    HW1 2245   2.122   3.982   2.950
 2504SOL    HW2 2246   1.999   3.954   2.846
 2515SOL     OW 2247   2.671   3.728   2.364
 2515SOL    HW1 2248   2.711   3.819   2.355
 2515SOL    HW2 2249   2.571   3.736   2.370
 2526SOL     OW 2250   2.727   4.072   2.057
 2526SOL    HW1 2251   2.786   4.135   2.008
 2526SOL    HW2 2252   2.746   3.978   2.028
 2528SOL     OW 2253   2.412   3.920   2.747
 2528SOL    HW1 2254   2.407   3.915   2.847
 2528SOL    HW2 2255   2.414   4.016   2.718
 2531SOL     OW 2256   3.262   3.831   2.288
 2531SOL    HW1 2257   3.238   3.794   2.198
 2531SOL    HW2 2258   3.361   3.847   2.292
 2534SOL     OW 2259   2.476   3.846   1.979
 2534SOL    HW1 2260   2.574   3.824   1.986
 2534SOL    HW2 2261   2.445   3.829   1.886
 2538SOL     OW 2262   2.401   3.788   2.374
 2538SOL    HW1 2263   2.320   3.789   2.432
 2538SOL    HW2 2264   2.404   3.871   2.319
 2539SOL     OW 2265   2.159   3.759   2.033
 2539SOL    HW1 2266   2.208   3.843   2.012
 2539SOL    HW2 2267   2.221   3.694   2.078
 2540SOL     OW 2268   2.797   3.960   2.342
 2540SOL    HW1 2269   2.749   4.001   2.264
 2540SOL    HW2 2270   2.896   3.958   2.323
 2544SOL     OW 2271   2.423   3.946   3.009
 2544SOL    HW1 2272   2.461   3.862   3.046
 2544SOL    HW2 2273   2.335   3.965   3.053
 2546SOL     OW 2274   2.879   3.763   2.615
 2546SOL    HW1 2275   2.807   3.768   2.546
 2546SOL    HW2 2276   2.855   3.694   2.684
 2550SOL     OW 2277   2.389   3.980   2.190
 2550SOL    HW1 2278   2.416   3.921   2.115
 2550SOL    HW2 2279   2.389   4.075   2.159
 2552SOL     OW 2280   2.777   3.813   3.264
 2552SOL    HW1 2281   2.802   3.793   3.169
 2552SOL    HW2 2282   2.849   3.869   3.306
 2564SOL     OW 2283   2.169   3.937   3.093
 2564SOL    HW1 2284   2.146   3.974   3.183
 2564SOL    HW2 2285   2.139   3.842   3.087
 2567SOL     OW 2286   2.169   3.787   2.480
 2567SOL    HW1 2287   2.158   3.881   2.513
 2567SOL    HW2 2288   2.164   3.724   2.557
 2589SOL     OW 2289   2.125   4.050   2.582
 2589SOL    HW1 2290   2.046   4.101   2.548
 2589SOL    HW2 2291   2.116   4.035   2.680
 2591SOL     OW 2292   2.876   3.960   2.833
 2591SOL    HW1 2293   2.868   3.924   2.740
 2591SOL    HW2 2294   2.874   3.884   2.898
 2597SOL     OW 2295   1.934   3.890   2.180
 2597SOL    HW1 2296   1.917   3.973   2.126
 2597SOL    HW2 2297   2.024   3.853   2.158
 2606SOL     OW 2298   2.290   4.148   2.382
 2606SOL    HW1 2299   2.320   4.076   2.320
 2606SOL    HW2 2300   2.251   4.108   2.465
 2609SOL     OW 2301   2.863   3.758   3.016
 2609SOL    HW1 2302   2.800   3.686   2.985
 2609SOL    HW2 2303   2.956   3.722   3.016
 2610SOL     OW 2304   3.214   3.776   2.030
 2610SOL    HW1 2305   3.249   3.735   1.946
 2610SOL    HW2 2306   3.124   3.738   2.050
 2694SOL     OW 2307   3.854   1.821   1.571
 2694SOL    HW1 2308   3.844   1.806   1.670
 2694SOL    HW2 2309   3.768   1.857   1.535
 2750SOL     OW 2310   3.854   1.794   1.851
 2750SOL    HW1 2311   3.813   1.720   1.904
 2750SOL    HW2 2312   3.918   1.845   1.909
 2790SOL     OW 2313   3.955   1.713   2.345
 2790SOL    HW1 2314   3.989   1.790   2.399
 2790SOL    HW2 2315   3.999   1.713   2.255
 2796SOL     OW 2316   3.751   1.596   1.979
 2796SOL    HW1 2317   3.732   1.500   2.000
 2796SOL    HW2 2318   3.718   1.654   2.054
 2849SOL     OW 2319   3.732   1.326   2.062
 2849SOL    HW1 2320   3.639   1.347   2.031
 2849SOL    HW2 2321   3.742   1.227   2.075
 2850SOL     OW 2322   3.812   1.801   2.789
 2850SOL    HW1 2323   3.770   1.715   2.762
 2850SOL    HW2 2324   3.906   1.804   2.755
 2968SOL     OW 2325   3.837   2.599   1.597
 2968SOL    HW1 2326   3.925   2.586   1.642
 2968SOL    HW2 2327   3.824   2.696   1.575
 2972SOL     OW 2328   4.041   2.113   1.801
 2972SOL    HW1 2329   4.112   2.184   1.807
 2972SOL    HW2 2330   3.953   2.152   1.829
 2995SOL     OW 2331   3.802   2.418   1.386
 2995SOL    HW1 2332   3.894   2.417   1.345
 2995SOL    HW2 2333   3.796   2.492   1.453
 3023SOL     OW 2334   3.913   2.382   1.722
 3023SOL    HW1 2335   3.972   2.342   1.652
 3023SOL    HW2 2336   3.855   2.453   1.681
 3041SOL     OW 2337   3.829   2.875   1.726
 3041SOL    HW1 2338   3.752   2.842   1.780
 3041SOL    HW2 2339   3.914   2.845   1.768
 3063SOL     OW 2340   3.954   2.490   1.975
 3063SOL    HW1 2341   3.861   2.488   2.012
 3063SOL    HW2 2342   3.955   2.451   1.883
 3064SOL     OW 2343   3.949   2.137   2.858
 3064SOL    HW1 2344   3.984   2.120   2.950
 3064SOL    HW2 2345   3.861   2.092   2.846
 3065SOL     OW 2346   3.743   2.230   2.509
 3065SOL    HW1 2347   3.661   2.273   2.548
 3065SOL    HW2 2348   3.715   2.157   2.446
 3075SOL     OW 2349   3.964   2.953   2.748
 3075SOL    HW1 2350   3.978   2.869   2.800
 3075SOL    HW2 2351   3.909   3.017   2.803
 3078SOL     OW 2352   3.846   2.505   2.425
 3078SOL    HW1 2353   3.801   2.417   2.442
 3078SOL    HW2 2354   3.845   2.559   2.509
 3088SOL     OW 2355   3.800   2.673   2.651
 3088SOL    HW1 2356   3.899   2.661   2.660
 3088SOL    HW2 2357   3.776   2.768   2.672
 3094SOL     OW 2358   4.045   2.805   2.104
 3094SOL    HW1 2359   4.127   2.844   2.062
 3094SOL    HW2 2360   4.018   2.723   2.055
 3099SOL     OW 2361   4.106   2.562   2.342
 3099SOL    HW1 2362   4.151   2.472   2.339
 3099SOL    HW2 2363   4.012   2.551   2.375
 3105SOL     OW 2364   4.021   1.897   2.033
 3105SOL    HW1 2365   4.070   1.981   2.012
 3105SOL    HW2 2366   4.083   1.832   2.078
 3108SOL     OW 2367   3.802   2.418   3.248
 3108SOL    HW1 2368   3.894   2.417   3.207
 3108SOL    HW2 2369   3.796   2.492   3.315
 3126SOL     OW 2370   4.031   1.925   2.480
 3126SOL    HW1 2371   4.020   2.019   2.513
 3126SOL    HW2 2372   4.026   1.862   2.557
 3130SOL     OW 2373   4.043   2.672   2.811
 3130SOL    HW1 2374   4.136   2.708   2.816
 3130SOL    HW2 2375   4.037   2.587   2.863
 3131SOL     OW 2376   4.063   2.371   2.868
 3131SOL    HW1 2377   4.011   2.288   2.851
 3131SOL    HW2 2378   4.140   2.376   2.804
 3132SOL     OW 2379   3.732   3.188   2.062
 3132SOL    HW1 2380   3.639   3.209   2.031
 3132SOL    HW2 2381   3.742   3.089   2.075
 3135SOL     OW 2382   3.764   2.406   2.976
 3135SOL    HW1 2383   3.849   2.373   2.935
 3135SOL    HW2 2384   3.777   2.421   3.074
 3142SOL     OW 2385   3.807   3.120   2.884
 3142SOL    HW1 2386   3.802   3.119   2.984
 3142SOL    HW2 2387   3.724   3.079   2.846
 3148SOL     OW 2388   3.987   2.188   2.582
 3148SOL    HW1 2389   3.908   2.239   2.548
 3148SOL    HW2 2390   3.978   2.173   2.680
 3155SOL     OW 2391   3.799   2.207   1.895
 3155SOL    HW1 2392   3.707   2.179   1.866
 3155SOL    HW2 2393   3.830   2.284   1.839
 3156SOL     OW 2394   3.796   2.028   2.180
 3156SOL    HW1 2395   3.779   2.111   2.126
 3156SOL    HW2 2396   3.886   1.991   2.158
 3165SOL     OW 2397   3.803   3.102   2.515
 3165SOL    HW1 2398   3.802   3.055   2.603
 3165SOL    HW2 2399   3.885   3.074   2.464
 3173SOL     OW 2400   3.763   2.939   2.162
 3173SOL    HW1 2401   3.862   2.928   2.153
 3173SOL    HW2 2402   3.723   2.853   2.194
   4.70538   4.70538   4.70538
