; mobley_7732703_GMX.itp created by acpype (v: 2023.10.27) on Thu May 21 00:12:36 2026

[ atomtypes ]
;name   bond_type     mass     charge   ptype   sigma         epsilon       Amb
 c3       c3          0.00000  0.00000   A     3.39771e-01   4.51035e-01 ; 1.91  0.1078
 f        f           0.00000  0.00000   A     3.03422e-01   3.48109e-01 ; 1.70  0.0832
 br       br          0.00000  0.00000   A     3.61259e-01   1.64515e+00 ; 2.03  0.3932

[ moleculetype ]
;name            nrexcl
 mobley_7732703   3

[ atoms ]
;   nr  type  resi  res  atom  cgnr     charge      mass       ; qtot   bond_type
     1   c3     1   MOL    C1    1     0.706300     12.01000 ; qtot 0.706
     2    f     1   MOL    F1    2    -0.207300     19.00000 ; qtot 0.499
     3    f     1   MOL    F2    3    -0.207300     19.00000 ; qtot 0.292
     4    f     1   MOL    F3    4    -0.207300     19.00000 ; qtot 0.084
     5   br     1   MOL   BR1    5    -0.084400     79.90000 ; qtot 0.000

[ bonds ]
;   ai     aj funct   r             k
     1      2   1    1.3512e-01    2.7973e+05 ;     C1 - F1    
     1      3   1    1.3512e-01    2.7973e+05 ;     C1 - F2    
     1      4   1    1.3512e-01    2.7973e+05 ;     C1 - F3    
     1      5   1    1.9805e-01    1.0319e+05 ;     C1 - BR1   

[ angles ]
;   ai     aj     ak    funct   theta         cth
     2      1      3      1    1.0737e+02    8.9437e+02 ;     F1 - C1     - F2    
     2      1      4      1    1.0737e+02    8.9437e+02 ;     F1 - C1     - F3    
     2      1      5      1    1.0962e+02    6.4358e+02 ;     F1 - C1     - BR1   
     3      1      4      1    1.0737e+02    8.9437e+02 ;     F2 - C1     - F3    
     3      1      5      1    1.0962e+02    6.4358e+02 ;     F2 - C1     - BR1   
     4      1      5      1    1.0962e+02    6.4358e+02 ;     F3 - C1     - BR1   
