mobley_1019269_GMX.gro created by acpype (v: 2023.10.27) on Thu May 21 00:12:34 2026
 2418
    1MOL     C1    1   2.477   2.395   2.276
    1MOL     C2    2   2.379   2.298   2.339
    1MOL     C3    3   2.244   2.301   2.268
    1MOL     C4    4   2.147   2.200   2.328
    1MOL     O1    5   2.024   2.207   2.257
    1MOL     H1    6   2.495   2.370   2.171
    1MOL     H2    7   2.440   2.497   2.281
    1MOL     H3    8   2.574   2.391   2.328
    1MOL     H4    9   2.421   2.196   2.335
    1MOL     H5   10   2.366   2.323   2.445
    1MOL     H6   11   2.200   2.401   2.274
    1MOL     H7   12   2.257   2.279   2.161
    1MOL     H8   13   2.186   2.099   2.321
    1MOL     H9   14   2.127   2.223   2.434
    1MOL    H10   15   2.046   2.206   2.163
   14SOL     OW   16   1.460   1.505   1.339
   14SOL    HW1   17   1.484   1.599   1.365
   14SOL    HW2   18   1.444   1.451   1.421
   18SOL     OW   19   1.127   1.341   1.690
   18SOL    HW1   20   1.174   1.341   1.778
   18SOL    HW2   21   1.079   1.254   1.679
   31SOL     OW   22   1.293   1.228   1.423
   31SOL    HW1   23   1.330   1.155   1.365
   31SOL    HW2   24   1.345   1.233   1.508
   35SOL     OW   25   1.187   1.792   1.616
   35SOL    HW1   26   1.211   1.852   1.540
   35SOL    HW2   27   1.194   1.697   1.586
   56SOL     OW   28   1.227   1.550   1.506
   56SOL    HW1   29   1.233   1.473   1.570
   56SOL    HW2   30   1.175   1.524   1.426
   95SOL     OW   31   1.754   1.223   1.588
   95SOL    HW1   32   1.845   1.184   1.575
   95SOL    HW2   33   1.762   1.319   1.612
   97SOL     OW   34   1.592   1.629   1.625
   97SOL    HW1   35   1.619   1.663   1.535
   97SOL    HW2   36   1.671   1.591   1.671
  109SOL     OW   37   1.272   1.445   1.142
  109SOL    HW1   38   1.319   1.458   1.229
  109SOL    HW2   39   1.206   1.371   1.151
  113SOL     OW   40   1.587   0.779   1.670
  113SOL    HW1   41   1.495   0.817   1.665
  113SOL    HW2   42   1.647   0.826   1.605
  122SOL     OW   43   1.728   0.935   1.854
  122SOL    HW1   44   1.682   0.928   1.765
  122SOL    HW2   45   1.666   0.979   1.920
  126SOL     OW   46   0.980   1.573   1.700
  126SOL    HW1   47   0.960   1.617   1.612
  126SOL    HW2   48   1.019   1.482   1.684
  127SOL     OW   49   1.859   1.518   1.605
  127SOL    HW1   50   1.873   1.545   1.510
  127SOL    HW2   51   1.942   1.540   1.658
  142SOL     OW   52   1.369   0.950   1.660
  142SOL    HW1   53   1.408   1.039   1.680
  142SOL    HW2   54   1.379   0.930   1.563
  147SOL     OW   55   0.930   1.678   1.465
  147SOL    HW1   56   0.906   1.660   1.370
  147SOL    HW2   57   0.960   1.772   1.475
  152SOL     OW   58   1.759   1.747   1.154
  152SOL    HW1   59   1.820   1.777   1.081
  152SOL    HW2   60   1.721   1.658   1.132
  153SOL     OW   61   1.252   1.731   1.128
  153SOL    HW1   62   1.336   1.736   1.074
  153SOL    HW2   63   1.229   1.635   1.146
  163SOL     OW   64   1.650   1.720   1.394
  163SOL    HW1   65   1.703   1.730   1.310
  163SOL    HW2   66   1.623   1.810   1.428
  171SOL     OW   67   1.614   1.292   1.289
  171SOL    HW1   68   1.674   1.295   1.369
  171SOL    HW2   69   1.539   1.356   1.302
  184SOL     OW   70   1.493   1.767   0.959
  184SOL    HW1   71   1.526   1.831   0.890
  184SOL    HW2   72   1.559   1.761   1.034
  186SOL     OW   73   1.450   1.220   1.633
  186SOL    HW1   74   1.441   1.210   1.732
  186SOL    HW2   75   1.546   1.213   1.607
  192SOL     OW   76   1.730   0.934   1.517
  192SOL    HW1   77   1.768   1.025   1.532
  192SOL    HW2   78   1.722   0.917   1.418
  197SOL     OW   79   1.861   1.569   0.851
  197SOL    HW1   80   1.790   1.557   0.781
  197SOL    HW2   81   1.862   1.490   0.911
  203SOL     OW   82   1.705   1.487   1.104
  203SOL    HW1   83   1.612   1.462   1.077
  203SOL    HW2   84   1.731   1.437   1.186
  219SOL     OW   85   1.555   1.511   2.565
  219SOL    HW1   86   1.498   1.495   2.646
  219SOL    HW2   87   1.496   1.521   2.485
  221SOL     OW   88   1.755   0.607   2.093
  221SOL    HW1   89   1.743   0.594   1.994
  221SOL    HW2   90   1.725   0.526   2.142
  227SOL     OW   91   1.460   1.505   3.201
  227SOL    HW1   92   1.484   1.599   3.227
  227SOL    HW2   93   1.444   1.451   3.283
  238SOL     OW   94   1.842   1.767   2.221
  238SOL    HW1   95   1.896   1.738   2.301
  238SOL    HW2   96   1.872   1.857   2.192
  240SOL     OW   97   1.689   0.922   2.474
  240SOL    HW1   98   1.784   0.893   2.482
  240SOL    HW2   99   1.681   0.987   2.399
  241SOL     OW  100   1.641   1.108   2.294
  241SOL    HW1  101   1.727   1.110   2.242
  241SOL    HW2  102   1.655   1.155   2.382
  244SOL     OW  103   1.293   1.228   3.285
  244SOL    HW1  104   1.330   1.155   3.227
  244SOL    HW2  105   1.345   1.233   3.370
  247SOL     OW  106   1.525   0.999   2.052
  247SOL    HW1  107   1.462   0.923   2.065
  247SOL    HW2  108   1.573   1.017   2.138
  248SOL     OW  109   1.187   1.792   3.478
  248SOL    HW1  110   1.211   1.852   3.402
  248SOL    HW2  111   1.194   1.697   3.448
  250SOL     OW  112   1.466   1.417   2.815
  250SOL    HW1  113   1.407   1.423   2.895
  250SOL    HW2  114   1.451   1.329   2.769
  251SOL     OW  115   1.667   1.714   2.434
  251SOL    HW1  116   1.626   1.691   2.346
  251SOL    HW2  117   1.649   1.640   2.499
  254SOL     OW  118   1.576   1.662   2.169
  254SOL    HW1  119   1.665   1.708   2.172
  254SOL    HW2  120   1.555   1.638   2.074
  264SOL     OW  121   1.362   1.144   2.407
  264SOL    HW1  122   1.445   1.115   2.359
  264SOL    HW2  123   1.313   1.211   2.351
  266SOL     OW  124   1.008   1.456   2.339
  266SOL    HW1  125   0.962   1.528   2.287
  266SOL    HW2  126   1.004   1.476   2.437
  268SOL     OW  127   1.795   1.066   2.735
  268SOL    HW1  128   1.733   1.051   2.659
  268SOL    HW2  129   1.743   1.077   2.820
  269SOL     OW  130   1.227   1.550   3.368
  269SOL    HW1  131   1.233   1.473   3.432
  269SOL    HW2  132   1.175   1.524   3.288
  271SOL     OW  133   1.458   0.735   2.590
  271SOL    HW1  134   1.453   0.670   2.665
  271SOL    HW2  135   1.538   0.794   2.603
  273SOL     OW  136   1.111   1.776   2.099
  273SOL    HW1  137   1.051   1.714   2.149
  273SOL    HW2  138   1.142   1.732   2.014
  275SOL     OW  139   1.632   1.377   1.943
  275SOL    HW1  140   1.600   1.471   1.933
  275SOL    HW2  141   1.556   1.314   1.931
  279SOL     OW  142   0.940   1.698   2.766
  279SOL    HW1  143   1.020   1.641   2.787
  279SOL    HW2  144   0.891   1.658   2.689
  284SOL     OW  145   0.888   1.514   3.057
  284SOL    HW1  146   0.865   1.489   2.963
  284SOL    HW2  147   0.949   1.445   3.096
  289SOL     OW  148   1.434   1.188   1.903
  289SOL    HW1  149   1.466   1.112   1.960
  289SOL    HW2  150   1.342   1.215   1.933
  293SOL     OW  151   1.227   1.570   2.655
  293SOL    HW1  152   1.248   1.644   2.590
  293SOL    HW2  153   1.295   1.570   2.728
  295SOL     OW  154   1.271   1.797   2.453
  295SOL    HW1  155   1.315   1.861   2.389
  295SOL    HW2  156   1.221   1.849   2.523
  301SOL     OW  157   1.429   1.173   2.729
  301SOL    HW1  158   1.374   1.089   2.722
  301SOL    HW2  159   1.455   1.202   2.637
  303SOL     OW  160   1.857   0.833   2.239
  303SOL    HW1  161   1.899   0.769   2.303
  303SOL    HW2  162   1.819   0.782   2.161
  305SOL     OW  163   1.664   1.280   2.519
  305SOL    HW1  164   1.763   1.288   2.533
  305SOL    HW2  165   1.619   1.364   2.550
  308SOL     OW  166   1.754   1.223   3.450
  308SOL    HW1  167   1.845   1.184   3.437
  308SOL    HW2  168   1.762   1.319   3.474
  309SOL     OW  169   1.064   1.347   3.202
  309SOL    HW1  170   0.984   1.324   3.257
  309SOL    HW2  171   1.147   1.321   3.251
  310SOL     OW  172   1.592   1.629   3.487
  310SOL    HW1  173   1.619   1.663   3.397
  310SOL    HW2  174   1.671   1.591   3.533
  311SOL     OW  175   1.111   1.195   2.962
  311SOL    HW1  176   1.071   1.239   3.043
  311SOL    HW2  177   1.070   1.232   2.879
  312SOL     OW  178   1.638   1.099   2.941
  312SOL    HW1  179   1.643   1.180   3.000
  312SOL    HW2  180   1.552   1.101   2.890
  321SOL     OW  181   1.252   1.348   2.250
  321SOL    HW1  182   1.302   1.425   2.290
  321SOL    HW2  183   1.157   1.350   2.282
  322SOL     OW  184   1.272   1.445   3.004
  322SOL    HW1  185   1.319   1.458   3.091
  322SOL    HW2  186   1.206   1.371   3.013
  323SOL     OW  187   1.582   0.639   2.334
  323SOL    HW1  188   1.551   0.700   2.407
  323SOL    HW2  189   1.632   0.691   2.265
  340SOL     OW  190   1.859   1.518   3.467
  340SOL    HW1  191   1.873   1.545   3.372
  340SOL    HW2  192   1.942   1.540   3.520
  344SOL     OW  193   1.068   1.333   2.711
  344SOL    HW1  194   1.075   1.249   2.656
  344SOL    HW2  195   1.130   1.402   2.675
  363SOL     OW  196   1.347   1.059   3.096
  363SOL    HW1  197   1.371   0.996   3.022
  363SOL    HW2  198   1.257   1.099   3.078
  364SOL     OW  199   1.302   0.855   2.171
  364SOL    HW1  200   1.216   0.824   2.213
  364SOL    HW2  201   1.298   0.841   2.072
  365SOL     OW  202   1.759   1.747   3.016
  365SOL    HW1  203   1.820   1.777   2.943
  365SOL    HW2  204   1.721   1.658   2.994
  366SOL     OW  205   1.252   1.731   2.990
  366SOL    HW1  206   1.336   1.736   2.936
  366SOL    HW2  207   1.229   1.635   3.008
  370SOL     OW  208   1.388   1.573   2.339
  370SOL    HW1  209   1.455   1.585   2.265
  370SOL    HW2  210   1.348   1.662   2.362
  372SOL     OW  211   1.280   0.927   2.534
  372SOL    HW1  212   1.340   0.846   2.536
  372SOL    HW2  213   1.320   0.996   2.474
  374SOL     OW  214   0.672   1.616   2.016
  374SOL    HW1  215   0.681   1.626   1.917
  374SOL    HW2  216   0.632   1.527   2.037
  375SOL     OW  217   1.650   1.720   3.256
  375SOL    HW1  218   1.703   1.730   3.172
  375SOL    HW2  219   1.623   1.810   3.290
  378SOL     OW  220   1.194   1.612   1.893
  378SOL    HW1  221   1.200   1.519   1.930
  378SOL    HW2  222   1.135   1.612   1.813
  381SOL     OW  223   1.504   1.607   1.906
  381SOL    HW1  224   1.412   1.644   1.913
  381SOL    HW2  225   1.542   1.627   1.816
  383SOL     OW  226   1.614   1.292   3.151
  383SOL    HW1  227   1.674   1.295   3.231
  383SOL    HW2  228   1.539   1.356   3.164
  384SOL     OW  229   1.039   1.098   2.558
  384SOL    HW1  230   0.969   1.051   2.612
  384SOL    HW2  231   1.098   1.030   2.515
  394SOL     OW  232   1.183   1.335   1.981
  394SOL    HW1  233   1.084   1.324   1.983
  394SOL    HW2  234   1.217   1.350   2.074
  396SOL     OW  235   1.493   1.767   2.821
  396SOL    HW1  236   1.526   1.831   2.752
  396SOL    HW2  237   1.559   1.761   2.896
  400SOL     OW  238   1.674   0.883   3.116
  400SOL    HW1  239   1.647   0.794   3.079
  400SOL    HW2  240   1.675   0.951   3.043
  405SOL     OW  241   0.859   1.374   1.878
  405SOL    HW1  242   0.813   1.389   1.966
  405SOL    HW2  243   0.903   1.459   1.848
  406SOL     OW  244   0.661   1.790   2.815
  406SOL    HW1  245   0.615   1.878   2.802
  406SOL    HW2  246   0.760   1.802   2.808
  409SOL     OW  247   1.861   1.569   2.713
  409SOL    HW1  248   1.790   1.557   2.643
  409SOL    HW2  249   1.862   1.490   2.773
  415SOL     OW  250   1.705   1.487   2.966
  415SOL    HW1  251   1.612   1.462   2.939
  415SOL    HW2  252   1.731   1.437   3.048
  417SOL     OW  253   0.812   1.586   2.549
  417SOL    HW1  254   0.844   1.596   2.455
  417SOL    HW2  255   0.733   1.524   2.551
  426SOL     OW  256   0.875   1.646   2.199
  426SOL    HW1  257   0.798   1.611   2.145
  426SOL    HW2  258   0.843   1.717   2.261
  530SOL     OW  259   0.850   2.660   1.823
  530SOL    HW1  260   0.846   2.736   1.888
  530SOL    HW2  261   0.872   2.696   1.732
  534SOL     OW  262   1.460   3.367   1.339
  534SOL    HW1  263   1.484   3.461   1.365
  534SOL    HW2  264   1.444   3.313   1.421
  536SOL     OW  265   1.603   2.309   0.737
  536SOL    HW1  266   1.529   2.355   0.687
  536SOL    HW2  267   1.654   2.377   0.790
  538SOL     OW  268   1.127   3.203   1.690
  538SOL    HW1  269   1.174   3.203   1.778
  538SOL    HW2  270   1.079   3.116   1.679
  543SOL     OW  271   1.594   1.976   1.480
  543SOL    HW1  272   1.576   2.043   1.408
  543SOL    HW2  273   1.591   2.022   1.569
  551SOL     OW  274   1.293   3.090   1.423
  551SOL    HW1  275   1.330   3.017   1.365
  551SOL    HW2  276   1.345   3.095   1.508
  560SOL     OW  277   1.281   2.207   0.944
  560SOL    HW1  278   1.195   2.157   0.931
  560SOL    HW2  279   1.343   2.153   1.000
  562SOL     OW  280   0.807   2.467   1.465
  562SOL    HW1  281   0.760   2.464   1.554
  562SOL    HW2  282   0.756   2.412   1.399
  563SOL     OW  283   1.394   2.331   1.674
  563SOL    HW1  284   1.374   2.374   1.762
  563SOL    HW2  285   1.472   2.269   1.683
  564SOL     OW  286   0.973   2.752   1.572
  564SOL    HW1  287   1.019   2.668   1.543
  564SOL    HW2  288   0.917   2.786   1.497
  565SOL     OW  289   0.991   2.272   1.242
  565SOL    HW1  290   0.914   2.306   1.296
  565SOL    HW2  291   0.957   2.221   1.163
  570SOL     OW  292   1.719   2.447   1.831
  570SOL    HW1  293   1.693   2.536   1.795
  570SOL    HW2  294   1.717   2.379   1.758
  575SOL     OW  295   1.795   2.928   0.873
  575SOL    HW1  296   1.733   2.913   0.797
  575SOL    HW2  297   1.743   2.939   0.958
  576SOL     OW  298   1.227   3.412   1.506
  576SOL    HW1  299   1.233   3.335   1.570
  576SOL    HW2  300   1.175   3.386   1.426
  578SOL     OW  301   1.458   2.597   0.728
  578SOL    HW1  302   1.453   2.532   0.803
  578SOL    HW2  303   1.538   2.656   0.741
  588SOL     OW  304   1.547   2.084   1.729
  588SOL    HW1  305   1.542   2.121   1.821
  588SOL    HW2  306   1.475   2.015   1.717
  589SOL     OW  307   0.781   2.126   1.749
  589SOL    HW1  308   0.848   2.065   1.792
  589SOL    HW2  309   0.708   2.145   1.814
  591SOL     OW  310   1.351   2.452   1.433
  591SOL    HW1  311   1.379   2.409   1.518
  591SOL    HW2  312   1.376   2.548   1.434
  598SOL     OW  313   1.076   2.545   1.464
  598SOL    HW1  314   0.996   2.484   1.467
  598SOL    HW2  315   1.157   2.492   1.440
  608SOL     OW  316   1.466   2.452   0.992
  608SOL    HW1  317   1.436   2.357   0.999
  608SOL    HW2  318   1.539   2.468   1.058
  614SOL     OW  319   1.754   3.085   1.588
  614SOL    HW1  320   1.845   3.046   1.575
  614SOL    HW2  321   1.762   3.181   1.612
  616SOL     OW  322   1.592   3.491   1.625
  616SOL    HW1  323   1.619   3.525   1.535
  616SOL    HW2  324   1.671   3.453   1.671
  618SOL     OW  325   1.638   2.961   1.079
  618SOL    HW1  326   1.643   3.042   1.138
  618SOL    HW2  327   1.552   2.963   1.028
  619SOL     OW  328   0.915   1.951   1.402
  619SOL    HW1  329   0.940   1.931   1.307
  619SOL    HW2  330   0.987   2.007   1.444
  620SOL     OW  331   0.980   2.978   1.719
  620SOL    HW1  332   0.881   2.984   1.729
  620SOL    HW2  333   1.003   2.898   1.663
  623SOL     OW  334   1.274   2.248   1.262
  623SOL    HW1  335   1.295   2.322   1.326
  623SOL    HW2  336   1.185   2.265   1.219
  632SOL     OW  337   1.587   2.641   1.670
  632SOL    HW1  338   1.495   2.679   1.665
  632SOL    HW2  339   1.647   2.688   1.605
  633SOL     OW  340   1.013   1.967   1.770
  633SOL    HW1  341   1.019   2.052   1.718
  633SOL    HW2  342   1.045   1.891   1.713
  636SOL     OW  343   1.360   2.724   1.045
  636SOL    HW1  344   1.285   2.724   0.979
  636SOL    HW2  345   1.397   2.632   1.054
  641SOL     OW  346   1.728   2.797   1.854
  641SOL    HW1  347   1.682   2.790   1.765
  641SOL    HW2  348   1.666   2.841   1.920
  646SOL     OW  349   1.859   3.380   1.605
  646SOL    HW1  350   1.873   3.407   1.510
  646SOL    HW2  351   1.942   3.402   1.658
  653SOL     OW  352   1.138   2.242   1.678
  653SOL    HW1  353   1.093   2.305   1.742
  653SOL    HW2  354   1.231   2.273   1.661
  654SOL     OW  355   1.160   2.069   1.477
  654SOL    HW1  356   1.160   2.133   1.554
  654SOL    HW2  357   1.188   2.117   1.394
  658SOL     OW  358   1.002   2.658   1.238
  658SOL    HW1  359   1.043   2.626   1.324
  658SOL    HW2  360   0.906   2.631   1.235
  661SOL     OW  361   1.369   2.812   1.660
  661SOL    HW1  362   1.408   2.901   1.680
  661SOL    HW2  363   1.379   2.792   1.563
  663SOL     OW  364   1.657   2.466   1.206
  663SOL    HW1  365   1.619   2.397   1.268
  663SOL    HW2  366   1.739   2.430   1.162
  669SOL     OW  367   1.347   2.921   1.234
  669SOL    HW1  368   1.371   2.858   1.160
  669SOL    HW2  369   1.257   2.961   1.216
  682SOL     OW  370   1.650   3.582   1.394
  682SOL    HW1  371   1.703   3.592   1.310
  682SOL    HW2  372   1.623   3.672   1.428
  683SOL     OW  373   1.841   2.037   0.963
  683SOL    HW1  374   1.880   1.952   0.927
  683SOL    HW2  375   1.743   2.039   0.944
  690SOL     OW  376   1.614   3.154   1.289
  690SOL    HW1  377   1.674   3.157   1.369
  690SOL    HW2  378   1.539   3.218   1.302
  694SOL     OW  379   1.709   2.247   1.381
  694SOL    HW1  380   1.782   2.316   1.385
  694SOL    HW2  381   1.737   2.172   1.322
  699SOL     OW  382   1.440   2.718   1.398
  699SOL    HW1  383   1.383   2.770   1.335
  699SOL    HW2  384   1.536   2.730   1.374
  704SOL     OW  385   0.716   2.427   1.708
  704SOL    HW1  386   0.735   2.492   1.782
  704SOL    HW2  387   0.776   2.347   1.717
  705SOL     OW  388   1.450   3.082   1.633
  705SOL    HW1  389   1.441   3.072   1.732
  705SOL    HW2  390   1.546   3.075   1.607
  707SOL     OW  391   1.674   2.745   1.254
  707SOL    HW1  392   1.647   2.656   1.217
  707SOL    HW2  393   1.675   2.813   1.181
  710SOL     OW  394   1.777   2.204   1.642
  710SOL    HW1  395   1.760   2.235   1.548
  710SOL    HW2  396   1.693   2.167   1.680
  711SOL     OW  397   1.730   2.796   1.517
  711SOL    HW1  398   1.768   2.887   1.532
  711SOL    HW2  399   1.722   2.779   1.418
  720SOL     OW  400   1.824   2.054   1.227
  720SOL    HW1  401   1.820   1.964   1.271
  720SOL    HW2  402   1.827   2.043   1.128
  722SOL     OW  403   1.705   3.349   1.104
  722SOL    HW1  404   1.612   3.324   1.077
  722SOL    HW2  405   1.731   3.299   1.186
  725SOL     OW  406   1.424   2.076   1.112
  725SOL    HW1  407   1.476   2.011   1.167
  725SOL    HW2  408   1.375   2.139   1.173
  726SOL     OW  409   1.001   1.896   1.154
  726SOL    HW1  410   0.938   1.824   1.123
  726SOL    HW2  411   1.094   1.860   1.154
  731SOL     OW  412   1.593   2.083   0.882
  731SOL    HW1  413   1.509   2.082   0.936
  731SOL    HW2  414   1.595   2.166   0.826
  738SOL     OW  415   1.555   3.373   2.565
  738SOL    HW1  416   1.498   3.357   2.646
  738SOL    HW2  417   1.496   3.383   2.485
  739SOL     OW  418   1.135   2.565   2.579
  739SOL    HW1  419   1.192   2.643   2.554
  739SOL    HW2  420   1.075   2.591   2.655
  740SOL     OW  421   1.755   2.469   2.093
  740SOL    HW1  422   1.743   2.456   1.994
  740SOL    HW2  423   1.725   2.388   2.142
  741SOL     OW  424   0.768   3.006   2.885
  741SOL    HW1  425   0.690   3.023   2.945
  741SOL    HW2  426   0.802   3.093   2.849
  743SOL     OW  427   0.685   2.874   2.527
  743SOL    HW1  428   0.754   2.858   2.597
  743SOL    HW2  429   0.612   2.931   2.565
  746SOL     OW  430   1.460   3.367   3.201
  746SOL    HW1  431   1.484   3.461   3.227
  746SOL    HW2  432   1.444   3.313   3.283
  748SOL     OW  433   1.603   2.309   2.599
  748SOL    HW1  434   1.529   2.355   2.549
  748SOL    HW2  435   1.654   2.377   2.652
  754SOL     OW  436   0.606   2.826   1.985
  754SOL    HW1  437   0.613   2.910   1.931
  754SOL    HW2  438   0.652   2.839   2.073
  755SOL     OW  439   1.594   1.976   3.342
  755SOL    HW1  440   1.576   2.043   3.270
  755SOL    HW2  441   1.591   2.022   3.431
  757SOL     OW  442   1.842   3.629   2.221
  757SOL    HW1  443   1.896   3.600   2.301
  757SOL    HW2  444   1.872   3.719   2.192
  759SOL     OW  445   1.689   2.784   2.474
  759SOL    HW1  446   1.784   2.755   2.482
  759SOL    HW2  447   1.681   2.849   2.399
  760SOL     OW  448   1.641   2.970   2.294
  760SOL    HW1  449   1.727   2.972   2.242
  760SOL    HW2  450   1.655   3.017   2.382
  763SOL     OW  451   1.293   3.090   3.285
  763SOL    HW1  452   1.330   3.017   3.227
  763SOL    HW2  453   1.345   3.095   3.370
  764SOL     OW  454   0.809   1.866   2.364
  764SOL    HW1  455   0.849   1.957   2.355
  764SOL    HW2  456   0.709   1.874   2.370
  766SOL     OW  457   1.525   2.861   2.052
  766SOL    HW1  458   1.462   2.785   2.065
  766SOL    HW2  459   1.573   2.879   2.138
  769SOL     OW  460   1.466   3.279   2.815
  769SOL    HW1  461   1.407   3.285   2.895
  769SOL    HW2  462   1.451   3.191   2.769
  770SOL     OW  463   1.667   3.576   2.434
  770SOL    HW1  464   1.626   3.553   2.346
  770SOL    HW2  465   1.649   3.502   2.499
  771SOL     OW  466   0.598   2.591   2.132
  771SOL    HW1  467   0.622   2.660   2.064
  771SOL    HW2  468   0.520   2.624   2.186
  772SOL     OW  469   1.281   2.207   2.806
  772SOL    HW1  470   1.195   2.157   2.793
  772SOL    HW2  471   1.343   2.153   2.862
  773SOL     OW  472   1.576   3.524   2.169
  773SOL    HW1  473   1.665   3.570   2.172
  773SOL    HW2  474   1.555   3.500   2.074
  775SOL     OW  475   1.394   2.331   3.536
  775SOL    HW1  476   1.374   2.374   3.624
  775SOL    HW2  477   1.472   2.269   3.545
  777SOL     OW  478   0.991   2.272   3.104
  777SOL    HW1  479   0.914   2.306   3.158
  777SOL    HW2  480   0.957   2.221   3.025
  778SOL     OW  481   1.041   2.563   2.291
  778SOL    HW1  482   1.067   2.559   2.387
  778SOL    HW2  483   0.956   2.512   2.277
  781SOL     OW  484   0.865   2.210   2.057
  781SOL    HW1  485   0.924   2.273   2.008
  781SOL    HW2  486   0.884   2.116   2.028
  782SOL     OW  487   1.719   2.447   3.693
  782SOL    HW1  488   1.693   2.536   3.657
  782SOL    HW2  489   1.717   2.379   3.620
  783SOL     OW  490   1.362   3.006   2.407
  783SOL    HW1  491   1.445   2.977   2.359
  783SOL    HW2  492   1.313   3.073   2.351
  785SOL     OW  493   1.008   3.318   2.339
  785SOL    HW1  494   0.962   3.390   2.287
  785SOL    HW2  495   1.004   3.338   2.437
  787SOL     OW  496   1.795   2.928   2.735
  787SOL    HW1  497   1.733   2.913   2.659
  787SOL    HW2  498   1.743   2.939   2.820
  790SOL     OW  499   1.458   2.597   2.590
  790SOL    HW1  500   1.453   2.532   2.665
  790SOL    HW2  501   1.538   2.656   2.603
  794SOL     OW  502   1.632   3.239   1.943
  794SOL    HW1  503   1.600   3.333   1.933
  794SOL    HW2  504   1.556   3.176   1.931
  796SOL     OW  505   1.400   1.969   2.288
  796SOL    HW1  506   1.376   1.932   2.198
  796SOL    HW2  507   1.499   1.985   2.292
  800SOL     OW  508   1.547   2.084   3.591
  800SOL    HW1  509   1.542   2.121   3.683
  800SOL    HW2  510   1.475   2.015   3.579
  801SOL     OW  511   0.614   1.984   1.979
  801SOL    HW1  512   0.712   1.962   1.986
  801SOL    HW2  513   0.583   1.967   1.886
  804SOL     OW  514   1.351   2.452   3.295
  804SOL    HW1  515   1.379   2.409   3.380
  804SOL    HW2  516   1.376   2.548   3.296
  806SOL     OW  517   0.922   2.365   2.761
  806SOL    HW1  518   0.897   2.356   2.665
  806SOL    HW2  519   0.970   2.283   2.792
  807SOL     OW  520   0.539   1.926   2.374
  807SOL    HW1  521   0.458   1.927   2.432
  807SOL    HW2  522   0.542   2.009   2.319
  808SOL     OW  523   1.434   3.050   1.903
  808SOL    HW1  524   1.466   2.974   1.960
  808SOL    HW2  525   1.342   3.077   1.933
  810SOL     OW  526   0.935   2.098   2.342
  810SOL    HW1  527   0.887   2.139   2.264
  810SOL    HW2  528   1.034   2.096   2.323
  811SOL     OW  529   1.076   2.545   3.326
  811SOL    HW1  530   0.996   2.484   3.329
  811SOL    HW2  531   1.157   2.492   3.302
  812SOL     OW  532   1.227   3.432   2.655
  812SOL    HW1  533   1.248   3.506   2.590
  812SOL    HW2  534   1.295   3.432   2.728
  814SOL     OW  535   1.271   3.659   2.453
  814SOL    HW1  536   1.315   3.723   2.389
  814SOL    HW2  537   1.221   3.711   2.523
  815SOL     OW  538   1.032   2.411   1.878
  815SOL    HW1  539   0.991   2.493   1.839
  815SOL    HW2  540   1.096   2.437   1.951
  818SOL     OW  541   0.866   2.316   2.504
  818SOL    HW1  542   0.834   2.388   2.442
  818SOL    HW2  543   0.890   2.235   2.451
  819SOL     OW  544   1.017   1.901   2.615
  819SOL    HW1  545   0.945   1.906   2.546
  819SOL    HW2  546   0.993   1.832   2.684
  820SOL     OW  547   1.429   3.035   2.729
  820SOL    HW1  548   1.374   2.951   2.722
  820SOL    HW2  549   1.455   3.064   2.637
  821SOL     OW  550   1.466   2.452   2.854
  821SOL    HW1  551   1.436   2.357   2.861
  821SOL    HW2  552   1.539   2.468   2.920
  822SOL     OW  553   1.857   2.695   2.239
  822SOL    HW1  554   1.899   2.631   2.303
  822SOL    HW2  555   1.819   2.644   2.161
  824SOL     OW  556   1.664   3.142   2.519
  824SOL    HW1  557   1.763   3.150   2.533
  824SOL    HW2  558   1.619   3.226   2.550
  825SOL     OW  559   1.390   2.437   1.940
  825SOL    HW1  560   1.336   2.416   2.021
  825SOL    HW2  561   1.481   2.396   1.949
  826SOL     OW  562   0.527   2.118   2.190
  826SOL    HW1  563   0.554   2.059   2.115
  826SOL    HW2  564   0.527   2.213   2.159
  827SOL     OW  565   1.754   3.085   3.450
  827SOL    HW1  566   1.845   3.046   3.437
  827SOL    HW2  567   1.762   3.181   3.474
  828SOL     OW  568   1.064   3.209   3.202
  828SOL    HW1  569   0.984   3.186   3.257
  828SOL    HW2  570   1.147   3.183   3.251
  830SOL     OW  571   1.111   3.057   2.962
  830SOL    HW1  572   1.071   3.101   3.043
  830SOL    HW2  573   1.070   3.094   2.879
  831SOL     OW  574   1.638   2.961   2.941
  831SOL    HW1  575   1.643   3.042   3.000
  831SOL    HW2  576   1.552   2.963   2.890
  832SOL     OW  577   0.915   1.951   3.264
  832SOL    HW1  578   0.940   1.931   3.169
  832SOL    HW2  579   0.987   2.007   3.306
  834SOL     OW  580   0.705   2.912   2.230
  834SOL    HW1  581   0.691   2.919   2.329
  834SOL    HW2  582   0.789   2.861   2.212
  836SOL     OW  583   1.274   2.248   3.124
  836SOL    HW1  584   1.295   2.322   3.188
  836SOL    HW2  585   1.185   2.265   3.081
  839SOL     OW  586   0.566   2.399   2.727
  839SOL    HW1  587   0.578   2.465   2.653
  839SOL    HW2  588   0.612   2.433   2.810
  840SOL     OW  589   1.252   3.210   2.250
  840SOL    HW1  590   1.302   3.287   2.290
  840SOL    HW2  591   1.157   3.212   2.282
  841SOL     OW  592   1.272   3.307   3.004
  841SOL    HW1  593   1.319   3.320   3.091
  841SOL    HW2  594   1.206   3.233   3.013
  842SOL     OW  595   1.582   2.501   2.334
  842SOL    HW1  596   1.551   2.562   2.407
  842SOL    HW2  597   1.632   2.553   2.265
  845SOL     OW  598   1.587   2.641   3.532
  845SOL    HW1  599   1.495   2.679   3.527
  845SOL    HW2  600   1.647   2.688   3.467
  849SOL     OW  601   1.360   2.724   2.907
  849SOL    HW1  602   1.285   2.724   2.841
  849SOL    HW2  603   1.397   2.632   2.916
  850SOL     OW  604   1.209   2.387   2.137
  850SOL    HW1  605   1.222   2.303   2.191
  850SOL    HW2  606   1.180   2.461   2.197
  853SOL     OW  607   0.732   2.496   2.926
  853SOL    HW1  608   0.791   2.470   2.850
  853SOL    HW2  609   0.704   2.592   2.915
  854SOL     OW  610   1.728   2.797   3.716
  854SOL    HW1  611   1.682   2.790   3.627
  854SOL    HW2  612   1.666   2.841   3.782
  856SOL     OW  613   1.622   2.229   2.236
  856SOL    HW1  614   1.624   2.153   2.300
  856SOL    HW2  615   1.574   2.306   2.276
  857SOL     OW  616   1.023   2.628   2.828
  857SOL    HW1  617   1.038   2.649   2.924
  857SOL    HW2  618   0.993   2.533   2.819
  859SOL     OW  619   1.859   3.380   3.467
  859SOL    HW1  620   1.873   3.407   3.372
  859SOL    HW2  621   1.942   3.402   3.520
  861SOL     OW  622   1.540   2.136   1.987
  861SOL    HW1  623   1.479   2.061   2.010
  861SOL    HW2  624   1.562   2.188   2.070
  862SOL     OW  625   1.303   2.700   1.904
  862SOL    HW1  626   1.337   2.607   1.919
  862SOL    HW2  627   1.321   2.727   1.809
  863SOL     OW  628   1.068   3.195   2.711
  863SOL    HW1  629   1.075   3.111   2.656
  863SOL    HW2  630   1.130   3.264   2.675
  866SOL     OW  631   1.138   2.242   3.540
  866SOL    HW1  632   1.093   2.305   3.604
  866SOL    HW2  633   1.231   2.273   3.523
  867SOL     OW  634   1.160   2.069   3.339
  867SOL    HW1  635   1.160   2.133   3.416
  867SOL    HW2  636   1.188   2.117   3.256
  871SOL     OW  637   1.002   2.658   3.100
  871SOL    HW1  638   1.043   2.626   3.186
  871SOL    HW2  639   0.906   2.631   3.097
  874SOL     OW  640   1.369   2.812   3.522
  874SOL    HW1  641   1.408   2.901   3.542
  874SOL    HW2  642   1.379   2.792   3.425
  875SOL     OW  643   0.815   2.434   2.187
  875SOL    HW1  644   0.822   2.345   2.141
  875SOL    HW2  645   0.721   2.468   2.179
  876SOL     OW  646   1.657   2.466   3.068
  876SOL    HW1  647   1.619   2.397   3.130
  876SOL    HW2  648   1.739   2.430   3.024
  882SOL     OW  649   1.347   2.921   3.096
  882SOL    HW1  650   1.371   2.858   3.022
  882SOL    HW2  651   1.257   2.961   3.078
  883SOL     OW  652   1.302   2.717   2.171
  883SOL    HW1  653   1.216   2.686   2.213
  883SOL    HW2  654   1.298   2.703   2.072
  884SOL     OW  655   1.759   3.609   3.016
  884SOL    HW1  656   1.820   3.639   2.943
  884SOL    HW2  657   1.721   3.520   2.994
  888SOL     OW  658   1.726   1.997   2.385
  888SOL    HW1  659   1.799   1.980   2.318
  888SOL    HW2  660   1.695   1.910   2.423
  889SOL     OW  661   1.388   3.435   2.339
  889SOL    HW1  662   1.455   3.447   2.265
  889SOL    HW2  663   1.348   3.524   2.362
  891SOL     OW  664   1.280   2.789   2.534
  891SOL    HW1  665   1.340   2.708   2.536
  891SOL    HW2  666   1.320   2.858   2.474
  894SOL     OW  667   1.650   3.582   3.256
  894SOL    HW1  668   1.703   3.592   3.172
  894SOL    HW2  669   1.623   3.672   3.290
  895SOL     OW  670   1.841   2.037   2.825
  895SOL    HW1  671   1.880   1.952   2.789
  895SOL    HW2  672   1.743   2.039   2.806
  897SOL     OW  673   1.194   3.474   1.893
  897SOL    HW1  674   1.200   3.381   1.930
  897SOL    HW2  675   1.135   3.474   1.813
  899SOL     OW  676   0.916   2.772   2.153
  899SOL    HW1  677   0.979   2.810   2.085
  899SOL    HW2  678   0.956   2.689   2.192
  900SOL     OW  679   1.504   3.469   1.906
  900SOL    HW1  680   1.412   3.506   1.913
  900SOL    HW2  681   1.542   3.489   1.816
  902SOL     OW  682   1.614   3.154   3.151
  902SOL    HW1  683   1.674   3.157   3.231
  902SOL    HW2  684   1.539   3.218   3.164
  903SOL     OW  685   1.039   2.960   2.558
  903SOL    HW1  686   0.969   2.913   2.612
  903SOL    HW2  687   1.098   2.892   2.515
  904SOL     OW  688   1.014   2.098   2.833
  904SOL    HW1  689   1.006   2.062   2.740
  904SOL    HW2  690   1.012   2.022   2.898
  906SOL     OW  691   1.709   2.247   3.243
  906SOL    HW1  692   1.782   2.316   3.247
  906SOL    HW2  693   1.737   2.172   3.184
  911SOL     OW  694   1.440   2.718   3.260
  911SOL    HW1  695   1.383   2.770   3.197
  911SOL    HW2  696   1.536   2.730   3.236
  913SOL     OW  697   1.183   3.197   1.981
  913SOL    HW1  698   1.084   3.186   1.983
  913SOL    HW2  699   1.217   3.212   2.074
  915SOL     OW  700   1.493   3.629   2.821
  915SOL    HW1  701   1.526   3.693   2.752
  915SOL    HW2  702   1.559   3.623   2.896
  917SOL     OW  703   1.450   3.082   3.495
  917SOL    HW1  704   1.441   3.072   3.594
  917SOL    HW2  705   1.546   3.075   3.469
  919SOL     OW  706   1.674   2.745   3.116
  919SOL    HW1  707   1.647   2.656   3.079
  919SOL    HW2  708   1.675   2.813   3.043
  920SOL     OW  709   1.225   2.187   2.311
  920SOL    HW1  710   1.290   2.113   2.300
  920SOL    HW2  711   1.245   2.237   2.395
  921SOL     OW  712   0.594   2.607   2.514
  921SOL    HW1  713   0.644   2.692   2.495
  921SOL    HW2  714   0.506   2.609   2.466
  922SOL     OW  715   1.777   2.204   3.504
  922SOL    HW1  716   1.760   2.235   3.410
  922SOL    HW2  717   1.693   2.167   3.542
  923SOL     OW  718   1.730   2.796   3.379
  923SOL    HW1  719   1.768   2.887   3.394
  923SOL    HW2  720   1.722   2.779   3.280
  924SOL     OW  721   0.859   3.236   1.878
  924SOL    HW1  722   0.813   3.251   1.966
  924SOL    HW2  723   0.903   3.321   1.848
  926SOL     OW  724   0.859   2.818   2.723
  926SOL    HW1  725   0.913   2.749   2.771
  926SOL    HW2  726   0.827   2.887   2.789
  927SOL     OW  727   1.083   2.846   1.949
  927SOL    HW1  728   1.060   2.899   1.867
  927SOL    HW2  729   1.164   2.790   1.930
  928SOL     OW  730   1.861   3.431   2.713
  928SOL    HW1  731   1.790   3.419   2.643
  928SOL    HW2  732   1.862   3.352   2.773
  932SOL     OW  733   1.824   2.054   3.089
  932SOL    HW1  734   1.820   1.964   3.133
  932SOL    HW2  735   1.827   2.043   2.990
  934SOL     OW  736   1.705   3.349   2.966
  934SOL    HW1  737   1.612   3.324   2.939
  934SOL    HW2  738   1.731   3.299   3.048
  937SOL     OW  739   1.424   2.076   2.974
  937SOL    HW1  740   1.476   2.011   3.029
  937SOL    HW2  741   1.375   2.139   3.035
  938SOL     OW  742   1.001   1.896   3.016
  938SOL    HW1  743   0.938   1.824   2.985
  938SOL    HW2  744   1.094   1.860   3.016
  939SOL     OW  745   0.770   3.192   2.163
  939SOL    HW1  746   0.724   3.105   2.180
  939SOL    HW2  747   0.861   3.189   2.204
  941SOL     OW  748   1.352   1.914   2.030
  941SOL    HW1  749   1.387   1.873   1.946
  941SOL    HW2  750   1.262   1.876   2.050
  942SOL     OW  751   1.300   2.315   2.553
  942SOL    HW1  752   1.241   2.395   2.557
  942SOL    HW2  753   1.315   2.280   2.646
  943SOL     OW  754   1.593   2.083   2.744
  943SOL    HW1  755   1.509   2.082   2.798
  943SOL    HW2  756   1.595   2.166   2.688
  950SOL     OW  757   1.755   2.469   3.955
  950SOL    HW1  758   1.743   2.456   3.856
  950SOL    HW2  759   1.725   2.388   4.004
  997SOL     OW  760   1.390   2.437   3.802
  997SOL    HW1  761   1.336   2.416   3.883
  997SOL    HW2  762   1.481   2.396   3.811
 1006SOL     OW  763   1.540   2.136   3.849
 1006SOL    HW1  764   1.479   2.061   3.872
 1006SOL    HW2  765   1.562   2.188   3.932
 1163SOL     OW  766   1.400   3.831   2.288
 1163SOL    HW1  767   1.376   3.794   2.198
 1163SOL    HW2  768   1.499   3.847   2.292
 1210SOL     OW  769   1.726   3.859   2.385
 1210SOL    HW1  770   1.799   3.842   2.318
 1210SOL    HW2  771   1.695   3.772   2.423
 1212SOL     OW  772   1.841   3.899   2.825
 1212SOL    HW1  773   1.880   3.814   2.789
 1212SOL    HW2  774   1.743   3.901   2.806
 1233SOL     OW  775   1.352   3.776   2.030
 1233SOL    HW1  776   1.387   3.735   1.946
 1233SOL    HW2  777   1.262   3.738   2.050
 1286SOL     OW  778   2.431   1.275   1.165
 1286SOL    HW1  779   2.338   1.268   1.128
 1286SOL    HW2  780   2.442   1.364   1.209
 1290SOL     OW  781   2.630   1.144   1.023
 1290SOL    HW1  782   2.552   1.161   1.083
 1290SOL    HW2  783   2.664   1.231   0.987
 1291SOL     OW  784   2.712   0.798   1.823
 1291SOL    HW1  785   2.708   0.874   1.888
 1291SOL    HW2  786   2.734   0.834   1.732
 1293SOL     OW  787   2.548   1.161   1.803
 1293SOL    HW1  788   2.608   1.240   1.817
 1293SOL    HW2  789   2.462   1.192   1.762
 1294SOL     OW  790   2.197   1.435   1.061
 1294SOL    HW1  791   2.119   1.404   1.008
 1294SOL    HW2  792   2.255   1.493   1.004
 1295SOL     OW  793   3.322   1.505   1.339
 1295SOL    HW1  794   3.346   1.599   1.365
 1295SOL    HW2  795   3.306   1.451   1.421
 1299SOL     OW  796   2.989   1.341   1.690
 1299SOL    HW1  797   3.036   1.341   1.778
 1299SOL    HW2  798   2.941   1.254   1.679
 1302SOL     OW  799   2.482   1.786   1.439
 1302SOL    HW1  800   2.390   1.769   1.474
 1302SOL    HW2  801   2.510   1.878   1.465
 1310SOL     OW  802   1.975   0.737   1.597
 1310SOL    HW1  803   2.063   0.724   1.642
 1310SOL    HW2  804   1.962   0.834   1.575
 1312SOL     OW  805   3.155   1.228   1.423
 1312SOL    HW1  806   3.192   1.155   1.365
 1312SOL    HW2  807   3.207   1.233   1.508
 1314SOL     OW  808   2.059   0.976   1.264
 1314SOL    HW1  809   2.148   0.931   1.250
 1314SOL    HW2  810   1.986   0.911   1.245
 1316SOL     OW  811   3.049   1.792   1.616
 1316SOL    HW1  812   3.073   1.852   1.540
 1316SOL    HW2  813   3.056   1.697   1.586
 1325SOL     OW  814   2.835   0.890   1.572
 1325SOL    HW1  815   2.881   0.806   1.543
 1325SOL    HW2  816   2.779   0.924   1.497
 1329SOL     OW  817   1.992   1.821   1.571
 1329SOL    HW1  818   1.982   1.806   1.670
 1329SOL    HW2  819   1.906   1.857   1.535
 1335SOL     OW  820   2.213   1.801   0.853
 1335SOL    HW1  821   2.263   1.715   0.859
 1335SOL    HW2  822   2.278   1.878   0.850
 1337SOL     OW  823   3.089   1.550   1.506
 1337SOL    HW1  824   3.095   1.473   1.570
 1337SOL    HW2  825   3.037   1.524   1.426
 1340SOL     OW  826   2.323   1.266   1.727
 1340SOL    HW1  827   2.273   1.267   1.641
 1340SOL    HW2  828   2.260   1.248   1.803
 1346SOL     OW  829   2.111   1.785   1.241
 1346SOL    HW1  830   2.168   1.720   1.291
 1346SOL    HW2  831   2.095   1.752   1.148
 1347SOL     OW  832   2.802   1.698   0.904
 1347SOL    HW1  833   2.882   1.641   0.925
 1347SOL    HW2  834   2.753   1.658   0.827
 1352SOL     OW  835   2.750   1.514   1.195
 1352SOL    HW1  836   2.727   1.489   1.101
 1352SOL    HW2  837   2.811   1.445   1.234
 1354SOL     OW  838   2.665   1.402   0.924
 1354SOL    HW1  839   2.755   1.416   0.882
 1354SOL    HW2  840   2.594   1.404   0.853
 1377SOL     OW  841   2.926   1.347   1.340
 1377SOL    HW1  842   2.846   1.324   1.395
 1377SOL    HW2  843   3.009   1.321   1.389
 1378SOL     OW  844   3.454   1.629   1.625
 1378SOL    HW1  845   3.481   1.663   1.535
 1378SOL    HW2  846   3.533   1.591   1.671
 1379SOL     OW  847   2.973   1.195   1.100
 1379SOL    HW1  848   2.933   1.239   1.181
 1379SOL    HW2  849   2.932   1.232   1.017
 1382SOL     OW  850   2.842   1.116   1.719
 1382SOL    HW1  851   2.743   1.122   1.729
 1382SOL    HW2  852   2.865   1.036   1.663
 1386SOL     OW  853   1.926   1.564   1.331
 1386SOL    HW1  854   1.880   1.646   1.297
 1386SOL    HW2  855   2.024   1.583   1.340
 1390SOL     OW  856   3.134   1.445   1.142
 1390SOL    HW1  857   3.181   1.458   1.229
 1390SOL    HW2  858   3.068   1.371   1.151
 1392SOL     OW  859   2.216   1.510   1.329
 1392SOL    HW1  860   2.195   1.466   1.242
 1392SOL    HW2  861   2.313   1.536   1.332
 1393SOL     OW  862   2.264   0.751   1.598
 1393SOL    HW1  863   2.332   0.806   1.551
 1393SOL    HW2  864   2.304   0.663   1.625
 1401SOL     OW  865   1.899   1.310   1.282
 1401SOL    HW1  866   1.952   1.261   1.350
 1401SOL    HW2  867   1.921   1.408   1.287
 1407SOL     OW  868   2.842   1.573   1.700
 1407SOL    HW1  869   2.822   1.617   1.612
 1407SOL    HW2  870   2.881   1.482   1.684
 1408SOL     OW  871   3.721   1.518   1.605
 1408SOL    HW1  872   3.735   1.545   1.510
 1408SOL    HW2  873   3.804   1.540   1.658
 1409SOL     OW  874   2.212   0.898   1.804
 1409SOL    HW1  875   2.288   0.942   1.852
 1409SOL    HW2  876   2.247   0.851   1.722
 1418SOL     OW  877   1.950   1.801   0.927
 1418SOL    HW1  878   1.908   1.715   0.900
 1418SOL    HW2  879   2.044   1.804   0.893
 1419SOL     OW  880   2.366   1.568   0.910
 1419SOL    HW1  881   2.432   1.642   0.919
 1419SOL    HW2  882   2.410   1.489   0.868
 1423SOL     OW  883   3.231   0.950   1.660
 1423SOL    HW1  884   3.270   1.039   1.680
 1423SOL    HW2  885   3.241   0.930   1.563
 1426SOL     OW  886   2.114   1.564   1.744
 1426SOL    HW1  887   2.084   1.621   1.820
 1426SOL    HW2  888   2.107   1.467   1.770
 1428SOL     OW  889   2.792   1.678   1.465
 1428SOL    HW1  890   2.768   1.660   1.370
 1428SOL    HW2  891   2.822   1.772   1.475
 1430SOL     OW  892   2.021   1.137   1.466
 1430SOL    HW1  893   2.043   1.076   1.542
 1430SOL    HW2  894   2.031   1.088   1.380
 1434SOL     OW  895   3.114   1.731   1.128
 1434SOL    HW1  896   3.198   1.736   1.074
 1434SOL    HW2  897   3.091   1.635   1.146
 1435SOL     OW  898   1.945   1.258   1.022
 1435SOL    HW1  899   1.940   1.257   1.122
 1435SOL    HW2  900   1.862   1.217   0.984
 1436SOL     OW  901   2.550   1.662   1.716
 1436SOL    HW1  902   2.494   1.743   1.725
 1436SOL    HW2  903   2.602   1.666   1.630
 1440SOL     OW  904   1.992   1.794   1.851
 1440SOL    HW1  905   1.951   1.720   1.904
 1440SOL    HW2  906   2.056   1.845   1.909
 1442SOL     OW  907   2.692   1.273   1.422
 1442SOL    HW1  908   2.687   1.306   1.517
 1442SOL    HW2  909   2.606   1.292   1.376
 1444SOL     OW  910   3.512   1.720   1.394
 1444SOL    HW1  911   3.565   1.730   1.310
 1444SOL    HW2  912   3.485   1.810   1.428
 1448SOL     OW  913   2.684   1.002   1.372
 1448SOL    HW1  914   2.724   1.001   1.280
 1448SOL    HW2  915   2.694   1.094   1.412
 1451SOL     OW  916   2.234   1.288   1.490
 1451SOL    HW1  917   2.221   1.381   1.456
 1451SOL    HW2  918   2.150   1.236   1.477
 1458SOL     OW  919   1.967   1.013   1.726
 1458SOL    HW1  920   1.890   0.980   1.780
 1458SOL    HW2  921   2.052   0.983   1.768
 1464SOL     OW  922   2.475   0.842   1.431
 1464SOL    HW1  923   2.531   0.923   1.414
 1464SOL    HW2  924   2.534   0.762   1.434
 1465SOL     OW  925   3.355   1.767   0.959
 1465SOL    HW1  926   3.388   1.831   0.890
 1465SOL    HW2  927   3.421   1.761   1.034
 1467SOL     OW  928   3.312   1.220   1.633
 1467SOL    HW1  929   3.303   1.210   1.732
 1467SOL    HW2  930   3.408   1.213   1.607
 1468SOL     OW  931   2.252   1.741   1.560
 1468SOL    HW1  932   2.161   1.782   1.558
 1468SOL    HW2  933   2.245   1.647   1.592
 1475SOL     OW  934   2.523   1.790   0.953
 1475SOL    HW1  935   2.477   1.878   0.940
 1475SOL    HW2  936   2.622   1.802   0.946
 1479SOL     OW  937   2.083   1.314   1.844
 1479SOL    HW1  938   2.018   1.241   1.823
 1479SOL    HW2  939   2.087   1.328   1.942
 1481SOL     OW  940   2.534   1.391   1.624
 1481SOL    HW1  941   2.456   1.341   1.662
 1481SOL    HW2  942   2.531   1.486   1.655
 1486SOL     OW  943   2.674   1.586   0.687
 1486SOL    HW1  944   2.706   1.596   0.593
 1486SOL    HW2  945   2.595   1.524   0.689
 1490SOL     OW  946   2.480   1.567   1.284
 1490SOL    HW1  947   2.475   1.649   1.341
 1490SOL    HW2  948   2.569   1.564   1.239
 1496SOL     OW  949   2.092   0.628   1.975
 1496SOL    HW1  950   1.999   0.626   2.012
 1496SOL    HW2  951   2.093   0.589   1.883
 1499SOL     OW  952   2.431   1.275   3.027
 1499SOL    HW1  953   2.338   1.268   2.990
 1499SOL    HW2  954   2.442   1.364   3.071
 1500SOL     OW  955   3.417   1.511   2.565
 1500SOL    HW1  956   3.360   1.495   2.646
 1500SOL    HW2  957   3.358   1.521   2.485
 1501SOL     OW  958   2.997   0.703   2.579
 1501SOL    HW1  959   3.054   0.781   2.554
 1501SOL    HW2  960   2.937   0.729   2.655
 1503SOL     OW  961   2.630   1.144   2.885
 1503SOL    HW1  962   2.552   1.161   2.945
 1503SOL    HW2  963   2.664   1.231   2.849
 1505SOL     OW  964   2.547   1.012   2.527
 1505SOL    HW1  965   2.616   0.996   2.597
 1505SOL    HW2  966   2.474   1.069   2.565
 1506SOL     OW  967   2.548   1.161   3.665
 1506SOL    HW1  968   2.608   1.240   3.679
 1506SOL    HW2  969   2.462   1.192   3.624
 1507SOL     OW  970   2.197   1.435   2.923
 1507SOL    HW1  971   2.119   1.404   2.870
 1507SOL    HW2  972   2.255   1.493   2.866
 1508SOL     OW  973   3.322   1.505   3.201
 1508SOL    HW1  974   3.346   1.599   3.227
 1508SOL    HW2  975   3.306   1.451   3.283
 1511SOL     OW  976   2.093   1.713   2.345
 1511SOL    HW1  977   2.127   1.790   2.399
 1511SOL    HW2  978   2.137   1.713   2.255
 1512SOL     OW  979   2.989   1.341   3.552
 1512SOL    HW1  980   3.036   1.341   3.640
 1512SOL    HW2  981   2.941   1.254   3.541
 1513SOL     OW  982   2.092   1.434   2.400
 1513SOL    HW1  983   2.066   1.530   2.400
 1513SOL    HW2  984   2.021   1.380   2.445
 1514SOL     OW  985   2.102   1.091   2.748
 1514SOL    HW1  986   2.116   1.007   2.800
 1514SOL    HW2  987   2.047   1.155   2.803
 1515SOL     OW  988   2.482   1.786   3.301
 1515SOL    HW1  989   2.390   1.769   3.336
 1515SOL    HW2  990   2.510   1.878   3.327
 1516SOL     OW  991   2.468   0.964   1.985
 1516SOL    HW1  992   2.475   1.048   1.931
 1516SOL    HW2  993   2.514   0.977   2.073
 1518SOL     OW  994   1.984   0.643   2.425
 1518SOL    HW1  995   1.939   0.555   2.442
 1518SOL    HW2  996   1.983   0.697   2.509
 1519SOL     OW  997   3.704   1.767   2.221
 1519SOL    HW1  998   3.758   1.738   2.301
 1519SOL    HW2  999   3.734   1.857   2.192
 1520SOL     OW 1000   1.889   1.596   1.979
 1520SOL    HW1 1001   1.870   1.500   2.000
 1520SOL    HW2 1002   1.856   1.654   2.054
 1522SOL     OW 1003   3.503   1.108   2.294
 1522SOL    HW1 1004   3.589   1.110   2.242
 1522SOL    HW2 1005   3.517   1.155   2.382
 1524SOL     OW 1006   2.475   1.365   2.588
 1524SOL    HW1 1007   2.426   1.278   2.597
 1524SOL    HW2 1008   2.452   1.408   2.501
 1525SOL     OW 1009   3.155   1.228   3.285
 1525SOL    HW1 1010   3.192   1.155   3.227
 1525SOL    HW2 1011   3.207   1.233   3.370
 1527SOL     OW 1012   2.059   0.976   3.126
 1527SOL    HW1 1013   2.148   0.931   3.112
 1527SOL    HW2 1014   1.986   0.911   3.107
 1528SOL     OW 1015   3.387   0.999   2.052
 1528SOL    HW1 1016   3.324   0.923   2.065
 1528SOL    HW2 1017   3.435   1.017   2.138
 1529SOL     OW 1018   3.049   1.792   3.478
 1529SOL    HW1 1019   3.073   1.852   3.402
 1529SOL    HW2 1020   3.056   1.697   3.448
 1531SOL     OW 1021   3.328   1.417   2.815
 1531SOL    HW1 1022   3.269   1.423   2.895
 1531SOL    HW2 1023   3.313   1.329   2.769
 1532SOL     OW 1024   3.529   1.714   2.434
 1532SOL    HW1 1025   3.488   1.691   2.346
 1532SOL    HW2 1026   3.511   1.640   2.499
 1533SOL     OW 1027   2.460   0.729   2.132
 1533SOL    HW1 1028   2.484   0.798   2.064
 1533SOL    HW2 1029   2.382   0.762   2.186
 1535SOL     OW 1030   3.438   1.662   2.169
 1535SOL    HW1 1031   3.527   1.708   2.172
 1535SOL    HW2 1032   3.417   1.638   2.074
 1540SOL     OW 1033   2.903   0.701   2.291
 1540SOL    HW1 1034   2.929   0.697   2.387
 1540SOL    HW2 1035   2.818   0.650   2.277
 1541SOL     OW 1036   1.938   0.811   2.651
 1541SOL    HW1 1037   2.037   0.799   2.660
 1541SOL    HW2 1038   1.914   0.906   2.672
 1542SOL     OW 1039   1.992   1.821   3.433
 1542SOL    HW1 1040   1.982   1.806   3.532
 1542SOL    HW2 1041   1.906   1.857   3.397
 1545SOL     OW 1042   3.224   1.144   2.407
 1545SOL    HW1 1043   3.307   1.115   2.359
 1545SOL    HW2 1044   3.175   1.211   2.351
 1547SOL     OW 1045   2.870   1.456   2.339
 1547SOL    HW1 1046   2.824   1.528   2.287
 1547SOL    HW2 1047   2.866   1.476   2.437
 1548SOL     OW 1048   2.213   1.801   2.715
 1548SOL    HW1 1049   2.263   1.715   2.721
 1548SOL    HW2 1050   2.278   1.878   2.712
 1550SOL     OW 1051   3.089   1.550   3.368
 1550SOL    HW1 1052   3.095   1.473   3.432
 1550SOL    HW2 1053   3.037   1.524   3.288
 1551SOL     OW 1054   2.183   0.943   2.104
 1551SOL    HW1 1055   2.265   0.982   2.062
 1551SOL    HW2 1056   2.156   0.861   2.055
 1553SOL     OW 1057   2.323   1.266   3.589
 1553SOL    HW1 1058   2.273   1.267   3.503
 1553SOL    HW2 1059   2.260   1.248   3.665
 1554SOL     OW 1060   2.973   1.776   2.099
 1554SOL    HW1 1061   2.913   1.714   2.149
 1554SOL    HW2 1062   3.004   1.732   2.014
 1556SOL     OW 1063   3.494   1.377   1.943
 1556SOL    HW1 1064   3.462   1.471   1.933
 1556SOL    HW2 1065   3.418   1.314   1.931
 1557SOL     OW 1066   2.326   1.743   2.185
 1557SOL    HW1 1067   2.359   1.782   2.271
 1557SOL    HW2 1068   2.402   1.736   2.120
 1559SOL     OW 1069   2.111   1.785   3.103
 1559SOL    HW1 1070   2.168   1.720   3.153
 1559SOL    HW2 1071   2.095   1.752   3.010
 1560SOL     OW 1072   2.802   1.698   2.766
 1560SOL    HW1 1073   2.882   1.641   2.787
 1560SOL    HW2 1074   2.753   1.658   2.689
 1561SOL     OW 1075   2.244   0.700   2.342
 1561SOL    HW1 1076   2.289   0.610   2.339
 1561SOL    HW2 1077   2.150   0.689   2.375
 1565SOL     OW 1078   2.750   1.514   3.057
 1565SOL    HW1 1079   2.727   1.489   2.963
 1565SOL    HW2 1080   2.811   1.445   3.096
 1567SOL     OW 1081   2.665   1.402   2.786
 1567SOL    HW1 1082   2.755   1.416   2.744
 1567SOL    HW2 1083   2.594   1.404   2.715
 1570SOL     OW 1084   3.296   1.188   1.903
 1570SOL    HW1 1085   3.328   1.112   1.960
 1570SOL    HW2 1086   3.204   1.215   1.933
 1574SOL     OW 1087   3.089   1.570   2.655
 1574SOL    HW1 1088   3.110   1.644   2.590
 1574SOL    HW2 1089   3.157   1.570   2.728
 1575SOL     OW 1090   2.321   1.152   2.603
 1575SOL    HW1 1091   2.250   1.125   2.668
 1575SOL    HW2 1092   2.295   1.124   2.510
 1576SOL     OW 1093   3.133   1.797   2.453
 1576SOL    HW1 1094   3.177   1.861   2.389
 1576SOL    HW2 1095   3.083   1.849   2.523
 1582SOL     OW 1096   3.291   1.173   2.729
 1582SOL    HW1 1097   3.236   1.089   2.722
 1582SOL    HW2 1098   3.317   1.202   2.637
 1585SOL     OW 1099   2.350   1.385   2.036
 1585SOL    HW1 1100   2.263   1.370   2.083
 1585SOL    HW2 1101   2.333   1.411   1.941
 1586SOL     OW 1102   3.526   1.280   2.519
 1586SOL    HW1 1103   3.625   1.288   2.533
 1586SOL    HW2 1104   3.481   1.364   2.550
 1590SOL     OW 1105   2.926   1.347   3.202
 1590SOL    HW1 1106   2.846   1.324   3.257
 1590SOL    HW2 1107   3.009   1.321   3.251
 1591SOL     OW 1108   3.454   1.629   3.487
 1591SOL    HW1 1109   3.481   1.663   3.397
 1591SOL    HW2 1110   3.533   1.591   3.533
 1592SOL     OW 1111   2.973   1.195   2.962
 1592SOL    HW1 1112   2.933   1.239   3.043
 1592SOL    HW2 1113   2.932   1.232   2.879
 1596SOL     OW 1114   2.567   1.050   2.230
 1596SOL    HW1 1115   2.553   1.057   2.329
 1596SOL    HW2 1116   2.651   0.999   2.212
 1597SOL     OW 1117   2.272   0.813   3.113
 1597SOL    HW1 1118   2.358   0.825   3.163
 1597SOL    HW2 1119   2.230   0.726   3.140
 1599SOL     OW 1120   1.926   1.564   3.193
 1599SOL    HW1 1121   1.880   1.646   3.159
 1599SOL    HW2 1122   2.024   1.583   3.202
 1600SOL     OW 1123   2.229   1.100   2.363
 1600SOL    HW1 1124   2.222   1.183   2.307
 1600SOL    HW2 1125   2.233   1.020   2.303
 1602SOL     OW 1126   3.114   1.348   2.250
 1602SOL    HW1 1127   3.164   1.425   2.290
 1602SOL    HW2 1128   3.019   1.350   2.282
 1603SOL     OW 1129   3.134   1.445   3.004
 1603SOL    HW1 1130   3.181   1.458   3.091
 1603SOL    HW2 1131   3.068   1.371   3.013
 1605SOL     OW 1132   2.216   1.510   3.191
 1605SOL    HW1 1133   2.195   1.466   3.104
 1605SOL    HW2 1134   2.313   1.536   3.194
 1610SOL     OW 1135   2.435   0.870   2.891
 1610SOL    HW1 1136   2.479   0.959   2.882
 1610SOL    HW2 1137   2.372   0.870   2.968
 1614SOL     OW 1138   1.899   1.310   3.144
 1614SOL    HW1 1139   1.952   1.261   3.212
 1614SOL    HW2 1140   1.921   1.408   3.149
 1619SOL     OW 1141   2.885   0.766   2.828
 1619SOL    HW1 1142   2.900   0.787   2.924
 1619SOL    HW2 1143   2.855   0.671   2.819
 1620SOL     OW 1144   2.842   1.573   3.562
 1620SOL    HW1 1145   2.822   1.617   3.474
 1620SOL    HW2 1146   2.881   1.482   3.546
 1624SOL     OW 1147   3.165   0.838   1.904
 1624SOL    HW1 1148   3.199   0.745   1.919
 1624SOL    HW2 1149   3.183   0.865   1.809
 1625SOL     OW 1150   2.930   1.333   2.711
 1625SOL    HW1 1151   2.937   1.249   2.656
 1625SOL    HW2 1152   2.992   1.402   2.675
 1626SOL     OW 1153   2.181   0.810   2.811
 1626SOL    HW1 1154   2.274   0.846   2.816
 1626SOL    HW2 1155   2.175   0.725   2.863
 1630SOL     OW 1156   1.870   1.326   2.062
 1630SOL    HW1 1157   1.777   1.347   2.031
 1630SOL    HW2 1158   1.880   1.227   2.075
 1631SOL     OW 1159   1.950   1.801   2.789
 1631SOL    HW1 1160   1.908   1.715   2.762
 1631SOL    HW2 1161   2.044   1.804   2.755
 1632SOL     OW 1162   2.366   1.568   2.772
 1632SOL    HW1 1163   2.432   1.642   2.781
 1632SOL    HW2 1164   2.410   1.489   2.730
 1633SOL     OW 1165   2.864   0.796   3.100
 1633SOL    HW1 1166   2.905   0.764   3.186
 1633SOL    HW2 1167   2.768   0.769   3.097
 1637SOL     OW 1168   2.677   0.572   2.187
 1637SOL    HW1 1169   2.684   0.483   2.141
 1637SOL    HW2 1170   2.583   0.606   2.179
 1639SOL     OW 1171   2.114   1.564   3.606
 1639SOL    HW1 1172   2.084   1.621   3.682
 1639SOL    HW2 1173   2.107   1.467   3.632
 1641SOL     OW 1174   2.792   1.678   3.327
 1641SOL    HW1 1175   2.768   1.660   3.232
 1641SOL    HW2 1176   2.822   1.772   3.337
 1643SOL     OW 1177   2.021   1.137   3.328
 1643SOL    HW1 1178   2.043   1.076   3.404
 1643SOL    HW2 1179   2.031   1.088   3.242
 1644SOL     OW 1180   3.209   1.059   3.096
 1644SOL    HW1 1181   3.233   0.996   3.022
 1644SOL    HW2 1182   3.119   1.099   3.078
 1645SOL     OW 1183   3.164   0.855   2.171
 1645SOL    HW1 1184   3.078   0.824   2.213
 1645SOL    HW2 1185   3.160   0.841   2.072
 1646SOL     OW 1186   3.621   1.747   3.016
 1646SOL    HW1 1187   3.682   1.777   2.943
 1646SOL    HW2 1188   3.583   1.658   2.994
 1647SOL     OW 1189   3.114   1.731   2.990
 1647SOL    HW1 1190   3.198   1.736   2.936
 1647SOL    HW2 1191   3.091   1.635   3.008
 1648SOL     OW 1192   1.945   1.258   2.884
 1648SOL    HW1 1193   1.940   1.257   2.984
 1648SOL    HW2 1194   1.862   1.217   2.846
 1649SOL     OW 1195   2.550   1.662   3.578
 1649SOL    HW1 1196   2.494   1.743   3.587
 1649SOL    HW2 1197   2.602   1.666   3.492
 1651SOL     OW 1198   3.250   1.573   2.339
 1651SOL    HW1 1199   3.317   1.585   2.265
 1651SOL    HW2 1200   3.210   1.662   2.362
 1652SOL     OW 1201   1.992   1.794   3.713
 1652SOL    HW1 1202   1.951   1.720   3.766
 1652SOL    HW2 1203   2.056   1.845   3.771
 1653SOL     OW 1204   3.142   0.927   2.534
 1653SOL    HW1 1205   3.202   0.846   2.536
 1653SOL    HW2 1206   3.182   0.996   2.474
 1654SOL     OW 1207   2.692   1.273   3.284
 1654SOL    HW1 1208   2.687   1.306   3.379
 1654SOL    HW2 1209   2.606   1.292   3.238
 1655SOL     OW 1210   2.534   1.616   2.016
 1655SOL    HW1 1211   2.543   1.626   1.917
 1655SOL    HW2 1212   2.494   1.527   2.037
 1656SOL     OW 1213   3.512   1.720   3.256
 1656SOL    HW1 1214   3.565   1.730   3.172
 1656SOL    HW2 1215   3.485   1.810   3.290
 1659SOL     OW 1216   3.056   1.612   1.893
 1659SOL    HW1 1217   3.062   1.519   1.930
 1659SOL    HW2 1218   2.997   1.612   1.813
 1660SOL     OW 1219   2.684   1.002   3.234
 1660SOL    HW1 1220   2.724   1.001   3.142
 1660SOL    HW2 1221   2.694   1.094   3.274
 1661SOL     OW 1222   2.778   0.910   2.153
 1661SOL    HW1 1223   2.841   0.948   2.085
 1661SOL    HW2 1224   2.818   0.827   2.192
 1662SOL     OW 1225   3.366   1.607   1.906
 1662SOL    HW1 1226   3.274   1.644   1.913
 1662SOL    HW2 1227   3.404   1.627   1.816
 1663SOL     OW 1228   2.234   1.288   3.352
 1663SOL    HW1 1229   2.221   1.381   3.318
 1663SOL    HW2 1230   2.150   1.236   3.339
 1664SOL     OW 1231   3.476   1.292   3.151
 1664SOL    HW1 1232   3.536   1.295   3.231
 1664SOL    HW2 1233   3.401   1.356   3.164
 1665SOL     OW 1234   2.901   1.098   2.558
 1665SOL    HW1 1235   2.831   1.051   2.612
 1665SOL    HW2 1236   2.960   1.030   2.515
 1667SOL     OW 1237   2.452   1.487   2.353
 1667SOL    HW1 1238   2.494   1.429   2.283
 1667SOL    HW2 1239   2.408   1.566   2.309
 1669SOL     OW 1240   2.117   1.348   2.152
 1669SOL    HW1 1241   2.021   1.349   2.125
 1669SOL    HW2 1242   2.129   1.401   2.236
 1675SOL     OW 1243   3.045   1.335   1.981
 1675SOL    HW1 1244   2.946   1.324   1.983
 1675SOL    HW2 1245   3.079   1.350   2.074
 1676SOL     OW 1246   2.475   0.842   3.293
 1676SOL    HW1 1247   2.531   0.923   3.276
 1676SOL    HW2 1248   2.534   0.762   3.296
 1677SOL     OW 1249   3.355   1.767   2.821
 1677SOL    HW1 1250   3.388   1.831   2.752
 1677SOL    HW2 1251   3.421   1.761   2.896
 1680SOL     OW 1252   2.252   1.741   3.422
 1680SOL    HW1 1253   2.161   1.782   3.420
 1680SOL    HW2 1254   2.245   1.647   3.454
 1683SOL     OW 1255   2.456   0.745   2.514
 1683SOL    HW1 1256   2.506   0.830   2.495
 1683SOL    HW2 1257   2.368   0.747   2.466
 1686SOL     OW 1258   2.721   1.374   1.878
 1686SOL    HW1 1259   2.675   1.389   1.966
 1686SOL    HW2 1260   2.765   1.459   1.848
 1687SOL     OW 1261   2.523   1.790   2.815
 1687SOL    HW1 1262   2.477   1.878   2.802
 1687SOL    HW2 1263   2.622   1.802   2.808
 1688SOL     OW 1264   2.721   0.956   2.723
 1688SOL    HW1 1265   2.775   0.887   2.771
 1688SOL    HW2 1266   2.689   1.025   2.789
 1689SOL     OW 1267   2.945   0.984   1.949
 1689SOL    HW1 1268   2.922   1.037   1.867
 1689SOL    HW2 1269   3.026   0.928   1.930
 1690SOL     OW 1270   3.723   1.569   2.713
 1690SOL    HW1 1271   3.652   1.557   2.643
 1690SOL    HW2 1272   3.724   1.490   2.773
 1691SOL     OW 1273   2.083   1.314   3.706
 1691SOL    HW1 1274   2.018   1.241   3.685
 1691SOL    HW2 1275   2.087   1.328   3.804
 1692SOL     OW 1276   1.941   1.240   2.515
 1692SOL    HW1 1277   1.940   1.193   2.603
 1692SOL    HW2 1278   2.023   1.212   2.464
 1693SOL     OW 1279   2.534   1.391   3.486
 1693SOL    HW1 1280   2.456   1.341   3.524
 1693SOL    HW2 1281   2.531   1.486   3.517
 1696SOL     OW 1282   3.567   1.487   2.966
 1696SOL    HW1 1283   3.474   1.462   2.939
 1696SOL    HW2 1284   3.593   1.437   3.048
 1698SOL     OW 1285   2.674   1.586   2.549
 1698SOL    HW1 1286   2.706   1.596   2.455
 1698SOL    HW2 1287   2.595   1.524   2.551
 1701SOL     OW 1288   2.632   1.330   2.163
 1701SOL    HW1 1289   2.586   1.243   2.180
 1701SOL    HW2 1290   2.723   1.327   2.204
 1702SOL     OW 1291   2.480   1.567   3.146
 1702SOL    HW1 1292   2.475   1.649   3.203
 1702SOL    HW2 1293   2.569   1.564   3.101
 1706SOL     OW 1294   1.901   1.077   2.162
 1706SOL    HW1 1295   2.000   1.066   2.153
 1706SOL    HW2 1296   1.861   0.991   2.194
 1707SOL     OW 1297   2.737   1.646   2.199
 1707SOL    HW1 1298   2.660   1.611   2.145
 1707SOL    HW2 1299   2.705   1.717   2.261
 1721SOL     OW 1300   1.889   1.596   3.841
 1721SOL    HW1 1301   1.870   1.500   3.862
 1721SOL    HW2 1302   1.856   1.654   3.916
 1776SOL     OW 1303   2.534   1.616   3.878
 1776SOL    HW1 1304   2.543   1.626   3.779
 1776SOL    HW2 1305   2.494   1.527   3.899
 1779SOL     OW 1306   3.056   1.612   3.755
 1779SOL    HW1 1307   3.062   1.519   3.792
 1779SOL    HW2 1308   2.997   1.612   3.675
 1790SOL     OW 1309   2.721   1.374   3.740
 1790SOL    HW1 1310   2.675   1.389   3.828
 1790SOL    HW2 1311   2.765   1.459   3.710
 1804SOL     OW 1312   2.087   2.137   0.996
 1804SOL    HW1 1313   2.122   2.120   1.088
 1804SOL    HW2 1314   1.999   2.092   0.984
 1805SOL     OW 1315   1.881   2.230   0.647
 1805SOL    HW1 1316   1.799   2.273   0.686
 1805SOL    HW2 1317   1.853   2.157   0.584
 1806SOL     OW 1318   2.431   3.137   1.165
 1806SOL    HW1 1319   2.338   3.130   1.128
 1806SOL    HW2 1320   2.442   3.226   1.209
 1808SOL     OW 1321   2.997   2.565   0.717
 1808SOL    HW1 1322   3.054   2.643   0.692
 1808SOL    HW2 1323   2.937   2.591   0.793
 1810SOL     OW 1324   2.630   3.006   1.023
 1810SOL    HW1 1325   2.552   3.023   1.083
 1810SOL    HW2 1326   2.664   3.093   0.987
 1811SOL     OW 1327   2.712   2.660   1.823
 1811SOL    HW1 1328   2.708   2.736   1.888
 1811SOL    HW2 1329   2.734   2.696   1.732
 1812SOL     OW 1330   2.547   2.874   0.665
 1812SOL    HW1 1331   2.616   2.858   0.735
 1812SOL    HW2 1332   2.474   2.931   0.703
 1813SOL     OW 1333   2.548   3.023   1.803
 1813SOL    HW1 1334   2.608   3.102   1.817
 1813SOL    HW2 1335   2.462   3.054   1.762
 1814SOL     OW 1336   2.197   3.297   1.061
 1814SOL    HW1 1337   2.119   3.266   1.008
 1814SOL    HW2 1338   2.255   3.355   1.004
 1815SOL     OW 1339   3.322   3.367   1.339
 1815SOL    HW1 1340   3.346   3.461   1.365
 1815SOL    HW2 1341   3.306   3.313   1.421
 1816SOL     OW 1342   2.300   2.254   1.499
 1816SOL    HW1 1343   2.382   2.198   1.508
 1816SOL    HW2 1344   2.219   2.196   1.503
 1819SOL     OW 1345   2.989   3.203   1.690
 1819SOL    HW1 1346   3.036   3.203   1.778
 1819SOL    HW2 1347   2.941   3.116   1.679
 1821SOL     OW 1348   2.102   2.953   0.886
 1821SOL    HW1 1349   2.116   2.869   0.938
 1821SOL    HW2 1350   2.047   3.017   0.941
 1822SOL     OW 1351   2.482   3.648   1.439
 1822SOL    HW1 1352   2.390   3.631   1.474
 1822SOL    HW2 1353   2.510   3.740   1.465
 1824SOL     OW 1354   3.456   1.976   1.480
 1824SOL    HW1 1355   3.438   2.043   1.408
 1824SOL    HW2 1356   3.453   2.022   1.569
 1825SOL     OW 1357   1.984   2.505   0.563
 1825SOL    HW1 1358   1.939   2.417   0.580
 1825SOL    HW2 1359   1.983   2.559   0.647
 1830SOL     OW 1360   1.975   2.599   1.597
 1830SOL    HW1 1361   2.063   2.586   1.642
 1830SOL    HW2 1362   1.962   2.696   1.575
 1832SOL     OW 1363   3.155   3.090   1.423
 1832SOL    HW1 1364   3.192   3.017   1.365
 1832SOL    HW2 1365   3.207   3.095   1.508
 1834SOL     OW 1366   2.059   2.838   1.264
 1834SOL    HW1 1367   2.148   2.793   1.250
 1834SOL    HW2 1368   1.986   2.773   1.245
 1836SOL     OW 1369   3.049   3.654   1.616
 1836SOL    HW1 1370   3.073   3.714   1.540
 1836SOL    HW2 1371   3.056   3.559   1.586
 1837SOL     OW 1372   2.179   2.113   1.801
 1837SOL    HW1 1373   2.250   2.184   1.807
 1837SOL    HW2 1374   2.091   2.152   1.829
 1841SOL     OW 1375   3.143   2.207   0.944
 1841SOL    HW1 1376   3.057   2.157   0.931
 1841SOL    HW2 1377   3.205   2.153   1.000
 1843SOL     OW 1378   2.669   2.467   1.465
 1843SOL    HW1 1379   2.622   2.464   1.554
 1843SOL    HW2 1380   2.618   2.412   1.399
 1844SOL     OW 1381   3.256   2.331   1.674
 1844SOL    HW1 1382   3.236   2.374   1.762
 1844SOL    HW2 1383   3.334   2.269   1.683
 1845SOL     OW 1384   2.835   2.752   1.572
 1845SOL    HW1 1385   2.881   2.668   1.543
 1845SOL    HW2 1386   2.779   2.786   1.497
 1846SOL     OW 1387   2.853   2.272   1.242
 1846SOL    HW1 1388   2.776   2.306   1.296
 1846SOL    HW2 1389   2.819   2.221   1.163
 1848SOL     OW 1390   1.938   2.673   0.789
 1848SOL    HW1 1391   2.037   2.661   0.798
 1848SOL    HW2 1392   1.914   2.768   0.810
 1849SOL     OW 1393   1.992   3.683   1.571
 1849SOL    HW1 1394   1.982   3.668   1.670
 1849SOL    HW2 1395   1.906   3.719   1.535
 1851SOL     OW 1396   3.581   2.447   1.831
 1851SOL    HW1 1397   3.555   2.536   1.795
 1851SOL    HW2 1398   3.579   2.379   1.758
 1853SOL     OW 1399   2.412   2.058   0.885
 1853SOL    HW1 1400   2.407   2.053   0.985
 1853SOL    HW2 1401   2.414   2.154   0.856
 1857SOL     OW 1402   3.089   3.412   1.506
 1857SOL    HW1 1403   3.095   3.335   1.570
 1857SOL    HW2 1404   3.037   3.386   1.426
 1860SOL     OW 1405   2.323   3.128   1.727
 1860SOL    HW1 1406   2.273   3.129   1.641
 1860SOL    HW2 1407   2.260   3.110   1.803
 1862SOL     OW 1408   2.064   2.147   1.498
 1862SOL    HW1 1409   1.984   2.207   1.485
 1862SOL    HW2 1410   2.054   2.098   1.584
 1866SOL     OW 1411   2.111   3.647   1.241
 1866SOL    HW1 1412   2.168   3.582   1.291
 1866SOL    HW2 1413   2.095   3.614   1.148
 1869SOL     OW 1414   3.409   2.084   1.729
 1869SOL    HW1 1415   3.404   2.121   1.821
 1869SOL    HW2 1416   3.337   2.015   1.717
 1870SOL     OW 1417   2.643   2.126   1.749
 1870SOL    HW1 1418   2.710   2.065   1.792
 1870SOL    HW2 1419   2.570   2.145   1.814
 1871SOL     OW 1420   2.750   3.376   1.195
 1871SOL    HW1 1421   2.727   3.351   1.101
 1871SOL    HW2 1422   2.811   3.307   1.234
 1872SOL     OW 1423   3.213   2.452   1.433
 1872SOL    HW1 1424   3.241   2.409   1.518
 1872SOL    HW2 1425   3.238   2.548   1.434
 1873SOL     OW 1426   2.665   3.264   0.924
 1873SOL    HW1 1427   2.755   3.278   0.882
 1873SOL    HW2 1428   2.594   3.266   0.853
 1874SOL     OW 1429   2.784   2.365   0.899
 1874SOL    HW1 1430   2.759   2.356   0.803
 1874SOL    HW2 1431   2.832   2.283   0.930
 1879SOL     OW 1432   2.938   2.545   1.464
 1879SOL    HW1 1433   2.858   2.484   1.467
 1879SOL    HW2 1434   3.019   2.492   1.440
 1881SOL     OW 1435   2.321   3.014   0.741
 1881SOL    HW1 1436   2.250   2.987   0.806
 1881SOL    HW2 1437   2.295   2.986   0.648
 1884SOL     OW 1438   1.940   2.418   1.386
 1884SOL    HW1 1439   2.032   2.417   1.345
 1884SOL    HW2 1440   1.934   2.492   1.453
 1885SOL     OW 1441   2.423   2.084   1.147
 1885SOL    HW1 1442   2.461   2.000   1.184
 1885SOL    HW2 1443   2.335   2.103   1.191
 1886SOL     OW 1444   2.728   2.316   0.642
 1886SOL    HW1 1445   2.696   2.388   0.580
 1886SOL    HW2 1446   2.752   2.235   0.589
 1887SOL     OW 1447   2.879   1.901   0.753
 1887SOL    HW1 1448   2.807   1.906   0.684
 1887SOL    HW2 1449   2.855   1.832   0.822
 1889SOL     OW 1450   3.328   2.452   0.992
 1889SOL    HW1 1451   3.298   2.357   0.999
 1889SOL    HW2 1452   3.401   2.468   1.058
 1895SOL     OW 1453   3.616   3.085   1.588
 1895SOL    HW1 1454   3.707   3.046   1.575
 1895SOL    HW2 1455   3.624   3.181   1.612
 1896SOL     OW 1456   2.926   3.209   1.340
 1896SOL    HW1 1457   2.846   3.186   1.395
 1896SOL    HW2 1458   3.009   3.183   1.389
 1897SOL     OW 1459   3.454   3.491   1.625
 1897SOL    HW1 1460   3.481   3.525   1.535
 1897SOL    HW2 1461   3.533   3.453   1.671
 1898SOL     OW 1462   2.973   3.057   1.100
 1898SOL    HW1 1463   2.933   3.101   1.181
 1898SOL    HW2 1464   2.932   3.094   1.017
 1900SOL     OW 1465   2.777   1.951   1.402
 1900SOL    HW1 1466   2.802   1.931   1.307
 1900SOL    HW2 1467   2.849   2.007   1.444
 1901SOL     OW 1468   2.842   2.978   1.719
 1901SOL    HW1 1469   2.743   2.984   1.729
 1901SOL    HW2 1470   2.865   2.898   1.663
 1903SOL     OW 1471   2.272   2.675   1.251
 1903SOL    HW1 1472   2.358   2.687   1.301
 1903SOL    HW2 1473   2.230   2.588   1.278
 1904SOL     OW 1474   3.136   2.248   1.262
 1904SOL    HW1 1475   3.157   2.322   1.326
 1904SOL    HW2 1476   3.047   2.265   1.219
 1905SOL     OW 1477   1.926   3.426   1.331
 1905SOL    HW1 1478   1.880   3.508   1.297
 1905SOL    HW2 1479   2.024   3.445   1.340
 1907SOL     OW 1480   2.428   2.399   0.865
 1907SOL    HW1 1481   2.440   2.465   0.791
 1907SOL    HW2 1482   2.474   2.433   0.948
 1909SOL     OW 1483   3.134   3.307   1.142
 1909SOL    HW1 1484   3.181   3.320   1.229
 1909SOL    HW2 1485   3.068   3.233   1.151
 1911SOL     OW 1486   2.216   3.372   1.329
 1911SOL    HW1 1487   2.195   3.328   1.242
 1911SOL    HW2 1488   2.313   3.398   1.332
 1912SOL     OW 1489   2.264   2.613   1.598
 1912SOL    HW1 1490   2.332   2.668   1.551
 1912SOL    HW2 1491   2.304   2.525   1.625
 1913SOL     OW 1492   3.449   2.641   1.670
 1913SOL    HW1 1493   3.357   2.679   1.665
 1913SOL    HW2 1494   3.509   2.688   1.605
 1914SOL     OW 1495   2.875   1.967   1.770
 1914SOL    HW1 1496   2.881   2.052   1.718
 1914SOL    HW2 1497   2.907   1.891   1.713
 1915SOL     OW 1498   2.366   1.912   1.740
 1915SOL    HW1 1499   2.324   1.855   1.670
 1915SOL    HW2 1500   2.300   1.981   1.772
 1916SOL     OW 1501   2.435   2.732   1.029
 1916SOL    HW1 1502   2.479   2.821   1.020
 1916SOL    HW2 1503   2.372   2.732   1.106
 1917SOL     OW 1504   3.222   2.724   1.045
 1917SOL    HW1 1505   3.147   2.724   0.979
 1917SOL    HW2 1506   3.259   2.632   1.054
 1919SOL     OW 1507   2.169   2.075   1.231
 1919SOL    HW1 1508   2.146   2.112   1.321
 1919SOL    HW2 1509   2.139   1.980   1.225
 1920SOL     OW 1510   1.899   3.172   1.282
 1920SOL    HW1 1511   1.952   3.123   1.350
 1920SOL    HW2 1512   1.921   3.270   1.287
 1921SOL     OW 1513   2.594   2.496   1.064
 1921SOL    HW1 1514   2.653   2.470   0.988
 1921SOL    HW2 1515   2.566   2.592   1.053
 1922SOL     OW 1516   3.590   2.797   1.854
 1922SOL    HW1 1517   3.544   2.790   1.765
 1922SOL    HW2 1518   3.528   2.841   1.920
 1923SOL     OW 1519   2.169   1.925   0.618
 1923SOL    HW1 1520   2.158   2.019   0.651
 1923SOL    HW2 1521   2.164   1.862   0.695
 1925SOL     OW 1522   2.885   2.628   0.966
 1925SOL    HW1 1523   2.900   2.649   1.062
 1925SOL    HW2 1524   2.855   2.533   0.957
 1926SOL     OW 1525   2.842   3.435   1.700
 1926SOL    HW1 1526   2.822   3.479   1.612
 1926SOL    HW2 1527   2.881   3.344   1.684
 1928SOL     OW 1528   2.212   2.760   1.804
 1928SOL    HW1 1529   2.288   2.804   1.852
 1928SOL    HW2 1530   2.247   2.713   1.722
 1932SOL     OW 1531   2.181   2.672   0.949
 1932SOL    HW1 1532   2.274   2.708   0.954
 1932SOL    HW2 1533   2.175   2.587   1.001
 1933SOL     OW 1534   2.201   2.371   1.006
 1933SOL    HW1 1535   2.149   2.288   0.989
 1933SOL    HW2 1536   2.278   2.376   0.942
 1934SOL     OW 1537   3.000   2.242   1.678
 1934SOL    HW1 1538   2.955   2.305   1.742
 1934SOL    HW2 1539   3.093   2.273   1.661
 1935SOL     OW 1540   3.022   2.069   1.477
 1935SOL    HW1 1541   3.022   2.133   1.554
 1935SOL    HW2 1542   3.050   2.117   1.394
 1938SOL     OW 1543   2.366   3.430   0.910
 1938SOL    HW1 1544   2.432   3.504   0.919
 1938SOL    HW2 1545   2.410   3.351   0.868
 1939SOL     OW 1546   2.864   2.658   1.238
 1939SOL    HW1 1547   2.905   2.626   1.324
 1939SOL    HW2 1548   2.768   2.631   1.235
 1940SOL     OW 1549   1.902   2.406   1.114
 1940SOL    HW1 1550   1.987   2.373   1.073
 1940SOL    HW2 1551   1.915   2.421   1.212
 1941SOL     OW 1552   2.051   2.382   1.722
 1941SOL    HW1 1553   2.110   2.342   1.652
 1941SOL    HW2 1554   1.993   2.453   1.681
 1942SOL     OW 1555   3.231   2.812   1.660
 1942SOL    HW1 1556   3.270   2.901   1.680
 1942SOL    HW2 1557   3.241   2.792   1.563
 1944SOL     OW 1558   3.519   2.466   1.206
 1944SOL    HW1 1559   3.481   2.397   1.268
 1944SOL    HW2 1560   3.601   2.430   1.162
 1945SOL     OW 1561   2.114   3.426   1.744
 1945SOL    HW1 1562   2.084   3.483   1.820
 1945SOL    HW2 1563   2.107   3.329   1.770
 1946SOL     OW 1564   2.533   2.326   1.269
 1946SOL    HW1 1565   2.499   2.237   1.239
 1946SOL    HW2 1566   2.559   2.380   1.189
 1947SOL     OW 1567   2.792   3.540   1.465
 1947SOL    HW1 1568   2.768   3.522   1.370
 1947SOL    HW2 1569   2.822   3.634   1.475
 1949SOL     OW 1570   2.021   2.999   1.466
 1949SOL    HW1 1571   2.043   2.938   1.542
 1949SOL    HW2 1572   2.031   2.950   1.380
 1950SOL     OW 1573   3.209   2.921   1.234
 1950SOL    HW1 1574   3.233   2.858   1.160
 1950SOL    HW2 1575   3.119   2.961   1.216
 1954SOL     OW 1576   1.945   3.120   1.022
 1954SOL    HW1 1577   1.940   3.119   1.122
 1954SOL    HW2 1578   1.862   3.079   0.984
 1955SOL     OW 1579   2.550   3.524   1.716
 1955SOL    HW1 1580   2.494   3.605   1.725
 1955SOL    HW2 1581   2.602   3.528   1.630
 1959SOL     OW 1582   1.992   3.656   1.851
 1959SOL    HW1 1583   1.951   3.582   1.904
 1959SOL    HW2 1584   2.056   3.707   1.909
 1961SOL     OW 1585   2.692   3.135   1.422
 1961SOL    HW1 1586   2.687   3.168   1.517
 1961SOL    HW2 1587   2.606   3.154   1.376
 1965SOL     OW 1588   2.125   2.188   0.720
 1965SOL    HW1 1589   2.046   2.239   0.686
 1965SOL    HW2 1590   2.116   2.173   0.818
 1967SOL     OW 1591   2.684   2.864   1.372
 1967SOL    HW1 1592   2.724   2.863   1.280
 1967SOL    HW2 1593   2.694   2.956   1.412
 1970SOL     OW 1594   2.234   3.150   1.490
 1970SOL    HW1 1595   2.221   3.243   1.456
 1970SOL    HW2 1596   2.150   3.098   1.477
 1971SOL     OW 1597   3.476   3.154   1.289
 1971SOL    HW1 1598   3.536   3.157   1.369
 1971SOL    HW2 1599   3.401   3.218   1.302
 1973SOL     OW 1600   2.876   2.098   0.971
 1973SOL    HW1 1601   2.868   2.062   0.878
 1973SOL    HW2 1602   2.874   2.022   1.036
 1975SOL     OW 1603   3.571   2.247   1.381
 1975SOL    HW1 1604   3.644   2.316   1.385
 1975SOL    HW2 1605   3.599   2.172   1.322
 1977SOL     OW 1606   1.967   2.875   1.726
 1977SOL    HW1 1607   1.890   2.842   1.780
 1977SOL    HW2 1608   2.052   2.845   1.768
 1978SOL     OW 1609   2.534   2.065   1.489
 1978SOL    HW1 1610   2.624   2.049   1.449
 1978SOL    HW2 1611   2.542   2.070   1.588
 1980SOL     OW 1612   3.302   2.718   1.398
 1980SOL    HW1 1613   3.245   2.770   1.335
 1980SOL    HW2 1614   3.398   2.730   1.374
 1983SOL     OW 1615   2.475   2.704   1.431
 1983SOL    HW1 1616   2.531   2.785   1.414
 1983SOL    HW2 1617   2.534   2.624   1.434
 1985SOL     OW 1618   2.578   2.427   1.708
 1985SOL    HW1 1619   2.597   2.492   1.782
 1985SOL    HW2 1620   2.638   2.347   1.717
 1986SOL     OW 1621   3.312   3.082   1.633
 1986SOL    HW1 1622   3.303   3.072   1.732
 1986SOL    HW2 1623   3.408   3.075   1.607
 1987SOL     OW 1624   2.252   3.603   1.560
 1987SOL    HW1 1625   2.161   3.644   1.558
 1987SOL    HW2 1626   2.245   3.509   1.592
 1988SOL     OW 1627   3.536   2.745   1.254
 1988SOL    HW1 1628   3.509   2.656   1.217
 1988SOL    HW2 1629   3.537   2.813   1.181
 1990SOL     OW 1630   2.456   2.607   0.652
 1990SOL    HW1 1631   2.506   2.692   0.633
 1990SOL    HW2 1632   2.368   2.609   0.604
 1991SOL     OW 1633   3.639   2.204   1.642
 1991SOL    HW1 1634   3.622   2.235   1.548
 1991SOL    HW2 1635   3.555   2.167   1.680
 1992SOL     OW 1636   3.592   2.796   1.517
 1992SOL    HW1 1637   3.630   2.887   1.532
 1992SOL    HW2 1638   3.584   2.779   1.418
 1995SOL     OW 1639   2.721   2.818   0.861
 1995SOL    HW1 1640   2.775   2.749   0.909
 1995SOL    HW2 1641   2.689   2.887   0.927
 1998SOL     OW 1642   2.083   3.176   1.844
 1998SOL    HW1 1643   2.018   3.103   1.823
 1998SOL    HW2 1644   2.087   3.190   1.942
 2000SOL     OW 1645   2.534   3.253   1.624
 2000SOL    HW1 1646   2.456   3.203   1.662
 2000SOL    HW2 1647   2.531   3.348   1.655
 2001SOL     OW 1648   3.686   2.054   1.227
 2001SOL    HW1 1649   3.682   1.964   1.271
 2001SOL    HW2 1650   3.689   2.043   1.128
 2002SOL     OW 1651   2.290   2.286   0.520
 2002SOL    HW1 1652   2.320   2.214   0.458
 2002SOL    HW2 1653   2.251   2.246   0.603
 2004SOL     OW 1654   2.179   2.409   1.280
 2004SOL    HW1 1655   2.217   2.350   1.352
 2004SOL    HW2 1656   2.219   2.383   1.192
 2006SOL     OW 1657   3.286   2.076   1.112
 2006SOL    HW1 1658   3.338   2.011   1.167
 2006SOL    HW2 1659   3.237   2.139   1.173
 2007SOL     OW 1660   2.863   1.896   1.154
 2007SOL    HW1 1661   2.800   1.824   1.123
 2007SOL    HW2 1662   2.956   1.860   1.154
 2009SOL     OW 1663   2.480   3.429   1.284
 2009SOL    HW1 1664   2.475   3.511   1.341
 2009SOL    HW2 1665   2.569   3.426   1.239
 2015SOL     OW 1666   2.092   2.490   1.975
 2015SOL    HW1 1667   1.999   2.488   2.012
 2015SOL    HW2 1668   2.093   2.451   1.883
 2016SOL     OW 1669   2.087   2.137   2.858
 2016SOL    HW1 1670   2.122   2.120   2.950
 2016SOL    HW2 1671   1.999   2.092   2.846
 2017SOL     OW 1672   1.881   2.230   2.509
 2017SOL    HW1 1673   1.799   2.273   2.548
 2017SOL    HW2 1674   1.853   2.157   2.446
 2018SOL     OW 1675   2.431   3.137   3.027
 2018SOL    HW1 1676   2.338   3.130   2.990
 2018SOL    HW2 1677   2.442   3.226   3.071
 2019SOL     OW 1678   3.417   3.373   2.565
 2019SOL    HW1 1679   3.360   3.357   2.646
 2019SOL    HW2 1680   3.358   3.383   2.485
 2020SOL     OW 1681   2.997   2.565   2.579
 2020SOL    HW1 1682   3.054   2.643   2.554
 2020SOL    HW2 1683   2.937   2.591   2.655
 2021SOL     OW 1684   3.617   2.469   2.093
 2021SOL    HW1 1685   3.605   2.456   1.994
 2021SOL    HW2 1686   3.587   2.388   2.142
 2022SOL     OW 1687   2.630   3.006   2.885
 2022SOL    HW1 1688   2.552   3.023   2.945
 2022SOL    HW2 1689   2.664   3.093   2.849
 2023SOL     OW 1690   2.712   2.660   3.685
 2023SOL    HW1 1691   2.708   2.736   3.750
 2023SOL    HW2 1692   2.734   2.696   3.594
 2024SOL     OW 1693   2.547   2.874   2.527
 2024SOL    HW1 1694   2.616   2.858   2.597
 2024SOL    HW2 1695   2.474   2.931   2.565
 2025SOL     OW 1696   2.548   3.023   3.665
 2025SOL    HW1 1697   2.608   3.102   3.679
 2025SOL    HW2 1698   2.462   3.054   3.624
 2026SOL     OW 1699   2.197   3.297   2.923
 2026SOL    HW1 1700   2.119   3.266   2.870
 2026SOL    HW2 1701   2.255   3.355   2.866
 2027SOL     OW 1702   3.322   3.367   3.201
 2027SOL    HW1 1703   3.346   3.461   3.227
 2027SOL    HW2 1704   3.306   3.313   3.283
 2028SOL     OW 1705   2.300   2.254   3.361
 2028SOL    HW1 1706   2.382   2.198   3.370
 2028SOL    HW2 1707   2.219   2.196   3.365
 2029SOL     OW 1708   3.465   2.309   2.599
 2029SOL    HW1 1709   3.391   2.355   2.549
 2029SOL    HW2 1710   3.516   2.377   2.652
 2030SOL     OW 1711   2.093   3.575   2.345
 2030SOL    HW1 1712   2.127   3.652   2.399
 2030SOL    HW2 1713   2.137   3.575   2.255
 2031SOL     OW 1714   2.989   3.203   3.552
 2031SOL    HW1 1715   3.036   3.203   3.640
 2031SOL    HW2 1716   2.941   3.116   3.541
 2032SOL     OW 1717   2.092   3.296   2.400
 2032SOL    HW1 1718   2.066   3.392   2.400
 2032SOL    HW2 1719   2.021   3.242   2.445
 2033SOL     OW 1720   2.102   2.953   2.748
 2033SOL    HW1 1721   2.116   2.869   2.800
 2033SOL    HW2 1722   2.047   3.017   2.803
 2034SOL     OW 1723   2.482   3.648   3.301
 2034SOL    HW1 1724   2.390   3.631   3.336
 2034SOL    HW2 1725   2.510   3.740   3.327
 2035SOL     OW 1726   2.468   2.826   1.985
 2035SOL    HW1 1727   2.475   2.910   1.931
 2035SOL    HW2 1728   2.514   2.839   2.073
 2036SOL     OW 1729   3.456   1.976   3.342
 2036SOL    HW1 1730   3.438   2.043   3.270
 2036SOL    HW2 1731   3.453   2.022   3.431
 2037SOL     OW 1732   1.984   2.505   2.425
 2037SOL    HW1 1733   1.939   2.417   2.442
 2037SOL    HW2 1734   1.983   2.559   2.509
 2039SOL     OW 1735   1.889   3.458   1.979
 2039SOL    HW1 1736   1.870   3.362   2.000
 2039SOL    HW2 1737   1.856   3.516   2.054
 2040SOL     OW 1738   3.551   2.784   2.474
 2040SOL    HW1 1739   3.646   2.755   2.482
 2040SOL    HW2 1740   3.543   2.849   2.399
 2041SOL     OW 1741   3.503   2.970   2.294
 2041SOL    HW1 1742   3.589   2.972   2.242
 2041SOL    HW2 1743   3.517   3.017   2.382
 2042SOL     OW 1744   1.975   2.599   3.459
 2042SOL    HW1 1745   2.063   2.586   3.504
 2042SOL    HW2 1746   1.962   2.696   3.437
 2043SOL     OW 1747   2.475   3.227   2.588
 2043SOL    HW1 1748   2.426   3.140   2.597
 2043SOL    HW2 1749   2.452   3.270   2.501
 2044SOL     OW 1750   3.155   3.090   3.285
 2044SOL    HW1 1751   3.192   3.017   3.227
 2044SOL    HW2 1752   3.207   3.095   3.370
 2045SOL     OW 1753   2.671   1.866   2.364
 2045SOL    HW1 1754   2.711   1.957   2.355
 2045SOL    HW2 1755   2.571   1.874   2.370
 2046SOL     OW 1756   2.059   2.838   3.126
 2046SOL    HW1 1757   2.148   2.793   3.112
 2046SOL    HW2 1758   1.986   2.773   3.107
 2047SOL     OW 1759   3.387   2.861   2.052
 2047SOL    HW1 1760   3.324   2.785   2.065
 2047SOL    HW2 1761   3.435   2.879   2.138
 2049SOL     OW 1762   2.179   2.113   3.663
 2049SOL    HW1 1763   2.250   2.184   3.669
 2049SOL    HW2 1764   2.091   2.152   3.691
 2050SOL     OW 1765   3.328   3.279   2.815
 2050SOL    HW1 1766   3.269   3.285   2.895
 2050SOL    HW2 1767   3.313   3.191   2.769
 2051SOL     OW 1768   3.529   3.576   2.434
 2051SOL    HW1 1769   3.488   3.553   2.346
 2051SOL    HW2 1770   3.511   3.502   2.499
 2052SOL     OW 1771   2.460   2.591   2.132
 2052SOL    HW1 1772   2.484   2.660   2.064
 2052SOL    HW2 1773   2.382   2.624   2.186
 2053SOL     OW 1774   3.143   2.207   2.806
 2053SOL    HW1 1775   3.057   2.157   2.793
 2053SOL    HW2 1776   3.205   2.153   2.862
 2054SOL     OW 1777   3.438   3.524   2.169
 2054SOL    HW1 1778   3.527   3.570   2.172
 2054SOL    HW2 1779   3.417   3.500   2.074
 2055SOL     OW 1780   2.669   2.467   3.327
 2055SOL    HW1 1781   2.622   2.464   3.416
 2055SOL    HW2 1782   2.618   2.412   3.261
 2056SOL     OW 1783   3.256   2.331   3.536
 2056SOL    HW1 1784   3.236   2.374   3.624
 2056SOL    HW2 1785   3.334   2.269   3.545
 2057SOL     OW 1786   2.835   2.752   3.434
 2057SOL    HW1 1787   2.881   2.668   3.405
 2057SOL    HW2 1788   2.779   2.786   3.359
 2058SOL     OW 1789   2.853   2.272   3.104
 2058SOL    HW1 1790   2.776   2.306   3.158
 2058SOL    HW2 1791   2.819   2.221   3.025
 2059SOL     OW 1792   2.903   2.563   2.291
 2059SOL    HW1 1793   2.929   2.559   2.387
 2059SOL    HW2 1794   2.818   2.512   2.277
 2060SOL     OW 1795   1.938   2.673   2.651
 2060SOL    HW1 1796   2.037   2.661   2.660
 2060SOL    HW2 1797   1.914   2.768   2.672
 2062SOL     OW 1798   2.727   2.210   2.057
 2062SOL    HW1 1799   2.786   2.273   2.008
 2062SOL    HW2 1800   2.746   2.116   2.028
 2064SOL     OW 1801   3.224   3.006   2.407
 2064SOL    HW1 1802   3.307   2.977   2.359
 2064SOL    HW2 1803   3.175   3.073   2.351
 2065SOL     OW 1804   2.412   2.058   2.747
 2065SOL    HW1 1805   2.407   2.053   2.847
 2065SOL    HW2 1806   2.414   2.154   2.718
 2066SOL     OW 1807   2.870   3.318   2.339
 2066SOL    HW1 1808   2.824   3.390   2.287
 2066SOL    HW2 1809   2.866   3.338   2.437
 2067SOL     OW 1810   2.213   3.663   2.715
 2067SOL    HW1 1811   2.263   3.577   2.721
 2067SOL    HW2 1812   2.278   3.740   2.712
 2068SOL     OW 1813   3.657   2.928   2.735
 2068SOL    HW1 1814   3.595   2.913   2.659
 2068SOL    HW2 1815   3.605   2.939   2.820
 2069SOL     OW 1816   3.089   3.412   3.368
 2069SOL    HW1 1817   3.095   3.335   3.432
 2069SOL    HW2 1818   3.037   3.386   3.288
 2070SOL     OW 1819   2.183   2.805   2.104
 2070SOL    HW1 1820   2.265   2.844   2.062
 2070SOL    HW2 1821   2.156   2.723   2.055
 2071SOL     OW 1822   3.320   2.597   2.590
 2071SOL    HW1 1823   3.315   2.532   2.665
 2071SOL    HW2 1824   3.400   2.656   2.603
 2072SOL     OW 1825   2.323   3.128   3.589
 2072SOL    HW1 1826   2.273   3.129   3.503
 2072SOL    HW2 1827   2.260   3.110   3.665
 2073SOL     OW 1828   2.973   3.638   2.099
 2073SOL    HW1 1829   2.913   3.576   2.149
 2073SOL    HW2 1830   3.004   3.594   2.014
 2074SOL     OW 1831   2.064   2.147   3.360
 2074SOL    HW1 1832   1.984   2.207   3.347
 2074SOL    HW2 1833   2.054   2.098   3.446
 2075SOL     OW 1834   3.494   3.239   1.943
 2075SOL    HW1 1835   3.462   3.333   1.933
 2075SOL    HW2 1836   3.418   3.176   1.931
 2076SOL     OW 1837   2.326   3.605   2.185
 2076SOL    HW1 1838   2.359   3.644   2.271
 2076SOL    HW2 1839   2.402   3.598   2.120
 2077SOL     OW 1840   3.262   1.969   2.288
 2077SOL    HW1 1841   3.238   1.932   2.198
 2077SOL    HW2 1842   3.361   1.985   2.292
 2078SOL     OW 1843   2.111   3.647   3.103
 2078SOL    HW1 1844   2.168   3.582   3.153
 2078SOL    HW2 1845   2.095   3.614   3.010
 2079SOL     OW 1846   2.802   3.560   2.766
 2079SOL    HW1 1847   2.882   3.503   2.787
 2079SOL    HW2 1848   2.753   3.520   2.689
 2080SOL     OW 1849   3.409   2.084   3.591
 2080SOL    HW1 1850   3.404   2.121   3.683
 2080SOL    HW2 1851   3.337   2.015   3.579
 2081SOL     OW 1852   2.476   1.984   1.979
 2081SOL    HW1 1853   2.574   1.962   1.986
 2081SOL    HW2 1854   2.445   1.967   1.886
 2082SOL     OW 1855   2.643   2.126   3.611
 2082SOL    HW1 1856   2.710   2.065   3.654
 2082SOL    HW2 1857   2.570   2.145   3.676
 2083SOL     OW 1858   2.750   3.376   3.057
 2083SOL    HW1 1859   2.727   3.351   2.963
 2083SOL    HW2 1860   2.811   3.307   3.096
 2084SOL     OW 1861   3.213   2.452   3.295
 2084SOL    HW1 1862   3.241   2.409   3.380
 2084SOL    HW2 1863   3.238   2.548   3.296
 2085SOL     OW 1864   2.665   3.264   2.786
 2085SOL    HW1 1865   2.755   3.278   2.744
 2085SOL    HW2 1866   2.594   3.266   2.715
 2086SOL     OW 1867   2.784   2.365   2.761
 2086SOL    HW1 1868   2.759   2.356   2.665
 2086SOL    HW2 1869   2.832   2.283   2.792
 2087SOL     OW 1870   2.401   1.926   2.374
 2087SOL    HW1 1871   2.320   1.927   2.432
 2087SOL    HW2 1872   2.404   2.009   2.319
 2088SOL     OW 1873   3.296   3.050   1.903
 2088SOL    HW1 1874   3.328   2.974   1.960
 2088SOL    HW2 1875   3.204   3.077   1.933
 2089SOL     OW 1876   2.159   1.897   2.033
 2089SOL    HW1 1877   2.208   1.981   2.012
 2089SOL    HW2 1878   2.221   1.832   2.078
 2090SOL     OW 1879   2.797   2.098   2.342
 2090SOL    HW1 1880   2.749   2.139   2.264
 2090SOL    HW2 1881   2.896   2.096   2.323
 2091SOL     OW 1882   2.938   2.545   3.326
 2091SOL    HW1 1883   2.858   2.484   3.329
 2091SOL    HW2 1884   3.019   2.492   3.302
 2092SOL     OW 1885   3.089   3.432   2.655
 2092SOL    HW1 1886   3.110   3.506   2.590
 2092SOL    HW2 1887   3.157   3.432   2.728
 2093SOL     OW 1888   2.321   3.014   2.603
 2093SOL    HW1 1889   2.250   2.987   2.668
 2093SOL    HW2 1890   2.295   2.986   2.510
 2094SOL     OW 1891   3.133   3.659   2.453
 2094SOL    HW1 1892   3.177   3.723   2.389
 2094SOL    HW2 1893   3.083   3.711   2.523
 2095SOL     OW 1894   2.894   2.411   1.878
 2095SOL    HW1 1895   2.853   2.493   1.839
 2095SOL    HW2 1896   2.958   2.437   1.951
 2096SOL     OW 1897   1.940   2.418   3.248
 2096SOL    HW1 1898   2.032   2.417   3.207
 2096SOL    HW2 1899   1.934   2.492   3.315
 2097SOL     OW 1900   2.423   2.084   3.009
 2097SOL    HW1 1901   2.461   2.000   3.046
 2097SOL    HW2 1902   2.335   2.103   3.053
 2098SOL     OW 1903   2.728   2.316   2.504
 2098SOL    HW1 1904   2.696   2.388   2.442
 2098SOL    HW2 1905   2.752   2.235   2.451
 2099SOL     OW 1906   2.879   1.901   2.615
 2099SOL    HW1 1907   2.807   1.906   2.546
 2099SOL    HW2 1908   2.855   1.832   2.684
 2100SOL     OW 1909   3.291   3.035   2.729
 2100SOL    HW1 1910   3.236   2.951   2.722
 2100SOL    HW2 1911   3.317   3.064   2.637
 2101SOL     OW 1912   3.328   2.452   2.854
 2101SOL    HW1 1913   3.298   2.357   2.861
 2101SOL    HW2 1914   3.401   2.468   2.920
 2102SOL     OW 1915   3.719   2.695   2.239
 2102SOL    HW1 1916   3.761   2.631   2.303
 2102SOL    HW2 1917   3.681   2.644   2.161
 2103SOL     OW 1918   2.350   3.247   2.036
 2103SOL    HW1 1919   2.263   3.232   2.083
 2103SOL    HW2 1920   2.333   3.273   1.941
 2104SOL     OW 1921   3.526   3.142   2.519
 2104SOL    HW1 1922   3.625   3.150   2.533
 2104SOL    HW2 1923   3.481   3.226   2.550
 2105SOL     OW 1924   3.252   2.437   1.940
 2105SOL    HW1 1925   3.198   2.416   2.021
 2105SOL    HW2 1926   3.343   2.396   1.949
 2106SOL     OW 1927   2.389   2.118   2.190
 2106SOL    HW1 1928   2.416   2.059   2.115
 2106SOL    HW2 1929   2.389   2.213   2.159
 2108SOL     OW 1930   2.926   3.209   3.202
 2108SOL    HW1 1931   2.846   3.186   3.257
 2108SOL    HW2 1932   3.009   3.183   3.251
 2110SOL     OW 1933   2.973   3.057   2.962
 2110SOL    HW1 1934   2.933   3.101   3.043
 2110SOL    HW2 1935   2.932   3.094   2.879
 2111SOL     OW 1936   3.500   2.961   2.941
 2111SOL    HW1 1937   3.505   3.042   3.000
 2111SOL    HW2 1938   3.414   2.963   2.890
 2112SOL     OW 1939   2.777   1.951   3.264
 2112SOL    HW1 1940   2.802   1.931   3.169
 2112SOL    HW2 1941   2.849   2.007   3.306
 2113SOL     OW 1942   2.842   2.978   3.581
 2113SOL    HW1 1943   2.743   2.984   3.591
 2113SOL    HW2 1944   2.865   2.898   3.525
 2114SOL     OW 1945   2.567   2.912   2.230
 2114SOL    HW1 1946   2.553   2.919   2.329
 2114SOL    HW2 1947   2.651   2.861   2.212
 2115SOL     OW 1948   2.272   2.675   3.113
 2115SOL    HW1 1949   2.358   2.687   3.163
 2115SOL    HW2 1950   2.230   2.588   3.140
 2116SOL     OW 1951   3.136   2.248   3.124
 2116SOL    HW1 1952   3.157   2.322   3.188
 2116SOL    HW2 1953   3.047   2.265   3.081
 2117SOL     OW 1954   1.926   3.426   3.193
 2117SOL    HW1 1955   1.880   3.508   3.159
 2117SOL    HW2 1956   2.024   3.445   3.202
 2118SOL     OW 1957   2.229   2.962   2.363
 2118SOL    HW1 1958   2.222   3.045   2.307
 2118SOL    HW2 1959   2.233   2.882   2.303
 2119SOL     OW 1960   2.428   2.399   2.727
 2119SOL    HW1 1961   2.440   2.465   2.653
 2119SOL    HW2 1962   2.474   2.433   2.810
 2120SOL     OW 1963   3.114   3.210   2.250
 2120SOL    HW1 1964   3.164   3.287   2.290
 2120SOL    HW2 1965   3.019   3.212   2.282
 2121SOL     OW 1966   3.134   3.307   3.004
 2121SOL    HW1 1967   3.181   3.320   3.091
 2121SOL    HW2 1968   3.068   3.233   3.013
 2122SOL     OW 1969   3.444   2.501   2.334
 2122SOL    HW1 1970   3.413   2.562   2.407
 2122SOL    HW2 1971   3.494   2.553   2.265
 2123SOL     OW 1972   2.216   3.372   3.191
 2123SOL    HW1 1973   2.195   3.328   3.104
 2123SOL    HW2 1974   2.313   3.398   3.194
 2124SOL     OW 1975   2.264   2.613   3.460
 2124SOL    HW1 1976   2.332   2.668   3.413
 2124SOL    HW2 1977   2.304   2.525   3.487
 2125SOL     OW 1978   3.449   2.641   3.532
 2125SOL    HW1 1979   3.357   2.679   3.527
 2125SOL    HW2 1980   3.509   2.688   3.467
 2126SOL     OW 1981   2.875   1.967   3.632
 2126SOL    HW1 1982   2.881   2.052   3.580
 2126SOL    HW2 1983   2.907   1.891   3.575
 2127SOL     OW 1984   2.366   1.912   3.602
 2127SOL    HW1 1985   2.324   1.855   3.532
 2127SOL    HW2 1986   2.300   1.981   3.634
 2128SOL     OW 1987   2.435   2.732   2.891
 2128SOL    HW1 1988   2.479   2.821   2.882
 2128SOL    HW2 1989   2.372   2.732   2.968
 2129SOL     OW 1990   3.222   2.724   2.907
 2129SOL    HW1 1991   3.147   2.724   2.841
 2129SOL    HW2 1992   3.259   2.632   2.916
 2130SOL     OW 1993   3.071   2.387   2.137
 2130SOL    HW1 1994   3.084   2.303   2.191
 2130SOL    HW2 1995   3.042   2.461   2.197
 2131SOL     OW 1996   2.169   2.075   3.093
 2131SOL    HW1 1997   2.146   2.112   3.183
 2131SOL    HW2 1998   2.139   1.980   3.087
 2132SOL     OW 1999   1.899   3.172   3.144
 2132SOL    HW1 2000   1.952   3.123   3.212
 2132SOL    HW2 2001   1.921   3.270   3.149
 2133SOL     OW 2002   2.594   2.496   2.926
 2133SOL    HW1 2003   2.653   2.470   2.850
 2133SOL    HW2 2004   2.566   2.592   2.915
 2135SOL     OW 2005   2.169   1.925   2.480
 2135SOL    HW1 2006   2.158   2.019   2.513
 2135SOL    HW2 2007   2.164   1.862   2.557
 2136SOL     OW 2008   3.484   2.229   2.236
 2136SOL    HW1 2009   3.486   2.153   2.300
 2136SOL    HW2 2010   3.436   2.306   2.276
 2137SOL     OW 2011   2.885   2.628   2.828
 2137SOL    HW1 2012   2.900   2.649   2.924
 2137SOL    HW2 2013   2.855   2.533   2.819
 2138SOL     OW 2014   2.842   3.435   3.562
 2138SOL    HW1 2015   2.822   3.479   3.474
 2138SOL    HW2 2016   2.881   3.344   3.546
 2140SOL     OW 2017   2.212   2.760   3.666
 2140SOL    HW1 2018   2.288   2.804   3.714
 2140SOL    HW2 2019   2.247   2.713   3.584
 2141SOL     OW 2020   3.402   2.136   1.987
 2141SOL    HW1 2021   3.341   2.061   2.010
 2141SOL    HW2 2022   3.424   2.188   2.070
 2142SOL     OW 2023   3.165   2.700   1.904
 2142SOL    HW1 2024   3.199   2.607   1.919
 2142SOL    HW2 2025   3.183   2.727   1.809
 2143SOL     OW 2026   2.930   3.195   2.711
 2143SOL    HW1 2027   2.937   3.111   2.656
 2143SOL    HW2 2028   2.992   3.264   2.675
 2144SOL     OW 2029   2.181   2.672   2.811
 2144SOL    HW1 2030   2.274   2.708   2.816
 2144SOL    HW2 2031   2.175   2.587   2.863
 2145SOL     OW 2032   2.201   2.371   2.868
 2145SOL    HW1 2033   2.149   2.288   2.851
 2145SOL    HW2 2034   2.278   2.376   2.804
 2146SOL     OW 2035   3.000   2.242   3.540
 2146SOL    HW1 2036   2.955   2.305   3.604
 2146SOL    HW2 2037   3.093   2.273   3.523
 2147SOL     OW 2038   3.022   2.069   3.339
 2147SOL    HW1 2039   3.022   2.133   3.416
 2147SOL    HW2 2040   3.050   2.117   3.256
 2148SOL     OW 2041   1.870   3.188   2.062
 2148SOL    HW1 2042   1.777   3.209   2.031
 2148SOL    HW2 2043   1.880   3.089   2.075
 2149SOL     OW 2044   1.950   3.663   2.789
 2149SOL    HW1 2045   1.908   3.577   2.762
 2149SOL    HW2 2046   2.044   3.666   2.755
 2150SOL     OW 2047   2.366   3.430   2.772
 2150SOL    HW1 2048   2.432   3.504   2.781
 2150SOL    HW2 2049   2.410   3.351   2.730
 2151SOL     OW 2050   2.864   2.658   3.100
 2151SOL    HW1 2051   2.905   2.626   3.186
 2151SOL    HW2 2052   2.768   2.631   3.097
 2152SOL     OW 2053   1.902   2.406   2.976
 2152SOL    HW1 2054   1.987   2.373   2.935
 2152SOL    HW2 2055   1.915   2.421   3.074
 2153SOL     OW 2056   2.051   2.382   3.584
 2153SOL    HW1 2057   2.110   2.342   3.514
 2153SOL    HW2 2058   1.993   2.453   3.543
 2154SOL     OW 2059   3.231   2.812   3.522
 2154SOL    HW1 2060   3.270   2.901   3.542
 2154SOL    HW2 2061   3.241   2.792   3.425
 2155SOL     OW 2062   3.519   2.466   3.068
 2155SOL    HW1 2063   3.481   2.397   3.130
 2155SOL    HW2 2064   3.601   2.430   3.024
 2156SOL     OW 2065   2.114   3.426   3.606
 2156SOL    HW1 2066   2.084   3.483   3.682
 2156SOL    HW2 2067   2.107   3.329   3.632
 2157SOL     OW 2068   2.533   2.326   3.131
 2157SOL    HW1 2069   2.499   2.237   3.101
 2157SOL    HW2 2070   2.559   2.380   3.051
 2158SOL     OW 2071   2.792   3.540   3.327
 2158SOL    HW1 2072   2.768   3.522   3.232
 2158SOL    HW2 2073   2.822   3.634   3.337
 2159SOL     OW 2074   2.335   2.362   2.053
 2159SOL    HW1 2075   2.396   2.442   2.057
 2159SOL    HW2 2076   2.240   2.393   2.060
 2160SOL     OW 2077   2.021   2.999   3.328
 2160SOL    HW1 2078   2.043   2.938   3.404
 2160SOL    HW2 2079   2.031   2.950   3.242
 2161SOL     OW 2080   3.209   2.921   3.096
 2161SOL    HW1 2081   3.233   2.858   3.022
 2161SOL    HW2 2082   3.119   2.961   3.078
 2162SOL     OW 2083   3.164   2.717   2.171
 2162SOL    HW1 2084   3.078   2.686   2.213
 2162SOL    HW2 2085   3.160   2.703   2.072
 2164SOL     OW 2086   3.114   3.593   2.990
 2164SOL    HW1 2087   3.198   3.598   2.936
 2164SOL    HW2 2088   3.091   3.497   3.008
 2165SOL     OW 2089   1.945   3.120   2.884
 2165SOL    HW1 2090   1.940   3.119   2.984
 2165SOL    HW2 2091   1.862   3.079   2.846
 2166SOL     OW 2092   2.550   3.524   3.578
 2166SOL    HW1 2093   2.494   3.605   3.587
 2166SOL    HW2 2094   2.602   3.528   3.492
 2167SOL     OW 2095   3.588   1.997   2.385
 2167SOL    HW1 2096   3.661   1.980   2.318
 2167SOL    HW2 2097   3.557   1.910   2.423
 2168SOL     OW 2098   3.250   3.435   2.339
 2168SOL    HW1 2099   3.317   3.447   2.265
 2168SOL    HW2 2100   3.210   3.524   2.362
 2170SOL     OW 2101   3.142   2.789   2.534
 2170SOL    HW1 2102   3.202   2.708   2.536
 2170SOL    HW2 2103   3.182   2.858   2.474
 2171SOL     OW 2104   2.692   3.135   3.284
 2171SOL    HW1 2105   2.687   3.168   3.379
 2171SOL    HW2 2106   2.606   3.154   3.238
 2172SOL     OW 2107   2.534   3.478   2.016
 2172SOL    HW1 2108   2.543   3.488   1.917
 2172SOL    HW2 2109   2.494   3.389   2.037
 2174SOL     OW 2110   3.703   2.037   2.825
 2174SOL    HW1 2111   3.742   1.952   2.789
 2174SOL    HW2 2112   3.605   2.039   2.806
 2175SOL     OW 2113   3.056   3.474   1.893
 2175SOL    HW1 2114   3.062   3.381   1.930
 2175SOL    HW2 2115   2.997   3.474   1.813
 2176SOL     OW 2116   2.684   2.864   3.234
 2176SOL    HW1 2117   2.724   2.863   3.142
 2176SOL    HW2 2118   2.694   2.956   3.274
 2177SOL     OW 2119   2.778   2.772   2.153
 2177SOL    HW1 2120   2.841   2.810   2.085
 2177SOL    HW2 2121   2.818   2.689   2.192
 2178SOL     OW 2122   3.366   3.469   1.906
 2178SOL    HW1 2123   3.274   3.506   1.913
 2178SOL    HW2 2124   3.404   3.489   1.816
 2179SOL     OW 2125   2.234   3.150   3.352
 2179SOL    HW1 2126   2.221   3.243   3.318
 2179SOL    HW2 2127   2.150   3.098   3.339
 2180SOL     OW 2128   3.476   3.154   3.151
 2180SOL    HW1 2129   3.536   3.157   3.231
 2180SOL    HW2 2130   3.401   3.218   3.164
 2181SOL     OW 2131   2.901   2.960   2.558
 2181SOL    HW1 2132   2.831   2.913   2.612
 2181SOL    HW2 2133   2.960   2.892   2.515
 2182SOL     OW 2134   2.876   2.098   2.833
 2182SOL    HW1 2135   2.868   2.062   2.740
 2182SOL    HW2 2136   2.874   2.022   2.898
 2183SOL     OW 2137   2.452   3.349   2.353
 2183SOL    HW1 2138   2.494   3.291   2.283
 2183SOL    HW2 2139   2.408   3.428   2.309
 2184SOL     OW 2140   3.571   2.247   3.243
 2184SOL    HW1 2141   3.644   2.316   3.247
 2184SOL    HW2 2142   3.599   2.172   3.184
 2185SOL     OW 2143   2.117   3.210   2.152
 2185SOL    HW1 2144   2.021   3.211   2.125
 2185SOL    HW2 2145   2.129   3.263   2.236
 2186SOL     OW 2146   1.967   2.875   3.588
 2186SOL    HW1 2147   1.890   2.842   3.642
 2186SOL    HW2 2148   2.052   2.845   3.630
 2187SOL     OW 2149   2.534   2.065   3.351
 2187SOL    HW1 2150   2.624   2.049   3.311
 2187SOL    HW2 2151   2.542   2.070   3.450
 2188SOL     OW 2152   1.937   2.207   1.895
 2188SOL    HW1 2153   1.845   2.179   1.866
 2188SOL    HW2 2154   1.968   2.284   1.839
 2189SOL     OW 2155   3.302   2.718   3.260
 2189SOL    HW1 2156   3.245   2.770   3.197
 2189SOL    HW2 2157   3.398   2.730   3.236
 2190SOL     OW 2158   1.934   2.028   2.180
 2190SOL    HW1 2159   1.917   2.111   2.126
 2190SOL    HW2 2160   2.024   1.991   2.158
 2191SOL     OW 2161   3.045   3.197   1.981
 2191SOL    HW1 2162   2.946   3.186   1.983
 2191SOL    HW2 2163   3.079   3.212   2.074
 2192SOL     OW 2164   2.475   2.704   3.293
 2192SOL    HW1 2165   2.531   2.785   3.276
 2192SOL    HW2 2166   2.534   2.624   3.296
 2193SOL     OW 2167   3.355   3.629   2.821
 2193SOL    HW1 2168   3.388   3.693   2.752
 2193SOL    HW2 2169   3.421   3.623   2.896
 2194SOL     OW 2170   2.578   2.427   3.570
 2194SOL    HW1 2171   2.597   2.492   3.644
 2194SOL    HW2 2172   2.638   2.347   3.579
 2195SOL     OW 2173   3.312   3.082   3.495
 2195SOL    HW1 2174   3.303   3.072   3.594
 2195SOL    HW2 2175   3.408   3.075   3.469
 2196SOL     OW 2176   2.252   3.603   3.422
 2196SOL    HW1 2177   2.161   3.644   3.420
 2196SOL    HW2 2178   2.245   3.509   3.454
 2197SOL     OW 2179   3.536   2.745   3.116
 2197SOL    HW1 2180   3.509   2.656   3.079
 2197SOL    HW2 2181   3.537   2.813   3.043
 2198SOL     OW 2182   3.087   2.187   2.311
 2198SOL    HW1 2183   3.152   2.113   2.300
 2198SOL    HW2 2184   3.107   2.237   2.395
 2199SOL     OW 2185   2.456   2.607   2.514
 2199SOL    HW1 2186   2.506   2.692   2.495
 2199SOL    HW2 2187   2.368   2.609   2.466
 2201SOL     OW 2188   3.592   2.796   3.379
 2201SOL    HW1 2189   3.630   2.887   3.394
 2201SOL    HW2 2190   3.584   2.779   3.280
 2202SOL     OW 2191   2.721   3.236   1.878
 2202SOL    HW1 2192   2.675   3.251   1.966
 2202SOL    HW2 2193   2.765   3.321   1.848
 2203SOL     OW 2194   2.523   3.652   2.815
 2203SOL    HW1 2195   2.477   3.740   2.802
 2203SOL    HW2 2196   2.622   3.664   2.808
 2204SOL     OW 2197   2.721   2.818   2.723
 2204SOL    HW1 2198   2.775   2.749   2.771
 2204SOL    HW2 2199   2.689   2.887   2.789
 2205SOL     OW 2200   2.945   2.846   1.949
 2205SOL    HW1 2201   2.922   2.899   1.867
 2205SOL    HW2 2202   3.026   2.790   1.930
 2207SOL     OW 2203   2.083   3.176   3.706
 2207SOL    HW1 2204   2.018   3.103   3.685
 2207SOL    HW2 2205   2.087   3.190   3.804
 2208SOL     OW 2206   1.941   3.102   2.515
 2208SOL    HW1 2207   1.940   3.055   2.603
 2208SOL    HW2 2208   2.023   3.074   2.464
 2209SOL     OW 2209   2.534   3.253   3.486
 2209SOL    HW1 2210   2.456   3.203   3.524
 2209SOL    HW2 2211   2.531   3.348   3.517
 2210SOL     OW 2212   3.686   2.054   3.089
 2210SOL    HW1 2213   3.682   1.964   3.133
 2210SOL    HW2 2214   3.689   2.043   2.990
 2211SOL     OW 2215   3.567   3.349   2.966
 2211SOL    HW1 2216   3.474   3.324   2.939
 2211SOL    HW2 2217   3.593   3.299   3.048
 2212SOL     OW 2218   2.179   2.409   3.142
 2212SOL    HW1 2219   2.217   2.350   3.214
 2212SOL    HW2 2220   2.219   2.383   3.054
 2213SOL     OW 2221   2.674   3.448   2.549
 2213SOL    HW1 2222   2.706   3.458   2.455
 2213SOL    HW2 2223   2.595   3.386   2.551
 2214SOL     OW 2224   3.286   2.076   2.974
 2214SOL    HW1 2225   3.338   2.011   3.029
 2214SOL    HW2 2226   3.237   2.139   3.035
 2215SOL     OW 2227   2.863   1.896   3.016
 2215SOL    HW1 2228   2.800   1.824   2.985
 2215SOL    HW2 2229   2.956   1.860   3.016
 2216SOL     OW 2230   2.632   3.192   2.163
 2216SOL    HW1 2231   2.586   3.105   2.180
 2216SOL    HW2 2232   2.723   3.189   2.204
 2217SOL     OW 2233   2.480   3.429   3.146
 2217SOL    HW1 2234   2.475   3.511   3.203
 2217SOL    HW2 2235   2.569   3.426   3.101
 2218SOL     OW 2236   3.214   1.914   2.030
 2218SOL    HW1 2237   3.249   1.873   1.946
 2218SOL    HW2 2238   3.124   1.876   2.050
 2219SOL     OW 2239   3.162   2.315   2.553
 2219SOL    HW1 2240   3.103   2.395   2.557
 2219SOL    HW2 2241   3.177   2.280   2.646
 2220SOL     OW 2242   3.455   2.083   2.744
 2220SOL    HW1 2243   3.371   2.082   2.798
 2220SOL    HW2 2244   3.457   2.166   2.688
 2221SOL     OW 2245   1.901   2.939   2.162
 2221SOL    HW1 2246   2.000   2.928   2.153
 2221SOL    HW2 2247   1.861   2.853   2.194
 2222SOL     OW 2248   2.737   3.508   2.199
 2222SOL    HW1 2249   2.660   3.473   2.145
 2222SOL    HW2 2250   2.705   3.579   2.261
 2223SOL     OW 2251   2.092   2.490   3.837
 2223SOL    HW1 2252   1.999   2.488   3.874
 2223SOL    HW2 2253   2.093   2.451   3.745
 2233SOL     OW 2254   2.468   2.826   3.847
 2233SOL    HW1 2255   2.475   2.910   3.793
 2233SOL    HW2 2256   2.514   2.839   3.935
 2243SOL     OW 2257   2.460   2.591   3.994
 2243SOL    HW1 2258   2.484   2.660   3.926
 2243SOL    HW2 2259   2.382   2.624   4.048
 2248SOL     OW 2260   2.727   2.210   3.919
 2248SOL    HW1 2261   2.786   2.273   3.870
 2248SOL    HW2 2262   2.746   2.116   3.890
 2253SOL     OW 2263   2.183   2.805   3.966
 2253SOL    HW1 2264   2.265   2.844   3.924
 2253SOL    HW2 2265   2.156   2.723   3.917
 2261SOL     OW 2266   2.476   1.984   3.841
 2261SOL    HW1 2267   2.574   1.962   3.848
 2261SOL    HW2 2268   2.445   1.967   3.748
 2264SOL     OW 2269   2.159   1.897   3.895
 2264SOL    HW1 2270   2.208   1.981   3.874
 2264SOL    HW2 2271   2.221   1.832   3.940
 2268SOL     OW 2272   2.894   2.411   3.740
 2268SOL    HW1 2273   2.853   2.493   3.701
 2268SOL    HW2 2274   2.958   2.437   3.813
 2274SOL     OW 2275   3.252   2.437   3.802
 2274SOL    HW1 2276   3.198   2.416   3.883
 2274SOL    HW2 2277   3.343   2.396   3.811
 2275SOL     OW 2278   2.389   2.118   4.052
 2275SOL    HW1 2279   2.416   2.059   3.977
 2275SOL    HW2 2280   2.389   2.213   4.021
 2284SOL     OW 2281   3.165   2.700   3.766
 2284SOL    HW1 2282   3.199   2.607   3.781
 2284SOL    HW2 2283   3.183   2.727   3.671
 2287SOL     OW 2284   2.335   2.362   3.915
 2287SOL    HW1 2285   2.396   2.442   3.919
 2287SOL    HW2 2286   2.240   2.393   3.922
 2300SOL     OW 2287   1.937   2.207   3.757
 2300SOL    HW1 2288   1.845   2.179   3.728
 2300SOL    HW2 2289   1.968   2.284   3.701
 2305SOL     OW 2290   2.721   3.236   3.740
 2305SOL    HW1 2291   2.675   3.251   3.828
 2305SOL    HW2 2292   2.765   3.321   3.710
 2308SOL     OW 2293   2.945   2.846   3.811
 2308SOL    HW1 2294   2.922   2.899   3.729
 2308SOL    HW2 2295   3.026   2.790   3.792
 2330SOL     OW 2296   2.179   3.975   1.801
 2330SOL    HW1 2297   2.250   4.046   1.807
 2330SOL    HW2 2298   2.091   4.014   1.829
 2368SOL     OW 2299   2.875   3.829   1.770
 2368SOL    HW1 2300   2.881   3.914   1.718
 2368SOL    HW2 2301   2.907   3.753   1.713
 2369SOL     OW 2302   2.366   3.774   1.740
 2369SOL    HW1 2303   2.324   3.717   1.670
 2369SOL    HW2 2304   2.300   3.843   1.772
 2425SOL     OW 2305   2.671   3.728   2.364
 2425SOL    HW1 2306   2.711   3.819   2.355
 2425SOL    HW2 2307   2.571   3.736   2.370
 2435SOL     OW 2308   2.412   3.920   2.747
 2435SOL    HW1 2309   2.407   3.915   2.847
 2435SOL    HW2 2310   2.414   4.016   2.718
 2441SOL     OW 2311   2.476   3.846   1.979
 2441SOL    HW1 2312   2.574   3.824   1.986
 2441SOL    HW2 2313   2.445   3.829   1.886
 2445SOL     OW 2314   2.401   3.788   2.374
 2445SOL    HW1 2315   2.320   3.789   2.432
 2445SOL    HW2 2316   2.404   3.871   2.319
 2446SOL     OW 2317   2.159   3.759   2.033
 2446SOL    HW1 2318   2.208   3.843   2.012
 2446SOL    HW2 2319   2.221   3.694   2.078
 2447SOL     OW 2320   2.797   3.960   2.342
 2447SOL    HW1 2321   2.749   4.001   2.264
 2447SOL    HW2 2322   2.896   3.958   2.323
 2453SOL     OW 2323   2.879   3.763   2.615
 2453SOL    HW1 2324   2.807   3.768   2.546
 2453SOL    HW2 2325   2.855   3.694   2.684
 2457SOL     OW 2326   2.389   3.980   2.190
 2457SOL    HW1 2327   2.416   3.921   2.115
 2457SOL    HW2 2328   2.389   4.075   2.159
 2472SOL     OW 2329   2.169   3.787   2.480
 2472SOL    HW1 2330   2.158   3.881   2.513
 2472SOL    HW2 2331   2.164   3.724   2.557
 2488SOL     OW 2332   2.125   4.050   2.582
 2488SOL    HW1 2333   2.046   4.101   2.548
 2488SOL    HW2 2334   2.116   4.035   2.680
 2496SOL     OW 2335   1.934   3.890   2.180
 2496SOL    HW1 2336   1.917   3.973   2.126
 2496SOL    HW2 2337   2.024   3.853   2.158
 2507SOL     OW 2338   2.863   3.758   3.016
 2507SOL    HW1 2339   2.800   3.686   2.985
 2507SOL    HW2 2340   2.956   3.722   3.016
 2508SOL     OW 2341   3.214   3.776   2.030
 2508SOL    HW1 2342   3.249   3.735   1.946
 2508SOL    HW2 2343   3.124   3.738   2.050
 2580SOL     OW 2344   3.854   1.821   1.571
 2580SOL    HW1 2345   3.844   1.806   1.670
 2580SOL    HW2 2346   3.768   1.857   1.535
 2628SOL     OW 2347   3.854   1.794   1.851
 2628SOL    HW1 2348   3.813   1.720   1.904
 2628SOL    HW2 2349   3.918   1.845   1.909
 2662SOL     OW 2350   3.955   1.713   2.345
 2662SOL    HW1 2351   3.989   1.790   2.399
 2662SOL    HW2 2352   3.999   1.713   2.255
 2668SOL     OW 2353   3.751   1.596   1.979
 2668SOL    HW1 2354   3.732   1.500   2.000
 2668SOL    HW2 2355   3.718   1.654   2.054
 2712SOL     OW 2356   3.732   1.326   2.062
 2712SOL    HW1 2357   3.639   1.347   2.031
 2712SOL    HW2 2358   3.742   1.227   2.075
 2713SOL     OW 2359   3.812   1.801   2.789
 2713SOL    HW1 2360   3.770   1.715   2.762
 2713SOL    HW2 2361   3.906   1.804   2.755
 2809SOL     OW 2362   3.837   2.599   1.597
 2809SOL    HW1 2363   3.925   2.586   1.642
 2809SOL    HW2 2364   3.824   2.696   1.575
 2830SOL     OW 2365   3.802   2.418   1.386
 2830SOL    HW1 2366   3.894   2.417   1.345
 2830SOL    HW2 2367   3.796   2.492   1.453
 2855SOL     OW 2368   3.913   2.382   1.722
 2855SOL    HW1 2369   3.972   2.342   1.652
 2855SOL    HW2 2370   3.855   2.453   1.681
 2871SOL     OW 2371   3.829   2.875   1.726
 2871SOL    HW1 2372   3.752   2.842   1.780
 2871SOL    HW2 2373   3.914   2.845   1.768
 2888SOL     OW 2374   3.954   2.490   1.975
 2888SOL    HW1 2375   3.861   2.488   2.012
 2888SOL    HW2 2376   3.955   2.451   1.883
 2889SOL     OW 2377   3.949   2.137   2.858
 2889SOL    HW1 2378   3.984   2.120   2.950
 2889SOL    HW2 2379   3.861   2.092   2.846
 2890SOL     OW 2380   3.743   2.230   2.509
 2890SOL    HW1 2381   3.661   2.273   2.548
 2890SOL    HW2 2382   3.715   2.157   2.446
 2902SOL     OW 2383   3.846   2.505   2.425
 2902SOL    HW1 2384   3.801   2.417   2.442
 2902SOL    HW2 2385   3.845   2.559   2.509
 2910SOL     OW 2386   3.800   2.673   2.651
 2910SOL    HW1 2387   3.899   2.661   2.660
 2910SOL    HW2 2388   3.776   2.768   2.672
 2924SOL     OW 2389   4.021   1.897   2.033
 2924SOL    HW1 2390   4.070   1.981   2.012
 2924SOL    HW2 2391   4.083   1.832   2.078
 2926SOL     OW 2392   3.802   2.418   3.248
 2926SOL    HW1 2393   3.894   2.417   3.207
 2926SOL    HW2 2394   3.796   2.492   3.315
 2942SOL     OW 2395   4.031   1.925   2.480
 2942SOL    HW1 2396   4.020   2.019   2.513
 2942SOL    HW2 2397   4.026   1.862   2.557
 2947SOL     OW 2398   3.732   3.188   2.062
 2947SOL    HW1 2399   3.639   3.209   2.031
 2947SOL    HW2 2400   3.742   3.089   2.075
 2950SOL     OW 2401   3.764   2.406   2.976
 2950SOL    HW1 2402   3.849   2.373   2.935
 2950SOL    HW2 2403   3.777   2.421   3.074
 2962SOL     OW 2404   3.987   2.188   2.582
 2962SOL    HW1 2405   3.908   2.239   2.548
 2962SOL    HW2 2406   3.978   2.173   2.680
 2969SOL     OW 2407   3.799   2.207   1.895
 2969SOL    HW1 2408   3.707   2.179   1.866
 2969SOL    HW2 2409   3.830   2.284   1.839
 2970SOL     OW 2410   3.796   2.028   2.180
 2970SOL    HW1 2411   3.779   2.111   2.126
 2970SOL    HW2 2412   3.886   1.991   2.158
 2977SOL     OW 2413   3.803   3.102   2.515
 2977SOL    HW1 2414   3.802   3.055   2.603
 2977SOL    HW2 2415   3.885   3.074   2.464
 2983SOL     OW 2416   3.763   2.939   2.162
 2983SOL    HW1 2417   3.862   2.928   2.153
 2983SOL    HW2 2418   3.723   2.853   2.194
   4.58429   4.58429   4.58429
