mobley_1527293_GMX.gro created by acpype (v: 2023.10.27) on Tue May 19 12:31:18 2026
 2419
    1MOL     C1    1   2.612   2.628   2.086
    1MOL     C2    2   2.607   2.748   2.157
    1MOL     C3    3   2.612   2.506   2.154
    1MOL     C4    4   2.603   2.746   2.297
    1MOL     C5    5   2.607   2.504   2.293
    1MOL     C6    6   2.491   2.679   2.576
    1MOL     C7    7   2.486   2.677   2.715
    1MOL     C8    8   2.697   2.561   2.721
    1MOL     C9    9   2.603   2.624   2.365
    1MOL    C10   10   2.598   2.622   2.509
    1MOL    C11   11   2.589   2.618   2.788
    1MOL    C12   12   2.702   2.563   2.582
    1MOL    C13   13   2.577   2.474   2.994
    1MOL    C14   14   2.701   2.692   3.004
    1MOL    C15   15   2.584   2.616   2.937
    1MOL     O1   16   2.578   2.372   2.926
    1MOL     O2   17   2.569   2.471   3.129
    1MOL     F1   18   2.806   2.507   2.519
    1MOL     H1   19   2.615   2.630   1.977
    1MOL     H2   20   2.607   2.843   2.104
    1MOL     H3   21   2.615   2.413   2.098
    1MOL     H4   22   2.599   2.840   2.351
    1MOL     H5   23   2.608   2.409   2.345
    1MOL     H6   24   2.409   2.726   2.521
    1MOL     H7   25   2.401   2.722   2.767
    1MOL     H8   26   2.778   2.514   2.777
    1MOL     H9   27   2.798   2.648   2.977
    1MOL    H10   28   2.700   2.797   2.974
    1MOL    H11   29   2.694   2.688   3.113
    1MOL    H12   30   2.491   2.666   2.970
    1MOL    H13   31   2.564   2.381   3.169
   97SOL     OW   32   1.592   1.629   1.625
   97SOL    HW1   33   1.619   1.663   1.535
   97SOL    HW2   34   1.671   1.591   1.671
  127SOL     OW   35   1.859   1.518   1.605
  127SOL    HW1   36   1.873   1.545   1.510
  127SOL    HW2   37   1.942   1.540   1.658
  163SOL     OW   38   1.650   1.720   1.394
  163SOL    HW1   39   1.703   1.730   1.310
  163SOL    HW2   40   1.623   1.810   1.428
  219SOL     OW   41   1.555   1.511   2.565
  219SOL    HW1   42   1.498   1.495   2.646
  219SOL    HW2   43   1.496   1.521   2.485
  227SOL     OW   44   1.460   1.505   3.201
  227SOL    HW1   45   1.484   1.599   3.227
  227SOL    HW2   46   1.444   1.451   3.283
  238SOL     OW   47   1.842   1.767   2.221
  238SOL    HW1   48   1.896   1.738   2.301
  238SOL    HW2   49   1.872   1.857   2.192
  250SOL     OW   50   1.466   1.417   2.815
  250SOL    HW1   51   1.407   1.423   2.895
  250SOL    HW2   52   1.451   1.329   2.769
  251SOL     OW   53   1.667   1.714   2.434
  251SOL    HW1   54   1.626   1.691   2.346
  251SOL    HW2   55   1.649   1.640   2.499
  254SOL     OW   56   1.576   1.662   2.169
  254SOL    HW1   57   1.665   1.708   2.172
  254SOL    HW2   58   1.555   1.638   2.074
  268SOL     OW   59   1.795   1.066   2.735
  268SOL    HW1   60   1.733   1.051   2.659
  268SOL    HW2   61   1.743   1.077   2.820
  273SOL     OW   62   1.111   1.776   2.099
  273SOL    HW1   63   1.051   1.714   2.149
  273SOL    HW2   64   1.142   1.732   2.014
  275SOL     OW   65   1.632   1.377   1.943
  275SOL    HW1   66   1.600   1.471   1.933
  275SOL    HW2   67   1.556   1.314   1.931
  293SOL     OW   68   1.227   1.570   2.655
  293SOL    HW1   69   1.248   1.644   2.590
  293SOL    HW2   70   1.295   1.570   2.728
  295SOL     OW   71   1.271   1.797   2.453
  295SOL    HW1   72   1.315   1.861   2.389
  295SOL    HW2   73   1.221   1.849   2.523
  305SOL     OW   74   1.664   1.280   2.519
  305SOL    HW1   75   1.763   1.288   2.533
  305SOL    HW2   76   1.619   1.364   2.550
  310SOL     OW   77   1.592   1.629   3.487
  310SOL    HW1   78   1.619   1.663   3.397
  310SOL    HW2   79   1.671   1.591   3.533
  340SOL     OW   80   1.859   1.518   3.467
  340SOL    HW1   81   1.873   1.545   3.372
  340SOL    HW2   82   1.942   1.540   3.520
  365SOL     OW   83   1.759   1.747   3.016
  365SOL    HW1   84   1.820   1.777   2.943
  365SOL    HW2   85   1.721   1.658   2.994
  366SOL     OW   86   1.252   1.731   2.990
  366SOL    HW1   87   1.336   1.736   2.936
  366SOL    HW2   88   1.229   1.635   3.008
  370SOL     OW   89   1.388   1.573   2.339
  370SOL    HW1   90   1.455   1.585   2.265
  370SOL    HW2   91   1.348   1.662   2.362
  375SOL     OW   92   1.650   1.720   3.256
  375SOL    HW1   93   1.703   1.730   3.172
  375SOL    HW2   94   1.623   1.810   3.290
  381SOL     OW   95   1.504   1.607   1.906
  381SOL    HW1   96   1.412   1.644   1.913
  381SOL    HW2   97   1.542   1.627   1.816
  383SOL     OW   98   1.614   1.292   3.151
  383SOL    HW1   99   1.674   1.295   3.231
  383SOL    HW2  100   1.539   1.356   3.164
  396SOL     OW  101   1.493   1.767   2.821
  396SOL    HW1  102   1.526   1.831   2.752
  396SOL    HW2  103   1.559   1.761   2.896
  409SOL     OW  104   1.861   1.569   2.713
  409SOL    HW1  105   1.790   1.557   2.643
  409SOL    HW2  106   1.862   1.490   2.773
  415SOL     OW  107   1.705   1.487   2.966
  415SOL    HW1  108   1.612   1.462   2.939
  415SOL    HW2  109   1.731   1.437   3.048
  615SOL     OW  110   1.594   1.976   1.480
  615SOL    HW1  111   1.576   2.043   1.408
  615SOL    HW2  112   1.591   2.022   1.569
  635SOL     OW  113   1.394   2.331   1.674
  635SOL    HW1  114   1.374   2.374   1.762
  635SOL    HW2  115   1.472   2.269   1.683
  642SOL     OW  116   1.719   2.447   1.831
  642SOL    HW1  117   1.693   2.536   1.795
  642SOL    HW2  118   1.717   2.379   1.758
  660SOL     OW  119   1.547   2.084   1.729
  660SOL    HW1  120   1.542   2.121   1.821
  660SOL    HW2  121   1.475   2.015   1.717
  663SOL     OW  122   1.351   2.452   1.433
  663SOL    HW1  123   1.379   2.409   1.518
  663SOL    HW2  124   1.376   2.548   1.434
  686SOL     OW  125   1.754   3.085   1.588
  686SOL    HW1  126   1.845   3.046   1.575
  686SOL    HW2  127   1.762   3.181   1.612
  688SOL     OW  128   1.592   3.491   1.625
  688SOL    HW1  129   1.619   3.525   1.535
  688SOL    HW2  130   1.671   3.453   1.671
  704SOL     OW  131   1.587   2.641   1.670
  704SOL    HW1  132   1.495   2.679   1.665
  704SOL    HW2  133   1.647   2.688   1.605
  713SOL     OW  134   1.728   2.797   1.854
  713SOL    HW1  135   1.682   2.790   1.765
  713SOL    HW2  136   1.666   2.841   1.920
  718SOL     OW  137   1.859   3.380   1.605
  718SOL    HW1  138   1.873   3.407   1.510
  718SOL    HW2  139   1.942   3.402   1.658
  725SOL     OW  140   1.138   2.242   1.678
  725SOL    HW1  141   1.093   2.305   1.742
  725SOL    HW2  142   1.231   2.273   1.661
  733SOL     OW  143   1.369   2.812   1.660
  733SOL    HW1  144   1.408   2.901   1.680
  733SOL    HW2  145   1.379   2.792   1.563
  735SOL     OW  146   1.657   2.466   1.206
  735SOL    HW1  147   1.619   2.397   1.268
  735SOL    HW2  148   1.739   2.430   1.162
  762SOL     OW  149   1.614   3.154   1.289
  762SOL    HW1  150   1.674   3.157   1.369
  762SOL    HW2  151   1.539   3.218   1.302
  766SOL     OW  152   1.709   2.247   1.381
  766SOL    HW1  153   1.782   2.316   1.385
  766SOL    HW2  154   1.737   2.172   1.322
  771SOL     OW  155   1.440   2.718   1.398
  771SOL    HW1  156   1.383   2.770   1.335
  771SOL    HW2  157   1.536   2.730   1.374
  777SOL     OW  158   1.450   3.082   1.633
  777SOL    HW1  159   1.441   3.072   1.732
  777SOL    HW2  160   1.546   3.075   1.607
  779SOL     OW  161   1.674   2.745   1.254
  779SOL    HW1  162   1.647   2.656   1.217
  779SOL    HW2  163   1.675   2.813   1.181
  782SOL     OW  164   1.777   2.204   1.642
  782SOL    HW1  165   1.760   2.235   1.548
  782SOL    HW2  166   1.693   2.167   1.680
  783SOL     OW  167   1.730   2.796   1.517
  783SOL    HW1  168   1.768   2.887   1.532
  783SOL    HW2  169   1.722   2.779   1.418
  792SOL     OW  170   1.824   2.054   1.227
  792SOL    HW1  171   1.820   1.964   1.271
  792SOL    HW2  172   1.827   2.043   1.128
  810SOL     OW  173   1.555   3.373   2.565
  810SOL    HW1  174   1.498   3.357   2.646
  810SOL    HW2  175   1.496   3.383   2.485
  811SOL     OW  176   1.135   2.565   2.579
  811SOL    HW1  177   1.192   2.643   2.554
  811SOL    HW2  178   1.075   2.591   2.655
  812SOL     OW  179   1.755   2.469   2.093
  812SOL    HW1  180   1.743   2.456   1.994
  812SOL    HW2  181   1.725   2.388   2.142
  818SOL     OW  182   1.460   3.367   3.201
  818SOL    HW1  183   1.484   3.461   3.227
  818SOL    HW2  184   1.444   3.313   3.283
  820SOL     OW  185   1.603   2.309   2.599
  820SOL    HW1  186   1.529   2.355   2.549
  820SOL    HW2  187   1.654   2.377   2.652
  827SOL     OW  188   1.594   1.976   3.342
  827SOL    HW1  189   1.576   2.043   3.270
  827SOL    HW2  190   1.591   2.022   3.431
  829SOL     OW  191   1.842   3.629   2.221
  829SOL    HW1  192   1.896   3.600   2.301
  829SOL    HW2  193   1.872   3.719   2.192
  831SOL     OW  194   1.689   2.784   2.474
  831SOL    HW1  195   1.784   2.755   2.482
  831SOL    HW2  196   1.681   2.849   2.399
  832SOL     OW  197   1.641   2.970   2.294
  832SOL    HW1  198   1.727   2.972   2.242
  832SOL    HW2  199   1.655   3.017   2.382
  835SOL     OW  200   1.293   3.090   3.285
  835SOL    HW1  201   1.330   3.017   3.227
  835SOL    HW2  202   1.345   3.095   3.370
  838SOL     OW  203   1.525   2.861   2.052
  838SOL    HW1  204   1.462   2.785   2.065
  838SOL    HW2  205   1.573   2.879   2.138
  841SOL     OW  206   1.466   3.279   2.815
  841SOL    HW1  207   1.407   3.285   2.895
  841SOL    HW2  208   1.451   3.191   2.769
  842SOL     OW  209   1.667   3.576   2.434
  842SOL    HW1  210   1.626   3.553   2.346
  842SOL    HW2  211   1.649   3.502   2.499
  844SOL     OW  212   1.281   2.207   2.806
  844SOL    HW1  213   1.195   2.157   2.793
  844SOL    HW2  214   1.343   2.153   2.862
  845SOL     OW  215   1.576   3.524   2.169
  845SOL    HW1  216   1.665   3.570   2.172
  845SOL    HW2  217   1.555   3.500   2.074
  847SOL     OW  218   1.394   2.331   3.536
  847SOL    HW1  219   1.374   2.374   3.624
  847SOL    HW2  220   1.472   2.269   3.545
  849SOL     OW  221   0.991   2.272   3.104
  849SOL    HW1  222   0.914   2.306   3.158
  849SOL    HW2  223   0.957   2.221   3.025
  850SOL     OW  224   1.041   2.563   2.291
  850SOL    HW1  225   1.067   2.559   2.387
  850SOL    HW2  226   0.956   2.512   2.277
  854SOL     OW  227   1.719   2.447   3.693
  854SOL    HW1  228   1.693   2.536   3.657
  854SOL    HW2  229   1.717   2.379   3.620
  855SOL     OW  230   1.362   3.006   2.407
  855SOL    HW1  231   1.445   2.977   2.359
  855SOL    HW2  232   1.313   3.073   2.351
  857SOL     OW  233   1.008   3.318   2.339
  857SOL    HW1  234   0.962   3.390   2.287
  857SOL    HW2  235   1.004   3.338   2.437
  859SOL     OW  236   1.795   2.928   2.735
  859SOL    HW1  237   1.733   2.913   2.659
  859SOL    HW2  238   1.743   2.939   2.820
  860SOL     OW  239   1.227   3.412   3.368
  860SOL    HW1  240   1.233   3.335   3.432
  860SOL    HW2  241   1.175   3.386   3.288
  862SOL     OW  242   1.458   2.597   2.590
  862SOL    HW1  243   1.453   2.532   2.665
  862SOL    HW2  244   1.538   2.656   2.603
  866SOL     OW  245   1.632   3.239   1.943
  866SOL    HW1  246   1.600   3.333   1.933
  866SOL    HW2  247   1.556   3.176   1.931
  868SOL     OW  248   1.400   1.969   2.288
  868SOL    HW1  249   1.376   1.932   2.198
  868SOL    HW2  250   1.499   1.985   2.292
  872SOL     OW  251   1.547   2.084   3.591
  872SOL    HW1  252   1.542   2.121   3.683
  872SOL    HW2  253   1.475   2.015   3.579
  876SOL     OW  254   1.351   2.452   3.295
  876SOL    HW1  255   1.379   2.409   3.380
  876SOL    HW2  256   1.376   2.548   3.296
  878SOL     OW  257   0.922   2.365   2.761
  878SOL    HW1  258   0.897   2.356   2.665
  878SOL    HW2  259   0.970   2.283   2.792
  880SOL     OW  260   1.434   3.050   1.903
  880SOL    HW1  261   1.466   2.974   1.960
  880SOL    HW2  262   1.342   3.077   1.933
  882SOL     OW  263   0.935   2.098   2.342
  882SOL    HW1  264   0.887   2.139   2.264
  882SOL    HW2  265   1.034   2.096   2.323
  883SOL     OW  266   1.076   2.545   3.326
  883SOL    HW1  267   0.996   2.484   3.329
  883SOL    HW2  268   1.157   2.492   3.302
  884SOL     OW  269   1.227   3.432   2.655
  884SOL    HW1  270   1.248   3.506   2.590
  884SOL    HW2  271   1.295   3.432   2.728
  886SOL     OW  272   1.271   3.659   2.453
  886SOL    HW1  273   1.315   3.723   2.389
  886SOL    HW2  274   1.221   3.711   2.523
  887SOL     OW  275   1.032   2.411   1.878
  887SOL    HW1  276   0.991   2.493   1.839
  887SOL    HW2  277   1.096   2.437   1.951
  890SOL     OW  278   0.866   2.316   2.504
  890SOL    HW1  279   0.834   2.388   2.442
  890SOL    HW2  280   0.890   2.235   2.451
  891SOL     OW  281   1.017   1.901   2.615
  891SOL    HW1  282   0.945   1.906   2.546
  891SOL    HW2  283   0.993   1.832   2.684
  892SOL     OW  284   1.429   3.035   2.729
  892SOL    HW1  285   1.374   2.951   2.722
  892SOL    HW2  286   1.455   3.064   2.637
  893SOL     OW  287   1.466   2.452   2.854
  893SOL    HW1  288   1.436   2.357   2.861
  893SOL    HW2  289   1.539   2.468   2.920
  894SOL     OW  290   1.857   2.695   2.239
  894SOL    HW1  291   1.899   2.631   2.303
  894SOL    HW2  292   1.819   2.644   2.161
  896SOL     OW  293   1.664   3.142   2.519
  896SOL    HW1  294   1.763   3.150   2.533
  896SOL    HW2  295   1.619   3.226   2.550
  897SOL     OW  296   1.390   2.437   1.940
  897SOL    HW1  297   1.336   2.416   2.021
  897SOL    HW2  298   1.481   2.396   1.949
  899SOL     OW  299   1.754   3.085   3.450
  899SOL    HW1  300   1.845   3.046   3.437
  899SOL    HW2  301   1.762   3.181   3.474
  900SOL     OW  302   1.064   3.209   3.202
  900SOL    HW1  303   0.984   3.186   3.257
  900SOL    HW2  304   1.147   3.183   3.251
  901SOL     OW  305   1.592   3.491   3.487
  901SOL    HW1  306   1.619   3.525   3.397
  901SOL    HW2  307   1.671   3.453   3.533
  902SOL     OW  308   1.111   3.057   2.962
  902SOL    HW1  309   1.071   3.101   3.043
  902SOL    HW2  310   1.070   3.094   2.879
  903SOL     OW  311   1.638   2.961   2.941
  903SOL    HW1  312   1.643   3.042   3.000
  903SOL    HW2  313   1.552   2.963   2.890
  908SOL     OW  314   1.274   2.248   3.124
  908SOL    HW1  315   1.295   2.322   3.188
  908SOL    HW2  316   1.185   2.265   3.081
  912SOL     OW  317   1.252   3.210   2.250
  912SOL    HW1  318   1.302   3.287   2.290
  912SOL    HW2  319   1.157   3.212   2.282
  913SOL     OW  320   1.272   3.307   3.004
  913SOL    HW1  321   1.319   3.320   3.091
  913SOL    HW2  322   1.206   3.233   3.013
  914SOL     OW  323   1.582   2.501   2.334
  914SOL    HW1  324   1.551   2.562   2.407
  914SOL    HW2  325   1.632   2.553   2.265
  917SOL     OW  326   1.587   2.641   3.532
  917SOL    HW1  327   1.495   2.679   3.527
  917SOL    HW2  328   1.647   2.688   3.467
  921SOL     OW  329   1.360   2.724   2.907
  921SOL    HW1  330   1.285   2.724   2.841
  921SOL    HW2  331   1.397   2.632   2.916
  922SOL     OW  332   1.209   2.387   2.137
  922SOL    HW1  333   1.222   2.303   2.191
  922SOL    HW2  334   1.180   2.461   2.197
  926SOL     OW  335   1.728   2.797   3.716
  926SOL    HW1  336   1.682   2.790   3.627
  926SOL    HW2  337   1.666   2.841   3.782
  928SOL     OW  338   1.622   2.229   2.236
  928SOL    HW1  339   1.624   2.153   2.300
  928SOL    HW2  340   1.574   2.306   2.276
  929SOL     OW  341   1.023   2.628   2.828
  929SOL    HW1  342   1.038   2.649   2.924
  929SOL    HW2  343   0.993   2.533   2.819
  931SOL     OW  344   1.859   3.380   3.467
  931SOL    HW1  345   1.873   3.407   3.372
  931SOL    HW2  346   1.942   3.402   3.520
  933SOL     OW  347   1.540   2.136   1.987
  933SOL    HW1  348   1.479   2.061   2.010
  933SOL    HW2  349   1.562   2.188   2.070
  934SOL     OW  350   1.303   2.700   1.904
  934SOL    HW1  351   1.337   2.607   1.919
  934SOL    HW2  352   1.321   2.727   1.809
  935SOL     OW  353   1.068   3.195   2.711
  935SOL    HW1  354   1.075   3.111   2.656
  935SOL    HW2  355   1.130   3.264   2.675
  938SOL     OW  356   1.138   2.242   3.540
  938SOL    HW1  357   1.093   2.305   3.604
  938SOL    HW2  358   1.231   2.273   3.523
  939SOL     OW  359   1.160   2.069   3.339
  939SOL    HW1  360   1.160   2.133   3.416
  939SOL    HW2  361   1.188   2.117   3.256
  943SOL     OW  362   1.002   2.658   3.100
  943SOL    HW1  363   1.043   2.626   3.186
  943SOL    HW2  364   0.906   2.631   3.097
  946SOL     OW  365   1.369   2.812   3.522
  946SOL    HW1  366   1.408   2.901   3.542
  946SOL    HW2  367   1.379   2.792   3.425
  948SOL     OW  368   1.657   2.466   3.068
  948SOL    HW1  369   1.619   2.397   3.130
  948SOL    HW2  370   1.739   2.430   3.024
  954SOL     OW  371   1.347   2.921   3.096
  954SOL    HW1  372   1.371   2.858   3.022
  954SOL    HW2  373   1.257   2.961   3.078
  955SOL     OW  374   1.302   2.717   2.171
  955SOL    HW1  375   1.216   2.686   2.213
  955SOL    HW2  376   1.298   2.703   2.072
  956SOL     OW  377   1.759   3.609   3.016
  956SOL    HW1  378   1.820   3.639   2.943
  956SOL    HW2  379   1.721   3.520   2.994
  957SOL     OW  380   1.252   3.593   2.990
  957SOL    HW1  381   1.336   3.598   2.936
  957SOL    HW2  382   1.229   3.497   3.008
  960SOL     OW  383   1.726   1.997   2.385
  960SOL    HW1  384   1.799   1.980   2.318
  960SOL    HW2  385   1.695   1.910   2.423
  961SOL     OW  386   1.388   3.435   2.339
  961SOL    HW1  387   1.455   3.447   2.265
  961SOL    HW2  388   1.348   3.524   2.362
  963SOL     OW  389   1.280   2.789   2.534
  963SOL    HW1  390   1.340   2.708   2.536
  963SOL    HW2  391   1.320   2.858   2.474
  966SOL     OW  392   1.650   3.582   3.256
  966SOL    HW1  393   1.703   3.592   3.172
  966SOL    HW2  394   1.623   3.672   3.290
  967SOL     OW  395   1.841   2.037   2.825
  967SOL    HW1  396   1.880   1.952   2.789
  967SOL    HW2  397   1.743   2.039   2.806
  971SOL     OW  398   0.916   2.772   2.153
  971SOL    HW1  399   0.979   2.810   2.085
  971SOL    HW2  400   0.956   2.689   2.192
  972SOL     OW  401   1.504   3.469   1.906
  972SOL    HW1  402   1.412   3.506   1.913
  972SOL    HW2  403   1.542   3.489   1.816
  974SOL     OW  404   1.614   3.154   3.151
  974SOL    HW1  405   1.674   3.157   3.231
  974SOL    HW2  406   1.539   3.218   3.164
  975SOL     OW  407   1.039   2.960   2.558
  975SOL    HW1  408   0.969   2.913   2.612
  975SOL    HW2  409   1.098   2.892   2.515
  976SOL     OW  410   1.014   2.098   2.833
  976SOL    HW1  411   1.006   2.062   2.740
  976SOL    HW2  412   1.012   2.022   2.898
  978SOL     OW  413   1.709   2.247   3.243
  978SOL    HW1  414   1.782   2.316   3.247
  978SOL    HW2  415   1.737   2.172   3.184
  983SOL     OW  416   1.440   2.718   3.260
  983SOL    HW1  417   1.383   2.770   3.197
  983SOL    HW2  418   1.536   2.730   3.236
  985SOL     OW  419   1.183   3.197   1.981
  985SOL    HW1  420   1.084   3.186   1.983
  985SOL    HW2  421   1.217   3.212   2.074
  987SOL     OW  422   1.493   3.629   2.821
  987SOL    HW1  423   1.526   3.693   2.752
  987SOL    HW2  424   1.559   3.623   2.896
  989SOL     OW  425   1.450   3.082   3.495
  989SOL    HW1  426   1.441   3.072   3.594
  989SOL    HW2  427   1.546   3.075   3.469
  991SOL     OW  428   1.674   2.745   3.116
  991SOL    HW1  429   1.647   2.656   3.079
  991SOL    HW2  430   1.675   2.813   3.043
  992SOL     OW  431   1.225   2.187   2.311
  992SOL    HW1  432   1.290   2.113   2.300
  992SOL    HW2  433   1.245   2.237   2.395
  994SOL     OW  434   1.777   2.204   3.504
  994SOL    HW1  435   1.760   2.235   3.410
  994SOL    HW2  436   1.693   2.167   3.542
  995SOL     OW  437   1.730   2.796   3.379
  995SOL    HW1  438   1.768   2.887   3.394
  995SOL    HW2  439   1.722   2.779   3.280
  998SOL     OW  440   0.859   2.818   2.723
  998SOL    HW1  441   0.913   2.749   2.771
  998SOL    HW2  442   0.827   2.887   2.789
  999SOL     OW  443   1.083   2.846   1.949
  999SOL    HW1  444   1.060   2.899   1.867
  999SOL    HW2  445   1.164   2.790   1.930
 1000SOL     OW  446   1.861   3.431   2.713
 1000SOL    HW1  447   1.790   3.419   2.643
 1000SOL    HW2  448   1.862   3.352   2.773
 1004SOL     OW  449   1.824   2.054   3.089
 1004SOL    HW1  450   1.820   1.964   3.133
 1004SOL    HW2  451   1.827   2.043   2.990
 1006SOL     OW  452   1.705   3.349   2.966
 1006SOL    HW1  453   1.612   3.324   2.939
 1006SOL    HW2  454   1.731   3.299   3.048
 1009SOL     OW  455   1.424   2.076   2.974
 1009SOL    HW1  456   1.476   2.011   3.029
 1009SOL    HW2  457   1.375   2.139   3.035
 1013SOL     OW  458   1.352   1.914   2.030
 1013SOL    HW1  459   1.387   1.873   1.946
 1013SOL    HW2  460   1.262   1.876   2.050
 1014SOL     OW  461   1.300   2.315   2.553
 1014SOL    HW1  462   1.241   2.395   2.557
 1014SOL    HW2  463   1.315   2.280   2.646
 1015SOL     OW  464   1.593   2.083   2.744
 1015SOL    HW1  465   1.509   2.082   2.798
 1015SOL    HW2  466   1.595   2.166   2.688
 1024SOL     OW  467   1.755   2.469   3.955
 1024SOL    HW1  468   1.743   2.456   3.856
 1024SOL    HW2  469   1.725   2.388   4.004
 1043SOL     OW  470   1.525   2.861   3.914
 1043SOL    HW1  471   1.462   2.785   3.927
 1043SOL    HW2  472   1.573   2.879   4.000
 1063SOL     OW  473   1.632   3.239   3.805
 1063SOL    HW1  474   1.600   3.333   3.795
 1063SOL    HW2  475   1.556   3.176   3.793
 1074SOL     OW  476   1.434   3.050   3.765
 1074SOL    HW1  477   1.466   2.974   3.822
 1074SOL    HW2  478   1.342   3.077   3.795
 1087SOL     OW  479   1.857   2.695   4.101
 1087SOL    HW1  480   1.899   2.631   4.165
 1087SOL    HW2  481   1.819   2.644   4.023
 1090SOL     OW  482   1.390   2.437   3.802
 1090SOL    HW1  483   1.336   2.416   3.883
 1090SOL    HW2  484   1.481   2.396   3.811
 1116SOL     OW  485   1.540   2.136   3.849
 1116SOL    HW1  486   1.479   2.061   3.872
 1116SOL    HW2  487   1.562   2.188   3.932
 1117SOL     OW  488   1.303   2.700   3.766
 1117SOL    HW1  489   1.337   2.607   3.781
 1117SOL    HW2  490   1.321   2.727   3.671
 1375SOL     OW  491   1.594   3.838   3.342
 1375SOL    HW1  492   1.576   3.905   3.270
 1375SOL    HW2  493   1.591   3.884   3.431
 1408SOL     OW  494   1.400   3.831   2.288
 1408SOL    HW1  495   1.376   3.794   2.198
 1408SOL    HW2  496   1.499   3.847   2.292
 1485SOL     OW  497   1.726   3.859   2.385
 1485SOL    HW1  498   1.799   3.842   2.318
 1485SOL    HW2  499   1.695   3.772   2.423
 1488SOL     OW  500   1.841   3.899   2.825
 1488SOL    HW1  501   1.880   3.814   2.789
 1488SOL    HW2  502   1.743   3.901   2.806
 1518SOL     OW  503   1.824   3.916   3.089
 1518SOL    HW1  504   1.820   3.826   3.133
 1518SOL    HW2  505   1.827   3.905   2.990
 1527SOL     OW  506   1.593   3.945   2.744
 1527SOL    HW1  507   1.509   3.944   2.798
 1527SOL    HW2  508   1.595   4.028   2.688
 1676SOL     OW  509   2.548   1.161   1.803
 1676SOL    HW1  510   2.608   1.240   1.817
 1676SOL    HW2  511   2.462   1.192   1.762
 1682SOL     OW  512   2.989   1.341   1.690
 1682SOL    HW1  513   3.036   1.341   1.778
 1682SOL    HW2  514   2.941   1.254   1.679
 1685SOL     OW  515   2.482   1.786   1.439
 1685SOL    HW1  516   2.390   1.769   1.474
 1685SOL    HW2  517   2.510   1.878   1.465
 1699SOL     OW  518   3.049   1.792   1.616
 1699SOL    HW1  519   3.073   1.852   1.540
 1699SOL    HW2  520   3.056   1.697   1.586
 1712SOL     OW  521   1.992   1.821   1.571
 1712SOL    HW1  522   1.982   1.806   1.670
 1712SOL    HW2  523   1.906   1.857   1.535
 1720SOL     OW  524   3.089   1.550   1.506
 1720SOL    HW1  525   3.095   1.473   1.570
 1720SOL    HW2  526   3.037   1.524   1.426
 1723SOL     OW  527   2.323   1.266   1.727
 1723SOL    HW1  528   2.273   1.267   1.641
 1723SOL    HW2  529   2.260   1.248   1.803
 1729SOL     OW  530   2.111   1.785   1.241
 1729SOL    HW1  531   2.168   1.720   1.291
 1729SOL    HW2  532   2.095   1.752   1.148
 1735SOL     OW  533   2.750   1.514   1.195
 1735SOL    HW1  534   2.727   1.489   1.101
 1735SOL    HW2  535   2.811   1.445   1.234
 1761SOL     OW  536   3.454   1.629   1.625
 1761SOL    HW1  537   3.481   1.663   1.535
 1761SOL    HW2  538   3.533   1.591   1.671
 1765SOL     OW  539   2.842   1.116   1.719
 1765SOL    HW1  540   2.743   1.122   1.729
 1765SOL    HW2  541   2.865   1.036   1.663
 1769SOL     OW  542   1.926   1.564   1.331
 1769SOL    HW1  543   1.880   1.646   1.297
 1769SOL    HW2  544   2.024   1.583   1.340
 1775SOL     OW  545   2.216   1.510   1.329
 1775SOL    HW1  546   2.195   1.466   1.242
 1775SOL    HW2  547   2.313   1.536   1.332
 1790SOL     OW  548   2.842   1.573   1.700
 1790SOL    HW1  549   2.822   1.617   1.612
 1790SOL    HW2  550   2.881   1.482   1.684
 1809SOL     OW  551   2.114   1.564   1.744
 1809SOL    HW1  552   2.084   1.621   1.820
 1809SOL    HW2  553   2.107   1.467   1.770
 1811SOL     OW  554   2.792   1.678   1.465
 1811SOL    HW1  555   2.768   1.660   1.370
 1811SOL    HW2  556   2.822   1.772   1.475
 1817SOL     OW  557   3.114   1.731   1.128
 1817SOL    HW1  558   3.198   1.736   1.074
 1817SOL    HW2  559   3.091   1.635   1.146
 1819SOL     OW  560   2.550   1.662   1.716
 1819SOL    HW1  561   2.494   1.743   1.725
 1819SOL    HW2  562   2.602   1.666   1.630
 1823SOL     OW  563   1.992   1.794   1.851
 1823SOL    HW1  564   1.951   1.720   1.904
 1823SOL    HW2  565   2.056   1.845   1.909
 1825SOL     OW  566   2.692   1.273   1.422
 1825SOL    HW1  567   2.687   1.306   1.517
 1825SOL    HW2  568   2.606   1.292   1.376
 1827SOL     OW  569   3.512   1.720   1.394
 1827SOL    HW1  570   3.565   1.730   1.310
 1827SOL    HW2  571   3.485   1.810   1.428
 1834SOL     OW  572   2.234   1.288   1.490
 1834SOL    HW1  573   2.221   1.381   1.456
 1834SOL    HW2  574   2.150   1.236   1.477
 1850SOL     OW  575   2.252   1.741   1.560
 1850SOL    HW1  576   2.161   1.782   1.558
 1850SOL    HW2  577   2.245   1.647   1.592
 1861SOL     OW  578   2.083   1.314   1.844
 1861SOL    HW1  579   2.018   1.241   1.823
 1861SOL    HW2  580   2.087   1.328   1.942
 1863SOL     OW  581   2.534   1.391   1.624
 1863SOL    HW1  582   2.456   1.341   1.662
 1863SOL    HW2  583   2.531   1.486   1.655
 1872SOL     OW  584   2.480   1.567   1.284
 1872SOL    HW1  585   2.475   1.649   1.341
 1872SOL    HW2  586   2.569   1.564   1.239
 1881SOL     OW  587   2.431   1.275   3.027
 1881SOL    HW1  588   2.338   1.268   2.990
 1881SOL    HW2  589   2.442   1.364   3.071
 1882SOL     OW  590   3.417   1.511   2.565
 1882SOL    HW1  591   3.360   1.495   2.646
 1882SOL    HW2  592   3.358   1.521   2.485
 1885SOL     OW  593   2.630   1.144   2.885
 1885SOL    HW1  594   2.552   1.161   2.945
 1885SOL    HW2  595   2.664   1.231   2.849
 1887SOL     OW  596   2.547   1.012   2.527
 1887SOL    HW1  597   2.616   0.996   2.597
 1887SOL    HW2  598   2.474   1.069   2.565
 1888SOL     OW  599   2.548   1.161   3.665
 1888SOL    HW1  600   2.608   1.240   3.679
 1888SOL    HW2  601   2.462   1.192   3.624
 1889SOL     OW  602   2.197   1.435   2.923
 1889SOL    HW1  603   2.119   1.404   2.870
 1889SOL    HW2  604   2.255   1.493   2.866
 1890SOL     OW  605   3.322   1.505   3.201
 1890SOL    HW1  606   3.346   1.599   3.227
 1890SOL    HW2  607   3.306   1.451   3.283
 1893SOL     OW  608   2.093   1.713   2.345
 1893SOL    HW1  609   2.127   1.790   2.399
 1893SOL    HW2  610   2.137   1.713   2.255
 1894SOL     OW  611   2.989   1.341   3.552
 1894SOL    HW1  612   3.036   1.341   3.640
 1894SOL    HW2  613   2.941   1.254   3.541
 1895SOL     OW  614   2.092   1.434   2.400
 1895SOL    HW1  615   2.066   1.530   2.400
 1895SOL    HW2  616   2.021   1.380   2.445
 1896SOL     OW  617   2.102   1.091   2.748
 1896SOL    HW1  618   2.116   1.007   2.800
 1896SOL    HW2  619   2.047   1.155   2.803
 1897SOL     OW  620   2.482   1.786   3.301
 1897SOL    HW1  621   2.390   1.769   3.336
 1897SOL    HW2  622   2.510   1.878   3.327
 1898SOL     OW  623   2.468   0.964   1.985
 1898SOL    HW1  624   2.475   1.048   1.931
 1898SOL    HW2  625   2.514   0.977   2.073
 1901SOL     OW  626   3.704   1.767   2.221
 1901SOL    HW1  627   3.758   1.738   2.301
 1901SOL    HW2  628   3.734   1.857   2.192
 1902SOL     OW  629   1.889   1.596   1.979
 1902SOL    HW1  630   1.870   1.500   2.000
 1902SOL    HW2  631   1.856   1.654   2.054
 1904SOL     OW  632   3.503   1.108   2.294
 1904SOL    HW1  633   3.589   1.110   2.242
 1904SOL    HW2  634   3.517   1.155   2.382
 1906SOL     OW  635   2.475   1.365   2.588
 1906SOL    HW1  636   2.426   1.278   2.597
 1906SOL    HW2  637   2.452   1.408   2.501
 1907SOL     OW  638   3.155   1.228   3.285
 1907SOL    HW1  639   3.192   1.155   3.227
 1907SOL    HW2  640   3.207   1.233   3.370
 1909SOL     OW  641   2.059   0.976   3.126
 1909SOL    HW1  642   2.148   0.931   3.112
 1909SOL    HW2  643   1.986   0.911   3.107
 1911SOL     OW  644   3.049   1.792   3.478
 1911SOL    HW1  645   3.073   1.852   3.402
 1911SOL    HW2  646   3.056   1.697   3.448
 1913SOL     OW  647   3.328   1.417   2.815
 1913SOL    HW1  648   3.269   1.423   2.895
 1913SOL    HW2  649   3.313   1.329   2.769
 1914SOL     OW  650   3.529   1.714   2.434
 1914SOL    HW1  651   3.488   1.691   2.346
 1914SOL    HW2  652   3.511   1.640   2.499
 1917SOL     OW  653   3.438   1.662   2.169
 1917SOL    HW1  654   3.527   1.708   2.172
 1917SOL    HW2  655   3.417   1.638   2.074
 1924SOL     OW  656   1.992   1.821   3.433
 1924SOL    HW1  657   1.982   1.806   3.532
 1924SOL    HW2  658   1.906   1.857   3.397
 1927SOL     OW  659   3.224   1.144   2.407
 1927SOL    HW1  660   3.307   1.115   2.359
 1927SOL    HW2  661   3.175   1.211   2.351
 1929SOL     OW  662   2.870   1.456   2.339
 1929SOL    HW1  663   2.824   1.528   2.287
 1929SOL    HW2  664   2.866   1.476   2.437
 1930SOL     OW  665   2.213   1.801   2.715
 1930SOL    HW1  666   2.263   1.715   2.721
 1930SOL    HW2  667   2.278   1.878   2.712
 1932SOL     OW  668   3.089   1.550   3.368
 1932SOL    HW1  669   3.095   1.473   3.432
 1932SOL    HW2  670   3.037   1.524   3.288
 1933SOL     OW  671   2.183   0.943   2.104
 1933SOL    HW1  672   2.265   0.982   2.062
 1933SOL    HW2  673   2.156   0.861   2.055
 1935SOL     OW  674   2.323   1.266   3.589
 1935SOL    HW1  675   2.273   1.267   3.503
 1935SOL    HW2  676   2.260   1.248   3.665
 1936SOL     OW  677   2.973   1.776   2.099
 1936SOL    HW1  678   2.913   1.714   2.149
 1936SOL    HW2  679   3.004   1.732   2.014
 1938SOL     OW  680   3.494   1.377   1.943
 1938SOL    HW1  681   3.462   1.471   1.933
 1938SOL    HW2  682   3.418   1.314   1.931
 1939SOL     OW  683   2.326   1.743   2.185
 1939SOL    HW1  684   2.359   1.782   2.271
 1939SOL    HW2  685   2.402   1.736   2.120
 1941SOL     OW  686   2.111   1.785   3.103
 1941SOL    HW1  687   2.168   1.720   3.153
 1941SOL    HW2  688   2.095   1.752   3.010
 1942SOL     OW  689   2.802   1.698   2.766
 1942SOL    HW1  690   2.882   1.641   2.787
 1942SOL    HW2  691   2.753   1.658   2.689
 1947SOL     OW  692   2.750   1.514   3.057
 1947SOL    HW1  693   2.727   1.489   2.963
 1947SOL    HW2  694   2.811   1.445   3.096
 1949SOL     OW  695   2.665   1.402   2.786
 1949SOL    HW1  696   2.755   1.416   2.744
 1949SOL    HW2  697   2.594   1.404   2.715
 1952SOL     OW  698   3.296   1.188   1.903
 1952SOL    HW1  699   3.328   1.112   1.960
 1952SOL    HW2  700   3.204   1.215   1.933
 1956SOL     OW  701   3.089   1.570   2.655
 1956SOL    HW1  702   3.110   1.644   2.590
 1956SOL    HW2  703   3.157   1.570   2.728
 1957SOL     OW  704   2.321   1.152   2.603
 1957SOL    HW1  705   2.250   1.125   2.668
 1957SOL    HW2  706   2.295   1.124   2.510
 1958SOL     OW  707   3.133   1.797   2.453
 1958SOL    HW1  708   3.177   1.861   2.389
 1958SOL    HW2  709   3.083   1.849   2.523
 1964SOL     OW  710   3.291   1.173   2.729
 1964SOL    HW1  711   3.236   1.089   2.722
 1964SOL    HW2  712   3.317   1.202   2.637
 1967SOL     OW  713   2.350   1.385   2.036
 1967SOL    HW1  714   2.263   1.370   2.083
 1967SOL    HW2  715   2.333   1.411   1.941
 1968SOL     OW  716   3.526   1.280   2.519
 1968SOL    HW1  717   3.625   1.288   2.533
 1968SOL    HW2  718   3.481   1.364   2.550
 1972SOL     OW  719   2.926   1.347   3.202
 1972SOL    HW1  720   2.846   1.324   3.257
 1972SOL    HW2  721   3.009   1.321   3.251
 1973SOL     OW  722   3.454   1.629   3.487
 1973SOL    HW1  723   3.481   1.663   3.397
 1973SOL    HW2  724   3.533   1.591   3.533
 1974SOL     OW  725   2.973   1.195   2.962
 1974SOL    HW1  726   2.933   1.239   3.043
 1974SOL    HW2  727   2.932   1.232   2.879
 1975SOL     OW  728   3.500   1.099   2.941
 1975SOL    HW1  729   3.505   1.180   3.000
 1975SOL    HW2  730   3.414   1.101   2.890
 1977SOL     OW  731   2.842   1.116   3.581
 1977SOL    HW1  732   2.743   1.122   3.591
 1977SOL    HW2  733   2.865   1.036   3.525
 1978SOL     OW  734   2.567   1.050   2.230
 1978SOL    HW1  735   2.553   1.057   2.329
 1978SOL    HW2  736   2.651   0.999   2.212
 1981SOL     OW  737   1.926   1.564   3.193
 1981SOL    HW1  738   1.880   1.646   3.159
 1981SOL    HW2  739   2.024   1.583   3.202
 1982SOL     OW  740   2.229   1.100   2.363
 1982SOL    HW1  741   2.222   1.183   2.307
 1982SOL    HW2  742   2.233   1.020   2.303
 1984SOL     OW  743   3.114   1.348   2.250
 1984SOL    HW1  744   3.164   1.425   2.290
 1984SOL    HW2  745   3.019   1.350   2.282
 1985SOL     OW  746   3.134   1.445   3.004
 1985SOL    HW1  747   3.181   1.458   3.091
 1985SOL    HW2  748   3.068   1.371   3.013
 1987SOL     OW  749   2.216   1.510   3.191
 1987SOL    HW1  750   2.195   1.466   3.104
 1987SOL    HW2  751   2.313   1.536   3.194
 1992SOL     OW  752   2.435   0.870   2.891
 1992SOL    HW1  753   2.479   0.959   2.882
 1992SOL    HW2  754   2.372   0.870   2.968
 1996SOL     OW  755   1.899   1.310   3.144
 1996SOL    HW1  756   1.952   1.261   3.212
 1996SOL    HW2  757   1.921   1.408   3.149
 2002SOL     OW  758   2.842   1.573   3.562
 2002SOL    HW1  759   2.822   1.617   3.474
 2002SOL    HW2  760   2.881   1.482   3.546
 2003SOL     OW  761   3.721   1.518   3.467
 2003SOL    HW1  762   3.735   1.545   3.372
 2003SOL    HW2  763   3.804   1.540   3.520
 2007SOL     OW  764   2.930   1.333   2.711
 2007SOL    HW1  765   2.937   1.249   2.656
 2007SOL    HW2  766   2.992   1.402   2.675
 2012SOL     OW  767   1.870   1.326   2.062
 2012SOL    HW1  768   1.777   1.347   2.031
 2012SOL    HW2  769   1.880   1.227   2.075
 2013SOL     OW  770   1.950   1.801   2.789
 2013SOL    HW1  771   1.908   1.715   2.762
 2013SOL    HW2  772   2.044   1.804   2.755
 2014SOL     OW  773   2.366   1.568   2.772
 2014SOL    HW1  774   2.432   1.642   2.781
 2014SOL    HW2  775   2.410   1.489   2.730
 2021SOL     OW  776   2.114   1.564   3.606
 2021SOL    HW1  777   2.084   1.621   3.682
 2021SOL    HW2  778   2.107   1.467   3.632
 2023SOL     OW  779   2.792   1.678   3.327
 2023SOL    HW1  780   2.768   1.660   3.232
 2023SOL    HW2  781   2.822   1.772   3.337
 2025SOL     OW  782   2.021   1.137   3.328
 2025SOL    HW1  783   2.043   1.076   3.404
 2025SOL    HW2  784   2.031   1.088   3.242
 2026SOL     OW  785   3.209   1.059   3.096
 2026SOL    HW1  786   3.233   0.996   3.022
 2026SOL    HW2  787   3.119   1.099   3.078
 2028SOL     OW  788   3.621   1.747   3.016
 2028SOL    HW1  789   3.682   1.777   2.943
 2028SOL    HW2  790   3.583   1.658   2.994
 2029SOL     OW  791   3.114   1.731   2.990
 2029SOL    HW1  792   3.198   1.736   2.936
 2029SOL    HW2  793   3.091   1.635   3.008
 2030SOL     OW  794   1.945   1.258   2.884
 2030SOL    HW1  795   1.940   1.257   2.984
 2030SOL    HW2  796   1.862   1.217   2.846
 2031SOL     OW  797   2.550   1.662   3.578
 2031SOL    HW1  798   2.494   1.743   3.587
 2031SOL    HW2  799   2.602   1.666   3.492
 2033SOL     OW  800   3.250   1.573   2.339
 2033SOL    HW1  801   3.317   1.585   2.265
 2033SOL    HW2  802   3.210   1.662   2.362
 2034SOL     OW  803   1.992   1.794   3.713
 2034SOL    HW1  804   1.951   1.720   3.766
 2034SOL    HW2  805   2.056   1.845   3.771
 2035SOL     OW  806   3.142   0.927   2.534
 2035SOL    HW1  807   3.202   0.846   2.536
 2035SOL    HW2  808   3.182   0.996   2.474
 2036SOL     OW  809   2.692   1.273   3.284
 2036SOL    HW1  810   2.687   1.306   3.379
 2036SOL    HW2  811   2.606   1.292   3.238
 2037SOL     OW  812   2.534   1.616   2.016
 2037SOL    HW1  813   2.543   1.626   1.917
 2037SOL    HW2  814   2.494   1.527   2.037
 2038SOL     OW  815   3.512   1.720   3.256
 2038SOL    HW1  816   3.565   1.730   3.172
 2038SOL    HW2  817   3.485   1.810   3.290
 2041SOL     OW  818   3.056   1.612   1.893
 2041SOL    HW1  819   3.062   1.519   1.930
 2041SOL    HW2  820   2.997   1.612   1.813
 2042SOL     OW  821   2.684   1.002   3.234
 2042SOL    HW1  822   2.724   1.001   3.142
 2042SOL    HW2  823   2.694   1.094   3.274
 2043SOL     OW  824   2.778   0.910   2.153
 2043SOL    HW1  825   2.841   0.948   2.085
 2043SOL    HW2  826   2.818   0.827   2.192
 2044SOL     OW  827   3.366   1.607   1.906
 2044SOL    HW1  828   3.274   1.644   1.913
 2044SOL    HW2  829   3.404   1.627   1.816
 2045SOL     OW  830   2.234   1.288   3.352
 2045SOL    HW1  831   2.221   1.381   3.318
 2045SOL    HW2  832   2.150   1.236   3.339
 2046SOL     OW  833   3.476   1.292   3.151
 2046SOL    HW1  834   3.536   1.295   3.231
 2046SOL    HW2  835   3.401   1.356   3.164
 2047SOL     OW  836   2.901   1.098   2.558
 2047SOL    HW1  837   2.831   1.051   2.612
 2047SOL    HW2  838   2.960   1.030   2.515
 2049SOL     OW  839   2.452   1.487   2.353
 2049SOL    HW1  840   2.494   1.429   2.283
 2049SOL    HW2  841   2.408   1.566   2.309
 2051SOL     OW  842   2.117   1.348   2.152
 2051SOL    HW1  843   2.021   1.349   2.125
 2051SOL    HW2  844   2.129   1.401   2.236
 2056SOL     OW  845   3.045   1.335   1.981
 2056SOL    HW1  846   2.946   1.324   1.983
 2056SOL    HW2  847   3.079   1.350   2.074
 2058SOL     OW  848   3.355   1.767   2.821
 2058SOL    HW1  849   3.388   1.831   2.752
 2058SOL    HW2  850   3.421   1.761   2.896
 2060SOL     OW  851   3.312   1.220   3.495
 2060SOL    HW1  852   3.303   1.210   3.594
 2060SOL    HW2  853   3.408   1.213   3.469
 2061SOL     OW  854   2.252   1.741   3.422
 2061SOL    HW1  855   2.161   1.782   3.420
 2061SOL    HW2  856   2.245   1.647   3.454
 2067SOL     OW  857   2.721   1.374   1.878
 2067SOL    HW1  858   2.675   1.389   1.966
 2067SOL    HW2  859   2.765   1.459   1.848
 2068SOL     OW  860   2.523   1.790   2.815
 2068SOL    HW1  861   2.477   1.878   2.802
 2068SOL    HW2  862   2.622   1.802   2.808
 2069SOL     OW  863   2.721   0.956   2.723
 2069SOL    HW1  864   2.775   0.887   2.771
 2069SOL    HW2  865   2.689   1.025   2.789
 2070SOL     OW  866   2.945   0.984   1.949
 2070SOL    HW1  867   2.922   1.037   1.867
 2070SOL    HW2  868   3.026   0.928   1.930
 2071SOL     OW  869   3.723   1.569   2.713
 2071SOL    HW1  870   3.652   1.557   2.643
 2071SOL    HW2  871   3.724   1.490   2.773
 2072SOL     OW  872   2.083   1.314   3.706
 2072SOL    HW1  873   2.018   1.241   3.685
 2072SOL    HW2  874   2.087   1.328   3.804
 2073SOL     OW  875   1.941   1.240   2.515
 2073SOL    HW1  876   1.940   1.193   2.603
 2073SOL    HW2  877   2.023   1.212   2.464
 2074SOL     OW  878   2.534   1.391   3.486
 2074SOL    HW1  879   2.456   1.341   3.524
 2074SOL    HW2  880   2.531   1.486   3.517
 2077SOL     OW  881   3.567   1.487   2.966
 2077SOL    HW1  882   3.474   1.462   2.939
 2077SOL    HW2  883   3.593   1.437   3.048
 2079SOL     OW  884   2.674   1.586   2.549
 2079SOL    HW1  885   2.706   1.596   2.455
 2079SOL    HW2  886   2.595   1.524   2.551
 2082SOL     OW  887   2.632   1.330   2.163
 2082SOL    HW1  888   2.586   1.243   2.180
 2082SOL    HW2  889   2.723   1.327   2.204
 2083SOL     OW  890   2.480   1.567   3.146
 2083SOL    HW1  891   2.475   1.649   3.203
 2083SOL    HW2  892   2.569   1.564   3.101
 2087SOL     OW  893   1.901   1.077   2.162
 2087SOL    HW1  894   2.000   1.066   2.153
 2087SOL    HW2  895   1.861   0.991   2.194
 2088SOL     OW  896   2.737   1.646   2.199
 2088SOL    HW1  897   2.660   1.611   2.145
 2088SOL    HW2  898   2.705   1.717   2.261
 2108SOL     OW  899   1.889   1.596   3.841
 2108SOL    HW1  900   1.870   1.500   3.862
 2108SOL    HW2  901   1.856   1.654   3.916
 2133SOL     OW  902   2.973   1.776   3.961
 2133SOL    HW1  903   2.913   1.714   4.011
 2133SOL    HW2  904   3.004   1.732   3.876
 2135SOL     OW  905   2.326   1.743   4.047
 2135SOL    HW1  906   2.359   1.782   4.133
 2135SOL    HW2  907   2.402   1.736   3.982
 2159SOL     OW  908   2.350   1.385   3.898
 2159SOL    HW1  909   2.263   1.370   3.945
 2159SOL    HW2  910   2.333   1.411   3.803
 2212SOL     OW  911   2.534   1.616   3.878
 2212SOL    HW1  912   2.543   1.626   3.779
 2212SOL    HW2  913   2.494   1.527   3.899
 2215SOL     OW  914   3.056   1.612   3.755
 2215SOL    HW1  915   3.062   1.519   3.792
 2215SOL    HW2  916   2.997   1.612   3.675
 2218SOL     OW  917   3.366   1.607   3.768
 2218SOL    HW1  918   3.274   1.644   3.775
 2218SOL    HW2  919   3.404   1.627   3.678
 2235SOL     OW  920   2.721   1.374   3.740
 2235SOL    HW1  921   2.675   1.389   3.828
 2235SOL    HW2  922   2.765   1.459   3.710
 2254SOL     OW  923   2.737   1.646   4.061
 2254SOL    HW1  924   2.660   1.611   4.007
 2254SOL    HW2  925   2.705   1.717   4.123
 2256SOL     OW  926   2.087   2.137   0.996
 2256SOL    HW1  927   2.122   2.120   1.088
 2256SOL    HW2  928   1.999   2.092   0.984
 2258SOL     OW  929   2.431   3.137   1.165
 2258SOL    HW1  930   2.338   3.130   1.128
 2258SOL    HW2  931   2.442   3.226   1.209
 2262SOL     OW  932   2.630   3.006   1.023
 2262SOL    HW1  933   2.552   3.023   1.083
 2262SOL    HW2  934   2.664   3.093   0.987
 2263SOL     OW  935   2.712   2.660   1.823
 2263SOL    HW1  936   2.708   2.736   1.888
 2263SOL    HW2  937   2.734   2.696   1.732
 2265SOL     OW  938   2.548   3.023   1.803
 2265SOL    HW1  939   2.608   3.102   1.817
 2265SOL    HW2  940   2.462   3.054   1.762
 2266SOL     OW  941   2.197   3.297   1.061
 2266SOL    HW1  942   2.119   3.266   1.008
 2266SOL    HW2  943   2.255   3.355   1.004
 2267SOL     OW  944   3.322   3.367   1.339
 2267SOL    HW1  945   3.346   3.461   1.365
 2267SOL    HW2  946   3.306   3.313   1.421
 2268SOL     OW  947   2.300   2.254   1.499
 2268SOL    HW1  948   2.382   2.198   1.508
 2268SOL    HW2  949   2.219   2.196   1.503
 2271SOL     OW  950   2.989   3.203   1.690
 2271SOL    HW1  951   3.036   3.203   1.778
 2271SOL    HW2  952   2.941   3.116   1.679
 2274SOL     OW  953   2.482   3.648   1.439
 2274SOL    HW1  954   2.390   3.631   1.474
 2274SOL    HW2  955   2.510   3.740   1.465
 2276SOL     OW  956   3.456   1.976   1.480
 2276SOL    HW1  957   3.438   2.043   1.408
 2276SOL    HW2  958   3.453   2.022   1.569
 2282SOL     OW  959   1.975   2.599   1.597
 2282SOL    HW1  960   2.063   2.586   1.642
 2282SOL    HW2  961   1.962   2.696   1.575
 2284SOL     OW  962   3.155   3.090   1.423
 2284SOL    HW1  963   3.192   3.017   1.365
 2284SOL    HW2  964   3.207   3.095   1.508
 2286SOL     OW  965   2.059   2.838   1.264
 2286SOL    HW1  966   2.148   2.793   1.250
 2286SOL    HW2  967   1.986   2.773   1.245
 2288SOL     OW  968   3.049   3.654   1.616
 2288SOL    HW1  969   3.073   3.714   1.540
 2288SOL    HW2  970   3.056   3.559   1.586
 2289SOL     OW  971   2.179   2.113   1.801
 2289SOL    HW1  972   2.250   2.184   1.807
 2289SOL    HW2  973   2.091   2.152   1.829
 2293SOL     OW  974   3.143   2.207   0.944
 2293SOL    HW1  975   3.057   2.157   0.931
 2293SOL    HW2  976   3.205   2.153   1.000
 2295SOL     OW  977   2.669   2.467   1.465
 2295SOL    HW1  978   2.622   2.464   1.554
 2295SOL    HW2  979   2.618   2.412   1.399
 2296SOL     OW  980   3.256   2.331   1.674
 2296SOL    HW1  981   3.236   2.374   1.762
 2296SOL    HW2  982   3.334   2.269   1.683
 2297SOL     OW  983   2.835   2.752   1.572
 2297SOL    HW1  984   2.881   2.668   1.543
 2297SOL    HW2  985   2.779   2.786   1.497
 2298SOL     OW  986   2.853   2.272   1.242
 2298SOL    HW1  987   2.776   2.306   1.296
 2298SOL    HW2  988   2.819   2.221   1.163
 2301SOL     OW  989   1.992   3.683   1.571
 2301SOL    HW1  990   1.982   3.668   1.670
 2301SOL    HW2  991   1.906   3.719   1.535
 2303SOL     OW  992   3.581   2.447   1.831
 2303SOL    HW1  993   3.555   2.536   1.795
 2303SOL    HW2  994   3.579   2.379   1.758
 2309SOL     OW  995   3.089   3.412   1.506
 2309SOL    HW1  996   3.095   3.335   1.570
 2309SOL    HW2  997   3.037   3.386   1.426
 2312SOL     OW  998   2.323   3.128   1.727
 2312SOL    HW1  999   2.273   3.129   1.641
 2312SOL    HW2 1000   2.260   3.110   1.803
 2314SOL     OW 1001   2.064   2.147   1.498
 2314SOL    HW1 1002   1.984   2.207   1.485
 2314SOL    HW2 1003   2.054   2.098   1.584
 2318SOL     OW 1004   2.111   3.647   1.241
 2318SOL    HW1 1005   2.168   3.582   1.291
 2318SOL    HW2 1006   2.095   3.614   1.148
 2321SOL     OW 1007   3.409   2.084   1.729
 2321SOL    HW1 1008   3.404   2.121   1.821
 2321SOL    HW2 1009   3.337   2.015   1.717
 2322SOL     OW 1010   2.643   2.126   1.749
 2322SOL    HW1 1011   2.710   2.065   1.792
 2322SOL    HW2 1012   2.570   2.145   1.814
 2323SOL     OW 1013   2.750   3.376   1.195
 2323SOL    HW1 1014   2.727   3.351   1.101
 2323SOL    HW2 1015   2.811   3.307   1.234
 2324SOL     OW 1016   3.213   2.452   1.433
 2324SOL    HW1 1017   3.241   2.409   1.518
 2324SOL    HW2 1018   3.238   2.548   1.434
 2326SOL     OW 1019   2.784   2.365   0.899
 2326SOL    HW1 1020   2.759   2.356   0.803
 2326SOL    HW2 1021   2.832   2.283   0.930
 2331SOL     OW 1022   2.938   2.545   1.464
 2331SOL    HW1 1023   2.858   2.484   1.467
 2331SOL    HW2 1024   3.019   2.492   1.440
 2336SOL     OW 1025   1.940   2.418   1.386
 2336SOL    HW1 1026   2.032   2.417   1.345
 2336SOL    HW2 1027   1.934   2.492   1.453
 2337SOL     OW 1028   2.423   2.084   1.147
 2337SOL    HW1 1029   2.461   2.000   1.184
 2337SOL    HW2 1030   2.335   2.103   1.191
 2341SOL     OW 1031   3.328   2.452   0.992
 2341SOL    HW1 1032   3.298   2.357   0.999
 2341SOL    HW2 1033   3.401   2.468   1.058
 2347SOL     OW 1034   3.616   3.085   1.588
 2347SOL    HW1 1035   3.707   3.046   1.575
 2347SOL    HW2 1036   3.624   3.181   1.612
 2348SOL     OW 1037   2.926   3.209   1.340
 2348SOL    HW1 1038   2.846   3.186   1.395
 2348SOL    HW2 1039   3.009   3.183   1.389
 2349SOL     OW 1040   3.454   3.491   1.625
 2349SOL    HW1 1041   3.481   3.525   1.535
 2349SOL    HW2 1042   3.533   3.453   1.671
 2350SOL     OW 1043   2.973   3.057   1.100
 2350SOL    HW1 1044   2.933   3.101   1.181
 2350SOL    HW2 1045   2.932   3.094   1.017
 2352SOL     OW 1046   2.777   1.951   1.402
 2352SOL    HW1 1047   2.802   1.931   1.307
 2352SOL    HW2 1048   2.849   2.007   1.444
 2353SOL     OW 1049   2.842   2.978   1.719
 2353SOL    HW1 1050   2.743   2.984   1.729
 2353SOL    HW2 1051   2.865   2.898   1.663
 2355SOL     OW 1052   2.272   2.675   1.251
 2355SOL    HW1 1053   2.358   2.687   1.301
 2355SOL    HW2 1054   2.230   2.588   1.278
 2356SOL     OW 1055   3.136   2.248   1.262
 2356SOL    HW1 1056   3.157   2.322   1.326
 2356SOL    HW2 1057   3.047   2.265   1.219
 2357SOL     OW 1058   1.926   3.426   1.331
 2357SOL    HW1 1059   1.880   3.508   1.297
 2357SOL    HW2 1060   2.024   3.445   1.340
 2359SOL     OW 1061   2.428   2.399   0.865
 2359SOL    HW1 1062   2.440   2.465   0.791
 2359SOL    HW2 1063   2.474   2.433   0.948
 2361SOL     OW 1064   3.134   3.307   1.142
 2361SOL    HW1 1065   3.181   3.320   1.229
 2361SOL    HW2 1066   3.068   3.233   1.151
 2363SOL     OW 1067   2.216   3.372   1.329
 2363SOL    HW1 1068   2.195   3.328   1.242
 2363SOL    HW2 1069   2.313   3.398   1.332
 2364SOL     OW 1070   2.264   2.613   1.598
 2364SOL    HW1 1071   2.332   2.668   1.551
 2364SOL    HW2 1072   2.304   2.525   1.625
 2365SOL     OW 1073   3.449   2.641   1.670
 2365SOL    HW1 1074   3.357   2.679   1.665
 2365SOL    HW2 1075   3.509   2.688   1.605
 2366SOL     OW 1076   2.875   1.967   1.770
 2366SOL    HW1 1077   2.881   2.052   1.718
 2366SOL    HW2 1078   2.907   1.891   1.713
 2367SOL     OW 1079   2.366   1.912   1.740
 2367SOL    HW1 1080   2.324   1.855   1.670
 2367SOL    HW2 1081   2.300   1.981   1.772
 2368SOL     OW 1082   2.435   2.732   1.029
 2368SOL    HW1 1083   2.479   2.821   1.020
 2368SOL    HW2 1084   2.372   2.732   1.106
 2369SOL     OW 1085   3.222   2.724   1.045
 2369SOL    HW1 1086   3.147   2.724   0.979
 2369SOL    HW2 1087   3.259   2.632   1.054
 2371SOL     OW 1088   2.169   2.075   1.231
 2371SOL    HW1 1089   2.146   2.112   1.321
 2371SOL    HW2 1090   2.139   1.980   1.225
 2372SOL     OW 1091   1.899   3.172   1.282
 2372SOL    HW1 1092   1.952   3.123   1.350
 2372SOL    HW2 1093   1.921   3.270   1.287
 2373SOL     OW 1094   2.594   2.496   1.064
 2373SOL    HW1 1095   2.653   2.470   0.988
 2373SOL    HW2 1096   2.566   2.592   1.053
 2374SOL     OW 1097   3.590   2.797   1.854
 2374SOL    HW1 1098   3.544   2.790   1.765
 2374SOL    HW2 1099   3.528   2.841   1.920
 2377SOL     OW 1100   2.885   2.628   0.966
 2377SOL    HW1 1101   2.900   2.649   1.062
 2377SOL    HW2 1102   2.855   2.533   0.957
 2378SOL     OW 1103   2.842   3.435   1.700
 2378SOL    HW1 1104   2.822   3.479   1.612
 2378SOL    HW2 1105   2.881   3.344   1.684
 2379SOL     OW 1106   3.721   3.380   1.605
 2379SOL    HW1 1107   3.735   3.407   1.510
 2379SOL    HW2 1108   3.804   3.402   1.658
 2380SOL     OW 1109   2.212   2.760   1.804
 2380SOL    HW1 1110   2.288   2.804   1.852
 2380SOL    HW2 1111   2.247   2.713   1.722
 2384SOL     OW 1112   2.181   2.672   0.949
 2384SOL    HW1 1113   2.274   2.708   0.954
 2384SOL    HW2 1114   2.175   2.587   1.001
 2385SOL     OW 1115   2.201   2.371   1.006
 2385SOL    HW1 1116   2.149   2.288   0.989
 2385SOL    HW2 1117   2.278   2.376   0.942
 2386SOL     OW 1118   3.000   2.242   1.678
 2386SOL    HW1 1119   2.955   2.305   1.742
 2386SOL    HW2 1120   3.093   2.273   1.661
 2387SOL     OW 1121   3.022   2.069   1.477
 2387SOL    HW1 1122   3.022   2.133   1.554
 2387SOL    HW2 1123   3.050   2.117   1.394
 2391SOL     OW 1124   2.864   2.658   1.238
 2391SOL    HW1 1125   2.905   2.626   1.324
 2391SOL    HW2 1126   2.768   2.631   1.235
 2392SOL     OW 1127   1.902   2.406   1.114
 2392SOL    HW1 1128   1.987   2.373   1.073
 2392SOL    HW2 1129   1.915   2.421   1.212
 2393SOL     OW 1130   2.051   2.382   1.722
 2393SOL    HW1 1131   2.110   2.342   1.652
 2393SOL    HW2 1132   1.993   2.453   1.681
 2394SOL     OW 1133   3.231   2.812   1.660
 2394SOL    HW1 1134   3.270   2.901   1.680
 2394SOL    HW2 1135   3.241   2.792   1.563
 2396SOL     OW 1136   3.519   2.466   1.206
 2396SOL    HW1 1137   3.481   2.397   1.268
 2396SOL    HW2 1138   3.601   2.430   1.162
 2397SOL     OW 1139   2.114   3.426   1.744
 2397SOL    HW1 1140   2.084   3.483   1.820
 2397SOL    HW2 1141   2.107   3.329   1.770
 2398SOL     OW 1142   2.533   2.326   1.269
 2398SOL    HW1 1143   2.499   2.237   1.239
 2398SOL    HW2 1144   2.559   2.380   1.189
 2399SOL     OW 1145   2.792   3.540   1.465
 2399SOL    HW1 1146   2.768   3.522   1.370
 2399SOL    HW2 1147   2.822   3.634   1.475
 2401SOL     OW 1148   2.021   2.999   1.466
 2401SOL    HW1 1149   2.043   2.938   1.542
 2401SOL    HW2 1150   2.031   2.950   1.380
 2402SOL     OW 1151   3.209   2.921   1.234
 2402SOL    HW1 1152   3.233   2.858   1.160
 2402SOL    HW2 1153   3.119   2.961   1.216
 2406SOL     OW 1154   1.945   3.120   1.022
 2406SOL    HW1 1155   1.940   3.119   1.122
 2406SOL    HW2 1156   1.862   3.079   0.984
 2407SOL     OW 1157   2.550   3.524   1.716
 2407SOL    HW1 1158   2.494   3.605   1.725
 2407SOL    HW2 1159   2.602   3.528   1.630
 2411SOL     OW 1160   1.992   3.656   1.851
 2411SOL    HW1 1161   1.951   3.582   1.904
 2411SOL    HW2 1162   2.056   3.707   1.909
 2413SOL     OW 1163   2.692   3.135   1.422
 2413SOL    HW1 1164   2.687   3.168   1.517
 2413SOL    HW2 1165   2.606   3.154   1.376
 2415SOL     OW 1166   3.512   3.582   1.394
 2415SOL    HW1 1167   3.565   3.592   1.310
 2415SOL    HW2 1168   3.485   3.672   1.428
 2419SOL     OW 1169   2.684   2.864   1.372
 2419SOL    HW1 1170   2.724   2.863   1.280
 2419SOL    HW2 1171   2.694   2.956   1.412
 2422SOL     OW 1172   2.234   3.150   1.490
 2422SOL    HW1 1173   2.221   3.243   1.456
 2422SOL    HW2 1174   2.150   3.098   1.477
 2423SOL     OW 1175   3.476   3.154   1.289
 2423SOL    HW1 1176   3.536   3.157   1.369
 2423SOL    HW2 1177   3.401   3.218   1.302
 2425SOL     OW 1178   2.876   2.098   0.971
 2425SOL    HW1 1179   2.868   2.062   0.878
 2425SOL    HW2 1180   2.874   2.022   1.036
 2427SOL     OW 1181   3.571   2.247   1.381
 2427SOL    HW1 1182   3.644   2.316   1.385
 2427SOL    HW2 1183   3.599   2.172   1.322
 2429SOL     OW 1184   1.967   2.875   1.726
 2429SOL    HW1 1185   1.890   2.842   1.780
 2429SOL    HW2 1186   2.052   2.845   1.768
 2430SOL     OW 1187   2.534   2.065   1.489
 2430SOL    HW1 1188   2.624   2.049   1.449
 2430SOL    HW2 1189   2.542   2.070   1.588
 2432SOL     OW 1190   3.302   2.718   1.398
 2432SOL    HW1 1191   3.245   2.770   1.335
 2432SOL    HW2 1192   3.398   2.730   1.374
 2435SOL     OW 1193   2.475   2.704   1.431
 2435SOL    HW1 1194   2.531   2.785   1.414
 2435SOL    HW2 1195   2.534   2.624   1.434
 2437SOL     OW 1196   2.578   2.427   1.708
 2437SOL    HW1 1197   2.597   2.492   1.782
 2437SOL    HW2 1198   2.638   2.347   1.717
 2438SOL     OW 1199   3.312   3.082   1.633
 2438SOL    HW1 1200   3.303   3.072   1.732
 2438SOL    HW2 1201   3.408   3.075   1.607
 2439SOL     OW 1202   2.252   3.603   1.560
 2439SOL    HW1 1203   2.161   3.644   1.558
 2439SOL    HW2 1204   2.245   3.509   1.592
 2440SOL     OW 1205   3.536   2.745   1.254
 2440SOL    HW1 1206   3.509   2.656   1.217
 2440SOL    HW2 1207   3.537   2.813   1.181
 2443SOL     OW 1208   3.639   2.204   1.642
 2443SOL    HW1 1209   3.622   2.235   1.548
 2443SOL    HW2 1210   3.555   2.167   1.680
 2444SOL     OW 1211   3.592   2.796   1.517
 2444SOL    HW1 1212   3.630   2.887   1.532
 2444SOL    HW2 1213   3.584   2.779   1.418
 2447SOL     OW 1214   2.721   2.818   0.861
 2447SOL    HW1 1215   2.775   2.749   0.909
 2447SOL    HW2 1216   2.689   2.887   0.927
 2450SOL     OW 1217   2.083   3.176   1.844
 2450SOL    HW1 1218   2.018   3.103   1.823
 2450SOL    HW2 1219   2.087   3.190   1.942
 2452SOL     OW 1220   2.534   3.253   1.624
 2452SOL    HW1 1221   2.456   3.203   1.662
 2452SOL    HW2 1222   2.531   3.348   1.655
 2456SOL     OW 1223   2.179   2.409   1.280
 2456SOL    HW1 1224   2.217   2.350   1.352
 2456SOL    HW2 1225   2.219   2.383   1.192
 2458SOL     OW 1226   3.286   2.076   1.112
 2458SOL    HW1 1227   3.338   2.011   1.167
 2458SOL    HW2 1228   3.237   2.139   1.173
 2459SOL     OW 1229   2.863   1.896   1.154
 2459SOL    HW1 1230   2.800   1.824   1.123
 2459SOL    HW2 1231   2.956   1.860   1.154
 2461SOL     OW 1232   2.480   3.429   1.284
 2461SOL    HW1 1233   2.475   3.511   1.341
 2461SOL    HW2 1234   2.569   3.426   1.239
 2467SOL     OW 1235   2.092   2.490   1.975
 2467SOL    HW1 1236   1.999   2.488   2.012
 2467SOL    HW2 1237   2.093   2.451   1.883
 2468SOL     OW 1238   2.087   2.137   2.858
 2468SOL    HW1 1239   2.122   2.120   2.950
 2468SOL    HW2 1240   1.999   2.092   2.846
 2469SOL     OW 1241   1.881   2.230   2.509
 2469SOL    HW1 1242   1.799   2.273   2.548
 2469SOL    HW2 1243   1.853   2.157   2.446
 2470SOL     OW 1244   2.431   3.137   3.027
 2470SOL    HW1 1245   2.338   3.130   2.990
 2470SOL    HW2 1246   2.442   3.226   3.071
 2471SOL     OW 1247   3.417   3.373   2.565
 2471SOL    HW1 1248   3.360   3.357   2.646
 2471SOL    HW2 1249   3.358   3.383   2.485
 2472SOL     OW 1250   2.997   2.565   2.579
 2472SOL    HW1 1251   3.054   2.643   2.554
 2472SOL    HW2 1252   2.937   2.591   2.655
 2473SOL     OW 1253   3.617   2.469   2.093
 2473SOL    HW1 1254   3.605   2.456   1.994
 2473SOL    HW2 1255   3.587   2.388   2.142
 2474SOL     OW 1256   2.630   3.006   2.885
 2474SOL    HW1 1257   2.552   3.023   2.945
 2474SOL    HW2 1258   2.664   3.093   2.849
 2475SOL     OW 1259   2.712   2.660   3.685
 2475SOL    HW1 1260   2.708   2.736   3.750
 2475SOL    HW2 1261   2.734   2.696   3.594
 2476SOL     OW 1262   2.547   2.874   2.527
 2476SOL    HW1 1263   2.616   2.858   2.597
 2476SOL    HW2 1264   2.474   2.931   2.565
 2477SOL     OW 1265   2.548   3.023   3.665
 2477SOL    HW1 1266   2.608   3.102   3.679
 2477SOL    HW2 1267   2.462   3.054   3.624
 2478SOL     OW 1268   2.197   3.297   2.923
 2478SOL    HW1 1269   2.119   3.266   2.870
 2478SOL    HW2 1270   2.255   3.355   2.866
 2479SOL     OW 1271   3.322   3.367   3.201
 2479SOL    HW1 1272   3.346   3.461   3.227
 2479SOL    HW2 1273   3.306   3.313   3.283
 2480SOL     OW 1274   2.300   2.254   3.361
 2480SOL    HW1 1275   2.382   2.198   3.370
 2480SOL    HW2 1276   2.219   2.196   3.365
 2481SOL     OW 1277   3.465   2.309   2.599
 2481SOL    HW1 1278   3.391   2.355   2.549
 2481SOL    HW2 1279   3.516   2.377   2.652
 2482SOL     OW 1280   2.093   3.575   2.345
 2482SOL    HW1 1281   2.127   3.652   2.399
 2482SOL    HW2 1282   2.137   3.575   2.255
 2483SOL     OW 1283   2.989   3.203   3.552
 2483SOL    HW1 1284   3.036   3.203   3.640
 2483SOL    HW2 1285   2.941   3.116   3.541
 2484SOL     OW 1286   2.092   3.296   2.400
 2484SOL    HW1 1287   2.066   3.392   2.400
 2484SOL    HW2 1288   2.021   3.242   2.445
 2485SOL     OW 1289   2.102   2.953   2.748
 2485SOL    HW1 1290   2.116   2.869   2.800
 2485SOL    HW2 1291   2.047   3.017   2.803
 2486SOL     OW 1292   2.482   3.648   3.301
 2486SOL    HW1 1293   2.390   3.631   3.336
 2486SOL    HW2 1294   2.510   3.740   3.327
 2487SOL     OW 1295   3.456   1.976   3.342
 2487SOL    HW1 1296   3.438   2.043   3.270
 2487SOL    HW2 1297   3.453   2.022   3.431
 2488SOL     OW 1298   1.984   2.505   2.425
 2488SOL    HW1 1299   1.939   2.417   2.442
 2488SOL    HW2 1300   1.983   2.559   2.509
 2489SOL     OW 1301   3.704   3.629   2.221
 2489SOL    HW1 1302   3.758   3.600   2.301
 2489SOL    HW2 1303   3.734   3.719   2.192
 2490SOL     OW 1304   1.889   3.458   1.979
 2490SOL    HW1 1305   1.870   3.362   2.000
 2490SOL    HW2 1306   1.856   3.516   2.054
 2491SOL     OW 1307   3.551   2.784   2.474
 2491SOL    HW1 1308   3.646   2.755   2.482
 2491SOL    HW2 1309   3.543   2.849   2.399
 2492SOL     OW 1310   3.503   2.970   2.294
 2492SOL    HW1 1311   3.589   2.972   2.242
 2492SOL    HW2 1312   3.517   3.017   2.382
 2493SOL     OW 1313   1.975   2.599   3.459
 2493SOL    HW1 1314   2.063   2.586   3.504
 2493SOL    HW2 1315   1.962   2.696   3.437
 2494SOL     OW 1316   2.475   3.227   2.588
 2494SOL    HW1 1317   2.426   3.140   2.597
 2494SOL    HW2 1318   2.452   3.270   2.501
 2495SOL     OW 1319   3.155   3.090   3.285
 2495SOL    HW1 1320   3.192   3.017   3.227
 2495SOL    HW2 1321   3.207   3.095   3.370
 2496SOL     OW 1322   2.671   1.866   2.364
 2496SOL    HW1 1323   2.711   1.957   2.355
 2496SOL    HW2 1324   2.571   1.874   2.370
 2497SOL     OW 1325   2.059   2.838   3.126
 2497SOL    HW1 1326   2.148   2.793   3.112
 2497SOL    HW2 1327   1.986   2.773   3.107
 2498SOL     OW 1328   3.387   2.861   2.052
 2498SOL    HW1 1329   3.324   2.785   2.065
 2498SOL    HW2 1330   3.435   2.879   2.138
 2499SOL     OW 1331   3.049   3.654   3.478
 2499SOL    HW1 1332   3.073   3.714   3.402
 2499SOL    HW2 1333   3.056   3.559   3.448
 2500SOL     OW 1334   2.179   2.113   3.663
 2500SOL    HW1 1335   2.250   2.184   3.669
 2500SOL    HW2 1336   2.091   2.152   3.691
 2501SOL     OW 1337   3.328   3.279   2.815
 2501SOL    HW1 1338   3.269   3.285   2.895
 2501SOL    HW2 1339   3.313   3.191   2.769
 2502SOL     OW 1340   3.529   3.576   2.434
 2502SOL    HW1 1341   3.488   3.553   2.346
 2502SOL    HW2 1342   3.511   3.502   2.499
 2503SOL     OW 1343   3.143   2.207   2.806
 2503SOL    HW1 1344   3.057   2.157   2.793
 2503SOL    HW2 1345   3.205   2.153   2.862
 2504SOL     OW 1346   3.438   3.524   2.169
 2504SOL    HW1 1347   3.527   3.570   2.172
 2504SOL    HW2 1348   3.417   3.500   2.074
 2505SOL     OW 1349   3.256   2.331   3.536
 2505SOL    HW1 1350   3.236   2.374   3.624
 2505SOL    HW2 1351   3.334   2.269   3.545
 2506SOL     OW 1352   2.835   2.752   3.434
 2506SOL    HW1 1353   2.881   2.668   3.405
 2506SOL    HW2 1354   2.779   2.786   3.359
 2507SOL     OW 1355   2.853   2.272   3.104
 2507SOL    HW1 1356   2.776   2.306   3.158
 2507SOL    HW2 1357   2.819   2.221   3.025
 2508SOL     OW 1358   2.903   2.563   2.291
 2508SOL    HW1 1359   2.929   2.559   2.387
 2508SOL    HW2 1360   2.818   2.512   2.277
 2509SOL     OW 1361   1.938   2.673   2.651
 2509SOL    HW1 1362   2.037   2.661   2.660
 2509SOL    HW2 1363   1.914   2.768   2.672
 2510SOL     OW 1364   1.992   3.683   3.433
 2510SOL    HW1 1365   1.982   3.668   3.532
 2510SOL    HW2 1366   1.906   3.719   3.397
 2511SOL     OW 1367   2.727   2.210   2.057
 2511SOL    HW1 1368   2.786   2.273   2.008
 2511SOL    HW2 1369   2.746   2.116   2.028
 2512SOL     OW 1370   3.581   2.447   3.693
 2512SOL    HW1 1371   3.555   2.536   3.657
 2512SOL    HW2 1372   3.579   2.379   3.620
 2513SOL     OW 1373   3.224   3.006   2.407
 2513SOL    HW1 1374   3.307   2.977   2.359
 2513SOL    HW2 1375   3.175   3.073   2.351
 2514SOL     OW 1376   2.412   2.058   2.747
 2514SOL    HW1 1377   2.407   2.053   2.847
 2514SOL    HW2 1378   2.414   2.154   2.718
 2515SOL     OW 1379   2.870   3.318   2.339
 2515SOL    HW1 1380   2.824   3.390   2.287
 2515SOL    HW2 1381   2.866   3.338   2.437
 2516SOL     OW 1382   2.213   3.663   2.715
 2516SOL    HW1 1383   2.263   3.577   2.721
 2516SOL    HW2 1384   2.278   3.740   2.712
 2517SOL     OW 1385   3.657   2.928   2.735
 2517SOL    HW1 1386   3.595   2.913   2.659
 2517SOL    HW2 1387   3.605   2.939   2.820
 2518SOL     OW 1388   3.089   3.412   3.368
 2518SOL    HW1 1389   3.095   3.335   3.432
 2518SOL    HW2 1390   3.037   3.386   3.288
 2519SOL     OW 1391   2.183   2.805   2.104
 2519SOL    HW1 1392   2.265   2.844   2.062
 2519SOL    HW2 1393   2.156   2.723   2.055
 2520SOL     OW 1394   3.320   2.597   2.590
 2520SOL    HW1 1395   3.315   2.532   2.665
 2520SOL    HW2 1396   3.400   2.656   2.603
 2521SOL     OW 1397   2.323   3.128   3.589
 2521SOL    HW1 1398   2.273   3.129   3.503
 2521SOL    HW2 1399   2.260   3.110   3.665
 2522SOL     OW 1400   2.973   3.638   2.099
 2522SOL    HW1 1401   2.913   3.576   2.149
 2522SOL    HW2 1402   3.004   3.594   2.014
 2523SOL     OW 1403   2.064   2.147   3.360
 2523SOL    HW1 1404   1.984   2.207   3.347
 2523SOL    HW2 1405   2.054   2.098   3.446
 2524SOL     OW 1406   3.494   3.239   1.943
 2524SOL    HW1 1407   3.462   3.333   1.933
 2524SOL    HW2 1408   3.418   3.176   1.931
 2525SOL     OW 1409   2.326   3.605   2.185
 2525SOL    HW1 1410   2.359   3.644   2.271
 2525SOL    HW2 1411   2.402   3.598   2.120
 2526SOL     OW 1412   3.262   1.969   2.288
 2526SOL    HW1 1413   3.238   1.932   2.198
 2526SOL    HW2 1414   3.361   1.985   2.292
 2527SOL     OW 1415   2.111   3.647   3.103
 2527SOL    HW1 1416   2.168   3.582   3.153
 2527SOL    HW2 1417   2.095   3.614   3.010
 2528SOL     OW 1418   2.802   3.560   2.766
 2528SOL    HW1 1419   2.882   3.503   2.787
 2528SOL    HW2 1420   2.753   3.520   2.689
 2529SOL     OW 1421   2.244   2.562   2.342
 2529SOL    HW1 1422   2.289   2.472   2.339
 2529SOL    HW2 1423   2.150   2.551   2.375
 2530SOL     OW 1424   3.409   2.084   3.591
 2530SOL    HW1 1425   3.404   2.121   3.683
 2530SOL    HW2 1426   3.337   2.015   3.579
 2531SOL     OW 1427   2.476   1.984   1.979
 2531SOL    HW1 1428   2.574   1.962   1.986
 2531SOL    HW2 1429   2.445   1.967   1.886
 2532SOL     OW 1430   2.643   2.126   3.611
 2532SOL    HW1 1431   2.710   2.065   3.654
 2532SOL    HW2 1432   2.570   2.145   3.676
 2533SOL     OW 1433   2.750   3.376   3.057
 2533SOL    HW1 1434   2.727   3.351   2.963
 2533SOL    HW2 1435   2.811   3.307   3.096
 2534SOL     OW 1436   3.213   2.452   3.295
 2534SOL    HW1 1437   3.241   2.409   3.380
 2534SOL    HW2 1438   3.238   2.548   3.296
 2535SOL     OW 1439   2.665   3.264   2.786
 2535SOL    HW1 1440   2.755   3.278   2.744
 2535SOL    HW2 1441   2.594   3.266   2.715
 2536SOL     OW 1442   2.401   1.926   2.374
 2536SOL    HW1 1443   2.320   1.927   2.432
 2536SOL    HW2 1444   2.404   2.009   2.319
 2537SOL     OW 1445   3.296   3.050   1.903
 2537SOL    HW1 1446   3.328   2.974   1.960
 2537SOL    HW2 1447   3.204   3.077   1.933
 2538SOL     OW 1448   2.159   1.897   2.033
 2538SOL    HW1 1449   2.208   1.981   2.012
 2538SOL    HW2 1450   2.221   1.832   2.078
 2539SOL     OW 1451   2.797   2.098   2.342
 2539SOL    HW1 1452   2.749   2.139   2.264
 2539SOL    HW2 1453   2.896   2.096   2.323
 2540SOL     OW 1454   2.938   2.545   3.326
 2540SOL    HW1 1455   2.858   2.484   3.329
 2540SOL    HW2 1456   3.019   2.492   3.302
 2541SOL     OW 1457   3.089   3.432   2.655
 2541SOL    HW1 1458   3.110   3.506   2.590
 2541SOL    HW2 1459   3.157   3.432   2.728
 2542SOL     OW 1460   2.321   3.014   2.603
 2542SOL    HW1 1461   2.250   2.987   2.668
 2542SOL    HW2 1462   2.295   2.986   2.510
 2543SOL     OW 1463   3.133   3.659   2.453
 2543SOL    HW1 1464   3.177   3.723   2.389
 2543SOL    HW2 1465   3.083   3.711   2.523
 2544SOL     OW 1466   2.894   2.411   1.878
 2544SOL    HW1 1467   2.853   2.493   1.839
 2544SOL    HW2 1468   2.958   2.437   1.951
 2545SOL     OW 1469   1.940   2.418   3.248
 2545SOL    HW1 1470   2.032   2.417   3.207
 2545SOL    HW2 1471   1.934   2.492   3.315
 2546SOL     OW 1472   2.423   2.084   3.009
 2546SOL    HW1 1473   2.461   2.000   3.046
 2546SOL    HW2 1474   2.335   2.103   3.053
 2547SOL     OW 1475   2.879   1.901   2.615
 2547SOL    HW1 1476   2.807   1.906   2.546
 2547SOL    HW2 1477   2.855   1.832   2.684
 2548SOL     OW 1478   3.291   3.035   2.729
 2548SOL    HW1 1479   3.236   2.951   2.722
 2548SOL    HW2 1480   3.317   3.064   2.637
 2549SOL     OW 1481   3.328   2.452   2.854
 2549SOL    HW1 1482   3.298   2.357   2.861
 2549SOL    HW2 1483   3.401   2.468   2.920
 2550SOL     OW 1484   3.719   2.695   2.239
 2550SOL    HW1 1485   3.761   2.631   2.303
 2550SOL    HW2 1486   3.681   2.644   2.161
 2551SOL     OW 1487   2.350   3.247   2.036
 2551SOL    HW1 1488   2.263   3.232   2.083
 2551SOL    HW2 1489   2.333   3.273   1.941
 2552SOL     OW 1490   3.526   3.142   2.519
 2552SOL    HW1 1491   3.625   3.150   2.533
 2552SOL    HW2 1492   3.481   3.226   2.550
 2553SOL     OW 1493   3.252   2.437   1.940
 2553SOL    HW1 1494   3.198   2.416   2.021
 2553SOL    HW2 1495   3.343   2.396   1.949
 2554SOL     OW 1496   2.389   2.118   2.190
 2554SOL    HW1 1497   2.416   2.059   2.115
 2554SOL    HW2 1498   2.389   2.213   2.159
 2555SOL     OW 1499   3.616   3.085   3.450
 2555SOL    HW1 1500   3.707   3.046   3.437
 2555SOL    HW2 1501   3.624   3.181   3.474
 2556SOL     OW 1502   2.926   3.209   3.202
 2556SOL    HW1 1503   2.846   3.186   3.257
 2556SOL    HW2 1504   3.009   3.183   3.251
 2557SOL     OW 1505   3.454   3.491   3.487
 2557SOL    HW1 1506   3.481   3.525   3.397
 2557SOL    HW2 1507   3.533   3.453   3.533
 2558SOL     OW 1508   2.973   3.057   2.962
 2558SOL    HW1 1509   2.933   3.101   3.043
 2558SOL    HW2 1510   2.932   3.094   2.879
 2559SOL     OW 1511   3.500   2.961   2.941
 2559SOL    HW1 1512   3.505   3.042   3.000
 2559SOL    HW2 1513   3.414   2.963   2.890
 2560SOL     OW 1514   2.777   1.951   3.264
 2560SOL    HW1 1515   2.802   1.931   3.169
 2560SOL    HW2 1516   2.849   2.007   3.306
 2561SOL     OW 1517   2.842   2.978   3.581
 2561SOL    HW1 1518   2.743   2.984   3.591
 2561SOL    HW2 1519   2.865   2.898   3.525
 2562SOL     OW 1520   2.272   2.675   3.113
 2562SOL    HW1 1521   2.358   2.687   3.163
 2562SOL    HW2 1522   2.230   2.588   3.140
 2563SOL     OW 1523   3.136   2.248   3.124
 2563SOL    HW1 1524   3.157   2.322   3.188
 2563SOL    HW2 1525   3.047   2.265   3.081
 2564SOL     OW 1526   1.926   3.426   3.193
 2564SOL    HW1 1527   1.880   3.508   3.159
 2564SOL    HW2 1528   2.024   3.445   3.202
 2565SOL     OW 1529   2.229   2.962   2.363
 2565SOL    HW1 1530   2.222   3.045   2.307
 2565SOL    HW2 1531   2.233   2.882   2.303
 2566SOL     OW 1532   2.428   2.399   2.727
 2566SOL    HW1 1533   2.440   2.465   2.653
 2566SOL    HW2 1534   2.474   2.433   2.810
 2567SOL     OW 1535   3.114   3.210   2.250
 2567SOL    HW1 1536   3.164   3.287   2.290
 2567SOL    HW2 1537   3.019   3.212   2.282
 2568SOL     OW 1538   3.134   3.307   3.004
 2568SOL    HW1 1539   3.181   3.320   3.091
 2568SOL    HW2 1540   3.068   3.233   3.013
 2569SOL     OW 1541   3.444   2.501   2.334
 2569SOL    HW1 1542   3.413   2.562   2.407
 2569SOL    HW2 1543   3.494   2.553   2.265
 2570SOL     OW 1544   2.216   3.372   3.191
 2570SOL    HW1 1545   2.195   3.328   3.104
 2570SOL    HW2 1546   2.313   3.398   3.194
 2571SOL     OW 1547   2.264   2.613   3.460
 2571SOL    HW1 1548   2.332   2.668   3.413
 2571SOL    HW2 1549   2.304   2.525   3.487
 2572SOL     OW 1550   3.449   2.641   3.532
 2572SOL    HW1 1551   3.357   2.679   3.527
 2572SOL    HW2 1552   3.509   2.688   3.467
 2573SOL     OW 1553   2.875   1.967   3.632
 2573SOL    HW1 1554   2.881   2.052   3.580
 2573SOL    HW2 1555   2.907   1.891   3.575
 2574SOL     OW 1556   2.366   1.912   3.602
 2574SOL    HW1 1557   2.324   1.855   3.532
 2574SOL    HW2 1558   2.300   1.981   3.634
 2575SOL     OW 1559   3.222   2.724   2.907
 2575SOL    HW1 1560   3.147   2.724   2.841
 2575SOL    HW2 1561   3.259   2.632   2.916
 2576SOL     OW 1562   3.071   2.387   2.137
 2576SOL    HW1 1563   3.084   2.303   2.191
 2576SOL    HW2 1564   3.042   2.461   2.197
 2577SOL     OW 1565   2.169   2.075   3.093
 2577SOL    HW1 1566   2.146   2.112   3.183
 2577SOL    HW2 1567   2.139   1.980   3.087
 2578SOL     OW 1568   1.899   3.172   3.144
 2578SOL    HW1 1569   1.952   3.123   3.212
 2578SOL    HW2 1570   1.921   3.270   3.149
 2579SOL     OW 1571   3.590   2.797   3.716
 2579SOL    HW1 1572   3.544   2.790   3.627
 2579SOL    HW2 1573   3.528   2.841   3.782
 2580SOL     OW 1574   2.169   1.925   2.480
 2580SOL    HW1 1575   2.158   2.019   2.513
 2580SOL    HW2 1576   2.164   1.862   2.557
 2581SOL     OW 1577   3.484   2.229   2.236
 2581SOL    HW1 1578   3.486   2.153   2.300
 2581SOL    HW2 1579   3.436   2.306   2.276
 2582SOL     OW 1580   2.842   3.435   3.562
 2582SOL    HW1 1581   2.822   3.479   3.474
 2582SOL    HW2 1582   2.881   3.344   3.546
 2583SOL     OW 1583   3.721   3.380   3.467
 2583SOL    HW1 1584   3.735   3.407   3.372
 2583SOL    HW2 1585   3.804   3.402   3.520
 2584SOL     OW 1586   2.212   2.760   3.666
 2584SOL    HW1 1587   2.288   2.804   3.714
 2584SOL    HW2 1588   2.247   2.713   3.584
 2585SOL     OW 1589   3.402   2.136   1.987
 2585SOL    HW1 1590   3.341   2.061   2.010
 2585SOL    HW2 1591   3.424   2.188   2.070
 2586SOL     OW 1592   3.165   2.700   1.904
 2586SOL    HW1 1593   3.199   2.607   1.919
 2586SOL    HW2 1594   3.183   2.727   1.809
 2587SOL     OW 1595   2.930   3.195   2.711
 2587SOL    HW1 1596   2.937   3.111   2.656
 2587SOL    HW2 1597   2.992   3.264   2.675
 2588SOL     OW 1598   2.181   2.672   2.811
 2588SOL    HW1 1599   2.274   2.708   2.816
 2588SOL    HW2 1600   2.175   2.587   2.863
 2589SOL     OW 1601   2.201   2.371   2.868
 2589SOL    HW1 1602   2.149   2.288   2.851
 2589SOL    HW2 1603   2.278   2.376   2.804
 2590SOL     OW 1604   3.000   2.242   3.540
 2590SOL    HW1 1605   2.955   2.305   3.604
 2590SOL    HW2 1606   3.093   2.273   3.523
 2591SOL     OW 1607   3.022   2.069   3.339
 2591SOL    HW1 1608   3.022   2.133   3.416
 2591SOL    HW2 1609   3.050   2.117   3.256
 2592SOL     OW 1610   1.870   3.188   2.062
 2592SOL    HW1 1611   1.777   3.209   2.031
 2592SOL    HW2 1612   1.880   3.089   2.075
 2593SOL     OW 1613   1.950   3.663   2.789
 2593SOL    HW1 1614   1.908   3.577   2.762
 2593SOL    HW2 1615   2.044   3.666   2.755
 2594SOL     OW 1616   2.366   3.430   2.772
 2594SOL    HW1 1617   2.432   3.504   2.781
 2594SOL    HW2 1618   2.410   3.351   2.730
 2595SOL     OW 1619   1.902   2.406   2.976
 2595SOL    HW1 1620   1.987   2.373   2.935
 2595SOL    HW2 1621   1.915   2.421   3.074
 2596SOL     OW 1622   2.051   2.382   3.584
 2596SOL    HW1 1623   2.110   2.342   3.514
 2596SOL    HW2 1624   1.993   2.453   3.543
 2597SOL     OW 1625   3.231   2.812   3.522
 2597SOL    HW1 1626   3.270   2.901   3.542
 2597SOL    HW2 1627   3.241   2.792   3.425
 2598SOL     OW 1628   3.519   2.466   3.068
 2598SOL    HW1 1629   3.481   2.397   3.130
 2598SOL    HW2 1630   3.601   2.430   3.024
 2599SOL     OW 1631   2.114   3.426   3.606
 2599SOL    HW1 1632   2.084   3.483   3.682
 2599SOL    HW2 1633   2.107   3.329   3.632
 2600SOL     OW 1634   2.792   3.540   3.327
 2600SOL    HW1 1635   2.768   3.522   3.232
 2600SOL    HW2 1636   2.822   3.634   3.337
 2601SOL     OW 1637   2.335   2.362   2.053
 2601SOL    HW1 1638   2.396   2.442   2.057
 2601SOL    HW2 1639   2.240   2.393   2.060
 2602SOL     OW 1640   2.021   2.999   3.328
 2602SOL    HW1 1641   2.043   2.938   3.404
 2602SOL    HW2 1642   2.031   2.950   3.242
 2603SOL     OW 1643   3.209   2.921   3.096
 2603SOL    HW1 1644   3.233   2.858   3.022
 2603SOL    HW2 1645   3.119   2.961   3.078
 2604SOL     OW 1646   3.164   2.717   2.171
 2604SOL    HW1 1647   3.078   2.686   2.213
 2604SOL    HW2 1648   3.160   2.703   2.072
 2605SOL     OW 1649   3.621   3.609   3.016
 2605SOL    HW1 1650   3.682   3.639   2.943
 2605SOL    HW2 1651   3.583   3.520   2.994
 2606SOL     OW 1652   3.114   3.593   2.990
 2606SOL    HW1 1653   3.198   3.598   2.936
 2606SOL    HW2 1654   3.091   3.497   3.008
 2607SOL     OW 1655   1.945   3.120   2.884
 2607SOL    HW1 1656   1.940   3.119   2.984
 2607SOL    HW2 1657   1.862   3.079   2.846
 2608SOL     OW 1658   2.550   3.524   3.578
 2608SOL    HW1 1659   2.494   3.605   3.587
 2608SOL    HW2 1660   2.602   3.528   3.492
 2609SOL     OW 1661   3.588   1.997   2.385
 2609SOL    HW1 1662   3.661   1.980   2.318
 2609SOL    HW2 1663   3.557   1.910   2.423
 2610SOL     OW 1664   3.250   3.435   2.339
 2610SOL    HW1 1665   3.317   3.447   2.265
 2610SOL    HW2 1666   3.210   3.524   2.362
 2611SOL     OW 1667   1.992   3.656   3.713
 2611SOL    HW1 1668   1.951   3.582   3.766
 2611SOL    HW2 1669   2.056   3.707   3.771
 2612SOL     OW 1670   3.142   2.789   2.534
 2612SOL    HW1 1671   3.202   2.708   2.536
 2612SOL    HW2 1672   3.182   2.858   2.474
 2613SOL     OW 1673   2.692   3.135   3.284
 2613SOL    HW1 1674   2.687   3.168   3.379
 2613SOL    HW2 1675   2.606   3.154   3.238
 2614SOL     OW 1676   2.534   3.478   2.016
 2614SOL    HW1 1677   2.543   3.488   1.917
 2614SOL    HW2 1678   2.494   3.389   2.037
 2615SOL     OW 1679   3.512   3.582   3.256
 2615SOL    HW1 1680   3.565   3.592   3.172
 2615SOL    HW2 1681   3.485   3.672   3.290
 2616SOL     OW 1682   3.703   2.037   2.825
 2616SOL    HW1 1683   3.742   1.952   2.789
 2616SOL    HW2 1684   3.605   2.039   2.806
 2617SOL     OW 1685   2.125   2.188   2.582
 2617SOL    HW1 1686   2.046   2.239   2.548
 2617SOL    HW2 1687   2.116   2.173   2.680
 2618SOL     OW 1688   3.056   3.474   1.893
 2618SOL    HW1 1689   3.062   3.381   1.930
 2618SOL    HW2 1690   2.997   3.474   1.813
 2619SOL     OW 1691   2.684   2.864   3.234
 2619SOL    HW1 1692   2.724   2.863   3.142
 2619SOL    HW2 1693   2.694   2.956   3.274
 2620SOL     OW 1694   3.366   3.469   1.906
 2620SOL    HW1 1695   3.274   3.506   1.913
 2620SOL    HW2 1696   3.404   3.489   1.816
 2621SOL     OW 1697   2.234   3.150   3.352
 2621SOL    HW1 1698   2.221   3.243   3.318
 2621SOL    HW2 1699   2.150   3.098   3.339
 2622SOL     OW 1700   3.476   3.154   3.151
 2622SOL    HW1 1701   3.536   3.157   3.231
 2622SOL    HW2 1702   3.401   3.218   3.164
 2623SOL     OW 1703   2.901   2.960   2.558
 2623SOL    HW1 1704   2.831   2.913   2.612
 2623SOL    HW2 1705   2.960   2.892   2.515
 2624SOL     OW 1706   2.876   2.098   2.833
 2624SOL    HW1 1707   2.868   2.062   2.740
 2624SOL    HW2 1708   2.874   2.022   2.898
 2625SOL     OW 1709   2.452   3.349   2.353
 2625SOL    HW1 1710   2.494   3.291   2.283
 2625SOL    HW2 1711   2.408   3.428   2.309
 2626SOL     OW 1712   3.571   2.247   3.243
 2626SOL    HW1 1713   3.644   2.316   3.247
 2626SOL    HW2 1714   3.599   2.172   3.184
 2627SOL     OW 1715   2.117   3.210   2.152
 2627SOL    HW1 1716   2.021   3.211   2.125
 2627SOL    HW2 1717   2.129   3.263   2.236
 2628SOL     OW 1718   1.967   2.875   3.588
 2628SOL    HW1 1719   1.890   2.842   3.642
 2628SOL    HW2 1720   2.052   2.845   3.630
 2629SOL     OW 1721   2.534   2.065   3.351
 2629SOL    HW1 1722   2.624   2.049   3.311
 2629SOL    HW2 1723   2.542   2.070   3.450
 2630SOL     OW 1724   1.937   2.207   1.895
 2630SOL    HW1 1725   1.845   2.179   1.866
 2630SOL    HW2 1726   1.968   2.284   1.839
 2631SOL     OW 1727   3.302   2.718   3.260
 2631SOL    HW1 1728   3.245   2.770   3.197
 2631SOL    HW2 1729   3.398   2.730   3.236
 2632SOL     OW 1730   1.934   2.028   2.180
 2632SOL    HW1 1731   1.917   2.111   2.126
 2632SOL    HW2 1732   2.024   1.991   2.158
 2633SOL     OW 1733   3.045   3.197   1.981
 2633SOL    HW1 1734   2.946   3.186   1.983
 2633SOL    HW2 1735   3.079   3.212   2.074
 2634SOL     OW 1736   2.475   2.704   3.293
 2634SOL    HW1 1737   2.531   2.785   3.276
 2634SOL    HW2 1738   2.534   2.624   3.296
 2635SOL     OW 1739   3.355   3.629   2.821
 2635SOL    HW1 1740   3.388   3.693   2.752
 2635SOL    HW2 1741   3.421   3.623   2.896
 2636SOL     OW 1742   2.578   2.427   3.570
 2636SOL    HW1 1743   2.597   2.492   3.644
 2636SOL    HW2 1744   2.638   2.347   3.579
 2637SOL     OW 1745   3.312   3.082   3.495
 2637SOL    HW1 1746   3.303   3.072   3.594
 2637SOL    HW2 1747   3.408   3.075   3.469
 2638SOL     OW 1748   2.252   3.603   3.422
 2638SOL    HW1 1749   2.161   3.644   3.420
 2638SOL    HW2 1750   2.245   3.509   3.454
 2639SOL     OW 1751   3.536   2.745   3.116
 2639SOL    HW1 1752   3.509   2.656   3.079
 2639SOL    HW2 1753   3.537   2.813   3.043
 2640SOL     OW 1754   3.087   2.187   2.311
 2640SOL    HW1 1755   3.152   2.113   2.300
 2640SOL    HW2 1756   3.107   2.237   2.395
 2641SOL     OW 1757   3.639   2.204   3.504
 2641SOL    HW1 1758   3.622   2.235   3.410
 2641SOL    HW2 1759   3.555   2.167   3.542
 2642SOL     OW 1760   3.592   2.796   3.379
 2642SOL    HW1 1761   3.630   2.887   3.394
 2642SOL    HW2 1762   3.584   2.779   3.280
 2643SOL     OW 1763   2.721   3.236   1.878
 2643SOL    HW1 1764   2.675   3.251   1.966
 2643SOL    HW2 1765   2.765   3.321   1.848
 2644SOL     OW 1766   2.523   3.652   2.815
 2644SOL    HW1 1767   2.477   3.740   2.802
 2644SOL    HW2 1768   2.622   3.664   2.808
 2645SOL     OW 1769   2.721   2.818   2.723
 2645SOL    HW1 1770   2.775   2.749   2.771
 2645SOL    HW2 1771   2.689   2.887   2.789
 2646SOL     OW 1772   2.945   2.846   1.949
 2646SOL    HW1 1773   2.922   2.899   1.867
 2646SOL    HW2 1774   3.026   2.790   1.930
 2647SOL     OW 1775   3.723   3.431   2.713
 2647SOL    HW1 1776   3.652   3.419   2.643
 2647SOL    HW2 1777   3.724   3.352   2.773
 2648SOL     OW 1778   2.083   3.176   3.706
 2648SOL    HW1 1779   2.018   3.103   3.685
 2648SOL    HW2 1780   2.087   3.190   3.804
 2649SOL     OW 1781   1.941   3.102   2.515
 2649SOL    HW1 1782   1.940   3.055   2.603
 2649SOL    HW2 1783   2.023   3.074   2.464
 2650SOL     OW 1784   2.534   3.253   3.486
 2650SOL    HW1 1785   2.456   3.203   3.524
 2650SOL    HW2 1786   2.531   3.348   3.517
 2651SOL     OW 1787   3.686   2.054   3.089
 2651SOL    HW1 1788   3.682   1.964   3.133
 2651SOL    HW2 1789   3.689   2.043   2.990
 2652SOL     OW 1790   2.290   2.286   2.382
 2652SOL    HW1 1791   2.320   2.214   2.320
 2652SOL    HW2 1792   2.251   2.246   2.465
 2653SOL     OW 1793   3.567   3.349   2.966
 2653SOL    HW1 1794   3.474   3.324   2.939
 2653SOL    HW2 1795   3.593   3.299   3.048
 2654SOL     OW 1796   2.179   2.409   3.142
 2654SOL    HW1 1797   2.217   2.350   3.214
 2654SOL    HW2 1798   2.219   2.383   3.054
 2655SOL     OW 1799   2.674   3.448   2.549
 2655SOL    HW1 1800   2.706   3.458   2.455
 2655SOL    HW2 1801   2.595   3.386   2.551
 2656SOL     OW 1802   3.286   2.076   2.974
 2656SOL    HW1 1803   3.338   2.011   3.029
 2656SOL    HW2 1804   3.237   2.139   3.035
 2657SOL     OW 1805   2.863   1.896   3.016
 2657SOL    HW1 1806   2.800   1.824   2.985
 2657SOL    HW2 1807   2.956   1.860   3.016
 2658SOL     OW 1808   2.632   3.192   2.163
 2658SOL    HW1 1809   2.586   3.105   2.180
 2658SOL    HW2 1810   2.723   3.189   2.204
 2659SOL     OW 1811   2.480   3.429   3.146
 2659SOL    HW1 1812   2.475   3.511   3.203
 2659SOL    HW2 1813   2.569   3.426   3.101
 2660SOL     OW 1814   3.214   1.914   2.030
 2660SOL    HW1 1815   3.249   1.873   1.946
 2660SOL    HW2 1816   3.124   1.876   2.050
 2661SOL     OW 1817   3.162   2.315   2.553
 2661SOL    HW1 1818   3.103   2.395   2.557
 2661SOL    HW2 1819   3.177   2.280   2.646
 2662SOL     OW 1820   3.455   2.083   2.744
 2662SOL    HW1 1821   3.371   2.082   2.798
 2662SOL    HW2 1822   3.457   2.166   2.688
 2663SOL     OW 1823   1.901   2.939   2.162
 2663SOL    HW1 1824   2.000   2.928   2.153
 2663SOL    HW2 1825   1.861   2.853   2.194
 2664SOL     OW 1826   2.737   3.508   2.199
 2664SOL    HW1 1827   2.660   3.473   2.145
 2664SOL    HW2 1828   2.705   3.579   2.261
 2665SOL     OW 1829   2.092   2.490   3.837
 2665SOL    HW1 1830   1.999   2.488   3.874
 2665SOL    HW2 1831   2.093   2.451   3.745
 2671SOL     OW 1832   3.617   2.469   3.955
 2671SOL    HW1 1833   3.605   2.456   3.856
 2671SOL    HW2 1834   3.587   2.388   4.004
 2681SOL     OW 1835   2.468   2.826   3.847
 2681SOL    HW1 1836   2.475   2.910   3.793
 2681SOL    HW2 1837   2.514   2.839   3.935
 2682SOL     OW 1838   1.984   2.505   4.287
 2682SOL    HW1 1839   1.939   2.417   4.304
 2682SOL    HW2 1840   1.983   2.559   4.371
 2684SOL     OW 1841   1.889   3.458   3.841
 2684SOL    HW1 1842   1.870   3.362   3.862
 2684SOL    HW2 1843   1.856   3.516   3.916
 2688SOL     OW 1844   2.671   1.866   4.226
 2688SOL    HW1 1845   2.711   1.957   4.217
 2688SOL    HW2 1846   2.571   1.874   4.232
 2690SOL     OW 1847   3.387   2.861   3.914
 2690SOL    HW1 1848   3.324   2.785   3.927
 2690SOL    HW2 1849   3.435   2.879   4.000
 2693SOL     OW 1850   2.460   2.591   3.994
 2693SOL    HW1 1851   2.484   2.660   3.926
 2693SOL    HW2 1852   2.382   2.624   4.048
 2698SOL     OW 1853   2.903   2.563   4.153
 2698SOL    HW1 1854   2.929   2.559   4.249
 2698SOL    HW2 1855   2.818   2.512   4.139
 2701SOL     OW 1856   2.727   2.210   3.919
 2701SOL    HW1 1857   2.786   2.273   3.870
 2701SOL    HW2 1858   2.746   2.116   3.890
 2704SOL     OW 1859   2.870   3.318   4.201
 2704SOL    HW1 1860   2.824   3.390   4.149
 2704SOL    HW2 1861   2.866   3.338   4.299
 2707SOL     OW 1862   2.183   2.805   3.966
 2707SOL    HW1 1863   2.265   2.844   3.924
 2707SOL    HW2 1864   2.156   2.723   3.917
 2709SOL     OW 1865   2.973   3.638   3.961
 2709SOL    HW1 1866   2.913   3.576   4.011
 2709SOL    HW2 1867   3.004   3.594   3.876
 2710SOL     OW 1868   3.494   3.239   3.805
 2710SOL    HW1 1869   3.462   3.333   3.795
 2710SOL    HW2 1870   3.418   3.176   3.793
 2711SOL     OW 1871   2.326   3.605   4.047
 2711SOL    HW1 1872   2.359   3.644   4.133
 2711SOL    HW2 1873   2.402   3.598   3.982
 2712SOL     OW 1874   3.262   1.969   4.150
 2712SOL    HW1 1875   3.238   1.932   4.060
 2712SOL    HW2 1876   3.361   1.985   4.154
 2715SOL     OW 1877   2.244   2.562   4.204
 2715SOL    HW1 1878   2.289   2.472   4.201
 2715SOL    HW2 1879   2.150   2.551   4.237
 2716SOL     OW 1880   2.476   1.984   3.841
 2716SOL    HW1 1881   2.574   1.962   3.848
 2716SOL    HW2 1882   2.445   1.967   3.748
 2720SOL     OW 1883   2.401   1.926   4.236
 2720SOL    HW1 1884   2.320   1.927   4.294
 2720SOL    HW2 1885   2.404   2.009   4.181
 2721SOL     OW 1886   3.296   3.050   3.765
 2721SOL    HW1 1887   3.328   2.974   3.822
 2721SOL    HW2 1888   3.204   3.077   3.795
 2722SOL     OW 1889   2.159   1.897   3.895
 2722SOL    HW1 1890   2.208   1.981   3.874
 2722SOL    HW2 1891   2.221   1.832   3.940
 2723SOL     OW 1892   2.797   2.098   4.204
 2723SOL    HW1 1893   2.749   2.139   4.126
 2723SOL    HW2 1894   2.896   2.096   4.185
 2727SOL     OW 1895   2.894   2.411   3.740
 2727SOL    HW1 1896   2.853   2.493   3.701
 2727SOL    HW2 1897   2.958   2.437   3.813
 2730SOL     OW 1898   2.728   2.316   4.366
 2730SOL    HW1 1899   2.696   2.388   4.304
 2730SOL    HW2 1900   2.752   2.235   4.313
 2735SOL     OW 1901   2.350   3.247   3.898
 2735SOL    HW1 1902   2.263   3.232   3.945
 2735SOL    HW2 1903   2.333   3.273   3.803
 2737SOL     OW 1904   3.252   2.437   3.802
 2737SOL    HW1 1905   3.198   2.416   3.883
 2737SOL    HW2 1906   3.343   2.396   3.811
 2738SOL     OW 1907   2.389   2.118   4.052
 2738SOL    HW1 1908   2.416   2.059   3.977
 2738SOL    HW2 1909   2.389   2.213   4.021
 2742SOL     OW 1910   2.567   2.912   4.092
 2742SOL    HW1 1911   2.553   2.919   4.191
 2742SOL    HW2 1912   2.651   2.861   4.074
 2746SOL     OW 1913   2.229   2.962   4.225
 2746SOL    HW1 1914   2.222   3.045   4.169
 2746SOL    HW2 1915   2.233   2.882   4.165
 2748SOL     OW 1916   3.114   3.210   4.112
 2748SOL    HW1 1917   3.164   3.287   4.152
 2748SOL    HW2 1918   3.019   3.212   4.144
 2750SOL     OW 1919   3.444   2.501   4.196
 2750SOL    HW1 1920   3.413   2.562   4.269
 2750SOL    HW2 1921   3.494   2.553   4.127
 2755SOL     OW 1922   3.071   2.387   3.999
 2755SOL    HW1 1923   3.084   2.303   4.053
 2755SOL    HW2 1924   3.042   2.461   4.059
 2760SOL     OW 1925   3.484   2.229   4.098
 2760SOL    HW1 1926   3.486   2.153   4.162
 2760SOL    HW2 1927   3.436   2.306   4.138
 2763SOL     OW 1928   3.402   2.136   3.849
 2763SOL    HW1 1929   3.341   2.061   3.872
 2763SOL    HW2 1930   3.424   2.188   3.932
 2764SOL     OW 1931   3.165   2.700   3.766
 2764SOL    HW1 1932   3.199   2.607   3.781
 2764SOL    HW2 1933   3.183   2.727   3.671
 2769SOL     OW 1934   1.870   3.188   3.924
 2769SOL    HW1 1935   1.777   3.209   3.893
 2769SOL    HW2 1936   1.880   3.089   3.937
 2774SOL     OW 1937   2.677   2.434   4.049
 2774SOL    HW1 1938   2.684   2.345   4.003
 2774SOL    HW2 1939   2.583   2.468   4.041
 2778SOL     OW 1940   2.335   2.362   3.915
 2778SOL    HW1 1941   2.396   2.442   3.919
 2778SOL    HW2 1942   2.240   2.393   3.922
 2781SOL     OW 1943   3.164   2.717   4.033
 2781SOL    HW1 1944   3.078   2.686   4.075
 2781SOL    HW2 1945   3.160   2.703   3.934
 2788SOL     OW 1946   2.534   3.478   3.878
 2788SOL    HW1 1947   2.543   3.488   3.779
 2788SOL    HW2 1948   2.494   3.389   3.899
 2791SOL     OW 1949   3.056   3.474   3.755
 2791SOL    HW1 1950   3.062   3.381   3.792
 2791SOL    HW2 1951   2.997   3.474   3.675
 2793SOL     OW 1952   2.778   2.772   4.015
 2793SOL    HW1 1953   2.841   2.810   3.947
 2793SOL    HW2 1954   2.818   2.689   4.054
 2794SOL     OW 1955   3.366   3.469   3.768
 2794SOL    HW1 1956   3.274   3.506   3.775
 2794SOL    HW2 1957   3.404   3.489   3.678
 2799SOL     OW 1958   2.452   3.349   4.215
 2799SOL    HW1 1959   2.494   3.291   4.145
 2799SOL    HW2 1960   2.408   3.428   4.171
 2801SOL     OW 1961   2.117   3.210   4.014
 2801SOL    HW1 1962   2.021   3.211   3.987
 2801SOL    HW2 1963   2.129   3.263   4.098
 2803SOL     OW 1964   1.937   2.207   3.757
 2803SOL    HW1 1965   1.845   2.179   3.728
 2803SOL    HW2 1966   1.968   2.284   3.701
 2804SOL     OW 1967   1.934   2.028   4.042
 2804SOL    HW1 1968   1.917   2.111   3.988
 2804SOL    HW2 1969   2.024   1.991   4.020
 2805SOL     OW 1970   3.045   3.197   3.843
 2805SOL    HW1 1971   2.946   3.186   3.845
 2805SOL    HW2 1972   3.079   3.212   3.936
 2810SOL     OW 1973   3.087   2.187   4.173
 2810SOL    HW1 1974   3.152   2.113   4.162
 2810SOL    HW2 1975   3.107   2.237   4.257
 2811SOL     OW 1976   2.456   2.607   4.376
 2811SOL    HW1 1977   2.506   2.692   4.357
 2811SOL    HW2 1978   2.368   2.609   4.328
 2813SOL     OW 1979   2.721   3.236   3.740
 2813SOL    HW1 1980   2.675   3.251   3.828
 2813SOL    HW2 1981   2.765   3.321   3.710
 2816SOL     OW 1982   2.945   2.846   3.811
 2816SOL    HW1 1983   2.922   2.899   3.729
 2816SOL    HW2 1984   3.026   2.790   3.792
 2820SOL     OW 1985   2.290   2.286   4.244
 2820SOL    HW1 1986   2.320   2.214   4.182
 2820SOL    HW2 1987   2.251   2.246   4.327
 2826SOL     OW 1988   2.632   3.192   4.025
 2826SOL    HW1 1989   2.586   3.105   4.042
 2826SOL    HW2 1990   2.723   3.189   4.066
 2828SOL     OW 1991   3.214   1.914   3.892
 2828SOL    HW1 1992   3.249   1.873   3.808
 2828SOL    HW2 1993   3.124   1.876   3.912
 2831SOL     OW 1994   1.901   2.939   4.024
 2831SOL    HW1 1995   2.000   2.928   4.015
 2831SOL    HW2 1996   1.861   2.853   4.056
 2832SOL     OW 1997   2.737   3.508   4.061
 2832SOL    HW1 1998   2.660   3.473   4.007
 2832SOL    HW2 1999   2.705   3.579   4.123
 2862SOL     OW 2000   2.179   3.975   1.801
 2862SOL    HW1 2001   2.250   4.046   1.807
 2862SOL    HW2 2002   2.091   4.014   1.829
 2885SOL     OW 2003   3.409   3.946   1.729
 2885SOL    HW1 2004   3.404   3.983   1.821
 2885SOL    HW2 2005   3.337   3.877   1.717
 2886SOL     OW 2006   2.643   3.988   1.749
 2886SOL    HW1 2007   2.710   3.927   1.792
 2886SOL    HW2 2008   2.570   4.007   1.814
 2911SOL     OW 2009   2.777   3.813   1.402
 2911SOL    HW1 2010   2.802   3.793   1.307
 2911SOL    HW2 2011   2.849   3.869   1.444
 2924SOL     OW 2012   2.875   3.829   1.770
 2924SOL    HW1 2013   2.881   3.914   1.718
 2924SOL    HW2 2014   2.907   3.753   1.713
 2925SOL     OW 2015   2.366   3.774   1.740
 2925SOL    HW1 2016   2.324   3.717   1.670
 2925SOL    HW2 2017   2.300   3.843   1.772
 2943SOL     OW 2018   3.022   3.931   1.477
 2943SOL    HW1 2019   3.022   3.995   1.554
 2943SOL    HW2 2020   3.050   3.979   1.394
 2973SOL     OW 2021   2.534   3.927   1.489
 2973SOL    HW1 2022   2.624   3.911   1.449
 2973SOL    HW2 2023   2.542   3.932   1.588
 3004SOL     OW 2024   2.087   3.999   2.858
 3004SOL    HW1 2025   2.122   3.982   2.950
 3004SOL    HW2 2026   1.999   3.954   2.846
 3005SOL     OW 2027   1.881   4.092   2.509
 3005SOL    HW1 2028   1.799   4.135   2.548
 3005SOL    HW2 2029   1.853   4.019   2.446
 3015SOL     OW 2030   2.300   4.116   3.361
 3015SOL    HW1 2031   2.382   4.060   3.370
 3015SOL    HW2 2032   2.219   4.058   3.365
 3016SOL     OW 2033   3.465   4.171   2.599
 3016SOL    HW1 2034   3.391   4.217   2.549
 3016SOL    HW2 2035   3.516   4.239   2.652
 3021SOL     OW 2036   3.456   3.838   3.342
 3021SOL    HW1 2037   3.438   3.905   3.270
 3021SOL    HW2 2038   3.453   3.884   3.431
 3029SOL     OW 2039   2.671   3.728   2.364
 3029SOL    HW1 2040   2.711   3.819   2.355
 3029SOL    HW2 2041   2.571   3.736   2.370
 3032SOL     OW 2042   2.179   3.975   3.663
 3032SOL    HW1 2043   2.250   4.046   3.669
 3032SOL    HW2 2044   2.091   4.014   3.691
 3035SOL     OW 2045   3.143   4.069   2.806
 3035SOL    HW1 2046   3.057   4.019   2.793
 3035SOL    HW2 2047   3.205   4.015   2.862
 3039SOL     OW 2048   2.853   4.134   3.104
 3039SOL    HW1 2049   2.776   4.168   3.158
 3039SOL    HW2 2050   2.819   4.083   3.025
 3042SOL     OW 2051   2.727   4.072   2.057
 3042SOL    HW1 2052   2.786   4.135   2.008
 3042SOL    HW2 2053   2.746   3.978   2.028
 3045SOL     OW 2054   2.412   3.920   2.747
 3045SOL    HW1 2055   2.407   3.915   2.847
 3045SOL    HW2 2056   2.414   4.016   2.718
 3052SOL     OW 2057   2.064   4.009   3.360
 3052SOL    HW1 2058   1.984   4.069   3.347
 3052SOL    HW2 2059   2.054   3.960   3.446
 3054SOL     OW 2060   3.262   3.831   2.288
 3054SOL    HW1 2061   3.238   3.794   2.198
 3054SOL    HW2 2062   3.361   3.847   2.292
 3057SOL     OW 2063   2.476   3.846   1.979
 3057SOL    HW1 2064   2.574   3.824   1.986
 3057SOL    HW2 2065   2.445   3.829   1.886
 3058SOL     OW 2066   2.643   3.988   3.611
 3058SOL    HW1 2067   2.710   3.927   3.654
 3058SOL    HW2 2068   2.570   4.007   3.676
 3060SOL     OW 2069   2.784   4.227   2.761
 3060SOL    HW1 2070   2.759   4.218   2.665
 3060SOL    HW2 2071   2.832   4.145   2.792
 3061SOL     OW 2072   2.401   3.788   2.374
 3061SOL    HW1 2073   2.320   3.789   2.432
 3061SOL    HW2 2074   2.404   3.871   2.319
 3063SOL     OW 2075   2.159   3.759   2.033
 3063SOL    HW1 2076   2.208   3.843   2.012
 3063SOL    HW2 2077   2.221   3.694   2.078
 3064SOL     OW 2078   2.797   3.960   2.342
 3064SOL    HW1 2079   2.749   4.001   2.264
 3064SOL    HW2 2080   2.896   3.958   2.323
 3070SOL     OW 2081   2.423   3.946   3.009
 3070SOL    HW1 2082   2.461   3.862   3.046
 3070SOL    HW2 2083   2.335   3.965   3.053
 3071SOL     OW 2084   2.728   4.178   2.504
 3071SOL    HW1 2085   2.696   4.250   2.442
 3071SOL    HW2 2086   2.752   4.097   2.451
 3072SOL     OW 2087   2.879   3.763   2.615
 3072SOL    HW1 2088   2.807   3.768   2.546
 3072SOL    HW2 2089   2.855   3.694   2.684
 3078SOL     OW 2090   2.389   3.980   2.190
 3078SOL    HW1 2091   2.416   3.921   2.115
 3078SOL    HW2 2092   2.389   4.075   2.159
 3083SOL     OW 2093   2.777   3.813   3.264
 3083SOL    HW1 2094   2.802   3.793   3.169
 3083SOL    HW2 2095   2.849   3.869   3.306
 3087SOL     OW 2096   3.136   4.110   3.124
 3087SOL    HW1 2097   3.157   4.184   3.188
 3087SOL    HW2 2098   3.047   4.127   3.081
 3089SOL     OW 2099   2.428   4.261   2.727
 3089SOL    HW1 2100   2.440   4.327   2.653
 3089SOL    HW2 2101   2.474   4.295   2.810
 3096SOL     OW 2102   2.875   3.829   3.632
 3096SOL    HW1 2103   2.881   3.914   3.580
 3096SOL    HW2 2104   2.907   3.753   3.575
 3097SOL     OW 2105   2.366   3.774   3.602
 3097SOL    HW1 2106   2.324   3.717   3.532
 3097SOL    HW2 2107   2.300   3.843   3.634
 3100SOL     OW 2108   3.071   4.249   2.137
 3100SOL    HW1 2109   3.084   4.165   2.191
 3100SOL    HW2 2110   3.042   4.323   2.197
 3101SOL     OW 2111   2.169   3.937   3.093
 3101SOL    HW1 2112   2.146   3.974   3.183
 3101SOL    HW2 2113   2.139   3.842   3.087
 3103SOL     OW 2114   2.594   4.358   2.926
 3103SOL    HW1 2115   2.653   4.332   2.850
 3103SOL    HW2 2116   2.566   4.454   2.915
 3105SOL     OW 2117   2.169   3.787   2.480
 3105SOL    HW1 2118   2.158   3.881   2.513
 3105SOL    HW2 2119   2.164   3.724   2.557
 3106SOL     OW 2120   3.484   4.091   2.236
 3106SOL    HW1 2121   3.486   4.015   2.300
 3106SOL    HW2 2122   3.436   4.168   2.276
 3110SOL     OW 2123   3.402   3.998   1.987
 3110SOL    HW1 2124   3.341   3.923   2.010
 3110SOL    HW2 2125   3.424   4.050   2.070
 3113SOL     OW 2126   2.201   4.233   2.868
 3113SOL    HW1 2127   2.149   4.150   2.851
 3113SOL    HW2 2128   2.278   4.238   2.804
 3115SOL     OW 2129   3.022   3.931   3.339
 3115SOL    HW1 2130   3.022   3.995   3.416
 3115SOL    HW2 2131   3.050   3.979   3.256
 3121SOL     OW 2132   2.677   4.296   2.187
 3121SOL    HW1 2133   2.684   4.207   2.141
 3121SOL    HW2 2134   2.583   4.330   2.179
 3124SOL     OW 2135   2.533   4.188   3.131
 3124SOL    HW1 2136   2.499   4.099   3.101
 3124SOL    HW2 2137   2.559   4.242   3.051
 3125SOL     OW 2138   2.335   4.224   2.053
 3125SOL    HW1 2139   2.396   4.304   2.057
 3125SOL    HW2 2140   2.240   4.255   2.060
 3130SOL     OW 2141   3.588   3.859   2.385
 3130SOL    HW1 2142   3.661   3.842   2.318
 3130SOL    HW2 2143   3.557   3.772   2.423
 3133SOL     OW 2144   3.703   3.899   2.825
 3133SOL    HW1 2145   3.742   3.814   2.789
 3133SOL    HW2 2146   3.605   3.901   2.806
 3134SOL     OW 2147   2.125   4.050   2.582
 3134SOL    HW1 2148   2.046   4.101   2.548
 3134SOL    HW2 2149   2.116   4.035   2.680
 3140SOL     OW 2150   2.876   3.960   2.833
 3140SOL    HW1 2151   2.868   3.924   2.740
 3140SOL    HW2 2152   2.874   3.884   2.898
 3144SOL     OW 2153   2.534   3.927   3.351
 3144SOL    HW1 2154   2.624   3.911   3.311
 3144SOL    HW2 2155   2.542   3.932   3.450
 3145SOL     OW 2156   1.937   4.069   1.895
 3145SOL    HW1 2157   1.845   4.041   1.866
 3145SOL    HW2 2158   1.968   4.146   1.839
 3147SOL     OW 2159   1.934   3.890   2.180
 3147SOL    HW1 2160   1.917   3.973   2.126
 3147SOL    HW2 2161   2.024   3.853   2.158
 3153SOL     OW 2162   3.087   4.049   2.311
 3153SOL    HW1 2163   3.152   3.975   2.300
 3153SOL    HW2 2164   3.107   4.099   2.395
 3163SOL     OW 2165   3.686   3.916   3.089
 3163SOL    HW1 2166   3.682   3.826   3.133
 3163SOL    HW2 2167   3.689   3.905   2.990
 3164SOL     OW 2168   2.290   4.148   2.382
 3164SOL    HW1 2169   2.320   4.076   2.320
 3164SOL    HW2 2170   2.251   4.108   2.465
 3166SOL     OW 2171   2.179   4.271   3.142
 3166SOL    HW1 2172   2.217   4.212   3.214
 3166SOL    HW2 2173   2.219   4.245   3.054
 3167SOL     OW 2174   3.286   3.938   2.974
 3167SOL    HW1 2175   3.338   3.873   3.029
 3167SOL    HW2 2176   3.237   4.001   3.035
 3168SOL     OW 2177   2.863   3.758   3.016
 3168SOL    HW1 2178   2.800   3.686   2.985
 3168SOL    HW2 2179   2.956   3.722   3.016
 3170SOL     OW 2180   3.214   3.776   2.030
 3170SOL    HW1 2181   3.249   3.735   1.946
 3170SOL    HW2 2182   3.124   3.738   2.050
 3171SOL     OW 2183   3.162   4.177   2.553
 3171SOL    HW1 2184   3.103   4.257   2.557
 3171SOL    HW2 2185   3.177   4.142   2.646
 3172SOL     OW 2186   3.455   3.945   2.744
 3172SOL    HW1 2187   3.371   3.944   2.798
 3172SOL    HW2 2188   3.457   4.028   2.688
 3217SOL     OW 2189   2.476   3.846   3.841
 3217SOL    HW1 2190   2.574   3.824   3.848
 3217SOL    HW2 2191   2.445   3.829   3.748
 3221SOL     OW 2192   2.159   3.759   3.895
 3221SOL    HW1 2193   2.208   3.843   3.874
 3221SOL    HW2 2194   2.221   3.694   3.940
 3436SOL     OW 2195   3.854   1.794   1.851
 3436SOL    HW1 2196   3.813   1.720   1.904
 3436SOL    HW2 2197   3.918   1.845   1.909
 3489SOL     OW 2198   3.955   1.713   2.345
 3489SOL    HW1 2199   3.989   1.790   2.399
 3489SOL    HW2 2200   3.999   1.713   2.255
 3491SOL     OW 2201   3.954   1.434   2.400
 3491SOL    HW1 2202   3.928   1.530   2.400
 3491SOL    HW2 2203   3.883   1.380   2.445
 3496SOL     OW 2204   3.751   1.596   1.979
 3496SOL    HW1 2205   3.732   1.500   2.000
 3496SOL    HW2 2206   3.718   1.654   2.054
 3514SOL     OW 2207   3.854   1.821   3.433
 3514SOL    HW1 2208   3.844   1.806   3.532
 3514SOL    HW2 2209   3.768   1.857   3.397
 3519SOL     OW 2210   4.075   1.801   2.715
 3519SOL    HW1 2211   4.125   1.715   2.721
 3519SOL    HW2 2212   4.140   1.878   2.712
 3526SOL     OW 2213   3.973   1.785   3.103
 3526SOL    HW1 2214   4.030   1.720   3.153
 3526SOL    HW2 2215   3.957   1.752   3.010
 3558SOL     OW 2216   3.788   1.564   3.193
 3558SOL    HW1 2217   3.742   1.646   3.159
 3558SOL    HW2 2218   3.886   1.583   3.202
 3583SOL     OW 2219   3.732   1.326   2.062
 3583SOL    HW1 2220   3.639   1.347   2.031
 3583SOL    HW2 2221   3.742   1.227   2.075
 3584SOL     OW 2222   3.812   1.801   2.789
 3584SOL    HW1 2223   3.770   1.715   2.762
 3584SOL    HW2 2224   3.906   1.804   2.755
 3797SOL     OW 2225   3.837   2.599   1.597
 3797SOL    HW1 2226   3.925   2.586   1.642
 3797SOL    HW2 2227   3.824   2.696   1.575
 3803SOL     OW 2228   4.041   2.113   1.801
 3803SOL    HW1 2229   4.112   2.184   1.807
 3803SOL    HW2 2230   3.953   2.152   1.829
 3823SOL     OW 2231   3.926   2.147   1.498
 3823SOL    HW1 2232   3.846   2.207   1.485
 3823SOL    HW2 2233   3.916   2.098   1.584
 3842SOL     OW 2234   3.802   2.418   1.386
 3842SOL    HW1 2235   3.894   2.417   1.345
 3842SOL    HW2 2236   3.796   2.492   1.453
 3875SOL     OW 2237   4.074   2.760   1.804
 3875SOL    HW1 2238   4.150   2.804   1.852
 3875SOL    HW2 2239   4.109   2.713   1.722
 3887SOL     OW 2240   3.913   2.382   1.722
 3887SOL    HW1 2241   3.972   2.342   1.652
 3887SOL    HW2 2242   3.855   2.453   1.681
 3894SOL     OW 2243   3.883   2.999   1.466
 3894SOL    HW1 2244   3.905   2.938   1.542
 3894SOL    HW2 2245   3.893   2.950   1.380
 3902SOL     OW 2246   3.854   3.656   1.851
 3902SOL    HW1 2247   3.813   3.582   1.904
 3902SOL    HW2 2248   3.918   3.707   1.909
 3915SOL     OW 2249   3.829   2.875   1.726
 3915SOL    HW1 2250   3.752   2.842   1.780
 3915SOL    HW2 2251   3.914   2.845   1.768
 3931SOL     OW 2252   3.945   3.176   1.844
 3931SOL    HW1 2253   3.880   3.103   1.823
 3931SOL    HW2 2254   3.949   3.190   1.942
 3944SOL     OW 2255   3.954   2.490   1.975
 3944SOL    HW1 2256   3.861   2.488   2.012
 3944SOL    HW2 2257   3.955   2.451   1.883
 3945SOL     OW 2258   3.949   2.137   2.858
 3945SOL    HW1 2259   3.984   2.120   2.950
 3945SOL    HW2 2260   3.861   2.092   2.846
 3946SOL     OW 2261   3.743   2.230   2.509
 3946SOL    HW1 2262   3.661   2.273   2.548
 3946SOL    HW2 2263   3.715   2.157   2.446
 3954SOL     OW 2264   4.059   3.297   2.923
 3954SOL    HW1 2265   3.981   3.266   2.870
 3954SOL    HW2 2266   4.117   3.355   2.866
 3955SOL     OW 2267   4.162   2.254   3.361
 3955SOL    HW1 2268   4.244   2.198   3.370
 3955SOL    HW2 2269   4.081   2.196   3.365
 3956SOL     OW 2270   3.955   3.575   2.345
 3956SOL    HW1 2271   3.989   3.652   2.399
 3956SOL    HW2 2272   3.999   3.575   2.255
 3958SOL     OW 2273   3.954   3.296   2.400
 3958SOL    HW1 2274   3.928   3.392   2.400
 3958SOL    HW2 2275   3.883   3.242   2.445
 3959SOL     OW 2276   3.964   2.953   2.748
 3959SOL    HW1 2277   3.978   2.869   2.800
 3959SOL    HW2 2278   3.909   3.017   2.803
 3962SOL     OW 2279   3.846   2.505   2.425
 3962SOL    HW1 2280   3.801   2.417   2.442
 3962SOL    HW2 2281   3.845   2.559   2.509
 3963SOL     OW 2282   3.751   3.458   1.979
 3963SOL    HW1 2283   3.732   3.362   2.000
 3963SOL    HW2 2284   3.718   3.516   2.054
 3965SOL     OW 2285   3.837   2.599   3.459
 3965SOL    HW1 2286   3.925   2.586   3.504
 3965SOL    HW2 2287   3.824   2.696   3.437
 3969SOL     OW 2288   3.921   2.838   3.126
 3969SOL    HW1 2289   4.010   2.793   3.112
 3969SOL    HW2 2290   3.848   2.773   3.107
 3973SOL     OW 2291   4.322   2.591   2.132
 3973SOL    HW1 2292   4.346   2.660   2.064
 3973SOL    HW2 2293   4.244   2.624   2.186
 3980SOL     OW 2294   3.800   2.673   2.651
 3980SOL    HW1 2295   3.899   2.661   2.660
 3980SOL    HW2 2296   3.776   2.768   2.672
 3984SOL     OW 2297   4.274   2.058   2.747
 3984SOL    HW1 2298   4.269   2.053   2.847
 3984SOL    HW2 2299   4.276   2.154   2.718
 3988SOL     OW 2300   4.045   2.805   2.104
 3988SOL    HW1 2301   4.127   2.844   2.062
 3988SOL    HW2 2302   4.018   2.723   2.055
 3991SOL     OW 2303   3.926   2.147   3.360
 3991SOL    HW1 2304   3.846   2.207   3.347
 3991SOL    HW2 2305   3.916   2.098   3.446
 3993SOL     OW 2306   3.973   3.647   3.103
 3993SOL    HW1 2307   4.030   3.582   3.153
 3993SOL    HW2 2308   3.957   3.614   3.010
 3995SOL     OW 2309   4.106   2.562   2.342
 3995SOL    HW1 2310   4.151   2.472   2.339
 3995SOL    HW2 2311   4.012   2.551   2.375
 4004SOL     OW 2312   4.021   1.897   2.033
 4004SOL    HW1 2313   4.070   1.981   2.012
 4004SOL    HW2 2314   4.083   1.832   2.078
 4008SOL     OW 2315   4.183   3.014   2.603
 4008SOL    HW1 2316   4.112   2.987   2.668
 4008SOL    HW2 2317   4.157   2.986   2.510
 4011SOL     OW 2318   3.802   2.418   3.248
 4011SOL    HW1 2319   3.894   2.417   3.207
 4011SOL    HW2 2320   3.796   2.492   3.315
 4017SOL     OW 2321   4.251   2.118   2.190
 4017SOL    HW1 2322   4.278   2.059   2.115
 4017SOL    HW2 2323   4.251   2.213   2.159
 4023SOL     OW 2324   4.134   2.675   3.113
 4023SOL    HW1 2325   4.220   2.687   3.163
 4023SOL    HW2 2326   4.092   2.588   3.140
 4025SOL     OW 2327   3.788   3.426   3.193
 4025SOL    HW1 2328   3.742   3.508   3.159
 4025SOL    HW2 2329   3.886   3.445   3.202
 4026SOL     OW 2330   4.091   2.962   2.363
 4026SOL    HW1 2331   4.084   3.045   2.307
 4026SOL    HW2 2332   4.095   2.882   2.303
 4027SOL     OW 2333   4.290   2.399   2.727
 4027SOL    HW1 2334   4.302   2.465   2.653
 4027SOL    HW2 2335   4.336   2.433   2.810
 4030SOL     OW 2336   4.078   3.372   3.191
 4030SOL    HW1 2337   4.057   3.328   3.104
 4030SOL    HW2 2338   4.175   3.398   3.194
 4031SOL     OW 2339   4.126   2.613   3.460
 4031SOL    HW1 2340   4.194   2.668   3.413
 4031SOL    HW2 2341   4.166   2.525   3.487
 4034SOL     OW 2342   4.297   2.732   2.891
 4034SOL    HW1 2343   4.341   2.821   2.882
 4034SOL    HW2 2344   4.234   2.732   2.968
 4037SOL     OW 2345   4.031   2.075   3.093
 4037SOL    HW1 2346   4.008   2.112   3.183
 4037SOL    HW2 2347   4.001   1.980   3.087
 4038SOL     OW 2348   3.761   3.172   3.144
 4038SOL    HW1 2349   3.814   3.123   3.212
 4038SOL    HW2 2350   3.783   3.270   3.149
 4040SOL     OW 2351   4.031   1.925   2.480
 4040SOL    HW1 2352   4.020   2.019   2.513
 4040SOL    HW2 2353   4.026   1.862   2.557
 4047SOL     OW 2354   4.043   2.672   2.811
 4047SOL    HW1 2355   4.136   2.708   2.816
 4047SOL    HW2 2356   4.037   2.587   2.863
 4048SOL     OW 2357   4.063   2.371   2.868
 4048SOL    HW1 2358   4.011   2.288   2.851
 4048SOL    HW2 2359   4.140   2.376   2.804
 4051SOL     OW 2360   3.732   3.188   2.062
 4051SOL    HW1 2361   3.639   3.209   2.031
 4051SOL    HW2 2362   3.742   3.089   2.075
 4052SOL     OW 2363   3.812   3.663   2.789
 4052SOL    HW1 2364   3.770   3.577   2.762
 4052SOL    HW2 2365   3.906   3.666   2.755
 4055SOL     OW 2366   3.764   2.406   2.976
 4055SOL    HW1 2367   3.849   2.373   2.935
 4055SOL    HW2 2368   3.777   2.421   3.074
 4056SOL     OW 2369   3.913   2.382   3.584
 4056SOL    HW1 2370   3.972   2.342   3.514
 4056SOL    HW2 2371   3.855   2.453   3.543
 4062SOL     OW 2372   4.197   2.362   2.053
 4062SOL    HW1 2373   4.258   2.442   2.057
 4062SOL    HW2 2374   4.102   2.393   2.060
 4063SOL     OW 2375   3.883   2.999   3.328
 4063SOL    HW1 2376   3.905   2.938   3.404
 4063SOL    HW2 2377   3.893   2.950   3.242
 4067SOL     OW 2378   3.807   3.120   2.884
 4067SOL    HW1 2379   3.802   3.119   2.984
 4067SOL    HW2 2380   3.724   3.079   2.846
 4074SOL     OW 2381   3.987   2.188   2.582
 4074SOL    HW1 2382   3.908   2.239   2.548
 4074SOL    HW2 2383   3.978   2.173   2.680
 4078SOL     OW 2384   4.096   3.150   3.352
 4078SOL    HW1 2385   4.083   3.243   3.318
 4078SOL    HW2 2386   4.012   3.098   3.339
 4082SOL     OW 2387   3.979   3.210   2.152
 4082SOL    HW1 2388   3.883   3.211   2.125
 4082SOL    HW2 2389   3.991   3.263   2.236
 4083SOL     OW 2390   3.829   2.875   3.588
 4083SOL    HW1 2391   3.752   2.842   3.642
 4083SOL    HW2 2392   3.914   2.845   3.630
 4085SOL     OW 2393   3.799   2.207   1.895
 4085SOL    HW1 2394   3.707   2.179   1.866
 4085SOL    HW2 2395   3.830   2.284   1.839
 4087SOL     OW 2396   3.796   2.028   2.180
 4087SOL    HW1 2397   3.779   2.111   2.126
 4087SOL    HW2 2398   3.886   1.991   2.158
 4094SOL     OW 2399   4.318   2.607   2.514
 4094SOL    HW1 2400   4.368   2.692   2.495
 4094SOL    HW2 2401   4.230   2.609   2.466
 4100SOL     OW 2402   3.803   3.102   2.515
 4100SOL    HW1 2403   3.802   3.055   2.603
 4100SOL    HW2 2404   3.885   3.074   2.464
 4102SOL     OW 2405   4.152   2.286   2.382
 4102SOL    HW1 2406   4.182   2.214   2.320
 4102SOL    HW2 2407   4.113   2.246   2.465
 4103SOL     OW 2408   4.041   2.409   3.142
 4103SOL    HW1 2409   4.079   2.350   3.214
 4103SOL    HW2 2410   4.081   2.383   3.054
 4110SOL     OW 2411   3.763   2.939   2.162
 4110SOL    HW1 2412   3.862   2.928   2.153
 4110SOL    HW2 2413   3.723   2.853   2.194
 4226SOL     OW 2414   3.799   2.207   3.757
 4226SOL    HW1 2415   3.707   2.179   3.728
 4226SOL    HW2 2416   3.830   2.284   3.701
 4500SOL     OW 2417   3.796   3.890   2.180
 4500SOL    HW1 2418   3.779   3.973   2.126
 4500SOL    HW2 2419   3.886   3.853   2.158
   5.21880   5.21880   5.21880
