mobley_1944394_GMX.gro created by acpype (v: 2023.10.27) on Tue May 19 12:34:16 2026
 2380
    1MOL     C1    1   2.852   2.806   2.928
    1MOL     C2    2   2.310   2.350   2.812
    1MOL     C3    3   2.882   2.669   2.921
    1MOL     C4    4   2.756   2.860   2.843
    1MOL     C5    5   2.437   2.295   2.824
    1MOL     C6    6   2.292   2.471   2.745
    1MOL     C7    7   2.816   2.588   2.829
    1MOL     C8    8   2.690   2.779   2.750
    1MOL     C9    9   2.547   2.361   2.770
    1MOL    C10   10   2.402   2.537   2.690
    1MOL    C11   11   2.720   2.643   2.743
    1MOL    C12   12   2.529   2.482   2.703
    1MOL    C13   13   2.543   2.623   2.057
    1MOL    C14   14   2.397   2.483   2.186
    1MOL    C15   15   2.551   2.632   2.297
    1MOL    C16   16   2.589   2.546   2.416
    1MOL    C17   17   2.649   2.554   2.643
    1MOL     N1   18   2.529   2.546   2.180
    1MOL     O1   19   2.613   2.630   2.528
    1MOL     H1   20   2.903   2.869   3.000
    1MOL     H2   21   2.224   2.298   2.854
    1MOL     H3   22   2.957   2.627   2.987
    1MOL     H4   23   2.732   2.966   2.848
    1MOL     H5   24   2.451   2.201   2.876
    1MOL     H6   25   2.192   2.514   2.735
    1MOL     H7   26   2.840   2.482   2.824
    1MOL     H8   27   2.616   2.822   2.684
    1MOL     H9   28   2.646   2.318   2.780
    1MOL    H10   29   2.387   2.631   2.638
    1MOL    H11   30   2.642   2.670   2.052
    1MOL    H12   31   2.467   2.702   2.052
    1MOL    H13   32   2.531   2.558   1.970
    1MOL    H14   33   2.387   2.426   2.279
    1MOL    H15   34   2.383   2.416   2.101
    1MOL    H16   35   2.319   2.560   2.184
    1MOL    H17   36   2.459   2.688   2.315
    1MOL    H18   37   2.631   2.702   2.273
    1MOL    H19   38   2.680   2.491   2.395
    1MOL    H20   39   2.509   2.475   2.442
    1MOL    H21   40   2.720   2.480   2.606
   97SOL     OW   41   1.592   1.629   1.625
   97SOL    HW1   42   1.619   1.663   1.535
   97SOL    HW2   43   1.671   1.591   1.671
  127SOL     OW   44   1.859   1.518   1.605
  127SOL    HW1   45   1.873   1.545   1.510
  127SOL    HW2   46   1.942   1.540   1.658
  163SOL     OW   47   1.650   1.720   1.394
  163SOL    HW1   48   1.703   1.730   1.310
  163SOL    HW2   49   1.623   1.810   1.428
  219SOL     OW   50   1.555   1.511   2.565
  219SOL    HW1   51   1.498   1.495   2.646
  219SOL    HW2   52   1.496   1.521   2.485
  227SOL     OW   53   1.460   1.505   3.201
  227SOL    HW1   54   1.484   1.599   3.227
  227SOL    HW2   55   1.444   1.451   3.283
  238SOL     OW   56   1.842   1.767   2.221
  238SOL    HW1   57   1.896   1.738   2.301
  238SOL    HW2   58   1.872   1.857   2.192
  241SOL     OW   59   1.641   1.108   2.294
  241SOL    HW1   60   1.727   1.110   2.242
  241SOL    HW2   61   1.655   1.155   2.382
  250SOL     OW   62   1.466   1.417   2.815
  250SOL    HW1   63   1.407   1.423   2.895
  250SOL    HW2   64   1.451   1.329   2.769
  251SOL     OW   65   1.667   1.714   2.434
  251SOL    HW1   66   1.626   1.691   2.346
  251SOL    HW2   67   1.649   1.640   2.499
  254SOL     OW   68   1.576   1.662   2.169
  254SOL    HW1   69   1.665   1.708   2.172
  254SOL    HW2   70   1.555   1.638   2.074
  268SOL     OW   71   1.795   1.066   2.735
  268SOL    HW1   72   1.733   1.051   2.659
  268SOL    HW2   73   1.743   1.077   2.820
  273SOL     OW   74   1.111   1.776   2.099
  273SOL    HW1   75   1.051   1.714   2.149
  273SOL    HW2   76   1.142   1.732   2.014
  275SOL     OW   77   1.632   1.377   1.943
  275SOL    HW1   78   1.600   1.471   1.933
  275SOL    HW2   79   1.556   1.314   1.931
  293SOL     OW   80   1.227   1.570   2.655
  293SOL    HW1   81   1.248   1.644   2.590
  293SOL    HW2   82   1.295   1.570   2.728
  295SOL     OW   83   1.271   1.797   2.453
  295SOL    HW1   84   1.315   1.861   2.389
  295SOL    HW2   85   1.221   1.849   2.523
  305SOL     OW   86   1.664   1.280   2.519
  305SOL    HW1   87   1.763   1.288   2.533
  305SOL    HW2   88   1.619   1.364   2.550
  310SOL     OW   89   1.592   1.629   3.487
  310SOL    HW1   90   1.619   1.663   3.397
  310SOL    HW2   91   1.671   1.591   3.533
  312SOL     OW   92   1.638   1.099   2.941
  312SOL    HW1   93   1.643   1.180   3.000
  312SOL    HW2   94   1.552   1.101   2.890
  322SOL     OW   95   1.272   1.445   3.004
  322SOL    HW1   96   1.319   1.458   3.091
  322SOL    HW2   97   1.206   1.371   3.013
  340SOL     OW   98   1.859   1.518   3.467
  340SOL    HW1   99   1.873   1.545   3.372
  340SOL    HW2  100   1.942   1.540   3.520
  365SOL     OW  101   1.759   1.747   3.016
  365SOL    HW1  102   1.820   1.777   2.943
  365SOL    HW2  103   1.721   1.658   2.994
  366SOL     OW  104   1.252   1.731   2.990
  366SOL    HW1  105   1.336   1.736   2.936
  366SOL    HW2  106   1.229   1.635   3.008
  370SOL     OW  107   1.388   1.573   2.339
  370SOL    HW1  108   1.455   1.585   2.265
  370SOL    HW2  109   1.348   1.662   2.362
  375SOL     OW  110   1.650   1.720   3.256
  375SOL    HW1  111   1.703   1.730   3.172
  375SOL    HW2  112   1.623   1.810   3.290
  381SOL     OW  113   1.504   1.607   1.906
  381SOL    HW1  114   1.412   1.644   1.913
  381SOL    HW2  115   1.542   1.627   1.816
  383SOL     OW  116   1.614   1.292   3.151
  383SOL    HW1  117   1.674   1.295   3.231
  383SOL    HW2  118   1.539   1.356   3.164
  396SOL     OW  119   1.493   1.767   2.821
  396SOL    HW1  120   1.526   1.831   2.752
  396SOL    HW2  121   1.559   1.761   2.896
  409SOL     OW  122   1.861   1.569   2.713
  409SOL    HW1  123   1.790   1.557   2.643
  409SOL    HW2  124   1.862   1.490   2.773
  415SOL     OW  125   1.705   1.487   2.966
  415SOL    HW1  126   1.612   1.462   2.939
  415SOL    HW2  127   1.731   1.437   3.048
  611SOL     OW  128   1.594   1.976   1.480
  611SOL    HW1  129   1.576   2.043   1.408
  611SOL    HW2  130   1.591   2.022   1.569
  619SOL     OW  131   1.293   3.090   1.423
  619SOL    HW1  132   1.330   3.017   1.365
  619SOL    HW2  133   1.345   3.095   1.508
  631SOL     OW  134   1.394   2.331   1.674
  631SOL    HW1  135   1.374   2.374   1.762
  631SOL    HW2  136   1.472   2.269   1.683
  638SOL     OW  137   1.719   2.447   1.831
  638SOL    HW1  138   1.693   2.536   1.795
  638SOL    HW2  139   1.717   2.379   1.758
  655SOL     OW  140   1.547   2.084   1.729
  655SOL    HW1  141   1.542   2.121   1.821
  655SOL    HW2  142   1.475   2.015   1.717
  658SOL     OW  143   1.351   2.452   1.433
  658SOL    HW1  144   1.379   2.409   1.518
  658SOL    HW2  145   1.376   2.548   1.434
  680SOL     OW  146   1.754   3.085   1.588
  680SOL    HW1  147   1.845   3.046   1.575
  680SOL    HW2  148   1.762   3.181   1.612
  682SOL     OW  149   1.592   3.491   1.625
  682SOL    HW1  150   1.619   3.525   1.535
  682SOL    HW2  151   1.671   3.453   1.671
  698SOL     OW  152   1.587   2.641   1.670
  698SOL    HW1  153   1.495   2.679   1.665
  698SOL    HW2  154   1.647   2.688   1.605
  707SOL     OW  155   1.728   2.797   1.854
  707SOL    HW1  156   1.682   2.790   1.765
  707SOL    HW2  157   1.666   2.841   1.920
  712SOL     OW  158   1.859   3.380   1.605
  712SOL    HW1  159   1.873   3.407   1.510
  712SOL    HW2  160   1.942   3.402   1.658
  719SOL     OW  161   1.138   2.242   1.678
  719SOL    HW1  162   1.093   2.305   1.742
  719SOL    HW2  163   1.231   2.273   1.661
  727SOL     OW  164   1.369   2.812   1.660
  727SOL    HW1  165   1.408   2.901   1.680
  727SOL    HW2  166   1.379   2.792   1.563
  729SOL     OW  167   1.657   2.466   1.206
  729SOL    HW1  168   1.619   2.397   1.268
  729SOL    HW2  169   1.739   2.430   1.162
  756SOL     OW  170   1.614   3.154   1.289
  756SOL    HW1  171   1.674   3.157   1.369
  756SOL    HW2  172   1.539   3.218   1.302
  760SOL     OW  173   1.709   2.247   1.381
  760SOL    HW1  174   1.782   2.316   1.385
  760SOL    HW2  175   1.737   2.172   1.322
  765SOL     OW  176   1.440   2.718   1.398
  765SOL    HW1  177   1.383   2.770   1.335
  765SOL    HW2  178   1.536   2.730   1.374
  771SOL     OW  179   1.450   3.082   1.633
  771SOL    HW1  180   1.441   3.072   1.732
  771SOL    HW2  181   1.546   3.075   1.607
  773SOL     OW  182   1.674   2.745   1.254
  773SOL    HW1  183   1.647   2.656   1.217
  773SOL    HW2  184   1.675   2.813   1.181
  776SOL     OW  185   1.777   2.204   1.642
  776SOL    HW1  186   1.760   2.235   1.548
  776SOL    HW2  187   1.693   2.167   1.680
  777SOL     OW  188   1.730   2.796   1.517
  777SOL    HW1  189   1.768   2.887   1.532
  777SOL    HW2  190   1.722   2.779   1.418
  786SOL     OW  191   1.824   2.054   1.227
  786SOL    HW1  192   1.820   1.964   1.271
  786SOL    HW2  193   1.827   2.043   1.128
  804SOL     OW  194   1.555   3.373   2.565
  804SOL    HW1  195   1.498   3.357   2.646
  804SOL    HW2  196   1.496   3.383   2.485
  805SOL     OW  197   1.135   2.565   2.579
  805SOL    HW1  198   1.192   2.643   2.554
  805SOL    HW2  199   1.075   2.591   2.655
  806SOL     OW  200   1.755   2.469   2.093
  806SOL    HW1  201   1.743   2.456   1.994
  806SOL    HW2  202   1.725   2.388   2.142
  812SOL     OW  203   1.460   3.367   3.201
  812SOL    HW1  204   1.484   3.461   3.227
  812SOL    HW2  205   1.444   3.313   3.283
  814SOL     OW  206   1.603   2.309   2.599
  814SOL    HW1  207   1.529   2.355   2.549
  814SOL    HW2  208   1.654   2.377   2.652
  821SOL     OW  209   1.594   1.976   3.342
  821SOL    HW1  210   1.576   2.043   3.270
  821SOL    HW2  211   1.591   2.022   3.431
  823SOL     OW  212   1.842   3.629   2.221
  823SOL    HW1  213   1.896   3.600   2.301
  823SOL    HW2  214   1.872   3.719   2.192
  825SOL     OW  215   1.689   2.784   2.474
  825SOL    HW1  216   1.784   2.755   2.482
  825SOL    HW2  217   1.681   2.849   2.399
  826SOL     OW  218   1.641   2.970   2.294
  826SOL    HW1  219   1.727   2.972   2.242
  826SOL    HW2  220   1.655   3.017   2.382
  829SOL     OW  221   1.293   3.090   3.285
  829SOL    HW1  222   1.330   3.017   3.227
  829SOL    HW2  223   1.345   3.095   3.370
  832SOL     OW  224   1.525   2.861   2.052
  832SOL    HW1  225   1.462   2.785   2.065
  832SOL    HW2  226   1.573   2.879   2.138
  835SOL     OW  227   1.466   3.279   2.815
  835SOL    HW1  228   1.407   3.285   2.895
  835SOL    HW2  229   1.451   3.191   2.769
  836SOL     OW  230   1.667   3.576   2.434
  836SOL    HW1  231   1.626   3.553   2.346
  836SOL    HW2  232   1.649   3.502   2.499
  838SOL     OW  233   1.281   2.207   2.806
  838SOL    HW1  234   1.195   2.157   2.793
  838SOL    HW2  235   1.343   2.153   2.862
  839SOL     OW  236   1.576   3.524   2.169
  839SOL    HW1  237   1.665   3.570   2.172
  839SOL    HW2  238   1.555   3.500   2.074
  841SOL     OW  239   1.394   2.331   3.536
  841SOL    HW1  240   1.374   2.374   3.624
  841SOL    HW2  241   1.472   2.269   3.545
  843SOL     OW  242   0.991   2.272   3.104
  843SOL    HW1  243   0.914   2.306   3.158
  843SOL    HW2  244   0.957   2.221   3.025
  844SOL     OW  245   1.041   2.563   2.291
  844SOL    HW1  246   1.067   2.559   2.387
  844SOL    HW2  247   0.956   2.512   2.277
  848SOL     OW  248   1.719   2.447   3.693
  848SOL    HW1  249   1.693   2.536   3.657
  848SOL    HW2  250   1.717   2.379   3.620
  849SOL     OW  251   1.362   3.006   2.407
  849SOL    HW1  252   1.445   2.977   2.359
  849SOL    HW2  253   1.313   3.073   2.351
  851SOL     OW  254   1.008   3.318   2.339
  851SOL    HW1  255   0.962   3.390   2.287
  851SOL    HW2  256   1.004   3.338   2.437
  853SOL     OW  257   1.795   2.928   2.735
  853SOL    HW1  258   1.733   2.913   2.659
  853SOL    HW2  259   1.743   2.939   2.820
  854SOL     OW  260   1.227   3.412   3.368
  854SOL    HW1  261   1.233   3.335   3.432
  854SOL    HW2  262   1.175   3.386   3.288
  856SOL     OW  263   1.458   2.597   2.590
  856SOL    HW1  264   1.453   2.532   2.665
  856SOL    HW2  265   1.538   2.656   2.603
  860SOL     OW  266   1.632   3.239   1.943
  860SOL    HW1  267   1.600   3.333   1.933
  860SOL    HW2  268   1.556   3.176   1.931
  862SOL     OW  269   1.400   1.969   2.288
  862SOL    HW1  270   1.376   1.932   2.198
  862SOL    HW2  271   1.499   1.985   2.292
  866SOL     OW  272   1.547   2.084   3.591
  866SOL    HW1  273   1.542   2.121   3.683
  866SOL    HW2  274   1.475   2.015   3.579
  870SOL     OW  275   1.351   2.452   3.295
  870SOL    HW1  276   1.379   2.409   3.380
  870SOL    HW2  277   1.376   2.548   3.296
  872SOL     OW  278   0.922   2.365   2.761
  872SOL    HW1  279   0.897   2.356   2.665
  872SOL    HW2  280   0.970   2.283   2.792
  874SOL     OW  281   1.434   3.050   1.903
  874SOL    HW1  282   1.466   2.974   1.960
  874SOL    HW2  283   1.342   3.077   1.933
  876SOL     OW  284   0.935   2.098   2.342
  876SOL    HW1  285   0.887   2.139   2.264
  876SOL    HW2  286   1.034   2.096   2.323
  877SOL     OW  287   1.076   2.545   3.326
  877SOL    HW1  288   0.996   2.484   3.329
  877SOL    HW2  289   1.157   2.492   3.302
  878SOL     OW  290   1.227   3.432   2.655
  878SOL    HW1  291   1.248   3.506   2.590
  878SOL    HW2  292   1.295   3.432   2.728
  880SOL     OW  293   1.271   3.659   2.453
  880SOL    HW1  294   1.315   3.723   2.389
  880SOL    HW2  295   1.221   3.711   2.523
  881SOL     OW  296   1.032   2.411   1.878
  881SOL    HW1  297   0.991   2.493   1.839
  881SOL    HW2  298   1.096   2.437   1.951
  884SOL     OW  299   0.866   2.316   2.504
  884SOL    HW1  300   0.834   2.388   2.442
  884SOL    HW2  301   0.890   2.235   2.451
  885SOL     OW  302   1.017   1.901   2.615
  885SOL    HW1  303   0.945   1.906   2.546
  885SOL    HW2  304   0.993   1.832   2.684
  886SOL     OW  305   1.429   3.035   2.729
  886SOL    HW1  306   1.374   2.951   2.722
  886SOL    HW2  307   1.455   3.064   2.637
  887SOL     OW  308   1.466   2.452   2.854
  887SOL    HW1  309   1.436   2.357   2.861
  887SOL    HW2  310   1.539   2.468   2.920
  888SOL     OW  311   1.857   2.695   2.239
  888SOL    HW1  312   1.899   2.631   2.303
  888SOL    HW2  313   1.819   2.644   2.161
  890SOL     OW  314   1.664   3.142   2.519
  890SOL    HW1  315   1.763   3.150   2.533
  890SOL    HW2  316   1.619   3.226   2.550
  891SOL     OW  317   1.390   2.437   1.940
  891SOL    HW1  318   1.336   2.416   2.021
  891SOL    HW2  319   1.481   2.396   1.949
  893SOL     OW  320   1.754   3.085   3.450
  893SOL    HW1  321   1.845   3.046   3.437
  893SOL    HW2  322   1.762   3.181   3.474
  894SOL     OW  323   1.064   3.209   3.202
  894SOL    HW1  324   0.984   3.186   3.257
  894SOL    HW2  325   1.147   3.183   3.251
  895SOL     OW  326   1.592   3.491   3.487
  895SOL    HW1  327   1.619   3.525   3.397
  895SOL    HW2  328   1.671   3.453   3.533
  896SOL     OW  329   1.111   3.057   2.962
  896SOL    HW1  330   1.071   3.101   3.043
  896SOL    HW2  331   1.070   3.094   2.879
  897SOL     OW  332   1.638   2.961   2.941
  897SOL    HW1  333   1.643   3.042   3.000
  897SOL    HW2  334   1.552   2.963   2.890
  902SOL     OW  335   1.274   2.248   3.124
  902SOL    HW1  336   1.295   2.322   3.188
  902SOL    HW2  337   1.185   2.265   3.081
  906SOL     OW  338   1.252   3.210   2.250
  906SOL    HW1  339   1.302   3.287   2.290
  906SOL    HW2  340   1.157   3.212   2.282
  907SOL     OW  341   1.272   3.307   3.004
  907SOL    HW1  342   1.319   3.320   3.091
  907SOL    HW2  343   1.206   3.233   3.013
  908SOL     OW  344   1.582   2.501   2.334
  908SOL    HW1  345   1.551   2.562   2.407
  908SOL    HW2  346   1.632   2.553   2.265
  911SOL     OW  347   1.587   2.641   3.532
  911SOL    HW1  348   1.495   2.679   3.527
  911SOL    HW2  349   1.647   2.688   3.467
  915SOL     OW  350   1.360   2.724   2.907
  915SOL    HW1  351   1.285   2.724   2.841
  915SOL    HW2  352   1.397   2.632   2.916
  916SOL     OW  353   1.209   2.387   2.137
  916SOL    HW1  354   1.222   2.303   2.191
  916SOL    HW2  355   1.180   2.461   2.197
  920SOL     OW  356   1.728   2.797   3.716
  920SOL    HW1  357   1.682   2.790   3.627
  920SOL    HW2  358   1.666   2.841   3.782
  922SOL     OW  359   1.622   2.229   2.236
  922SOL    HW1  360   1.624   2.153   2.300
  922SOL    HW2  361   1.574   2.306   2.276
  923SOL     OW  362   1.023   2.628   2.828
  923SOL    HW1  363   1.038   2.649   2.924
  923SOL    HW2  364   0.993   2.533   2.819
  925SOL     OW  365   1.859   3.380   3.467
  925SOL    HW1  366   1.873   3.407   3.372
  925SOL    HW2  367   1.942   3.402   3.520
  927SOL     OW  368   1.540   2.136   1.987
  927SOL    HW1  369   1.479   2.061   2.010
  927SOL    HW2  370   1.562   2.188   2.070
  928SOL     OW  371   1.303   2.700   1.904
  928SOL    HW1  372   1.337   2.607   1.919
  928SOL    HW2  373   1.321   2.727   1.809
  929SOL     OW  374   1.068   3.195   2.711
  929SOL    HW1  375   1.075   3.111   2.656
  929SOL    HW2  376   1.130   3.264   2.675
  932SOL     OW  377   1.138   2.242   3.540
  932SOL    HW1  378   1.093   2.305   3.604
  932SOL    HW2  379   1.231   2.273   3.523
  933SOL     OW  380   1.160   2.069   3.339
  933SOL    HW1  381   1.160   2.133   3.416
  933SOL    HW2  382   1.188   2.117   3.256
  937SOL     OW  383   1.002   2.658   3.100
  937SOL    HW1  384   1.043   2.626   3.186
  937SOL    HW2  385   0.906   2.631   3.097
  940SOL     OW  386   1.369   2.812   3.522
  940SOL    HW1  387   1.408   2.901   3.542
  940SOL    HW2  388   1.379   2.792   3.425
  942SOL     OW  389   1.657   2.466   3.068
  942SOL    HW1  390   1.619   2.397   3.130
  942SOL    HW2  391   1.739   2.430   3.024
  948SOL     OW  392   1.347   2.921   3.096
  948SOL    HW1  393   1.371   2.858   3.022
  948SOL    HW2  394   1.257   2.961   3.078
  949SOL     OW  395   1.302   2.717   2.171
  949SOL    HW1  396   1.216   2.686   2.213
  949SOL    HW2  397   1.298   2.703   2.072
  950SOL     OW  398   1.759   3.609   3.016
  950SOL    HW1  399   1.820   3.639   2.943
  950SOL    HW2  400   1.721   3.520   2.994
  951SOL     OW  401   1.252   3.593   2.990
  951SOL    HW1  402   1.336   3.598   2.936
  951SOL    HW2  403   1.229   3.497   3.008
  954SOL     OW  404   1.726   1.997   2.385
  954SOL    HW1  405   1.799   1.980   2.318
  954SOL    HW2  406   1.695   1.910   2.423
  955SOL     OW  407   1.388   3.435   2.339
  955SOL    HW1  408   1.455   3.447   2.265
  955SOL    HW2  409   1.348   3.524   2.362
  957SOL     OW  410   1.280   2.789   2.534
  957SOL    HW1  411   1.340   2.708   2.536
  957SOL    HW2  412   1.320   2.858   2.474
  960SOL     OW  413   1.650   3.582   3.256
  960SOL    HW1  414   1.703   3.592   3.172
  960SOL    HW2  415   1.623   3.672   3.290
  961SOL     OW  416   1.841   2.037   2.825
  961SOL    HW1  417   1.880   1.952   2.789
  961SOL    HW2  418   1.743   2.039   2.806
  963SOL     OW  419   1.194   3.474   1.893
  963SOL    HW1  420   1.200   3.381   1.930
  963SOL    HW2  421   1.135   3.474   1.813
  965SOL     OW  422   0.916   2.772   2.153
  965SOL    HW1  423   0.979   2.810   2.085
  965SOL    HW2  424   0.956   2.689   2.192
  966SOL     OW  425   1.504   3.469   1.906
  966SOL    HW1  426   1.412   3.506   1.913
  966SOL    HW2  427   1.542   3.489   1.816
  968SOL     OW  428   1.614   3.154   3.151
  968SOL    HW1  429   1.674   3.157   3.231
  968SOL    HW2  430   1.539   3.218   3.164
  969SOL     OW  431   1.039   2.960   2.558
  969SOL    HW1  432   0.969   2.913   2.612
  969SOL    HW2  433   1.098   2.892   2.515
  970SOL     OW  434   1.014   2.098   2.833
  970SOL    HW1  435   1.006   2.062   2.740
  970SOL    HW2  436   1.012   2.022   2.898
  972SOL     OW  437   1.709   2.247   3.243
  972SOL    HW1  438   1.782   2.316   3.247
  972SOL    HW2  439   1.737   2.172   3.184
  977SOL     OW  440   1.440   2.718   3.260
  977SOL    HW1  441   1.383   2.770   3.197
  977SOL    HW2  442   1.536   2.730   3.236
  979SOL     OW  443   1.183   3.197   1.981
  979SOL    HW1  444   1.084   3.186   1.983
  979SOL    HW2  445   1.217   3.212   2.074
  981SOL     OW  446   1.493   3.629   2.821
  981SOL    HW1  447   1.526   3.693   2.752
  981SOL    HW2  448   1.559   3.623   2.896
  983SOL     OW  449   1.450   3.082   3.495
  983SOL    HW1  450   1.441   3.072   3.594
  983SOL    HW2  451   1.546   3.075   3.469
  985SOL     OW  452   1.674   2.745   3.116
  985SOL    HW1  453   1.647   2.656   3.079
  985SOL    HW2  454   1.675   2.813   3.043
  986SOL     OW  455   1.225   2.187   2.311
  986SOL    HW1  456   1.290   2.113   2.300
  986SOL    HW2  457   1.245   2.237   2.395
  988SOL     OW  458   1.777   2.204   3.504
  988SOL    HW1  459   1.760   2.235   3.410
  988SOL    HW2  460   1.693   2.167   3.542
  989SOL     OW  461   1.730   2.796   3.379
  989SOL    HW1  462   1.768   2.887   3.394
  989SOL    HW2  463   1.722   2.779   3.280
  992SOL     OW  464   0.859   2.818   2.723
  992SOL    HW1  465   0.913   2.749   2.771
  992SOL    HW2  466   0.827   2.887   2.789
  993SOL     OW  467   1.083   2.846   1.949
  993SOL    HW1  468   1.060   2.899   1.867
  993SOL    HW2  469   1.164   2.790   1.930
  994SOL     OW  470   1.861   3.431   2.713
  994SOL    HW1  471   1.790   3.419   2.643
  994SOL    HW2  472   1.862   3.352   2.773
  998SOL     OW  473   1.824   2.054   3.089
  998SOL    HW1  474   1.820   1.964   3.133
  998SOL    HW2  475   1.827   2.043   2.990
 1000SOL     OW  476   1.705   3.349   2.966
 1000SOL    HW1  477   1.612   3.324   2.939
 1000SOL    HW2  478   1.731   3.299   3.048
 1003SOL     OW  479   1.424   2.076   2.974
 1003SOL    HW1  480   1.476   2.011   3.029
 1003SOL    HW2  481   1.375   2.139   3.035
 1004SOL     OW  482   1.001   1.896   3.016
 1004SOL    HW1  483   0.938   1.824   2.985
 1004SOL    HW2  484   1.094   1.860   3.016
 1007SOL     OW  485   1.352   1.914   2.030
 1007SOL    HW1  486   1.387   1.873   1.946
 1007SOL    HW2  487   1.262   1.876   2.050
 1008SOL     OW  488   1.300   2.315   2.553
 1008SOL    HW1  489   1.241   2.395   2.557
 1008SOL    HW2  490   1.315   2.280   2.646
 1009SOL     OW  491   1.593   2.083   2.744
 1009SOL    HW1  492   1.509   2.082   2.798
 1009SOL    HW2  493   1.595   2.166   2.688
 1018SOL     OW  494   1.755   2.469   3.955
 1018SOL    HW1  495   1.743   2.456   3.856
 1018SOL    HW2  496   1.725   2.388   4.004
 1036SOL     OW  497   1.525   2.861   3.914
 1036SOL    HW1  498   1.462   2.785   3.927
 1036SOL    HW2  499   1.573   2.879   4.000
 1056SOL     OW  500   1.632   3.239   3.805
 1056SOL    HW1  501   1.600   3.333   3.795
 1056SOL    HW2  502   1.556   3.176   3.793
 1067SOL     OW  503   1.434   3.050   3.765
 1067SOL    HW1  504   1.466   2.974   3.822
 1067SOL    HW2  505   1.342   3.077   3.795
 1079SOL     OW  506   1.857   2.695   4.101
 1079SOL    HW1  507   1.899   2.631   4.165
 1079SOL    HW2  508   1.819   2.644   4.023
 1082SOL     OW  509   1.390   2.437   3.802
 1082SOL    HW1  510   1.336   2.416   3.883
 1082SOL    HW2  511   1.481   2.396   3.811
 1107SOL     OW  512   1.540   2.136   3.849
 1107SOL    HW1  513   1.479   2.061   3.872
 1107SOL    HW2  514   1.562   2.188   3.932
 1108SOL     OW  515   1.303   2.700   3.766
 1108SOL    HW1  516   1.337   2.607   3.781
 1108SOL    HW2  517   1.321   2.727   3.671
 1348SOL     OW  518   1.594   3.838   3.342
 1348SOL    HW1  519   1.576   3.905   3.270
 1348SOL    HW2  520   1.591   3.884   3.431
 1376SOL     OW  521   1.400   3.831   2.288
 1376SOL    HW1  522   1.376   3.794   2.198
 1376SOL    HW2  523   1.499   3.847   2.292
 1449SOL     OW  524   1.726   3.859   2.385
 1449SOL    HW1  525   1.799   3.842   2.318
 1449SOL    HW2  526   1.695   3.772   2.423
 1452SOL     OW  527   1.841   3.899   2.825
 1452SOL    HW1  528   1.880   3.814   2.789
 1452SOL    HW2  529   1.743   3.901   2.806
 1480SOL     OW  530   1.824   3.916   3.089
 1480SOL    HW1  531   1.820   3.826   3.133
 1480SOL    HW2  532   1.827   3.905   2.990
 1487SOL     OW  533   1.352   3.776   2.030
 1487SOL    HW1  534   1.387   3.735   1.946
 1487SOL    HW2  535   1.262   3.738   2.050
 1489SOL     OW  536   1.593   3.945   2.744
 1489SOL    HW1  537   1.509   3.944   2.798
 1489SOL    HW2  538   1.595   4.028   2.688
 1625SOL     OW  539   2.548   1.161   1.803
 1625SOL    HW1  540   2.608   1.240   1.817
 1625SOL    HW2  541   2.462   1.192   1.762
 1627SOL     OW  542   3.322   1.505   1.339
 1627SOL    HW1  543   3.346   1.599   1.365
 1627SOL    HW2  544   3.306   1.451   1.421
 1631SOL     OW  545   2.989   1.341   1.690
 1631SOL    HW1  546   3.036   1.341   1.778
 1631SOL    HW2  547   2.941   1.254   1.679
 1634SOL     OW  548   2.482   1.786   1.439
 1634SOL    HW1  549   2.390   1.769   1.474
 1634SOL    HW2  550   2.510   1.878   1.465
 1647SOL     OW  551   3.049   1.792   1.616
 1647SOL    HW1  552   3.073   1.852   1.540
 1647SOL    HW2  553   3.056   1.697   1.586
 1660SOL     OW  554   1.992   1.821   1.571
 1660SOL    HW1  555   1.982   1.806   1.670
 1660SOL    HW2  556   1.906   1.857   1.535
 1668SOL     OW  557   3.089   1.550   1.506
 1668SOL    HW1  558   3.095   1.473   1.570
 1668SOL    HW2  559   3.037   1.524   1.426
 1671SOL     OW  560   2.323   1.266   1.727
 1671SOL    HW1  561   2.273   1.267   1.641
 1671SOL    HW2  562   2.260   1.248   1.803
 1677SOL     OW  563   2.111   1.785   1.241
 1677SOL    HW1  564   2.168   1.720   1.291
 1677SOL    HW2  565   2.095   1.752   1.148
 1683SOL     OW  566   2.750   1.514   1.195
 1683SOL    HW1  567   2.727   1.489   1.101
 1683SOL    HW2  568   2.811   1.445   1.234
 1708SOL     OW  569   2.926   1.347   1.340
 1708SOL    HW1  570   2.846   1.324   1.395
 1708SOL    HW2  571   3.009   1.321   1.389
 1709SOL     OW  572   3.454   1.629   1.625
 1709SOL    HW1  573   3.481   1.663   1.535
 1709SOL    HW2  574   3.533   1.591   1.671
 1713SOL     OW  575   2.842   1.116   1.719
 1713SOL    HW1  576   2.743   1.122   1.729
 1713SOL    HW2  577   2.865   1.036   1.663
 1717SOL     OW  578   1.926   1.564   1.331
 1717SOL    HW1  579   1.880   1.646   1.297
 1717SOL    HW2  580   2.024   1.583   1.340
 1723SOL     OW  581   2.216   1.510   1.329
 1723SOL    HW1  582   2.195   1.466   1.242
 1723SOL    HW2  583   2.313   1.536   1.332
 1738SOL     OW  584   2.842   1.573   1.700
 1738SOL    HW1  585   2.822   1.617   1.612
 1738SOL    HW2  586   2.881   1.482   1.684
 1756SOL     OW  587   2.114   1.564   1.744
 1756SOL    HW1  588   2.084   1.621   1.820
 1756SOL    HW2  589   2.107   1.467   1.770
 1758SOL     OW  590   2.792   1.678   1.465
 1758SOL    HW1  591   2.768   1.660   1.370
 1758SOL    HW2  592   2.822   1.772   1.475
 1764SOL     OW  593   3.114   1.731   1.128
 1764SOL    HW1  594   3.198   1.736   1.074
 1764SOL    HW2  595   3.091   1.635   1.146
 1766SOL     OW  596   2.550   1.662   1.716
 1766SOL    HW1  597   2.494   1.743   1.725
 1766SOL    HW2  598   2.602   1.666   1.630
 1770SOL     OW  599   1.992   1.794   1.851
 1770SOL    HW1  600   1.951   1.720   1.904
 1770SOL    HW2  601   2.056   1.845   1.909
 1772SOL     OW  602   2.692   1.273   1.422
 1772SOL    HW1  603   2.687   1.306   1.517
 1772SOL    HW2  604   2.606   1.292   1.376
 1774SOL     OW  605   3.512   1.720   1.394
 1774SOL    HW1  606   3.565   1.730   1.310
 1774SOL    HW2  607   3.485   1.810   1.428
 1781SOL     OW  608   2.234   1.288   1.490
 1781SOL    HW1  609   2.221   1.381   1.456
 1781SOL    HW2  610   2.150   1.236   1.477
 1798SOL     OW  611   2.252   1.741   1.560
 1798SOL    HW1  612   2.161   1.782   1.558
 1798SOL    HW2  613   2.245   1.647   1.592
 1805SOL     OW  614   2.523   1.790   0.953
 1805SOL    HW1  615   2.477   1.878   0.940
 1805SOL    HW2  616   2.622   1.802   0.946
 1809SOL     OW  617   2.083   1.314   1.844
 1809SOL    HW1  618   2.018   1.241   1.823
 1809SOL    HW2  619   2.087   1.328   1.942
 1811SOL     OW  620   2.534   1.391   1.624
 1811SOL    HW1  621   2.456   1.341   1.662
 1811SOL    HW2  622   2.531   1.486   1.655
 1820SOL     OW  623   2.480   1.567   1.284
 1820SOL    HW1  624   2.475   1.649   1.341
 1820SOL    HW2  625   2.569   1.564   1.239
 1829SOL     OW  626   2.431   1.275   3.027
 1829SOL    HW1  627   2.338   1.268   2.990
 1829SOL    HW2  628   2.442   1.364   3.071
 1830SOL     OW  629   3.417   1.511   2.565
 1830SOL    HW1  630   3.360   1.495   2.646
 1830SOL    HW2  631   3.358   1.521   2.485
 1833SOL     OW  632   2.630   1.144   2.885
 1833SOL    HW1  633   2.552   1.161   2.945
 1833SOL    HW2  634   2.664   1.231   2.849
 1835SOL     OW  635   2.547   1.012   2.527
 1835SOL    HW1  636   2.616   0.996   2.597
 1835SOL    HW2  637   2.474   1.069   2.565
 1836SOL     OW  638   2.548   1.161   3.665
 1836SOL    HW1  639   2.608   1.240   3.679
 1836SOL    HW2  640   2.462   1.192   3.624
 1837SOL     OW  641   2.197   1.435   2.923
 1837SOL    HW1  642   2.119   1.404   2.870
 1837SOL    HW2  643   2.255   1.493   2.866
 1838SOL     OW  644   3.322   1.505   3.201
 1838SOL    HW1  645   3.346   1.599   3.227
 1838SOL    HW2  646   3.306   1.451   3.283
 1841SOL     OW  647   2.093   1.713   2.345
 1841SOL    HW1  648   2.127   1.790   2.399
 1841SOL    HW2  649   2.137   1.713   2.255
 1842SOL     OW  650   2.989   1.341   3.552
 1842SOL    HW1  651   3.036   1.341   3.640
 1842SOL    HW2  652   2.941   1.254   3.541
 1843SOL     OW  653   2.092   1.434   2.400
 1843SOL    HW1  654   2.066   1.530   2.400
 1843SOL    HW2  655   2.021   1.380   2.445
 1844SOL     OW  656   2.102   1.091   2.748
 1844SOL    HW1  657   2.116   1.007   2.800
 1844SOL    HW2  658   2.047   1.155   2.803
 1845SOL     OW  659   2.482   1.786   3.301
 1845SOL    HW1  660   2.390   1.769   3.336
 1845SOL    HW2  661   2.510   1.878   3.327
 1846SOL     OW  662   2.468   0.964   1.985
 1846SOL    HW1  663   2.475   1.048   1.931
 1846SOL    HW2  664   2.514   0.977   2.073
 1849SOL     OW  665   3.704   1.767   2.221
 1849SOL    HW1  666   3.758   1.738   2.301
 1849SOL    HW2  667   3.734   1.857   2.192
 1850SOL     OW  668   1.889   1.596   1.979
 1850SOL    HW1  669   1.870   1.500   2.000
 1850SOL    HW2  670   1.856   1.654   2.054
 1852SOL     OW  671   3.503   1.108   2.294
 1852SOL    HW1  672   3.589   1.110   2.242
 1852SOL    HW2  673   3.517   1.155   2.382
 1854SOL     OW  674   2.475   1.365   2.588
 1854SOL    HW1  675   2.426   1.278   2.597
 1854SOL    HW2  676   2.452   1.408   2.501
 1855SOL     OW  677   3.155   1.228   3.285
 1855SOL    HW1  678   3.192   1.155   3.227
 1855SOL    HW2  679   3.207   1.233   3.370
 1857SOL     OW  680   2.059   0.976   3.126
 1857SOL    HW1  681   2.148   0.931   3.112
 1857SOL    HW2  682   1.986   0.911   3.107
 1859SOL     OW  683   3.049   1.792   3.478
 1859SOL    HW1  684   3.073   1.852   3.402
 1859SOL    HW2  685   3.056   1.697   3.448
 1861SOL     OW  686   3.328   1.417   2.815
 1861SOL    HW1  687   3.269   1.423   2.895
 1861SOL    HW2  688   3.313   1.329   2.769
 1862SOL     OW  689   3.529   1.714   2.434
 1862SOL    HW1  690   3.488   1.691   2.346
 1862SOL    HW2  691   3.511   1.640   2.499
 1865SOL     OW  692   3.438   1.662   2.169
 1865SOL    HW1  693   3.527   1.708   2.172
 1865SOL    HW2  694   3.417   1.638   2.074
 1872SOL     OW  695   1.992   1.821   3.433
 1872SOL    HW1  696   1.982   1.806   3.532
 1872SOL    HW2  697   1.906   1.857   3.397
 1875SOL     OW  698   3.224   1.144   2.407
 1875SOL    HW1  699   3.307   1.115   2.359
 1875SOL    HW2  700   3.175   1.211   2.351
 1877SOL     OW  701   2.870   1.456   2.339
 1877SOL    HW1  702   2.824   1.528   2.287
 1877SOL    HW2  703   2.866   1.476   2.437
 1878SOL     OW  704   2.213   1.801   2.715
 1878SOL    HW1  705   2.263   1.715   2.721
 1878SOL    HW2  706   2.278   1.878   2.712
 1880SOL     OW  707   3.089   1.550   3.368
 1880SOL    HW1  708   3.095   1.473   3.432
 1880SOL    HW2  709   3.037   1.524   3.288
 1881SOL     OW  710   2.183   0.943   2.104
 1881SOL    HW1  711   2.265   0.982   2.062
 1881SOL    HW2  712   2.156   0.861   2.055
 1883SOL     OW  713   2.323   1.266   3.589
 1883SOL    HW1  714   2.273   1.267   3.503
 1883SOL    HW2  715   2.260   1.248   3.665
 1884SOL     OW  716   2.973   1.776   2.099
 1884SOL    HW1  717   2.913   1.714   2.149
 1884SOL    HW2  718   3.004   1.732   2.014
 1886SOL     OW  719   3.494   1.377   1.943
 1886SOL    HW1  720   3.462   1.471   1.933
 1886SOL    HW2  721   3.418   1.314   1.931
 1887SOL     OW  722   2.326   1.743   2.185
 1887SOL    HW1  723   2.359   1.782   2.271
 1887SOL    HW2  724   2.402   1.736   2.120
 1889SOL     OW  725   2.111   1.785   3.103
 1889SOL    HW1  726   2.168   1.720   3.153
 1889SOL    HW2  727   2.095   1.752   3.010
 1890SOL     OW  728   2.802   1.698   2.766
 1890SOL    HW1  729   2.882   1.641   2.787
 1890SOL    HW2  730   2.753   1.658   2.689
 1895SOL     OW  731   2.750   1.514   3.057
 1895SOL    HW1  732   2.727   1.489   2.963
 1895SOL    HW2  733   2.811   1.445   3.096
 1897SOL     OW  734   2.665   1.402   2.786
 1897SOL    HW1  735   2.755   1.416   2.744
 1897SOL    HW2  736   2.594   1.404   2.715
 1900SOL     OW  737   3.296   1.188   1.903
 1900SOL    HW1  738   3.328   1.112   1.960
 1900SOL    HW2  739   3.204   1.215   1.933
 1904SOL     OW  740   3.089   1.570   2.655
 1904SOL    HW1  741   3.110   1.644   2.590
 1904SOL    HW2  742   3.157   1.570   2.728
 1905SOL     OW  743   2.321   1.152   2.603
 1905SOL    HW1  744   2.250   1.125   2.668
 1905SOL    HW2  745   2.295   1.124   2.510
 1906SOL     OW  746   3.133   1.797   2.453
 1906SOL    HW1  747   3.177   1.861   2.389
 1906SOL    HW2  748   3.083   1.849   2.523
 1912SOL     OW  749   3.291   1.173   2.729
 1912SOL    HW1  750   3.236   1.089   2.722
 1912SOL    HW2  751   3.317   1.202   2.637
 1915SOL     OW  752   2.350   1.385   2.036
 1915SOL    HW1  753   2.263   1.370   2.083
 1915SOL    HW2  754   2.333   1.411   1.941
 1916SOL     OW  755   3.526   1.280   2.519
 1916SOL    HW1  756   3.625   1.288   2.533
 1916SOL    HW2  757   3.481   1.364   2.550
 1920SOL     OW  758   2.926   1.347   3.202
 1920SOL    HW1  759   2.846   1.324   3.257
 1920SOL    HW2  760   3.009   1.321   3.251
 1921SOL     OW  761   3.454   1.629   3.487
 1921SOL    HW1  762   3.481   1.663   3.397
 1921SOL    HW2  763   3.533   1.591   3.533
 1922SOL     OW  764   2.973   1.195   2.962
 1922SOL    HW1  765   2.933   1.239   3.043
 1922SOL    HW2  766   2.932   1.232   2.879
 1923SOL     OW  767   3.500   1.099   2.941
 1923SOL    HW1  768   3.505   1.180   3.000
 1923SOL    HW2  769   3.414   1.101   2.890
 1925SOL     OW  770   2.842   1.116   3.581
 1925SOL    HW1  771   2.743   1.122   3.591
 1925SOL    HW2  772   2.865   1.036   3.525
 1926SOL     OW  773   2.567   1.050   2.230
 1926SOL    HW1  774   2.553   1.057   2.329
 1926SOL    HW2  775   2.651   0.999   2.212
 1929SOL     OW  776   1.926   1.564   3.193
 1929SOL    HW1  777   1.880   1.646   3.159
 1929SOL    HW2  778   2.024   1.583   3.202
 1930SOL     OW  779   2.229   1.100   2.363
 1930SOL    HW1  780   2.222   1.183   2.307
 1930SOL    HW2  781   2.233   1.020   2.303
 1932SOL     OW  782   3.114   1.348   2.250
 1932SOL    HW1  783   3.164   1.425   2.290
 1932SOL    HW2  784   3.019   1.350   2.282
 1933SOL     OW  785   3.134   1.445   3.004
 1933SOL    HW1  786   3.181   1.458   3.091
 1933SOL    HW2  787   3.068   1.371   3.013
 1935SOL     OW  788   2.216   1.510   3.191
 1935SOL    HW1  789   2.195   1.466   3.104
 1935SOL    HW2  790   2.313   1.536   3.194
 1940SOL     OW  791   2.435   0.870   2.891
 1940SOL    HW1  792   2.479   0.959   2.882
 1940SOL    HW2  793   2.372   0.870   2.968
 1944SOL     OW  794   1.899   1.310   3.144
 1944SOL    HW1  795   1.952   1.261   3.212
 1944SOL    HW2  796   1.921   1.408   3.149
 1950SOL     OW  797   2.842   1.573   3.562
 1950SOL    HW1  798   2.822   1.617   3.474
 1950SOL    HW2  799   2.881   1.482   3.546
 1951SOL     OW  800   3.721   1.518   3.467
 1951SOL    HW1  801   3.735   1.545   3.372
 1951SOL    HW2  802   3.804   1.540   3.520
 1955SOL     OW  803   2.930   1.333   2.711
 1955SOL    HW1  804   2.937   1.249   2.656
 1955SOL    HW2  805   2.992   1.402   2.675
 1960SOL     OW  806   1.870   1.326   2.062
 1960SOL    HW1  807   1.777   1.347   2.031
 1960SOL    HW2  808   1.880   1.227   2.075
 1961SOL     OW  809   1.950   1.801   2.789
 1961SOL    HW1  810   1.908   1.715   2.762
 1961SOL    HW2  811   2.044   1.804   2.755
 1962SOL     OW  812   2.366   1.568   2.772
 1962SOL    HW1  813   2.432   1.642   2.781
 1962SOL    HW2  814   2.410   1.489   2.730
 1969SOL     OW  815   2.114   1.564   3.606
 1969SOL    HW1  816   2.084   1.621   3.682
 1969SOL    HW2  817   2.107   1.467   3.632
 1971SOL     OW  818   2.792   1.678   3.327
 1971SOL    HW1  819   2.768   1.660   3.232
 1971SOL    HW2  820   2.822   1.772   3.337
 1973SOL     OW  821   2.021   1.137   3.328
 1973SOL    HW1  822   2.043   1.076   3.404
 1973SOL    HW2  823   2.031   1.088   3.242
 1974SOL     OW  824   3.209   1.059   3.096
 1974SOL    HW1  825   3.233   0.996   3.022
 1974SOL    HW2  826   3.119   1.099   3.078
 1976SOL     OW  827   3.621   1.747   3.016
 1976SOL    HW1  828   3.682   1.777   2.943
 1976SOL    HW2  829   3.583   1.658   2.994
 1977SOL     OW  830   3.114   1.731   2.990
 1977SOL    HW1  831   3.198   1.736   2.936
 1977SOL    HW2  832   3.091   1.635   3.008
 1978SOL     OW  833   1.945   1.258   2.884
 1978SOL    HW1  834   1.940   1.257   2.984
 1978SOL    HW2  835   1.862   1.217   2.846
 1979SOL     OW  836   2.550   1.662   3.578
 1979SOL    HW1  837   2.494   1.743   3.587
 1979SOL    HW2  838   2.602   1.666   3.492
 1981SOL     OW  839   3.250   1.573   2.339
 1981SOL    HW1  840   3.317   1.585   2.265
 1981SOL    HW2  841   3.210   1.662   2.362
 1982SOL     OW  842   1.992   1.794   3.713
 1982SOL    HW1  843   1.951   1.720   3.766
 1982SOL    HW2  844   2.056   1.845   3.771
 1983SOL     OW  845   3.142   0.927   2.534
 1983SOL    HW1  846   3.202   0.846   2.536
 1983SOL    HW2  847   3.182   0.996   2.474
 1984SOL     OW  848   2.692   1.273   3.284
 1984SOL    HW1  849   2.687   1.306   3.379
 1984SOL    HW2  850   2.606   1.292   3.238
 1985SOL     OW  851   2.534   1.616   2.016
 1985SOL    HW1  852   2.543   1.626   1.917
 1985SOL    HW2  853   2.494   1.527   2.037
 1986SOL     OW  854   3.512   1.720   3.256
 1986SOL    HW1  855   3.565   1.730   3.172
 1986SOL    HW2  856   3.485   1.810   3.290
 1989SOL     OW  857   3.056   1.612   1.893
 1989SOL    HW1  858   3.062   1.519   1.930
 1989SOL    HW2  859   2.997   1.612   1.813
 1990SOL     OW  860   2.684   1.002   3.234
 1990SOL    HW1  861   2.724   1.001   3.142
 1990SOL    HW2  862   2.694   1.094   3.274
 1991SOL     OW  863   2.778   0.910   2.153
 1991SOL    HW1  864   2.841   0.948   2.085
 1991SOL    HW2  865   2.818   0.827   2.192
 1992SOL     OW  866   3.366   1.607   1.906
 1992SOL    HW1  867   3.274   1.644   1.913
 1992SOL    HW2  868   3.404   1.627   1.816
 1993SOL     OW  869   2.234   1.288   3.352
 1993SOL    HW1  870   2.221   1.381   3.318
 1993SOL    HW2  871   2.150   1.236   3.339
 1994SOL     OW  872   3.476   1.292   3.151
 1994SOL    HW1  873   3.536   1.295   3.231
 1994SOL    HW2  874   3.401   1.356   3.164
 1995SOL     OW  875   2.901   1.098   2.558
 1995SOL    HW1  876   2.831   1.051   2.612
 1995SOL    HW2  877   2.960   1.030   2.515
 1997SOL     OW  878   2.452   1.487   2.353
 1997SOL    HW1  879   2.494   1.429   2.283
 1997SOL    HW2  880   2.408   1.566   2.309
 1999SOL     OW  881   2.117   1.348   2.152
 1999SOL    HW1  882   2.021   1.349   2.125
 1999SOL    HW2  883   2.129   1.401   2.236
 2005SOL     OW  884   3.045   1.335   1.981
 2005SOL    HW1  885   2.946   1.324   1.983
 2005SOL    HW2  886   3.079   1.350   2.074
 2007SOL     OW  887   3.355   1.767   2.821
 2007SOL    HW1  888   3.388   1.831   2.752
 2007SOL    HW2  889   3.421   1.761   2.896
 2009SOL     OW  890   3.312   1.220   3.495
 2009SOL    HW1  891   3.303   1.210   3.594
 2009SOL    HW2  892   3.408   1.213   3.469
 2010SOL     OW  893   2.252   1.741   3.422
 2010SOL    HW1  894   2.161   1.782   3.420
 2010SOL    HW2  895   2.245   1.647   3.454
 2016SOL     OW  896   2.721   1.374   1.878
 2016SOL    HW1  897   2.675   1.389   1.966
 2016SOL    HW2  898   2.765   1.459   1.848
 2017SOL     OW  899   2.523   1.790   2.815
 2017SOL    HW1  900   2.477   1.878   2.802
 2017SOL    HW2  901   2.622   1.802   2.808
 2018SOL     OW  902   2.721   0.956   2.723
 2018SOL    HW1  903   2.775   0.887   2.771
 2018SOL    HW2  904   2.689   1.025   2.789
 2019SOL     OW  905   2.945   0.984   1.949
 2019SOL    HW1  906   2.922   1.037   1.867
 2019SOL    HW2  907   3.026   0.928   1.930
 2020SOL     OW  908   3.723   1.569   2.713
 2020SOL    HW1  909   3.652   1.557   2.643
 2020SOL    HW2  910   3.724   1.490   2.773
 2021SOL     OW  911   2.083   1.314   3.706
 2021SOL    HW1  912   2.018   1.241   3.685
 2021SOL    HW2  913   2.087   1.328   3.804
 2022SOL     OW  914   1.941   1.240   2.515
 2022SOL    HW1  915   1.940   1.193   2.603
 2022SOL    HW2  916   2.023   1.212   2.464
 2023SOL     OW  917   2.534   1.391   3.486
 2023SOL    HW1  918   2.456   1.341   3.524
 2023SOL    HW2  919   2.531   1.486   3.517
 2026SOL     OW  920   3.567   1.487   2.966
 2026SOL    HW1  921   3.474   1.462   2.939
 2026SOL    HW2  922   3.593   1.437   3.048
 2028SOL     OW  923   2.674   1.586   2.549
 2028SOL    HW1  924   2.706   1.596   2.455
 2028SOL    HW2  925   2.595   1.524   2.551
 2031SOL     OW  926   2.632   1.330   2.163
 2031SOL    HW1  927   2.586   1.243   2.180
 2031SOL    HW2  928   2.723   1.327   2.204
 2032SOL     OW  929   2.480   1.567   3.146
 2032SOL    HW1  930   2.475   1.649   3.203
 2032SOL    HW2  931   2.569   1.564   3.101
 2036SOL     OW  932   1.901   1.077   2.162
 2036SOL    HW1  933   2.000   1.066   2.153
 2036SOL    HW2  934   1.861   0.991   2.194
 2037SOL     OW  935   2.737   1.646   2.199
 2037SOL    HW1  936   2.660   1.611   2.145
 2037SOL    HW2  937   2.705   1.717   2.261
 2056SOL     OW  938   1.889   1.596   3.841
 2056SOL    HW1  939   1.870   1.500   3.862
 2056SOL    HW2  940   1.856   1.654   3.916
 2081SOL     OW  941   2.973   1.776   3.961
 2081SOL    HW1  942   2.913   1.714   4.011
 2081SOL    HW2  943   3.004   1.732   3.876
 2083SOL     OW  944   2.326   1.743   4.047
 2083SOL    HW1  945   2.359   1.782   4.133
 2083SOL    HW2  946   2.402   1.736   3.982
 2106SOL     OW  947   2.350   1.385   3.898
 2106SOL    HW1  948   2.263   1.370   3.945
 2106SOL    HW2  949   2.333   1.411   3.803
 2157SOL     OW  950   2.534   1.616   3.878
 2157SOL    HW1  951   2.543   1.626   3.779
 2157SOL    HW2  952   2.494   1.527   3.899
 2160SOL     OW  953   3.056   1.612   3.755
 2160SOL    HW1  954   3.062   1.519   3.792
 2160SOL    HW2  955   2.997   1.612   3.675
 2163SOL     OW  956   3.366   1.607   3.768
 2163SOL    HW1  957   3.274   1.644   3.775
 2163SOL    HW2  958   3.404   1.627   3.678
 2180SOL     OW  959   2.721   1.374   3.740
 2180SOL    HW1  960   2.675   1.389   3.828
 2180SOL    HW2  961   2.765   1.459   3.710
 2199SOL     OW  962   2.737   1.646   4.061
 2199SOL    HW1  963   2.660   1.611   4.007
 2199SOL    HW2  964   2.705   1.717   4.123
 2201SOL     OW  965   2.087   2.137   0.996
 2201SOL    HW1  966   2.122   2.120   1.088
 2201SOL    HW2  967   1.999   2.092   0.984
 2203SOL     OW  968   2.431   3.137   1.165
 2203SOL    HW1  969   2.338   3.130   1.128
 2203SOL    HW2  970   2.442   3.226   1.209
 2207SOL     OW  971   2.630   3.006   1.023
 2207SOL    HW1  972   2.552   3.023   1.083
 2207SOL    HW2  973   2.664   3.093   0.987
 2208SOL     OW  974   2.712   2.660   1.823
 2208SOL    HW1  975   2.708   2.736   1.888
 2208SOL    HW2  976   2.734   2.696   1.732
 2210SOL     OW  977   2.548   3.023   1.803
 2210SOL    HW1  978   2.608   3.102   1.817
 2210SOL    HW2  979   2.462   3.054   1.762
 2211SOL     OW  980   2.197   3.297   1.061
 2211SOL    HW1  981   2.119   3.266   1.008
 2211SOL    HW2  982   2.255   3.355   1.004
 2212SOL     OW  983   3.322   3.367   1.339
 2212SOL    HW1  984   3.346   3.461   1.365
 2212SOL    HW2  985   3.306   3.313   1.421
 2213SOL     OW  986   2.300   2.254   1.499
 2213SOL    HW1  987   2.382   2.198   1.508
 2213SOL    HW2  988   2.219   2.196   1.503
 2216SOL     OW  989   2.989   3.203   1.690
 2216SOL    HW1  990   3.036   3.203   1.778
 2216SOL    HW2  991   2.941   3.116   1.679
 2218SOL     OW  992   2.102   2.953   0.886
 2218SOL    HW1  993   2.116   2.869   0.938
 2218SOL    HW2  994   2.047   3.017   0.941
 2219SOL     OW  995   2.482   3.648   1.439
 2219SOL    HW1  996   2.390   3.631   1.474
 2219SOL    HW2  997   2.510   3.740   1.465
 2221SOL     OW  998   3.456   1.976   1.480
 2221SOL    HW1  999   3.438   2.043   1.408
 2221SOL    HW2 1000   3.453   2.022   1.569
 2226SOL     OW 1001   1.975   2.599   1.597
 2226SOL    HW1 1002   2.063   2.586   1.642
 2226SOL    HW2 1003   1.962   2.696   1.575
 2228SOL     OW 1004   3.155   3.090   1.423
 2228SOL    HW1 1005   3.192   3.017   1.365
 2228SOL    HW2 1006   3.207   3.095   1.508
 2230SOL     OW 1007   2.059   2.838   1.264
 2230SOL    HW1 1008   2.148   2.793   1.250
 2230SOL    HW2 1009   1.986   2.773   1.245
 2232SOL     OW 1010   3.049   3.654   1.616
 2232SOL    HW1 1011   3.073   3.714   1.540
 2232SOL    HW2 1012   3.056   3.559   1.586
 2233SOL     OW 1013   2.179   2.113   1.801
 2233SOL    HW1 1014   2.250   2.184   1.807
 2233SOL    HW2 1015   2.091   2.152   1.829
 2237SOL     OW 1016   3.143   2.207   0.944
 2237SOL    HW1 1017   3.057   2.157   0.931
 2237SOL    HW2 1018   3.205   2.153   1.000
 2239SOL     OW 1019   2.669   2.467   1.465
 2239SOL    HW1 1020   2.622   2.464   1.554
 2239SOL    HW2 1021   2.618   2.412   1.399
 2240SOL     OW 1022   3.256   2.331   1.674
 2240SOL    HW1 1023   3.236   2.374   1.762
 2240SOL    HW2 1024   3.334   2.269   1.683
 2241SOL     OW 1025   2.835   2.752   1.572
 2241SOL    HW1 1026   2.881   2.668   1.543
 2241SOL    HW2 1027   2.779   2.786   1.497
 2242SOL     OW 1028   2.853   2.272   1.242
 2242SOL    HW1 1029   2.776   2.306   1.296
 2242SOL    HW2 1030   2.819   2.221   1.163
 2245SOL     OW 1031   1.992   3.683   1.571
 2245SOL    HW1 1032   1.982   3.668   1.670
 2245SOL    HW2 1033   1.906   3.719   1.535
 2247SOL     OW 1034   3.581   2.447   1.831
 2247SOL    HW1 1035   3.555   2.536   1.795
 2247SOL    HW2 1036   3.579   2.379   1.758
 2249SOL     OW 1037   2.412   2.058   0.885
 2249SOL    HW1 1038   2.407   2.053   0.985
 2249SOL    HW2 1039   2.414   2.154   0.856
 2253SOL     OW 1040   3.089   3.412   1.506
 2253SOL    HW1 1041   3.095   3.335   1.570
 2253SOL    HW2 1042   3.037   3.386   1.426
 2256SOL     OW 1043   2.323   3.128   1.727
 2256SOL    HW1 1044   2.273   3.129   1.641
 2256SOL    HW2 1045   2.260   3.110   1.803
 2258SOL     OW 1046   2.064   2.147   1.498
 2258SOL    HW1 1047   1.984   2.207   1.485
 2258SOL    HW2 1048   2.054   2.098   1.584
 2261SOL     OW 1049   2.111   3.647   1.241
 2261SOL    HW1 1050   2.168   3.582   1.291
 2261SOL    HW2 1051   2.095   3.614   1.148
 2264SOL     OW 1052   3.409   2.084   1.729
 2264SOL    HW1 1053   3.404   2.121   1.821
 2264SOL    HW2 1054   3.337   2.015   1.717
 2265SOL     OW 1055   2.643   2.126   1.749
 2265SOL    HW1 1056   2.710   2.065   1.792
 2265SOL    HW2 1057   2.570   2.145   1.814
 2266SOL     OW 1058   2.750   3.376   1.195
 2266SOL    HW1 1059   2.727   3.351   1.101
 2266SOL    HW2 1060   2.811   3.307   1.234
 2267SOL     OW 1061   3.213   2.452   1.433
 2267SOL    HW1 1062   3.241   2.409   1.518
 2267SOL    HW2 1063   3.238   2.548   1.434
 2268SOL     OW 1064   2.665   3.264   0.924
 2268SOL    HW1 1065   2.755   3.278   0.882
 2268SOL    HW2 1066   2.594   3.266   0.853
 2269SOL     OW 1067   2.784   2.365   0.899
 2269SOL    HW1 1068   2.759   2.356   0.803
 2269SOL    HW2 1069   2.832   2.283   0.930
 2273SOL     OW 1070   2.938   2.545   1.464
 2273SOL    HW1 1071   2.858   2.484   1.467
 2273SOL    HW2 1072   3.019   2.492   1.440
 2278SOL     OW 1073   1.940   2.418   1.386
 2278SOL    HW1 1074   2.032   2.417   1.345
 2278SOL    HW2 1075   1.934   2.492   1.453
 2279SOL     OW 1076   2.423   2.084   1.147
 2279SOL    HW1 1077   2.461   2.000   1.184
 2279SOL    HW2 1078   2.335   2.103   1.191
 2283SOL     OW 1079   3.328   2.452   0.992
 2283SOL    HW1 1080   3.298   2.357   0.999
 2283SOL    HW2 1081   3.401   2.468   1.058
 2289SOL     OW 1082   3.616   3.085   1.588
 2289SOL    HW1 1083   3.707   3.046   1.575
 2289SOL    HW2 1084   3.624   3.181   1.612
 2290SOL     OW 1085   2.926   3.209   1.340
 2290SOL    HW1 1086   2.846   3.186   1.395
 2290SOL    HW2 1087   3.009   3.183   1.389
 2291SOL     OW 1088   3.454   3.491   1.625
 2291SOL    HW1 1089   3.481   3.525   1.535
 2291SOL    HW2 1090   3.533   3.453   1.671
 2292SOL     OW 1091   2.973   3.057   1.100
 2292SOL    HW1 1092   2.933   3.101   1.181
 2292SOL    HW2 1093   2.932   3.094   1.017
 2293SOL     OW 1094   3.500   2.961   1.079
 2293SOL    HW1 1095   3.505   3.042   1.138
 2293SOL    HW2 1096   3.414   2.963   1.028
 2294SOL     OW 1097   2.777   1.951   1.402
 2294SOL    HW1 1098   2.802   1.931   1.307
 2294SOL    HW2 1099   2.849   2.007   1.444
 2295SOL     OW 1100   2.842   2.978   1.719
 2295SOL    HW1 1101   2.743   2.984   1.729
 2295SOL    HW2 1102   2.865   2.898   1.663
 2297SOL     OW 1103   2.272   2.675   1.251
 2297SOL    HW1 1104   2.358   2.687   1.301
 2297SOL    HW2 1105   2.230   2.588   1.278
 2298SOL     OW 1106   3.136   2.248   1.262
 2298SOL    HW1 1107   3.157   2.322   1.326
 2298SOL    HW2 1108   3.047   2.265   1.219
 2299SOL     OW 1109   1.926   3.426   1.331
 2299SOL    HW1 1110   1.880   3.508   1.297
 2299SOL    HW2 1111   2.024   3.445   1.340
 2301SOL     OW 1112   2.428   2.399   0.865
 2301SOL    HW1 1113   2.440   2.465   0.791
 2301SOL    HW2 1114   2.474   2.433   0.948
 2303SOL     OW 1115   3.134   3.307   1.142
 2303SOL    HW1 1116   3.181   3.320   1.229
 2303SOL    HW2 1117   3.068   3.233   1.151
 2305SOL     OW 1118   2.216   3.372   1.329
 2305SOL    HW1 1119   2.195   3.328   1.242
 2305SOL    HW2 1120   2.313   3.398   1.332
 2306SOL     OW 1121   2.264   2.613   1.598
 2306SOL    HW1 1122   2.332   2.668   1.551
 2306SOL    HW2 1123   2.304   2.525   1.625
 2307SOL     OW 1124   3.449   2.641   1.670
 2307SOL    HW1 1125   3.357   2.679   1.665
 2307SOL    HW2 1126   3.509   2.688   1.605
 2308SOL     OW 1127   2.875   1.967   1.770
 2308SOL    HW1 1128   2.881   2.052   1.718
 2308SOL    HW2 1129   2.907   1.891   1.713
 2309SOL     OW 1130   2.366   1.912   1.740
 2309SOL    HW1 1131   2.324   1.855   1.670
 2309SOL    HW2 1132   2.300   1.981   1.772
 2310SOL     OW 1133   2.435   2.732   1.029
 2310SOL    HW1 1134   2.479   2.821   1.020
 2310SOL    HW2 1135   2.372   2.732   1.106
 2311SOL     OW 1136   3.222   2.724   1.045
 2311SOL    HW1 1137   3.147   2.724   0.979
 2311SOL    HW2 1138   3.259   2.632   1.054
 2313SOL     OW 1139   2.169   2.075   1.231
 2313SOL    HW1 1140   2.146   2.112   1.321
 2313SOL    HW2 1141   2.139   1.980   1.225
 2314SOL     OW 1142   1.899   3.172   1.282
 2314SOL    HW1 1143   1.952   3.123   1.350
 2314SOL    HW2 1144   1.921   3.270   1.287
 2315SOL     OW 1145   2.594   2.496   1.064
 2315SOL    HW1 1146   2.653   2.470   0.988
 2315SOL    HW2 1147   2.566   2.592   1.053
 2316SOL     OW 1148   3.590   2.797   1.854
 2316SOL    HW1 1149   3.544   2.790   1.765
 2316SOL    HW2 1150   3.528   2.841   1.920
 2319SOL     OW 1151   2.885   2.628   0.966
 2319SOL    HW1 1152   2.900   2.649   1.062
 2319SOL    HW2 1153   2.855   2.533   0.957
 2320SOL     OW 1154   2.842   3.435   1.700
 2320SOL    HW1 1155   2.822   3.479   1.612
 2320SOL    HW2 1156   2.881   3.344   1.684
 2321SOL     OW 1157   3.721   3.380   1.605
 2321SOL    HW1 1158   3.735   3.407   1.510
 2321SOL    HW2 1159   3.804   3.402   1.658
 2322SOL     OW 1160   2.212   2.760   1.804
 2322SOL    HW1 1161   2.288   2.804   1.852
 2322SOL    HW2 1162   2.247   2.713   1.722
 2326SOL     OW 1163   2.181   2.672   0.949
 2326SOL    HW1 1164   2.274   2.708   0.954
 2326SOL    HW2 1165   2.175   2.587   1.001
 2327SOL     OW 1166   2.201   2.371   1.006
 2327SOL    HW1 1167   2.149   2.288   0.989
 2327SOL    HW2 1168   2.278   2.376   0.942
 2328SOL     OW 1169   3.000   2.242   1.678
 2328SOL    HW1 1170   2.955   2.305   1.742
 2328SOL    HW2 1171   3.093   2.273   1.661
 2329SOL     OW 1172   3.022   2.069   1.477
 2329SOL    HW1 1173   3.022   2.133   1.554
 2329SOL    HW2 1174   3.050   2.117   1.394
 2332SOL     OW 1175   2.864   2.658   1.238
 2332SOL    HW1 1176   2.905   2.626   1.324
 2332SOL    HW2 1177   2.768   2.631   1.235
 2333SOL     OW 1178   1.902   2.406   1.114
 2333SOL    HW1 1179   1.987   2.373   1.073
 2333SOL    HW2 1180   1.915   2.421   1.212
 2334SOL     OW 1181   2.051   2.382   1.722
 2334SOL    HW1 1182   2.110   2.342   1.652
 2334SOL    HW2 1183   1.993   2.453   1.681
 2335SOL     OW 1184   3.231   2.812   1.660
 2335SOL    HW1 1185   3.270   2.901   1.680
 2335SOL    HW2 1186   3.241   2.792   1.563
 2337SOL     OW 1187   3.519   2.466   1.206
 2337SOL    HW1 1188   3.481   2.397   1.268
 2337SOL    HW2 1189   3.601   2.430   1.162
 2338SOL     OW 1190   2.114   3.426   1.744
 2338SOL    HW1 1191   2.084   3.483   1.820
 2338SOL    HW2 1192   2.107   3.329   1.770
 2339SOL     OW 1193   2.533   2.326   1.269
 2339SOL    HW1 1194   2.499   2.237   1.239
 2339SOL    HW2 1195   2.559   2.380   1.189
 2340SOL     OW 1196   2.792   3.540   1.465
 2340SOL    HW1 1197   2.768   3.522   1.370
 2340SOL    HW2 1198   2.822   3.634   1.475
 2342SOL     OW 1199   2.021   2.999   1.466
 2342SOL    HW1 1200   2.043   2.938   1.542
 2342SOL    HW2 1201   2.031   2.950   1.380
 2343SOL     OW 1202   3.209   2.921   1.234
 2343SOL    HW1 1203   3.233   2.858   1.160
 2343SOL    HW2 1204   3.119   2.961   1.216
 2347SOL     OW 1205   1.945   3.120   1.022
 2347SOL    HW1 1206   1.940   3.119   1.122
 2347SOL    HW2 1207   1.862   3.079   0.984
 2348SOL     OW 1208   2.550   3.524   1.716
 2348SOL    HW1 1209   2.494   3.605   1.725
 2348SOL    HW2 1210   2.602   3.528   1.630
 2352SOL     OW 1211   1.992   3.656   1.851
 2352SOL    HW1 1212   1.951   3.582   1.904
 2352SOL    HW2 1213   2.056   3.707   1.909
 2354SOL     OW 1214   2.692   3.135   1.422
 2354SOL    HW1 1215   2.687   3.168   1.517
 2354SOL    HW2 1216   2.606   3.154   1.376
 2360SOL     OW 1217   2.684   2.864   1.372
 2360SOL    HW1 1218   2.724   2.863   1.280
 2360SOL    HW2 1219   2.694   2.956   1.412
 2363SOL     OW 1220   2.234   3.150   1.490
 2363SOL    HW1 1221   2.221   3.243   1.456
 2363SOL    HW2 1222   2.150   3.098   1.477
 2364SOL     OW 1223   3.476   3.154   1.289
 2364SOL    HW1 1224   3.536   3.157   1.369
 2364SOL    HW2 1225   3.401   3.218   1.302
 2366SOL     OW 1226   2.876   2.098   0.971
 2366SOL    HW1 1227   2.868   2.062   0.878
 2366SOL    HW2 1228   2.874   2.022   1.036
 2368SOL     OW 1229   3.571   2.247   1.381
 2368SOL    HW1 1230   3.644   2.316   1.385
 2368SOL    HW2 1231   3.599   2.172   1.322
 2370SOL     OW 1232   1.967   2.875   1.726
 2370SOL    HW1 1233   1.890   2.842   1.780
 2370SOL    HW2 1234   2.052   2.845   1.768
 2371SOL     OW 1235   2.534   2.065   1.489
 2371SOL    HW1 1236   2.624   2.049   1.449
 2371SOL    HW2 1237   2.542   2.070   1.588
 2373SOL     OW 1238   3.302   2.718   1.398
 2373SOL    HW1 1239   3.245   2.770   1.335
 2373SOL    HW2 1240   3.398   2.730   1.374
 2376SOL     OW 1241   2.475   2.704   1.431
 2376SOL    HW1 1242   2.531   2.785   1.414
 2376SOL    HW2 1243   2.534   2.624   1.434
 2378SOL     OW 1244   2.578   2.427   1.708
 2378SOL    HW1 1245   2.597   2.492   1.782
 2378SOL    HW2 1246   2.638   2.347   1.717
 2379SOL     OW 1247   3.312   3.082   1.633
 2379SOL    HW1 1248   3.303   3.072   1.732
 2379SOL    HW2 1249   3.408   3.075   1.607
 2380SOL     OW 1250   2.252   3.603   1.560
 2380SOL    HW1 1251   2.161   3.644   1.558
 2380SOL    HW2 1252   2.245   3.509   1.592
 2381SOL     OW 1253   3.536   2.745   1.254
 2381SOL    HW1 1254   3.509   2.656   1.217
 2381SOL    HW2 1255   3.537   2.813   1.181
 2384SOL     OW 1256   3.639   2.204   1.642
 2384SOL    HW1 1257   3.622   2.235   1.548
 2384SOL    HW2 1258   3.555   2.167   1.680
 2385SOL     OW 1259   3.592   2.796   1.517
 2385SOL    HW1 1260   3.630   2.887   1.532
 2385SOL    HW2 1261   3.584   2.779   1.418
 2388SOL     OW 1262   2.721   2.818   0.861
 2388SOL    HW1 1263   2.775   2.749   0.909
 2388SOL    HW2 1264   2.689   2.887   0.927
 2391SOL     OW 1265   2.083   3.176   1.844
 2391SOL    HW1 1266   2.018   3.103   1.823
 2391SOL    HW2 1267   2.087   3.190   1.942
 2393SOL     OW 1268   2.534   3.253   1.624
 2393SOL    HW1 1269   2.456   3.203   1.662
 2393SOL    HW2 1270   2.531   3.348   1.655
 2397SOL     OW 1271   2.179   2.409   1.280
 2397SOL    HW1 1272   2.217   2.350   1.352
 2397SOL    HW2 1273   2.219   2.383   1.192
 2399SOL     OW 1274   3.286   2.076   1.112
 2399SOL    HW1 1275   3.338   2.011   1.167
 2399SOL    HW2 1276   3.237   2.139   1.173
 2400SOL     OW 1277   2.863   1.896   1.154
 2400SOL    HW1 1278   2.800   1.824   1.123
 2400SOL    HW2 1279   2.956   1.860   1.154
 2402SOL     OW 1280   2.480   3.429   1.284
 2402SOL    HW1 1281   2.475   3.511   1.341
 2402SOL    HW2 1282   2.569   3.426   1.239
 2408SOL     OW 1283   2.092   2.490   1.975
 2408SOL    HW1 1284   1.999   2.488   2.012
 2408SOL    HW2 1285   2.093   2.451   1.883
 2409SOL     OW 1286   2.087   2.137   2.858
 2409SOL    HW1 1287   2.122   2.120   2.950
 2409SOL    HW2 1288   1.999   2.092   2.846
 2410SOL     OW 1289   1.881   2.230   2.509
 2410SOL    HW1 1290   1.799   2.273   2.548
 2410SOL    HW2 1291   1.853   2.157   2.446
 2411SOL     OW 1292   2.431   3.137   3.027
 2411SOL    HW1 1293   2.338   3.130   2.990
 2411SOL    HW2 1294   2.442   3.226   3.071
 2412SOL     OW 1295   3.417   3.373   2.565
 2412SOL    HW1 1296   3.360   3.357   2.646
 2412SOL    HW2 1297   3.358   3.383   2.485
 2413SOL     OW 1298   2.997   2.565   2.579
 2413SOL    HW1 1299   3.054   2.643   2.554
 2413SOL    HW2 1300   2.937   2.591   2.655
 2414SOL     OW 1301   3.617   2.469   2.093
 2414SOL    HW1 1302   3.605   2.456   1.994
 2414SOL    HW2 1303   3.587   2.388   2.142
 2415SOL     OW 1304   2.712   2.660   3.685
 2415SOL    HW1 1305   2.708   2.736   3.750
 2415SOL    HW2 1306   2.734   2.696   3.594
 2416SOL     OW 1307   2.548   3.023   3.665
 2416SOL    HW1 1308   2.608   3.102   3.679
 2416SOL    HW2 1309   2.462   3.054   3.624
 2417SOL     OW 1310   2.197   3.297   2.923
 2417SOL    HW1 1311   2.119   3.266   2.870
 2417SOL    HW2 1312   2.255   3.355   2.866
 2418SOL     OW 1313   3.322   3.367   3.201
 2418SOL    HW1 1314   3.346   3.461   3.227
 2418SOL    HW2 1315   3.306   3.313   3.283
 2419SOL     OW 1316   2.300   2.254   3.361
 2419SOL    HW1 1317   2.382   2.198   3.370
 2419SOL    HW2 1318   2.219   2.196   3.365
 2420SOL     OW 1319   3.465   2.309   2.599
 2420SOL    HW1 1320   3.391   2.355   2.549
 2420SOL    HW2 1321   3.516   2.377   2.652
 2421SOL     OW 1322   2.093   3.575   2.345
 2421SOL    HW1 1323   2.127   3.652   2.399
 2421SOL    HW2 1324   2.137   3.575   2.255
 2422SOL     OW 1325   2.989   3.203   3.552
 2422SOL    HW1 1326   3.036   3.203   3.640
 2422SOL    HW2 1327   2.941   3.116   3.541
 2423SOL     OW 1328   2.092   3.296   2.400
 2423SOL    HW1 1329   2.066   3.392   2.400
 2423SOL    HW2 1330   2.021   3.242   2.445
 2424SOL     OW 1331   2.102   2.953   2.748
 2424SOL    HW1 1332   2.116   2.869   2.800
 2424SOL    HW2 1333   2.047   3.017   2.803
 2425SOL     OW 1334   2.482   3.648   3.301
 2425SOL    HW1 1335   2.390   3.631   3.336
 2425SOL    HW2 1336   2.510   3.740   3.327
 2426SOL     OW 1337   3.456   1.976   3.342
 2426SOL    HW1 1338   3.438   2.043   3.270
 2426SOL    HW2 1339   3.453   2.022   3.431
 2427SOL     OW 1340   1.984   2.505   2.425
 2427SOL    HW1 1341   1.939   2.417   2.442
 2427SOL    HW2 1342   1.983   2.559   2.509
 2428SOL     OW 1343   3.704   3.629   2.221
 2428SOL    HW1 1344   3.758   3.600   2.301
 2428SOL    HW2 1345   3.734   3.719   2.192
 2429SOL     OW 1346   1.889   3.458   1.979
 2429SOL    HW1 1347   1.870   3.362   2.000
 2429SOL    HW2 1348   1.856   3.516   2.054
 2430SOL     OW 1349   3.551   2.784   2.474
 2430SOL    HW1 1350   3.646   2.755   2.482
 2430SOL    HW2 1351   3.543   2.849   2.399
 2431SOL     OW 1352   3.503   2.970   2.294
 2431SOL    HW1 1353   3.589   2.972   2.242
 2431SOL    HW2 1354   3.517   3.017   2.382
 2432SOL     OW 1355   1.975   2.599   3.459
 2432SOL    HW1 1356   2.063   2.586   3.504
 2432SOL    HW2 1357   1.962   2.696   3.437
 2433SOL     OW 1358   2.475   3.227   2.588
 2433SOL    HW1 1359   2.426   3.140   2.597
 2433SOL    HW2 1360   2.452   3.270   2.501
 2434SOL     OW 1361   3.155   3.090   3.285
 2434SOL    HW1 1362   3.192   3.017   3.227
 2434SOL    HW2 1363   3.207   3.095   3.370
 2435SOL     OW 1364   2.671   1.866   2.364
 2435SOL    HW1 1365   2.711   1.957   2.355
 2435SOL    HW2 1366   2.571   1.874   2.370
 2436SOL     OW 1367   2.059   2.838   3.126
 2436SOL    HW1 1368   2.148   2.793   3.112
 2436SOL    HW2 1369   1.986   2.773   3.107
 2437SOL     OW 1370   3.387   2.861   2.052
 2437SOL    HW1 1371   3.324   2.785   2.065
 2437SOL    HW2 1372   3.435   2.879   2.138
 2438SOL     OW 1373   3.049   3.654   3.478
 2438SOL    HW1 1374   3.073   3.714   3.402
 2438SOL    HW2 1375   3.056   3.559   3.448
 2439SOL     OW 1376   2.179   2.113   3.663
 2439SOL    HW1 1377   2.250   2.184   3.669
 2439SOL    HW2 1378   2.091   2.152   3.691
 2440SOL     OW 1379   3.328   3.279   2.815
 2440SOL    HW1 1380   3.269   3.285   2.895
 2440SOL    HW2 1381   3.313   3.191   2.769
 2441SOL     OW 1382   3.529   3.576   2.434
 2441SOL    HW1 1383   3.488   3.553   2.346
 2441SOL    HW2 1384   3.511   3.502   2.499
 2442SOL     OW 1385   3.143   2.207   2.806
 2442SOL    HW1 1386   3.057   2.157   2.793
 2442SOL    HW2 1387   3.205   2.153   2.862
 2443SOL     OW 1388   3.438   3.524   2.169
 2443SOL    HW1 1389   3.527   3.570   2.172
 2443SOL    HW2 1390   3.417   3.500   2.074
 2444SOL     OW 1391   2.669   2.467   3.327
 2444SOL    HW1 1392   2.622   2.464   3.416
 2444SOL    HW2 1393   2.618   2.412   3.261
 2445SOL     OW 1394   3.256   2.331   3.536
 2445SOL    HW1 1395   3.236   2.374   3.624
 2445SOL    HW2 1396   3.334   2.269   3.545
 2446SOL     OW 1397   2.835   2.752   3.434
 2446SOL    HW1 1398   2.881   2.668   3.405
 2446SOL    HW2 1399   2.779   2.786   3.359
 2447SOL     OW 1400   2.853   2.272   3.104
 2447SOL    HW1 1401   2.776   2.306   3.158
 2447SOL    HW2 1402   2.819   2.221   3.025
 2448SOL     OW 1403   2.903   2.563   2.291
 2448SOL    HW1 1404   2.929   2.559   2.387
 2448SOL    HW2 1405   2.818   2.512   2.277
 2449SOL     OW 1406   1.938   2.673   2.651
 2449SOL    HW1 1407   2.037   2.661   2.660
 2449SOL    HW2 1408   1.914   2.768   2.672
 2450SOL     OW 1409   1.992   3.683   3.433
 2450SOL    HW1 1410   1.982   3.668   3.532
 2450SOL    HW2 1411   1.906   3.719   3.397
 2451SOL     OW 1412   2.727   2.210   2.057
 2451SOL    HW1 1413   2.786   2.273   2.008
 2451SOL    HW2 1414   2.746   2.116   2.028
 2452SOL     OW 1415   3.581   2.447   3.693
 2452SOL    HW1 1416   3.555   2.536   3.657
 2452SOL    HW2 1417   3.579   2.379   3.620
 2453SOL     OW 1418   3.224   3.006   2.407
 2453SOL    HW1 1419   3.307   2.977   2.359
 2453SOL    HW2 1420   3.175   3.073   2.351
 2454SOL     OW 1421   2.412   2.058   2.747
 2454SOL    HW1 1422   2.407   2.053   2.847
 2454SOL    HW2 1423   2.414   2.154   2.718
 2455SOL     OW 1424   2.870   3.318   2.339
 2455SOL    HW1 1425   2.824   3.390   2.287
 2455SOL    HW2 1426   2.866   3.338   2.437
 2456SOL     OW 1427   2.213   3.663   2.715
 2456SOL    HW1 1428   2.263   3.577   2.721
 2456SOL    HW2 1429   2.278   3.740   2.712
 2457SOL     OW 1430   3.657   2.928   2.735
 2457SOL    HW1 1431   3.595   2.913   2.659
 2457SOL    HW2 1432   3.605   2.939   2.820
 2458SOL     OW 1433   3.089   3.412   3.368
 2458SOL    HW1 1434   3.095   3.335   3.432
 2458SOL    HW2 1435   3.037   3.386   3.288
 2459SOL     OW 1436   2.183   2.805   2.104
 2459SOL    HW1 1437   2.265   2.844   2.062
 2459SOL    HW2 1438   2.156   2.723   2.055
 2460SOL     OW 1439   3.320   2.597   2.590
 2460SOL    HW1 1440   3.315   2.532   2.665
 2460SOL    HW2 1441   3.400   2.656   2.603
 2461SOL     OW 1442   2.323   3.128   3.589
 2461SOL    HW1 1443   2.273   3.129   3.503
 2461SOL    HW2 1444   2.260   3.110   3.665
 2462SOL     OW 1445   2.973   3.638   2.099
 2462SOL    HW1 1446   2.913   3.576   2.149
 2462SOL    HW2 1447   3.004   3.594   2.014
 2463SOL     OW 1448   2.064   2.147   3.360
 2463SOL    HW1 1449   1.984   2.207   3.347
 2463SOL    HW2 1450   2.054   2.098   3.446
 2464SOL     OW 1451   3.494   3.239   1.943
 2464SOL    HW1 1452   3.462   3.333   1.933
 2464SOL    HW2 1453   3.418   3.176   1.931
 2465SOL     OW 1454   2.326   3.605   2.185
 2465SOL    HW1 1455   2.359   3.644   2.271
 2465SOL    HW2 1456   2.402   3.598   2.120
 2466SOL     OW 1457   3.262   1.969   2.288
 2466SOL    HW1 1458   3.238   1.932   2.198
 2466SOL    HW2 1459   3.361   1.985   2.292
 2467SOL     OW 1460   2.111   3.647   3.103
 2467SOL    HW1 1461   2.168   3.582   3.153
 2467SOL    HW2 1462   2.095   3.614   3.010
 2468SOL     OW 1463   2.802   3.560   2.766
 2468SOL    HW1 1464   2.882   3.503   2.787
 2468SOL    HW2 1465   2.753   3.520   2.689
 2469SOL     OW 1466   3.409   2.084   3.591
 2469SOL    HW1 1467   3.404   2.121   3.683
 2469SOL    HW2 1468   3.337   2.015   3.579
 2470SOL     OW 1469   2.476   1.984   1.979
 2470SOL    HW1 1470   2.574   1.962   1.986
 2470SOL    HW2 1471   2.445   1.967   1.886
 2471SOL     OW 1472   2.643   2.126   3.611
 2471SOL    HW1 1473   2.710   2.065   3.654
 2471SOL    HW2 1474   2.570   2.145   3.676
 2472SOL     OW 1475   2.750   3.376   3.057
 2472SOL    HW1 1476   2.727   3.351   2.963
 2472SOL    HW2 1477   2.811   3.307   3.096
 2473SOL     OW 1478   3.213   2.452   3.295
 2473SOL    HW1 1479   3.241   2.409   3.380
 2473SOL    HW2 1480   3.238   2.548   3.296
 2474SOL     OW 1481   2.665   3.264   2.786
 2474SOL    HW1 1482   2.755   3.278   2.744
 2474SOL    HW2 1483   2.594   3.266   2.715
 2475SOL     OW 1484   2.401   1.926   2.374
 2475SOL    HW1 1485   2.320   1.927   2.432
 2475SOL    HW2 1486   2.404   2.009   2.319
 2476SOL     OW 1487   3.296   3.050   1.903
 2476SOL    HW1 1488   3.328   2.974   1.960
 2476SOL    HW2 1489   3.204   3.077   1.933
 2477SOL     OW 1490   2.159   1.897   2.033
 2477SOL    HW1 1491   2.208   1.981   2.012
 2477SOL    HW2 1492   2.221   1.832   2.078
 2478SOL     OW 1493   2.797   2.098   2.342
 2478SOL    HW1 1494   2.749   2.139   2.264
 2478SOL    HW2 1495   2.896   2.096   2.323
 2479SOL     OW 1496   2.938   2.545   3.326
 2479SOL    HW1 1497   2.858   2.484   3.329
 2479SOL    HW2 1498   3.019   2.492   3.302
 2480SOL     OW 1499   3.089   3.432   2.655
 2480SOL    HW1 1500   3.110   3.506   2.590
 2480SOL    HW2 1501   3.157   3.432   2.728
 2481SOL     OW 1502   2.321   3.014   2.603
 2481SOL    HW1 1503   2.250   2.987   2.668
 2481SOL    HW2 1504   2.295   2.986   2.510
 2482SOL     OW 1505   3.133   3.659   2.453
 2482SOL    HW1 1506   3.177   3.723   2.389
 2482SOL    HW2 1507   3.083   3.711   2.523
 2483SOL     OW 1508   2.894   2.411   1.878
 2483SOL    HW1 1509   2.853   2.493   1.839
 2483SOL    HW2 1510   2.958   2.437   1.951
 2484SOL     OW 1511   1.940   2.418   3.248
 2484SOL    HW1 1512   2.032   2.417   3.207
 2484SOL    HW2 1513   1.934   2.492   3.315
 2485SOL     OW 1514   2.423   2.084   3.009
 2485SOL    HW1 1515   2.461   2.000   3.046
 2485SOL    HW2 1516   2.335   2.103   3.053
 2486SOL     OW 1517   2.879   1.901   2.615
 2486SOL    HW1 1518   2.807   1.906   2.546
 2486SOL    HW2 1519   2.855   1.832   2.684
 2487SOL     OW 1520   3.291   3.035   2.729
 2487SOL    HW1 1521   3.236   2.951   2.722
 2487SOL    HW2 1522   3.317   3.064   2.637
 2488SOL     OW 1523   3.328   2.452   2.854
 2488SOL    HW1 1524   3.298   2.357   2.861
 2488SOL    HW2 1525   3.401   2.468   2.920
 2489SOL     OW 1526   3.719   2.695   2.239
 2489SOL    HW1 1527   3.761   2.631   2.303
 2489SOL    HW2 1528   3.681   2.644   2.161
 2490SOL     OW 1529   2.350   3.247   2.036
 2490SOL    HW1 1530   2.263   3.232   2.083
 2490SOL    HW2 1531   2.333   3.273   1.941
 2491SOL     OW 1532   3.526   3.142   2.519
 2491SOL    HW1 1533   3.625   3.150   2.533
 2491SOL    HW2 1534   3.481   3.226   2.550
 2492SOL     OW 1535   3.252   2.437   1.940
 2492SOL    HW1 1536   3.198   2.416   2.021
 2492SOL    HW2 1537   3.343   2.396   1.949
 2493SOL     OW 1538   2.389   2.118   2.190
 2493SOL    HW1 1539   2.416   2.059   2.115
 2493SOL    HW2 1540   2.389   2.213   2.159
 2494SOL     OW 1541   3.616   3.085   3.450
 2494SOL    HW1 1542   3.707   3.046   3.437
 2494SOL    HW2 1543   3.624   3.181   3.474
 2495SOL     OW 1544   2.926   3.209   3.202
 2495SOL    HW1 1545   2.846   3.186   3.257
 2495SOL    HW2 1546   3.009   3.183   3.251
 2496SOL     OW 1547   3.454   3.491   3.487
 2496SOL    HW1 1548   3.481   3.525   3.397
 2496SOL    HW2 1549   3.533   3.453   3.533
 2497SOL     OW 1550   2.973   3.057   2.962
 2497SOL    HW1 1551   2.933   3.101   3.043
 2497SOL    HW2 1552   2.932   3.094   2.879
 2498SOL     OW 1553   3.500   2.961   2.941
 2498SOL    HW1 1554   3.505   3.042   3.000
 2498SOL    HW2 1555   3.414   2.963   2.890
 2499SOL     OW 1556   2.777   1.951   3.264
 2499SOL    HW1 1557   2.802   1.931   3.169
 2499SOL    HW2 1558   2.849   2.007   3.306
 2500SOL     OW 1559   2.842   2.978   3.581
 2500SOL    HW1 1560   2.743   2.984   3.591
 2500SOL    HW2 1561   2.865   2.898   3.525
 2501SOL     OW 1562   2.567   2.912   2.230
 2501SOL    HW1 1563   2.553   2.919   2.329
 2501SOL    HW2 1564   2.651   2.861   2.212
 2502SOL     OW 1565   2.272   2.675   3.113
 2502SOL    HW1 1566   2.358   2.687   3.163
 2502SOL    HW2 1567   2.230   2.588   3.140
 2503SOL     OW 1568   3.136   2.248   3.124
 2503SOL    HW1 1569   3.157   2.322   3.188
 2503SOL    HW2 1570   3.047   2.265   3.081
 2504SOL     OW 1571   1.926   3.426   3.193
 2504SOL    HW1 1572   1.880   3.508   3.159
 2504SOL    HW2 1573   2.024   3.445   3.202
 2505SOL     OW 1574   2.229   2.962   2.363
 2505SOL    HW1 1575   2.222   3.045   2.307
 2505SOL    HW2 1576   2.233   2.882   2.303
 2506SOL     OW 1577   3.114   3.210   2.250
 2506SOL    HW1 1578   3.164   3.287   2.290
 2506SOL    HW2 1579   3.019   3.212   2.282
 2507SOL     OW 1580   3.134   3.307   3.004
 2507SOL    HW1 1581   3.181   3.320   3.091
 2507SOL    HW2 1582   3.068   3.233   3.013
 2508SOL     OW 1583   3.444   2.501   2.334
 2508SOL    HW1 1584   3.413   2.562   2.407
 2508SOL    HW2 1585   3.494   2.553   2.265
 2509SOL     OW 1586   2.216   3.372   3.191
 2509SOL    HW1 1587   2.195   3.328   3.104
 2509SOL    HW2 1588   2.313   3.398   3.194
 2510SOL     OW 1589   2.264   2.613   3.460
 2510SOL    HW1 1590   2.332   2.668   3.413
 2510SOL    HW2 1591   2.304   2.525   3.487
 2511SOL     OW 1592   3.449   2.641   3.532
 2511SOL    HW1 1593   3.357   2.679   3.527
 2511SOL    HW2 1594   3.509   2.688   3.467
 2512SOL     OW 1595   2.875   1.967   3.632
 2512SOL    HW1 1596   2.881   2.052   3.580
 2512SOL    HW2 1597   2.907   1.891   3.575
 2513SOL     OW 1598   2.366   1.912   3.602
 2513SOL    HW1 1599   2.324   1.855   3.532
 2513SOL    HW2 1600   2.300   1.981   3.634
 2514SOL     OW 1601   2.435   2.732   2.891
 2514SOL    HW1 1602   2.479   2.821   2.882
 2514SOL    HW2 1603   2.372   2.732   2.968
 2515SOL     OW 1604   3.222   2.724   2.907
 2515SOL    HW1 1605   3.147   2.724   2.841
 2515SOL    HW2 1606   3.259   2.632   2.916
 2516SOL     OW 1607   3.071   2.387   2.137
 2516SOL    HW1 1608   3.084   2.303   2.191
 2516SOL    HW2 1609   3.042   2.461   2.197
 2517SOL     OW 1610   2.169   2.075   3.093
 2517SOL    HW1 1611   2.146   2.112   3.183
 2517SOL    HW2 1612   2.139   1.980   3.087
 2518SOL     OW 1613   1.899   3.172   3.144
 2518SOL    HW1 1614   1.952   3.123   3.212
 2518SOL    HW2 1615   1.921   3.270   3.149
 2519SOL     OW 1616   2.594   2.496   2.926
 2519SOL    HW1 1617   2.653   2.470   2.850
 2519SOL    HW2 1618   2.566   2.592   2.915
 2520SOL     OW 1619   3.590   2.797   3.716
 2520SOL    HW1 1620   3.544   2.790   3.627
 2520SOL    HW2 1621   3.528   2.841   3.782
 2521SOL     OW 1622   2.169   1.925   2.480
 2521SOL    HW1 1623   2.158   2.019   2.513
 2521SOL    HW2 1624   2.164   1.862   2.557
 2522SOL     OW 1625   3.484   2.229   2.236
 2522SOL    HW1 1626   3.486   2.153   2.300
 2522SOL    HW2 1627   3.436   2.306   2.276
 2523SOL     OW 1628   2.842   3.435   3.562
 2523SOL    HW1 1629   2.822   3.479   3.474
 2523SOL    HW2 1630   2.881   3.344   3.546
 2524SOL     OW 1631   3.721   3.380   3.467
 2524SOL    HW1 1632   3.735   3.407   3.372
 2524SOL    HW2 1633   3.804   3.402   3.520
 2525SOL     OW 1634   2.212   2.760   3.666
 2525SOL    HW1 1635   2.288   2.804   3.714
 2525SOL    HW2 1636   2.247   2.713   3.584
 2526SOL     OW 1637   3.402   2.136   1.987
 2526SOL    HW1 1638   3.341   2.061   2.010
 2526SOL    HW2 1639   3.424   2.188   2.070
 2527SOL     OW 1640   3.165   2.700   1.904
 2527SOL    HW1 1641   3.199   2.607   1.919
 2527SOL    HW2 1642   3.183   2.727   1.809
 2528SOL     OW 1643   2.930   3.195   2.711
 2528SOL    HW1 1644   2.937   3.111   2.656
 2528SOL    HW2 1645   2.992   3.264   2.675
 2529SOL     OW 1646   2.181   2.672   2.811
 2529SOL    HW1 1647   2.274   2.708   2.816
 2529SOL    HW2 1648   2.175   2.587   2.863
 2530SOL     OW 1649   3.000   2.242   3.540
 2530SOL    HW1 1650   2.955   2.305   3.604
 2530SOL    HW2 1651   3.093   2.273   3.523
 2531SOL     OW 1652   3.022   2.069   3.339
 2531SOL    HW1 1653   3.022   2.133   3.416
 2531SOL    HW2 1654   3.050   2.117   3.256
 2532SOL     OW 1655   1.870   3.188   2.062
 2532SOL    HW1 1656   1.777   3.209   2.031
 2532SOL    HW2 1657   1.880   3.089   2.075
 2533SOL     OW 1658   1.950   3.663   2.789
 2533SOL    HW1 1659   1.908   3.577   2.762
 2533SOL    HW2 1660   2.044   3.666   2.755
 2534SOL     OW 1661   2.366   3.430   2.772
 2534SOL    HW1 1662   2.432   3.504   2.781
 2534SOL    HW2 1663   2.410   3.351   2.730
 2535SOL     OW 1664   1.902   2.406   2.976
 2535SOL    HW1 1665   1.987   2.373   2.935
 2535SOL    HW2 1666   1.915   2.421   3.074
 2536SOL     OW 1667   2.051   2.382   3.584
 2536SOL    HW1 1668   2.110   2.342   3.514
 2536SOL    HW2 1669   1.993   2.453   3.543
 2537SOL     OW 1670   3.231   2.812   3.522
 2537SOL    HW1 1671   3.270   2.901   3.542
 2537SOL    HW2 1672   3.241   2.792   3.425
 2538SOL     OW 1673   3.519   2.466   3.068
 2538SOL    HW1 1674   3.481   2.397   3.130
 2538SOL    HW2 1675   3.601   2.430   3.024
 2539SOL     OW 1676   2.114   3.426   3.606
 2539SOL    HW1 1677   2.084   3.483   3.682
 2539SOL    HW2 1678   2.107   3.329   3.632
 2540SOL     OW 1679   2.533   2.326   3.131
 2540SOL    HW1 1680   2.499   2.237   3.101
 2540SOL    HW2 1681   2.559   2.380   3.051
 2541SOL     OW 1682   2.792   3.540   3.327
 2541SOL    HW1 1683   2.768   3.522   3.232
 2541SOL    HW2 1684   2.822   3.634   3.337
 2542SOL     OW 1685   2.021   2.999   3.328
 2542SOL    HW1 1686   2.043   2.938   3.404
 2542SOL    HW2 1687   2.031   2.950   3.242
 2543SOL     OW 1688   3.209   2.921   3.096
 2543SOL    HW1 1689   3.233   2.858   3.022
 2543SOL    HW2 1690   3.119   2.961   3.078
 2544SOL     OW 1691   3.164   2.717   2.171
 2544SOL    HW1 1692   3.078   2.686   2.213
 2544SOL    HW2 1693   3.160   2.703   2.072
 2545SOL     OW 1694   3.621   3.609   3.016
 2545SOL    HW1 1695   3.682   3.639   2.943
 2545SOL    HW2 1696   3.583   3.520   2.994
 2546SOL     OW 1697   3.114   3.593   2.990
 2546SOL    HW1 1698   3.198   3.598   2.936
 2546SOL    HW2 1699   3.091   3.497   3.008
 2547SOL     OW 1700   1.945   3.120   2.884
 2547SOL    HW1 1701   1.940   3.119   2.984
 2547SOL    HW2 1702   1.862   3.079   2.846
 2548SOL     OW 1703   2.550   3.524   3.578
 2548SOL    HW1 1704   2.494   3.605   3.587
 2548SOL    HW2 1705   2.602   3.528   3.492
 2549SOL     OW 1706   3.588   1.997   2.385
 2549SOL    HW1 1707   3.661   1.980   2.318
 2549SOL    HW2 1708   3.557   1.910   2.423
 2550SOL     OW 1709   3.250   3.435   2.339
 2550SOL    HW1 1710   3.317   3.447   2.265
 2550SOL    HW2 1711   3.210   3.524   2.362
 2551SOL     OW 1712   1.992   3.656   3.713
 2551SOL    HW1 1713   1.951   3.582   3.766
 2551SOL    HW2 1714   2.056   3.707   3.771
 2552SOL     OW 1715   3.142   2.789   2.534
 2552SOL    HW1 1716   3.202   2.708   2.536
 2552SOL    HW2 1717   3.182   2.858   2.474
 2553SOL     OW 1718   2.692   3.135   3.284
 2553SOL    HW1 1719   2.687   3.168   3.379
 2553SOL    HW2 1720   2.606   3.154   3.238
 2554SOL     OW 1721   2.534   3.478   2.016
 2554SOL    HW1 1722   2.543   3.488   1.917
 2554SOL    HW2 1723   2.494   3.389   2.037
 2555SOL     OW 1724   3.512   3.582   3.256
 2555SOL    HW1 1725   3.565   3.592   3.172
 2555SOL    HW2 1726   3.485   3.672   3.290
 2556SOL     OW 1727   3.703   2.037   2.825
 2556SOL    HW1 1728   3.742   1.952   2.789
 2556SOL    HW2 1729   3.605   2.039   2.806
 2557SOL     OW 1730   2.125   2.188   2.582
 2557SOL    HW1 1731   2.046   2.239   2.548
 2557SOL    HW2 1732   2.116   2.173   2.680
 2558SOL     OW 1733   3.056   3.474   1.893
 2558SOL    HW1 1734   3.062   3.381   1.930
 2558SOL    HW2 1735   2.997   3.474   1.813
 2559SOL     OW 1736   2.684   2.864   3.234
 2559SOL    HW1 1737   2.724   2.863   3.142
 2559SOL    HW2 1738   2.694   2.956   3.274
 2560SOL     OW 1739   2.778   2.772   2.153
 2560SOL    HW1 1740   2.841   2.810   2.085
 2560SOL    HW2 1741   2.818   2.689   2.192
 2561SOL     OW 1742   3.366   3.469   1.906
 2561SOL    HW1 1743   3.274   3.506   1.913
 2561SOL    HW2 1744   3.404   3.489   1.816
 2562SOL     OW 1745   2.234   3.150   3.352
 2562SOL    HW1 1746   2.221   3.243   3.318
 2562SOL    HW2 1747   2.150   3.098   3.339
 2563SOL     OW 1748   3.476   3.154   3.151
 2563SOL    HW1 1749   3.536   3.157   3.231
 2563SOL    HW2 1750   3.401   3.218   3.164
 2564SOL     OW 1751   2.901   2.960   2.558
 2564SOL    HW1 1752   2.831   2.913   2.612
 2564SOL    HW2 1753   2.960   2.892   2.515
 2565SOL     OW 1754   2.876   2.098   2.833
 2565SOL    HW1 1755   2.868   2.062   2.740
 2565SOL    HW2 1756   2.874   2.022   2.898
 2566SOL     OW 1757   2.452   3.349   2.353
 2566SOL    HW1 1758   2.494   3.291   2.283
 2566SOL    HW2 1759   2.408   3.428   2.309
 2567SOL     OW 1760   3.571   2.247   3.243
 2567SOL    HW1 1761   3.644   2.316   3.247
 2567SOL    HW2 1762   3.599   2.172   3.184
 2568SOL     OW 1763   2.117   3.210   2.152
 2568SOL    HW1 1764   2.021   3.211   2.125
 2568SOL    HW2 1765   2.129   3.263   2.236
 2569SOL     OW 1766   1.967   2.875   3.588
 2569SOL    HW1 1767   1.890   2.842   3.642
 2569SOL    HW2 1768   2.052   2.845   3.630
 2570SOL     OW 1769   2.534   2.065   3.351
 2570SOL    HW1 1770   2.624   2.049   3.311
 2570SOL    HW2 1771   2.542   2.070   3.450
 2571SOL     OW 1772   1.937   2.207   1.895
 2571SOL    HW1 1773   1.845   2.179   1.866
 2571SOL    HW2 1774   1.968   2.284   1.839
 2572SOL     OW 1775   3.302   2.718   3.260
 2572SOL    HW1 1776   3.245   2.770   3.197
 2572SOL    HW2 1777   3.398   2.730   3.236
 2573SOL     OW 1778   1.934   2.028   2.180
 2573SOL    HW1 1779   1.917   2.111   2.126
 2573SOL    HW2 1780   2.024   1.991   2.158
 2574SOL     OW 1781   3.045   3.197   1.981
 2574SOL    HW1 1782   2.946   3.186   1.983
 2574SOL    HW2 1783   3.079   3.212   2.074
 2575SOL     OW 1784   2.475   2.704   3.293
 2575SOL    HW1 1785   2.531   2.785   3.276
 2575SOL    HW2 1786   2.534   2.624   3.296
 2576SOL     OW 1787   3.355   3.629   2.821
 2576SOL    HW1 1788   3.388   3.693   2.752
 2576SOL    HW2 1789   3.421   3.623   2.896
 2577SOL     OW 1790   2.578   2.427   3.570
 2577SOL    HW1 1791   2.597   2.492   3.644
 2577SOL    HW2 1792   2.638   2.347   3.579
 2578SOL     OW 1793   3.312   3.082   3.495
 2578SOL    HW1 1794   3.303   3.072   3.594
 2578SOL    HW2 1795   3.408   3.075   3.469
 2579SOL     OW 1796   2.252   3.603   3.422
 2579SOL    HW1 1797   2.161   3.644   3.420
 2579SOL    HW2 1798   2.245   3.509   3.454
 2580SOL     OW 1799   3.536   2.745   3.116
 2580SOL    HW1 1800   3.509   2.656   3.079
 2580SOL    HW2 1801   3.537   2.813   3.043
 2581SOL     OW 1802   3.087   2.187   2.311
 2581SOL    HW1 1803   3.152   2.113   2.300
 2581SOL    HW2 1804   3.107   2.237   2.395
 2582SOL     OW 1805   3.639   2.204   3.504
 2582SOL    HW1 1806   3.622   2.235   3.410
 2582SOL    HW2 1807   3.555   2.167   3.542
 2583SOL     OW 1808   3.592   2.796   3.379
 2583SOL    HW1 1809   3.630   2.887   3.394
 2583SOL    HW2 1810   3.584   2.779   3.280
 2584SOL     OW 1811   2.721   3.236   1.878
 2584SOL    HW1 1812   2.675   3.251   1.966
 2584SOL    HW2 1813   2.765   3.321   1.848
 2585SOL     OW 1814   2.523   3.652   2.815
 2585SOL    HW1 1815   2.477   3.740   2.802
 2585SOL    HW2 1816   2.622   3.664   2.808
 2586SOL     OW 1817   2.945   2.846   1.949
 2586SOL    HW1 1818   2.922   2.899   1.867
 2586SOL    HW2 1819   3.026   2.790   1.930
 2587SOL     OW 1820   3.723   3.431   2.713
 2587SOL    HW1 1821   3.652   3.419   2.643
 2587SOL    HW2 1822   3.724   3.352   2.773
 2588SOL     OW 1823   2.083   3.176   3.706
 2588SOL    HW1 1824   2.018   3.103   3.685
 2588SOL    HW2 1825   2.087   3.190   3.804
 2589SOL     OW 1826   1.941   3.102   2.515
 2589SOL    HW1 1827   1.940   3.055   2.603
 2589SOL    HW2 1828   2.023   3.074   2.464
 2590SOL     OW 1829   2.534   3.253   3.486
 2590SOL    HW1 1830   2.456   3.203   3.524
 2590SOL    HW2 1831   2.531   3.348   3.517
 2591SOL     OW 1832   3.686   2.054   3.089
 2591SOL    HW1 1833   3.682   1.964   3.133
 2591SOL    HW2 1834   3.689   2.043   2.990
 2592SOL     OW 1835   2.290   2.286   2.382
 2592SOL    HW1 1836   2.320   2.214   2.320
 2592SOL    HW2 1837   2.251   2.246   2.465
 2593SOL     OW 1838   3.567   3.349   2.966
 2593SOL    HW1 1839   3.474   3.324   2.939
 2593SOL    HW2 1840   3.593   3.299   3.048
 2594SOL     OW 1841   2.179   2.409   3.142
 2594SOL    HW1 1842   2.217   2.350   3.214
 2594SOL    HW2 1843   2.219   2.383   3.054
 2595SOL     OW 1844   2.674   3.448   2.549
 2595SOL    HW1 1845   2.706   3.458   2.455
 2595SOL    HW2 1846   2.595   3.386   2.551
 2596SOL     OW 1847   3.286   2.076   2.974
 2596SOL    HW1 1848   3.338   2.011   3.029
 2596SOL    HW2 1849   3.237   2.139   3.035
 2597SOL     OW 1850   2.863   1.896   3.016
 2597SOL    HW1 1851   2.800   1.824   2.985
 2597SOL    HW2 1852   2.956   1.860   3.016
 2598SOL     OW 1853   2.632   3.192   2.163
 2598SOL    HW1 1854   2.586   3.105   2.180
 2598SOL    HW2 1855   2.723   3.189   2.204
 2599SOL     OW 1856   2.480   3.429   3.146
 2599SOL    HW1 1857   2.475   3.511   3.203
 2599SOL    HW2 1858   2.569   3.426   3.101
 2600SOL     OW 1859   3.214   1.914   2.030
 2600SOL    HW1 1860   3.249   1.873   1.946
 2600SOL    HW2 1861   3.124   1.876   2.050
 2601SOL     OW 1862   3.162   2.315   2.553
 2601SOL    HW1 1863   3.103   2.395   2.557
 2601SOL    HW2 1864   3.177   2.280   2.646
 2602SOL     OW 1865   3.455   2.083   2.744
 2602SOL    HW1 1866   3.371   2.082   2.798
 2602SOL    HW2 1867   3.457   2.166   2.688
 2603SOL     OW 1868   1.901   2.939   2.162
 2603SOL    HW1 1869   2.000   2.928   2.153
 2603SOL    HW2 1870   1.861   2.853   2.194
 2604SOL     OW 1871   2.737   3.508   2.199
 2604SOL    HW1 1872   2.660   3.473   2.145
 2604SOL    HW2 1873   2.705   3.579   2.261
 2605SOL     OW 1874   2.092   2.490   3.837
 2605SOL    HW1 1875   1.999   2.488   3.874
 2605SOL    HW2 1876   2.093   2.451   3.745
 2611SOL     OW 1877   3.617   2.469   3.955
 2611SOL    HW1 1878   3.605   2.456   3.856
 2611SOL    HW2 1879   3.587   2.388   4.004
 2620SOL     OW 1880   2.468   2.826   3.847
 2620SOL    HW1 1881   2.475   2.910   3.793
 2620SOL    HW2 1882   2.514   2.839   3.935
 2623SOL     OW 1883   1.889   3.458   3.841
 2623SOL    HW1 1884   1.870   3.362   3.862
 2623SOL    HW2 1885   1.856   3.516   3.916
 2629SOL     OW 1886   3.387   2.861   3.914
 2629SOL    HW1 1887   3.324   2.785   3.927
 2629SOL    HW2 1888   3.435   2.879   4.000
 2632SOL     OW 1889   2.460   2.591   3.994
 2632SOL    HW1 1890   2.484   2.660   3.926
 2632SOL    HW2 1891   2.382   2.624   4.048
 2637SOL     OW 1892   2.903   2.563   4.153
 2637SOL    HW1 1893   2.929   2.559   4.249
 2637SOL    HW2 1894   2.818   2.512   4.139
 2640SOL     OW 1895   2.727   2.210   3.919
 2640SOL    HW1 1896   2.786   2.273   3.870
 2640SOL    HW2 1897   2.746   2.116   3.890
 2646SOL     OW 1898   2.183   2.805   3.966
 2646SOL    HW1 1899   2.265   2.844   3.924
 2646SOL    HW2 1900   2.156   2.723   3.917
 2649SOL     OW 1901   3.494   3.239   3.805
 2649SOL    HW1 1902   3.462   3.333   3.795
 2649SOL    HW2 1903   3.418   3.176   3.793
 2654SOL     OW 1904   2.244   2.562   4.204
 2654SOL    HW1 1905   2.289   2.472   4.201
 2654SOL    HW2 1906   2.150   2.551   4.237
 2655SOL     OW 1907   2.476   1.984   3.841
 2655SOL    HW1 1908   2.574   1.962   3.848
 2655SOL    HW2 1909   2.445   1.967   3.748
 2659SOL     OW 1910   2.401   1.926   4.236
 2659SOL    HW1 1911   2.320   1.927   4.294
 2659SOL    HW2 1912   2.404   2.009   4.181
 2660SOL     OW 1913   3.296   3.050   3.765
 2660SOL    HW1 1914   3.328   2.974   3.822
 2660SOL    HW2 1915   3.204   3.077   3.795
 2661SOL     OW 1916   2.159   1.897   3.895
 2661SOL    HW1 1917   2.208   1.981   3.874
 2661SOL    HW2 1918   2.221   1.832   3.940
 2662SOL     OW 1919   2.797   2.098   4.204
 2662SOL    HW1 1920   2.749   2.139   4.126
 2662SOL    HW2 1921   2.896   2.096   4.185
 2666SOL     OW 1922   2.894   2.411   3.740
 2666SOL    HW1 1923   2.853   2.493   3.701
 2666SOL    HW2 1924   2.958   2.437   3.813
 2673SOL     OW 1925   2.350   3.247   3.898
 2673SOL    HW1 1926   2.263   3.232   3.945
 2673SOL    HW2 1927   2.333   3.273   3.803
 2675SOL     OW 1928   3.252   2.437   3.802
 2675SOL    HW1 1929   3.198   2.416   3.883
 2675SOL    HW2 1930   3.343   2.396   3.811
 2676SOL     OW 1931   2.389   2.118   4.052
 2676SOL    HW1 1932   2.416   2.059   3.977
 2676SOL    HW2 1933   2.389   2.213   4.021
 2680SOL     OW 1934   2.567   2.912   4.092
 2680SOL    HW1 1935   2.553   2.919   4.191
 2680SOL    HW2 1936   2.651   2.861   4.074
 2684SOL     OW 1937   2.229   2.962   4.225
 2684SOL    HW1 1938   2.222   3.045   4.169
 2684SOL    HW2 1939   2.233   2.882   4.165
 2686SOL     OW 1940   3.114   3.210   4.112
 2686SOL    HW1 1941   3.164   3.287   4.152
 2686SOL    HW2 1942   3.019   3.212   4.144
 2692SOL     OW 1943   3.071   2.387   3.999
 2692SOL    HW1 1944   3.084   2.303   4.053
 2692SOL    HW2 1945   3.042   2.461   4.059
 2699SOL     OW 1946   3.402   2.136   3.849
 2699SOL    HW1 1947   3.341   2.061   3.872
 2699SOL    HW2 1948   3.424   2.188   3.932
 2700SOL     OW 1949   3.165   2.700   3.766
 2700SOL    HW1 1950   3.199   2.607   3.781
 2700SOL    HW2 1951   3.183   2.727   3.671
 2705SOL     OW 1952   1.870   3.188   3.924
 2705SOL    HW1 1953   1.777   3.209   3.893
 2705SOL    HW2 1954   1.880   3.089   3.937
 2710SOL     OW 1955   2.677   2.434   4.049
 2710SOL    HW1 1956   2.684   2.345   4.003
 2710SOL    HW2 1957   2.583   2.468   4.041
 2714SOL     OW 1958   2.335   2.362   3.915
 2714SOL    HW1 1959   2.396   2.442   3.919
 2714SOL    HW2 1960   2.240   2.393   3.922
 2717SOL     OW 1961   3.164   2.717   4.033
 2717SOL    HW1 1962   3.078   2.686   4.075
 2717SOL    HW2 1963   3.160   2.703   3.934
 2724SOL     OW 1964   2.534   3.478   3.878
 2724SOL    HW1 1965   2.543   3.488   3.779
 2724SOL    HW2 1966   2.494   3.389   3.899
 2727SOL     OW 1967   3.056   3.474   3.755
 2727SOL    HW1 1968   3.062   3.381   3.792
 2727SOL    HW2 1969   2.997   3.474   3.675
 2729SOL     OW 1970   2.778   2.772   4.015
 2729SOL    HW1 1971   2.841   2.810   3.947
 2729SOL    HW2 1972   2.818   2.689   4.054
 2730SOL     OW 1973   3.366   3.469   3.768
 2730SOL    HW1 1974   3.274   3.506   3.775
 2730SOL    HW2 1975   3.404   3.489   3.678
 2736SOL     OW 1976   2.117   3.210   4.014
 2736SOL    HW1 1977   2.021   3.211   3.987
 2736SOL    HW2 1978   2.129   3.263   4.098
 2738SOL     OW 1979   1.937   2.207   3.757
 2738SOL    HW1 1980   1.845   2.179   3.728
 2738SOL    HW2 1981   1.968   2.284   3.701
 2739SOL     OW 1982   1.934   2.028   4.042
 2739SOL    HW1 1983   1.917   2.111   3.988
 2739SOL    HW2 1984   2.024   1.991   4.020
 2740SOL     OW 1985   3.045   3.197   3.843
 2740SOL    HW1 1986   2.946   3.186   3.845
 2740SOL    HW2 1987   3.079   3.212   3.936
 2745SOL     OW 1988   3.087   2.187   4.173
 2745SOL    HW1 1989   3.152   2.113   4.162
 2745SOL    HW2 1990   3.107   2.237   4.257
 2748SOL     OW 1991   2.721   3.236   3.740
 2748SOL    HW1 1992   2.675   3.251   3.828
 2748SOL    HW2 1993   2.765   3.321   3.710
 2751SOL     OW 1994   2.945   2.846   3.811
 2751SOL    HW1 1995   2.922   2.899   3.729
 2751SOL    HW2 1996   3.026   2.790   3.792
 2755SOL     OW 1997   2.290   2.286   4.244
 2755SOL    HW1 1998   2.320   2.214   4.182
 2755SOL    HW2 1999   2.251   2.246   4.327
 2761SOL     OW 2000   2.632   3.192   4.025
 2761SOL    HW1 2001   2.586   3.105   4.042
 2761SOL    HW2 2002   2.723   3.189   4.066
 2763SOL     OW 2003   3.214   1.914   3.892
 2763SOL    HW1 2004   3.249   1.873   3.808
 2763SOL    HW2 2005   3.124   1.876   3.912
 2766SOL     OW 2006   1.901   2.939   4.024
 2766SOL    HW1 2007   2.000   2.928   4.015
 2766SOL    HW2 2008   1.861   2.853   4.056
 2767SOL     OW 2009   2.737   3.508   4.061
 2767SOL    HW1 2010   2.660   3.473   4.007
 2767SOL    HW2 2011   2.705   3.579   4.123
 2793SOL     OW 2012   2.179   3.975   1.801
 2793SOL    HW1 2013   2.250   4.046   1.807
 2793SOL    HW2 2014   2.091   4.014   1.829
 2814SOL     OW 2015   2.643   3.988   1.749
 2814SOL    HW1 2016   2.710   3.927   1.792
 2814SOL    HW2 2017   2.570   4.007   1.814
 2838SOL     OW 2018   2.777   3.813   1.402
 2838SOL    HW1 2019   2.802   3.793   1.307
 2838SOL    HW2 2020   2.849   3.869   1.444
 2848SOL     OW 2021   2.875   3.829   1.770
 2848SOL    HW1 2022   2.881   3.914   1.718
 2848SOL    HW2 2023   2.907   3.753   1.713
 2849SOL     OW 2024   2.366   3.774   1.740
 2849SOL    HW1 2025   2.324   3.717   1.670
 2849SOL    HW2 2026   2.300   3.843   1.772
 2894SOL     OW 2027   2.534   3.927   1.489
 2894SOL    HW1 2028   2.624   3.911   1.449
 2894SOL    HW2 2029   2.542   3.932   1.588
 2923SOL     OW 2030   2.087   3.999   2.858
 2923SOL    HW1 2031   2.122   3.982   2.950
 2923SOL    HW2 2032   1.999   3.954   2.846
 2924SOL     OW 2033   1.881   4.092   2.509
 2924SOL    HW1 2034   1.799   4.135   2.548
 2924SOL    HW2 2035   1.853   4.019   2.446
 2934SOL     OW 2036   2.300   4.116   3.361
 2934SOL    HW1 2037   2.382   4.060   3.370
 2934SOL    HW2 2038   2.219   4.058   3.365
 2938SOL     OW 2039   3.456   3.838   3.342
 2938SOL    HW1 2040   3.438   3.905   3.270
 2938SOL    HW2 2041   3.453   3.884   3.431
 2944SOL     OW 2042   2.671   3.728   2.364
 2944SOL    HW1 2043   2.711   3.819   2.355
 2944SOL    HW2 2044   2.571   3.736   2.370
 2950SOL     OW 2045   3.143   4.069   2.806
 2950SOL    HW1 2046   3.057   4.019   2.793
 2950SOL    HW2 2047   3.205   4.015   2.862
 2954SOL     OW 2048   2.853   4.134   3.104
 2954SOL    HW1 2049   2.776   4.168   3.158
 2954SOL    HW2 2050   2.819   4.083   3.025
 2957SOL     OW 2051   2.727   4.072   2.057
 2957SOL    HW1 2052   2.786   4.135   2.008
 2957SOL    HW2 2053   2.746   3.978   2.028
 2960SOL     OW 2054   2.412   3.920   2.747
 2960SOL    HW1 2055   2.407   3.915   2.847
 2960SOL    HW2 2056   2.414   4.016   2.718
 2964SOL     OW 2057   2.064   4.009   3.360
 2964SOL    HW1 2058   1.984   4.069   3.347
 2964SOL    HW2 2059   2.054   3.960   3.446
 2966SOL     OW 2060   3.262   3.831   2.288
 2966SOL    HW1 2061   3.238   3.794   2.198
 2966SOL    HW2 2062   3.361   3.847   2.292
 2969SOL     OW 2063   2.476   3.846   1.979
 2969SOL    HW1 2064   2.574   3.824   1.986
 2969SOL    HW2 2065   2.445   3.829   1.886
 2970SOL     OW 2066   2.643   3.988   3.611
 2970SOL    HW1 2067   2.710   3.927   3.654
 2970SOL    HW2 2068   2.570   4.007   3.676
 2972SOL     OW 2069   2.784   4.227   2.761
 2972SOL    HW1 2070   2.759   4.218   2.665
 2972SOL    HW2 2071   2.832   4.145   2.792
 2973SOL     OW 2072   2.401   3.788   2.374
 2973SOL    HW1 2073   2.320   3.789   2.432
 2973SOL    HW2 2074   2.404   3.871   2.319
 2975SOL     OW 2075   2.159   3.759   2.033
 2975SOL    HW1 2076   2.208   3.843   2.012
 2975SOL    HW2 2077   2.221   3.694   2.078
 2976SOL     OW 2078   2.797   3.960   2.342
 2976SOL    HW1 2079   2.749   4.001   2.264
 2976SOL    HW2 2080   2.896   3.958   2.323
 2982SOL     OW 2081   2.423   3.946   3.009
 2982SOL    HW1 2082   2.461   3.862   3.046
 2982SOL    HW2 2083   2.335   3.965   3.053
 2983SOL     OW 2084   2.728   4.178   2.504
 2983SOL    HW1 2085   2.696   4.250   2.442
 2983SOL    HW2 2086   2.752   4.097   2.451
 2984SOL     OW 2087   2.879   3.763   2.615
 2984SOL    HW1 2088   2.807   3.768   2.546
 2984SOL    HW2 2089   2.855   3.694   2.684
 2990SOL     OW 2090   2.389   3.980   2.190
 2990SOL    HW1 2091   2.416   3.921   2.115
 2990SOL    HW2 2092   2.389   4.075   2.159
 2995SOL     OW 2093   2.777   3.813   3.264
 2995SOL    HW1 2094   2.802   3.793   3.169
 2995SOL    HW2 2095   2.849   3.869   3.306
 2999SOL     OW 2096   3.136   4.110   3.124
 2999SOL    HW1 2097   3.157   4.184   3.188
 2999SOL    HW2 2098   3.047   4.127   3.081
 3001SOL     OW 2099   2.428   4.261   2.727
 3001SOL    HW1 2100   2.440   4.327   2.653
 3001SOL    HW2 2101   2.474   4.295   2.810
 3005SOL     OW 2102   2.875   3.829   3.632
 3005SOL    HW1 2103   2.881   3.914   3.580
 3005SOL    HW2 2104   2.907   3.753   3.575
 3006SOL     OW 2105   2.366   3.774   3.602
 3006SOL    HW1 2106   2.324   3.717   3.532
 3006SOL    HW2 2107   2.300   3.843   3.634
 3010SOL     OW 2108   2.169   3.937   3.093
 3010SOL    HW1 2109   2.146   3.974   3.183
 3010SOL    HW2 2110   2.139   3.842   3.087
 3014SOL     OW 2111   2.169   3.787   2.480
 3014SOL    HW1 2112   2.158   3.881   2.513
 3014SOL    HW2 2113   2.164   3.724   2.557
 3019SOL     OW 2114   3.402   3.998   1.987
 3019SOL    HW1 2115   3.341   3.923   2.010
 3019SOL    HW2 2116   3.424   4.050   2.070
 3022SOL     OW 2117   2.201   4.233   2.868
 3022SOL    HW1 2118   2.149   4.150   2.851
 3022SOL    HW2 2119   2.278   4.238   2.804
 3024SOL     OW 2120   3.022   3.931   3.339
 3024SOL    HW1 2121   3.022   3.995   3.416
 3024SOL    HW2 2122   3.050   3.979   3.256
 3030SOL     OW 2123   2.677   4.296   2.187
 3030SOL    HW1 2124   2.684   4.207   2.141
 3030SOL    HW2 2125   2.583   4.330   2.179
 3032SOL     OW 2126   2.533   4.188   3.131
 3032SOL    HW1 2127   2.499   4.099   3.101
 3032SOL    HW2 2128   2.559   4.242   3.051
 3033SOL     OW 2129   2.335   4.224   2.053
 3033SOL    HW1 2130   2.396   4.304   2.057
 3033SOL    HW2 2131   2.240   4.255   2.060
 3038SOL     OW 2132   3.588   3.859   2.385
 3038SOL    HW1 2133   3.661   3.842   2.318
 3038SOL    HW2 2134   3.557   3.772   2.423
 3041SOL     OW 2135   3.703   3.899   2.825
 3041SOL    HW1 2136   3.742   3.814   2.789
 3041SOL    HW2 2137   3.605   3.901   2.806
 3042SOL     OW 2138   2.125   4.050   2.582
 3042SOL    HW1 2139   2.046   4.101   2.548
 3042SOL    HW2 2140   2.116   4.035   2.680
 3049SOL     OW 2141   2.876   3.960   2.833
 3049SOL    HW1 2142   2.868   3.924   2.740
 3049SOL    HW2 2143   2.874   3.884   2.898
 3052SOL     OW 2144   2.534   3.927   3.351
 3052SOL    HW1 2145   2.624   3.911   3.311
 3052SOL    HW2 2146   2.542   3.932   3.450
 3053SOL     OW 2147   1.937   4.069   1.895
 3053SOL    HW1 2148   1.845   4.041   1.866
 3053SOL    HW2 2149   1.968   4.146   1.839
 3055SOL     OW 2150   1.934   3.890   2.180
 3055SOL    HW1 2151   1.917   3.973   2.126
 3055SOL    HW2 2152   2.024   3.853   2.158
 3060SOL     OW 2153   3.087   4.049   2.311
 3060SOL    HW1 2154   3.152   3.975   2.300
 3060SOL    HW2 2155   3.107   4.099   2.395
 3070SOL     OW 2156   2.290   4.148   2.382
 3070SOL    HW1 2157   2.320   4.076   2.320
 3070SOL    HW2 2158   2.251   4.108   2.465
 3073SOL     OW 2159   3.286   3.938   2.974
 3073SOL    HW1 2160   3.338   3.873   3.029
 3073SOL    HW2 2161   3.237   4.001   3.035
 3074SOL     OW 2162   2.863   3.758   3.016
 3074SOL    HW1 2163   2.800   3.686   2.985
 3074SOL    HW2 2164   2.956   3.722   3.016
 3076SOL     OW 2165   3.214   3.776   2.030
 3076SOL    HW1 2166   3.249   3.735   1.946
 3076SOL    HW2 2167   3.124   3.738   2.050
 3077SOL     OW 2168   3.162   4.177   2.553
 3077SOL    HW1 2169   3.103   4.257   2.557
 3077SOL    HW2 2170   3.177   4.142   2.646
 3078SOL     OW 2171   3.455   3.945   2.744
 3078SOL    HW1 2172   3.371   3.944   2.798
 3078SOL    HW2 2173   3.457   4.028   2.688
 3238SOL     OW 2174   3.854   1.821   1.571
 3238SOL    HW1 2175   3.844   1.806   1.670
 3238SOL    HW2 2176   3.768   1.857   1.535
 3324SOL     OW 2177   3.854   1.794   1.851
 3324SOL    HW1 2178   3.813   1.720   1.904
 3324SOL    HW2 2179   3.918   1.845   1.909
 3375SOL     OW 2180   3.955   1.713   2.345
 3375SOL    HW1 2181   3.989   1.790   2.399
 3375SOL    HW2 2182   3.999   1.713   2.255
 3377SOL     OW 2183   3.954   1.434   2.400
 3377SOL    HW1 2184   3.928   1.530   2.400
 3377SOL    HW2 2185   3.883   1.380   2.445
 3382SOL     OW 2186   3.751   1.596   1.979
 3382SOL    HW1 2187   3.732   1.500   2.000
 3382SOL    HW2 2188   3.718   1.654   2.054
 3398SOL     OW 2189   3.854   1.821   3.433
 3398SOL    HW1 2190   3.844   1.806   3.532
 3398SOL    HW2 2191   3.768   1.857   3.397
 3403SOL     OW 2192   4.075   1.801   2.715
 3403SOL    HW1 2193   4.125   1.715   2.721
 3403SOL    HW2 2194   4.140   1.878   2.712
 3410SOL     OW 2195   3.973   1.785   3.103
 3410SOL    HW1 2196   4.030   1.720   3.153
 3410SOL    HW2 2197   3.957   1.752   3.010
 3440SOL     OW 2198   3.788   1.564   3.193
 3440SOL    HW1 2199   3.742   1.646   3.159
 3440SOL    HW2 2200   3.886   1.583   3.202
 3466SOL     OW 2201   3.732   1.326   2.062
 3466SOL    HW1 2202   3.639   1.347   2.031
 3466SOL    HW2 2203   3.742   1.227   2.075
 3467SOL     OW 2204   3.812   1.801   2.789
 3467SOL    HW1 2205   3.770   1.715   2.762
 3467SOL    HW2 2206   3.906   1.804   2.755
 3668SOL     OW 2207   3.837   2.599   1.597
 3668SOL    HW1 2208   3.925   2.586   1.642
 3668SOL    HW2 2209   3.824   2.696   1.575
 3674SOL     OW 2210   4.041   2.113   1.801
 3674SOL    HW1 2211   4.112   2.184   1.807
 3674SOL    HW2 2212   3.953   2.152   1.829
 3693SOL     OW 2213   3.926   2.147   1.498
 3693SOL    HW1 2214   3.846   2.207   1.485
 3693SOL    HW2 2215   3.916   2.098   1.584
 3710SOL     OW 2216   3.802   2.418   1.386
 3710SOL    HW1 2217   3.894   2.417   1.345
 3710SOL    HW2 2218   3.796   2.492   1.453
 3742SOL     OW 2219   4.074   2.760   1.804
 3742SOL    HW1 2220   4.150   2.804   1.852
 3742SOL    HW2 2221   4.109   2.713   1.722
 3753SOL     OW 2222   3.913   2.382   1.722
 3753SOL    HW1 2223   3.972   2.342   1.652
 3753SOL    HW2 2224   3.855   2.453   1.681
 3759SOL     OW 2225   3.883   2.999   1.466
 3759SOL    HW1 2226   3.905   2.938   1.542
 3759SOL    HW2 2227   3.893   2.950   1.380
 3780SOL     OW 2228   3.829   2.875   1.726
 3780SOL    HW1 2229   3.752   2.842   1.780
 3780SOL    HW2 2230   3.914   2.845   1.768
 3794SOL     OW 2231   3.945   3.176   1.844
 3794SOL    HW1 2232   3.880   3.103   1.823
 3794SOL    HW2 2233   3.949   3.190   1.942
 3806SOL     OW 2234   3.954   2.490   1.975
 3806SOL    HW1 2235   3.861   2.488   2.012
 3806SOL    HW2 2236   3.955   2.451   1.883
 3807SOL     OW 2237   3.949   2.137   2.858
 3807SOL    HW1 2238   3.984   2.120   2.950
 3807SOL    HW2 2239   3.861   2.092   2.846
 3808SOL     OW 2240   3.743   2.230   2.509
 3808SOL    HW1 2241   3.661   2.273   2.548
 3808SOL    HW2 2242   3.715   2.157   2.446
 3816SOL     OW 2243   4.059   3.297   2.923
 3816SOL    HW1 2244   3.981   3.266   2.870
 3816SOL    HW2 2245   4.117   3.355   2.866
 3818SOL     OW 2246   3.955   3.575   2.345
 3818SOL    HW1 2247   3.989   3.652   2.399
 3818SOL    HW2 2248   3.999   3.575   2.255
 3820SOL     OW 2249   3.954   3.296   2.400
 3820SOL    HW1 2250   3.928   3.392   2.400
 3820SOL    HW2 2251   3.883   3.242   2.445
 3821SOL     OW 2252   3.964   2.953   2.748
 3821SOL    HW1 2253   3.978   2.869   2.800
 3821SOL    HW2 2254   3.909   3.017   2.803
 3824SOL     OW 2255   3.846   2.505   2.425
 3824SOL    HW1 2256   3.801   2.417   2.442
 3824SOL    HW2 2257   3.845   2.559   2.509
 3825SOL     OW 2258   3.751   3.458   1.979
 3825SOL    HW1 2259   3.732   3.362   2.000
 3825SOL    HW2 2260   3.718   3.516   2.054
 3826SOL     OW 2261   3.837   2.599   3.459
 3826SOL    HW1 2262   3.925   2.586   3.504
 3826SOL    HW2 2263   3.824   2.696   3.437
 3830SOL     OW 2264   3.921   2.838   3.126
 3830SOL    HW1 2265   4.010   2.793   3.112
 3830SOL    HW2 2266   3.848   2.773   3.107
 3840SOL     OW 2267   3.800   2.673   2.651
 3840SOL    HW1 2268   3.899   2.661   2.660
 3840SOL    HW2 2269   3.776   2.768   2.672
 3844SOL     OW 2270   4.274   2.058   2.747
 3844SOL    HW1 2271   4.269   2.053   2.847
 3844SOL    HW2 2272   4.276   2.154   2.718
 3848SOL     OW 2273   4.045   2.805   2.104
 3848SOL    HW1 2274   4.127   2.844   2.062
 3848SOL    HW2 2275   4.018   2.723   2.055
 3851SOL     OW 2276   3.926   2.147   3.360
 3851SOL    HW1 2277   3.846   2.207   3.347
 3851SOL    HW2 2278   3.916   2.098   3.446
 3855SOL     OW 2279   4.106   2.562   2.342
 3855SOL    HW1 2280   4.151   2.472   2.339
 3855SOL    HW2 2281   4.012   2.551   2.375
 3863SOL     OW 2282   4.021   1.897   2.033
 3863SOL    HW1 2283   4.070   1.981   2.012
 3863SOL    HW2 2284   4.083   1.832   2.078
 3867SOL     OW 2285   4.183   3.014   2.603
 3867SOL    HW1 2286   4.112   2.987   2.668
 3867SOL    HW2 2287   4.157   2.986   2.510
 3870SOL     OW 2288   3.802   2.418   3.248
 3870SOL    HW1 2289   3.894   2.417   3.207
 3870SOL    HW2 2290   3.796   2.492   3.315
 3875SOL     OW 2291   4.251   2.118   2.190
 3875SOL    HW1 2292   4.278   2.059   2.115
 3875SOL    HW2 2293   4.251   2.213   2.159
 3881SOL     OW 2294   4.134   2.675   3.113
 3881SOL    HW1 2295   4.220   2.687   3.163
 3881SOL    HW2 2296   4.092   2.588   3.140
 3883SOL     OW 2297   3.788   3.426   3.193
 3883SOL    HW1 2298   3.742   3.508   3.159
 3883SOL    HW2 2299   3.886   3.445   3.202
 3884SOL     OW 2300   4.091   2.962   2.363
 3884SOL    HW1 2301   4.084   3.045   2.307
 3884SOL    HW2 2302   4.095   2.882   2.303
 3885SOL     OW 2303   4.290   2.399   2.727
 3885SOL    HW1 2304   4.302   2.465   2.653
 3885SOL    HW2 2305   4.336   2.433   2.810
 3889SOL     OW 2306   4.126   2.613   3.460
 3889SOL    HW1 2307   4.194   2.668   3.413
 3889SOL    HW2 2308   4.166   2.525   3.487
 3892SOL     OW 2309   4.297   2.732   2.891
 3892SOL    HW1 2310   4.341   2.821   2.882
 3892SOL    HW2 2311   4.234   2.732   2.968
 3895SOL     OW 2312   4.031   2.075   3.093
 3895SOL    HW1 2313   4.008   2.112   3.183
 3895SOL    HW2 2314   4.001   1.980   3.087
 3896SOL     OW 2315   3.761   3.172   3.144
 3896SOL    HW1 2316   3.814   3.123   3.212
 3896SOL    HW2 2317   3.783   3.270   3.149
 3898SOL     OW 2318   4.031   1.925   2.480
 3898SOL    HW1 2319   4.020   2.019   2.513
 3898SOL    HW2 2320   4.026   1.862   2.557
 3905SOL     OW 2321   4.043   2.672   2.811
 3905SOL    HW1 2322   4.136   2.708   2.816
 3905SOL    HW2 2323   4.037   2.587   2.863
 3906SOL     OW 2324   4.063   2.371   2.868
 3906SOL    HW1 2325   4.011   2.288   2.851
 3906SOL    HW2 2326   4.140   2.376   2.804
 3909SOL     OW 2327   3.732   3.188   2.062
 3909SOL    HW1 2328   3.639   3.209   2.031
 3909SOL    HW2 2329   3.742   3.089   2.075
 3910SOL     OW 2330   3.812   3.663   2.789
 3910SOL    HW1 2331   3.770   3.577   2.762
 3910SOL    HW2 2332   3.906   3.666   2.755
 3913SOL     OW 2333   3.764   2.406   2.976
 3913SOL    HW1 2334   3.849   2.373   2.935
 3913SOL    HW2 2335   3.777   2.421   3.074
 3914SOL     OW 2336   3.913   2.382   3.584
 3914SOL    HW1 2337   3.972   2.342   3.514
 3914SOL    HW2 2338   3.855   2.453   3.543
 3919SOL     OW 2339   4.197   2.362   2.053
 3919SOL    HW1 2340   4.258   2.442   2.057
 3919SOL    HW2 2341   4.102   2.393   2.060
 3920SOL     OW 2342   3.883   2.999   3.328
 3920SOL    HW1 2343   3.905   2.938   3.404
 3920SOL    HW2 2344   3.893   2.950   3.242
 3924SOL     OW 2345   3.807   3.120   2.884
 3924SOL    HW1 2346   3.802   3.119   2.984
 3924SOL    HW2 2347   3.724   3.079   2.846
 3931SOL     OW 2348   3.987   2.188   2.582
 3931SOL    HW1 2349   3.908   2.239   2.548
 3931SOL    HW2 2350   3.978   2.173   2.680
 3939SOL     OW 2351   3.979   3.210   2.152
 3939SOL    HW1 2352   3.883   3.211   2.125
 3939SOL    HW2 2353   3.991   3.263   2.236
 3940SOL     OW 2354   3.829   2.875   3.588
 3940SOL    HW1 2355   3.752   2.842   3.642
 3940SOL    HW2 2356   3.914   2.845   3.630
 3942SOL     OW 2357   3.799   2.207   1.895
 3942SOL    HW1 2358   3.707   2.179   1.866
 3942SOL    HW2 2359   3.830   2.284   1.839
 3943SOL     OW 2360   3.796   2.028   2.180
 3943SOL    HW1 2361   3.779   2.111   2.126
 3943SOL    HW2 2362   3.886   1.991   2.158
 3949SOL     OW 2363   4.318   2.607   2.514
 3949SOL    HW1 2364   4.368   2.692   2.495
 3949SOL    HW2 2365   4.230   2.609   2.466
 3955SOL     OW 2366   3.803   3.102   2.515
 3955SOL    HW1 2367   3.802   3.055   2.603
 3955SOL    HW2 2368   3.885   3.074   2.464
 3957SOL     OW 2369   4.152   2.286   2.382
 3957SOL    HW1 2370   4.182   2.214   2.320
 3957SOL    HW2 2371   4.113   2.246   2.465
 3958SOL     OW 2372   4.041   2.409   3.142
 3958SOL    HW1 2373   4.079   2.350   3.214
 3958SOL    HW2 2374   4.081   2.383   3.054
 3965SOL     OW 2375   3.763   2.939   2.162
 3965SOL    HW1 2376   3.862   2.928   2.153
 3965SOL    HW2 2377   3.723   2.853   2.194
 4075SOL     OW 2378   3.799   2.207   3.757
 4075SOL    HW1 2379   3.707   2.179   3.728
 4075SOL    HW2 2380   3.830   2.284   3.701
   5.13842   5.13842   5.13842
