; mobley_4883284_GMX.itp created by acpype (v: 2023.10.27) on Thu May 21 00:21:14 2026

[ atomtypes ]
;name   bond_type     mass     charge   ptype   sigma         epsilon       Amb
 ca       ca          0.00000  0.00000   A     3.31521e-01   4.13379e-01 ; 1.86  0.0988
 nv       nv          0.00000  0.00000   A     3.36813e-01   4.68608e-01 ; 1.89  0.1120
 ha       ha          0.00000  0.00000   A     2.62548e-01   6.73624e-02 ; 1.47  0.0161
 hn       hn          0.00000  0.00000   A     1.10650e-01   4.18400e-02 ; 0.62  0.0100

[ moleculetype ]
;name            nrexcl
 mobley_4883284   3

[ atoms ]
;   nr  type  resi  res  atom  cgnr     charge      mass       ; qtot   bond_type
     1   ca     1   MOL    C1    1    -0.173000     12.01000 ; qtot -0.173
     2   ca     1   MOL    C2    2    -0.093000     12.01000 ; qtot -0.266
     3   ca     1   MOL    C3    3    -0.093000     12.01000 ; qtot -0.359
     4   ca     1   MOL    C4    4    -0.191000     12.01000 ; qtot -0.550
     5   ca     1   MOL    C5    5    -0.191000     12.01000 ; qtot -0.741
     6   ca     1   MOL    C6    6     0.136600     12.01000 ; qtot -0.604
     7   nv     1   MOL    N1    7    -0.818200     14.01000 ; qtot -1.423
     8   ha     1   MOL    H1    8     0.131000      1.00800 ; qtot -1.292
     9   ha     1   MOL    H2    9     0.129000      1.00800 ; qtot -1.163
    10   ha     1   MOL    H3   10     0.129000      1.00800 ; qtot -1.034
    11   ha     1   MOL    H4   11     0.130000      1.00800 ; qtot -0.904
    12   ha     1   MOL    H5   12     0.130000      1.00800 ; qtot -0.774
    13   hn     1   MOL    H6   13     0.386800      1.00800 ; qtot -0.387
    14   hn     1   MOL    H7   14     0.386800      1.00800 ; qtot -0.000

[ bonds ]
;   ai     aj funct   r             k
     1      2   1    1.3986e-01    2.9644e+05 ;     C1 - C2    
     1      3   1    1.3986e-01    2.9644e+05 ;     C1 - C3    
     1      8   1    1.0860e-01    3.0183e+05 ;     C1 - H1    
     2      4   1    1.3986e-01    2.9644e+05 ;     C2 - C4    
     2      9   1    1.0860e-01    3.0183e+05 ;     C2 - H2    
     3      5   1    1.3986e-01    2.9644e+05 ;     C3 - C5    
     3     10   1    1.0860e-01    3.0183e+05 ;     C3 - H3    
     4      6   1    1.3986e-01    2.9644e+05 ;     C4 - C6    
     4     11   1    1.0860e-01    3.0183e+05 ;     C4 - H4    
     5      6   1    1.3986e-01    2.9644e+05 ;     C5 - C6    
     5     12   1    1.0860e-01    3.0183e+05 ;     C5 - H5    
     6      7   1    1.3744e-01    2.8644e+05 ;     C6 - N1    
     7     13   1    1.0114e-01    3.9961e+05 ;     N1 - H6    
     7     14   1    1.0114e-01    3.9961e+05 ;     N1 - H7    

[ pairs ]
;   ai     aj    funct
     1      6      1 ;     C1 - C6    
     1     11      1 ;     C1 - H4    
     1     12      1 ;     C1 - H5    
     2      5      1 ;     C2 - C5    
     2      7      1 ;     C2 - N1    
     2     10      1 ;     C2 - H3    
     3      4      1 ;     C3 - C4    
     3      7      1 ;     C3 - N1    
     3      9      1 ;     C3 - H2    
     4     12      1 ;     C4 - H5    
     4     13      1 ;     C4 - H6    
     4     14      1 ;     C4 - H7    
     5     11      1 ;     C5 - H4    
     5     13      1 ;     C5 - H6    
     5     14      1 ;     C5 - H7    
     6      9      1 ;     C6 - H2    
     6     10      1 ;     C6 - H3    
     7     11      1 ;     N1 - H4    
     7     12      1 ;     N1 - H5    
     8      4      1 ;     H1 - C4    
     8      5      1 ;     H1 - C5    
     8      9      1 ;     H1 - H2    
     8     10      1 ;     H1 - H3    
     9     11      1 ;     H2 - H4    
    10     12      1 ;     H3 - H5    

[ angles ]
;   ai     aj     ak    funct   theta         cth
     1      2      4      1    1.2002e+02    5.3279e+02 ;     C1 - C2     - C4    
     1      2      9      1    1.1988e+02    3.7572e+02 ;     C1 - C2     - H2    
     1      3      5      1    1.2002e+02    5.3279e+02 ;     C1 - C3     - C5    
     1      3     10      1    1.1988e+02    3.7572e+02 ;     C1 - C3     - H3    
     2      1      3      1    1.2002e+02    5.3279e+02 ;     C2 - C1     - C3    
     2      1      8      1    1.1988e+02    3.7572e+02 ;     C2 - C1     - H1    
     2      4      6      1    1.2002e+02    5.3279e+02 ;     C2 - C4     - C6    
     2      4     11      1    1.1988e+02    3.7572e+02 ;     C2 - C4     - H4    
     3      1      8      1    1.1988e+02    3.7572e+02 ;     C3 - C1     - H1    
     3      5      6      1    1.2002e+02    5.3279e+02 ;     C3 - C5     - C6    
     3      5     12      1    1.1988e+02    3.7572e+02 ;     C3 - C5     - H5    
     4      2      9      1    1.1988e+02    3.7572e+02 ;     C4 - C2     - H2    
     4      6      5      1    1.2002e+02    5.3279e+02 ;     C4 - C6     - C5    
     4      6      7      1    1.2094e+02    5.6827e+02 ;     C4 - C6     - N1    
     5      3     10      1    1.1988e+02    3.7572e+02 ;     C5 - C3     - H3    
     5      6      7      1    1.2094e+02    5.6827e+02 ;     C5 - C6     - N1    
     6      4     11      1    1.1988e+02    3.7572e+02 ;     C6 - C4     - H4    
     6      5     12      1    1.1988e+02    3.7572e+02 ;     C6 - C5     - H5    
     6      7     13      1    1.1673e+02    4.8292e+02 ;     C6 - N1     - H6    
     6      7     14      1    1.1673e+02    4.8292e+02 ;     C6 - N1     - H7    
    13      7     14      1    1.1528e+02    3.8794e+02 ;     H6 - N1     - H7    

[ dihedrals ] ; propers
; for gromacs 4.5 or higher, using funct 9
;    i      j      k      l   func   phase     kd      pn
     1      2      4      6      9   180.00  15.16700   2 ;     C1-    C2-    C4-    C6
     1      2      4     11      9   180.00  15.16700   2 ;     C1-    C2-    C4-    H4
     1      3      5      6      9   180.00  15.16700   2 ;     C1-    C3-    C5-    C6
     1      3      5     12      9   180.00  15.16700   2 ;     C1-    C3-    C5-    H5
     2      1      3      5      9   180.00  15.16700   2 ;     C2-    C1-    C3-    C5
     2      1      3     10      9   180.00  15.16700   2 ;     C2-    C1-    C3-    H3
     2      4      6      5      9   180.00  15.16700   2 ;     C2-    C4-    C6-    C5
     2      4      6      7      9   180.00  15.16700   2 ;     C2-    C4-    C6-    N1
     3      1      2      4      9   180.00  15.16700   2 ;     C3-    C1-    C2-    C4
     3      1      2      9      9   180.00  15.16700   2 ;     C3-    C1-    C2-    H2
     3      5      6      4      9   180.00  15.16700   2 ;     C3-    C5-    C6-    C4
     3      5      6      7      9   180.00  15.16700   2 ;     C3-    C5-    C6-    N1
     4      6      5     12      9   180.00  15.16700   2 ;     C4-    C6-    C5-    H5
     4      6      7     13      9   180.00   4.39320   2 ;     C4-    C6-    N1-    H6
     4      6      7     14      9   180.00   4.39320   2 ;     C4-    C6-    N1-    H7
     5      6      4     11      9   180.00  15.16700   2 ;     C5-    C6-    C4-    H4
     5      6      7     13      9   180.00   4.39320   2 ;     C5-    C6-    N1-    H6
     5      6      7     14      9   180.00   4.39320   2 ;     C5-    C6-    N1-    H7
     6      4      2      9      9   180.00  15.16700   2 ;     C6-    C4-    C2-    H2
     6      5      3     10      9   180.00  15.16700   2 ;     C6-    C5-    C3-    H3
     7      6      4     11      9   180.00  15.16700   2 ;     N1-    C6-    C4-    H4
     7      6      5     12      9   180.00  15.16700   2 ;     N1-    C6-    C5-    H5
     8      1      2      4      9   180.00  15.16700   2 ;     H1-    C1-    C2-    C4
     8      1      2      9      9   180.00  15.16700   2 ;     H1-    C1-    C2-    H2
     8      1      3      5      9   180.00  15.16700   2 ;     H1-    C1-    C3-    C5
     8      1      3     10      9   180.00  15.16700   2 ;     H1-    C1-    C3-    H3
     9      2      4     11      9   180.00  15.16700   2 ;     H2-    C2-    C4-    H4
    10      3      5     12      9   180.00  15.16700   2 ;     H3-    C3-    C5-    H5

[ dihedrals ] ; impropers
; treated as propers in GROMACS to use correct AMBER analytical function
;    i      j      k      l   func   phase     kd      pn
     1      4      2      9      4   180.00   4.60240   2 ;     C1-    C4-    C2-    H2
     1      5      3     10      4   180.00   4.60240   2 ;     C1-    C5-    C3-    H3
     2      6      4     11      4   180.00   4.60240   2 ;     C2-    C6-    C4-    H4
     3      6      5     12      4   180.00   4.60240   2 ;     C3-    C6-    C5-    H5
     4      5      6      7      4   180.00   4.60240   2 ;     C4-    C5-    C6-    N1
     6     13      7     14      4   180.00   4.60240   2 ;     C6-    H6-    N1-    H7
     8      1      3      2      4   180.00   4.60240   2 ;     H1-    C1-    C3-    C2
