; mobley_4683624_GMX.itp created by acpype (v: 2023.10.27) on Thu May 21 00:11:08 2026

[ atomtypes ]
;name   bond_type     mass     charge   ptype   sigma         epsilon       Amb
 ca       ca          0.00000  0.00000   A     3.31521e-01   4.13379e-01 ; 1.86  0.0988
 c3       c3          0.00000  0.00000   A     3.39771e-01   4.51035e-01 ; 1.91  0.1078
 oh       oh          0.00000  0.00000   A     3.24287e-01   3.89112e-01 ; 1.82  0.0930
 ha       ha          0.00000  0.00000   A     2.62548e-01   6.73624e-02 ; 1.47  0.0161
 hc       hc          0.00000  0.00000   A     2.60018e-01   8.70272e-02 ; 1.46  0.0208
 ho       ho          0.00000  0.00000   A     5.37925e-02   1.96648e-02 ; 0.30  0.0047

[ moleculetype ]
;name            nrexcl
 mobley_4683624   3

[ atoms ]
;   nr  type  resi  res  atom  cgnr     charge      mass       ; qtot   bond_type
     1   ca     1   MOL    C1    1    -0.092000     12.01000 ; qtot -0.092
     2   ca     1   MOL    C2    2    -0.092000     12.01000 ; qtot -0.184
     3   ca     1   MOL    C3    3    -0.183000     12.01000 ; qtot -0.367
     4   ca     1   MOL    C4    4    -0.183000     12.01000 ; qtot -0.550
     5   ca     1   MOL    C5    5    -0.112300     12.01000 ; qtot -0.662
     6   ca     1   MOL    C6    6     0.120100     12.01000 ; qtot -0.542
     7   c3     1   MOL    C7    7    -0.094100     12.01000 ; qtot -0.636
     8   c3     1   MOL    C8    8    -0.032100     12.01000 ; qtot -0.668
     9   c3     1   MOL    C9    9    -0.077400     12.01000 ; qtot -0.746
    10   oh     1   MOL    O1   10    -0.499101     16.00000 ; qtot -1.245
    11   ha     1   MOL    H1   11     0.134000      1.00800 ; qtot -1.111
    12   ha     1   MOL    H2   12     0.134000      1.00800 ; qtot -0.977
    13   ha     1   MOL    H3   13     0.140500      1.00800 ; qtot -0.836
    14   ha     1   MOL    H4   14     0.140500      1.00800 ; qtot -0.696
    15   hc     1   MOL    H5   15     0.033367      1.00800 ; qtot -0.663
    16   hc     1   MOL    H6   16     0.033367      1.00800 ; qtot -0.629
    17   hc     1   MOL    H7   17     0.033367      1.00800 ; qtot -0.596
    18   hc     1   MOL    H8   18     0.046200      1.00800 ; qtot -0.550
    19   hc     1   MOL    H9   19     0.046200      1.00800 ; qtot -0.503
    20   hc     1   MOL   H10   20     0.042700      1.00800 ; qtot -0.461
    21   hc     1   MOL   H11   21     0.042700      1.00800 ; qtot -0.418
    22   ho     1   MOL   H12   22     0.418000      1.00800 ; qtot -0.000

[ bonds ]
;   ai     aj funct   r             k
     1      3   1    1.3986e-01    2.9644e+05 ;     C1 - C3    
     1      5   1    1.3986e-01    2.9644e+05 ;     C1 - C5    
     1     11   1    1.0860e-01    3.0183e+05 ;     C1 - H1    
     2      4   1    1.3986e-01    2.9644e+05 ;     C2 - C4    
     2      5   1    1.3986e-01    2.9644e+05 ;     C2 - C5    
     2     12   1    1.0860e-01    3.0183e+05 ;     C2 - H2    
     3      6   1    1.3986e-01    2.9644e+05 ;     C3 - C6    
     3     13   1    1.0860e-01    3.0183e+05 ;     C3 - H3    
     4      6   1    1.3986e-01    2.9644e+05 ;     C4 - C6    
     4     14   1    1.0860e-01    3.0183e+05 ;     C4 - H4    
     5      8   1    1.5147e-01    2.0410e+05 ;     C5 - C8    
     6     10   1    1.3644e-01    2.9167e+05 ;     C6 - O1    
     7      9   1    1.5354e-01    1.9154e+05 ;     C7 - C9    
     7     15   1    1.0962e-01    2.8891e+05 ;     C7 - H5    
     7     16   1    1.0962e-01    2.8891e+05 ;     C7 - H6    
     7     17   1    1.0962e-01    2.8891e+05 ;     C7 - H7    
     8      9   1    1.5354e-01    1.9154e+05 ;     C8 - C9    
     8     18   1    1.0962e-01    2.8891e+05 ;     C8 - H8    
     8     19   1    1.0962e-01    2.8891e+05 ;     C8 - H9    
     9     20   1    1.0962e-01    2.8891e+05 ;     C9 - H10   
     9     21   1    1.0962e-01    2.8891e+05 ;     C9 - H11   
    10     22   1    9.7250e-02    4.4811e+05 ;     O1 - H12   

[ pairs ]
;   ai     aj    funct
     1      4      1 ;     C1 - C4    
     1      9      1 ;     C1 - C9    
     1     10      1 ;     C1 - O1    
     1     12      1 ;     C1 - H2    
     1     18      1 ;     C1 - H8    
     1     19      1 ;     C1 - H9    
     2      3      1 ;     C2 - C3    
     2      9      1 ;     C2 - C9    
     2     10      1 ;     C2 - O1    
     2     18      1 ;     C2 - H8    
     2     19      1 ;     C2 - H9    
     3      8      1 ;     C3 - C8    
     3     14      1 ;     C3 - H4    
     3     22      1 ;     C3 - H12   
     4      8      1 ;     C4 - C8    
     4     13      1 ;     C4 - H3    
     4     22      1 ;     C4 - H12   
     5      6      1 ;     C5 - C6    
     5      7      1 ;     C5 - C7    
     5     13      1 ;     C5 - H3    
     5     14      1 ;     C5 - H4    
     5     20      1 ;     C5 - H10   
     5     21      1 ;     C5 - H11   
     6     12      1 ;     C6 - H2    
     7     18      1 ;     C7 - H8    
     7     19      1 ;     C7 - H9    
     8     12      1 ;     C8 - H2    
     8     15      1 ;     C8 - H5    
     8     16      1 ;     C8 - H6    
     8     17      1 ;     C8 - H7    
    10     13      1 ;     O1 - H3    
    10     14      1 ;     O1 - H4    
    11      2      1 ;     H1 - C2    
    11      6      1 ;     H1 - C6    
    11      8      1 ;     H1 - C8    
    11     13      1 ;     H1 - H3    
    12     14      1 ;     H2 - H4    
    15     20      1 ;     H5 - H10   
    15     21      1 ;     H5 - H11   
    16     20      1 ;     H6 - H10   
    16     21      1 ;     H6 - H11   
    17     20      1 ;     H7 - H10   
    17     21      1 ;     H7 - H11   
    18     20      1 ;     H8 - H10   
    18     21      1 ;     H8 - H11   
    19     20      1 ;     H9 - H10   
    19     21      1 ;     H9 - H11   

[ angles ]
;   ai     aj     ak    funct   theta         cth
     1      3      6      1    1.2002e+02    5.3279e+02 ;     C1 - C3     - C6    
     1      3     13      1    1.1988e+02    3.7572e+02 ;     C1 - C3     - H3    
     1      5      2      1    1.2002e+02    5.3279e+02 ;     C1 - C5     - C2    
     1      5      8      1    1.2083e+02    5.0827e+02 ;     C1 - C5     - C8    
     2      4      6      1    1.2002e+02    5.3279e+02 ;     C2 - C4     - C6    
     2      4     14      1    1.1988e+02    3.7572e+02 ;     C2 - C4     - H4    
     2      5      8      1    1.2083e+02    5.0827e+02 ;     C2 - C5     - C8    
     3      1      5      1    1.2002e+02    5.3279e+02 ;     C3 - C1     - C5    
     3      1     11      1    1.1988e+02    3.7572e+02 ;     C3 - C1     - H1    
     3      6      4      1    1.2002e+02    5.3279e+02 ;     C3 - C6     - C4    
     3      6     10      1    1.1990e+02    6.5990e+02 ;     C3 - C6     - O1    
     4      2      5      1    1.2002e+02    5.3279e+02 ;     C4 - C2     - C5    
     4      2     12      1    1.1988e+02    3.7572e+02 ;     C4 - C2     - H2    
     4      6     10      1    1.1990e+02    6.5990e+02 ;     C4 - C6     - O1    
     5      1     11      1    1.1988e+02    3.7572e+02 ;     C5 - C1     - H1    
     5      2     12      1    1.1988e+02    3.7572e+02 ;     C5 - C2     - H2    
     5      8      9      1    1.1242e+02    5.0484e+02 ;     C5 - C8     - C9    
     5      8     18      1    1.1063e+02    3.6493e+02 ;     C5 - C8     - H8    
     5      8     19      1    1.1063e+02    3.6493e+02 ;     C5 - C8     - H9    
     6      3     13      1    1.1988e+02    3.7572e+02 ;     C6 - C3     - H3    
     6      4     14      1    1.1988e+02    3.7572e+02 ;     C6 - C4     - H4    
     6     10     22      1    1.0858e+02    5.6409e+02 ;     C6 - O1     - H12   
     7      9      8      1    1.1263e+02    5.0099e+02 ;     C7 - C9     - C8    
     7      9     20      1    1.0968e+02    3.6208e+02 ;     C7 - C9     - H10   
     7      9     21      1    1.0968e+02    3.6208e+02 ;     C7 - C9     - H11   
     8      9     20      1    1.0968e+02    3.6208e+02 ;     C8 - C9     - H10   
     8      9     21      1    1.0968e+02    3.6208e+02 ;     C8 - C9     - H11   
     9      7     15      1    1.0968e+02    3.6208e+02 ;     C9 - C7     - H5    
     9      7     16      1    1.0968e+02    3.6208e+02 ;     C9 - C7     - H6    
     9      7     17      1    1.0968e+02    3.6208e+02 ;     C9 - C7     - H7    
     9      8     18      1    1.0968e+02    3.6208e+02 ;     C9 - C8     - H8    
     9      8     19      1    1.0968e+02    3.6208e+02 ;     C9 - C8     - H9    
    15      7     16      1    1.0773e+02    2.9957e+02 ;     H5 - C7     - H6    
    15      7     17      1    1.0773e+02    2.9957e+02 ;     H5 - C7     - H7    
    16      7     17      1    1.0773e+02    2.9957e+02 ;     H6 - C7     - H7    
    18      8     19      1    1.0773e+02    2.9957e+02 ;     H8 - C8     - H9    
    20      9     21      1    1.0773e+02    2.9957e+02 ;    H10 - C9     - H11   

[ dihedrals ] ; propers
; for gromacs 4.5 or higher, using funct 9
;    i      j      k      l   func   phase     kd      pn
     1      3      6      4      9   180.00  15.16700   2 ;     C1-    C3-    C6-    C4
     1      3      6     10      9   180.00  15.16700   2 ;     C1-    C3-    C6-    O1
     1      5      2      4      9   180.00  15.16700   2 ;     C1-    C5-    C2-    C4
     1      5      2     12      9   180.00  15.16700   2 ;     C1-    C5-    C2-    H2
     1      5      8      9      9   180.00   1.00416   2 ;     C1-    C5-    C8-    C9
     1      5      8     18      9     0.00   0.00000   0 ;     C1-    C5-    C8-    H8
     1      5      8     19      9     0.00   0.00000   0 ;     C1-    C5-    C8-    H9
     2      4      6      3      9   180.00  15.16700   2 ;     C2-    C4-    C6-    C3
     2      4      6     10      9   180.00  15.16700   2 ;     C2-    C4-    C6-    O1
     2      5      8      9      9   180.00   1.00416   2 ;     C2-    C5-    C8-    C9
     2      5      8     18      9     0.00   0.00000   0 ;     C2-    C5-    C8-    H8
     2      5      8     19      9     0.00   0.00000   0 ;     C2-    C5-    C8-    H9
     3      1      5      2      9   180.00  15.16700   2 ;     C3-    C1-    C5-    C2
     3      1      5      8      9   180.00  15.16700   2 ;     C3-    C1-    C5-    C8
     3      6      4     14      9   180.00  15.16700   2 ;     C3-    C6-    C4-    H4
     3      6     10     22      9   180.00   3.57732   2 ;     C3-    C6-    O1-   H12
     4      2      5      8      9   180.00  15.16700   2 ;     C4-    C2-    C5-    C8
     4      6      3     13      9   180.00  15.16700   2 ;     C4-    C6-    C3-    H3
     4      6     10     22      9   180.00   3.57732   2 ;     C4-    C6-    O1-   H12
     5      1      3      6      9   180.00  15.16700   2 ;     C5-    C1-    C3-    C6
     5      1      3     13      9   180.00  15.16700   2 ;     C5-    C1-    C3-    H3
     5      2      4      6      9   180.00  15.16700   2 ;     C5-    C2-    C4-    C6
     5      2      4     14      9   180.00  15.16700   2 ;     C5-    C2-    C4-    H4
     5      8      9      7      9     0.00   0.65084   3 ;     C5-    C8-    C9-    C7
     5      8      9     20      9     0.00   0.65084   3 ;     C5-    C8-    C9-   H10
     5      8      9     21      9     0.00   0.65084   3 ;     C5-    C8-    C9-   H11
     6      4      2     12      9   180.00  15.16700   2 ;     C6-    C4-    C2-    H2
     7      9      8     18      9     0.00   0.54392   3 ;     C7-    C9-    C8-    H8
     7      9      8     19      9     0.00   0.54392   3 ;     C7-    C9-    C8-    H9
     8      5      2     12      9   180.00  15.16700   2 ;     C8-    C5-    C2-    H2
     8      9      7     15      9     0.00   0.54392   3 ;     C8-    C9-    C7-    H5
     8      9      7     16      9     0.00   0.54392   3 ;     C8-    C9-    C7-    H6
     8      9      7     17      9     0.00   0.54392   3 ;     C8-    C9-    C7-    H7
    10      6      3     13      9   180.00  15.16700   2 ;     O1-    C6-    C3-    H3
    10      6      4     14      9   180.00  15.16700   2 ;     O1-    C6-    C4-    H4
    11      1      3      6      9   180.00  15.16700   2 ;     H1-    C1-    C3-    C6
    11      1      3     13      9   180.00  15.16700   2 ;     H1-    C1-    C3-    H3
    11      1      5      2      9   180.00  15.16700   2 ;     H1-    C1-    C5-    C2
    11      1      5      8      9   180.00  15.16700   2 ;     H1-    C1-    C5-    C8
    12      2      4     14      9   180.00  15.16700   2 ;     H2-    C2-    C4-    H4
    15      7      9     20      9     0.00   0.50208   3 ;     H5-    C7-    C9-   H10
    15      7      9     21      9     0.00   0.50208   3 ;     H5-    C7-    C9-   H11
    16      7      9     20      9     0.00   0.50208   3 ;     H6-    C7-    C9-   H10
    16      7      9     21      9     0.00   0.50208   3 ;     H6-    C7-    C9-   H11
    17      7      9     20      9     0.00   0.50208   3 ;     H7-    C7-    C9-   H10
    17      7      9     21      9     0.00   0.50208   3 ;     H7-    C7-    C9-   H11
    18      8      9     20      9     0.00   0.50208   3 ;     H8-    C8-    C9-   H10
    18      8      9     21      9     0.00   0.50208   3 ;     H8-    C8-    C9-   H11
    19      8      9     20      9     0.00   0.50208   3 ;     H9-    C8-    C9-   H10
    19      8      9     21      9     0.00   0.50208   3 ;     H9-    C8-    C9-   H11

[ dihedrals ] ; impropers
; treated as propers in GROMACS to use correct AMBER analytical function
;    i      j      k      l   func   phase     kd      pn
     1      2      5      8      4   180.00   4.60240   2 ;     C1-    C2-    C5-    C8
     1      6      3     13      4   180.00   4.60240   2 ;     C1-    C6-    C3-    H3
     2      6      4     14      4   180.00   4.60240   2 ;     C2-    C6-    C4-    H4
     3      4      6     10      4   180.00   4.60240   2 ;     C3-    C4-    C6-    O1
     4      5      2     12      4   180.00   4.60240   2 ;     C4-    C5-    C2-    H2
    11      1      5      3      4   180.00   4.60240   2 ;     H1-    C1-    C5-    C3
