; mobley_1899443_GMX.itp created by acpype (v: 2023.10.27) on Thu May 21 00:06:55 2026

[ atomtypes ]
;name   bond_type     mass     charge   ptype   sigma         epsilon       Amb
 c2       c2          0.00000  0.00000   A     3.31521e-01   4.13379e-01 ; 1.86  0.0988
 c3       c3          0.00000  0.00000   A     3.39771e-01   4.51035e-01 ; 1.91  0.1078
 ha       ha          0.00000  0.00000   A     2.62548e-01   6.73624e-02 ; 1.47  0.0161
 hc       hc          0.00000  0.00000   A     2.60018e-01   8.70272e-02 ; 1.46  0.0208

[ moleculetype ]
;name            nrexcl
 mobley_1899443   3

[ atoms ]
;   nr  type  resi  res  atom  cgnr     charge      mass       ; qtot   bond_type
     1   c2     1   MOL    C1    1    -0.227000     12.01000 ; qtot -0.227
     2   c2     1   MOL    C2    2    -0.113400     12.01000 ; qtot -0.340
     3   c3     1   MOL    C3    3    -0.060900     12.01000 ; qtot -0.401
     4   c3     1   MOL    C4    4    -0.093100     12.01000 ; qtot -0.494
     5   c3     1   MOL    C5    5    -0.046200     12.01000 ; qtot -0.541
     6   c3     1   MOL    C6    6    -0.076400     12.01000 ; qtot -0.617
     7   ha     1   MOL    H1    7     0.111000      1.00800 ; qtot -0.506
     8   ha     1   MOL    H2    8     0.111000      1.00800 ; qtot -0.395
     9   hc     1   MOL    H3    9     0.041367      1.00800 ; qtot -0.354
    10   hc     1   MOL    H4   10     0.041367      1.00800 ; qtot -0.312
    11   hc     1   MOL    H5   11     0.041367      1.00800 ; qtot -0.271
    12   hc     1   MOL    H6   12     0.033033      1.00800 ; qtot -0.238
    13   hc     1   MOL    H7   13     0.033033      1.00800 ; qtot -0.205
    14   hc     1   MOL    H8   14     0.033033      1.00800 ; qtot -0.172
    15   hc     1   MOL    H9   15     0.044700      1.00800 ; qtot -0.127
    16   hc     1   MOL   H10   16     0.044700      1.00800 ; qtot -0.082
    17   hc     1   MOL   H11   17     0.041200      1.00800 ; qtot -0.041
    18   hc     1   MOL   H12   18     0.041200      1.00800 ; qtot 0.000

[ bonds ]
;   ai     aj funct   r             k
     1      2   1    1.3379e-01    3.6484e+05 ;     C1 - C2    
     1      7   1    1.0882e-01    2.9898e+05 ;     C1 - H1    
     1      8   1    1.0882e-01    2.9898e+05 ;     C1 - H2    
     2      3   1    1.5088e-01    2.0786e+05 ;     C2 - C3    
     2      5   1    1.5088e-01    2.0786e+05 ;     C2 - C5    
     3      9   1    1.0962e-01    2.8891e+05 ;     C3 - H3    
     3     10   1    1.0962e-01    2.8891e+05 ;     C3 - H4    
     3     11   1    1.0962e-01    2.8891e+05 ;     C3 - H5    
     4      6   1    1.5354e-01    1.9154e+05 ;     C4 - C6    
     4     12   1    1.0962e-01    2.8891e+05 ;     C4 - H6    
     4     13   1    1.0962e-01    2.8891e+05 ;     C4 - H7    
     4     14   1    1.0962e-01    2.8891e+05 ;     C4 - H8    
     5      6   1    1.5354e-01    1.9154e+05 ;     C5 - C6    
     5     15   1    1.0962e-01    2.8891e+05 ;     C5 - H9    
     5     16   1    1.0962e-01    2.8891e+05 ;     C5 - H10   
     6     17   1    1.0962e-01    2.8891e+05 ;     C6 - H11   
     6     18   1    1.0962e-01    2.8891e+05 ;     C6 - H12   

[ pairs ]
;   ai     aj    funct
     1      6      1 ;     C1 - C6    
     1      9      1 ;     C1 - H3    
     1     10      1 ;     C1 - H4    
     1     11      1 ;     C1 - H5    
     1     15      1 ;     C1 - H9    
     1     16      1 ;     C1 - H10   
     2      4      1 ;     C2 - C4    
     2     17      1 ;     C2 - H11   
     2     18      1 ;     C2 - H12   
     3      6      1 ;     C3 - C6    
     3     15      1 ;     C3 - H9    
     3     16      1 ;     C3 - H10   
     4     15      1 ;     C4 - H9    
     4     16      1 ;     C4 - H10   
     5      9      1 ;     C5 - H3    
     5     10      1 ;     C5 - H4    
     5     11      1 ;     C5 - H5    
     5     12      1 ;     C5 - H6    
     5     13      1 ;     C5 - H7    
     5     14      1 ;     C5 - H8    
     7      3      1 ;     H1 - C3    
     7      5      1 ;     H1 - C5    
     8      3      1 ;     H2 - C3    
     8      5      1 ;     H2 - C5    
    12     17      1 ;     H6 - H11   
    12     18      1 ;     H6 - H12   
    13     17      1 ;     H7 - H11   
    13     18      1 ;     H7 - H12   
    14     17      1 ;     H8 - H11   
    14     18      1 ;     H8 - H12   
    15     17      1 ;     H9 - H11   
    15     18      1 ;     H9 - H12   
    16     17      1 ;    H10 - H11   
    16     18      1 ;    H10 - H12   

[ angles ]
;   ai     aj     ak    funct   theta         cth
     1      2      3      1    1.2495e+02    5.0944e+02 ;     C1 - C2     - C3    
     1      2      5      1    1.2495e+02    5.0944e+02 ;     C1 - C2     - C5    
     2      1      7      1    1.2039e+02    3.8802e+02 ;     C2 - C1     - H1    
     2      1      8      1    1.2039e+02    3.8802e+02 ;     C2 - C1     - H2    
     2      3      9      1    1.1065e+02    3.6618e+02 ;     C2 - C3     - H3    
     2      3     10      1    1.1065e+02    3.6618e+02 ;     C2 - C3     - H4    
     2      3     11      1    1.1065e+02    3.6618e+02 ;     C2 - C3     - H5    
     2      5      6      1    1.1258e+02    5.0543e+02 ;     C2 - C5     - C6    
     2      5     15      1    1.1065e+02    3.6618e+02 ;     C2 - C5     - H9    
     2      5     16      1    1.1065e+02    3.6618e+02 ;     C2 - C5     - H10   
     3      2      5      1    1.1501e+02    5.0459e+02 ;     C3 - C2     - C5    
     4      6      5      1    1.1263e+02    5.0099e+02 ;     C4 - C6     - C5    
     4      6     17      1    1.0968e+02    3.6208e+02 ;     C4 - C6     - H11   
     4      6     18      1    1.0968e+02    3.6208e+02 ;     C4 - C6     - H12   
     5      6     17      1    1.0968e+02    3.6208e+02 ;     C5 - C6     - H11   
     5      6     18      1    1.0968e+02    3.6208e+02 ;     C5 - C6     - H12   
     6      4     12      1    1.0968e+02    3.6208e+02 ;     C6 - C4     - H6    
     6      4     13      1    1.0968e+02    3.6208e+02 ;     C6 - C4     - H7    
     6      4     14      1    1.0968e+02    3.6208e+02 ;     C6 - C4     - H8    
     6      5     15      1    1.0968e+02    3.6208e+02 ;     C6 - C5     - H9    
     6      5     16      1    1.0968e+02    3.6208e+02 ;     C6 - C5     - H10   
     7      1      8      1    1.1666e+02    2.9003e+02 ;     H1 - C1     - H2    
     9      3     10      1    1.0773e+02    2.9957e+02 ;     H3 - C3     - H4    
     9      3     11      1    1.0773e+02    2.9957e+02 ;     H3 - C3     - H5    
    10      3     11      1    1.0773e+02    2.9957e+02 ;     H4 - C3     - H5    
    12      4     13      1    1.0773e+02    2.9957e+02 ;     H6 - C4     - H7    
    12      4     14      1    1.0773e+02    2.9957e+02 ;     H6 - C4     - H8    
    13      4     14      1    1.0773e+02    2.9957e+02 ;     H7 - C4     - H8    
    15      5     16      1    1.0773e+02    2.9957e+02 ;     H9 - C5     - H10   
    17      6     18      1    1.0773e+02    2.9957e+02 ;    H11 - C6     - H12   

[ dihedrals ] ; propers
; for gromacs 4.5 or higher, using funct 9
;    i      j      k      l   func   phase     kd      pn
     1      2      3      9      9   180.00   1.08784   3 ;     C1-    C2-    C3-    H3
     1      2      3     10      9   180.00   1.08784   3 ;     C1-    C2-    C3-    H4
     1      2      3     11      9   180.00   1.08784   3 ;     C1-    C2-    C3-    H5
     1      2      5      6      9     0.00   0.00000   0 ;     C1-    C2-    C5-    C6
     1      2      5     15      9     0.00   0.00000   0 ;     C1-    C2-    C5-    H9
     1      2      5     15      9   180.00   1.08784   3 ;     C1-    C2-    C5-    H9
     1      2      5     16      9     0.00   0.00000   0 ;     C1-    C2-    C5-   H10
     1      2      5     16      9   180.00   1.08784   3 ;     C1-    C2-    C5-   H10
     2      5      6      4      9     0.00   0.65084   3 ;     C2-    C5-    C6-    C4
     2      5      6     17      9     0.00   0.65084   3 ;     C2-    C5-    C6-   H11
     2      5      6     18      9     0.00   0.65084   3 ;     C2-    C5-    C6-   H12
     3      2      5      6      9     0.00   0.00000   0 ;     C3-    C2-    C5-    C6
     3      2      5     15      9     0.00   0.62760   3 ;     C3-    C2-    C5-    H9
     3      2      5     16      9     0.00   0.62760   3 ;     C3-    C2-    C5-   H10
     4      6      5     15      9     0.00   0.54392   3 ;     C4-    C6-    C5-    H9
     4      6      5     16      9     0.00   0.54392   3 ;     C4-    C6-    C5-   H10
     5      2      3      9      9     0.00   0.62760   3 ;     C5-    C2-    C3-    H3
     5      2      3     10      9     0.00   0.62760   3 ;     C5-    C2-    C3-    H4
     5      2      3     11      9     0.00   0.62760   3 ;     C5-    C2-    C3-    H5
     5      6      4     12      9     0.00   0.54392   3 ;     C5-    C6-    C4-    H6
     5      6      4     13      9     0.00   0.54392   3 ;     C5-    C6-    C4-    H7
     5      6      4     14      9     0.00   0.54392   3 ;     C5-    C6-    C4-    H8
     7      1      2      3      9   180.00  27.82360   2 ;     H1-    C1-    C2-    C3
     7      1      2      5      9   180.00  27.82360   2 ;     H1-    C1-    C2-    C5
     8      1      2      3      9   180.00  27.82360   2 ;     H2-    C1-    C2-    C3
     8      1      2      5      9   180.00  27.82360   2 ;     H2-    C1-    C2-    C5
    12      4      6     17      9     0.00   0.50208   3 ;     H6-    C4-    C6-   H11
    12      4      6     18      9     0.00   0.50208   3 ;     H6-    C4-    C6-   H12
    13      4      6     17      9     0.00   0.50208   3 ;     H7-    C4-    C6-   H11
    13      4      6     18      9     0.00   0.50208   3 ;     H7-    C4-    C6-   H12
    14      4      6     17      9     0.00   0.50208   3 ;     H8-    C4-    C6-   H11
    14      4      6     18      9     0.00   0.50208   3 ;     H8-    C4-    C6-   H12
    15      5      6     17      9     0.00   0.50208   3 ;     H9-    C5-    C6-   H11
    15      5      6     18      9     0.00   0.50208   3 ;     H9-    C5-    C6-   H12
    16      5      6     17      9     0.00   0.50208   3 ;    H10-    C5-    C6-   H11
    16      5      6     18      9     0.00   0.50208   3 ;    H10-    C5-    C6-   H12

[ dihedrals ] ; impropers
; treated as propers in GROMACS to use correct AMBER analytical function
;    i      j      k      l   func   phase     kd      pn
     1      3      2      5      4   180.00   4.60240   2 ;     C1-    C3-    C2-    C5
     8      1      7      2      4   180.00   4.60240   2 ;     H2-    C1-    H1-    C2
