; mobley_1659169_GMX.top created by acpype (v: 2023.10.27) on Thu May 21 00:12:21 2026

[ defaults ]
; nbfunc        comb-rule       gen-pairs       fudgeLJ fudgeQQ
1               2               yes             0.5     0.8333333333

; Include mobley_1659169_GMX.itp topology
#include "mobley_1659169_GMX.itp"

; Ligand position restraints
#ifdef POSRES_LIG
#include "posre_mobley_1659169.itp"
#endif


#include "/home/carla/github/Solvation-openMM/DADES/common/SOL.TIP3P.itp"

[ system ]
mobley_1659169 in water

[ molecules ]
; Compound        nmols
 mobley_1659169   1     
SOL 796
