; mobley_6688723_GMX.itp created by acpype (v: 2023.10.27) on Thu May 21 00:26:56 2026

[ atomtypes ]
;name   bond_type     mass     charge   ptype   sigma         epsilon       Amb
 ca       ca          0.00000  0.00000   A     3.31521e-01   4.13379e-01 ; 1.86  0.0988
 c3       c3          0.00000  0.00000   A     3.39771e-01   4.51035e-01 ; 1.91  0.1078
 oh       oh          0.00000  0.00000   A     3.24287e-01   3.89112e-01 ; 1.82  0.0930
 os       os          0.00000  0.00000   A     3.15610e-01   3.03758e-01 ; 1.77  0.0726
 cl       cl          0.00000  0.00000   A     3.46595e-01   1.10374e+00 ; 1.95  0.2638
 ha       ha          0.00000  0.00000   A     2.62548e-01   6.73624e-02 ; 1.47  0.0161
 h1       h1          0.00000  0.00000   A     2.42200e-01   8.70272e-02 ; 1.36  0.0208
 ho       ho          0.00000  0.00000   A     5.37925e-02   1.96648e-02 ; 0.30  0.0047

[ moleculetype ]
;name            nrexcl
 mobley_6688723   3

[ atoms ]
;   nr  type  resi  res  atom  cgnr     charge      mass       ; qtot   bond_type
     1   ca     1   MOL    C1    1    -0.141000     12.01000 ; qtot -0.141
     2   ca     1   MOL    C2    2     0.111100     12.01000 ; qtot -0.030
     3   ca     1   MOL    C3    3     0.052600     12.01000 ; qtot 0.023
     4   ca     1   MOL    C4    4     0.052600     12.01000 ; qtot 0.075
     5   ca     1   MOL    C5    5     0.034900     12.01000 ; qtot 0.110
     6   ca     1   MOL    C6    6     0.034900     12.01000 ; qtot 0.145
     7   c3     1   MOL    C7    7     0.111200     12.01000 ; qtot 0.256
     8   c3     1   MOL    C8    8     0.111200     12.01000 ; qtot 0.367
     9   oh     1   MOL    O1    9    -0.487098     16.00000 ; qtot -0.120
    10   os     1   MOL    O2   10    -0.325900     16.00000 ; qtot -0.445
    11   os     1   MOL    O3   11    -0.325900     16.00000 ; qtot -0.771
    12   cl     1   MOL   CL1   12    -0.061400     35.45000 ; qtot -0.833
    13   cl     1   MOL   CL2   13    -0.061400     35.45000 ; qtot -0.894
    14   ha     1   MOL    H1   14     0.166000      1.00800 ; qtot -0.728
    15   h1     1   MOL    H2   15     0.048033      1.00800 ; qtot -0.680
    16   h1     1   MOL    H3   16     0.048033      1.00800 ; qtot -0.632
    17   h1     1   MOL    H4   17     0.048033      1.00800 ; qtot -0.584
    18   h1     1   MOL    H5   18     0.048033      1.00800 ; qtot -0.536
    19   h1     1   MOL    H6   19     0.048033      1.00800 ; qtot -0.488
    20   h1     1   MOL    H7   20     0.048033      1.00800 ; qtot -0.440
    21   ho     1   MOL    H8   21     0.440000      1.00800 ; qtot 0.000

[ bonds ]
;   ai     aj funct   r             k
     1      5   1    1.3986e-01    2.9644e+05 ;     C1 - C5    
     1      6   1    1.3986e-01    2.9644e+05 ;     C1 - C6    
     1     14   1    1.0860e-01    3.0183e+05 ;     C1 - H1    
     2      3   1    1.3986e-01    2.9644e+05 ;     C2 - C3    
     2      4   1    1.3986e-01    2.9644e+05 ;     C2 - C4    
     2      9   1    1.3644e-01    2.9167e+05 ;     C2 - O1    
     3      5   1    1.3986e-01    2.9644e+05 ;     C3 - C5    
     3     10   1    1.3688e-01    2.8731e+05 ;     C3 - O2    
     4      6   1    1.3986e-01    2.9644e+05 ;     C4 - C6    
     4     11   1    1.3688e-01    2.8731e+05 ;     C4 - O3    
     5     12   1    1.7572e-01    1.5730e+05 ;     C5 - CL1   
     6     13   1    1.7572e-01    1.5730e+05 ;     C6 - CL2   
     7     10   1    1.4273e-01    2.3620e+05 ;     C7 - O2    
     7     15   1    1.0969e-01    2.8804e+05 ;     C7 - H2    
     7     16   1    1.0969e-01    2.8804e+05 ;     C7 - H3    
     7     17   1    1.0969e-01    2.8804e+05 ;     C7 - H4    
     8     11   1    1.4273e-01    2.3620e+05 ;     C8 - O3    
     8     18   1    1.0969e-01    2.8804e+05 ;     C8 - H5    
     8     19   1    1.0969e-01    2.8804e+05 ;     C8 - H6    
     8     20   1    1.0969e-01    2.8804e+05 ;     C8 - H7    
     9     21   1    9.7250e-02    4.4811e+05 ;     O1 - H8    

[ pairs ]
;   ai     aj    funct
     1      2      1 ;     C1 - C2    
     1     10      1 ;     C1 - O2    
     1     11      1 ;     C1 - O3    
     2      7      1 ;     C2 - C7    
     2      8      1 ;     C2 - C8    
     2     12      1 ;     C2 - CL1   
     2     13      1 ;     C2 - CL2   
     3      6      1 ;     C3 - C6    
     3     11      1 ;     C3 - O3    
     3     15      1 ;     C3 - H2    
     3     16      1 ;     C3 - H3    
     3     17      1 ;     C3 - H4    
     3     21      1 ;     C3 - H8    
     4      5      1 ;     C4 - C5    
     4     10      1 ;     C4 - O2    
     4     18      1 ;     C4 - H5    
     4     19      1 ;     C4 - H6    
     4     20      1 ;     C4 - H7    
     4     21      1 ;     C4 - H8    
     5      7      1 ;     C5 - C7    
     5      9      1 ;     C5 - O1    
     5     13      1 ;     C5 - CL2   
     6      8      1 ;     C6 - C8    
     6      9      1 ;     C6 - O1    
     6     12      1 ;     C6 - CL1   
     9     10      1 ;     O1 - O2    
     9     11      1 ;     O1 - O3    
    10     12      1 ;     O2 - CL1   
    11     13      1 ;     O3 - CL2   
    14      3      1 ;     H1 - C3    
    14      4      1 ;     H1 - C4    
    14     12      1 ;     H1 - CL1   
    14     13      1 ;     H1 - CL2   

[ angles ]
;   ai     aj     ak    funct   theta         cth
     1      5      3      1    1.2002e+02    5.3279e+02 ;     C1 - C5     - C3    
     1      5     12      1    1.1938e+02    5.3605e+02 ;     C1 - C5     - CL1   
     1      6      4      1    1.2002e+02    5.3279e+02 ;     C1 - C6     - C4    
     1      6     13      1    1.1938e+02    5.3605e+02 ;     C1 - C6     - CL2   
     2      3      5      1    1.2002e+02    5.3279e+02 ;     C2 - C3     - C5    
     2      3     10      1    1.1911e+02    6.6107e+02 ;     C2 - C3     - O2    
     2      4      6      1    1.2002e+02    5.3279e+02 ;     C2 - C4     - C6    
     2      4     11      1    1.1911e+02    6.6107e+02 ;     C2 - C4     - O3    
     2      9     21      1    1.0858e+02    5.6409e+02 ;     C2 - O1     - H8    
     3      2      4      1    1.2002e+02    5.3279e+02 ;     C3 - C2     - C4    
     3      2      9      1    1.1990e+02    6.5990e+02 ;     C3 - C2     - O1    
     3      5     12      1    1.1938e+02    5.3605e+02 ;     C3 - C5     - CL1   
     3     10      7      1    1.1839e+02    7.3856e+02 ;     C3 - O2     - C7    
     4      2      9      1    1.1990e+02    6.5990e+02 ;     C4 - C2     - O1    
     4      6     13      1    1.1938e+02    5.3605e+02 ;     C4 - C6     - CL2   
     4     11      8      1    1.1839e+02    7.3856e+02 ;     C4 - O3     - C8    
     5      1      6      1    1.2002e+02    5.3279e+02 ;     C5 - C1     - C6    
     5      1     14      1    1.1988e+02    3.7572e+02 ;     C5 - C1     - H1    
     5      3     10      1    1.1911e+02    6.6107e+02 ;     C5 - C3     - O2    
     6      1     14      1    1.1988e+02    3.7572e+02 ;     C6 - C1     - H1    
     6      4     11      1    1.1911e+02    6.6107e+02 ;     C6 - C4     - O3    
    10      7     15      1    1.1034e+02    4.7028e+02 ;     O2 - C7     - H2    
    10      7     16      1    1.1034e+02    4.7028e+02 ;     O2 - C7     - H3    
    10      7     17      1    1.1034e+02    4.7028e+02 ;     O2 - C7     - H4    
    11      8     18      1    1.1034e+02    4.7028e+02 ;     O3 - C8     - H5    
    11      8     19      1    1.1034e+02    4.7028e+02 ;     O3 - C8     - H6    
    11      8     20      1    1.1034e+02    4.7028e+02 ;     O3 - C8     - H7    
    15      7     16      1    1.0855e+02    2.9824e+02 ;     H2 - C7     - H3    
    15      7     17      1    1.0855e+02    2.9824e+02 ;     H2 - C7     - H4    
    16      7     17      1    1.0855e+02    2.9824e+02 ;     H3 - C7     - H4    
    18      8     19      1    1.0855e+02    2.9824e+02 ;     H5 - C8     - H6    
    18      8     20      1    1.0855e+02    2.9824e+02 ;     H5 - C8     - H7    
    19      8     20      1    1.0855e+02    2.9824e+02 ;     H6 - C8     - H7    

[ dihedrals ] ; propers
; for gromacs 4.5 or higher, using funct 9
;    i      j      k      l   func   phase     kd      pn
     1      5      3      2      9   180.00  15.16700   2 ;     C1-    C5-    C3-    C2
     1      5      3     10      9   180.00  15.16700   2 ;     C1-    C5-    C3-    O2
     1      6      4      2      9   180.00  15.16700   2 ;     C1-    C6-    C4-    C2
     1      6      4     11      9   180.00  15.16700   2 ;     C1-    C6-    C4-    O3
     2      3      5     12      9   180.00  15.16700   2 ;     C2-    C3-    C5-   CL1
     2      3     10      7      9   180.00   6.94544   2 ;     C2-    C3-    O2-    C7
     2      4      6     13      9   180.00  15.16700   2 ;     C2-    C4-    C6-   CL2
     2      4     11      8      9   180.00   6.94544   2 ;     C2-    C4-    O3-    C8
     3      2      4      6      9   180.00  15.16700   2 ;     C3-    C2-    C4-    C6
     3      2      4     11      9   180.00  15.16700   2 ;     C3-    C2-    C4-    O3
     3      2      9     21      9   180.00   3.57732   2 ;     C3-    C2-    O1-    H8
     3     10      7     15      9     0.00   1.60387   3 ;     C3-    O2-    C7-    H2
     3     10      7     16      9     0.00   1.60387   3 ;     C3-    O2-    C7-    H3
     3     10      7     17      9     0.00   1.60387   3 ;     C3-    O2-    C7-    H4
     4      2      3      5      9   180.00  15.16700   2 ;     C4-    C2-    C3-    C5
     4      2      3     10      9   180.00  15.16700   2 ;     C4-    C2-    C3-    O2
     4      2      9     21      9   180.00   3.57732   2 ;     C4-    C2-    O1-    H8
     4     11      8     18      9     0.00   1.60387   3 ;     C4-    O3-    C8-    H5
     4     11      8     19      9     0.00   1.60387   3 ;     C4-    O3-    C8-    H6
     4     11      8     20      9     0.00   1.60387   3 ;     C4-    O3-    C8-    H7
     5      1      6      4      9   180.00  15.16700   2 ;     C5-    C1-    C6-    C4
     5      1      6     13      9   180.00  15.16700   2 ;     C5-    C1-    C6-   CL2
     5      3      2      9      9   180.00  15.16700   2 ;     C5-    C3-    C2-    O1
     5      3     10      7      9   180.00   6.94544   2 ;     C5-    C3-    O2-    C7
     6      1      5      3      9   180.00  15.16700   2 ;     C6-    C1-    C5-    C3
     6      1      5     12      9   180.00  15.16700   2 ;     C6-    C1-    C5-   CL1
     6      4      2      9      9   180.00  15.16700   2 ;     C6-    C4-    C2-    O1
     6      4     11      8      9   180.00   6.94544   2 ;     C6-    C4-    O3-    C8
     9      2      3     10      9   180.00  15.16700   2 ;     O1-    C2-    C3-    O2
     9      2      4     11      9   180.00  15.16700   2 ;     O1-    C2-    C4-    O3
    10      3      5     12      9   180.00  15.16700   2 ;     O2-    C3-    C5-   CL1
    11      4      6     13      9   180.00  15.16700   2 ;     O3-    C4-    C6-   CL2
    14      1      5      3      9   180.00  15.16700   2 ;     H1-    C1-    C5-    C3
    14      1      5     12      9   180.00  15.16700   2 ;     H1-    C1-    C5-   CL1
    14      1      6      4      9   180.00  15.16700   2 ;     H1-    C1-    C6-    C4
    14      1      6     13      9   180.00  15.16700   2 ;     H1-    C1-    C6-   CL2

[ dihedrals ] ; impropers
; treated as propers in GROMACS to use correct AMBER analytical function
;    i      j      k      l   func   phase     kd      pn
     1      3      5     12      4   180.00   4.60240   2 ;     C1-    C3-    C5-   CL1
     1      4      6     13      4   180.00   4.60240   2 ;     C1-    C4-    C6-   CL2
     2      5      3     10      4   180.00   4.60240   2 ;     C2-    C5-    C3-    O2
     2      6      4     11      4   180.00   4.60240   2 ;     C2-    C6-    C4-    O3
     3      4      2      9      4   180.00   4.60240   2 ;     C3-    C4-    C2-    O1
    14      1      6      5      4   180.00   4.60240   2 ;     H1-    C1-    C6-    C5
