; mobley_8785107_GMX.top created by acpype (v: 2023.10.27) on Thu May 21 00:14:42 2026

[ defaults ]
; nbfunc        comb-rule       gen-pairs       fudgeLJ fudgeQQ
1               2               yes             0.5     0.8333333333

; Include mobley_8785107_GMX.itp topology
#include "mobley_8785107_GMX.itp"

; Ligand position restraints
#ifdef POSRES_LIG
#include "posre_mobley_8785107.itp"
#endif


#include "/home/carla/github/Solvation-openMM/DADES/common/SOL.TIP3P.itp"

[ system ]
mobley_8785107 in water

[ molecules ]
; Compound        nmols
 mobley_8785107   1     
SOL 792
