mobley_2261979_GMX.gro created by acpype (v: 2023.10.27) on Wed May 20 23:46:14 2026
 2392
    1MOL     C1    1   2.601   2.474   2.308
    1MOL     C2    2   2.115   2.478   2.307
    1MOL     C3    3   2.485   2.548   2.279
    1MOL     C4    4   2.232   2.550   2.278
    1MOL     C5    5   2.594   2.344   2.361
    1MOL     C6    6   2.120   2.348   2.360
    1MOL     C7    7   2.358   2.491   2.302
    1MOL     C8    8   2.357   2.362   2.354
    1MOL     C9    9   2.469   2.289   2.384
    1MOL    C10   10   2.244   2.290   2.383
    1MOL    C11   11   2.433   2.154   2.438
    1MOL    C12   12   2.278   2.155   2.438
    1MOL     H1   13   2.699   2.519   2.290
    1MOL     H2   14   2.018   2.524   2.289
    1MOL     H3   15   2.494   2.648   2.238
    1MOL     H4   16   2.225   2.650   2.237
    1MOL     H5   17   2.685   2.289   2.383
    1MOL     H6   18   2.029   2.294   2.382
    1MOL     H7   19   2.472   2.074   2.374
    1MOL     H8   20   2.472   2.141   2.540
    1MOL     H9   21   2.239   2.143   2.540
    1MOL    H10   22   2.239   2.075   2.374
   14SOL     OW   23   1.460   1.505   1.339
   14SOL    HW1   24   1.484   1.599   1.365
   14SOL    HW2   25   1.444   1.451   1.421
   18SOL     OW   26   1.127   1.341   1.690
   18SOL    HW1   27   1.174   1.341   1.778
   18SOL    HW2   28   1.079   1.254   1.679
   35SOL     OW   29   1.187   1.792   1.616
   35SOL    HW1   30   1.211   1.852   1.540
   35SOL    HW2   31   1.194   1.697   1.586
   56SOL     OW   32   1.227   1.550   1.506
   56SOL    HW1   33   1.233   1.473   1.570
   56SOL    HW2   34   1.175   1.524   1.426
   95SOL     OW   35   1.754   1.223   1.588
   95SOL    HW1   36   1.845   1.184   1.575
   95SOL    HW2   37   1.762   1.319   1.612
   97SOL     OW   38   1.592   1.629   1.625
   97SOL    HW1   39   1.619   1.663   1.535
   97SOL    HW2   40   1.671   1.591   1.671
  122SOL     OW   41   1.728   0.935   1.854
  122SOL    HW1   42   1.682   0.928   1.765
  122SOL    HW2   43   1.666   0.979   1.920
  126SOL     OW   44   0.980   1.573   1.700
  126SOL    HW1   45   0.960   1.617   1.612
  126SOL    HW2   46   1.019   1.482   1.684
  127SOL     OW   47   1.859   1.518   1.605
  127SOL    HW1   48   1.873   1.545   1.510
  127SOL    HW2   49   1.942   1.540   1.658
  152SOL     OW   50   1.759   1.747   1.154
  152SOL    HW1   51   1.820   1.777   1.081
  152SOL    HW2   52   1.721   1.658   1.132
  153SOL     OW   53   1.252   1.731   1.128
  153SOL    HW1   54   1.336   1.736   1.074
  153SOL    HW2   55   1.229   1.635   1.146
  163SOL     OW   56   1.650   1.720   1.394
  163SOL    HW1   57   1.703   1.730   1.310
  163SOL    HW2   58   1.623   1.810   1.428
  171SOL     OW   59   1.614   1.292   1.289
  171SOL    HW1   60   1.674   1.295   1.369
  171SOL    HW2   61   1.539   1.356   1.302
  184SOL     OW   62   1.493   1.767   0.959
  184SOL    HW1   63   1.526   1.831   0.890
  184SOL    HW2   64   1.559   1.761   1.034
  186SOL     OW   65   1.450   1.220   1.633
  186SOL    HW1   66   1.441   1.210   1.732
  186SOL    HW2   67   1.546   1.213   1.607
  192SOL     OW   68   1.730   0.934   1.517
  192SOL    HW1   69   1.768   1.025   1.532
  192SOL    HW2   70   1.722   0.917   1.418
  197SOL     OW   71   1.861   1.569   0.851
  197SOL    HW1   72   1.790   1.557   0.781
  197SOL    HW2   73   1.862   1.490   0.911
  203SOL     OW   74   1.705   1.487   1.104
  203SOL    HW1   75   1.612   1.462   1.077
  203SOL    HW2   76   1.731   1.437   1.186
  219SOL     OW   77   1.555   1.511   2.565
  219SOL    HW1   78   1.498   1.495   2.646
  219SOL    HW2   79   1.496   1.521   2.485
  227SOL     OW   80   1.460   1.505   3.201
  227SOL    HW1   81   1.484   1.599   3.227
  227SOL    HW2   82   1.444   1.451   3.283
  238SOL     OW   83   1.842   1.767   2.221
  238SOL    HW1   84   1.896   1.738   2.301
  238SOL    HW2   85   1.872   1.857   2.192
  240SOL     OW   86   1.689   0.922   2.474
  240SOL    HW1   87   1.784   0.893   2.482
  240SOL    HW2   88   1.681   0.987   2.399
  241SOL     OW   89   1.641   1.108   2.294
  241SOL    HW1   90   1.727   1.110   2.242
  241SOL    HW2   91   1.655   1.155   2.382
  247SOL     OW   92   1.525   0.999   2.052
  247SOL    HW1   93   1.462   0.923   2.065
  247SOL    HW2   94   1.573   1.017   2.138
  248SOL     OW   95   1.187   1.792   3.478
  248SOL    HW1   96   1.211   1.852   3.402
  248SOL    HW2   97   1.194   1.697   3.448
  250SOL     OW   98   1.466   1.417   2.815
  250SOL    HW1   99   1.407   1.423   2.895
  250SOL    HW2  100   1.451   1.329   2.769
  251SOL     OW  101   1.667   1.714   2.434
  251SOL    HW1  102   1.626   1.691   2.346
  251SOL    HW2  103   1.649   1.640   2.499
  254SOL     OW  104   1.576   1.662   2.169
  254SOL    HW1  105   1.665   1.708   2.172
  254SOL    HW2  106   1.555   1.638   2.074
  264SOL     OW  107   1.362   1.144   2.407
  264SOL    HW1  108   1.445   1.115   2.359
  264SOL    HW2  109   1.313   1.211   2.351
  266SOL     OW  110   1.008   1.456   2.339
  266SOL    HW1  111   0.962   1.528   2.287
  266SOL    HW2  112   1.004   1.476   2.437
  268SOL     OW  113   1.795   1.066   2.735
  268SOL    HW1  114   1.733   1.051   2.659
  268SOL    HW2  115   1.743   1.077   2.820
  269SOL     OW  116   1.227   1.550   3.368
  269SOL    HW1  117   1.233   1.473   3.432
  269SOL    HW2  118   1.175   1.524   3.288
  273SOL     OW  119   1.111   1.776   2.099
  273SOL    HW1  120   1.051   1.714   2.149
  273SOL    HW2  121   1.142   1.732   2.014
  275SOL     OW  122   1.632   1.377   1.943
  275SOL    HW1  123   1.600   1.471   1.933
  275SOL    HW2  124   1.556   1.314   1.931
  279SOL     OW  125   0.940   1.698   2.766
  279SOL    HW1  126   1.020   1.641   2.787
  279SOL    HW2  127   0.891   1.658   2.689
  289SOL     OW  128   1.434   1.188   1.903
  289SOL    HW1  129   1.466   1.112   1.960
  289SOL    HW2  130   1.342   1.215   1.933
  293SOL     OW  131   1.227   1.570   2.655
  293SOL    HW1  132   1.248   1.644   2.590
  293SOL    HW2  133   1.295   1.570   2.728
  295SOL     OW  134   1.271   1.797   2.453
  295SOL    HW1  135   1.315   1.861   2.389
  295SOL    HW2  136   1.221   1.849   2.523
  301SOL     OW  137   1.429   1.173   2.729
  301SOL    HW1  138   1.374   1.089   2.722
  301SOL    HW2  139   1.455   1.202   2.637
  303SOL     OW  140   1.857   0.833   2.239
  303SOL    HW1  141   1.899   0.769   2.303
  303SOL    HW2  142   1.819   0.782   2.161
  305SOL     OW  143   1.664   1.280   2.519
  305SOL    HW1  144   1.763   1.288   2.533
  305SOL    HW2  145   1.619   1.364   2.550
  308SOL     OW  146   1.754   1.223   3.450
  308SOL    HW1  147   1.845   1.184   3.437
  308SOL    HW2  148   1.762   1.319   3.474
  310SOL     OW  149   1.592   1.629   3.487
  310SOL    HW1  150   1.619   1.663   3.397
  310SOL    HW2  151   1.671   1.591   3.533
  312SOL     OW  152   1.638   1.099   2.941
  312SOL    HW1  153   1.643   1.180   3.000
  312SOL    HW2  154   1.552   1.101   2.890
  321SOL     OW  155   1.252   1.348   2.250
  321SOL    HW1  156   1.302   1.425   2.290
  321SOL    HW2  157   1.157   1.350   2.282
  322SOL     OW  158   1.272   1.445   3.004
  322SOL    HW1  159   1.319   1.458   3.091
  322SOL    HW2  160   1.206   1.371   3.013
  340SOL     OW  161   1.859   1.518   3.467
  340SOL    HW1  162   1.873   1.545   3.372
  340SOL    HW2  163   1.942   1.540   3.520
  344SOL     OW  164   1.068   1.333   2.711
  344SOL    HW1  165   1.075   1.249   2.656
  344SOL    HW2  166   1.130   1.402   2.675
  365SOL     OW  167   1.759   1.747   3.016
  365SOL    HW1  168   1.820   1.777   2.943
  365SOL    HW2  169   1.721   1.658   2.994
  366SOL     OW  170   1.252   1.731   2.990
  366SOL    HW1  171   1.336   1.736   2.936
  366SOL    HW2  172   1.229   1.635   3.008
  370SOL     OW  173   1.388   1.573   2.339
  370SOL    HW1  174   1.455   1.585   2.265
  370SOL    HW2  175   1.348   1.662   2.362
  372SOL     OW  176   1.280   0.927   2.534
  372SOL    HW1  177   1.340   0.846   2.536
  372SOL    HW2  178   1.320   0.996   2.474
  375SOL     OW  179   1.650   1.720   3.256
  375SOL    HW1  180   1.703   1.730   3.172
  375SOL    HW2  181   1.623   1.810   3.290
  378SOL     OW  182   1.194   1.612   1.893
  378SOL    HW1  183   1.200   1.519   1.930
  378SOL    HW2  184   1.135   1.612   1.813
  381SOL     OW  185   1.504   1.607   1.906
  381SOL    HW1  186   1.412   1.644   1.913
  381SOL    HW2  187   1.542   1.627   1.816
  383SOL     OW  188   1.614   1.292   3.151
  383SOL    HW1  189   1.674   1.295   3.231
  383SOL    HW2  190   1.539   1.356   3.164
  394SOL     OW  191   1.183   1.335   1.981
  394SOL    HW1  192   1.084   1.324   1.983
  394SOL    HW2  193   1.217   1.350   2.074
  396SOL     OW  194   1.493   1.767   2.821
  396SOL    HW1  195   1.526   1.831   2.752
  396SOL    HW2  196   1.559   1.761   2.896
  400SOL     OW  197   1.674   0.883   3.116
  400SOL    HW1  198   1.647   0.794   3.079
  400SOL    HW2  199   1.675   0.951   3.043
  409SOL     OW  200   1.861   1.569   2.713
  409SOL    HW1  201   1.790   1.557   2.643
  409SOL    HW2  202   1.862   1.490   2.773
  415SOL     OW  203   1.705   1.487   2.966
  415SOL    HW1  204   1.612   1.462   2.939
  415SOL    HW2  205   1.731   1.437   3.048
  417SOL     OW  206   0.812   1.586   2.549
  417SOL    HW1  207   0.844   1.596   2.455
  417SOL    HW2  208   0.733   1.524   2.551
  426SOL     OW  209   0.875   1.646   2.199
  426SOL    HW1  210   0.798   1.611   2.145
  426SOL    HW2  211   0.843   1.717   2.261
  542SOL     OW  212   0.850   2.660   1.823
  542SOL    HW1  213   0.846   2.736   1.888
  542SOL    HW2  214   0.872   2.696   1.732
  546SOL     OW  215   1.460   3.367   1.339
  546SOL    HW1  216   1.484   3.461   1.365
  546SOL    HW2  217   1.444   3.313   1.421
  548SOL     OW  218   1.603   2.309   0.737
  548SOL    HW1  219   1.529   2.355   0.687
  548SOL    HW2  220   1.654   2.377   0.790
  550SOL     OW  221   1.127   3.203   1.690
  550SOL    HW1  222   1.174   3.203   1.778
  550SOL    HW2  223   1.079   3.116   1.679
  555SOL     OW  224   1.594   1.976   1.480
  555SOL    HW1  225   1.576   2.043   1.408
  555SOL    HW2  226   1.591   2.022   1.569
  563SOL     OW  227   1.293   3.090   1.423
  563SOL    HW1  228   1.330   3.017   1.365
  563SOL    HW2  229   1.345   3.095   1.508
  572SOL     OW  230   1.281   2.207   0.944
  572SOL    HW1  231   1.195   2.157   0.931
  572SOL    HW2  232   1.343   2.153   1.000
  574SOL     OW  233   0.807   2.467   1.465
  574SOL    HW1  234   0.760   2.464   1.554
  574SOL    HW2  235   0.756   2.412   1.399
  575SOL     OW  236   1.394   2.331   1.674
  575SOL    HW1  237   1.374   2.374   1.762
  575SOL    HW2  238   1.472   2.269   1.683
  576SOL     OW  239   0.973   2.752   1.572
  576SOL    HW1  240   1.019   2.668   1.543
  576SOL    HW2  241   0.917   2.786   1.497
  577SOL     OW  242   0.991   2.272   1.242
  577SOL    HW1  243   0.914   2.306   1.296
  577SOL    HW2  244   0.957   2.221   1.163
  582SOL     OW  245   1.719   2.447   1.831
  582SOL    HW1  246   1.693   2.536   1.795
  582SOL    HW2  247   1.717   2.379   1.758
  587SOL     OW  248   1.795   2.928   0.873
  587SOL    HW1  249   1.733   2.913   0.797
  587SOL    HW2  250   1.743   2.939   0.958
  588SOL     OW  251   1.227   3.412   1.506
  588SOL    HW1  252   1.233   3.335   1.570
  588SOL    HW2  253   1.175   3.386   1.426
  600SOL     OW  254   1.547   2.084   1.729
  600SOL    HW1  255   1.542   2.121   1.821
  600SOL    HW2  256   1.475   2.015   1.717
  601SOL     OW  257   0.781   2.126   1.749
  601SOL    HW1  258   0.848   2.065   1.792
  601SOL    HW2  259   0.708   2.145   1.814
  603SOL     OW  260   1.351   2.452   1.433
  603SOL    HW1  261   1.379   2.409   1.518
  603SOL    HW2  262   1.376   2.548   1.434
  610SOL     OW  263   1.076   2.545   1.464
  610SOL    HW1  264   0.996   2.484   1.467
  610SOL    HW2  265   1.157   2.492   1.440
  620SOL     OW  266   1.466   2.452   0.992
  620SOL    HW1  267   1.436   2.357   0.999
  620SOL    HW2  268   1.539   2.468   1.058
  626SOL     OW  269   1.754   3.085   1.588
  626SOL    HW1  270   1.845   3.046   1.575
  626SOL    HW2  271   1.762   3.181   1.612
  628SOL     OW  272   1.592   3.491   1.625
  628SOL    HW1  273   1.619   3.525   1.535
  628SOL    HW2  274   1.671   3.453   1.671
  630SOL     OW  275   1.638   2.961   1.079
  630SOL    HW1  276   1.643   3.042   1.138
  630SOL    HW2  277   1.552   2.963   1.028
  631SOL     OW  278   0.915   1.951   1.402
  631SOL    HW1  279   0.940   1.931   1.307
  631SOL    HW2  280   0.987   2.007   1.444
  632SOL     OW  281   0.980   2.978   1.719
  632SOL    HW1  282   0.881   2.984   1.729
  632SOL    HW2  283   1.003   2.898   1.663
  635SOL     OW  284   1.274   2.248   1.262
  635SOL    HW1  285   1.295   2.322   1.326
  635SOL    HW2  286   1.185   2.265   1.219
  644SOL     OW  287   1.587   2.641   1.670
  644SOL    HW1  288   1.495   2.679   1.665
  644SOL    HW2  289   1.647   2.688   1.605
  645SOL     OW  290   1.013   1.967   1.770
  645SOL    HW1  291   1.019   2.052   1.718
  645SOL    HW2  292   1.045   1.891   1.713
  648SOL     OW  293   1.360   2.724   1.045
  648SOL    HW1  294   1.285   2.724   0.979
  648SOL    HW2  295   1.397   2.632   1.054
  653SOL     OW  296   1.728   2.797   1.854
  653SOL    HW1  297   1.682   2.790   1.765
  653SOL    HW2  298   1.666   2.841   1.920
  658SOL     OW  299   1.859   3.380   1.605
  658SOL    HW1  300   1.873   3.407   1.510
  658SOL    HW2  301   1.942   3.402   1.658
  665SOL     OW  302   1.138   2.242   1.678
  665SOL    HW1  303   1.093   2.305   1.742
  665SOL    HW2  304   1.231   2.273   1.661
  666SOL     OW  305   1.160   2.069   1.477
  666SOL    HW1  306   1.160   2.133   1.554
  666SOL    HW2  307   1.188   2.117   1.394
  670SOL     OW  308   1.002   2.658   1.238
  670SOL    HW1  309   1.043   2.626   1.324
  670SOL    HW2  310   0.906   2.631   1.235
  673SOL     OW  311   1.369   2.812   1.660
  673SOL    HW1  312   1.408   2.901   1.680
  673SOL    HW2  313   1.379   2.792   1.563
  675SOL     OW  314   1.657   2.466   1.206
  675SOL    HW1  315   1.619   2.397   1.268
  675SOL    HW2  316   1.739   2.430   1.162
  681SOL     OW  317   1.347   2.921   1.234
  681SOL    HW1  318   1.371   2.858   1.160
  681SOL    HW2  319   1.257   2.961   1.216
  694SOL     OW  320   1.650   3.582   1.394
  694SOL    HW1  321   1.703   3.592   1.310
  694SOL    HW2  322   1.623   3.672   1.428
  695SOL     OW  323   1.841   2.037   0.963
  695SOL    HW1  324   1.880   1.952   0.927
  695SOL    HW2  325   1.743   2.039   0.944
  702SOL     OW  326   1.614   3.154   1.289
  702SOL    HW1  327   1.674   3.157   1.369
  702SOL    HW2  328   1.539   3.218   1.302
  706SOL     OW  329   1.709   2.247   1.381
  706SOL    HW1  330   1.782   2.316   1.385
  706SOL    HW2  331   1.737   2.172   1.322
  711SOL     OW  332   1.440   2.718   1.398
  711SOL    HW1  333   1.383   2.770   1.335
  711SOL    HW2  334   1.536   2.730   1.374
  716SOL     OW  335   0.716   2.427   1.708
  716SOL    HW1  336   0.735   2.492   1.782
  716SOL    HW2  337   0.776   2.347   1.717
  717SOL     OW  338   1.450   3.082   1.633
  717SOL    HW1  339   1.441   3.072   1.732
  717SOL    HW2  340   1.546   3.075   1.607
  719SOL     OW  341   1.674   2.745   1.254
  719SOL    HW1  342   1.647   2.656   1.217
  719SOL    HW2  343   1.675   2.813   1.181
  722SOL     OW  344   1.777   2.204   1.642
  722SOL    HW1  345   1.760   2.235   1.548
  722SOL    HW2  346   1.693   2.167   1.680
  723SOL     OW  347   1.730   2.796   1.517
  723SOL    HW1  348   1.768   2.887   1.532
  723SOL    HW2  349   1.722   2.779   1.418
  732SOL     OW  350   1.824   2.054   1.227
  732SOL    HW1  351   1.820   1.964   1.271
  732SOL    HW2  352   1.827   2.043   1.128
  734SOL     OW  353   1.705   3.349   1.104
  734SOL    HW1  354   1.612   3.324   1.077
  734SOL    HW2  355   1.731   3.299   1.186
  737SOL     OW  356   1.424   2.076   1.112
  737SOL    HW1  357   1.476   2.011   1.167
  737SOL    HW2  358   1.375   2.139   1.173
  743SOL     OW  359   1.593   2.083   0.882
  743SOL    HW1  360   1.509   2.082   0.936
  743SOL    HW2  361   1.595   2.166   0.826
  750SOL     OW  362   1.555   3.373   2.565
  750SOL    HW1  363   1.498   3.357   2.646
  750SOL    HW2  364   1.496   3.383   2.485
  751SOL     OW  365   1.135   2.565   2.579
  751SOL    HW1  366   1.192   2.643   2.554
  751SOL    HW2  367   1.075   2.591   2.655
  752SOL     OW  368   1.755   2.469   2.093
  752SOL    HW1  369   1.743   2.456   1.994
  752SOL    HW2  370   1.725   2.388   2.142
  753SOL     OW  371   0.768   3.006   2.885
  753SOL    HW1  372   0.690   3.023   2.945
  753SOL    HW2  373   0.802   3.093   2.849
  755SOL     OW  374   0.685   2.874   2.527
  755SOL    HW1  375   0.754   2.858   2.597
  755SOL    HW2  376   0.612   2.931   2.565
  758SOL     OW  377   1.460   3.367   3.201
  758SOL    HW1  378   1.484   3.461   3.227
  758SOL    HW2  379   1.444   3.313   3.283
  760SOL     OW  380   1.603   2.309   2.599
  760SOL    HW1  381   1.529   2.355   2.549
  760SOL    HW2  382   1.654   2.377   2.652
  767SOL     OW  383   1.594   1.976   3.342
  767SOL    HW1  384   1.576   2.043   3.270
  767SOL    HW2  385   1.591   2.022   3.431
  769SOL     OW  386   1.842   3.629   2.221
  769SOL    HW1  387   1.896   3.600   2.301
  769SOL    HW2  388   1.872   3.719   2.192
  771SOL     OW  389   1.689   2.784   2.474
  771SOL    HW1  390   1.784   2.755   2.482
  771SOL    HW2  391   1.681   2.849   2.399
  772SOL     OW  392   1.641   2.970   2.294
  772SOL    HW1  393   1.727   2.972   2.242
  772SOL    HW2  394   1.655   3.017   2.382
  775SOL     OW  395   1.293   3.090   3.285
  775SOL    HW1  396   1.330   3.017   3.227
  775SOL    HW2  397   1.345   3.095   3.370
  776SOL     OW  398   0.809   1.866   2.364
  776SOL    HW1  399   0.849   1.957   2.355
  776SOL    HW2  400   0.709   1.874   2.370
  778SOL     OW  401   1.525   2.861   2.052
  778SOL    HW1  402   1.462   2.785   2.065
  778SOL    HW2  403   1.573   2.879   2.138
  781SOL     OW  404   1.466   3.279   2.815
  781SOL    HW1  405   1.407   3.285   2.895
  781SOL    HW2  406   1.451   3.191   2.769
  782SOL     OW  407   1.667   3.576   2.434
  782SOL    HW1  408   1.626   3.553   2.346
  782SOL    HW2  409   1.649   3.502   2.499
  783SOL     OW  410   0.598   2.591   2.132
  783SOL    HW1  411   0.622   2.660   2.064
  783SOL    HW2  412   0.520   2.624   2.186
  784SOL     OW  413   1.281   2.207   2.806
  784SOL    HW1  414   1.195   2.157   2.793
  784SOL    HW2  415   1.343   2.153   2.862
  785SOL     OW  416   1.576   3.524   2.169
  785SOL    HW1  417   1.665   3.570   2.172
  785SOL    HW2  418   1.555   3.500   2.074
  787SOL     OW  419   1.394   2.331   3.536
  787SOL    HW1  420   1.374   2.374   3.624
  787SOL    HW2  421   1.472   2.269   3.545
  788SOL     OW  422   0.973   2.752   3.434
  788SOL    HW1  423   1.019   2.668   3.405
  788SOL    HW2  424   0.917   2.786   3.359
  789SOL     OW  425   0.991   2.272   3.104
  789SOL    HW1  426   0.914   2.306   3.158
  789SOL    HW2  427   0.957   2.221   3.025
  790SOL     OW  428   1.041   2.563   2.291
  790SOL    HW1  429   1.067   2.559   2.387
  790SOL    HW2  430   0.956   2.512   2.277
  793SOL     OW  431   0.865   2.210   2.057
  793SOL    HW1  432   0.924   2.273   2.008
  793SOL    HW2  433   0.884   2.116   2.028
  794SOL     OW  434   1.719   2.447   3.693
  794SOL    HW1  435   1.693   2.536   3.657
  794SOL    HW2  436   1.717   2.379   3.620
  795SOL     OW  437   1.362   3.006   2.407
  795SOL    HW1  438   1.445   2.977   2.359
  795SOL    HW2  439   1.313   3.073   2.351
  797SOL     OW  440   1.008   3.318   2.339
  797SOL    HW1  441   0.962   3.390   2.287
  797SOL    HW2  442   1.004   3.338   2.437
  799SOL     OW  443   1.795   2.928   2.735
  799SOL    HW1  444   1.733   2.913   2.659
  799SOL    HW2  445   1.743   2.939   2.820
  802SOL     OW  446   1.458   2.597   2.590
  802SOL    HW1  447   1.453   2.532   2.665
  802SOL    HW2  448   1.538   2.656   2.603
  806SOL     OW  449   1.632   3.239   1.943
  806SOL    HW1  450   1.600   3.333   1.933
  806SOL    HW2  451   1.556   3.176   1.931
  808SOL     OW  452   1.400   1.969   2.288
  808SOL    HW1  453   1.376   1.932   2.198
  808SOL    HW2  454   1.499   1.985   2.292
  812SOL     OW  455   1.547   2.084   3.591
  812SOL    HW1  456   1.542   2.121   3.683
  812SOL    HW2  457   1.475   2.015   3.579
  816SOL     OW  458   1.351   2.452   3.295
  816SOL    HW1  459   1.379   2.409   3.380
  816SOL    HW2  460   1.376   2.548   3.296
  818SOL     OW  461   0.922   2.365   2.761
  818SOL    HW1  462   0.897   2.356   2.665
  818SOL    HW2  463   0.970   2.283   2.792
  820SOL     OW  464   1.434   3.050   1.903
  820SOL    HW1  465   1.466   2.974   1.960
  820SOL    HW2  466   1.342   3.077   1.933
  822SOL     OW  467   0.935   2.098   2.342
  822SOL    HW1  468   0.887   2.139   2.264
  822SOL    HW2  469   1.034   2.096   2.323
  823SOL     OW  470   1.076   2.545   3.326
  823SOL    HW1  471   0.996   2.484   3.329
  823SOL    HW2  472   1.157   2.492   3.302
  824SOL     OW  473   1.227   3.432   2.655
  824SOL    HW1  474   1.248   3.506   2.590
  824SOL    HW2  475   1.295   3.432   2.728
  826SOL     OW  476   1.271   3.659   2.453
  826SOL    HW1  477   1.315   3.723   2.389
  826SOL    HW2  478   1.221   3.711   2.523
  827SOL     OW  479   1.032   2.411   1.878
  827SOL    HW1  480   0.991   2.493   1.839
  827SOL    HW2  481   1.096   2.437   1.951
  830SOL     OW  482   0.866   2.316   2.504
  830SOL    HW1  483   0.834   2.388   2.442
  830SOL    HW2  484   0.890   2.235   2.451
  831SOL     OW  485   1.017   1.901   2.615
  831SOL    HW1  486   0.945   1.906   2.546
  831SOL    HW2  487   0.993   1.832   2.684
  832SOL     OW  488   1.429   3.035   2.729
  832SOL    HW1  489   1.374   2.951   2.722
  832SOL    HW2  490   1.455   3.064   2.637
  833SOL     OW  491   1.466   2.452   2.854
  833SOL    HW1  492   1.436   2.357   2.861
  833SOL    HW2  493   1.539   2.468   2.920
  834SOL     OW  494   1.857   2.695   2.239
  834SOL    HW1  495   1.899   2.631   2.303
  834SOL    HW2  496   1.819   2.644   2.161
  836SOL     OW  497   1.664   3.142   2.519
  836SOL    HW1  498   1.763   3.150   2.533
  836SOL    HW2  499   1.619   3.226   2.550
  837SOL     OW  500   1.390   2.437   1.940
  837SOL    HW1  501   1.336   2.416   2.021
  837SOL    HW2  502   1.481   2.396   1.949
  839SOL     OW  503   1.754   3.085   3.450
  839SOL    HW1  504   1.845   3.046   3.437
  839SOL    HW2  505   1.762   3.181   3.474
  840SOL     OW  506   1.064   3.209   3.202
  840SOL    HW1  507   0.984   3.186   3.257
  840SOL    HW2  508   1.147   3.183   3.251
  841SOL     OW  509   1.592   3.491   3.487
  841SOL    HW1  510   1.619   3.525   3.397
  841SOL    HW2  511   1.671   3.453   3.533
  842SOL     OW  512   1.111   3.057   2.962
  842SOL    HW1  513   1.071   3.101   3.043
  842SOL    HW2  514   1.070   3.094   2.879
  843SOL     OW  515   1.638   2.961   2.941
  843SOL    HW1  516   1.643   3.042   3.000
  843SOL    HW2  517   1.552   2.963   2.890
  844SOL     OW  518   0.915   1.951   3.264
  844SOL    HW1  519   0.940   1.931   3.169
  844SOL    HW2  520   0.987   2.007   3.306
  846SOL     OW  521   0.705   2.912   2.230
  846SOL    HW1  522   0.691   2.919   2.329
  846SOL    HW2  523   0.789   2.861   2.212
  848SOL     OW  524   1.274   2.248   3.124
  848SOL    HW1  525   1.295   2.322   3.188
  848SOL    HW2  526   1.185   2.265   3.081
  852SOL     OW  527   1.252   3.210   2.250
  852SOL    HW1  528   1.302   3.287   2.290
  852SOL    HW2  529   1.157   3.212   2.282
  853SOL     OW  530   1.272   3.307   3.004
  853SOL    HW1  531   1.319   3.320   3.091
  853SOL    HW2  532   1.206   3.233   3.013
  854SOL     OW  533   1.582   2.501   2.334
  854SOL    HW1  534   1.551   2.562   2.407
  854SOL    HW2  535   1.632   2.553   2.265
  857SOL     OW  536   1.587   2.641   3.532
  857SOL    HW1  537   1.495   2.679   3.527
  857SOL    HW2  538   1.647   2.688   3.467
  861SOL     OW  539   1.360   2.724   2.907
  861SOL    HW1  540   1.285   2.724   2.841
  861SOL    HW2  541   1.397   2.632   2.916
  862SOL     OW  542   1.209   2.387   2.137
  862SOL    HW1  543   1.222   2.303   2.191
  862SOL    HW2  544   1.180   2.461   2.197
  865SOL     OW  545   0.732   2.496   2.926
  865SOL    HW1  546   0.791   2.470   2.850
  865SOL    HW2  547   0.704   2.592   2.915
  866SOL     OW  548   1.728   2.797   3.716
  866SOL    HW1  549   1.682   2.790   3.627
  866SOL    HW2  550   1.666   2.841   3.782
  868SOL     OW  551   1.622   2.229   2.236
  868SOL    HW1  552   1.624   2.153   2.300
  868SOL    HW2  553   1.574   2.306   2.276
  869SOL     OW  554   1.023   2.628   2.828
  869SOL    HW1  555   1.038   2.649   2.924
  869SOL    HW2  556   0.993   2.533   2.819
  871SOL     OW  557   1.859   3.380   3.467
  871SOL    HW1  558   1.873   3.407   3.372
  871SOL    HW2  559   1.942   3.402   3.520
  873SOL     OW  560   1.540   2.136   1.987
  873SOL    HW1  561   1.479   2.061   2.010
  873SOL    HW2  562   1.562   2.188   2.070
  874SOL     OW  563   1.303   2.700   1.904
  874SOL    HW1  564   1.337   2.607   1.919
  874SOL    HW2  565   1.321   2.727   1.809
  875SOL     OW  566   1.068   3.195   2.711
  875SOL    HW1  567   1.075   3.111   2.656
  875SOL    HW2  568   1.130   3.264   2.675
  878SOL     OW  569   1.138   2.242   3.540
  878SOL    HW1  570   1.093   2.305   3.604
  878SOL    HW2  571   1.231   2.273   3.523
  879SOL     OW  572   1.160   2.069   3.339
  879SOL    HW1  573   1.160   2.133   3.416
  879SOL    HW2  574   1.188   2.117   3.256
  883SOL     OW  575   1.002   2.658   3.100
  883SOL    HW1  576   1.043   2.626   3.186
  883SOL    HW2  577   0.906   2.631   3.097
  886SOL     OW  578   1.369   2.812   3.522
  886SOL    HW1  579   1.408   2.901   3.542
  886SOL    HW2  580   1.379   2.792   3.425
  887SOL     OW  581   0.815   2.434   2.187
  887SOL    HW1  582   0.822   2.345   2.141
  887SOL    HW2  583   0.721   2.468   2.179
  888SOL     OW  584   1.657   2.466   3.068
  888SOL    HW1  585   1.619   2.397   3.130
  888SOL    HW2  586   1.739   2.430   3.024
  894SOL     OW  587   1.347   2.921   3.096
  894SOL    HW1  588   1.371   2.858   3.022
  894SOL    HW2  589   1.257   2.961   3.078
  895SOL     OW  590   1.302   2.717   2.171
  895SOL    HW1  591   1.216   2.686   2.213
  895SOL    HW2  592   1.298   2.703   2.072
  896SOL     OW  593   1.759   3.609   3.016
  896SOL    HW1  594   1.820   3.639   2.943
  896SOL    HW2  595   1.721   3.520   2.994
  897SOL     OW  596   1.252   3.593   2.990
  897SOL    HW1  597   1.336   3.598   2.936
  897SOL    HW2  598   1.229   3.497   3.008
  900SOL     OW  599   1.726   1.997   2.385
  900SOL    HW1  600   1.799   1.980   2.318
  900SOL    HW2  601   1.695   1.910   2.423
  901SOL     OW  602   1.388   3.435   2.339
  901SOL    HW1  603   1.455   3.447   2.265
  901SOL    HW2  604   1.348   3.524   2.362
  903SOL     OW  605   1.280   2.789   2.534
  903SOL    HW1  606   1.340   2.708   2.536
  903SOL    HW2  607   1.320   2.858   2.474
  906SOL     OW  608   1.650   3.582   3.256
  906SOL    HW1  609   1.703   3.592   3.172
  906SOL    HW2  610   1.623   3.672   3.290
  907SOL     OW  611   1.841   2.037   2.825
  907SOL    HW1  612   1.880   1.952   2.789
  907SOL    HW2  613   1.743   2.039   2.806
  909SOL     OW  614   1.194   3.474   1.893
  909SOL    HW1  615   1.200   3.381   1.930
  909SOL    HW2  616   1.135   3.474   1.813
  911SOL     OW  617   0.916   2.772   2.153
  911SOL    HW1  618   0.979   2.810   2.085
  911SOL    HW2  619   0.956   2.689   2.192
  912SOL     OW  620   1.504   3.469   1.906
  912SOL    HW1  621   1.412   3.506   1.913
  912SOL    HW2  622   1.542   3.489   1.816
  914SOL     OW  623   1.614   3.154   3.151
  914SOL    HW1  624   1.674   3.157   3.231
  914SOL    HW2  625   1.539   3.218   3.164
  915SOL     OW  626   1.039   2.960   2.558
  915SOL    HW1  627   0.969   2.913   2.612
  915SOL    HW2  628   1.098   2.892   2.515
  916SOL     OW  629   1.014   2.098   2.833
  916SOL    HW1  630   1.006   2.062   2.740
  916SOL    HW2  631   1.012   2.022   2.898
  918SOL     OW  632   1.709   2.247   3.243
  918SOL    HW1  633   1.782   2.316   3.247
  918SOL    HW2  634   1.737   2.172   3.184
  923SOL     OW  635   1.440   2.718   3.260
  923SOL    HW1  636   1.383   2.770   3.197
  923SOL    HW2  637   1.536   2.730   3.236
  925SOL     OW  638   1.183   3.197   1.981
  925SOL    HW1  639   1.084   3.186   1.983
  925SOL    HW2  640   1.217   3.212   2.074
  927SOL     OW  641   1.493   3.629   2.821
  927SOL    HW1  642   1.526   3.693   2.752
  927SOL    HW2  643   1.559   3.623   2.896
  929SOL     OW  644   1.450   3.082   3.495
  929SOL    HW1  645   1.441   3.072   3.594
  929SOL    HW2  646   1.546   3.075   3.469
  931SOL     OW  647   1.674   2.745   3.116
  931SOL    HW1  648   1.647   2.656   3.079
  931SOL    HW2  649   1.675   2.813   3.043
  932SOL     OW  650   1.225   2.187   2.311
  932SOL    HW1  651   1.290   2.113   2.300
  932SOL    HW2  652   1.245   2.237   2.395
  933SOL     OW  653   0.594   2.607   2.514
  933SOL    HW1  654   0.644   2.692   2.495
  933SOL    HW2  655   0.506   2.609   2.466
  934SOL     OW  656   1.777   2.204   3.504
  934SOL    HW1  657   1.760   2.235   3.410
  934SOL    HW2  658   1.693   2.167   3.542
  935SOL     OW  659   1.730   2.796   3.379
  935SOL    HW1  660   1.768   2.887   3.394
  935SOL    HW2  661   1.722   2.779   3.280
  938SOL     OW  662   0.859   2.818   2.723
  938SOL    HW1  663   0.913   2.749   2.771
  938SOL    HW2  664   0.827   2.887   2.789
  939SOL     OW  665   1.083   2.846   1.949
  939SOL    HW1  666   1.060   2.899   1.867
  939SOL    HW2  667   1.164   2.790   1.930
  940SOL     OW  668   1.861   3.431   2.713
  940SOL    HW1  669   1.790   3.419   2.643
  940SOL    HW2  670   1.862   3.352   2.773
  944SOL     OW  671   1.824   2.054   3.089
  944SOL    HW1  672   1.820   1.964   3.133
  944SOL    HW2  673   1.827   2.043   2.990
  946SOL     OW  674   1.705   3.349   2.966
  946SOL    HW1  675   1.612   3.324   2.939
  946SOL    HW2  676   1.731   3.299   3.048
  949SOL     OW  677   1.424   2.076   2.974
  949SOL    HW1  678   1.476   2.011   3.029
  949SOL    HW2  679   1.375   2.139   3.035
  950SOL     OW  680   1.001   1.896   3.016
  950SOL    HW1  681   0.938   1.824   2.985
  950SOL    HW2  682   1.094   1.860   3.016
  953SOL     OW  683   1.352   1.914   2.030
  953SOL    HW1  684   1.387   1.873   1.946
  953SOL    HW2  685   1.262   1.876   2.050
  954SOL     OW  686   1.300   2.315   2.553
  954SOL    HW1  687   1.241   2.395   2.557
  954SOL    HW2  688   1.315   2.280   2.646
  955SOL     OW  689   1.593   2.083   2.744
  955SOL    HW1  690   1.509   2.082   2.798
  955SOL    HW2  691   1.595   2.166   2.688
  962SOL     OW  692   1.755   2.469   3.955
  962SOL    HW1  693   1.743   2.456   3.856
  962SOL    HW2  694   1.725   2.388   4.004
 1011SOL     OW  695   1.390   2.437   3.802
 1011SOL    HW1  696   1.336   2.416   3.883
 1011SOL    HW2  697   1.481   2.396   3.811
 1022SOL     OW  698   1.540   2.136   3.849
 1022SOL    HW1  699   1.479   2.061   3.872
 1022SOL    HW2  700   1.562   2.188   3.932
 1023SOL     OW  701   1.303   2.700   3.766
 1023SOL    HW1  702   1.337   2.607   3.781
 1023SOL    HW2  703   1.321   2.727   3.671
 1204SOL     OW  704   1.400   3.831   2.288
 1204SOL    HW1  705   1.376   3.794   2.198
 1204SOL    HW2  706   1.499   3.847   2.292
 1259SOL     OW  707   1.726   3.859   2.385
 1259SOL    HW1  708   1.799   3.842   2.318
 1259SOL    HW2  709   1.695   3.772   2.423
 1261SOL     OW  710   1.841   3.899   2.825
 1261SOL    HW1  711   1.880   3.814   2.789
 1261SOL    HW2  712   1.743   3.901   2.806
 1283SOL     OW  713   1.352   3.776   2.030
 1283SOL    HW1  714   1.387   3.735   1.946
 1283SOL    HW2  715   1.262   3.738   2.050
 1347SOL     OW  716   2.431   1.275   1.165
 1347SOL    HW1  717   2.338   1.268   1.128
 1347SOL    HW2  718   2.442   1.364   1.209
 1352SOL     OW  719   2.712   0.798   1.823
 1352SOL    HW1  720   2.708   0.874   1.888
 1352SOL    HW2  721   2.734   0.834   1.732
 1354SOL     OW  722   2.548   1.161   1.803
 1354SOL    HW1  723   2.608   1.240   1.817
 1354SOL    HW2  724   2.462   1.192   1.762
 1355SOL     OW  725   2.197   1.435   1.061
 1355SOL    HW1  726   2.119   1.404   1.008
 1355SOL    HW2  727   2.255   1.493   1.004
 1356SOL     OW  728   3.322   1.505   1.339
 1356SOL    HW1  729   3.346   1.599   1.365
 1356SOL    HW2  730   3.306   1.451   1.421
 1360SOL     OW  731   2.989   1.341   1.690
 1360SOL    HW1  732   3.036   1.341   1.778
 1360SOL    HW2  733   2.941   1.254   1.679
 1363SOL     OW  734   2.482   1.786   1.439
 1363SOL    HW1  735   2.390   1.769   1.474
 1363SOL    HW2  736   2.510   1.878   1.465
 1372SOL     OW  737   3.155   1.228   1.423
 1372SOL    HW1  738   3.192   1.155   1.365
 1372SOL    HW2  739   3.207   1.233   1.508
 1374SOL     OW  740   2.059   0.976   1.264
 1374SOL    HW1  741   2.148   0.931   1.250
 1374SOL    HW2  742   1.986   0.911   1.245
 1376SOL     OW  743   3.049   1.792   1.616
 1376SOL    HW1  744   3.073   1.852   1.540
 1376SOL    HW2  745   3.056   1.697   1.586
 1385SOL     OW  746   2.835   0.890   1.572
 1385SOL    HW1  747   2.881   0.806   1.543
 1385SOL    HW2  748   2.779   0.924   1.497
 1389SOL     OW  749   1.992   1.821   1.571
 1389SOL    HW1  750   1.982   1.806   1.670
 1389SOL    HW2  751   1.906   1.857   1.535
 1395SOL     OW  752   2.213   1.801   0.853
 1395SOL    HW1  753   2.263   1.715   0.859
 1395SOL    HW2  754   2.278   1.878   0.850
 1397SOL     OW  755   3.089   1.550   1.506
 1397SOL    HW1  756   3.095   1.473   1.570
 1397SOL    HW2  757   3.037   1.524   1.426
 1400SOL     OW  758   2.323   1.266   1.727
 1400SOL    HW1  759   2.273   1.267   1.641
 1400SOL    HW2  760   2.260   1.248   1.803
 1406SOL     OW  761   2.111   1.785   1.241
 1406SOL    HW1  762   2.168   1.720   1.291
 1406SOL    HW2  763   2.095   1.752   1.148
 1407SOL     OW  764   2.802   1.698   0.904
 1407SOL    HW1  765   2.882   1.641   0.925
 1407SOL    HW2  766   2.753   1.658   0.827
 1412SOL     OW  767   2.750   1.514   1.195
 1412SOL    HW1  768   2.727   1.489   1.101
 1412SOL    HW2  769   2.811   1.445   1.234
 1414SOL     OW  770   2.665   1.402   0.924
 1414SOL    HW1  771   2.755   1.416   0.882
 1414SOL    HW2  772   2.594   1.404   0.853
 1437SOL     OW  773   2.926   1.347   1.340
 1437SOL    HW1  774   2.846   1.324   1.395
 1437SOL    HW2  775   3.009   1.321   1.389
 1438SOL     OW  776   3.454   1.629   1.625
 1438SOL    HW1  777   3.481   1.663   1.535
 1438SOL    HW2  778   3.533   1.591   1.671
 1442SOL     OW  779   2.842   1.116   1.719
 1442SOL    HW1  780   2.743   1.122   1.729
 1442SOL    HW2  781   2.865   1.036   1.663
 1446SOL     OW  782   1.926   1.564   1.331
 1446SOL    HW1  783   1.880   1.646   1.297
 1446SOL    HW2  784   2.024   1.583   1.340
 1450SOL     OW  785   3.134   1.445   1.142
 1450SOL    HW1  786   3.181   1.458   1.229
 1450SOL    HW2  787   3.068   1.371   1.151
 1452SOL     OW  788   2.216   1.510   1.329
 1452SOL    HW1  789   2.195   1.466   1.242
 1452SOL    HW2  790   2.313   1.536   1.332
 1453SOL     OW  791   2.264   0.751   1.598
 1453SOL    HW1  792   2.332   0.806   1.551
 1453SOL    HW2  793   2.304   0.663   1.625
 1461SOL     OW  794   1.899   1.310   1.282
 1461SOL    HW1  795   1.952   1.261   1.350
 1461SOL    HW2  796   1.921   1.408   1.287
 1467SOL     OW  797   2.842   1.573   1.700
 1467SOL    HW1  798   2.822   1.617   1.612
 1467SOL    HW2  799   2.881   1.482   1.684
 1468SOL     OW  800   3.721   1.518   1.605
 1468SOL    HW1  801   3.735   1.545   1.510
 1468SOL    HW2  802   3.804   1.540   1.658
 1469SOL     OW  803   2.212   0.898   1.804
 1469SOL    HW1  804   2.288   0.942   1.852
 1469SOL    HW2  805   2.247   0.851   1.722
 1478SOL     OW  806   1.950   1.801   0.927
 1478SOL    HW1  807   1.908   1.715   0.900
 1478SOL    HW2  808   2.044   1.804   0.893
 1479SOL     OW  809   2.366   1.568   0.910
 1479SOL    HW1  810   2.432   1.642   0.919
 1479SOL    HW2  811   2.410   1.489   0.868
 1483SOL     OW  812   3.231   0.950   1.660
 1483SOL    HW1  813   3.270   1.039   1.680
 1483SOL    HW2  814   3.241   0.930   1.563
 1486SOL     OW  815   2.114   1.564   1.744
 1486SOL    HW1  816   2.084   1.621   1.820
 1486SOL    HW2  817   2.107   1.467   1.770
 1488SOL     OW  818   2.792   1.678   1.465
 1488SOL    HW1  819   2.768   1.660   1.370
 1488SOL    HW2  820   2.822   1.772   1.475
 1490SOL     OW  821   2.021   1.137   1.466
 1490SOL    HW1  822   2.043   1.076   1.542
 1490SOL    HW2  823   2.031   1.088   1.380
 1494SOL     OW  824   3.114   1.731   1.128
 1494SOL    HW1  825   3.198   1.736   1.074
 1494SOL    HW2  826   3.091   1.635   1.146
 1495SOL     OW  827   1.945   1.258   1.022
 1495SOL    HW1  828   1.940   1.257   1.122
 1495SOL    HW2  829   1.862   1.217   0.984
 1496SOL     OW  830   2.550   1.662   1.716
 1496SOL    HW1  831   2.494   1.743   1.725
 1496SOL    HW2  832   2.602   1.666   1.630
 1500SOL     OW  833   1.992   1.794   1.851
 1500SOL    HW1  834   1.951   1.720   1.904
 1500SOL    HW2  835   2.056   1.845   1.909
 1502SOL     OW  836   2.692   1.273   1.422
 1502SOL    HW1  837   2.687   1.306   1.517
 1502SOL    HW2  838   2.606   1.292   1.376
 1504SOL     OW  839   3.512   1.720   1.394
 1504SOL    HW1  840   3.565   1.730   1.310
 1504SOL    HW2  841   3.485   1.810   1.428
 1508SOL     OW  842   2.684   1.002   1.372
 1508SOL    HW1  843   2.724   1.001   1.280
 1508SOL    HW2  844   2.694   1.094   1.412
 1511SOL     OW  845   2.234   1.288   1.490
 1511SOL    HW1  846   2.221   1.381   1.456
 1511SOL    HW2  847   2.150   1.236   1.477
 1518SOL     OW  848   1.967   1.013   1.726
 1518SOL    HW1  849   1.890   0.980   1.780
 1518SOL    HW2  850   2.052   0.983   1.768
 1522SOL     OW  851   2.475   0.842   1.431
 1522SOL    HW1  852   2.531   0.923   1.414
 1522SOL    HW2  853   2.534   0.762   1.434
 1525SOL     OW  854   3.312   1.220   1.633
 1525SOL    HW1  855   3.303   1.210   1.732
 1525SOL    HW2  856   3.408   1.213   1.607
 1526SOL     OW  857   2.252   1.741   1.560
 1526SOL    HW1  858   2.161   1.782   1.558
 1526SOL    HW2  859   2.245   1.647   1.592
 1533SOL     OW  860   2.523   1.790   0.953
 1533SOL    HW1  861   2.477   1.878   0.940
 1533SOL    HW2  862   2.622   1.802   0.946
 1537SOL     OW  863   2.083   1.314   1.844
 1537SOL    HW1  864   2.018   1.241   1.823
 1537SOL    HW2  865   2.087   1.328   1.942
 1539SOL     OW  866   2.534   1.391   1.624
 1539SOL    HW1  867   2.456   1.341   1.662
 1539SOL    HW2  868   2.531   1.486   1.655
 1548SOL     OW  869   2.480   1.567   1.284
 1548SOL    HW1  870   2.475   1.649   1.341
 1548SOL    HW2  871   2.569   1.564   1.239
 1554SOL     OW  872   2.092   0.628   1.975
 1554SOL    HW1  873   1.999   0.626   2.012
 1554SOL    HW2  874   2.093   0.589   1.883
 1557SOL     OW  875   2.431   1.275   3.027
 1557SOL    HW1  876   2.338   1.268   2.990
 1557SOL    HW2  877   2.442   1.364   3.071
 1558SOL     OW  878   3.417   1.511   2.565
 1558SOL    HW1  879   3.360   1.495   2.646
 1558SOL    HW2  880   3.358   1.521   2.485
 1559SOL     OW  881   2.997   0.703   2.579
 1559SOL    HW1  882   3.054   0.781   2.554
 1559SOL    HW2  883   2.937   0.729   2.655
 1561SOL     OW  884   2.630   1.144   2.885
 1561SOL    HW1  885   2.552   1.161   2.945
 1561SOL    HW2  886   2.664   1.231   2.849
 1563SOL     OW  887   2.547   1.012   2.527
 1563SOL    HW1  888   2.616   0.996   2.597
 1563SOL    HW2  889   2.474   1.069   2.565
 1564SOL     OW  890   2.548   1.161   3.665
 1564SOL    HW1  891   2.608   1.240   3.679
 1564SOL    HW2  892   2.462   1.192   3.624
 1565SOL     OW  893   2.197   1.435   2.923
 1565SOL    HW1  894   2.119   1.404   2.870
 1565SOL    HW2  895   2.255   1.493   2.866
 1566SOL     OW  896   3.322   1.505   3.201
 1566SOL    HW1  897   3.346   1.599   3.227
 1566SOL    HW2  898   3.306   1.451   3.283
 1569SOL     OW  899   2.093   1.713   2.345
 1569SOL    HW1  900   2.127   1.790   2.399
 1569SOL    HW2  901   2.137   1.713   2.255
 1570SOL     OW  902   2.989   1.341   3.552
 1570SOL    HW1  903   3.036   1.341   3.640
 1570SOL    HW2  904   2.941   1.254   3.541
 1571SOL     OW  905   2.092   1.434   2.400
 1571SOL    HW1  906   2.066   1.530   2.400
 1571SOL    HW2  907   2.021   1.380   2.445
 1572SOL     OW  908   2.102   1.091   2.748
 1572SOL    HW1  909   2.116   1.007   2.800
 1572SOL    HW2  910   2.047   1.155   2.803
 1573SOL     OW  911   2.482   1.786   3.301
 1573SOL    HW1  912   2.390   1.769   3.336
 1573SOL    HW2  913   2.510   1.878   3.327
 1574SOL     OW  914   2.468   0.964   1.985
 1574SOL    HW1  915   2.475   1.048   1.931
 1574SOL    HW2  916   2.514   0.977   2.073
 1576SOL     OW  917   1.984   0.643   2.425
 1576SOL    HW1  918   1.939   0.555   2.442
 1576SOL    HW2  919   1.983   0.697   2.509
 1577SOL     OW  920   3.704   1.767   2.221
 1577SOL    HW1  921   3.758   1.738   2.301
 1577SOL    HW2  922   3.734   1.857   2.192
 1578SOL     OW  923   1.889   1.596   1.979
 1578SOL    HW1  924   1.870   1.500   2.000
 1578SOL    HW2  925   1.856   1.654   2.054
 1580SOL     OW  926   3.503   1.108   2.294
 1580SOL    HW1  927   3.589   1.110   2.242
 1580SOL    HW2  928   3.517   1.155   2.382
 1582SOL     OW  929   2.475   1.365   2.588
 1582SOL    HW1  930   2.426   1.278   2.597
 1582SOL    HW2  931   2.452   1.408   2.501
 1583SOL     OW  932   3.155   1.228   3.285
 1583SOL    HW1  933   3.192   1.155   3.227
 1583SOL    HW2  934   3.207   1.233   3.370
 1585SOL     OW  935   2.059   0.976   3.126
 1585SOL    HW1  936   2.148   0.931   3.112
 1585SOL    HW2  937   1.986   0.911   3.107
 1586SOL     OW  938   3.387   0.999   2.052
 1586SOL    HW1  939   3.324   0.923   2.065
 1586SOL    HW2  940   3.435   1.017   2.138
 1587SOL     OW  941   3.049   1.792   3.478
 1587SOL    HW1  942   3.073   1.852   3.402
 1587SOL    HW2  943   3.056   1.697   3.448
 1589SOL     OW  944   3.328   1.417   2.815
 1589SOL    HW1  945   3.269   1.423   2.895
 1589SOL    HW2  946   3.313   1.329   2.769
 1590SOL     OW  947   3.529   1.714   2.434
 1590SOL    HW1  948   3.488   1.691   2.346
 1590SOL    HW2  949   3.511   1.640   2.499
 1591SOL     OW  950   2.460   0.729   2.132
 1591SOL    HW1  951   2.484   0.798   2.064
 1591SOL    HW2  952   2.382   0.762   2.186
 1593SOL     OW  953   3.438   1.662   2.169
 1593SOL    HW1  954   3.527   1.708   2.172
 1593SOL    HW2  955   3.417   1.638   2.074
 1598SOL     OW  956   2.903   0.701   2.291
 1598SOL    HW1  957   2.929   0.697   2.387
 1598SOL    HW2  958   2.818   0.650   2.277
 1599SOL     OW  959   1.938   0.811   2.651
 1599SOL    HW1  960   2.037   0.799   2.660
 1599SOL    HW2  961   1.914   0.906   2.672
 1600SOL     OW  962   1.992   1.821   3.433
 1600SOL    HW1  963   1.982   1.806   3.532
 1600SOL    HW2  964   1.906   1.857   3.397
 1603SOL     OW  965   3.224   1.144   2.407
 1603SOL    HW1  966   3.307   1.115   2.359
 1603SOL    HW2  967   3.175   1.211   2.351
 1605SOL     OW  968   2.870   1.456   2.339
 1605SOL    HW1  969   2.824   1.528   2.287
 1605SOL    HW2  970   2.866   1.476   2.437
 1606SOL     OW  971   2.213   1.801   2.715
 1606SOL    HW1  972   2.263   1.715   2.721
 1606SOL    HW2  973   2.278   1.878   2.712
 1608SOL     OW  974   3.089   1.550   3.368
 1608SOL    HW1  975   3.095   1.473   3.432
 1608SOL    HW2  976   3.037   1.524   3.288
 1609SOL     OW  977   2.183   0.943   2.104
 1609SOL    HW1  978   2.265   0.982   2.062
 1609SOL    HW2  979   2.156   0.861   2.055
 1611SOL     OW  980   2.323   1.266   3.589
 1611SOL    HW1  981   2.273   1.267   3.503
 1611SOL    HW2  982   2.260   1.248   3.665
 1612SOL     OW  983   2.973   1.776   2.099
 1612SOL    HW1  984   2.913   1.714   2.149
 1612SOL    HW2  985   3.004   1.732   2.014
 1614SOL     OW  986   3.494   1.377   1.943
 1614SOL    HW1  987   3.462   1.471   1.933
 1614SOL    HW2  988   3.418   1.314   1.931
 1615SOL     OW  989   2.326   1.743   2.185
 1615SOL    HW1  990   2.359   1.782   2.271
 1615SOL    HW2  991   2.402   1.736   2.120
 1617SOL     OW  992   2.111   1.785   3.103
 1617SOL    HW1  993   2.168   1.720   3.153
 1617SOL    HW2  994   2.095   1.752   3.010
 1618SOL     OW  995   2.802   1.698   2.766
 1618SOL    HW1  996   2.882   1.641   2.787
 1618SOL    HW2  997   2.753   1.658   2.689
 1619SOL     OW  998   2.244   0.700   2.342
 1619SOL    HW1  999   2.289   0.610   2.339
 1619SOL    HW2 1000   2.150   0.689   2.375
 1623SOL     OW 1001   2.750   1.514   3.057
 1623SOL    HW1 1002   2.727   1.489   2.963
 1623SOL    HW2 1003   2.811   1.445   3.096
 1625SOL     OW 1004   2.665   1.402   2.786
 1625SOL    HW1 1005   2.755   1.416   2.744
 1625SOL    HW2 1006   2.594   1.404   2.715
 1628SOL     OW 1007   3.296   1.188   1.903
 1628SOL    HW1 1008   3.328   1.112   1.960
 1628SOL    HW2 1009   3.204   1.215   1.933
 1632SOL     OW 1010   3.089   1.570   2.655
 1632SOL    HW1 1011   3.110   1.644   2.590
 1632SOL    HW2 1012   3.157   1.570   2.728
 1633SOL     OW 1013   2.321   1.152   2.603
 1633SOL    HW1 1014   2.250   1.125   2.668
 1633SOL    HW2 1015   2.295   1.124   2.510
 1634SOL     OW 1016   3.133   1.797   2.453
 1634SOL    HW1 1017   3.177   1.861   2.389
 1634SOL    HW2 1018   3.083   1.849   2.523
 1640SOL     OW 1019   3.291   1.173   2.729
 1640SOL    HW1 1020   3.236   1.089   2.722
 1640SOL    HW2 1021   3.317   1.202   2.637
 1643SOL     OW 1022   2.350   1.385   2.036
 1643SOL    HW1 1023   2.263   1.370   2.083
 1643SOL    HW2 1024   2.333   1.411   1.941
 1644SOL     OW 1025   3.526   1.280   2.519
 1644SOL    HW1 1026   3.625   1.288   2.533
 1644SOL    HW2 1027   3.481   1.364   2.550
 1648SOL     OW 1028   2.926   1.347   3.202
 1648SOL    HW1 1029   2.846   1.324   3.257
 1648SOL    HW2 1030   3.009   1.321   3.251
 1649SOL     OW 1031   3.454   1.629   3.487
 1649SOL    HW1 1032   3.481   1.663   3.397
 1649SOL    HW2 1033   3.533   1.591   3.533
 1650SOL     OW 1034   2.973   1.195   2.962
 1650SOL    HW1 1035   2.933   1.239   3.043
 1650SOL    HW2 1036   2.932   1.232   2.879
 1651SOL     OW 1037   3.500   1.099   2.941
 1651SOL    HW1 1038   3.505   1.180   3.000
 1651SOL    HW2 1039   3.414   1.101   2.890
 1654SOL     OW 1040   2.567   1.050   2.230
 1654SOL    HW1 1041   2.553   1.057   2.329
 1654SOL    HW2 1042   2.651   0.999   2.212
 1655SOL     OW 1043   2.272   0.813   3.113
 1655SOL    HW1 1044   2.358   0.825   3.163
 1655SOL    HW2 1045   2.230   0.726   3.140
 1657SOL     OW 1046   1.926   1.564   3.193
 1657SOL    HW1 1047   1.880   1.646   3.159
 1657SOL    HW2 1048   2.024   1.583   3.202
 1658SOL     OW 1049   2.229   1.100   2.363
 1658SOL    HW1 1050   2.222   1.183   2.307
 1658SOL    HW2 1051   2.233   1.020   2.303
 1660SOL     OW 1052   3.114   1.348   2.250
 1660SOL    HW1 1053   3.164   1.425   2.290
 1660SOL    HW2 1054   3.019   1.350   2.282
 1661SOL     OW 1055   3.134   1.445   3.004
 1661SOL    HW1 1056   3.181   1.458   3.091
 1661SOL    HW2 1057   3.068   1.371   3.013
 1663SOL     OW 1058   2.216   1.510   3.191
 1663SOL    HW1 1059   2.195   1.466   3.104
 1663SOL    HW2 1060   2.313   1.536   3.194
 1668SOL     OW 1061   2.435   0.870   2.891
 1668SOL    HW1 1062   2.479   0.959   2.882
 1668SOL    HW2 1063   2.372   0.870   2.968
 1672SOL     OW 1064   1.899   1.310   3.144
 1672SOL    HW1 1065   1.952   1.261   3.212
 1672SOL    HW2 1066   1.921   1.408   3.149
 1677SOL     OW 1067   2.885   0.766   2.828
 1677SOL    HW1 1068   2.900   0.787   2.924
 1677SOL    HW2 1069   2.855   0.671   2.819
 1678SOL     OW 1070   2.842   1.573   3.562
 1678SOL    HW1 1071   2.822   1.617   3.474
 1678SOL    HW2 1072   2.881   1.482   3.546
 1682SOL     OW 1073   3.165   0.838   1.904
 1682SOL    HW1 1074   3.199   0.745   1.919
 1682SOL    HW2 1075   3.183   0.865   1.809
 1683SOL     OW 1076   2.930   1.333   2.711
 1683SOL    HW1 1077   2.937   1.249   2.656
 1683SOL    HW2 1078   2.992   1.402   2.675
 1684SOL     OW 1079   2.181   0.810   2.811
 1684SOL    HW1 1080   2.274   0.846   2.816
 1684SOL    HW2 1081   2.175   0.725   2.863
 1688SOL     OW 1082   1.870   1.326   2.062
 1688SOL    HW1 1083   1.777   1.347   2.031
 1688SOL    HW2 1084   1.880   1.227   2.075
 1689SOL     OW 1085   1.950   1.801   2.789
 1689SOL    HW1 1086   1.908   1.715   2.762
 1689SOL    HW2 1087   2.044   1.804   2.755
 1690SOL     OW 1088   2.366   1.568   2.772
 1690SOL    HW1 1089   2.432   1.642   2.781
 1690SOL    HW2 1090   2.410   1.489   2.730
 1697SOL     OW 1091   2.114   1.564   3.606
 1697SOL    HW1 1092   2.084   1.621   3.682
 1697SOL    HW2 1093   2.107   1.467   3.632
 1699SOL     OW 1094   2.792   1.678   3.327
 1699SOL    HW1 1095   2.768   1.660   3.232
 1699SOL    HW2 1096   2.822   1.772   3.337
 1701SOL     OW 1097   2.021   1.137   3.328
 1701SOL    HW1 1098   2.043   1.076   3.404
 1701SOL    HW2 1099   2.031   1.088   3.242
 1702SOL     OW 1100   3.209   1.059   3.096
 1702SOL    HW1 1101   3.233   0.996   3.022
 1702SOL    HW2 1102   3.119   1.099   3.078
 1703SOL     OW 1103   3.164   0.855   2.171
 1703SOL    HW1 1104   3.078   0.824   2.213
 1703SOL    HW2 1105   3.160   0.841   2.072
 1704SOL     OW 1106   3.621   1.747   3.016
 1704SOL    HW1 1107   3.682   1.777   2.943
 1704SOL    HW2 1108   3.583   1.658   2.994
 1705SOL     OW 1109   3.114   1.731   2.990
 1705SOL    HW1 1110   3.198   1.736   2.936
 1705SOL    HW2 1111   3.091   1.635   3.008
 1706SOL     OW 1112   1.945   1.258   2.884
 1706SOL    HW1 1113   1.940   1.257   2.984
 1706SOL    HW2 1114   1.862   1.217   2.846
 1707SOL     OW 1115   2.550   1.662   3.578
 1707SOL    HW1 1116   2.494   1.743   3.587
 1707SOL    HW2 1117   2.602   1.666   3.492
 1709SOL     OW 1118   3.250   1.573   2.339
 1709SOL    HW1 1119   3.317   1.585   2.265
 1709SOL    HW2 1120   3.210   1.662   2.362
 1710SOL     OW 1121   1.992   1.794   3.713
 1710SOL    HW1 1122   1.951   1.720   3.766
 1710SOL    HW2 1123   2.056   1.845   3.771
 1711SOL     OW 1124   3.142   0.927   2.534
 1711SOL    HW1 1125   3.202   0.846   2.536
 1711SOL    HW2 1126   3.182   0.996   2.474
 1712SOL     OW 1127   2.692   1.273   3.284
 1712SOL    HW1 1128   2.687   1.306   3.379
 1712SOL    HW2 1129   2.606   1.292   3.238
 1713SOL     OW 1130   2.534   1.616   2.016
 1713SOL    HW1 1131   2.543   1.626   1.917
 1713SOL    HW2 1132   2.494   1.527   2.037
 1714SOL     OW 1133   3.512   1.720   3.256
 1714SOL    HW1 1134   3.565   1.730   3.172
 1714SOL    HW2 1135   3.485   1.810   3.290
 1717SOL     OW 1136   3.056   1.612   1.893
 1717SOL    HW1 1137   3.062   1.519   1.930
 1717SOL    HW2 1138   2.997   1.612   1.813
 1718SOL     OW 1139   2.684   1.002   3.234
 1718SOL    HW1 1140   2.724   1.001   3.142
 1718SOL    HW2 1141   2.694   1.094   3.274
 1719SOL     OW 1142   2.778   0.910   2.153
 1719SOL    HW1 1143   2.841   0.948   2.085
 1719SOL    HW2 1144   2.818   0.827   2.192
 1720SOL     OW 1145   3.366   1.607   1.906
 1720SOL    HW1 1146   3.274   1.644   1.913
 1720SOL    HW2 1147   3.404   1.627   1.816
 1721SOL     OW 1148   2.234   1.288   3.352
 1721SOL    HW1 1149   2.221   1.381   3.318
 1721SOL    HW2 1150   2.150   1.236   3.339
 1722SOL     OW 1151   3.476   1.292   3.151
 1722SOL    HW1 1152   3.536   1.295   3.231
 1722SOL    HW2 1153   3.401   1.356   3.164
 1723SOL     OW 1154   2.901   1.098   2.558
 1723SOL    HW1 1155   2.831   1.051   2.612
 1723SOL    HW2 1156   2.960   1.030   2.515
 1725SOL     OW 1157   2.452   1.487   2.353
 1725SOL    HW1 1158   2.494   1.429   2.283
 1725SOL    HW2 1159   2.408   1.566   2.309
 1727SOL     OW 1160   2.117   1.348   2.152
 1727SOL    HW1 1161   2.021   1.349   2.125
 1727SOL    HW2 1162   2.129   1.401   2.236
 1733SOL     OW 1163   3.045   1.335   1.981
 1733SOL    HW1 1164   2.946   1.324   1.983
 1733SOL    HW2 1165   3.079   1.350   2.074
 1734SOL     OW 1166   2.475   0.842   3.293
 1734SOL    HW1 1167   2.531   0.923   3.276
 1734SOL    HW2 1168   2.534   0.762   3.296
 1735SOL     OW 1169   3.355   1.767   2.821
 1735SOL    HW1 1170   3.388   1.831   2.752
 1735SOL    HW2 1171   3.421   1.761   2.896
 1738SOL     OW 1172   2.252   1.741   3.422
 1738SOL    HW1 1173   2.161   1.782   3.420
 1738SOL    HW2 1174   2.245   1.647   3.454
 1741SOL     OW 1175   2.456   0.745   2.514
 1741SOL    HW1 1176   2.506   0.830   2.495
 1741SOL    HW2 1177   2.368   0.747   2.466
 1744SOL     OW 1178   2.721   1.374   1.878
 1744SOL    HW1 1179   2.675   1.389   1.966
 1744SOL    HW2 1180   2.765   1.459   1.848
 1745SOL     OW 1181   2.523   1.790   2.815
 1745SOL    HW1 1182   2.477   1.878   2.802
 1745SOL    HW2 1183   2.622   1.802   2.808
 1746SOL     OW 1184   2.721   0.956   2.723
 1746SOL    HW1 1185   2.775   0.887   2.771
 1746SOL    HW2 1186   2.689   1.025   2.789
 1747SOL     OW 1187   2.945   0.984   1.949
 1747SOL    HW1 1188   2.922   1.037   1.867
 1747SOL    HW2 1189   3.026   0.928   1.930
 1748SOL     OW 1190   3.723   1.569   2.713
 1748SOL    HW1 1191   3.652   1.557   2.643
 1748SOL    HW2 1192   3.724   1.490   2.773
 1749SOL     OW 1193   2.083   1.314   3.706
 1749SOL    HW1 1194   2.018   1.241   3.685
 1749SOL    HW2 1195   2.087   1.328   3.804
 1750SOL     OW 1196   1.941   1.240   2.515
 1750SOL    HW1 1197   1.940   1.193   2.603
 1750SOL    HW2 1198   2.023   1.212   2.464
 1751SOL     OW 1199   2.534   1.391   3.486
 1751SOL    HW1 1200   2.456   1.341   3.524
 1751SOL    HW2 1201   2.531   1.486   3.517
 1754SOL     OW 1202   3.567   1.487   2.966
 1754SOL    HW1 1203   3.474   1.462   2.939
 1754SOL    HW2 1204   3.593   1.437   3.048
 1756SOL     OW 1205   2.674   1.586   2.549
 1756SOL    HW1 1206   2.706   1.596   2.455
 1756SOL    HW2 1207   2.595   1.524   2.551
 1759SOL     OW 1208   2.632   1.330   2.163
 1759SOL    HW1 1209   2.586   1.243   2.180
 1759SOL    HW2 1210   2.723   1.327   2.204
 1760SOL     OW 1211   2.480   1.567   3.146
 1760SOL    HW1 1212   2.475   1.649   3.203
 1760SOL    HW2 1213   2.569   1.564   3.101
 1764SOL     OW 1214   1.901   1.077   2.162
 1764SOL    HW1 1215   2.000   1.066   2.153
 1764SOL    HW2 1216   1.861   0.991   2.194
 1765SOL     OW 1217   2.737   1.646   2.199
 1765SOL    HW1 1218   2.660   1.611   2.145
 1765SOL    HW2 1219   2.705   1.717   2.261
 1780SOL     OW 1220   1.889   1.596   3.841
 1780SOL    HW1 1221   1.870   1.500   3.862
 1780SOL    HW2 1222   1.856   1.654   3.916
 1802SOL     OW 1223   2.326   1.743   4.047
 1802SOL    HW1 1224   2.359   1.782   4.133
 1802SOL    HW2 1225   2.402   1.736   3.982
 1844SOL     OW 1226   2.534   1.616   3.878
 1844SOL    HW1 1227   2.543   1.626   3.779
 1844SOL    HW2 1228   2.494   1.527   3.899
 1847SOL     OW 1229   3.056   1.612   3.755
 1847SOL    HW1 1230   3.062   1.519   3.792
 1847SOL    HW2 1231   2.997   1.612   3.675
 1859SOL     OW 1232   2.721   1.374   3.740
 1859SOL    HW1 1233   2.675   1.389   3.828
 1859SOL    HW2 1234   2.765   1.459   3.710
 1875SOL     OW 1235   2.087   2.137   0.996
 1875SOL    HW1 1236   2.122   2.120   1.088
 1875SOL    HW2 1237   1.999   2.092   0.984
 1876SOL     OW 1238   1.881   2.230   0.647
 1876SOL    HW1 1239   1.799   2.273   0.686
 1876SOL    HW2 1240   1.853   2.157   0.584
 1877SOL     OW 1241   2.431   3.137   1.165
 1877SOL    HW1 1242   2.338   3.130   1.128
 1877SOL    HW2 1243   2.442   3.226   1.209
 1879SOL     OW 1244   2.997   2.565   0.717
 1879SOL    HW1 1245   3.054   2.643   0.692
 1879SOL    HW2 1246   2.937   2.591   0.793
 1881SOL     OW 1247   2.630   3.006   1.023
 1881SOL    HW1 1248   2.552   3.023   1.083
 1881SOL    HW2 1249   2.664   3.093   0.987
 1882SOL     OW 1250   2.712   2.660   1.823
 1882SOL    HW1 1251   2.708   2.736   1.888
 1882SOL    HW2 1252   2.734   2.696   1.732
 1883SOL     OW 1253   2.547   2.874   0.665
 1883SOL    HW1 1254   2.616   2.858   0.735
 1883SOL    HW2 1255   2.474   2.931   0.703
 1884SOL     OW 1256   2.548   3.023   1.803
 1884SOL    HW1 1257   2.608   3.102   1.817
 1884SOL    HW2 1258   2.462   3.054   1.762
 1885SOL     OW 1259   2.197   3.297   1.061
 1885SOL    HW1 1260   2.119   3.266   1.008
 1885SOL    HW2 1261   2.255   3.355   1.004
 1886SOL     OW 1262   3.322   3.367   1.339
 1886SOL    HW1 1263   3.346   3.461   1.365
 1886SOL    HW2 1264   3.306   3.313   1.421
 1887SOL     OW 1265   2.300   2.254   1.499
 1887SOL    HW1 1266   2.382   2.198   1.508
 1887SOL    HW2 1267   2.219   2.196   1.503
 1890SOL     OW 1268   2.989   3.203   1.690
 1890SOL    HW1 1269   3.036   3.203   1.778
 1890SOL    HW2 1270   2.941   3.116   1.679
 1892SOL     OW 1271   2.102   2.953   0.886
 1892SOL    HW1 1272   2.116   2.869   0.938
 1892SOL    HW2 1273   2.047   3.017   0.941
 1893SOL     OW 1274   2.482   3.648   1.439
 1893SOL    HW1 1275   2.390   3.631   1.474
 1893SOL    HW2 1276   2.510   3.740   1.465
 1895SOL     OW 1277   3.456   1.976   1.480
 1895SOL    HW1 1278   3.438   2.043   1.408
 1895SOL    HW2 1279   3.453   2.022   1.569
 1900SOL     OW 1280   1.975   2.599   1.597
 1900SOL    HW1 1281   2.063   2.586   1.642
 1900SOL    HW2 1282   1.962   2.696   1.575
 1902SOL     OW 1283   3.155   3.090   1.423
 1902SOL    HW1 1284   3.192   3.017   1.365
 1902SOL    HW2 1285   3.207   3.095   1.508
 1904SOL     OW 1286   2.059   2.838   1.264
 1904SOL    HW1 1287   2.148   2.793   1.250
 1904SOL    HW2 1288   1.986   2.773   1.245
 1906SOL     OW 1289   3.049   3.654   1.616
 1906SOL    HW1 1290   3.073   3.714   1.540
 1906SOL    HW2 1291   3.056   3.559   1.586
 1907SOL     OW 1292   2.179   2.113   1.801
 1907SOL    HW1 1293   2.250   2.184   1.807
 1907SOL    HW2 1294   2.091   2.152   1.829
 1911SOL     OW 1295   3.143   2.207   0.944
 1911SOL    HW1 1296   3.057   2.157   0.931
 1911SOL    HW2 1297   3.205   2.153   1.000
 1913SOL     OW 1298   2.669   2.467   1.465
 1913SOL    HW1 1299   2.622   2.464   1.554
 1913SOL    HW2 1300   2.618   2.412   1.399
 1914SOL     OW 1301   3.256   2.331   1.674
 1914SOL    HW1 1302   3.236   2.374   1.762
 1914SOL    HW2 1303   3.334   2.269   1.683
 1915SOL     OW 1304   2.835   2.752   1.572
 1915SOL    HW1 1305   2.881   2.668   1.543
 1915SOL    HW2 1306   2.779   2.786   1.497
 1916SOL     OW 1307   2.853   2.272   1.242
 1916SOL    HW1 1308   2.776   2.306   1.296
 1916SOL    HW2 1309   2.819   2.221   1.163
 1918SOL     OW 1310   1.938   2.673   0.789
 1918SOL    HW1 1311   2.037   2.661   0.798
 1918SOL    HW2 1312   1.914   2.768   0.810
 1919SOL     OW 1313   1.992   3.683   1.571
 1919SOL    HW1 1314   1.982   3.668   1.670
 1919SOL    HW2 1315   1.906   3.719   1.535
 1921SOL     OW 1316   3.581   2.447   1.831
 1921SOL    HW1 1317   3.555   2.536   1.795
 1921SOL    HW2 1318   3.579   2.379   1.758
 1923SOL     OW 1319   2.412   2.058   0.885
 1923SOL    HW1 1320   2.407   2.053   0.985
 1923SOL    HW2 1321   2.414   2.154   0.856
 1927SOL     OW 1322   3.089   3.412   1.506
 1927SOL    HW1 1323   3.095   3.335   1.570
 1927SOL    HW2 1324   3.037   3.386   1.426
 1930SOL     OW 1325   2.323   3.128   1.727
 1930SOL    HW1 1326   2.273   3.129   1.641
 1930SOL    HW2 1327   2.260   3.110   1.803
 1932SOL     OW 1328   2.064   2.147   1.498
 1932SOL    HW1 1329   1.984   2.207   1.485
 1932SOL    HW2 1330   2.054   2.098   1.584
 1936SOL     OW 1331   2.111   3.647   1.241
 1936SOL    HW1 1332   2.168   3.582   1.291
 1936SOL    HW2 1333   2.095   3.614   1.148
 1939SOL     OW 1334   3.409   2.084   1.729
 1939SOL    HW1 1335   3.404   2.121   1.821
 1939SOL    HW2 1336   3.337   2.015   1.717
 1940SOL     OW 1337   2.643   2.126   1.749
 1940SOL    HW1 1338   2.710   2.065   1.792
 1940SOL    HW2 1339   2.570   2.145   1.814
 1941SOL     OW 1340   2.750   3.376   1.195
 1941SOL    HW1 1341   2.727   3.351   1.101
 1941SOL    HW2 1342   2.811   3.307   1.234
 1942SOL     OW 1343   3.213   2.452   1.433
 1942SOL    HW1 1344   3.241   2.409   1.518
 1942SOL    HW2 1345   3.238   2.548   1.434
 1943SOL     OW 1346   2.665   3.264   0.924
 1943SOL    HW1 1347   2.755   3.278   0.882
 1943SOL    HW2 1348   2.594   3.266   0.853
 1944SOL     OW 1349   2.784   2.365   0.899
 1944SOL    HW1 1350   2.759   2.356   0.803
 1944SOL    HW2 1351   2.832   2.283   0.930
 1949SOL     OW 1352   2.938   2.545   1.464
 1949SOL    HW1 1353   2.858   2.484   1.467
 1949SOL    HW2 1354   3.019   2.492   1.440
 1951SOL     OW 1355   2.321   3.014   0.741
 1951SOL    HW1 1356   2.250   2.987   0.806
 1951SOL    HW2 1357   2.295   2.986   0.648
 1954SOL     OW 1358   1.940   2.418   1.386
 1954SOL    HW1 1359   2.032   2.417   1.345
 1954SOL    HW2 1360   1.934   2.492   1.453
 1955SOL     OW 1361   2.423   2.084   1.147
 1955SOL    HW1 1362   2.461   2.000   1.184
 1955SOL    HW2 1363   2.335   2.103   1.191
 1956SOL     OW 1364   2.728   2.316   0.642
 1956SOL    HW1 1365   2.696   2.388   0.580
 1956SOL    HW2 1366   2.752   2.235   0.589
 1957SOL     OW 1367   2.879   1.901   0.753
 1957SOL    HW1 1368   2.807   1.906   0.684
 1957SOL    HW2 1369   2.855   1.832   0.822
 1959SOL     OW 1370   3.328   2.452   0.992
 1959SOL    HW1 1371   3.298   2.357   0.999
 1959SOL    HW2 1372   3.401   2.468   1.058
 1965SOL     OW 1373   3.616   3.085   1.588
 1965SOL    HW1 1374   3.707   3.046   1.575
 1965SOL    HW2 1375   3.624   3.181   1.612
 1966SOL     OW 1376   2.926   3.209   1.340
 1966SOL    HW1 1377   2.846   3.186   1.395
 1966SOL    HW2 1378   3.009   3.183   1.389
 1967SOL     OW 1379   3.454   3.491   1.625
 1967SOL    HW1 1380   3.481   3.525   1.535
 1967SOL    HW2 1381   3.533   3.453   1.671
 1968SOL     OW 1382   2.973   3.057   1.100
 1968SOL    HW1 1383   2.933   3.101   1.181
 1968SOL    HW2 1384   2.932   3.094   1.017
 1970SOL     OW 1385   2.777   1.951   1.402
 1970SOL    HW1 1386   2.802   1.931   1.307
 1970SOL    HW2 1387   2.849   2.007   1.444
 1971SOL     OW 1388   2.842   2.978   1.719
 1971SOL    HW1 1389   2.743   2.984   1.729
 1971SOL    HW2 1390   2.865   2.898   1.663
 1973SOL     OW 1391   2.272   2.675   1.251
 1973SOL    HW1 1392   2.358   2.687   1.301
 1973SOL    HW2 1393   2.230   2.588   1.278
 1974SOL     OW 1394   3.136   2.248   1.262
 1974SOL    HW1 1395   3.157   2.322   1.326
 1974SOL    HW2 1396   3.047   2.265   1.219
 1975SOL     OW 1397   1.926   3.426   1.331
 1975SOL    HW1 1398   1.880   3.508   1.297
 1975SOL    HW2 1399   2.024   3.445   1.340
 1977SOL     OW 1400   2.428   2.399   0.865
 1977SOL    HW1 1401   2.440   2.465   0.791
 1977SOL    HW2 1402   2.474   2.433   0.948
 1979SOL     OW 1403   3.134   3.307   1.142
 1979SOL    HW1 1404   3.181   3.320   1.229
 1979SOL    HW2 1405   3.068   3.233   1.151
 1981SOL     OW 1406   2.216   3.372   1.329
 1981SOL    HW1 1407   2.195   3.328   1.242
 1981SOL    HW2 1408   2.313   3.398   1.332
 1982SOL     OW 1409   2.264   2.613   1.598
 1982SOL    HW1 1410   2.332   2.668   1.551
 1982SOL    HW2 1411   2.304   2.525   1.625
 1983SOL     OW 1412   3.449   2.641   1.670
 1983SOL    HW1 1413   3.357   2.679   1.665
 1983SOL    HW2 1414   3.509   2.688   1.605
 1984SOL     OW 1415   2.875   1.967   1.770
 1984SOL    HW1 1416   2.881   2.052   1.718
 1984SOL    HW2 1417   2.907   1.891   1.713
 1985SOL     OW 1418   2.366   1.912   1.740
 1985SOL    HW1 1419   2.324   1.855   1.670
 1985SOL    HW2 1420   2.300   1.981   1.772
 1986SOL     OW 1421   2.435   2.732   1.029
 1986SOL    HW1 1422   2.479   2.821   1.020
 1986SOL    HW2 1423   2.372   2.732   1.106
 1987SOL     OW 1424   3.222   2.724   1.045
 1987SOL    HW1 1425   3.147   2.724   0.979
 1987SOL    HW2 1426   3.259   2.632   1.054
 1989SOL     OW 1427   2.169   2.075   1.231
 1989SOL    HW1 1428   2.146   2.112   1.321
 1989SOL    HW2 1429   2.139   1.980   1.225
 1990SOL     OW 1430   1.899   3.172   1.282
 1990SOL    HW1 1431   1.952   3.123   1.350
 1990SOL    HW2 1432   1.921   3.270   1.287
 1991SOL     OW 1433   2.594   2.496   1.064
 1991SOL    HW1 1434   2.653   2.470   0.988
 1991SOL    HW2 1435   2.566   2.592   1.053
 1992SOL     OW 1436   3.590   2.797   1.854
 1992SOL    HW1 1437   3.544   2.790   1.765
 1992SOL    HW2 1438   3.528   2.841   1.920
 1995SOL     OW 1439   2.885   2.628   0.966
 1995SOL    HW1 1440   2.900   2.649   1.062
 1995SOL    HW2 1441   2.855   2.533   0.957
 1996SOL     OW 1442   2.842   3.435   1.700
 1996SOL    HW1 1443   2.822   3.479   1.612
 1996SOL    HW2 1444   2.881   3.344   1.684
 1998SOL     OW 1445   2.212   2.760   1.804
 1998SOL    HW1 1446   2.288   2.804   1.852
 1998SOL    HW2 1447   2.247   2.713   1.722
 2002SOL     OW 1448   2.181   2.672   0.949
 2002SOL    HW1 1449   2.274   2.708   0.954
 2002SOL    HW2 1450   2.175   2.587   1.001
 2003SOL     OW 1451   2.201   2.371   1.006
 2003SOL    HW1 1452   2.149   2.288   0.989
 2003SOL    HW2 1453   2.278   2.376   0.942
 2004SOL     OW 1454   3.000   2.242   1.678
 2004SOL    HW1 1455   2.955   2.305   1.742
 2004SOL    HW2 1456   3.093   2.273   1.661
 2005SOL     OW 1457   3.022   2.069   1.477
 2005SOL    HW1 1458   3.022   2.133   1.554
 2005SOL    HW2 1459   3.050   2.117   1.394
 2009SOL     OW 1460   2.864   2.658   1.238
 2009SOL    HW1 1461   2.905   2.626   1.324
 2009SOL    HW2 1462   2.768   2.631   1.235
 2010SOL     OW 1463   1.902   2.406   1.114
 2010SOL    HW1 1464   1.987   2.373   1.073
 2010SOL    HW2 1465   1.915   2.421   1.212
 2011SOL     OW 1466   2.051   2.382   1.722
 2011SOL    HW1 1467   2.110   2.342   1.652
 2011SOL    HW2 1468   1.993   2.453   1.681
 2012SOL     OW 1469   3.231   2.812   1.660
 2012SOL    HW1 1470   3.270   2.901   1.680
 2012SOL    HW2 1471   3.241   2.792   1.563
 2014SOL     OW 1472   3.519   2.466   1.206
 2014SOL    HW1 1473   3.481   2.397   1.268
 2014SOL    HW2 1474   3.601   2.430   1.162
 2015SOL     OW 1475   2.114   3.426   1.744
 2015SOL    HW1 1476   2.084   3.483   1.820
 2015SOL    HW2 1477   2.107   3.329   1.770
 2016SOL     OW 1478   2.533   2.326   1.269
 2016SOL    HW1 1479   2.499   2.237   1.239
 2016SOL    HW2 1480   2.559   2.380   1.189
 2017SOL     OW 1481   2.792   3.540   1.465
 2017SOL    HW1 1482   2.768   3.522   1.370
 2017SOL    HW2 1483   2.822   3.634   1.475
 2019SOL     OW 1484   2.021   2.999   1.466
 2019SOL    HW1 1485   2.043   2.938   1.542
 2019SOL    HW2 1486   2.031   2.950   1.380
 2020SOL     OW 1487   3.209   2.921   1.234
 2020SOL    HW1 1488   3.233   2.858   1.160
 2020SOL    HW2 1489   3.119   2.961   1.216
 2024SOL     OW 1490   1.945   3.120   1.022
 2024SOL    HW1 1491   1.940   3.119   1.122
 2024SOL    HW2 1492   1.862   3.079   0.984
 2025SOL     OW 1493   2.550   3.524   1.716
 2025SOL    HW1 1494   2.494   3.605   1.725
 2025SOL    HW2 1495   2.602   3.528   1.630
 2029SOL     OW 1496   1.992   3.656   1.851
 2029SOL    HW1 1497   1.951   3.582   1.904
 2029SOL    HW2 1498   2.056   3.707   1.909
 2031SOL     OW 1499   2.692   3.135   1.422
 2031SOL    HW1 1500   2.687   3.168   1.517
 2031SOL    HW2 1501   2.606   3.154   1.376
 2035SOL     OW 1502   2.125   2.188   0.720
 2035SOL    HW1 1503   2.046   2.239   0.686
 2035SOL    HW2 1504   2.116   2.173   0.818
 2037SOL     OW 1505   2.684   2.864   1.372
 2037SOL    HW1 1506   2.724   2.863   1.280
 2037SOL    HW2 1507   2.694   2.956   1.412
 2040SOL     OW 1508   2.234   3.150   1.490
 2040SOL    HW1 1509   2.221   3.243   1.456
 2040SOL    HW2 1510   2.150   3.098   1.477
 2041SOL     OW 1511   3.476   3.154   1.289
 2041SOL    HW1 1512   3.536   3.157   1.369
 2041SOL    HW2 1513   3.401   3.218   1.302
 2043SOL     OW 1514   2.876   2.098   0.971
 2043SOL    HW1 1515   2.868   2.062   0.878
 2043SOL    HW2 1516   2.874   2.022   1.036
 2045SOL     OW 1517   3.571   2.247   1.381
 2045SOL    HW1 1518   3.644   2.316   1.385
 2045SOL    HW2 1519   3.599   2.172   1.322
 2047SOL     OW 1520   1.967   2.875   1.726
 2047SOL    HW1 1521   1.890   2.842   1.780
 2047SOL    HW2 1522   2.052   2.845   1.768
 2048SOL     OW 1523   2.534   2.065   1.489
 2048SOL    HW1 1524   2.624   2.049   1.449
 2048SOL    HW2 1525   2.542   2.070   1.588
 2049SOL     OW 1526   3.302   2.718   1.398
 2049SOL    HW1 1527   3.245   2.770   1.335
 2049SOL    HW2 1528   3.398   2.730   1.374
 2052SOL     OW 1529   2.475   2.704   1.431
 2052SOL    HW1 1530   2.531   2.785   1.414
 2052SOL    HW2 1531   2.534   2.624   1.434
 2054SOL     OW 1532   2.578   2.427   1.708
 2054SOL    HW1 1533   2.597   2.492   1.782
 2054SOL    HW2 1534   2.638   2.347   1.717
 2055SOL     OW 1535   3.312   3.082   1.633
 2055SOL    HW1 1536   3.303   3.072   1.732
 2055SOL    HW2 1537   3.408   3.075   1.607
 2056SOL     OW 1538   2.252   3.603   1.560
 2056SOL    HW1 1539   2.161   3.644   1.558
 2056SOL    HW2 1540   2.245   3.509   1.592
 2057SOL     OW 1541   3.536   2.745   1.254
 2057SOL    HW1 1542   3.509   2.656   1.217
 2057SOL    HW2 1543   3.537   2.813   1.181
 2059SOL     OW 1544   2.456   2.607   0.652
 2059SOL    HW1 1545   2.506   2.692   0.633
 2059SOL    HW2 1546   2.368   2.609   0.604
 2060SOL     OW 1547   3.639   2.204   1.642
 2060SOL    HW1 1548   3.622   2.235   1.548
 2060SOL    HW2 1549   3.555   2.167   1.680
 2061SOL     OW 1550   3.592   2.796   1.517
 2061SOL    HW1 1551   3.630   2.887   1.532
 2061SOL    HW2 1552   3.584   2.779   1.418
 2064SOL     OW 1553   2.721   2.818   0.861
 2064SOL    HW1 1554   2.775   2.749   0.909
 2064SOL    HW2 1555   2.689   2.887   0.927
 2067SOL     OW 1556   2.083   3.176   1.844
 2067SOL    HW1 1557   2.018   3.103   1.823
 2067SOL    HW2 1558   2.087   3.190   1.942
 2069SOL     OW 1559   2.534   3.253   1.624
 2069SOL    HW1 1560   2.456   3.203   1.662
 2069SOL    HW2 1561   2.531   3.348   1.655
 2070SOL     OW 1562   3.686   2.054   1.227
 2070SOL    HW1 1563   3.682   1.964   1.271
 2070SOL    HW2 1564   3.689   2.043   1.128
 2073SOL     OW 1565   2.179   2.409   1.280
 2073SOL    HW1 1566   2.217   2.350   1.352
 2073SOL    HW2 1567   2.219   2.383   1.192
 2075SOL     OW 1568   3.286   2.076   1.112
 2075SOL    HW1 1569   3.338   2.011   1.167
 2075SOL    HW2 1570   3.237   2.139   1.173
 2076SOL     OW 1571   2.863   1.896   1.154
 2076SOL    HW1 1572   2.800   1.824   1.123
 2076SOL    HW2 1573   2.956   1.860   1.154
 2078SOL     OW 1574   2.480   3.429   1.284
 2078SOL    HW1 1575   2.475   3.511   1.341
 2078SOL    HW2 1576   2.569   3.426   1.239
 2084SOL     OW 1577   2.092   2.490   1.975
 2084SOL    HW1 1578   1.999   2.488   2.012
 2084SOL    HW2 1579   2.093   2.451   1.883
 2085SOL     OW 1580   2.087   2.137   2.858
 2085SOL    HW1 1581   2.122   2.120   2.950
 2085SOL    HW2 1582   1.999   2.092   2.846
 2086SOL     OW 1583   1.881   2.230   2.509
 2086SOL    HW1 1584   1.799   2.273   2.548
 2086SOL    HW2 1585   1.853   2.157   2.446
 2087SOL     OW 1586   2.431   3.137   3.027
 2087SOL    HW1 1587   2.338   3.130   2.990
 2087SOL    HW2 1588   2.442   3.226   3.071
 2088SOL     OW 1589   3.417   3.373   2.565
 2088SOL    HW1 1590   3.360   3.357   2.646
 2088SOL    HW2 1591   3.358   3.383   2.485
 2089SOL     OW 1592   2.997   2.565   2.579
 2089SOL    HW1 1593   3.054   2.643   2.554
 2089SOL    HW2 1594   2.937   2.591   2.655
 2090SOL     OW 1595   3.617   2.469   2.093
 2090SOL    HW1 1596   3.605   2.456   1.994
 2090SOL    HW2 1597   3.587   2.388   2.142
 2091SOL     OW 1598   2.630   3.006   2.885
 2091SOL    HW1 1599   2.552   3.023   2.945
 2091SOL    HW2 1600   2.664   3.093   2.849
 2092SOL     OW 1601   2.712   2.660   3.685
 2092SOL    HW1 1602   2.708   2.736   3.750
 2092SOL    HW2 1603   2.734   2.696   3.594
 2093SOL     OW 1604   2.547   2.874   2.527
 2093SOL    HW1 1605   2.616   2.858   2.597
 2093SOL    HW2 1606   2.474   2.931   2.565
 2094SOL     OW 1607   2.548   3.023   3.665
 2094SOL    HW1 1608   2.608   3.102   3.679
 2094SOL    HW2 1609   2.462   3.054   3.624
 2095SOL     OW 1610   2.197   3.297   2.923
 2095SOL    HW1 1611   2.119   3.266   2.870
 2095SOL    HW2 1612   2.255   3.355   2.866
 2096SOL     OW 1613   3.322   3.367   3.201
 2096SOL    HW1 1614   3.346   3.461   3.227
 2096SOL    HW2 1615   3.306   3.313   3.283
 2097SOL     OW 1616   2.300   2.254   3.361
 2097SOL    HW1 1617   2.382   2.198   3.370
 2097SOL    HW2 1618   2.219   2.196   3.365
 2098SOL     OW 1619   3.465   2.309   2.599
 2098SOL    HW1 1620   3.391   2.355   2.549
 2098SOL    HW2 1621   3.516   2.377   2.652
 2099SOL     OW 1622   2.093   3.575   2.345
 2099SOL    HW1 1623   2.127   3.652   2.399
 2099SOL    HW2 1624   2.137   3.575   2.255
 2100SOL     OW 1625   2.989   3.203   3.552
 2100SOL    HW1 1626   3.036   3.203   3.640
 2100SOL    HW2 1627   2.941   3.116   3.541
 2101SOL     OW 1628   2.092   3.296   2.400
 2101SOL    HW1 1629   2.066   3.392   2.400
 2101SOL    HW2 1630   2.021   3.242   2.445
 2102SOL     OW 1631   2.102   2.953   2.748
 2102SOL    HW1 1632   2.116   2.869   2.800
 2102SOL    HW2 1633   2.047   3.017   2.803
 2103SOL     OW 1634   2.482   3.648   3.301
 2103SOL    HW1 1635   2.390   3.631   3.336
 2103SOL    HW2 1636   2.510   3.740   3.327
 2104SOL     OW 1637   2.468   2.826   1.985
 2104SOL    HW1 1638   2.475   2.910   1.931
 2104SOL    HW2 1639   2.514   2.839   2.073
 2105SOL     OW 1640   3.456   1.976   3.342
 2105SOL    HW1 1641   3.438   2.043   3.270
 2105SOL    HW2 1642   3.453   2.022   3.431
 2107SOL     OW 1643   1.889   3.458   1.979
 2107SOL    HW1 1644   1.870   3.362   2.000
 2107SOL    HW2 1645   1.856   3.516   2.054
 2108SOL     OW 1646   3.551   2.784   2.474
 2108SOL    HW1 1647   3.646   2.755   2.482
 2108SOL    HW2 1648   3.543   2.849   2.399
 2109SOL     OW 1649   3.503   2.970   2.294
 2109SOL    HW1 1650   3.589   2.972   2.242
 2109SOL    HW2 1651   3.517   3.017   2.382
 2110SOL     OW 1652   1.975   2.599   3.459
 2110SOL    HW1 1653   2.063   2.586   3.504
 2110SOL    HW2 1654   1.962   2.696   3.437
 2111SOL     OW 1655   2.475   3.227   2.588
 2111SOL    HW1 1656   2.426   3.140   2.597
 2111SOL    HW2 1657   2.452   3.270   2.501
 2112SOL     OW 1658   3.155   3.090   3.285
 2112SOL    HW1 1659   3.192   3.017   3.227
 2112SOL    HW2 1660   3.207   3.095   3.370
 2113SOL     OW 1661   2.671   1.866   2.364
 2113SOL    HW1 1662   2.711   1.957   2.355
 2113SOL    HW2 1663   2.571   1.874   2.370
 2114SOL     OW 1664   2.059   2.838   3.126
 2114SOL    HW1 1665   2.148   2.793   3.112
 2114SOL    HW2 1666   1.986   2.773   3.107
 2115SOL     OW 1667   3.387   2.861   2.052
 2115SOL    HW1 1668   3.324   2.785   2.065
 2115SOL    HW2 1669   3.435   2.879   2.138
 2117SOL     OW 1670   2.179   2.113   3.663
 2117SOL    HW1 1671   2.250   2.184   3.669
 2117SOL    HW2 1672   2.091   2.152   3.691
 2118SOL     OW 1673   3.328   3.279   2.815
 2118SOL    HW1 1674   3.269   3.285   2.895
 2118SOL    HW2 1675   3.313   3.191   2.769
 2119SOL     OW 1676   3.529   3.576   2.434
 2119SOL    HW1 1677   3.488   3.553   2.346
 2119SOL    HW2 1678   3.511   3.502   2.499
 2120SOL     OW 1679   3.143   2.207   2.806
 2120SOL    HW1 1680   3.057   2.157   2.793
 2120SOL    HW2 1681   3.205   2.153   2.862
 2121SOL     OW 1682   3.438   3.524   2.169
 2121SOL    HW1 1683   3.527   3.570   2.172
 2121SOL    HW2 1684   3.417   3.500   2.074
 2122SOL     OW 1685   2.669   2.467   3.327
 2122SOL    HW1 1686   2.622   2.464   3.416
 2122SOL    HW2 1687   2.618   2.412   3.261
 2123SOL     OW 1688   3.256   2.331   3.536
 2123SOL    HW1 1689   3.236   2.374   3.624
 2123SOL    HW2 1690   3.334   2.269   3.545
 2124SOL     OW 1691   2.835   2.752   3.434
 2124SOL    HW1 1692   2.881   2.668   3.405
 2124SOL    HW2 1693   2.779   2.786   3.359
 2125SOL     OW 1694   2.853   2.272   3.104
 2125SOL    HW1 1695   2.776   2.306   3.158
 2125SOL    HW2 1696   2.819   2.221   3.025
 2126SOL     OW 1697   1.938   2.673   2.651
 2126SOL    HW1 1698   2.037   2.661   2.660
 2126SOL    HW2 1699   1.914   2.768   2.672
 2127SOL     OW 1700   1.992   3.683   3.433
 2127SOL    HW1 1701   1.982   3.668   3.532
 2127SOL    HW2 1702   1.906   3.719   3.397
 2128SOL     OW 1703   2.727   2.210   2.057
 2128SOL    HW1 1704   2.786   2.273   2.008
 2128SOL    HW2 1705   2.746   2.116   2.028
 2130SOL     OW 1706   3.224   3.006   2.407
 2130SOL    HW1 1707   3.307   2.977   2.359
 2130SOL    HW2 1708   3.175   3.073   2.351
 2131SOL     OW 1709   2.412   2.058   2.747
 2131SOL    HW1 1710   2.407   2.053   2.847
 2131SOL    HW2 1711   2.414   2.154   2.718
 2132SOL     OW 1712   2.870   3.318   2.339
 2132SOL    HW1 1713   2.824   3.390   2.287
 2132SOL    HW2 1714   2.866   3.338   2.437
 2133SOL     OW 1715   2.213   3.663   2.715
 2133SOL    HW1 1716   2.263   3.577   2.721
 2133SOL    HW2 1717   2.278   3.740   2.712
 2134SOL     OW 1718   3.657   2.928   2.735
 2134SOL    HW1 1719   3.595   2.913   2.659
 2134SOL    HW2 1720   3.605   2.939   2.820
 2135SOL     OW 1721   3.089   3.412   3.368
 2135SOL    HW1 1722   3.095   3.335   3.432
 2135SOL    HW2 1723   3.037   3.386   3.288
 2136SOL     OW 1724   2.183   2.805   2.104
 2136SOL    HW1 1725   2.265   2.844   2.062
 2136SOL    HW2 1726   2.156   2.723   2.055
 2137SOL     OW 1727   3.320   2.597   2.590
 2137SOL    HW1 1728   3.315   2.532   2.665
 2137SOL    HW2 1729   3.400   2.656   2.603
 2138SOL     OW 1730   2.323   3.128   3.589
 2138SOL    HW1 1731   2.273   3.129   3.503
 2138SOL    HW2 1732   2.260   3.110   3.665
 2139SOL     OW 1733   2.973   3.638   2.099
 2139SOL    HW1 1734   2.913   3.576   2.149
 2139SOL    HW2 1735   3.004   3.594   2.014
 2140SOL     OW 1736   2.064   2.147   3.360
 2140SOL    HW1 1737   1.984   2.207   3.347
 2140SOL    HW2 1738   2.054   2.098   3.446
 2141SOL     OW 1739   3.494   3.239   1.943
 2141SOL    HW1 1740   3.462   3.333   1.933
 2141SOL    HW2 1741   3.418   3.176   1.931
 2142SOL     OW 1742   2.326   3.605   2.185
 2142SOL    HW1 1743   2.359   3.644   2.271
 2142SOL    HW2 1744   2.402   3.598   2.120
 2143SOL     OW 1745   3.262   1.969   2.288
 2143SOL    HW1 1746   3.238   1.932   2.198
 2143SOL    HW2 1747   3.361   1.985   2.292
 2144SOL     OW 1748   2.111   3.647   3.103
 2144SOL    HW1 1749   2.168   3.582   3.153
 2144SOL    HW2 1750   2.095   3.614   3.010
 2145SOL     OW 1751   2.802   3.560   2.766
 2145SOL    HW1 1752   2.882   3.503   2.787
 2145SOL    HW2 1753   2.753   3.520   2.689
 2146SOL     OW 1754   3.409   2.084   3.591
 2146SOL    HW1 1755   3.404   2.121   3.683
 2146SOL    HW2 1756   3.337   2.015   3.579
 2147SOL     OW 1757   2.476   1.984   1.979
 2147SOL    HW1 1758   2.574   1.962   1.986
 2147SOL    HW2 1759   2.445   1.967   1.886
 2148SOL     OW 1760   2.643   2.126   3.611
 2148SOL    HW1 1761   2.710   2.065   3.654
 2148SOL    HW2 1762   2.570   2.145   3.676
 2149SOL     OW 1763   2.750   3.376   3.057
 2149SOL    HW1 1764   2.727   3.351   2.963
 2149SOL    HW2 1765   2.811   3.307   3.096
 2150SOL     OW 1766   3.213   2.452   3.295
 2150SOL    HW1 1767   3.241   2.409   3.380
 2150SOL    HW2 1768   3.238   2.548   3.296
 2151SOL     OW 1769   2.665   3.264   2.786
 2151SOL    HW1 1770   2.755   3.278   2.744
 2151SOL    HW2 1771   2.594   3.266   2.715
 2152SOL     OW 1772   2.784   2.365   2.761
 2152SOL    HW1 1773   2.759   2.356   2.665
 2152SOL    HW2 1774   2.832   2.283   2.792
 2153SOL     OW 1775   3.296   3.050   1.903
 2153SOL    HW1 1776   3.328   2.974   1.960
 2153SOL    HW2 1777   3.204   3.077   1.933
 2154SOL     OW 1778   2.159   1.897   2.033
 2154SOL    HW1 1779   2.208   1.981   2.012
 2154SOL    HW2 1780   2.221   1.832   2.078
 2155SOL     OW 1781   2.797   2.098   2.342
 2155SOL    HW1 1782   2.749   2.139   2.264
 2155SOL    HW2 1783   2.896   2.096   2.323
 2156SOL     OW 1784   2.938   2.545   3.326
 2156SOL    HW1 1785   2.858   2.484   3.329
 2156SOL    HW2 1786   3.019   2.492   3.302
 2157SOL     OW 1787   3.089   3.432   2.655
 2157SOL    HW1 1788   3.110   3.506   2.590
 2157SOL    HW2 1789   3.157   3.432   2.728
 2158SOL     OW 1790   2.321   3.014   2.603
 2158SOL    HW1 1791   2.250   2.987   2.668
 2158SOL    HW2 1792   2.295   2.986   2.510
 2159SOL     OW 1793   3.133   3.659   2.453
 2159SOL    HW1 1794   3.177   3.723   2.389
 2159SOL    HW2 1795   3.083   3.711   2.523
 2160SOL     OW 1796   2.894   2.411   1.878
 2160SOL    HW1 1797   2.853   2.493   1.839
 2160SOL    HW2 1798   2.958   2.437   1.951
 2161SOL     OW 1799   1.940   2.418   3.248
 2161SOL    HW1 1800   2.032   2.417   3.207
 2161SOL    HW2 1801   1.934   2.492   3.315
 2162SOL     OW 1802   2.423   2.084   3.009
 2162SOL    HW1 1803   2.461   2.000   3.046
 2162SOL    HW2 1804   2.335   2.103   3.053
 2163SOL     OW 1805   2.879   1.901   2.615
 2163SOL    HW1 1806   2.807   1.906   2.546
 2163SOL    HW2 1807   2.855   1.832   2.684
 2164SOL     OW 1808   3.291   3.035   2.729
 2164SOL    HW1 1809   3.236   2.951   2.722
 2164SOL    HW2 1810   3.317   3.064   2.637
 2165SOL     OW 1811   3.328   2.452   2.854
 2165SOL    HW1 1812   3.298   2.357   2.861
 2165SOL    HW2 1813   3.401   2.468   2.920
 2166SOL     OW 1814   3.719   2.695   2.239
 2166SOL    HW1 1815   3.761   2.631   2.303
 2166SOL    HW2 1816   3.681   2.644   2.161
 2167SOL     OW 1817   2.350   3.247   2.036
 2167SOL    HW1 1818   2.263   3.232   2.083
 2167SOL    HW2 1819   2.333   3.273   1.941
 2168SOL     OW 1820   3.526   3.142   2.519
 2168SOL    HW1 1821   3.625   3.150   2.533
 2168SOL    HW2 1822   3.481   3.226   2.550
 2169SOL     OW 1823   3.252   2.437   1.940
 2169SOL    HW1 1824   3.198   2.416   2.021
 2169SOL    HW2 1825   3.343   2.396   1.949
 2170SOL     OW 1826   2.389   2.118   2.190
 2170SOL    HW1 1827   2.416   2.059   2.115
 2170SOL    HW2 1828   2.389   2.213   2.159
 2172SOL     OW 1829   2.926   3.209   3.202
 2172SOL    HW1 1830   2.846   3.186   3.257
 2172SOL    HW2 1831   3.009   3.183   3.251
 2174SOL     OW 1832   2.973   3.057   2.962
 2174SOL    HW1 1833   2.933   3.101   3.043
 2174SOL    HW2 1834   2.932   3.094   2.879
 2175SOL     OW 1835   3.500   2.961   2.941
 2175SOL    HW1 1836   3.505   3.042   3.000
 2175SOL    HW2 1837   3.414   2.963   2.890
 2176SOL     OW 1838   2.777   1.951   3.264
 2176SOL    HW1 1839   2.802   1.931   3.169
 2176SOL    HW2 1840   2.849   2.007   3.306
 2177SOL     OW 1841   2.842   2.978   3.581
 2177SOL    HW1 1842   2.743   2.984   3.591
 2177SOL    HW2 1843   2.865   2.898   3.525
 2178SOL     OW 1844   2.567   2.912   2.230
 2178SOL    HW1 1845   2.553   2.919   2.329
 2178SOL    HW2 1846   2.651   2.861   2.212
 2179SOL     OW 1847   2.272   2.675   3.113
 2179SOL    HW1 1848   2.358   2.687   3.163
 2179SOL    HW2 1849   2.230   2.588   3.140
 2180SOL     OW 1850   3.136   2.248   3.124
 2180SOL    HW1 1851   3.157   2.322   3.188
 2180SOL    HW2 1852   3.047   2.265   3.081
 2181SOL     OW 1853   1.926   3.426   3.193
 2181SOL    HW1 1854   1.880   3.508   3.159
 2181SOL    HW2 1855   2.024   3.445   3.202
 2182SOL     OW 1856   2.229   2.962   2.363
 2182SOL    HW1 1857   2.222   3.045   2.307
 2182SOL    HW2 1858   2.233   2.882   2.303
 2183SOL     OW 1859   2.428   2.399   2.727
 2183SOL    HW1 1860   2.440   2.465   2.653
 2183SOL    HW2 1861   2.474   2.433   2.810
 2184SOL     OW 1862   3.114   3.210   2.250
 2184SOL    HW1 1863   3.164   3.287   2.290
 2184SOL    HW2 1864   3.019   3.212   2.282
 2185SOL     OW 1865   3.134   3.307   3.004
 2185SOL    HW1 1866   3.181   3.320   3.091
 2185SOL    HW2 1867   3.068   3.233   3.013
 2186SOL     OW 1868   3.444   2.501   2.334
 2186SOL    HW1 1869   3.413   2.562   2.407
 2186SOL    HW2 1870   3.494   2.553   2.265
 2187SOL     OW 1871   2.216   3.372   3.191
 2187SOL    HW1 1872   2.195   3.328   3.104
 2187SOL    HW2 1873   2.313   3.398   3.194
 2188SOL     OW 1874   2.264   2.613   3.460
 2188SOL    HW1 1875   2.332   2.668   3.413
 2188SOL    HW2 1876   2.304   2.525   3.487
 2189SOL     OW 1877   3.449   2.641   3.532
 2189SOL    HW1 1878   3.357   2.679   3.527
 2189SOL    HW2 1879   3.509   2.688   3.467
 2190SOL     OW 1880   2.875   1.967   3.632
 2190SOL    HW1 1881   2.881   2.052   3.580
 2190SOL    HW2 1882   2.907   1.891   3.575
 2191SOL     OW 1883   2.366   1.912   3.602
 2191SOL    HW1 1884   2.324   1.855   3.532
 2191SOL    HW2 1885   2.300   1.981   3.634
 2192SOL     OW 1886   2.435   2.732   2.891
 2192SOL    HW1 1887   2.479   2.821   2.882
 2192SOL    HW2 1888   2.372   2.732   2.968
 2193SOL     OW 1889   3.222   2.724   2.907
 2193SOL    HW1 1890   3.147   2.724   2.841
 2193SOL    HW2 1891   3.259   2.632   2.916
 2194SOL     OW 1892   3.071   2.387   2.137
 2194SOL    HW1 1893   3.084   2.303   2.191
 2194SOL    HW2 1894   3.042   2.461   2.197
 2195SOL     OW 1895   2.169   2.075   3.093
 2195SOL    HW1 1896   2.146   2.112   3.183
 2195SOL    HW2 1897   2.139   1.980   3.087
 2196SOL     OW 1898   1.899   3.172   3.144
 2196SOL    HW1 1899   1.952   3.123   3.212
 2196SOL    HW2 1900   1.921   3.270   3.149
 2197SOL     OW 1901   2.594   2.496   2.926
 2197SOL    HW1 1902   2.653   2.470   2.850
 2197SOL    HW2 1903   2.566   2.592   2.915
 2199SOL     OW 1904   2.169   1.925   2.480
 2199SOL    HW1 1905   2.158   2.019   2.513
 2199SOL    HW2 1906   2.164   1.862   2.557
 2200SOL     OW 1907   3.484   2.229   2.236
 2200SOL    HW1 1908   3.486   2.153   2.300
 2200SOL    HW2 1909   3.436   2.306   2.276
 2201SOL     OW 1910   2.885   2.628   2.828
 2201SOL    HW1 1911   2.900   2.649   2.924
 2201SOL    HW2 1912   2.855   2.533   2.819
 2202SOL     OW 1913   2.842   3.435   3.562
 2202SOL    HW1 1914   2.822   3.479   3.474
 2202SOL    HW2 1915   2.881   3.344   3.546
 2204SOL     OW 1916   2.212   2.760   3.666
 2204SOL    HW1 1917   2.288   2.804   3.714
 2204SOL    HW2 1918   2.247   2.713   3.584
 2205SOL     OW 1919   3.402   2.136   1.987
 2205SOL    HW1 1920   3.341   2.061   2.010
 2205SOL    HW2 1921   3.424   2.188   2.070
 2206SOL     OW 1922   3.165   2.700   1.904
 2206SOL    HW1 1923   3.199   2.607   1.919
 2206SOL    HW2 1924   3.183   2.727   1.809
 2207SOL     OW 1925   2.930   3.195   2.711
 2207SOL    HW1 1926   2.937   3.111   2.656
 2207SOL    HW2 1927   2.992   3.264   2.675
 2208SOL     OW 1928   2.181   2.672   2.811
 2208SOL    HW1 1929   2.274   2.708   2.816
 2208SOL    HW2 1930   2.175   2.587   2.863
 2209SOL     OW 1931   2.201   2.371   2.868
 2209SOL    HW1 1932   2.149   2.288   2.851
 2209SOL    HW2 1933   2.278   2.376   2.804
 2210SOL     OW 1934   3.000   2.242   3.540
 2210SOL    HW1 1935   2.955   2.305   3.604
 2210SOL    HW2 1936   3.093   2.273   3.523
 2211SOL     OW 1937   3.022   2.069   3.339
 2211SOL    HW1 1938   3.022   2.133   3.416
 2211SOL    HW2 1939   3.050   2.117   3.256
 2212SOL     OW 1940   1.870   3.188   2.062
 2212SOL    HW1 1941   1.777   3.209   2.031
 2212SOL    HW2 1942   1.880   3.089   2.075
 2213SOL     OW 1943   1.950   3.663   2.789
 2213SOL    HW1 1944   1.908   3.577   2.762
 2213SOL    HW2 1945   2.044   3.666   2.755
 2214SOL     OW 1946   2.366   3.430   2.772
 2214SOL    HW1 1947   2.432   3.504   2.781
 2214SOL    HW2 1948   2.410   3.351   2.730
 2215SOL     OW 1949   2.864   2.658   3.100
 2215SOL    HW1 1950   2.905   2.626   3.186
 2215SOL    HW2 1951   2.768   2.631   3.097
 2216SOL     OW 1952   1.902   2.406   2.976
 2216SOL    HW1 1953   1.987   2.373   2.935
 2216SOL    HW2 1954   1.915   2.421   3.074
 2217SOL     OW 1955   2.051   2.382   3.584
 2217SOL    HW1 1956   2.110   2.342   3.514
 2217SOL    HW2 1957   1.993   2.453   3.543
 2218SOL     OW 1958   3.231   2.812   3.522
 2218SOL    HW1 1959   3.270   2.901   3.542
 2218SOL    HW2 1960   3.241   2.792   3.425
 2219SOL     OW 1961   3.519   2.466   3.068
 2219SOL    HW1 1962   3.481   2.397   3.130
 2219SOL    HW2 1963   3.601   2.430   3.024
 2220SOL     OW 1964   2.114   3.426   3.606
 2220SOL    HW1 1965   2.084   3.483   3.682
 2220SOL    HW2 1966   2.107   3.329   3.632
 2221SOL     OW 1967   2.533   2.326   3.131
 2221SOL    HW1 1968   2.499   2.237   3.101
 2221SOL    HW2 1969   2.559   2.380   3.051
 2222SOL     OW 1970   2.792   3.540   3.327
 2222SOL    HW1 1971   2.768   3.522   3.232
 2222SOL    HW2 1972   2.822   3.634   3.337
 2223SOL     OW 1973   2.335   2.362   2.053
 2223SOL    HW1 1974   2.396   2.442   2.057
 2223SOL    HW2 1975   2.240   2.393   2.060
 2224SOL     OW 1976   2.021   2.999   3.328
 2224SOL    HW1 1977   2.043   2.938   3.404
 2224SOL    HW2 1978   2.031   2.950   3.242
 2225SOL     OW 1979   3.209   2.921   3.096
 2225SOL    HW1 1980   3.233   2.858   3.022
 2225SOL    HW2 1981   3.119   2.961   3.078
 2226SOL     OW 1982   3.164   2.717   2.171
 2226SOL    HW1 1983   3.078   2.686   2.213
 2226SOL    HW2 1984   3.160   2.703   2.072
 2228SOL     OW 1985   3.114   3.593   2.990
 2228SOL    HW1 1986   3.198   3.598   2.936
 2228SOL    HW2 1987   3.091   3.497   3.008
 2229SOL     OW 1988   1.945   3.120   2.884
 2229SOL    HW1 1989   1.940   3.119   2.984
 2229SOL    HW2 1990   1.862   3.079   2.846
 2230SOL     OW 1991   2.550   3.524   3.578
 2230SOL    HW1 1992   2.494   3.605   3.587
 2230SOL    HW2 1993   2.602   3.528   3.492
 2231SOL     OW 1994   3.588   1.997   2.385
 2231SOL    HW1 1995   3.661   1.980   2.318
 2231SOL    HW2 1996   3.557   1.910   2.423
 2232SOL     OW 1997   3.250   3.435   2.339
 2232SOL    HW1 1998   3.317   3.447   2.265
 2232SOL    HW2 1999   3.210   3.524   2.362
 2234SOL     OW 2000   3.142   2.789   2.534
 2234SOL    HW1 2001   3.202   2.708   2.536
 2234SOL    HW2 2002   3.182   2.858   2.474
 2235SOL     OW 2003   2.692   3.135   3.284
 2235SOL    HW1 2004   2.687   3.168   3.379
 2235SOL    HW2 2005   2.606   3.154   3.238
 2236SOL     OW 2006   2.534   3.478   2.016
 2236SOL    HW1 2007   2.543   3.488   1.917
 2236SOL    HW2 2008   2.494   3.389   2.037
 2238SOL     OW 2009   3.703   2.037   2.825
 2238SOL    HW1 2010   3.742   1.952   2.789
 2238SOL    HW2 2011   3.605   2.039   2.806
 2239SOL     OW 2012   3.056   3.474   1.893
 2239SOL    HW1 2013   3.062   3.381   1.930
 2239SOL    HW2 2014   2.997   3.474   1.813
 2240SOL     OW 2015   2.684   2.864   3.234
 2240SOL    HW1 2016   2.724   2.863   3.142
 2240SOL    HW2 2017   2.694   2.956   3.274
 2241SOL     OW 2018   2.778   2.772   2.153
 2241SOL    HW1 2019   2.841   2.810   2.085
 2241SOL    HW2 2020   2.818   2.689   2.192
 2242SOL     OW 2021   3.366   3.469   1.906
 2242SOL    HW1 2022   3.274   3.506   1.913
 2242SOL    HW2 2023   3.404   3.489   1.816
 2243SOL     OW 2024   2.234   3.150   3.352
 2243SOL    HW1 2025   2.221   3.243   3.318
 2243SOL    HW2 2026   2.150   3.098   3.339
 2244SOL     OW 2027   3.476   3.154   3.151
 2244SOL    HW1 2028   3.536   3.157   3.231
 2244SOL    HW2 2029   3.401   3.218   3.164
 2245SOL     OW 2030   2.901   2.960   2.558
 2245SOL    HW1 2031   2.831   2.913   2.612
 2245SOL    HW2 2032   2.960   2.892   2.515
 2246SOL     OW 2033   2.876   2.098   2.833
 2246SOL    HW1 2034   2.868   2.062   2.740
 2246SOL    HW2 2035   2.874   2.022   2.898
 2247SOL     OW 2036   2.452   3.349   2.353
 2247SOL    HW1 2037   2.494   3.291   2.283
 2247SOL    HW2 2038   2.408   3.428   2.309
 2248SOL     OW 2039   3.571   2.247   3.243
 2248SOL    HW1 2040   3.644   2.316   3.247
 2248SOL    HW2 2041   3.599   2.172   3.184
 2249SOL     OW 2042   2.117   3.210   2.152
 2249SOL    HW1 2043   2.021   3.211   2.125
 2249SOL    HW2 2044   2.129   3.263   2.236
 2250SOL     OW 2045   1.967   2.875   3.588
 2250SOL    HW1 2046   1.890   2.842   3.642
 2250SOL    HW2 2047   2.052   2.845   3.630
 2251SOL     OW 2048   2.534   2.065   3.351
 2251SOL    HW1 2049   2.624   2.049   3.311
 2251SOL    HW2 2050   2.542   2.070   3.450
 2252SOL     OW 2051   1.937   2.207   1.895
 2252SOL    HW1 2052   1.845   2.179   1.866
 2252SOL    HW2 2053   1.968   2.284   1.839
 2253SOL     OW 2054   3.302   2.718   3.260
 2253SOL    HW1 2055   3.245   2.770   3.197
 2253SOL    HW2 2056   3.398   2.730   3.236
 2254SOL     OW 2057   1.934   2.028   2.180
 2254SOL    HW1 2058   1.917   2.111   2.126
 2254SOL    HW2 2059   2.024   1.991   2.158
 2255SOL     OW 2060   3.045   3.197   1.981
 2255SOL    HW1 2061   2.946   3.186   1.983
 2255SOL    HW2 2062   3.079   3.212   2.074
 2256SOL     OW 2063   2.475   2.704   3.293
 2256SOL    HW1 2064   2.531   2.785   3.276
 2256SOL    HW2 2065   2.534   2.624   3.296
 2257SOL     OW 2066   3.355   3.629   2.821
 2257SOL    HW1 2067   3.388   3.693   2.752
 2257SOL    HW2 2068   3.421   3.623   2.896
 2258SOL     OW 2069   2.578   2.427   3.570
 2258SOL    HW1 2070   2.597   2.492   3.644
 2258SOL    HW2 2071   2.638   2.347   3.579
 2259SOL     OW 2072   3.312   3.082   3.495
 2259SOL    HW1 2073   3.303   3.072   3.594
 2259SOL    HW2 2074   3.408   3.075   3.469
 2260SOL     OW 2075   2.252   3.603   3.422
 2260SOL    HW1 2076   2.161   3.644   3.420
 2260SOL    HW2 2077   2.245   3.509   3.454
 2261SOL     OW 2078   3.536   2.745   3.116
 2261SOL    HW1 2079   3.509   2.656   3.079
 2261SOL    HW2 2080   3.537   2.813   3.043
 2262SOL     OW 2081   3.087   2.187   2.311
 2262SOL    HW1 2082   3.152   2.113   2.300
 2262SOL    HW2 2083   3.107   2.237   2.395
 2263SOL     OW 2084   2.456   2.607   2.514
 2263SOL    HW1 2085   2.506   2.692   2.495
 2263SOL    HW2 2086   2.368   2.609   2.466
 2264SOL     OW 2087   3.639   2.204   3.504
 2264SOL    HW1 2088   3.622   2.235   3.410
 2264SOL    HW2 2089   3.555   2.167   3.542
 2265SOL     OW 2090   3.592   2.796   3.379
 2265SOL    HW1 2091   3.630   2.887   3.394
 2265SOL    HW2 2092   3.584   2.779   3.280
 2266SOL     OW 2093   2.721   3.236   1.878
 2266SOL    HW1 2094   2.675   3.251   1.966
 2266SOL    HW2 2095   2.765   3.321   1.848
 2267SOL     OW 2096   2.523   3.652   2.815
 2267SOL    HW1 2097   2.477   3.740   2.802
 2267SOL    HW2 2098   2.622   3.664   2.808
 2268SOL     OW 2099   2.721   2.818   2.723
 2268SOL    HW1 2100   2.775   2.749   2.771
 2268SOL    HW2 2101   2.689   2.887   2.789
 2269SOL     OW 2102   2.945   2.846   1.949
 2269SOL    HW1 2103   2.922   2.899   1.867
 2269SOL    HW2 2104   3.026   2.790   1.930
 2270SOL     OW 2105   3.723   3.431   2.713
 2270SOL    HW1 2106   3.652   3.419   2.643
 2270SOL    HW2 2107   3.724   3.352   2.773
 2271SOL     OW 2108   2.083   3.176   3.706
 2271SOL    HW1 2109   2.018   3.103   3.685
 2271SOL    HW2 2110   2.087   3.190   3.804
 2272SOL     OW 2111   1.941   3.102   2.515
 2272SOL    HW1 2112   1.940   3.055   2.603
 2272SOL    HW2 2113   2.023   3.074   2.464
 2273SOL     OW 2114   2.534   3.253   3.486
 2273SOL    HW1 2115   2.456   3.203   3.524
 2273SOL    HW2 2116   2.531   3.348   3.517
 2274SOL     OW 2117   3.686   2.054   3.089
 2274SOL    HW1 2118   3.682   1.964   3.133
 2274SOL    HW2 2119   3.689   2.043   2.990
 2275SOL     OW 2120   3.567   3.349   2.966
 2275SOL    HW1 2121   3.474   3.324   2.939
 2275SOL    HW2 2122   3.593   3.299   3.048
 2276SOL     OW 2123   2.179   2.409   3.142
 2276SOL    HW1 2124   2.217   2.350   3.214
 2276SOL    HW2 2125   2.219   2.383   3.054
 2277SOL     OW 2126   2.674   3.448   2.549
 2277SOL    HW1 2127   2.706   3.458   2.455
 2277SOL    HW2 2128   2.595   3.386   2.551
 2278SOL     OW 2129   3.286   2.076   2.974
 2278SOL    HW1 2130   3.338   2.011   3.029
 2278SOL    HW2 2131   3.237   2.139   3.035
 2279SOL     OW 2132   2.863   1.896   3.016
 2279SOL    HW1 2133   2.800   1.824   2.985
 2279SOL    HW2 2134   2.956   1.860   3.016
 2280SOL     OW 2135   2.632   3.192   2.163
 2280SOL    HW1 2136   2.586   3.105   2.180
 2280SOL    HW2 2137   2.723   3.189   2.204
 2281SOL     OW 2138   2.480   3.429   3.146
 2281SOL    HW1 2139   2.475   3.511   3.203
 2281SOL    HW2 2140   2.569   3.426   3.101
 2282SOL     OW 2141   3.214   1.914   2.030
 2282SOL    HW1 2142   3.249   1.873   1.946
 2282SOL    HW2 2143   3.124   1.876   2.050
 2283SOL     OW 2144   3.162   2.315   2.553
 2283SOL    HW1 2145   3.103   2.395   2.557
 2283SOL    HW2 2146   3.177   2.280   2.646
 2284SOL     OW 2147   3.455   2.083   2.744
 2284SOL    HW1 2148   3.371   2.082   2.798
 2284SOL    HW2 2149   3.457   2.166   2.688
 2285SOL     OW 2150   1.901   2.939   2.162
 2285SOL    HW1 2151   2.000   2.928   2.153
 2285SOL    HW2 2152   1.861   2.853   2.194
 2286SOL     OW 2153   2.737   3.508   2.199
 2286SOL    HW1 2154   2.660   3.473   2.145
 2286SOL    HW2 2155   2.705   3.579   2.261
 2287SOL     OW 2156   2.092   2.490   3.837
 2287SOL    HW1 2157   1.999   2.488   3.874
 2287SOL    HW2 2158   2.093   2.451   3.745
 2298SOL     OW 2159   2.468   2.826   3.847
 2298SOL    HW1 2160   2.475   2.910   3.793
 2298SOL    HW2 2161   2.514   2.839   3.935
 2309SOL     OW 2162   2.460   2.591   3.994
 2309SOL    HW1 2163   2.484   2.660   3.926
 2309SOL    HW2 2164   2.382   2.624   4.048
 2314SOL     OW 2165   2.727   2.210   3.919
 2314SOL    HW1 2166   2.786   2.273   3.870
 2314SOL    HW2 2167   2.746   2.116   3.890
 2320SOL     OW 2168   2.183   2.805   3.966
 2320SOL    HW1 2169   2.265   2.844   3.924
 2320SOL    HW2 2170   2.156   2.723   3.917
 2327SOL     OW 2171   2.476   1.984   3.841
 2327SOL    HW1 2172   2.574   1.962   3.848
 2327SOL    HW2 2173   2.445   1.967   3.748
 2330SOL     OW 2174   2.159   1.897   3.895
 2330SOL    HW1 2175   2.208   1.981   3.874
 2330SOL    HW2 2176   2.221   1.832   3.940
 2335SOL     OW 2177   2.894   2.411   3.740
 2335SOL    HW1 2178   2.853   2.493   3.701
 2335SOL    HW2 2179   2.958   2.437   3.813
 2339SOL     OW 2180   2.350   3.247   3.898
 2339SOL    HW1 2181   2.263   3.232   3.945
 2339SOL    HW2 2182   2.333   3.273   3.803
 2341SOL     OW 2183   3.252   2.437   3.802
 2341SOL    HW1 2184   3.198   2.416   3.883
 2341SOL    HW2 2185   3.343   2.396   3.811
 2342SOL     OW 2186   2.389   2.118   4.052
 2342SOL    HW1 2187   2.416   2.059   3.977
 2342SOL    HW2 2188   2.389   2.213   4.021
 2348SOL     OW 2189   3.071   2.387   3.999
 2348SOL    HW1 2190   3.084   2.303   4.053
 2348SOL    HW2 2191   3.042   2.461   4.059
 2353SOL     OW 2192   3.165   2.700   3.766
 2353SOL    HW1 2193   3.199   2.607   3.781
 2353SOL    HW2 2194   3.183   2.727   3.671
 2359SOL     OW 2195   2.677   2.434   4.049
 2359SOL    HW1 2196   2.684   2.345   4.003
 2359SOL    HW2 2197   2.583   2.468   4.041
 2360SOL     OW 2198   2.335   2.362   3.915
 2360SOL    HW1 2199   2.396   2.442   3.919
 2360SOL    HW2 2200   2.240   2.393   3.922
 2370SOL     OW 2201   2.778   2.772   4.015
 2370SOL    HW1 2202   2.841   2.810   3.947
 2370SOL    HW2 2203   2.818   2.689   4.054
 2375SOL     OW 2204   1.937   2.207   3.757
 2375SOL    HW1 2205   1.845   2.179   3.728
 2375SOL    HW2 2206   1.968   2.284   3.701
 2376SOL     OW 2207   1.934   2.028   4.042
 2376SOL    HW1 2208   1.917   2.111   3.988
 2376SOL    HW2 2209   2.024   1.991   4.020
 2381SOL     OW 2210   2.721   3.236   3.740
 2381SOL    HW1 2211   2.675   3.251   3.828
 2381SOL    HW2 2212   2.765   3.321   3.710
 2384SOL     OW 2213   2.945   2.846   3.811
 2384SOL    HW1 2214   2.922   2.899   3.729
 2384SOL    HW2 2215   3.026   2.790   3.792
 2410SOL     OW 2216   2.179   3.975   1.801
 2410SOL    HW1 2217   2.250   4.046   1.807
 2410SOL    HW2 2218   2.091   4.014   1.829
 2427SOL     OW 2219   2.643   3.988   1.749
 2427SOL    HW1 2220   2.710   3.927   1.792
 2427SOL    HW2 2221   2.570   4.007   1.814
 2444SOL     OW 2222   2.777   3.813   1.402
 2444SOL    HW1 2223   2.802   3.793   1.307
 2444SOL    HW2 2224   2.849   3.869   1.444
 2451SOL     OW 2225   2.875   3.829   1.770
 2451SOL    HW1 2226   2.881   3.914   1.718
 2451SOL    HW2 2227   2.907   3.753   1.713
 2452SOL     OW 2228   2.366   3.774   1.740
 2452SOL    HW1 2229   2.324   3.717   1.670
 2452SOL    HW2 2230   2.300   3.843   1.772
 2505SOL     OW 2231   2.087   3.999   2.858
 2505SOL    HW1 2232   2.122   3.982   2.950
 2505SOL    HW2 2233   1.999   3.954   2.846
 2516SOL     OW 2234   2.671   3.728   2.364
 2516SOL    HW1 2235   2.711   3.819   2.355
 2516SOL    HW2 2236   2.571   3.736   2.370
 2528SOL     OW 2237   2.727   4.072   2.057
 2528SOL    HW1 2238   2.786   4.135   2.008
 2528SOL    HW2 2239   2.746   3.978   2.028
 2530SOL     OW 2240   2.412   3.920   2.747
 2530SOL    HW1 2241   2.407   3.915   2.847
 2530SOL    HW2 2242   2.414   4.016   2.718
 2533SOL     OW 2243   3.262   3.831   2.288
 2533SOL    HW1 2244   3.238   3.794   2.198
 2533SOL    HW2 2245   3.361   3.847   2.292
 2536SOL     OW 2246   2.476   3.846   1.979
 2536SOL    HW1 2247   2.574   3.824   1.986
 2536SOL    HW2 2248   2.445   3.829   1.886
 2540SOL     OW 2249   2.401   3.788   2.374
 2540SOL    HW1 2250   2.320   3.789   2.432
 2540SOL    HW2 2251   2.404   3.871   2.319
 2541SOL     OW 2252   2.159   3.759   2.033
 2541SOL    HW1 2253   2.208   3.843   2.012
 2541SOL    HW2 2254   2.221   3.694   2.078
 2542SOL     OW 2255   2.797   3.960   2.342
 2542SOL    HW1 2256   2.749   4.001   2.264
 2542SOL    HW2 2257   2.896   3.958   2.323
 2546SOL     OW 2258   2.423   3.946   3.009
 2546SOL    HW1 2259   2.461   3.862   3.046
 2546SOL    HW2 2260   2.335   3.965   3.053
 2548SOL     OW 2261   2.879   3.763   2.615
 2548SOL    HW1 2262   2.807   3.768   2.546
 2548SOL    HW2 2263   2.855   3.694   2.684
 2552SOL     OW 2264   2.389   3.980   2.190
 2552SOL    HW1 2265   2.416   3.921   2.115
 2552SOL    HW2 2266   2.389   4.075   2.159
 2554SOL     OW 2267   2.777   3.813   3.264
 2554SOL    HW1 2268   2.802   3.793   3.169
 2554SOL    HW2 2269   2.849   3.869   3.306
 2566SOL     OW 2270   2.169   3.937   3.093
 2566SOL    HW1 2271   2.146   3.974   3.183
 2566SOL    HW2 2272   2.139   3.842   3.087
 2569SOL     OW 2273   2.169   3.787   2.480
 2569SOL    HW1 2274   2.158   3.881   2.513
 2569SOL    HW2 2275   2.164   3.724   2.557
 2591SOL     OW 2276   2.125   4.050   2.582
 2591SOL    HW1 2277   2.046   4.101   2.548
 2591SOL    HW2 2278   2.116   4.035   2.680
 2593SOL     OW 2279   2.876   3.960   2.833
 2593SOL    HW1 2280   2.868   3.924   2.740
 2593SOL    HW2 2281   2.874   3.884   2.898
 2599SOL     OW 2282   1.934   3.890   2.180
 2599SOL    HW1 2283   1.917   3.973   2.126
 2599SOL    HW2 2284   2.024   3.853   2.158
 2608SOL     OW 2285   2.290   4.148   2.382
 2608SOL    HW1 2286   2.320   4.076   2.320
 2608SOL    HW2 2287   2.251   4.108   2.465
 2611SOL     OW 2288   2.863   3.758   3.016
 2611SOL    HW1 2289   2.800   3.686   2.985
 2611SOL    HW2 2290   2.956   3.722   3.016
 2612SOL     OW 2291   3.214   3.776   2.030
 2612SOL    HW1 2292   3.249   3.735   1.946
 2612SOL    HW2 2293   3.124   3.738   2.050
 2698SOL     OW 2294   3.854   1.821   1.571
 2698SOL    HW1 2295   3.844   1.806   1.670
 2698SOL    HW2 2296   3.768   1.857   1.535
 2755SOL     OW 2297   3.854   1.794   1.851
 2755SOL    HW1 2298   3.813   1.720   1.904
 2755SOL    HW2 2299   3.918   1.845   1.909
 2794SOL     OW 2300   3.955   1.713   2.345
 2794SOL    HW1 2301   3.989   1.790   2.399
 2794SOL    HW2 2302   3.999   1.713   2.255
 2800SOL     OW 2303   3.751   1.596   1.979
 2800SOL    HW1 2304   3.732   1.500   2.000
 2800SOL    HW2 2305   3.718   1.654   2.054
 2853SOL     OW 2306   3.732   1.326   2.062
 2853SOL    HW1 2307   3.639   1.347   2.031
 2853SOL    HW2 2308   3.742   1.227   2.075
 2854SOL     OW 2309   3.812   1.801   2.789
 2854SOL    HW1 2310   3.770   1.715   2.762
 2854SOL    HW2 2311   3.906   1.804   2.755
 2972SOL     OW 2312   3.837   2.599   1.597
 2972SOL    HW1 2313   3.925   2.586   1.642
 2972SOL    HW2 2314   3.824   2.696   1.575
 2976SOL     OW 2315   4.041   2.113   1.801
 2976SOL    HW1 2316   4.112   2.184   1.807
 2976SOL    HW2 2317   3.953   2.152   1.829
 2999SOL     OW 2318   3.802   2.418   1.386
 2999SOL    HW1 2319   3.894   2.417   1.345
 2999SOL    HW2 2320   3.796   2.492   1.453
 3028SOL     OW 2321   3.913   2.382   1.722
 3028SOL    HW1 2322   3.972   2.342   1.652
 3028SOL    HW2 2323   3.855   2.453   1.681
 3046SOL     OW 2324   3.829   2.875   1.726
 3046SOL    HW1 2325   3.752   2.842   1.780
 3046SOL    HW2 2326   3.914   2.845   1.768
 3068SOL     OW 2327   3.954   2.490   1.975
 3068SOL    HW1 2328   3.861   2.488   2.012
 3068SOL    HW2 2329   3.955   2.451   1.883
 3069SOL     OW 2330   3.949   2.137   2.858
 3069SOL    HW1 2331   3.984   2.120   2.950
 3069SOL    HW2 2332   3.861   2.092   2.846
 3070SOL     OW 2333   3.743   2.230   2.509
 3070SOL    HW1 2334   3.661   2.273   2.548
 3070SOL    HW2 2335   3.715   2.157   2.446
 3080SOL     OW 2336   3.964   2.953   2.748
 3080SOL    HW1 2337   3.978   2.869   2.800
 3080SOL    HW2 2338   3.909   3.017   2.803
 3083SOL     OW 2339   3.846   2.505   2.425
 3083SOL    HW1 2340   3.801   2.417   2.442
 3083SOL    HW2 2341   3.845   2.559   2.509
 3093SOL     OW 2342   3.800   2.673   2.651
 3093SOL    HW1 2343   3.899   2.661   2.660
 3093SOL    HW2 2344   3.776   2.768   2.672
 3099SOL     OW 2345   4.045   2.805   2.104
 3099SOL    HW1 2346   4.127   2.844   2.062
 3099SOL    HW2 2347   4.018   2.723   2.055
 3104SOL     OW 2348   4.106   2.562   2.342
 3104SOL    HW1 2349   4.151   2.472   2.339
 3104SOL    HW2 2350   4.012   2.551   2.375
 3110SOL     OW 2351   4.021   1.897   2.033
 3110SOL    HW1 2352   4.070   1.981   2.012
 3110SOL    HW2 2353   4.083   1.832   2.078
 3113SOL     OW 2354   3.802   2.418   3.248
 3113SOL    HW1 2355   3.894   2.417   3.207
 3113SOL    HW2 2356   3.796   2.492   3.315
 3131SOL     OW 2357   4.031   1.925   2.480
 3131SOL    HW1 2358   4.020   2.019   2.513
 3131SOL    HW2 2359   4.026   1.862   2.557
 3135SOL     OW 2360   4.043   2.672   2.811
 3135SOL    HW1 2361   4.136   2.708   2.816
 3135SOL    HW2 2362   4.037   2.587   2.863
 3136SOL     OW 2363   4.063   2.371   2.868
 3136SOL    HW1 2364   4.011   2.288   2.851
 3136SOL    HW2 2365   4.140   2.376   2.804
 3137SOL     OW 2366   3.732   3.188   2.062
 3137SOL    HW1 2367   3.639   3.209   2.031
 3137SOL    HW2 2368   3.742   3.089   2.075
 3141SOL     OW 2369   3.764   2.406   2.976
 3141SOL    HW1 2370   3.849   2.373   2.935
 3141SOL    HW2 2371   3.777   2.421   3.074
 3148SOL     OW 2372   3.807   3.120   2.884
 3148SOL    HW1 2373   3.802   3.119   2.984
 3148SOL    HW2 2374   3.724   3.079   2.846
 3154SOL     OW 2375   3.987   2.188   2.582
 3154SOL    HW1 2376   3.908   2.239   2.548
 3154SOL    HW2 2377   3.978   2.173   2.680
 3161SOL     OW 2378   3.799   2.207   1.895
 3161SOL    HW1 2379   3.707   2.179   1.866
 3161SOL    HW2 2380   3.830   2.284   1.839
 3162SOL     OW 2381   3.796   2.028   2.180
 3162SOL    HW1 2382   3.779   2.111   2.126
 3162SOL    HW2 2383   3.886   1.991   2.158
 3171SOL     OW 2384   3.803   3.102   2.515
 3171SOL    HW1 2385   3.802   3.055   2.603
 3171SOL    HW2 2386   3.885   3.074   2.464
 3173SOL     OW 2387   4.152   2.286   2.382
 3173SOL    HW1 2388   4.182   2.214   2.320
 3173SOL    HW2 2389   4.113   2.246   2.465
 3179SOL     OW 2390   3.763   2.939   2.162
 3179SOL    HW1 2391   3.862   2.928   2.153
 3179SOL    HW2 2392   3.723   2.853   2.194
   4.71341   4.71341   4.71341
