; mobley_2972345_GMX.itp created by acpype (v: 2023.10.27) on Thu May 21 00:12:09 2026

[ atomtypes ]
;name   bond_type     mass     charge   ptype   sigma         epsilon       Amb
 ca       ca          0.00000  0.00000   A     3.31521e-01   4.13379e-01 ; 1.86  0.0988
 c6       c6          0.00000  0.00000   A     3.39771e-01   4.51035e-01 ; 1.91  0.1078
 ha       ha          0.00000  0.00000   A     2.62548e-01   6.73624e-02 ; 1.47  0.0161
 hc       hc          0.00000  0.00000   A     2.60018e-01   8.70272e-02 ; 1.46  0.0208

[ moleculetype ]
;name            nrexcl
 mobley_2972345   3

[ atoms ]
;   nr  type  resi  res  atom  cgnr     charge      mass       ; qtot   bond_type
     1   ca     1   MOL    C1    1    -0.130000     12.01000 ; qtot -0.130
     2   ca     1   MOL    C2    2    -0.130000     12.01000 ; qtot -0.260
     3   ca     1   MOL    C3    3    -0.130000     12.01000 ; qtot -0.390
     4   ca     1   MOL    C4    4    -0.130000     12.01000 ; qtot -0.520
     5   ca     1   MOL    C5    5    -0.127000     12.01000 ; qtot -0.647
     6   ca     1   MOL    C6    6    -0.127000     12.01000 ; qtot -0.774
     7   ca     1   MOL    C7    7    -0.127000     12.01000 ; qtot -0.901
     8   ca     1   MOL    C8    8    -0.127000     12.01000 ; qtot -1.028
     9   ca     1   MOL    C9    9    -0.069300     12.01000 ; qtot -1.097
    10   ca     1   MOL   C10   10    -0.069300     12.01000 ; qtot -1.167
    11   ca     1   MOL   C11   11    -0.069300     12.01000 ; qtot -1.236
    12   ca     1   MOL   C12   12    -0.069300     12.01000 ; qtot -1.305
    13   c6     1   MOL   C13   13     0.008200     12.01000 ; qtot -1.297
    14   c6     1   MOL   C14   14     0.008200     12.01000 ; qtot -1.289
    15   ha     1   MOL    H1   15     0.131500      1.00800 ; qtot -1.157
    16   ha     1   MOL    H2   16     0.131500      1.00800 ; qtot -1.026
    17   ha     1   MOL    H3   17     0.131500      1.00800 ; qtot -0.894
    18   ha     1   MOL    H4   18     0.131500      1.00800 ; qtot -0.763
    19   ha     1   MOL    H5   19     0.130000      1.00800 ; qtot -0.633
    20   ha     1   MOL    H6   20     0.130000      1.00800 ; qtot -0.503
    21   ha     1   MOL    H7   21     0.130000      1.00800 ; qtot -0.373
    22   ha     1   MOL    H8   22     0.130000      1.00800 ; qtot -0.243
    23   hc     1   MOL    H9   23     0.060700      1.00800 ; qtot -0.182
    24   hc     1   MOL   H10   24     0.060700      1.00800 ; qtot -0.121
    25   hc     1   MOL   H11   25     0.060700      1.00800 ; qtot -0.061
    26   hc     1   MOL   H12   26     0.060700      1.00800 ; qtot 0.000

[ bonds ]
;   ai     aj funct   r             k
     1      2   1    1.3986e-01    2.9644e+05 ;     C1 - C2    
     1      5   1    1.3986e-01    2.9644e+05 ;     C1 - C5    
     1     15   1    1.0860e-01    3.0183e+05 ;     C1 - H1    
     2      6   1    1.3986e-01    2.9644e+05 ;     C2 - C6    
     2     16   1    1.0860e-01    3.0183e+05 ;     C2 - H2    
     3      4   1    1.3986e-01    2.9644e+05 ;     C3 - C4    
     3      7   1    1.3986e-01    2.9644e+05 ;     C3 - C7    
     3     17   1    1.0860e-01    3.0183e+05 ;     C3 - H3    
     4      8   1    1.3986e-01    2.9644e+05 ;     C4 - C8    
     4     18   1    1.0860e-01    3.0183e+05 ;     C4 - H4    
     5      9   1    1.3986e-01    2.9644e+05 ;     C5 - C9    
     5     19   1    1.0860e-01    3.0183e+05 ;     C5 - H5    
     6     10   1    1.3986e-01    2.9644e+05 ;     C6 - C10   
     6     20   1    1.0860e-01    3.0183e+05 ;     C6 - H6    
     7     11   1    1.3986e-01    2.9644e+05 ;     C7 - C11   
     7     21   1    1.0860e-01    3.0183e+05 ;     C7 - H7    
     8     12   1    1.3986e-01    2.9644e+05 ;     C8 - C12   
     8     22   1    1.0860e-01    3.0183e+05 ;     C8 - H8    
     9     10   1    1.3986e-01    2.9644e+05 ;     C9 - C10   
     9     13   1    1.5203e-01    2.0061e+05 ;     C9 - C13   
    10     14   1    1.5203e-01    2.0061e+05 ;    C10 - C14   
    11     12   1    1.3986e-01    2.9644e+05 ;    C11 - C12   
    11     13   1    1.5203e-01    2.0061e+05 ;    C11 - C13   
    12     14   1    1.5203e-01    2.0061e+05 ;    C12 - C14   
    13     23   1    1.0979e-01    2.8681e+05 ;    C13 - H9    
    13     24   1    1.0979e-01    2.8681e+05 ;    C13 - H10   
    14     25   1    1.0979e-01    2.8681e+05 ;    C14 - H11   
    14     26   1    1.0979e-01    2.8681e+05 ;    C14 - H12   

[ pairs ]
;   ai     aj    funct
     1     10      1 ;     C1 - C10   
     1     13      1 ;     C1 - C13   
     1     20      1 ;     C1 - H6    
     2      9      1 ;     C2 - C9    
     2     14      1 ;     C2 - C14   
     2     19      1 ;     C2 - H5    
     3     12      1 ;     C3 - C12   
     3     13      1 ;     C3 - C13   
     3     22      1 ;     C3 - H8    
     4     11      1 ;     C4 - C11   
     4     14      1 ;     C4 - C14   
     4     21      1 ;     C4 - H7    
     5      6      1 ;     C5 - C6    
     5     11      1 ;     C5 - C11   
     5     14      1 ;     C5 - C14   
     5     16      1 ;     C5 - H2    
     5     23      1 ;     C5 - H9    
     5     24      1 ;     C5 - H10   
     6     12      1 ;     C6 - C12   
     6     13      1 ;     C6 - C13   
     6     25      1 ;     C6 - H11   
     6     26      1 ;     C6 - H12   
     7      8      1 ;     C7 - C8    
     7      9      1 ;     C7 - C9    
     7     14      1 ;     C7 - C14   
     7     18      1 ;     C7 - H4    
     7     23      1 ;     C7 - H9    
     7     24      1 ;     C7 - H10   
     8     10      1 ;     C8 - C10   
     8     13      1 ;     C8 - C13   
     8     17      1 ;     C8 - H3    
     8     25      1 ;     C8 - H11   
     8     26      1 ;     C8 - H12   
     9     12      1 ;     C9 - C12   
     9     20      1 ;     C9 - H6    
     9     25      1 ;     C9 - H11   
     9     26      1 ;     C9 - H12   
    10     11      1 ;    C10 - C11   
    10     16      1 ;    C10 - H2    
    10     19      1 ;    C10 - H5    
    10     23      1 ;    C10 - H9    
    10     24      1 ;    C10 - H10   
    11     17      1 ;    C11 - H3    
    11     22      1 ;    C11 - H8    
    11     25      1 ;    C11 - H11   
    11     26      1 ;    C11 - H12   
    12     18      1 ;    C12 - H4    
    12     21      1 ;    C12 - H7    
    12     23      1 ;    C12 - H9    
    12     24      1 ;    C12 - H10   
    13     14      1 ;    C13 - C14   
    13     19      1 ;    C13 - H5    
    13     21      1 ;    C13 - H7    
    14     20      1 ;    C14 - H6    
    14     22      1 ;    C14 - H8    
    15      6      1 ;     H1 - C6    
    15      9      1 ;     H1 - C9    
    15     16      1 ;     H1 - H2    
    15     19      1 ;     H1 - H5    
    16     20      1 ;     H2 - H6    
    17     18      1 ;     H3 - H4    
    17     21      1 ;     H3 - H7    
    18     22      1 ;     H4 - H8    

[ angles ]
;   ai     aj     ak    funct   theta         cth
     1      2      6      1    1.2002e+02    5.3279e+02 ;     C1 - C2     - C6    
     1      2     16      1    1.1988e+02    3.7572e+02 ;     C1 - C2     - H2    
     1      5      9      1    1.2002e+02    5.3279e+02 ;     C1 - C5     - C9    
     1      5     19      1    1.1988e+02    3.7572e+02 ;     C1 - C5     - H5    
     2      1      5      1    1.2002e+02    5.3279e+02 ;     C2 - C1     - C5    
     2      1     15      1    1.1988e+02    3.7572e+02 ;     C2 - C1     - H1    
     2      6     10      1    1.2002e+02    5.3279e+02 ;     C2 - C6     - C10   
     2      6     20      1    1.1988e+02    3.7572e+02 ;     C2 - C6     - H6    
     3      4      8      1    1.2002e+02    5.3279e+02 ;     C3 - C4     - C8    
     3      4     18      1    1.1988e+02    3.7572e+02 ;     C3 - C4     - H4    
     3      7     11      1    1.2002e+02    5.3279e+02 ;     C3 - C7     - C11   
     3      7     21      1    1.1988e+02    3.7572e+02 ;     C3 - C7     - H7    
     4      3      7      1    1.2002e+02    5.3279e+02 ;     C4 - C3     - C7    
     4      3     17      1    1.1988e+02    3.7572e+02 ;     C4 - C3     - H3    
     4      8     12      1    1.2002e+02    5.3279e+02 ;     C4 - C8     - C12   
     4      8     22      1    1.1988e+02    3.7572e+02 ;     C4 - C8     - H8    
     5      1     15      1    1.1988e+02    3.7572e+02 ;     C5 - C1     - H1    
     5      9     10      1    1.2002e+02    5.3279e+02 ;     C5 - C9     - C10   
     5      9     13      1    1.2060e+02    5.0760e+02 ;     C5 - C9     - C13   
     6      2     16      1    1.1988e+02    3.7572e+02 ;     C6 - C2     - H2    
     6     10      9      1    1.2002e+02    5.3279e+02 ;     C6 - C10    - C9    
     6     10     14      1    1.2060e+02    5.0760e+02 ;     C6 - C10    - C14   
     7      3     17      1    1.1988e+02    3.7572e+02 ;     C7 - C3     - H3    
     7     11     12      1    1.2002e+02    5.3279e+02 ;     C7 - C11    - C12   
     7     11     13      1    1.2060e+02    5.0760e+02 ;     C7 - C11    - C13   
     8      4     18      1    1.1988e+02    3.7572e+02 ;     C8 - C4     - H4    
     8     12     11      1    1.2002e+02    5.3279e+02 ;     C8 - C12    - C11   
     8     12     14      1    1.2060e+02    5.0760e+02 ;     C8 - C12    - C14   
     9      5     19      1    1.1988e+02    3.7572e+02 ;     C9 - C5     - H5    
     9     10     14      1    1.2060e+02    5.0760e+02 ;     C9 - C10    - C14   
     9     13     11      1    1.1210e+02    5.0718e+02 ;     C9 - C13    - C11   
     9     13     23      1    1.0947e+02    3.6560e+02 ;     C9 - C13    - H9    
     9     13     24      1    1.0947e+02    3.6560e+02 ;     C9 - C13    - H10   
    10      6     20      1    1.1988e+02    3.7572e+02 ;    C10 - C6     - H6    
    10      9     13      1    1.2060e+02    5.0760e+02 ;    C10 - C9     - C13   
    10     14     12      1    1.1210e+02    5.0718e+02 ;    C10 - C14    - C12   
    10     14     25      1    1.0947e+02    3.6560e+02 ;    C10 - C14    - H11   
    10     14     26      1    1.0947e+02    3.6560e+02 ;    C10 - C14    - H12   
    11      7     21      1    1.1988e+02    3.7572e+02 ;    C11 - C7     - H7    
    11     12     14      1    1.2060e+02    5.0760e+02 ;    C11 - C12    - C14   
    11     13     23      1    1.0947e+02    3.6560e+02 ;    C11 - C13    - H9    
    11     13     24      1    1.0947e+02    3.6560e+02 ;    C11 - C13    - H10   
    12      8     22      1    1.1988e+02    3.7572e+02 ;    C12 - C8     - H8    
    12     11     13      1    1.2060e+02    5.0760e+02 ;    C12 - C11    - C13   
    12     14     25      1    1.0947e+02    3.6560e+02 ;    C12 - C14    - H11   
    12     14     26      1    1.0947e+02    3.6560e+02 ;    C12 - C14    - H12   
    23     13     24      1    1.0662e+02    3.0066e+02 ;     H9 - C13    - H10   
    25     14     26      1    1.0662e+02    3.0066e+02 ;    H11 - C14    - H12   

[ dihedrals ] ; propers
; for gromacs 4.5 or higher, using funct 9
;    i      j      k      l   func   phase     kd      pn
     1      2      6     10      9   180.00  15.16700   2 ;     C1-    C2-    C6-   C10
     1      2      6     20      9   180.00  15.16700   2 ;     C1-    C2-    C6-    H6
     1      5      9     10      9   180.00  15.16700   2 ;     C1-    C5-    C9-   C10
     1      5      9     13      9   180.00  15.16700   2 ;     C1-    C5-    C9-   C13
     2      1      5      9      9   180.00  15.16700   2 ;     C2-    C1-    C5-    C9
     2      1      5     19      9   180.00  15.16700   2 ;     C2-    C1-    C5-    H5
     2      6     10      9      9   180.00  15.16700   2 ;     C2-    C6-   C10-    C9
     2      6     10     14      9   180.00  15.16700   2 ;     C2-    C6-   C10-   C14
     3      4      8     12      9   180.00  15.16700   2 ;     C3-    C4-    C8-   C12
     3      4      8     22      9   180.00  15.16700   2 ;     C3-    C4-    C8-    H8
     3      7     11     12      9   180.00  15.16700   2 ;     C3-    C7-   C11-   C12
     3      7     11     13      9   180.00  15.16700   2 ;     C3-    C7-   C11-   C13
     4      3      7     11      9   180.00  15.16700   2 ;     C4-    C3-    C7-   C11
     4      3      7     21      9   180.00  15.16700   2 ;     C4-    C3-    C7-    H7
     4      8     12     11      9   180.00  15.16700   2 ;     C4-    C8-   C12-   C11
     4      8     12     14      9   180.00  15.16700   2 ;     C4-    C8-   C12-   C14
     5      1      2      6      9   180.00  15.16700   2 ;     C5-    C1-    C2-    C6
     5      1      2     16      9   180.00  15.16700   2 ;     C5-    C1-    C2-    H2
     5      9     10      6      9   180.00  15.16700   2 ;     C5-    C9-   C10-    C6
     5      9     10     14      9   180.00  15.16700   2 ;     C5-    C9-   C10-   C14
     5      9     13     11      9   180.00   0.00000   2 ;     C5-    C9-   C13-   C11
     5      9     13     23      9     0.00   0.00000   0 ;     C5-    C9-   C13-    H9
     5      9     13     24      9     0.00   0.00000   0 ;     C5-    C9-   C13-   H10
     6     10      9     13      9   180.00  15.16700   2 ;     C6-   C10-    C9-   C13
     6     10     14     12      9   180.00   0.00000   2 ;     C6-   C10-   C14-   C12
     6     10     14     25      9     0.00   0.00000   0 ;     C6-   C10-   C14-   H11
     6     10     14     26      9     0.00   0.00000   0 ;     C6-   C10-   C14-   H12
     7      3      4      8      9   180.00  15.16700   2 ;     C7-    C3-    C4-    C8
     7      3      4     18      9   180.00  15.16700   2 ;     C7-    C3-    C4-    H4
     7     11     12      8      9   180.00  15.16700   2 ;     C7-   C11-   C12-    C8
     7     11     12     14      9   180.00  15.16700   2 ;     C7-   C11-   C12-   C14
     7     11     13      9      9   180.00   0.00000   2 ;     C7-   C11-   C13-    C9
     7     11     13     23      9     0.00   0.00000   0 ;     C7-   C11-   C13-    H9
     7     11     13     24      9     0.00   0.00000   0 ;     C7-   C11-   C13-   H10
     8      4      3     17      9   180.00  15.16700   2 ;     C8-    C4-    C3-    H3
     8     12     11     13      9   180.00  15.16700   2 ;     C8-   C12-   C11-   C13
     8     12     14     10      9   180.00   0.00000   2 ;     C8-   C12-   C14-   C10
     8     12     14     25      9     0.00   0.00000   0 ;     C8-   C12-   C14-   H11
     8     12     14     26      9     0.00   0.00000   0 ;     C8-   C12-   C14-   H12
     9     10      6     20      9   180.00  15.16700   2 ;     C9-   C10-    C6-    H6
     9     10     14     12      9   180.00   0.00000   2 ;     C9-   C10-   C14-   C12
     9     10     14     25      9     0.00   0.00000   0 ;     C9-   C10-   C14-   H11
     9     10     14     26      9     0.00   0.00000   0 ;     C9-   C10-   C14-   H12
     9     13     11     12      9   180.00   0.00000   2 ;     C9-   C13-   C11-   C12
    10      6      2     16      9   180.00  15.16700   2 ;    C10-    C6-    C2-    H2
    10      9      5     19      9   180.00  15.16700   2 ;    C10-    C9-    C5-    H5
    10      9     13     11      9   180.00   0.00000   2 ;    C10-    C9-   C13-   C11
    10      9     13     23      9     0.00   0.00000   0 ;    C10-    C9-   C13-    H9
    10      9     13     24      9     0.00   0.00000   0 ;    C10-    C9-   C13-   H10
    10     14     12     11      9   180.00   0.00000   2 ;    C10-   C14-   C12-   C11
    11      7      3     17      9   180.00  15.16700   2 ;    C11-    C7-    C3-    H3
    11     12      8     22      9   180.00  15.16700   2 ;    C11-   C12-    C8-    H8
    11     12     14     25      9     0.00   0.00000   0 ;    C11-   C12-   C14-   H11
    11     12     14     26      9     0.00   0.00000   0 ;    C11-   C12-   C14-   H12
    12      8      4     18      9   180.00  15.16700   2 ;    C12-    C8-    C4-    H4
    12     11      7     21      9   180.00  15.16700   2 ;    C12-   C11-    C7-    H7
    12     11     13     23      9     0.00   0.00000   0 ;    C12-   C11-   C13-    H9
    12     11     13     24      9     0.00   0.00000   0 ;    C12-   C11-   C13-   H10
    13      9      5     19      9   180.00  15.16700   2 ;    C13-    C9-    C5-    H5
    13      9     10     14      9   180.00  15.16700   2 ;    C13-    C9-   C10-   C14
    13     11      7     21      9   180.00  15.16700   2 ;    C13-   C11-    C7-    H7
    13     11     12     14      9   180.00  15.16700   2 ;    C13-   C11-   C12-   C14
    14     10      6     20      9   180.00  15.16700   2 ;    C14-   C10-    C6-    H6
    14     12      8     22      9   180.00  15.16700   2 ;    C14-   C12-    C8-    H8
    15      1      2      6      9   180.00  15.16700   2 ;     H1-    C1-    C2-    C6
    15      1      2     16      9   180.00  15.16700   2 ;     H1-    C1-    C2-    H2
    15      1      5      9      9   180.00  15.16700   2 ;     H1-    C1-    C5-    C9
    15      1      5     19      9   180.00  15.16700   2 ;     H1-    C1-    C5-    H5
    16      2      6     20      9   180.00  15.16700   2 ;     H2-    C2-    C6-    H6
    17      3      4     18      9   180.00  15.16700   2 ;     H3-    C3-    C4-    H4
    17      3      7     21      9   180.00  15.16700   2 ;     H3-    C3-    C7-    H7
    18      4      8     22      9   180.00  15.16700   2 ;     H4-    C4-    C8-    H8

[ dihedrals ] ; impropers
; treated as propers in GROMACS to use correct AMBER analytical function
;    i      j      k      l   func   phase     kd      pn
     1      6      2     16      4   180.00   4.60240   2 ;     C1-    C6-    C2-    H2
     1      9      5     19      4   180.00   4.60240   2 ;     C1-    C9-    C5-    H5
     2     10      6     20      4   180.00   4.60240   2 ;     C2-   C10-    C6-    H6
     3      8      4     18      4   180.00   4.60240   2 ;     C3-    C8-    C4-    H4
     3     11      7     21      4   180.00   4.60240   2 ;     C3-   C11-    C7-    H7
     4      7      3     17      4   180.00   4.60240   2 ;     C4-    C7-    C3-    H3
     4     12      8     22      4   180.00   4.60240   2 ;     C4-   C12-    C8-    H8
    13      5      9     10      4   180.00   4.60240   2 ;    C13-    C5-    C9-   C10
    13      7     11     12      4   180.00   4.60240   2 ;    C13-    C7-   C11-   C12
    14      6     10      9      4   180.00   4.60240   2 ;    C14-    C6-   C10-    C9
    14      8     12     11      4   180.00   4.60240   2 ;    C14-    C8-   C12-   C11
    15      1      5      2      4   180.00   4.60240   2 ;     H1-    C1-    C5-    C2
