; mobley_8117218_GMX.itp created by acpype (v: 2023.10.27) on Thu May 21 00:13:02 2026

[ atomtypes ]
;name   bond_type     mass     charge   ptype   sigma         epsilon       Amb
 c2       c2          0.00000  0.00000   A     3.31521e-01   4.13379e-01 ; 1.86  0.0988
 c5       c5          0.00000  0.00000   A     3.39771e-01   4.51035e-01 ; 1.91  0.1078
 cx       cx          0.00000  0.00000   A     3.39771e-01   4.51035e-01 ; 1.91  0.1078
 op       op          0.00000  0.00000   A     3.15610e-01   3.03758e-01 ; 1.77  0.0726
 cl       cl          0.00000  0.00000   A     3.46595e-01   1.10374e+00 ; 1.95  0.2638
 hc       hc          0.00000  0.00000   A     2.60018e-01   8.70272e-02 ; 1.46  0.0208
 h1       h1          0.00000  0.00000   A     2.42200e-01   8.70272e-02 ; 1.36  0.0208

[ moleculetype ]
;name            nrexcl
 mobley_8117218   3

[ atoms ]
;   nr  type  resi  res  atom  cgnr     charge      mass       ; qtot   bond_type
     1   c2     1   MOL    C1    1    -0.043800     12.01000 ; qtot -0.044
     2   c2     1   MOL    C2    2    -0.043800     12.01000 ; qtot -0.088
     3   c5     1   MOL    C3    3    -0.114400     12.01000 ; qtot -0.202
     4   c5     1   MOL    C4    4    -0.048700     12.01000 ; qtot -0.251
     5   c5     1   MOL    C5    5    -0.048700     12.01000 ; qtot -0.299
     6   c5     1   MOL    C6    6    -0.071700     12.01000 ; qtot -0.371
     7   c5     1   MOL    C7    7    -0.071700     12.01000 ; qtot -0.443
     8   cx     1   MOL    C8    8     0.043100     12.01000 ; qtot -0.400
     9   cx     1   MOL    C9    9     0.043100     12.01000 ; qtot -0.357
    10   c5     1   MOL   C10   10     0.093600     12.01000 ; qtot -0.263
    11   c5     1   MOL   C11   11     0.093600     12.01000 ; qtot -0.169
    12   c5     1   MOL   C12   12     0.143800     12.01000 ; qtot -0.026
    13   op     1   MOL    O1   13    -0.373600     16.00000 ; qtot -0.399
    14   cl     1   MOL   CL1   14    -0.003400     35.45000 ; qtot -0.403
    15   cl     1   MOL   CL2   15    -0.003400     35.45000 ; qtot -0.406
    16   cl     1   MOL   CL3   16    -0.074400     35.45000 ; qtot -0.480
    17   cl     1   MOL   CL4   17    -0.074400     35.45000 ; qtot -0.555
    18   cl     1   MOL   CL5   18    -0.092900     35.45000 ; qtot -0.648
    19   cl     1   MOL   CL6   19    -0.092900     35.45000 ; qtot -0.741
    20   hc     1   MOL    H1   20     0.082200      1.00800 ; qtot -0.658
    21   hc     1   MOL    H2   21     0.082200      1.00800 ; qtot -0.576
    22   hc     1   MOL    H3   22     0.096700      1.00800 ; qtot -0.480
    23   hc     1   MOL    H4   23     0.096700      1.00800 ; qtot -0.383
    24   hc     1   MOL    H5   24     0.077700      1.00800 ; qtot -0.305
    25   hc     1   MOL    H6   25     0.077700      1.00800 ; qtot -0.227
    26   h1     1   MOL    H7   26     0.113700      1.00800 ; qtot -0.114
    27   h1     1   MOL    H8   27     0.113700      1.00800 ; qtot -0.000

[ bonds ]
;   ai     aj funct   r             k
     1      2   1    1.3379e-01    3.6484e+05 ;     C1 - C2    
     1     10   1    1.5154e-01    2.0366e+05 ;     C1 - C10   
     1     14   1    1.7415e-01    1.6405e+05 ;     C1 - CL1   
     2     11   1    1.5154e-01    2.0366e+05 ;     C2 - C11   
     2     15   1    1.7415e-01    1.6405e+05 ;     C2 - CL2   
     3      4   1    1.5483e-01    1.8418e+05 ;     C3 - C4    
     3      5   1    1.5483e-01    1.8418e+05 ;     C3 - C5    
     3     20   1    1.0954e-01    2.8989e+05 ;     C3 - H1    
     3     21   1    1.0954e-01    2.8989e+05 ;     C3 - H2    
     4      6   1    1.5483e-01    1.8418e+05 ;     C4 - C6    
     4      8   1    1.5312e-01    1.9401e+05 ;     C4 - C8    
     4     22   1    1.0954e-01    2.8989e+05 ;     C4 - H3    
     5      7   1    1.5483e-01    1.8418e+05 ;     C5 - C7    
     5      9   1    1.5312e-01    1.9401e+05 ;     C5 - C9    
     5     23   1    1.0954e-01    2.8989e+05 ;     C5 - H4    
     6      7   1    1.5483e-01    1.8418e+05 ;     C6 - C7    
     6     10   1    1.5483e-01    1.8418e+05 ;     C6 - C10   
     6     24   1    1.0954e-01    2.8989e+05 ;     C6 - H5    
     7     11   1    1.5483e-01    1.8418e+05 ;     C7 - C11   
     7     25   1    1.0954e-01    2.8989e+05 ;     C7 - H6    
     8      9   1    1.5082e-01    2.0825e+05 ;     C8 - C9    
     8     13   1    1.4368e-01    2.2898e+05 ;     C8 - O1    
     8     26   1    1.0888e-01    2.9820e+05 ;     C8 - H7    
     9     13   1    1.4368e-01    2.2898e+05 ;     C9 - O1    
     9     27   1    1.0888e-01    2.9820e+05 ;     C9 - H8    
    10     12   1    1.5483e-01    1.8418e+05 ;    C10 - C12   
    10     16   1    1.8093e-01    1.3720e+05 ;    C10 - CL3   
    11     12   1    1.5483e-01    1.8418e+05 ;    C11 - C12   
    11     17   1    1.8093e-01    1.3720e+05 ;    C11 - CL4   
    12     18   1    1.8093e-01    1.3720e+05 ;    C12 - CL5   
    12     19   1    1.8093e-01    1.3720e+05 ;    C12 - CL6   

[ pairs ]
;   ai     aj    funct
     1      4      1 ;     C1 - C4    
     1      7      1 ;     C1 - C7    
     1     17      1 ;     C1 - CL4   
     1     18      1 ;     C1 - CL5   
     1     19      1 ;     C1 - CL6   
     1     24      1 ;     C1 - H5    
     2      5      1 ;     C2 - C5    
     2      6      1 ;     C2 - C6    
     2     16      1 ;     C2 - CL3   
     2     18      1 ;     C2 - CL5   
     2     19      1 ;     C2 - CL6   
     2     25      1 ;     C2 - H6    
     3     10      1 ;     C3 - C10   
     3     11      1 ;     C3 - C11   
     3     13      1 ;     C3 - O1    
     3     24      1 ;     C3 - H5    
     3     25      1 ;     C3 - H6    
     3     26      1 ;     C3 - H7    
     3     27      1 ;     C3 - H8    
     4     11      1 ;     C4 - C11   
     4     12      1 ;     C4 - C12   
     4     16      1 ;     C4 - CL3   
     4     23      1 ;     C4 - H4    
     4     25      1 ;     C4 - H6    
     4     27      1 ;     C4 - H8    
     5     10      1 ;     C5 - C10   
     5     12      1 ;     C5 - C12   
     5     17      1 ;     C5 - CL4   
     5     22      1 ;     C5 - H3    
     5     24      1 ;     C5 - H5    
     5     26      1 ;     C5 - H7    
     6      9      1 ;     C6 - C9    
     6     13      1 ;     C6 - O1    
     6     17      1 ;     C6 - CL4   
     6     18      1 ;     C6 - CL5   
     6     19      1 ;     C6 - CL6   
     6     20      1 ;     C6 - H1    
     6     21      1 ;     C6 - H2    
     6     23      1 ;     C6 - H4    
     6     26      1 ;     C6 - H7    
     7      8      1 ;     C7 - C8    
     7     13      1 ;     C7 - O1    
     7     15      1 ;     C7 - CL2   
     7     16      1 ;     C7 - CL3   
     7     18      1 ;     C7 - CL5   
     7     19      1 ;     C7 - CL6   
     7     20      1 ;     C7 - H1    
     7     21      1 ;     C7 - H2    
     7     22      1 ;     C7 - H3    
     7     27      1 ;     C7 - H8    
     8     10      1 ;     C8 - C10   
     8     20      1 ;     C8 - H1    
     8     21      1 ;     C8 - H2    
     8     23      1 ;     C8 - H4    
     8     24      1 ;     C8 - H5    
     9     11      1 ;     C9 - C11   
     9     20      1 ;     C9 - H1    
     9     21      1 ;     C9 - H2    
     9     22      1 ;     C9 - H3    
     9     25      1 ;     C9 - H6    
    10     15      1 ;    C10 - CL2   
    10     17      1 ;    C10 - CL4   
    10     22      1 ;    C10 - H3    
    10     25      1 ;    C10 - H6    
    11     16      1 ;    C11 - CL3   
    11     23      1 ;    C11 - H4    
    11     24      1 ;    C11 - H5    
    12     15      1 ;    C12 - CL2   
    12     24      1 ;    C12 - H5    
    12     25      1 ;    C12 - H6    
    13     22      1 ;     O1 - H3    
    13     23      1 ;     O1 - H4    
    14      6      1 ;    CL1 - C6    
    14     11      1 ;    CL1 - C11   
    14     12      1 ;    CL1 - C12   
    14     15      1 ;    CL1 - CL2   
    14     16      1 ;    CL1 - CL3   
    15     17      1 ;    CL2 - CL4   
    16     18      1 ;    CL3 - CL5   
    16     19      1 ;    CL3 - CL6   
    16     24      1 ;    CL3 - H5    
    17     18      1 ;    CL4 - CL5   
    17     19      1 ;    CL4 - CL6   
    17     25      1 ;    CL4 - H6    
    20     22      1 ;     H1 - H3    
    20     23      1 ;     H1 - H4    
    21     22      1 ;     H2 - H3    
    21     23      1 ;     H2 - H4    
    22     24      1 ;     H3 - H5    
    22     26      1 ;     H3 - H7    
    23     25      1 ;     H4 - H6    
    23     27      1 ;     H4 - H8    
    24     25      1 ;     H5 - H6    
    26     27      1 ;     H7 - H8    

[ angles ]
;   ai     aj     ak    funct   theta         cth
     1      2     11      1    1.1893e+02    5.2066e+02 ;     C1 - C2     - C11   
     1      2     15      1    1.2318e+02    5.3622e+02 ;     C1 - C2     - CL2   
     1     10      6      1    1.0794e+02    5.1287e+02 ;     C1 - C10    - C6    
     1     10     12      1    1.0794e+02    5.1287e+02 ;     C1 - C10    - C12   
     1     10     16      1    1.1366e+02    5.2677e+02 ;     C1 - C10    - CL3   
     2      1     10      1    1.1893e+02    5.2066e+02 ;     C2 - C1     - C10   
     2      1     14      1    1.2318e+02    5.3622e+02 ;     C2 - C1     - CL1   
     2     11      7      1    1.0794e+02    5.1287e+02 ;     C2 - C11    - C7    
     2     11     12      1    1.0794e+02    5.1287e+02 ;     C2 - C11    - C12   
     2     11     17      1    1.1366e+02    5.2677e+02 ;     C2 - C11    - CL4   
     3      4      6      1    1.0383e+02    5.1748e+02 ;     C3 - C4     - C6    
     3      4      8      1    1.0367e+02    5.2074e+02 ;     C3 - C4     - C8    
     3      4     22      1    1.1117e+02    3.5690e+02 ;     C3 - C4     - H3    
     3      5      7      1    1.0383e+02    5.1748e+02 ;     C3 - C5     - C7    
     3      5      9      1    1.0367e+02    5.2074e+02 ;     C3 - C5     - C9    
     3      5     23      1    1.1117e+02    3.5690e+02 ;     C3 - C5     - H4    
     4      3      5      1    1.0383e+02    5.1748e+02 ;     C4 - C3     - C5    
     4      3     20      1    1.1117e+02    3.5690e+02 ;     C4 - C3     - H1    
     4      3     21      1    1.1117e+02    3.5690e+02 ;     C4 - C3     - H2    
     4      6      7      1    1.0383e+02    5.1748e+02 ;     C4 - C6     - C7    
     4      6     10      1    1.0383e+02    5.1748e+02 ;     C4 - C6     - C10   
     4      6     24      1    1.1117e+02    3.5690e+02 ;     C4 - C6     - H5    
     4      8      9      1    1.1200e+02    5.0760e+02 ;     C4 - C8     - C9    
     4      8     13      1    1.1515e+02    6.2576e+02 ;     C4 - C8     - O1    
     4      8     26      1    1.2044e+02    3.4660e+02 ;     C4 - C8     - H7    
     5      3     20      1    1.1117e+02    3.5690e+02 ;     C5 - C3     - H1    
     5      3     21      1    1.1117e+02    3.5690e+02 ;     C5 - C3     - H2    
     5      7      6      1    1.0383e+02    5.1748e+02 ;     C5 - C7     - C6    
     5      7     11      1    1.0383e+02    5.1748e+02 ;     C5 - C7     - C11   
     5      7     25      1    1.1117e+02    3.5690e+02 ;     C5 - C7     - H6    
     5      9      8      1    1.1200e+02    5.0760e+02 ;     C5 - C9     - C8    
     5      9     13      1    1.1515e+02    6.2576e+02 ;     C5 - C9     - O1    
     5      9     27      1    1.2044e+02    3.4660e+02 ;     C5 - C9     - H8    
     6      4      8      1    1.0367e+02    5.2074e+02 ;     C6 - C4     - C8    
     6      4     22      1    1.1117e+02    3.5690e+02 ;     C6 - C4     - H3    
     6      7     11      1    1.0383e+02    5.1748e+02 ;     C6 - C7     - C11   
     6      7     25      1    1.1117e+02    3.5690e+02 ;     C6 - C7     - H6    
     6     10     12      1    1.0383e+02    5.1748e+02 ;     C6 - C10    - C12   
     6     10     16      1    1.1339e+02    5.2409e+02 ;     C6 - C10    - CL3   
     7      5      9      1    1.0367e+02    5.2074e+02 ;     C7 - C5     - C9    
     7      5     23      1    1.1117e+02    3.5690e+02 ;     C7 - C5     - H4    
     7      6     10      1    1.0383e+02    5.1748e+02 ;     C7 - C6     - C10   
     7      6     24      1    1.1117e+02    3.5690e+02 ;     C7 - C6     - H5    
     7     11     12      1    1.0383e+02    5.1748e+02 ;     C7 - C11    - C12   
     7     11     17      1    1.1339e+02    5.2409e+02 ;     C7 - C11    - CL4   
     8      4     22      1    1.1148e+02    3.6008e+02 ;     C8 - C4     - H3    
     8      9     13      1    5.9100e+01    8.8107e+02 ;     C8 - C9     - O1    
     8      9     27      1    1.1869e+02    3.5397e+02 ;     C8 - C9     - H8    
     8     13      9      1    6.1760e+01    9.9588e+02 ;     C8 - O1     - C9    
     9      5     23      1    1.1148e+02    3.6008e+02 ;     C9 - C5     - H4    
     9      8     13      1    5.9100e+01    8.8107e+02 ;     C9 - C8     - O1    
     9      8     26      1    1.1869e+02    3.5397e+02 ;     C9 - C8     - H7    
    10      1     14      1    1.2291e+02    5.2024e+02 ;    C10 - C1     - CL1   
    10      6     24      1    1.1117e+02    3.5690e+02 ;    C10 - C6     - H5    
    10     12     11      1    1.0383e+02    5.1748e+02 ;    C10 - C12    - C11   
    10     12     18      1    1.1339e+02    5.2409e+02 ;    C10 - C12    - CL5   
    10     12     19      1    1.1339e+02    5.2409e+02 ;    C10 - C12    - CL6   
    11      2     15      1    1.2291e+02    5.2024e+02 ;    C11 - C2     - CL2   
    11      7     25      1    1.1117e+02    3.5690e+02 ;    C11 - C7     - H6    
    11     12     18      1    1.1339e+02    5.2409e+02 ;    C11 - C12    - CL5   
    11     12     19      1    1.1339e+02    5.2409e+02 ;    C11 - C12    - CL6   
    12     10     16      1    1.1339e+02    5.2409e+02 ;    C12 - C10    - CL3   
    12     11     17      1    1.1339e+02    5.2409e+02 ;    C12 - C11    - CL4   
    13      8     26      1    1.1493e+02    4.5882e+02 ;     O1 - C8     - H7    
    13      9     27      1    1.1493e+02    4.5882e+02 ;     O1 - C9     - H8    
    18     12     19      1    1.0869e+02    5.8392e+02 ;    CL5 - C12    - CL6   
    20      3     21      1    1.0722e+02    3.0049e+02 ;     H1 - C3     - H2    

[ dihedrals ] ; propers
; for gromacs 4.5 or higher, using funct 9
;    i      j      k      l   func   phase     kd      pn
     1      2     11      7      9     0.00   0.00000   0 ;     C1-    C2-   C11-    C7
     1      2     11     12      9     0.00   0.00000   0 ;     C1-    C2-   C11-   C12
     1      2     11     17      9     0.00   0.00000   0 ;     C1-    C2-   C11-   CL4
     1     10      6      4      9     0.00   0.65084   3 ;     C1-   C10-    C6-    C4
     1     10      6      7      9     0.00   0.65084   3 ;     C1-   C10-    C6-    C7
     1     10      6     24      9     0.00   0.65084   3 ;     C1-   C10-    C6-    H5
     1     10     12     11      9     0.00   0.65084   3 ;     C1-   C10-   C12-   C11
     1     10     12     18      9     0.00   0.65084   3 ;     C1-   C10-   C12-   CL5
     1     10     12     19      9     0.00   0.65084   3 ;     C1-   C10-   C12-   CL6
     2      1     10      6      9     0.00   0.00000   0 ;     C2-    C1-   C10-    C6
     2      1     10     12      9     0.00   0.00000   0 ;     C2-    C1-   C10-   C12
     2      1     10     16      9     0.00   0.00000   0 ;     C2-    C1-   C10-   CL3
     2     11      7      5      9     0.00   0.65084   3 ;     C2-   C11-    C7-    C5
     2     11      7      6      9     0.00   0.65084   3 ;     C2-   C11-    C7-    C6
     2     11      7     25      9     0.00   0.65084   3 ;     C2-   C11-    C7-    H6
     2     11     12     10      9     0.00   0.65084   3 ;     C2-   C11-   C12-   C10
     2     11     12     18      9     0.00   0.65084   3 ;     C2-   C11-   C12-   CL5
     2     11     12     19      9     0.00   0.65084   3 ;     C2-   C11-   C12-   CL6
     3      4      6      7      9     0.00   2.17568   3 ;     C3-    C4-    C6-    C7
     3      4      6     10      9     0.00   2.17568   3 ;     C3-    C4-    C6-   C10
     3      4      6     24      9     0.00   0.54392   3 ;     C3-    C4-    C6-    H5
     3      4      8      9      9     0.00   2.17568   3 ;     C3-    C4-    C8-    C9
     3      4      8     13      9     0.00   0.65084   3 ;     C3-    C4-    C8-    O1
     3      4      8     26      9     0.00   0.54392   3 ;     C3-    C4-    C8-    H7
     3      5      7      6      9     0.00   2.17568   3 ;     C3-    C5-    C7-    C6
     3      5      7     11      9     0.00   2.17568   3 ;     C3-    C5-    C7-   C11
     3      5      7     25      9     0.00   0.54392   3 ;     C3-    C5-    C7-    H6
     3      5      9      8      9     0.00   2.17568   3 ;     C3-    C5-    C9-    C8
     3      5      9     13      9     0.00   0.65084   3 ;     C3-    C5-    C9-    O1
     3      5      9     27      9     0.00   0.54392   3 ;     C3-    C5-    C9-    H8
     4      3      5      7      9     0.00   2.17568   3 ;     C4-    C3-    C5-    C7
     4      3      5      9      9     0.00   0.65084   3 ;     C4-    C3-    C5-    C9
     4      3      5     23      9     0.00   0.54392   3 ;     C4-    C3-    C5-    H4
     4      6      7      5      9     0.00   2.17568   3 ;     C4-    C6-    C7-    C5
     4      6      7     11      9     0.00   2.17568   3 ;     C4-    C6-    C7-   C11
     4      6      7     25      9     0.00   0.54392   3 ;     C4-    C6-    C7-    H6
     4      6     10     12      9     0.00   2.17568   3 ;     C4-    C6-   C10-   C12
     4      6     10     16      9     0.00   0.65084   3 ;     C4-    C6-   C10-   CL3
     4      8      9      5      9     0.00   0.65084   3 ;     C4-    C8-    C9-    C5
     4      8      9     13      9     0.00   0.65084   3 ;     C4-    C8-    C9-    O1
     4      8      9     27      9     0.00   0.65084   3 ;     C4-    C8-    C9-    H8
     4      8     13      9      9     0.00   0.33472   2 ;     C4-    C8-    O1-    C9
     4      8     13      9      9     0.00   3.13800   3 ;     C4-    C8-    O1-    C9
     4      8     13      9      9   180.00   3.68192   1 ;     C4-    C8-    O1-    C9
     5      3      4      6      9     0.00   2.17568   3 ;     C5-    C3-    C4-    C6
     5      3      4      8      9     0.00   0.65084   3 ;     C5-    C3-    C4-    C8
     5      3      4     22      9     0.00   0.54392   3 ;     C5-    C3-    C4-    H3
     5      7      6     10      9     0.00   2.17568   3 ;     C5-    C7-    C6-   C10
     5      7      6     24      9     0.00   0.54392   3 ;     C5-    C7-    C6-    H5
     5      7     11     12      9     0.00   2.17568   3 ;     C5-    C7-   C11-   C12
     5      7     11     17      9     0.00   0.65084   3 ;     C5-    C7-   C11-   CL4
     5      9      8     13      9     0.00   0.65084   3 ;     C5-    C9-    C8-    O1
     5      9      8     26      9     0.00   0.65084   3 ;     C5-    C9-    C8-    H7
     5      9     13      8      9     0.00   0.33472   2 ;     C5-    C9-    O1-    C8
     5      9     13      8      9     0.00   3.13800   3 ;     C5-    C9-    O1-    C8
     5      9     13      8      9   180.00   3.68192   1 ;     C5-    C9-    O1-    C8
     6      4      3     20      9     0.00   0.54392   3 ;     C6-    C4-    C3-    H1
     6      4      3     21      9     0.00   0.54392   3 ;     C6-    C4-    C3-    H2
     6      4      8      9      9     0.00   2.17568   3 ;     C6-    C4-    C8-    C9
     6      4      8     13      9     0.00   0.65084   3 ;     C6-    C4-    C8-    O1
     6      4      8     26      9     0.00   0.54392   3 ;     C6-    C4-    C8-    H7
     6      7      5      9      9     0.00   0.65084   3 ;     C6-    C7-    C5-    C9
     6      7      5     23      9     0.00   0.54392   3 ;     C6-    C7-    C5-    H4
     6      7     11     12      9     0.00   2.17568   3 ;     C6-    C7-   C11-   C12
     6      7     11     17      9     0.00   0.65084   3 ;     C6-    C7-   C11-   CL4
     6     10     12     11      9     0.00   2.17568   3 ;     C6-   C10-   C12-   C11
     6     10     12     18      9     0.00   0.65084   3 ;     C6-   C10-   C12-   CL5
     6     10     12     19      9     0.00   0.65084   3 ;     C6-   C10-   C12-   CL6
     7      5      3     20      9     0.00   0.54392   3 ;     C7-    C5-    C3-    H1
     7      5      3     21      9     0.00   0.54392   3 ;     C7-    C5-    C3-    H2
     7      5      9      8      9     0.00   2.17568   3 ;     C7-    C5-    C9-    C8
     7      5      9     13      9     0.00   0.65084   3 ;     C7-    C5-    C9-    O1
     7      5      9     27      9     0.00   0.54392   3 ;     C7-    C5-    C9-    H8
     7      6      4      8      9     0.00   0.65084   3 ;     C7-    C6-    C4-    C8
     7      6      4     22      9     0.00   0.54392   3 ;     C7-    C6-    C4-    H3
     7      6     10     12      9     0.00   2.17568   3 ;     C7-    C6-   C10-   C12
     7      6     10     16      9     0.00   0.65084   3 ;     C7-    C6-   C10-   CL3
     7     11      2     15      9     0.00   0.00000   0 ;     C7-   C11-    C2-   CL2
     7     11     12     10      9     0.00   2.17568   3 ;     C7-   C11-   C12-   C10
     7     11     12     18      9     0.00   0.65084   3 ;     C7-   C11-   C12-   CL5
     7     11     12     19      9     0.00   0.65084   3 ;     C7-   C11-   C12-   CL6
     8      4      3     20      9     0.00   0.65084   3 ;     C8-    C4-    C3-    H1
     8      4      3     21      9     0.00   0.65084   3 ;     C8-    C4-    C3-    H2
     8      4      6     10      9     0.00   0.65084   3 ;     C8-    C4-    C6-   C10
     8      4      6     24      9     0.00   0.65084   3 ;     C8-    C4-    C6-    H5
     8      9      5     23      9     0.00   0.54392   3 ;     C8-    C9-    C5-    H4
     8     13      9     27      9     0.00   1.41001   3 ;     C8-    O1-    C9-    H8
     9      5      3     20      9     0.00   0.65084   3 ;     C9-    C5-    C3-    H1
     9      5      3     21      9     0.00   0.65084   3 ;     C9-    C5-    C3-    H2
     9      5      7     11      9     0.00   0.65084   3 ;     C9-    C5-    C7-   C11
     9      5      7     25      9     0.00   0.65084   3 ;     C9-    C5-    C7-    H6
     9      8      4     22      9     0.00   0.54392   3 ;     C9-    C8-    C4-    H3
     9     13      8     26      9     0.00   1.41001   3 ;     C9-    O1-    C8-    H7
    10      1      2     11      9     0.00   0.62760   1 ;    C10-    C1-    C2-   C11
    10      1      2     11      9   180.00   5.56472   3 ;    C10-    C1-    C2-   C11
    10      1      2     11      9   180.00  24.18352   2 ;    C10-    C1-    C2-   C11
    10      1      2     15      9   180.00  27.82360   2 ;    C10-    C1-    C2-   CL2
    10      6      4     22      9     0.00   0.54392   3 ;    C10-    C6-    C4-    H3
    10      6      7     11      9     0.00   2.17568   3 ;    C10-    C6-    C7-   C11
    10      6      7     25      9     0.00   0.54392   3 ;    C10-    C6-    C7-    H6
    10     12     11     17      9     0.00   0.65084   3 ;    C10-   C12-   C11-   CL4
    11      7      5     23      9     0.00   0.54392   3 ;    C11-    C7-    C5-    H4
    11      7      6     24      9     0.00   0.54392   3 ;    C11-    C7-    C6-    H5
    11     12     10     16      9     0.00   0.65084   3 ;    C11-   C12-   C10-   CL3
    12     10      6     24      9     0.00   0.54392   3 ;    C12-   C10-    C6-    H5
    12     11      2     15      9     0.00   0.00000   0 ;    C12-   C11-    C2-   CL2
    12     11      7     25      9     0.00   0.54392   3 ;    C12-   C11-    C7-    H6
    13      8      4     22      9     0.00   0.00000   0 ;     O1-    C8-    C4-    H3
    13      8      4     22      9     0.00   1.04600   1 ;     O1-    C8-    C4-    H3
    13      8      9     27      9     0.00   0.65084   3 ;     O1-    C8-    C9-    H8
    13      9      5     23      9     0.00   0.00000   0 ;     O1-    C9-    C5-    H4
    13      9      5     23      9     0.00   1.04600   1 ;     O1-    C9-    C5-    H4
    13      9      8     26      9     0.00   0.65084   3 ;     O1-    C9-    C8-    H7
    14      1      2     11      9   180.00  27.82360   2 ;    CL1-    C1-    C2-   C11
    14      1      2     15      9   180.00  27.82360   2 ;    CL1-    C1-    C2-   CL2
    14      1     10      6      9     0.00   0.00000   0 ;    CL1-    C1-   C10-    C6
    14      1     10     12      9     0.00   0.00000   0 ;    CL1-    C1-   C10-   C12
    14      1     10     16      9     0.00   0.00000   0 ;    CL1-    C1-   C10-   CL3
    15      2     11     17      9     0.00   0.00000   0 ;    CL2-    C2-   C11-   CL4
    16     10      6     24      9     0.00   0.75312   3 ;    CL3-   C10-    C6-    H5
    16     10     12     18      9     0.00   5.94128   3 ;    CL3-   C10-   C12-   CL5
    16     10     12     19      9     0.00   5.94128   3 ;    CL3-   C10-   C12-   CL6
    17     11      7     25      9     0.00   0.75312   3 ;    CL4-   C11-    C7-    H6
    17     11     12     18      9     0.00   5.94128   3 ;    CL4-   C11-   C12-   CL5
    17     11     12     19      9     0.00   5.94128   3 ;    CL4-   C11-   C12-   CL6
    20      3      4     22      9     0.00   0.50208   3 ;     H1-    C3-    C4-    H3
    20      3      5     23      9     0.00   0.50208   3 ;     H1-    C3-    C5-    H4
    21      3      4     22      9     0.00   0.50208   3 ;     H2-    C3-    C4-    H3
    21      3      5     23      9     0.00   0.50208   3 ;     H2-    C3-    C5-    H4
    22      4      6     24      9     0.00   0.50208   3 ;     H3-    C4-    C6-    H5
    22      4      8     26      9     0.00   0.50208   3 ;     H3-    C4-    C8-    H7
    23      5      7     25      9     0.00   0.50208   3 ;     H4-    C5-    C7-    H6
    23      5      9     27      9     0.00   0.50208   3 ;     H4-    C5-    C9-    H8
    24      6      7     25      9     0.00   0.50208   3 ;     H5-    C6-    C7-    H6
    26      8      9     27      9     0.00   0.65084   3 ;     H7-    C8-    C9-    H8

[ dihedrals ] ; impropers
; treated as propers in GROMACS to use correct AMBER analytical function
;    i      j      k      l   func   phase     kd      pn
     1     11      2     15      4   180.00   4.60240   2 ;     C1-   C11-    C2-   CL2
    14      1     10      2      4   180.00   4.60240   2 ;    CL1-    C1-   C10-    C2
