; mobley_5390332_GMX.top created by acpype (v: 2023.10.27) on Thu May 21 00:26:07 2026

[ defaults ]
; nbfunc        comb-rule       gen-pairs       fudgeLJ fudgeQQ
1               2               yes             0.5     0.8333333333

; Include mobley_5390332_GMX.itp topology
#include "mobley_5390332_GMX.itp"

; Ligand position restraints
#ifdef POSRES_LIG
#include "posre_mobley_5390332.itp"
#endif


#include "/home/carla/github/Solvation-openMM/DADES/common/SOL.TIP3P.itp"

[ system ]
mobley_5390332 in water

[ molecules ]
; Compound        nmols
 mobley_5390332   1     
SOL 787
