; mobley_5973402_GMX.itp created by acpype (v: 2023.10.27) on Thu May 21 00:20:43 2026

[ atomtypes ]
;name   bond_type     mass     charge   ptype   sigma         epsilon       Amb
 c3       c3          0.00000  0.00000   A     3.39771e-01   4.51035e-01 ; 1.91  0.1078
 oh       oh          0.00000  0.00000   A     3.24287e-01   3.89112e-01 ; 1.82  0.0930
 hc       hc          0.00000  0.00000   A     2.60018e-01   8.70272e-02 ; 1.46  0.0208
 h1       h1          0.00000  0.00000   A     2.42200e-01   8.70272e-02 ; 1.36  0.0208
 ho       ho          0.00000  0.00000   A     5.37925e-02   1.96648e-02 ; 0.30  0.0047

[ moleculetype ]
;name            nrexcl
 mobley_5973402   3

[ atoms ]
;   nr  type  resi  res  atom  cgnr     charge      mass       ; qtot   bond_type
     1   c3     1   MOL    C1    1    -0.091600     12.01000 ; qtot -0.092
     2   c3     1   MOL    C2    2    -0.091600     12.01000 ; qtot -0.183
     3   c3     1   MOL    C3    3    -0.114400     12.01000 ; qtot -0.298
     4   c3     1   MOL    C4    4     0.126400     12.01000 ; qtot -0.171
     5   c3     1   MOL    C5    5    -0.062700     12.01000 ; qtot -0.234
     6   oh     1   MOL    O1    6    -0.599798     16.00000 ; qtot -0.834
     7   hc     1   MOL    H1    7     0.035033      1.00800 ; qtot -0.799
     8   hc     1   MOL    H2    8     0.035033      1.00800 ; qtot -0.764
     9   hc     1   MOL    H3    9     0.035033      1.00800 ; qtot -0.729
    10   hc     1   MOL    H4   10     0.035033      1.00800 ; qtot -0.694
    11   hc     1   MOL    H5   11     0.035033      1.00800 ; qtot -0.659
    12   hc     1   MOL    H6   12     0.035033      1.00800 ; qtot -0.623
    13   hc     1   MOL    H7   13     0.045200      1.00800 ; qtot -0.578
    14   hc     1   MOL    H8   14     0.045200      1.00800 ; qtot -0.533
    15   h1     1   MOL    H9   15     0.046200      1.00800 ; qtot -0.487
    16   h1     1   MOL   H10   16     0.046200      1.00800 ; qtot -0.441
    17   hc     1   MOL   H11   17     0.045700      1.00800 ; qtot -0.395
    18   ho     1   MOL   H12   18     0.395000      1.00800 ; qtot 0.000

[ bonds ]
;   ai     aj funct   r             k
     1      5   1    1.5354e-01    1.9154e+05 ;     C1 - C5    
     1      7   1    1.0962e-01    2.8891e+05 ;     C1 - H1    
     1      8   1    1.0962e-01    2.8891e+05 ;     C1 - H2    
     1      9   1    1.0962e-01    2.8891e+05 ;     C1 - H3    
     2      5   1    1.5354e-01    1.9154e+05 ;     C2 - C5    
     2     10   1    1.0962e-01    2.8891e+05 ;     C2 - H4    
     2     11   1    1.0962e-01    2.8891e+05 ;     C2 - H5    
     2     12   1    1.0962e-01    2.8891e+05 ;     C2 - H6    
     3      4   1    1.5354e-01    1.9154e+05 ;     C3 - C4    
     3      5   1    1.5354e-01    1.9154e+05 ;     C3 - C5    
     3     13   1    1.0962e-01    2.8891e+05 ;     C3 - H7    
     3     14   1    1.0962e-01    2.8891e+05 ;     C3 - H8    
     4      6   1    1.4242e-01    2.3861e+05 ;     C4 - O1    
     4     15   1    1.0969e-01    2.8804e+05 ;     C4 - H9    
     4     16   1    1.0969e-01    2.8804e+05 ;     C4 - H10   
     5     17   1    1.0962e-01    2.8891e+05 ;     C5 - H11   
     6     18   1    9.7250e-02    4.4811e+05 ;     O1 - H12   

[ pairs ]
;   ai     aj    funct
     1      4      1 ;     C1 - C4    
     1     10      1 ;     C1 - H4    
     1     11      1 ;     C1 - H5    
     1     12      1 ;     C1 - H6    
     1     13      1 ;     C1 - H7    
     1     14      1 ;     C1 - H8    
     2      4      1 ;     C2 - C4    
     2     13      1 ;     C2 - H7    
     2     14      1 ;     C2 - H8    
     3     10      1 ;     C3 - H4    
     3     11      1 ;     C3 - H5    
     3     12      1 ;     C3 - H6    
     3     18      1 ;     C3 - H12   
     4     17      1 ;     C4 - H11   
     5      6      1 ;     C5 - O1    
     5     15      1 ;     C5 - H9    
     5     16      1 ;     C5 - H10   
     6     13      1 ;     O1 - H7    
     6     14      1 ;     O1 - H8    
     7      2      1 ;     H1 - C2    
     7      3      1 ;     H1 - C3    
     7     17      1 ;     H1 - H11   
     8      2      1 ;     H2 - C2    
     8      3      1 ;     H2 - C3    
     8     17      1 ;     H2 - H11   
     9      2      1 ;     H3 - C2    
     9      3      1 ;     H3 - C3    
     9     17      1 ;     H3 - H11   
    10     17      1 ;     H4 - H11   
    11     17      1 ;     H5 - H11   
    12     17      1 ;     H6 - H11   
    13     15      1 ;     H7 - H9    
    13     16      1 ;     H7 - H10   
    13     17      1 ;     H7 - H11   
    14     15      1 ;     H8 - H9    
    14     16      1 ;     H8 - H10   
    14     17      1 ;     H8 - H11   
    15     18      1 ;     H9 - H12   
    16     18      1 ;    H10 - H12   

[ angles ]
;   ai     aj     ak    funct   theta         cth
     1      5      2      1    1.1263e+02    5.0099e+02 ;     C1 - C5     - C2    
     1      5      3      1    1.1263e+02    5.0099e+02 ;     C1 - C5     - C3    
     1      5     17      1    1.0968e+02    3.6208e+02 ;     C1 - C5     - H11   
     2      5      3      1    1.1263e+02    5.0099e+02 ;     C2 - C5     - C3    
     2      5     17      1    1.0968e+02    3.6208e+02 ;     C2 - C5     - H11   
     3      4      6      1    1.0966e+02    6.4258e+02 ;     C3 - C4     - O1    
     3      4     15      1    1.0959e+02    3.6217e+02 ;     C3 - C4     - H9    
     3      4     16      1    1.0959e+02    3.6217e+02 ;     C3 - C4     - H10   
     3      5     17      1    1.0968e+02    3.6208e+02 ;     C3 - C5     - H11   
     4      3      5      1    1.1263e+02    5.0099e+02 ;     C4 - C3     - C5    
     4      3     13      1    1.0968e+02    3.6208e+02 ;     C4 - C3     - H7    
     4      3     14      1    1.0968e+02    3.6208e+02 ;     C4 - C3     - H8    
     4      6     18      1    1.0739e+02    5.4501e+02 ;     C4 - O1     - H12   
     5      1      7      1    1.0968e+02    3.6208e+02 ;     C5 - C1     - H1    
     5      1      8      1    1.0968e+02    3.6208e+02 ;     C5 - C1     - H2    
     5      1      9      1    1.0968e+02    3.6208e+02 ;     C5 - C1     - H3    
     5      2     10      1    1.0968e+02    3.6208e+02 ;     C5 - C2     - H4    
     5      2     11      1    1.0968e+02    3.6208e+02 ;     C5 - C2     - H5    
     5      2     12      1    1.0968e+02    3.6208e+02 ;     C5 - C2     - H6    
     5      3     13      1    1.0968e+02    3.6208e+02 ;     C5 - C3     - H7    
     5      3     14      1    1.0968e+02    3.6208e+02 ;     C5 - C3     - H8    
     6      4     15      1    1.1038e+02    4.7103e+02 ;     O1 - C4     - H9    
     6      4     16      1    1.1038e+02    4.7103e+02 ;     O1 - C4     - H10   
     7      1      8      1    1.0773e+02    2.9957e+02 ;     H1 - C1     - H2    
     7      1      9      1    1.0773e+02    2.9957e+02 ;     H1 - C1     - H3    
     8      1      9      1    1.0773e+02    2.9957e+02 ;     H2 - C1     - H3    
    10      2     11      1    1.0773e+02    2.9957e+02 ;     H4 - C2     - H5    
    10      2     12      1    1.0773e+02    2.9957e+02 ;     H4 - C2     - H6    
    11      2     12      1    1.0773e+02    2.9957e+02 ;     H5 - C2     - H6    
    13      3     14      1    1.0773e+02    2.9957e+02 ;     H7 - C3     - H8    
    15      4     16      1    1.0855e+02    2.9824e+02 ;     H9 - C4     - H10   

[ dihedrals ] ; propers
; for gromacs 4.5 or higher, using funct 9
;    i      j      k      l   func   phase     kd      pn
     1      5      2     10      9     0.00   0.54392   3 ;     C1-    C5-    C2-    H4
     1      5      2     11      9     0.00   0.54392   3 ;     C1-    C5-    C2-    H5
     1      5      2     12      9     0.00   0.54392   3 ;     C1-    C5-    C2-    H6
     1      5      3      4      9     0.00   2.17568   3 ;     C1-    C5-    C3-    C4
     1      5      3     13      9     0.00   0.54392   3 ;     C1-    C5-    C3-    H7
     1      5      3     14      9     0.00   0.54392   3 ;     C1-    C5-    C3-    H8
     2      5      3      4      9     0.00   2.17568   3 ;     C2-    C5-    C3-    C4
     2      5      3     13      9     0.00   0.54392   3 ;     C2-    C5-    C3-    H7
     2      5      3     14      9     0.00   0.54392   3 ;     C2-    C5-    C3-    H8
     3      4      6     18      9     0.00   0.25104   3 ;     C3-    C4-    O1-   H12
     3      5      2     10      9     0.00   0.54392   3 ;     C3-    C5-    C2-    H4
     3      5      2     11      9     0.00   0.54392   3 ;     C3-    C5-    C2-    H5
     3      5      2     12      9     0.00   0.54392   3 ;     C3-    C5-    C2-    H6
     4      3      5     17      9     0.00   0.54392   3 ;     C4-    C3-    C5-   H11
     5      3      4      6      9     0.00   0.75312   3 ;     C5-    C3-    C4-    O1
     5      3      4     15      9     0.00   0.65084   3 ;     C5-    C3-    C4-    H9
     5      3      4     16      9     0.00   0.65084   3 ;     C5-    C3-    C4-   H10
     6      4      3     13      9     0.00   0.37656   3 ;     O1-    C4-    C3-    H7
     6      4      3     14      9     0.00   0.37656   3 ;     O1-    C4-    C3-    H8
     7      1      5      2      9     0.00   0.54392   3 ;     H1-    C1-    C5-    C2
     7      1      5      3      9     0.00   0.54392   3 ;     H1-    C1-    C5-    C3
     7      1      5     17      9     0.00   0.50208   3 ;     H1-    C1-    C5-   H11
     8      1      5      2      9     0.00   0.54392   3 ;     H2-    C1-    C5-    C2
     8      1      5      3      9     0.00   0.54392   3 ;     H2-    C1-    C5-    C3
     8      1      5     17      9     0.00   0.50208   3 ;     H2-    C1-    C5-   H11
     9      1      5      2      9     0.00   0.54392   3 ;     H3-    C1-    C5-    C2
     9      1      5      3      9     0.00   0.54392   3 ;     H3-    C1-    C5-    C3
     9      1      5     17      9     0.00   0.50208   3 ;     H3-    C1-    C5-   H11
    10      2      5     17      9     0.00   0.50208   3 ;     H4-    C2-    C5-   H11
    11      2      5     17      9     0.00   0.50208   3 ;     H5-    C2-    C5-   H11
    12      2      5     17      9     0.00   0.50208   3 ;     H6-    C2-    C5-   H11
    13      3      4     15      9     0.00   0.65084   3 ;     H7-    C3-    C4-    H9
    13      3      4     16      9     0.00   0.65084   3 ;     H7-    C3-    C4-   H10
    13      3      5     17      9     0.00   0.50208   3 ;     H7-    C3-    C5-   H11
    14      3      4     15      9     0.00   0.65084   3 ;     H8-    C3-    C4-    H9
    14      3      4     16      9     0.00   0.65084   3 ;     H8-    C3-    C4-   H10
    14      3      5     17      9     0.00   0.50208   3 ;     H8-    C3-    C5-   H11
    15      4      6     18      9     0.00   0.51463   3 ;     H9-    C4-    O1-   H12
    16      4      6     18      9     0.00   0.51463   3 ;    H10-    C4-    O1-   H12
