mobley_7364468_GMX.gro created by acpype (v: 2023.10.27) on Tue May 19 14:03:17 2026
 2406
    1MOL     C1    1   2.354   2.246   2.518
    1MOL     C2    2   2.270   2.226   2.415
    1MOL     C3    3   2.434   2.371   2.527
    1MOL     C4    4   2.254   2.324   2.302
    1MOL     C5    5   2.412   2.479   2.423
    1MOL     C6    6   2.373   2.422   2.286
    1MOL     C7    7   2.185   2.102   2.407
    1MOL     C8    8   2.493   2.350   2.222
    1MOL     C9    9   2.331   2.537   2.193
    1MOL     O1   10   2.510   2.386   2.623
    1MOL     H1   11   2.367   2.176   2.599
    1MOL     H2   12   2.239   2.270   2.208
    1MOL     H3   13   2.161   2.381   2.320
    1MOL     H4   14   2.334   2.546   2.462
    1MOL     H5   15   2.505   2.537   2.415
    1MOL     H6   16   2.079   2.130   2.404
    1MOL     H7   17   2.200   2.036   2.494
    1MOL     H8   18   2.209   2.045   2.317
    1MOL     H9   19   2.578   2.418   2.209
    1MOL    H10   20   2.528   2.265   2.282
    1MOL    H11   21   2.467   2.310   2.123
    1MOL    H12   22   2.414   2.608   2.179
    1MOL    H13   23   2.302   2.500   2.094
    1MOL    H14   24   2.246   2.593   2.234
   14SOL     OW   25   1.460   1.505   1.339
   14SOL    HW1   26   1.484   1.599   1.365
   14SOL    HW2   27   1.444   1.451   1.421
   18SOL     OW   28   1.127   1.341   1.690
   18SOL    HW1   29   1.174   1.341   1.778
   18SOL    HW2   30   1.079   1.254   1.679
   31SOL     OW   31   1.293   1.228   1.423
   31SOL    HW1   32   1.330   1.155   1.365
   31SOL    HW2   33   1.345   1.233   1.508
   35SOL     OW   34   1.187   1.792   1.616
   35SOL    HW1   35   1.211   1.852   1.540
   35SOL    HW2   36   1.194   1.697   1.586
   56SOL     OW   37   1.227   1.550   1.506
   56SOL    HW1   38   1.233   1.473   1.570
   56SOL    HW2   39   1.175   1.524   1.426
   95SOL     OW   40   1.754   1.223   1.588
   95SOL    HW1   41   1.845   1.184   1.575
   95SOL    HW2   42   1.762   1.319   1.612
   97SOL     OW   43   1.592   1.629   1.625
   97SOL    HW1   44   1.619   1.663   1.535
   97SOL    HW2   45   1.671   1.591   1.671
  122SOL     OW   46   1.728   0.935   1.854
  122SOL    HW1   47   1.682   0.928   1.765
  122SOL    HW2   48   1.666   0.979   1.920
  126SOL     OW   49   0.980   1.573   1.700
  126SOL    HW1   50   0.960   1.617   1.612
  126SOL    HW2   51   1.019   1.482   1.684
  127SOL     OW   52   1.859   1.518   1.605
  127SOL    HW1   53   1.873   1.545   1.510
  127SOL    HW2   54   1.942   1.540   1.658
  147SOL     OW   55   0.930   1.678   1.465
  147SOL    HW1   56   0.906   1.660   1.370
  147SOL    HW2   57   0.960   1.772   1.475
  152SOL     OW   58   1.759   1.747   1.154
  152SOL    HW1   59   1.820   1.777   1.081
  152SOL    HW2   60   1.721   1.658   1.132
  153SOL     OW   61   1.252   1.731   1.128
  153SOL    HW1   62   1.336   1.736   1.074
  153SOL    HW2   63   1.229   1.635   1.146
  163SOL     OW   64   1.650   1.720   1.394
  163SOL    HW1   65   1.703   1.730   1.310
  163SOL    HW2   66   1.623   1.810   1.428
  171SOL     OW   67   1.614   1.292   1.289
  171SOL    HW1   68   1.674   1.295   1.369
  171SOL    HW2   69   1.539   1.356   1.302
  184SOL     OW   70   1.493   1.767   0.959
  184SOL    HW1   71   1.526   1.831   0.890
  184SOL    HW2   72   1.559   1.761   1.034
  186SOL     OW   73   1.450   1.220   1.633
  186SOL    HW1   74   1.441   1.210   1.732
  186SOL    HW2   75   1.546   1.213   1.607
  192SOL     OW   76   1.730   0.934   1.517
  192SOL    HW1   77   1.768   1.025   1.532
  192SOL    HW2   78   1.722   0.917   1.418
  197SOL     OW   79   1.861   1.569   0.851
  197SOL    HW1   80   1.790   1.557   0.781
  197SOL    HW2   81   1.862   1.490   0.911
  203SOL     OW   82   1.705   1.487   1.104
  203SOL    HW1   83   1.612   1.462   1.077
  203SOL    HW2   84   1.731   1.437   1.186
  219SOL     OW   85   1.555   1.511   2.565
  219SOL    HW1   86   1.498   1.495   2.646
  219SOL    HW2   87   1.496   1.521   2.485
  227SOL     OW   88   1.460   1.505   3.201
  227SOL    HW1   89   1.484   1.599   3.227
  227SOL    HW2   90   1.444   1.451   3.283
  238SOL     OW   91   1.842   1.767   2.221
  238SOL    HW1   92   1.896   1.738   2.301
  238SOL    HW2   93   1.872   1.857   2.192
  240SOL     OW   94   1.689   0.922   2.474
  240SOL    HW1   95   1.784   0.893   2.482
  240SOL    HW2   96   1.681   0.987   2.399
  241SOL     OW   97   1.641   1.108   2.294
  241SOL    HW1   98   1.727   1.110   2.242
  241SOL    HW2   99   1.655   1.155   2.382
  244SOL     OW  100   1.293   1.228   3.285
  244SOL    HW1  101   1.330   1.155   3.227
  244SOL    HW2  102   1.345   1.233   3.370
  247SOL     OW  103   1.525   0.999   2.052
  247SOL    HW1  104   1.462   0.923   2.065
  247SOL    HW2  105   1.573   1.017   2.138
  248SOL     OW  106   1.187   1.792   3.478
  248SOL    HW1  107   1.211   1.852   3.402
  248SOL    HW2  108   1.194   1.697   3.448
  250SOL     OW  109   1.466   1.417   2.815
  250SOL    HW1  110   1.407   1.423   2.895
  250SOL    HW2  111   1.451   1.329   2.769
  251SOL     OW  112   1.667   1.714   2.434
  251SOL    HW1  113   1.626   1.691   2.346
  251SOL    HW2  114   1.649   1.640   2.499
  254SOL     OW  115   1.576   1.662   2.169
  254SOL    HW1  116   1.665   1.708   2.172
  254SOL    HW2  117   1.555   1.638   2.074
  264SOL     OW  118   1.362   1.144   2.407
  264SOL    HW1  119   1.445   1.115   2.359
  264SOL    HW2  120   1.313   1.211   2.351
  266SOL     OW  121   1.008   1.456   2.339
  266SOL    HW1  122   0.962   1.528   2.287
  266SOL    HW2  123   1.004   1.476   2.437
  268SOL     OW  124   1.795   1.066   2.735
  268SOL    HW1  125   1.733   1.051   2.659
  268SOL    HW2  126   1.743   1.077   2.820
  269SOL     OW  127   1.227   1.550   3.368
  269SOL    HW1  128   1.233   1.473   3.432
  269SOL    HW2  129   1.175   1.524   3.288
  273SOL     OW  130   1.111   1.776   2.099
  273SOL    HW1  131   1.051   1.714   2.149
  273SOL    HW2  132   1.142   1.732   2.014
  275SOL     OW  133   1.632   1.377   1.943
  275SOL    HW1  134   1.600   1.471   1.933
  275SOL    HW2  135   1.556   1.314   1.931
  279SOL     OW  136   0.940   1.698   2.766
  279SOL    HW1  137   1.020   1.641   2.787
  279SOL    HW2  138   0.891   1.658   2.689
  289SOL     OW  139   1.434   1.188   1.903
  289SOL    HW1  140   1.466   1.112   1.960
  289SOL    HW2  141   1.342   1.215   1.933
  293SOL     OW  142   1.227   1.570   2.655
  293SOL    HW1  143   1.248   1.644   2.590
  293SOL    HW2  144   1.295   1.570   2.728
  295SOL     OW  145   1.271   1.797   2.453
  295SOL    HW1  146   1.315   1.861   2.389
  295SOL    HW2  147   1.221   1.849   2.523
  301SOL     OW  148   1.429   1.173   2.729
  301SOL    HW1  149   1.374   1.089   2.722
  301SOL    HW2  150   1.455   1.202   2.637
  303SOL     OW  151   1.857   0.833   2.239
  303SOL    HW1  152   1.899   0.769   2.303
  303SOL    HW2  153   1.819   0.782   2.161
  305SOL     OW  154   1.664   1.280   2.519
  305SOL    HW1  155   1.763   1.288   2.533
  305SOL    HW2  156   1.619   1.364   2.550
  308SOL     OW  157   1.754   1.223   3.450
  308SOL    HW1  158   1.845   1.184   3.437
  308SOL    HW2  159   1.762   1.319   3.474
  310SOL     OW  160   1.592   1.629   3.487
  310SOL    HW1  161   1.619   1.663   3.397
  310SOL    HW2  162   1.671   1.591   3.533
  311SOL     OW  163   1.111   1.195   2.962
  311SOL    HW1  164   1.071   1.239   3.043
  311SOL    HW2  165   1.070   1.232   2.879
  312SOL     OW  166   1.638   1.099   2.941
  312SOL    HW1  167   1.643   1.180   3.000
  312SOL    HW2  168   1.552   1.101   2.890
  321SOL     OW  169   1.252   1.348   2.250
  321SOL    HW1  170   1.302   1.425   2.290
  321SOL    HW2  171   1.157   1.350   2.282
  322SOL     OW  172   1.272   1.445   3.004
  322SOL    HW1  173   1.319   1.458   3.091
  322SOL    HW2  174   1.206   1.371   3.013
  340SOL     OW  175   1.859   1.518   3.467
  340SOL    HW1  176   1.873   1.545   3.372
  340SOL    HW2  177   1.942   1.540   3.520
  344SOL     OW  178   1.068   1.333   2.711
  344SOL    HW1  179   1.075   1.249   2.656
  344SOL    HW2  180   1.130   1.402   2.675
  363SOL     OW  181   1.347   1.059   3.096
  363SOL    HW1  182   1.371   0.996   3.022
  363SOL    HW2  183   1.257   1.099   3.078
  365SOL     OW  184   1.759   1.747   3.016
  365SOL    HW1  185   1.820   1.777   2.943
  365SOL    HW2  186   1.721   1.658   2.994
  366SOL     OW  187   1.252   1.731   2.990
  366SOL    HW1  188   1.336   1.736   2.936
  366SOL    HW2  189   1.229   1.635   3.008
  370SOL     OW  190   1.388   1.573   2.339
  370SOL    HW1  191   1.455   1.585   2.265
  370SOL    HW2  192   1.348   1.662   2.362
  372SOL     OW  193   1.280   0.927   2.534
  372SOL    HW1  194   1.340   0.846   2.536
  372SOL    HW2  195   1.320   0.996   2.474
  375SOL     OW  196   1.650   1.720   3.256
  375SOL    HW1  197   1.703   1.730   3.172
  375SOL    HW2  198   1.623   1.810   3.290
  378SOL     OW  199   1.194   1.612   1.893
  378SOL    HW1  200   1.200   1.519   1.930
  378SOL    HW2  201   1.135   1.612   1.813
  381SOL     OW  202   1.504   1.607   1.906
  381SOL    HW1  203   1.412   1.644   1.913
  381SOL    HW2  204   1.542   1.627   1.816
  383SOL     OW  205   1.614   1.292   3.151
  383SOL    HW1  206   1.674   1.295   3.231
  383SOL    HW2  207   1.539   1.356   3.164
  394SOL     OW  208   1.183   1.335   1.981
  394SOL    HW1  209   1.084   1.324   1.983
  394SOL    HW2  210   1.217   1.350   2.074
  396SOL     OW  211   1.493   1.767   2.821
  396SOL    HW1  212   1.526   1.831   2.752
  396SOL    HW2  213   1.559   1.761   2.896
  400SOL     OW  214   1.674   0.883   3.116
  400SOL    HW1  215   1.647   0.794   3.079
  400SOL    HW2  216   1.675   0.951   3.043
  409SOL     OW  217   1.861   1.569   2.713
  409SOL    HW1  218   1.790   1.557   2.643
  409SOL    HW2  219   1.862   1.490   2.773
  415SOL     OW  220   1.705   1.487   2.966
  415SOL    HW1  221   1.612   1.462   2.939
  415SOL    HW2  222   1.731   1.437   3.048
  417SOL     OW  223   0.812   1.586   2.549
  417SOL    HW1  224   0.844   1.596   2.455
  417SOL    HW2  225   0.733   1.524   2.551
  426SOL     OW  226   0.875   1.646   2.199
  426SOL    HW1  227   0.798   1.611   2.145
  426SOL    HW2  228   0.843   1.717   2.261
  540SOL     OW  229   0.850   2.660   1.823
  540SOL    HW1  230   0.846   2.736   1.888
  540SOL    HW2  231   0.872   2.696   1.732
  544SOL     OW  232   1.460   3.367   1.339
  544SOL    HW1  233   1.484   3.461   1.365
  544SOL    HW2  234   1.444   3.313   1.421
  546SOL     OW  235   1.603   2.309   0.737
  546SOL    HW1  236   1.529   2.355   0.687
  546SOL    HW2  237   1.654   2.377   0.790
  548SOL     OW  238   1.127   3.203   1.690
  548SOL    HW1  239   1.174   3.203   1.778
  548SOL    HW2  240   1.079   3.116   1.679
  553SOL     OW  241   1.594   1.976   1.480
  553SOL    HW1  242   1.576   2.043   1.408
  553SOL    HW2  243   1.591   2.022   1.569
  561SOL     OW  244   1.293   3.090   1.423
  561SOL    HW1  245   1.330   3.017   1.365
  561SOL    HW2  246   1.345   3.095   1.508
  570SOL     OW  247   1.281   2.207   0.944
  570SOL    HW1  248   1.195   2.157   0.931
  570SOL    HW2  249   1.343   2.153   1.000
  572SOL     OW  250   0.807   2.467   1.465
  572SOL    HW1  251   0.760   2.464   1.554
  572SOL    HW2  252   0.756   2.412   1.399
  573SOL     OW  253   1.394   2.331   1.674
  573SOL    HW1  254   1.374   2.374   1.762
  573SOL    HW2  255   1.472   2.269   1.683
  574SOL     OW  256   0.973   2.752   1.572
  574SOL    HW1  257   1.019   2.668   1.543
  574SOL    HW2  258   0.917   2.786   1.497
  575SOL     OW  259   0.991   2.272   1.242
  575SOL    HW1  260   0.914   2.306   1.296
  575SOL    HW2  261   0.957   2.221   1.163
  580SOL     OW  262   1.719   2.447   1.831
  580SOL    HW1  263   1.693   2.536   1.795
  580SOL    HW2  264   1.717   2.379   1.758
  585SOL     OW  265   1.795   2.928   0.873
  585SOL    HW1  266   1.733   2.913   0.797
  585SOL    HW2  267   1.743   2.939   0.958
  586SOL     OW  268   1.227   3.412   1.506
  586SOL    HW1  269   1.233   3.335   1.570
  586SOL    HW2  270   1.175   3.386   1.426
  598SOL     OW  271   1.547   2.084   1.729
  598SOL    HW1  272   1.542   2.121   1.821
  598SOL    HW2  273   1.475   2.015   1.717
  599SOL     OW  274   0.781   2.126   1.749
  599SOL    HW1  275   0.848   2.065   1.792
  599SOL    HW2  276   0.708   2.145   1.814
  601SOL     OW  277   1.351   2.452   1.433
  601SOL    HW1  278   1.379   2.409   1.518
  601SOL    HW2  279   1.376   2.548   1.434
  608SOL     OW  280   1.076   2.545   1.464
  608SOL    HW1  281   0.996   2.484   1.467
  608SOL    HW2  282   1.157   2.492   1.440
  618SOL     OW  283   1.466   2.452   0.992
  618SOL    HW1  284   1.436   2.357   0.999
  618SOL    HW2  285   1.539   2.468   1.058
  624SOL     OW  286   1.754   3.085   1.588
  624SOL    HW1  287   1.845   3.046   1.575
  624SOL    HW2  288   1.762   3.181   1.612
  626SOL     OW  289   1.592   3.491   1.625
  626SOL    HW1  290   1.619   3.525   1.535
  626SOL    HW2  291   1.671   3.453   1.671
  628SOL     OW  292   1.638   2.961   1.079
  628SOL    HW1  293   1.643   3.042   1.138
  628SOL    HW2  294   1.552   2.963   1.028
  629SOL     OW  295   0.915   1.951   1.402
  629SOL    HW1  296   0.940   1.931   1.307
  629SOL    HW2  297   0.987   2.007   1.444
  630SOL     OW  298   0.980   2.978   1.719
  630SOL    HW1  299   0.881   2.984   1.729
  630SOL    HW2  300   1.003   2.898   1.663
  633SOL     OW  301   1.274   2.248   1.262
  633SOL    HW1  302   1.295   2.322   1.326
  633SOL    HW2  303   1.185   2.265   1.219
  642SOL     OW  304   1.587   2.641   1.670
  642SOL    HW1  305   1.495   2.679   1.665
  642SOL    HW2  306   1.647   2.688   1.605
  643SOL     OW  307   1.013   1.967   1.770
  643SOL    HW1  308   1.019   2.052   1.718
  643SOL    HW2  309   1.045   1.891   1.713
  646SOL     OW  310   1.360   2.724   1.045
  646SOL    HW1  311   1.285   2.724   0.979
  646SOL    HW2  312   1.397   2.632   1.054
  651SOL     OW  313   1.728   2.797   1.854
  651SOL    HW1  314   1.682   2.790   1.765
  651SOL    HW2  315   1.666   2.841   1.920
  656SOL     OW  316   1.859   3.380   1.605
  656SOL    HW1  317   1.873   3.407   1.510
  656SOL    HW2  318   1.942   3.402   1.658
  663SOL     OW  319   1.138   2.242   1.678
  663SOL    HW1  320   1.093   2.305   1.742
  663SOL    HW2  321   1.231   2.273   1.661
  664SOL     OW  322   1.160   2.069   1.477
  664SOL    HW1  323   1.160   2.133   1.554
  664SOL    HW2  324   1.188   2.117   1.394
  668SOL     OW  325   1.002   2.658   1.238
  668SOL    HW1  326   1.043   2.626   1.324
  668SOL    HW2  327   0.906   2.631   1.235
  671SOL     OW  328   1.369   2.812   1.660
  671SOL    HW1  329   1.408   2.901   1.680
  671SOL    HW2  330   1.379   2.792   1.563
  673SOL     OW  331   1.657   2.466   1.206
  673SOL    HW1  332   1.619   2.397   1.268
  673SOL    HW2  333   1.739   2.430   1.162
  679SOL     OW  334   1.347   2.921   1.234
  679SOL    HW1  335   1.371   2.858   1.160
  679SOL    HW2  336   1.257   2.961   1.216
  692SOL     OW  337   1.650   3.582   1.394
  692SOL    HW1  338   1.703   3.592   1.310
  692SOL    HW2  339   1.623   3.672   1.428
  693SOL     OW  340   1.841   2.037   0.963
  693SOL    HW1  341   1.880   1.952   0.927
  693SOL    HW2  342   1.743   2.039   0.944
  700SOL     OW  343   1.614   3.154   1.289
  700SOL    HW1  344   1.674   3.157   1.369
  700SOL    HW2  345   1.539   3.218   1.302
  704SOL     OW  346   1.709   2.247   1.381
  704SOL    HW1  347   1.782   2.316   1.385
  704SOL    HW2  348   1.737   2.172   1.322
  709SOL     OW  349   1.440   2.718   1.398
  709SOL    HW1  350   1.383   2.770   1.335
  709SOL    HW2  351   1.536   2.730   1.374
  714SOL     OW  352   0.716   2.427   1.708
  714SOL    HW1  353   0.735   2.492   1.782
  714SOL    HW2  354   0.776   2.347   1.717
  715SOL     OW  355   1.450   3.082   1.633
  715SOL    HW1  356   1.441   3.072   1.732
  715SOL    HW2  357   1.546   3.075   1.607
  717SOL     OW  358   1.674   2.745   1.254
  717SOL    HW1  359   1.647   2.656   1.217
  717SOL    HW2  360   1.675   2.813   1.181
  720SOL     OW  361   1.777   2.204   1.642
  720SOL    HW1  362   1.760   2.235   1.548
  720SOL    HW2  363   1.693   2.167   1.680
  721SOL     OW  364   1.730   2.796   1.517
  721SOL    HW1  365   1.768   2.887   1.532
  721SOL    HW2  366   1.722   2.779   1.418
  730SOL     OW  367   1.824   2.054   1.227
  730SOL    HW1  368   1.820   1.964   1.271
  730SOL    HW2  369   1.827   2.043   1.128
  732SOL     OW  370   1.705   3.349   1.104
  732SOL    HW1  371   1.612   3.324   1.077
  732SOL    HW2  372   1.731   3.299   1.186
  735SOL     OW  373   1.424   2.076   1.112
  735SOL    HW1  374   1.476   2.011   1.167
  735SOL    HW2  375   1.375   2.139   1.173
  741SOL     OW  376   1.593   2.083   0.882
  741SOL    HW1  377   1.509   2.082   0.936
  741SOL    HW2  378   1.595   2.166   0.826
  748SOL     OW  379   1.555   3.373   2.565
  748SOL    HW1  380   1.498   3.357   2.646
  748SOL    HW2  381   1.496   3.383   2.485
  749SOL     OW  382   1.135   2.565   2.579
  749SOL    HW1  383   1.192   2.643   2.554
  749SOL    HW2  384   1.075   2.591   2.655
  750SOL     OW  385   1.755   2.469   2.093
  750SOL    HW1  386   1.743   2.456   1.994
  750SOL    HW2  387   1.725   2.388   2.142
  751SOL     OW  388   0.768   3.006   2.885
  751SOL    HW1  389   0.690   3.023   2.945
  751SOL    HW2  390   0.802   3.093   2.849
  753SOL     OW  391   0.685   2.874   2.527
  753SOL    HW1  392   0.754   2.858   2.597
  753SOL    HW2  393   0.612   2.931   2.565
  756SOL     OW  394   1.460   3.367   3.201
  756SOL    HW1  395   1.484   3.461   3.227
  756SOL    HW2  396   1.444   3.313   3.283
  758SOL     OW  397   1.603   2.309   2.599
  758SOL    HW1  398   1.529   2.355   2.549
  758SOL    HW2  399   1.654   2.377   2.652
  765SOL     OW  400   1.594   1.976   3.342
  765SOL    HW1  401   1.576   2.043   3.270
  765SOL    HW2  402   1.591   2.022   3.431
  767SOL     OW  403   1.842   3.629   2.221
  767SOL    HW1  404   1.896   3.600   2.301
  767SOL    HW2  405   1.872   3.719   2.192
  769SOL     OW  406   1.689   2.784   2.474
  769SOL    HW1  407   1.784   2.755   2.482
  769SOL    HW2  408   1.681   2.849   2.399
  770SOL     OW  409   1.641   2.970   2.294
  770SOL    HW1  410   1.727   2.972   2.242
  770SOL    HW2  411   1.655   3.017   2.382
  773SOL     OW  412   1.293   3.090   3.285
  773SOL    HW1  413   1.330   3.017   3.227
  773SOL    HW2  414   1.345   3.095   3.370
  774SOL     OW  415   0.809   1.866   2.364
  774SOL    HW1  416   0.849   1.957   2.355
  774SOL    HW2  417   0.709   1.874   2.370
  776SOL     OW  418   1.525   2.861   2.052
  776SOL    HW1  419   1.462   2.785   2.065
  776SOL    HW2  420   1.573   2.879   2.138
  779SOL     OW  421   1.466   3.279   2.815
  779SOL    HW1  422   1.407   3.285   2.895
  779SOL    HW2  423   1.451   3.191   2.769
  780SOL     OW  424   1.667   3.576   2.434
  780SOL    HW1  425   1.626   3.553   2.346
  780SOL    HW2  426   1.649   3.502   2.499
  781SOL     OW  427   0.598   2.591   2.132
  781SOL    HW1  428   0.622   2.660   2.064
  781SOL    HW2  429   0.520   2.624   2.186
  782SOL     OW  430   1.281   2.207   2.806
  782SOL    HW1  431   1.195   2.157   2.793
  782SOL    HW2  432   1.343   2.153   2.862
  783SOL     OW  433   1.576   3.524   2.169
  783SOL    HW1  434   1.665   3.570   2.172
  783SOL    HW2  435   1.555   3.500   2.074
  785SOL     OW  436   1.394   2.331   3.536
  785SOL    HW1  437   1.374   2.374   3.624
  785SOL    HW2  438   1.472   2.269   3.545
  786SOL     OW  439   0.973   2.752   3.434
  786SOL    HW1  440   1.019   2.668   3.405
  786SOL    HW2  441   0.917   2.786   3.359
  787SOL     OW  442   0.991   2.272   3.104
  787SOL    HW1  443   0.914   2.306   3.158
  787SOL    HW2  444   0.957   2.221   3.025
  788SOL     OW  445   1.041   2.563   2.291
  788SOL    HW1  446   1.067   2.559   2.387
  788SOL    HW2  447   0.956   2.512   2.277
  791SOL     OW  448   0.865   2.210   2.057
  791SOL    HW1  449   0.924   2.273   2.008
  791SOL    HW2  450   0.884   2.116   2.028
  792SOL     OW  451   1.719   2.447   3.693
  792SOL    HW1  452   1.693   2.536   3.657
  792SOL    HW2  453   1.717   2.379   3.620
  793SOL     OW  454   1.362   3.006   2.407
  793SOL    HW1  455   1.445   2.977   2.359
  793SOL    HW2  456   1.313   3.073   2.351
  795SOL     OW  457   1.008   3.318   2.339
  795SOL    HW1  458   0.962   3.390   2.287
  795SOL    HW2  459   1.004   3.338   2.437
  797SOL     OW  460   1.795   2.928   2.735
  797SOL    HW1  461   1.733   2.913   2.659
  797SOL    HW2  462   1.743   2.939   2.820
  800SOL     OW  463   1.458   2.597   2.590
  800SOL    HW1  464   1.453   2.532   2.665
  800SOL    HW2  465   1.538   2.656   2.603
  804SOL     OW  466   1.632   3.239   1.943
  804SOL    HW1  467   1.600   3.333   1.933
  804SOL    HW2  468   1.556   3.176   1.931
  806SOL     OW  469   1.400   1.969   2.288
  806SOL    HW1  470   1.376   1.932   2.198
  806SOL    HW2  471   1.499   1.985   2.292
  810SOL     OW  472   1.547   2.084   3.591
  810SOL    HW1  473   1.542   2.121   3.683
  810SOL    HW2  474   1.475   2.015   3.579
  814SOL     OW  475   1.351   2.452   3.295
  814SOL    HW1  476   1.379   2.409   3.380
  814SOL    HW2  477   1.376   2.548   3.296
  816SOL     OW  478   0.922   2.365   2.761
  816SOL    HW1  479   0.897   2.356   2.665
  816SOL    HW2  480   0.970   2.283   2.792
  818SOL     OW  481   1.434   3.050   1.903
  818SOL    HW1  482   1.466   2.974   1.960
  818SOL    HW2  483   1.342   3.077   1.933
  820SOL     OW  484   0.935   2.098   2.342
  820SOL    HW1  485   0.887   2.139   2.264
  820SOL    HW2  486   1.034   2.096   2.323
  821SOL     OW  487   1.076   2.545   3.326
  821SOL    HW1  488   0.996   2.484   3.329
  821SOL    HW2  489   1.157   2.492   3.302
  822SOL     OW  490   1.227   3.432   2.655
  822SOL    HW1  491   1.248   3.506   2.590
  822SOL    HW2  492   1.295   3.432   2.728
  824SOL     OW  493   1.271   3.659   2.453
  824SOL    HW1  494   1.315   3.723   2.389
  824SOL    HW2  495   1.221   3.711   2.523
  825SOL     OW  496   1.032   2.411   1.878
  825SOL    HW1  497   0.991   2.493   1.839
  825SOL    HW2  498   1.096   2.437   1.951
  828SOL     OW  499   0.866   2.316   2.504
  828SOL    HW1  500   0.834   2.388   2.442
  828SOL    HW2  501   0.890   2.235   2.451
  829SOL     OW  502   1.017   1.901   2.615
  829SOL    HW1  503   0.945   1.906   2.546
  829SOL    HW2  504   0.993   1.832   2.684
  830SOL     OW  505   1.429   3.035   2.729
  830SOL    HW1  506   1.374   2.951   2.722
  830SOL    HW2  507   1.455   3.064   2.637
  831SOL     OW  508   1.466   2.452   2.854
  831SOL    HW1  509   1.436   2.357   2.861
  831SOL    HW2  510   1.539   2.468   2.920
  832SOL     OW  511   1.857   2.695   2.239
  832SOL    HW1  512   1.899   2.631   2.303
  832SOL    HW2  513   1.819   2.644   2.161
  834SOL     OW  514   1.664   3.142   2.519
  834SOL    HW1  515   1.763   3.150   2.533
  834SOL    HW2  516   1.619   3.226   2.550
  835SOL     OW  517   1.390   2.437   1.940
  835SOL    HW1  518   1.336   2.416   2.021
  835SOL    HW2  519   1.481   2.396   1.949
  837SOL     OW  520   1.754   3.085   3.450
  837SOL    HW1  521   1.845   3.046   3.437
  837SOL    HW2  522   1.762   3.181   3.474
  838SOL     OW  523   1.064   3.209   3.202
  838SOL    HW1  524   0.984   3.186   3.257
  838SOL    HW2  525   1.147   3.183   3.251
  839SOL     OW  526   1.592   3.491   3.487
  839SOL    HW1  527   1.619   3.525   3.397
  839SOL    HW2  528   1.671   3.453   3.533
  840SOL     OW  529   1.111   3.057   2.962
  840SOL    HW1  530   1.071   3.101   3.043
  840SOL    HW2  531   1.070   3.094   2.879
  841SOL     OW  532   1.638   2.961   2.941
  841SOL    HW1  533   1.643   3.042   3.000
  841SOL    HW2  534   1.552   2.963   2.890
  842SOL     OW  535   0.915   1.951   3.264
  842SOL    HW1  536   0.940   1.931   3.169
  842SOL    HW2  537   0.987   2.007   3.306
  844SOL     OW  538   0.705   2.912   2.230
  844SOL    HW1  539   0.691   2.919   2.329
  844SOL    HW2  540   0.789   2.861   2.212
  846SOL     OW  541   1.274   2.248   3.124
  846SOL    HW1  542   1.295   2.322   3.188
  846SOL    HW2  543   1.185   2.265   3.081
  850SOL     OW  544   1.252   3.210   2.250
  850SOL    HW1  545   1.302   3.287   2.290
  850SOL    HW2  546   1.157   3.212   2.282
  851SOL     OW  547   1.272   3.307   3.004
  851SOL    HW1  548   1.319   3.320   3.091
  851SOL    HW2  549   1.206   3.233   3.013
  852SOL     OW  550   1.582   2.501   2.334
  852SOL    HW1  551   1.551   2.562   2.407
  852SOL    HW2  552   1.632   2.553   2.265
  855SOL     OW  553   1.587   2.641   3.532
  855SOL    HW1  554   1.495   2.679   3.527
  855SOL    HW2  555   1.647   2.688   3.467
  859SOL     OW  556   1.360   2.724   2.907
  859SOL    HW1  557   1.285   2.724   2.841
  859SOL    HW2  558   1.397   2.632   2.916
  860SOL     OW  559   1.209   2.387   2.137
  860SOL    HW1  560   1.222   2.303   2.191
  860SOL    HW2  561   1.180   2.461   2.197
  863SOL     OW  562   0.732   2.496   2.926
  863SOL    HW1  563   0.791   2.470   2.850
  863SOL    HW2  564   0.704   2.592   2.915
  864SOL     OW  565   1.728   2.797   3.716
  864SOL    HW1  566   1.682   2.790   3.627
  864SOL    HW2  567   1.666   2.841   3.782
  866SOL     OW  568   1.622   2.229   2.236
  866SOL    HW1  569   1.624   2.153   2.300
  866SOL    HW2  570   1.574   2.306   2.276
  867SOL     OW  571   1.023   2.628   2.828
  867SOL    HW1  572   1.038   2.649   2.924
  867SOL    HW2  573   0.993   2.533   2.819
  869SOL     OW  574   1.859   3.380   3.467
  869SOL    HW1  575   1.873   3.407   3.372
  869SOL    HW2  576   1.942   3.402   3.520
  871SOL     OW  577   1.540   2.136   1.987
  871SOL    HW1  578   1.479   2.061   2.010
  871SOL    HW2  579   1.562   2.188   2.070
  872SOL     OW  580   1.303   2.700   1.904
  872SOL    HW1  581   1.337   2.607   1.919
  872SOL    HW2  582   1.321   2.727   1.809
  873SOL     OW  583   1.068   3.195   2.711
  873SOL    HW1  584   1.075   3.111   2.656
  873SOL    HW2  585   1.130   3.264   2.675
  876SOL     OW  586   1.138   2.242   3.540
  876SOL    HW1  587   1.093   2.305   3.604
  876SOL    HW2  588   1.231   2.273   3.523
  877SOL     OW  589   1.160   2.069   3.339
  877SOL    HW1  590   1.160   2.133   3.416
  877SOL    HW2  591   1.188   2.117   3.256
  881SOL     OW  592   1.002   2.658   3.100
  881SOL    HW1  593   1.043   2.626   3.186
  881SOL    HW2  594   0.906   2.631   3.097
  884SOL     OW  595   1.369   2.812   3.522
  884SOL    HW1  596   1.408   2.901   3.542
  884SOL    HW2  597   1.379   2.792   3.425
  885SOL     OW  598   0.815   2.434   2.187
  885SOL    HW1  599   0.822   2.345   2.141
  885SOL    HW2  600   0.721   2.468   2.179
  886SOL     OW  601   1.657   2.466   3.068
  886SOL    HW1  602   1.619   2.397   3.130
  886SOL    HW2  603   1.739   2.430   3.024
  892SOL     OW  604   1.347   2.921   3.096
  892SOL    HW1  605   1.371   2.858   3.022
  892SOL    HW2  606   1.257   2.961   3.078
  893SOL     OW  607   1.302   2.717   2.171
  893SOL    HW1  608   1.216   2.686   2.213
  893SOL    HW2  609   1.298   2.703   2.072
  894SOL     OW  610   1.759   3.609   3.016
  894SOL    HW1  611   1.820   3.639   2.943
  894SOL    HW2  612   1.721   3.520   2.994
  895SOL     OW  613   1.252   3.593   2.990
  895SOL    HW1  614   1.336   3.598   2.936
  895SOL    HW2  615   1.229   3.497   3.008
  898SOL     OW  616   1.726   1.997   2.385
  898SOL    HW1  617   1.799   1.980   2.318
  898SOL    HW2  618   1.695   1.910   2.423
  899SOL     OW  619   1.388   3.435   2.339
  899SOL    HW1  620   1.455   3.447   2.265
  899SOL    HW2  621   1.348   3.524   2.362
  901SOL     OW  622   1.280   2.789   2.534
  901SOL    HW1  623   1.340   2.708   2.536
  901SOL    HW2  624   1.320   2.858   2.474
  904SOL     OW  625   1.650   3.582   3.256
  904SOL    HW1  626   1.703   3.592   3.172
  904SOL    HW2  627   1.623   3.672   3.290
  905SOL     OW  628   1.841   2.037   2.825
  905SOL    HW1  629   1.880   1.952   2.789
  905SOL    HW2  630   1.743   2.039   2.806
  907SOL     OW  631   1.194   3.474   1.893
  907SOL    HW1  632   1.200   3.381   1.930
  907SOL    HW2  633   1.135   3.474   1.813
  909SOL     OW  634   0.916   2.772   2.153
  909SOL    HW1  635   0.979   2.810   2.085
  909SOL    HW2  636   0.956   2.689   2.192
  910SOL     OW  637   1.504   3.469   1.906
  910SOL    HW1  638   1.412   3.506   1.913
  910SOL    HW2  639   1.542   3.489   1.816
  912SOL     OW  640   1.614   3.154   3.151
  912SOL    HW1  641   1.674   3.157   3.231
  912SOL    HW2  642   1.539   3.218   3.164
  913SOL     OW  643   1.039   2.960   2.558
  913SOL    HW1  644   0.969   2.913   2.612
  913SOL    HW2  645   1.098   2.892   2.515
  914SOL     OW  646   1.014   2.098   2.833
  914SOL    HW1  647   1.006   2.062   2.740
  914SOL    HW2  648   1.012   2.022   2.898
  916SOL     OW  649   1.709   2.247   3.243
  916SOL    HW1  650   1.782   2.316   3.247
  916SOL    HW2  651   1.737   2.172   3.184
  921SOL     OW  652   1.440   2.718   3.260
  921SOL    HW1  653   1.383   2.770   3.197
  921SOL    HW2  654   1.536   2.730   3.236
  923SOL     OW  655   1.183   3.197   1.981
  923SOL    HW1  656   1.084   3.186   1.983
  923SOL    HW2  657   1.217   3.212   2.074
  925SOL     OW  658   1.493   3.629   2.821
  925SOL    HW1  659   1.526   3.693   2.752
  925SOL    HW2  660   1.559   3.623   2.896
  927SOL     OW  661   1.450   3.082   3.495
  927SOL    HW1  662   1.441   3.072   3.594
  927SOL    HW2  663   1.546   3.075   3.469
  929SOL     OW  664   1.674   2.745   3.116
  929SOL    HW1  665   1.647   2.656   3.079
  929SOL    HW2  666   1.675   2.813   3.043
  930SOL     OW  667   1.225   2.187   2.311
  930SOL    HW1  668   1.290   2.113   2.300
  930SOL    HW2  669   1.245   2.237   2.395
  931SOL     OW  670   0.594   2.607   2.514
  931SOL    HW1  671   0.644   2.692   2.495
  931SOL    HW2  672   0.506   2.609   2.466
  932SOL     OW  673   1.777   2.204   3.504
  932SOL    HW1  674   1.760   2.235   3.410
  932SOL    HW2  675   1.693   2.167   3.542
  933SOL     OW  676   1.730   2.796   3.379
  933SOL    HW1  677   1.768   2.887   3.394
  933SOL    HW2  678   1.722   2.779   3.280
  934SOL     OW  679   0.859   3.236   1.878
  934SOL    HW1  680   0.813   3.251   1.966
  934SOL    HW2  681   0.903   3.321   1.848
  936SOL     OW  682   0.859   2.818   2.723
  936SOL    HW1  683   0.913   2.749   2.771
  936SOL    HW2  684   0.827   2.887   2.789
  937SOL     OW  685   1.083   2.846   1.949
  937SOL    HW1  686   1.060   2.899   1.867
  937SOL    HW2  687   1.164   2.790   1.930
  938SOL     OW  688   1.861   3.431   2.713
  938SOL    HW1  689   1.790   3.419   2.643
  938SOL    HW2  690   1.862   3.352   2.773
  942SOL     OW  691   1.824   2.054   3.089
  942SOL    HW1  692   1.820   1.964   3.133
  942SOL    HW2  693   1.827   2.043   2.990
  944SOL     OW  694   1.705   3.349   2.966
  944SOL    HW1  695   1.612   3.324   2.939
  944SOL    HW2  696   1.731   3.299   3.048
  947SOL     OW  697   1.424   2.076   2.974
  947SOL    HW1  698   1.476   2.011   3.029
  947SOL    HW2  699   1.375   2.139   3.035
  948SOL     OW  700   1.001   1.896   3.016
  948SOL    HW1  701   0.938   1.824   2.985
  948SOL    HW2  702   1.094   1.860   3.016
  949SOL     OW  703   0.770   3.192   2.163
  949SOL    HW1  704   0.724   3.105   2.180
  949SOL    HW2  705   0.861   3.189   2.204
  951SOL     OW  706   1.352   1.914   2.030
  951SOL    HW1  707   1.387   1.873   1.946
  951SOL    HW2  708   1.262   1.876   2.050
  952SOL     OW  709   1.300   2.315   2.553
  952SOL    HW1  710   1.241   2.395   2.557
  952SOL    HW2  711   1.315   2.280   2.646
  953SOL     OW  712   1.593   2.083   2.744
  953SOL    HW1  713   1.509   2.082   2.798
  953SOL    HW2  714   1.595   2.166   2.688
  960SOL     OW  715   1.755   2.469   3.955
  960SOL    HW1  716   1.743   2.456   3.856
  960SOL    HW2  717   1.725   2.388   4.004
 1009SOL     OW  718   1.390   2.437   3.802
 1009SOL    HW1  719   1.336   2.416   3.883
 1009SOL    HW2  720   1.481   2.396   3.811
 1020SOL     OW  721   1.540   2.136   3.849
 1020SOL    HW1  722   1.479   2.061   3.872
 1020SOL    HW2  723   1.562   2.188   3.932
 1021SOL     OW  724   1.303   2.700   3.766
 1021SOL    HW1  725   1.337   2.607   3.781
 1021SOL    HW2  726   1.321   2.727   3.671
 1193SOL     OW  727   1.400   3.831   2.288
 1193SOL    HW1  728   1.376   3.794   2.198
 1193SOL    HW2  729   1.499   3.847   2.292
 1245SOL     OW  730   1.726   3.859   2.385
 1245SOL    HW1  731   1.799   3.842   2.318
 1245SOL    HW2  732   1.695   3.772   2.423
 1247SOL     OW  733   1.841   3.899   2.825
 1247SOL    HW1  734   1.880   3.814   2.789
 1247SOL    HW2  735   1.743   3.901   2.806
 1269SOL     OW  736   1.352   3.776   2.030
 1269SOL    HW1  737   1.387   3.735   1.946
 1269SOL    HW2  738   1.262   3.738   2.050
 1329SOL     OW  739   2.431   1.275   1.165
 1329SOL    HW1  740   2.338   1.268   1.128
 1329SOL    HW2  741   2.442   1.364   1.209
 1334SOL     OW  742   2.712   0.798   1.823
 1334SOL    HW1  743   2.708   0.874   1.888
 1334SOL    HW2  744   2.734   0.834   1.732
 1336SOL     OW  745   2.548   1.161   1.803
 1336SOL    HW1  746   2.608   1.240   1.817
 1336SOL    HW2  747   2.462   1.192   1.762
 1337SOL     OW  748   2.197   1.435   1.061
 1337SOL    HW1  749   2.119   1.404   1.008
 1337SOL    HW2  750   2.255   1.493   1.004
 1338SOL     OW  751   3.322   1.505   1.339
 1338SOL    HW1  752   3.346   1.599   1.365
 1338SOL    HW2  753   3.306   1.451   1.421
 1342SOL     OW  754   2.989   1.341   1.690
 1342SOL    HW1  755   3.036   1.341   1.778
 1342SOL    HW2  756   2.941   1.254   1.679
 1345SOL     OW  757   2.482   1.786   1.439
 1345SOL    HW1  758   2.390   1.769   1.474
 1345SOL    HW2  759   2.510   1.878   1.465
 1354SOL     OW  760   3.155   1.228   1.423
 1354SOL    HW1  761   3.192   1.155   1.365
 1354SOL    HW2  762   3.207   1.233   1.508
 1356SOL     OW  763   2.059   0.976   1.264
 1356SOL    HW1  764   2.148   0.931   1.250
 1356SOL    HW2  765   1.986   0.911   1.245
 1358SOL     OW  766   3.049   1.792   1.616
 1358SOL    HW1  767   3.073   1.852   1.540
 1358SOL    HW2  768   3.056   1.697   1.586
 1367SOL     OW  769   2.835   0.890   1.572
 1367SOL    HW1  770   2.881   0.806   1.543
 1367SOL    HW2  771   2.779   0.924   1.497
 1371SOL     OW  772   1.992   1.821   1.571
 1371SOL    HW1  773   1.982   1.806   1.670
 1371SOL    HW2  774   1.906   1.857   1.535
 1377SOL     OW  775   2.213   1.801   0.853
 1377SOL    HW1  776   2.263   1.715   0.859
 1377SOL    HW2  777   2.278   1.878   0.850
 1379SOL     OW  778   3.089   1.550   1.506
 1379SOL    HW1  779   3.095   1.473   1.570
 1379SOL    HW2  780   3.037   1.524   1.426
 1382SOL     OW  781   2.323   1.266   1.727
 1382SOL    HW1  782   2.273   1.267   1.641
 1382SOL    HW2  783   2.260   1.248   1.803
 1388SOL     OW  784   2.111   1.785   1.241
 1388SOL    HW1  785   2.168   1.720   1.291
 1388SOL    HW2  786   2.095   1.752   1.148
 1389SOL     OW  787   2.802   1.698   0.904
 1389SOL    HW1  788   2.882   1.641   0.925
 1389SOL    HW2  789   2.753   1.658   0.827
 1394SOL     OW  790   2.750   1.514   1.195
 1394SOL    HW1  791   2.727   1.489   1.101
 1394SOL    HW2  792   2.811   1.445   1.234
 1396SOL     OW  793   2.665   1.402   0.924
 1396SOL    HW1  794   2.755   1.416   0.882
 1396SOL    HW2  795   2.594   1.404   0.853
 1419SOL     OW  796   2.926   1.347   1.340
 1419SOL    HW1  797   2.846   1.324   1.395
 1419SOL    HW2  798   3.009   1.321   1.389
 1420SOL     OW  799   3.454   1.629   1.625
 1420SOL    HW1  800   3.481   1.663   1.535
 1420SOL    HW2  801   3.533   1.591   1.671
 1424SOL     OW  802   2.842   1.116   1.719
 1424SOL    HW1  803   2.743   1.122   1.729
 1424SOL    HW2  804   2.865   1.036   1.663
 1428SOL     OW  805   1.926   1.564   1.331
 1428SOL    HW1  806   1.880   1.646   1.297
 1428SOL    HW2  807   2.024   1.583   1.340
 1432SOL     OW  808   3.134   1.445   1.142
 1432SOL    HW1  809   3.181   1.458   1.229
 1432SOL    HW2  810   3.068   1.371   1.151
 1434SOL     OW  811   2.216   1.510   1.329
 1434SOL    HW1  812   2.195   1.466   1.242
 1434SOL    HW2  813   2.313   1.536   1.332
 1435SOL     OW  814   2.264   0.751   1.598
 1435SOL    HW1  815   2.332   0.806   1.551
 1435SOL    HW2  816   2.304   0.663   1.625
 1443SOL     OW  817   1.899   1.310   1.282
 1443SOL    HW1  818   1.952   1.261   1.350
 1443SOL    HW2  819   1.921   1.408   1.287
 1449SOL     OW  820   2.842   1.573   1.700
 1449SOL    HW1  821   2.822   1.617   1.612
 1449SOL    HW2  822   2.881   1.482   1.684
 1450SOL     OW  823   3.721   1.518   1.605
 1450SOL    HW1  824   3.735   1.545   1.510
 1450SOL    HW2  825   3.804   1.540   1.658
 1451SOL     OW  826   2.212   0.898   1.804
 1451SOL    HW1  827   2.288   0.942   1.852
 1451SOL    HW2  828   2.247   0.851   1.722
 1460SOL     OW  829   1.950   1.801   0.927
 1460SOL    HW1  830   1.908   1.715   0.900
 1460SOL    HW2  831   2.044   1.804   0.893
 1461SOL     OW  832   2.366   1.568   0.910
 1461SOL    HW1  833   2.432   1.642   0.919
 1461SOL    HW2  834   2.410   1.489   0.868
 1465SOL     OW  835   3.231   0.950   1.660
 1465SOL    HW1  836   3.270   1.039   1.680
 1465SOL    HW2  837   3.241   0.930   1.563
 1468SOL     OW  838   2.114   1.564   1.744
 1468SOL    HW1  839   2.084   1.621   1.820
 1468SOL    HW2  840   2.107   1.467   1.770
 1470SOL     OW  841   2.792   1.678   1.465
 1470SOL    HW1  842   2.768   1.660   1.370
 1470SOL    HW2  843   2.822   1.772   1.475
 1472SOL     OW  844   2.021   1.137   1.466
 1472SOL    HW1  845   2.043   1.076   1.542
 1472SOL    HW2  846   2.031   1.088   1.380
 1476SOL     OW  847   3.114   1.731   1.128
 1476SOL    HW1  848   3.198   1.736   1.074
 1476SOL    HW2  849   3.091   1.635   1.146
 1477SOL     OW  850   1.945   1.258   1.022
 1477SOL    HW1  851   1.940   1.257   1.122
 1477SOL    HW2  852   1.862   1.217   0.984
 1478SOL     OW  853   2.550   1.662   1.716
 1478SOL    HW1  854   2.494   1.743   1.725
 1478SOL    HW2  855   2.602   1.666   1.630
 1482SOL     OW  856   1.992   1.794   1.851
 1482SOL    HW1  857   1.951   1.720   1.904
 1482SOL    HW2  858   2.056   1.845   1.909
 1484SOL     OW  859   2.692   1.273   1.422
 1484SOL    HW1  860   2.687   1.306   1.517
 1484SOL    HW2  861   2.606   1.292   1.376
 1486SOL     OW  862   3.512   1.720   1.394
 1486SOL    HW1  863   3.565   1.730   1.310
 1486SOL    HW2  864   3.485   1.810   1.428
 1490SOL     OW  865   2.684   1.002   1.372
 1490SOL    HW1  866   2.724   1.001   1.280
 1490SOL    HW2  867   2.694   1.094   1.412
 1493SOL     OW  868   2.234   1.288   1.490
 1493SOL    HW1  869   2.221   1.381   1.456
 1493SOL    HW2  870   2.150   1.236   1.477
 1500SOL     OW  871   1.967   1.013   1.726
 1500SOL    HW1  872   1.890   0.980   1.780
 1500SOL    HW2  873   2.052   0.983   1.768
 1504SOL     OW  874   2.475   0.842   1.431
 1504SOL    HW1  875   2.531   0.923   1.414
 1504SOL    HW2  876   2.534   0.762   1.434
 1507SOL     OW  877   3.312   1.220   1.633
 1507SOL    HW1  878   3.303   1.210   1.732
 1507SOL    HW2  879   3.408   1.213   1.607
 1508SOL     OW  880   2.252   1.741   1.560
 1508SOL    HW1  881   2.161   1.782   1.558
 1508SOL    HW2  882   2.245   1.647   1.592
 1515SOL     OW  883   2.523   1.790   0.953
 1515SOL    HW1  884   2.477   1.878   0.940
 1515SOL    HW2  885   2.622   1.802   0.946
 1519SOL     OW  886   2.083   1.314   1.844
 1519SOL    HW1  887   2.018   1.241   1.823
 1519SOL    HW2  888   2.087   1.328   1.942
 1521SOL     OW  889   2.534   1.391   1.624
 1521SOL    HW1  890   2.456   1.341   1.662
 1521SOL    HW2  891   2.531   1.486   1.655
 1530SOL     OW  892   2.480   1.567   1.284
 1530SOL    HW1  893   2.475   1.649   1.341
 1530SOL    HW2  894   2.569   1.564   1.239
 1536SOL     OW  895   2.092   0.628   1.975
 1536SOL    HW1  896   1.999   0.626   2.012
 1536SOL    HW2  897   2.093   0.589   1.883
 1539SOL     OW  898   2.431   1.275   3.027
 1539SOL    HW1  899   2.338   1.268   2.990
 1539SOL    HW2  900   2.442   1.364   3.071
 1540SOL     OW  901   3.417   1.511   2.565
 1540SOL    HW1  902   3.360   1.495   2.646
 1540SOL    HW2  903   3.358   1.521   2.485
 1541SOL     OW  904   2.997   0.703   2.579
 1541SOL    HW1  905   3.054   0.781   2.554
 1541SOL    HW2  906   2.937   0.729   2.655
 1543SOL     OW  907   2.630   1.144   2.885
 1543SOL    HW1  908   2.552   1.161   2.945
 1543SOL    HW2  909   2.664   1.231   2.849
 1545SOL     OW  910   2.547   1.012   2.527
 1545SOL    HW1  911   2.616   0.996   2.597
 1545SOL    HW2  912   2.474   1.069   2.565
 1546SOL     OW  913   2.548   1.161   3.665
 1546SOL    HW1  914   2.608   1.240   3.679
 1546SOL    HW2  915   2.462   1.192   3.624
 1547SOL     OW  916   2.197   1.435   2.923
 1547SOL    HW1  917   2.119   1.404   2.870
 1547SOL    HW2  918   2.255   1.493   2.866
 1548SOL     OW  919   3.322   1.505   3.201
 1548SOL    HW1  920   3.346   1.599   3.227
 1548SOL    HW2  921   3.306   1.451   3.283
 1551SOL     OW  922   2.093   1.713   2.345
 1551SOL    HW1  923   2.127   1.790   2.399
 1551SOL    HW2  924   2.137   1.713   2.255
 1552SOL     OW  925   2.989   1.341   3.552
 1552SOL    HW1  926   3.036   1.341   3.640
 1552SOL    HW2  927   2.941   1.254   3.541
 1553SOL     OW  928   2.092   1.434   2.400
 1553SOL    HW1  929   2.066   1.530   2.400
 1553SOL    HW2  930   2.021   1.380   2.445
 1554SOL     OW  931   2.102   1.091   2.748
 1554SOL    HW1  932   2.116   1.007   2.800
 1554SOL    HW2  933   2.047   1.155   2.803
 1555SOL     OW  934   2.482   1.786   3.301
 1555SOL    HW1  935   2.390   1.769   3.336
 1555SOL    HW2  936   2.510   1.878   3.327
 1556SOL     OW  937   2.468   0.964   1.985
 1556SOL    HW1  938   2.475   1.048   1.931
 1556SOL    HW2  939   2.514   0.977   2.073
 1558SOL     OW  940   1.984   0.643   2.425
 1558SOL    HW1  941   1.939   0.555   2.442
 1558SOL    HW2  942   1.983   0.697   2.509
 1559SOL     OW  943   3.704   1.767   2.221
 1559SOL    HW1  944   3.758   1.738   2.301
 1559SOL    HW2  945   3.734   1.857   2.192
 1560SOL     OW  946   1.889   1.596   1.979
 1560SOL    HW1  947   1.870   1.500   2.000
 1560SOL    HW2  948   1.856   1.654   2.054
 1562SOL     OW  949   3.503   1.108   2.294
 1562SOL    HW1  950   3.589   1.110   2.242
 1562SOL    HW2  951   3.517   1.155   2.382
 1564SOL     OW  952   2.475   1.365   2.588
 1564SOL    HW1  953   2.426   1.278   2.597
 1564SOL    HW2  954   2.452   1.408   2.501
 1565SOL     OW  955   3.155   1.228   3.285
 1565SOL    HW1  956   3.192   1.155   3.227
 1565SOL    HW2  957   3.207   1.233   3.370
 1567SOL     OW  958   2.059   0.976   3.126
 1567SOL    HW1  959   2.148   0.931   3.112
 1567SOL    HW2  960   1.986   0.911   3.107
 1568SOL     OW  961   3.387   0.999   2.052
 1568SOL    HW1  962   3.324   0.923   2.065
 1568SOL    HW2  963   3.435   1.017   2.138
 1569SOL     OW  964   3.049   1.792   3.478
 1569SOL    HW1  965   3.073   1.852   3.402
 1569SOL    HW2  966   3.056   1.697   3.448
 1571SOL     OW  967   3.328   1.417   2.815
 1571SOL    HW1  968   3.269   1.423   2.895
 1571SOL    HW2  969   3.313   1.329   2.769
 1572SOL     OW  970   3.529   1.714   2.434
 1572SOL    HW1  971   3.488   1.691   2.346
 1572SOL    HW2  972   3.511   1.640   2.499
 1573SOL     OW  973   2.460   0.729   2.132
 1573SOL    HW1  974   2.484   0.798   2.064
 1573SOL    HW2  975   2.382   0.762   2.186
 1575SOL     OW  976   3.438   1.662   2.169
 1575SOL    HW1  977   3.527   1.708   2.172
 1575SOL    HW2  978   3.417   1.638   2.074
 1580SOL     OW  979   2.903   0.701   2.291
 1580SOL    HW1  980   2.929   0.697   2.387
 1580SOL    HW2  981   2.818   0.650   2.277
 1581SOL     OW  982   1.938   0.811   2.651
 1581SOL    HW1  983   2.037   0.799   2.660
 1581SOL    HW2  984   1.914   0.906   2.672
 1582SOL     OW  985   1.992   1.821   3.433
 1582SOL    HW1  986   1.982   1.806   3.532
 1582SOL    HW2  987   1.906   1.857   3.397
 1585SOL     OW  988   3.224   1.144   2.407
 1585SOL    HW1  989   3.307   1.115   2.359
 1585SOL    HW2  990   3.175   1.211   2.351
 1587SOL     OW  991   2.870   1.456   2.339
 1587SOL    HW1  992   2.824   1.528   2.287
 1587SOL    HW2  993   2.866   1.476   2.437
 1588SOL     OW  994   2.213   1.801   2.715
 1588SOL    HW1  995   2.263   1.715   2.721
 1588SOL    HW2  996   2.278   1.878   2.712
 1590SOL     OW  997   3.089   1.550   3.368
 1590SOL    HW1  998   3.095   1.473   3.432
 1590SOL    HW2  999   3.037   1.524   3.288
 1591SOL     OW 1000   2.183   0.943   2.104
 1591SOL    HW1 1001   2.265   0.982   2.062
 1591SOL    HW2 1002   2.156   0.861   2.055
 1593SOL     OW 1003   2.323   1.266   3.589
 1593SOL    HW1 1004   2.273   1.267   3.503
 1593SOL    HW2 1005   2.260   1.248   3.665
 1594SOL     OW 1006   2.973   1.776   2.099
 1594SOL    HW1 1007   2.913   1.714   2.149
 1594SOL    HW2 1008   3.004   1.732   2.014
 1596SOL     OW 1009   3.494   1.377   1.943
 1596SOL    HW1 1010   3.462   1.471   1.933
 1596SOL    HW2 1011   3.418   1.314   1.931
 1597SOL     OW 1012   2.326   1.743   2.185
 1597SOL    HW1 1013   2.359   1.782   2.271
 1597SOL    HW2 1014   2.402   1.736   2.120
 1599SOL     OW 1015   2.111   1.785   3.103
 1599SOL    HW1 1016   2.168   1.720   3.153
 1599SOL    HW2 1017   2.095   1.752   3.010
 1600SOL     OW 1018   2.802   1.698   2.766
 1600SOL    HW1 1019   2.882   1.641   2.787
 1600SOL    HW2 1020   2.753   1.658   2.689
 1601SOL     OW 1021   2.244   0.700   2.342
 1601SOL    HW1 1022   2.289   0.610   2.339
 1601SOL    HW2 1023   2.150   0.689   2.375
 1605SOL     OW 1024   2.750   1.514   3.057
 1605SOL    HW1 1025   2.727   1.489   2.963
 1605SOL    HW2 1026   2.811   1.445   3.096
 1607SOL     OW 1027   2.665   1.402   2.786
 1607SOL    HW1 1028   2.755   1.416   2.744
 1607SOL    HW2 1029   2.594   1.404   2.715
 1610SOL     OW 1030   3.296   1.188   1.903
 1610SOL    HW1 1031   3.328   1.112   1.960
 1610SOL    HW2 1032   3.204   1.215   1.933
 1614SOL     OW 1033   3.089   1.570   2.655
 1614SOL    HW1 1034   3.110   1.644   2.590
 1614SOL    HW2 1035   3.157   1.570   2.728
 1615SOL     OW 1036   2.321   1.152   2.603
 1615SOL    HW1 1037   2.250   1.125   2.668
 1615SOL    HW2 1038   2.295   1.124   2.510
 1616SOL     OW 1039   3.133   1.797   2.453
 1616SOL    HW1 1040   3.177   1.861   2.389
 1616SOL    HW2 1041   3.083   1.849   2.523
 1622SOL     OW 1042   3.291   1.173   2.729
 1622SOL    HW1 1043   3.236   1.089   2.722
 1622SOL    HW2 1044   3.317   1.202   2.637
 1625SOL     OW 1045   2.350   1.385   2.036
 1625SOL    HW1 1046   2.263   1.370   2.083
 1625SOL    HW2 1047   2.333   1.411   1.941
 1626SOL     OW 1048   3.526   1.280   2.519
 1626SOL    HW1 1049   3.625   1.288   2.533
 1626SOL    HW2 1050   3.481   1.364   2.550
 1630SOL     OW 1051   2.926   1.347   3.202
 1630SOL    HW1 1052   2.846   1.324   3.257
 1630SOL    HW2 1053   3.009   1.321   3.251
 1631SOL     OW 1054   3.454   1.629   3.487
 1631SOL    HW1 1055   3.481   1.663   3.397
 1631SOL    HW2 1056   3.533   1.591   3.533
 1632SOL     OW 1057   2.973   1.195   2.962
 1632SOL    HW1 1058   2.933   1.239   3.043
 1632SOL    HW2 1059   2.932   1.232   2.879
 1636SOL     OW 1060   2.567   1.050   2.230
 1636SOL    HW1 1061   2.553   1.057   2.329
 1636SOL    HW2 1062   2.651   0.999   2.212
 1637SOL     OW 1063   2.272   0.813   3.113
 1637SOL    HW1 1064   2.358   0.825   3.163
 1637SOL    HW2 1065   2.230   0.726   3.140
 1639SOL     OW 1066   1.926   1.564   3.193
 1639SOL    HW1 1067   1.880   1.646   3.159
 1639SOL    HW2 1068   2.024   1.583   3.202
 1640SOL     OW 1069   2.229   1.100   2.363
 1640SOL    HW1 1070   2.222   1.183   2.307
 1640SOL    HW2 1071   2.233   1.020   2.303
 1642SOL     OW 1072   3.114   1.348   2.250
 1642SOL    HW1 1073   3.164   1.425   2.290
 1642SOL    HW2 1074   3.019   1.350   2.282
 1643SOL     OW 1075   3.134   1.445   3.004
 1643SOL    HW1 1076   3.181   1.458   3.091
 1643SOL    HW2 1077   3.068   1.371   3.013
 1645SOL     OW 1078   2.216   1.510   3.191
 1645SOL    HW1 1079   2.195   1.466   3.104
 1645SOL    HW2 1080   2.313   1.536   3.194
 1650SOL     OW 1081   2.435   0.870   2.891
 1650SOL    HW1 1082   2.479   0.959   2.882
 1650SOL    HW2 1083   2.372   0.870   2.968
 1654SOL     OW 1084   1.899   1.310   3.144
 1654SOL    HW1 1085   1.952   1.261   3.212
 1654SOL    HW2 1086   1.921   1.408   3.149
 1659SOL     OW 1087   2.885   0.766   2.828
 1659SOL    HW1 1088   2.900   0.787   2.924
 1659SOL    HW2 1089   2.855   0.671   2.819
 1660SOL     OW 1090   2.842   1.573   3.562
 1660SOL    HW1 1091   2.822   1.617   3.474
 1660SOL    HW2 1092   2.881   1.482   3.546
 1664SOL     OW 1093   3.165   0.838   1.904
 1664SOL    HW1 1094   3.199   0.745   1.919
 1664SOL    HW2 1095   3.183   0.865   1.809
 1665SOL     OW 1096   2.930   1.333   2.711
 1665SOL    HW1 1097   2.937   1.249   2.656
 1665SOL    HW2 1098   2.992   1.402   2.675
 1666SOL     OW 1099   2.181   0.810   2.811
 1666SOL    HW1 1100   2.274   0.846   2.816
 1666SOL    HW2 1101   2.175   0.725   2.863
 1670SOL     OW 1102   1.870   1.326   2.062
 1670SOL    HW1 1103   1.777   1.347   2.031
 1670SOL    HW2 1104   1.880   1.227   2.075
 1671SOL     OW 1105   1.950   1.801   2.789
 1671SOL    HW1 1106   1.908   1.715   2.762
 1671SOL    HW2 1107   2.044   1.804   2.755
 1672SOL     OW 1108   2.366   1.568   2.772
 1672SOL    HW1 1109   2.432   1.642   2.781
 1672SOL    HW2 1110   2.410   1.489   2.730
 1673SOL     OW 1111   2.864   0.796   3.100
 1673SOL    HW1 1112   2.905   0.764   3.186
 1673SOL    HW2 1113   2.768   0.769   3.097
 1679SOL     OW 1114   2.114   1.564   3.606
 1679SOL    HW1 1115   2.084   1.621   3.682
 1679SOL    HW2 1116   2.107   1.467   3.632
 1681SOL     OW 1117   2.792   1.678   3.327
 1681SOL    HW1 1118   2.768   1.660   3.232
 1681SOL    HW2 1119   2.822   1.772   3.337
 1683SOL     OW 1120   2.021   1.137   3.328
 1683SOL    HW1 1121   2.043   1.076   3.404
 1683SOL    HW2 1122   2.031   1.088   3.242
 1684SOL     OW 1123   3.209   1.059   3.096
 1684SOL    HW1 1124   3.233   0.996   3.022
 1684SOL    HW2 1125   3.119   1.099   3.078
 1685SOL     OW 1126   3.164   0.855   2.171
 1685SOL    HW1 1127   3.078   0.824   2.213
 1685SOL    HW2 1128   3.160   0.841   2.072
 1686SOL     OW 1129   3.621   1.747   3.016
 1686SOL    HW1 1130   3.682   1.777   2.943
 1686SOL    HW2 1131   3.583   1.658   2.994
 1687SOL     OW 1132   3.114   1.731   2.990
 1687SOL    HW1 1133   3.198   1.736   2.936
 1687SOL    HW2 1134   3.091   1.635   3.008
 1688SOL     OW 1135   1.945   1.258   2.884
 1688SOL    HW1 1136   1.940   1.257   2.984
 1688SOL    HW2 1137   1.862   1.217   2.846
 1689SOL     OW 1138   2.550   1.662   3.578
 1689SOL    HW1 1139   2.494   1.743   3.587
 1689SOL    HW2 1140   2.602   1.666   3.492
 1691SOL     OW 1141   3.250   1.573   2.339
 1691SOL    HW1 1142   3.317   1.585   2.265
 1691SOL    HW2 1143   3.210   1.662   2.362
 1692SOL     OW 1144   1.992   1.794   3.713
 1692SOL    HW1 1145   1.951   1.720   3.766
 1692SOL    HW2 1146   2.056   1.845   3.771
 1693SOL     OW 1147   3.142   0.927   2.534
 1693SOL    HW1 1148   3.202   0.846   2.536
 1693SOL    HW2 1149   3.182   0.996   2.474
 1694SOL     OW 1150   2.692   1.273   3.284
 1694SOL    HW1 1151   2.687   1.306   3.379
 1694SOL    HW2 1152   2.606   1.292   3.238
 1695SOL     OW 1153   2.534   1.616   2.016
 1695SOL    HW1 1154   2.543   1.626   1.917
 1695SOL    HW2 1155   2.494   1.527   2.037
 1696SOL     OW 1156   3.512   1.720   3.256
 1696SOL    HW1 1157   3.565   1.730   3.172
 1696SOL    HW2 1158   3.485   1.810   3.290
 1699SOL     OW 1159   3.056   1.612   1.893
 1699SOL    HW1 1160   3.062   1.519   1.930
 1699SOL    HW2 1161   2.997   1.612   1.813
 1700SOL     OW 1162   2.684   1.002   3.234
 1700SOL    HW1 1163   2.724   1.001   3.142
 1700SOL    HW2 1164   2.694   1.094   3.274
 1701SOL     OW 1165   2.778   0.910   2.153
 1701SOL    HW1 1166   2.841   0.948   2.085
 1701SOL    HW2 1167   2.818   0.827   2.192
 1702SOL     OW 1168   3.366   1.607   1.906
 1702SOL    HW1 1169   3.274   1.644   1.913
 1702SOL    HW2 1170   3.404   1.627   1.816
 1703SOL     OW 1171   2.234   1.288   3.352
 1703SOL    HW1 1172   2.221   1.381   3.318
 1703SOL    HW2 1173   2.150   1.236   3.339
 1704SOL     OW 1174   3.476   1.292   3.151
 1704SOL    HW1 1175   3.536   1.295   3.231
 1704SOL    HW2 1176   3.401   1.356   3.164
 1705SOL     OW 1177   2.901   1.098   2.558
 1705SOL    HW1 1178   2.831   1.051   2.612
 1705SOL    HW2 1179   2.960   1.030   2.515
 1707SOL     OW 1180   2.452   1.487   2.353
 1707SOL    HW1 1181   2.494   1.429   2.283
 1707SOL    HW2 1182   2.408   1.566   2.309
 1709SOL     OW 1183   2.117   1.348   2.152
 1709SOL    HW1 1184   2.021   1.349   2.125
 1709SOL    HW2 1185   2.129   1.401   2.236
 1715SOL     OW 1186   3.045   1.335   1.981
 1715SOL    HW1 1187   2.946   1.324   1.983
 1715SOL    HW2 1188   3.079   1.350   2.074
 1716SOL     OW 1189   2.475   0.842   3.293
 1716SOL    HW1 1190   2.531   0.923   3.276
 1716SOL    HW2 1191   2.534   0.762   3.296
 1717SOL     OW 1192   3.355   1.767   2.821
 1717SOL    HW1 1193   3.388   1.831   2.752
 1717SOL    HW2 1194   3.421   1.761   2.896
 1720SOL     OW 1195   2.252   1.741   3.422
 1720SOL    HW1 1196   2.161   1.782   3.420
 1720SOL    HW2 1197   2.245   1.647   3.454
 1723SOL     OW 1198   2.456   0.745   2.514
 1723SOL    HW1 1199   2.506   0.830   2.495
 1723SOL    HW2 1200   2.368   0.747   2.466
 1726SOL     OW 1201   2.721   1.374   1.878
 1726SOL    HW1 1202   2.675   1.389   1.966
 1726SOL    HW2 1203   2.765   1.459   1.848
 1727SOL     OW 1204   2.523   1.790   2.815
 1727SOL    HW1 1205   2.477   1.878   2.802
 1727SOL    HW2 1206   2.622   1.802   2.808
 1728SOL     OW 1207   2.721   0.956   2.723
 1728SOL    HW1 1208   2.775   0.887   2.771
 1728SOL    HW2 1209   2.689   1.025   2.789
 1729SOL     OW 1210   2.945   0.984   1.949
 1729SOL    HW1 1211   2.922   1.037   1.867
 1729SOL    HW2 1212   3.026   0.928   1.930
 1730SOL     OW 1213   3.723   1.569   2.713
 1730SOL    HW1 1214   3.652   1.557   2.643
 1730SOL    HW2 1215   3.724   1.490   2.773
 1731SOL     OW 1216   2.083   1.314   3.706
 1731SOL    HW1 1217   2.018   1.241   3.685
 1731SOL    HW2 1218   2.087   1.328   3.804
 1732SOL     OW 1219   1.941   1.240   2.515
 1732SOL    HW1 1220   1.940   1.193   2.603
 1732SOL    HW2 1221   2.023   1.212   2.464
 1733SOL     OW 1222   2.534   1.391   3.486
 1733SOL    HW1 1223   2.456   1.341   3.524
 1733SOL    HW2 1224   2.531   1.486   3.517
 1736SOL     OW 1225   3.567   1.487   2.966
 1736SOL    HW1 1226   3.474   1.462   2.939
 1736SOL    HW2 1227   3.593   1.437   3.048
 1738SOL     OW 1228   2.674   1.586   2.549
 1738SOL    HW1 1229   2.706   1.596   2.455
 1738SOL    HW2 1230   2.595   1.524   2.551
 1741SOL     OW 1231   2.632   1.330   2.163
 1741SOL    HW1 1232   2.586   1.243   2.180
 1741SOL    HW2 1233   2.723   1.327   2.204
 1742SOL     OW 1234   2.480   1.567   3.146
 1742SOL    HW1 1235   2.475   1.649   3.203
 1742SOL    HW2 1236   2.569   1.564   3.101
 1746SOL     OW 1237   1.901   1.077   2.162
 1746SOL    HW1 1238   2.000   1.066   2.153
 1746SOL    HW2 1239   1.861   0.991   2.194
 1747SOL     OW 1240   2.737   1.646   2.199
 1747SOL    HW1 1241   2.660   1.611   2.145
 1747SOL    HW2 1242   2.705   1.717   2.261
 1762SOL     OW 1243   1.889   1.596   3.841
 1762SOL    HW1 1244   1.870   1.500   3.862
 1762SOL    HW2 1245   1.856   1.654   3.916
 1825SOL     OW 1246   2.534   1.616   3.878
 1825SOL    HW1 1247   2.543   1.626   3.779
 1825SOL    HW2 1248   2.494   1.527   3.899
 1828SOL     OW 1249   3.056   1.612   3.755
 1828SOL    HW1 1250   3.062   1.519   3.792
 1828SOL    HW2 1251   2.997   1.612   3.675
 1839SOL     OW 1252   2.721   1.374   3.740
 1839SOL    HW1 1253   2.675   1.389   3.828
 1839SOL    HW2 1254   2.765   1.459   3.710
 1855SOL     OW 1255   2.087   2.137   0.996
 1855SOL    HW1 1256   2.122   2.120   1.088
 1855SOL    HW2 1257   1.999   2.092   0.984
 1856SOL     OW 1258   1.881   2.230   0.647
 1856SOL    HW1 1259   1.799   2.273   0.686
 1856SOL    HW2 1260   1.853   2.157   0.584
 1857SOL     OW 1261   2.431   3.137   1.165
 1857SOL    HW1 1262   2.338   3.130   1.128
 1857SOL    HW2 1263   2.442   3.226   1.209
 1859SOL     OW 1264   2.997   2.565   0.717
 1859SOL    HW1 1265   3.054   2.643   0.692
 1859SOL    HW2 1266   2.937   2.591   0.793
 1861SOL     OW 1267   2.630   3.006   1.023
 1861SOL    HW1 1268   2.552   3.023   1.083
 1861SOL    HW2 1269   2.664   3.093   0.987
 1862SOL     OW 1270   2.712   2.660   1.823
 1862SOL    HW1 1271   2.708   2.736   1.888
 1862SOL    HW2 1272   2.734   2.696   1.732
 1863SOL     OW 1273   2.547   2.874   0.665
 1863SOL    HW1 1274   2.616   2.858   0.735
 1863SOL    HW2 1275   2.474   2.931   0.703
 1864SOL     OW 1276   2.548   3.023   1.803
 1864SOL    HW1 1277   2.608   3.102   1.817
 1864SOL    HW2 1278   2.462   3.054   1.762
 1865SOL     OW 1279   2.197   3.297   1.061
 1865SOL    HW1 1280   2.119   3.266   1.008
 1865SOL    HW2 1281   2.255   3.355   1.004
 1866SOL     OW 1282   3.322   3.367   1.339
 1866SOL    HW1 1283   3.346   3.461   1.365
 1866SOL    HW2 1284   3.306   3.313   1.421
 1867SOL     OW 1285   2.300   2.254   1.499
 1867SOL    HW1 1286   2.382   2.198   1.508
 1867SOL    HW2 1287   2.219   2.196   1.503
 1870SOL     OW 1288   2.989   3.203   1.690
 1870SOL    HW1 1289   3.036   3.203   1.778
 1870SOL    HW2 1290   2.941   3.116   1.679
 1872SOL     OW 1291   2.102   2.953   0.886
 1872SOL    HW1 1292   2.116   2.869   0.938
 1872SOL    HW2 1293   2.047   3.017   0.941
 1873SOL     OW 1294   2.482   3.648   1.439
 1873SOL    HW1 1295   2.390   3.631   1.474
 1873SOL    HW2 1296   2.510   3.740   1.465
 1875SOL     OW 1297   3.456   1.976   1.480
 1875SOL    HW1 1298   3.438   2.043   1.408
 1875SOL    HW2 1299   3.453   2.022   1.569
 1880SOL     OW 1300   1.975   2.599   1.597
 1880SOL    HW1 1301   2.063   2.586   1.642
 1880SOL    HW2 1302   1.962   2.696   1.575
 1882SOL     OW 1303   3.155   3.090   1.423
 1882SOL    HW1 1304   3.192   3.017   1.365
 1882SOL    HW2 1305   3.207   3.095   1.508
 1884SOL     OW 1306   2.059   2.838   1.264
 1884SOL    HW1 1307   2.148   2.793   1.250
 1884SOL    HW2 1308   1.986   2.773   1.245
 1886SOL     OW 1309   3.049   3.654   1.616
 1886SOL    HW1 1310   3.073   3.714   1.540
 1886SOL    HW2 1311   3.056   3.559   1.586
 1887SOL     OW 1312   2.179   2.113   1.801
 1887SOL    HW1 1313   2.250   2.184   1.807
 1887SOL    HW2 1314   2.091   2.152   1.829
 1891SOL     OW 1315   3.143   2.207   0.944
 1891SOL    HW1 1316   3.057   2.157   0.931
 1891SOL    HW2 1317   3.205   2.153   1.000
 1893SOL     OW 1318   2.669   2.467   1.465
 1893SOL    HW1 1319   2.622   2.464   1.554
 1893SOL    HW2 1320   2.618   2.412   1.399
 1894SOL     OW 1321   3.256   2.331   1.674
 1894SOL    HW1 1322   3.236   2.374   1.762
 1894SOL    HW2 1323   3.334   2.269   1.683
 1895SOL     OW 1324   2.835   2.752   1.572
 1895SOL    HW1 1325   2.881   2.668   1.543
 1895SOL    HW2 1326   2.779   2.786   1.497
 1896SOL     OW 1327   2.853   2.272   1.242
 1896SOL    HW1 1328   2.776   2.306   1.296
 1896SOL    HW2 1329   2.819   2.221   1.163
 1898SOL     OW 1330   1.938   2.673   0.789
 1898SOL    HW1 1331   2.037   2.661   0.798
 1898SOL    HW2 1332   1.914   2.768   0.810
 1899SOL     OW 1333   1.992   3.683   1.571
 1899SOL    HW1 1334   1.982   3.668   1.670
 1899SOL    HW2 1335   1.906   3.719   1.535
 1901SOL     OW 1336   3.581   2.447   1.831
 1901SOL    HW1 1337   3.555   2.536   1.795
 1901SOL    HW2 1338   3.579   2.379   1.758
 1903SOL     OW 1339   2.412   2.058   0.885
 1903SOL    HW1 1340   2.407   2.053   0.985
 1903SOL    HW2 1341   2.414   2.154   0.856
 1907SOL     OW 1342   3.089   3.412   1.506
 1907SOL    HW1 1343   3.095   3.335   1.570
 1907SOL    HW2 1344   3.037   3.386   1.426
 1910SOL     OW 1345   2.323   3.128   1.727
 1910SOL    HW1 1346   2.273   3.129   1.641
 1910SOL    HW2 1347   2.260   3.110   1.803
 1912SOL     OW 1348   2.064   2.147   1.498
 1912SOL    HW1 1349   1.984   2.207   1.485
 1912SOL    HW2 1350   2.054   2.098   1.584
 1916SOL     OW 1351   2.111   3.647   1.241
 1916SOL    HW1 1352   2.168   3.582   1.291
 1916SOL    HW2 1353   2.095   3.614   1.148
 1919SOL     OW 1354   3.409   2.084   1.729
 1919SOL    HW1 1355   3.404   2.121   1.821
 1919SOL    HW2 1356   3.337   2.015   1.717
 1920SOL     OW 1357   2.643   2.126   1.749
 1920SOL    HW1 1358   2.710   2.065   1.792
 1920SOL    HW2 1359   2.570   2.145   1.814
 1921SOL     OW 1360   2.750   3.376   1.195
 1921SOL    HW1 1361   2.727   3.351   1.101
 1921SOL    HW2 1362   2.811   3.307   1.234
 1922SOL     OW 1363   3.213   2.452   1.433
 1922SOL    HW1 1364   3.241   2.409   1.518
 1922SOL    HW2 1365   3.238   2.548   1.434
 1923SOL     OW 1366   2.665   3.264   0.924
 1923SOL    HW1 1367   2.755   3.278   0.882
 1923SOL    HW2 1368   2.594   3.266   0.853
 1924SOL     OW 1369   2.784   2.365   0.899
 1924SOL    HW1 1370   2.759   2.356   0.803
 1924SOL    HW2 1371   2.832   2.283   0.930
 1929SOL     OW 1372   2.938   2.545   1.464
 1929SOL    HW1 1373   2.858   2.484   1.467
 1929SOL    HW2 1374   3.019   2.492   1.440
 1931SOL     OW 1375   2.321   3.014   0.741
 1931SOL    HW1 1376   2.250   2.987   0.806
 1931SOL    HW2 1377   2.295   2.986   0.648
 1934SOL     OW 1378   1.940   2.418   1.386
 1934SOL    HW1 1379   2.032   2.417   1.345
 1934SOL    HW2 1380   1.934   2.492   1.453
 1935SOL     OW 1381   2.423   2.084   1.147
 1935SOL    HW1 1382   2.461   2.000   1.184
 1935SOL    HW2 1383   2.335   2.103   1.191
 1936SOL     OW 1384   2.728   2.316   0.642
 1936SOL    HW1 1385   2.696   2.388   0.580
 1936SOL    HW2 1386   2.752   2.235   0.589
 1937SOL     OW 1387   2.879   1.901   0.753
 1937SOL    HW1 1388   2.807   1.906   0.684
 1937SOL    HW2 1389   2.855   1.832   0.822
 1939SOL     OW 1390   3.328   2.452   0.992
 1939SOL    HW1 1391   3.298   2.357   0.999
 1939SOL    HW2 1392   3.401   2.468   1.058
 1945SOL     OW 1393   3.616   3.085   1.588
 1945SOL    HW1 1394   3.707   3.046   1.575
 1945SOL    HW2 1395   3.624   3.181   1.612
 1946SOL     OW 1396   2.926   3.209   1.340
 1946SOL    HW1 1397   2.846   3.186   1.395
 1946SOL    HW2 1398   3.009   3.183   1.389
 1947SOL     OW 1399   3.454   3.491   1.625
 1947SOL    HW1 1400   3.481   3.525   1.535
 1947SOL    HW2 1401   3.533   3.453   1.671
 1948SOL     OW 1402   2.973   3.057   1.100
 1948SOL    HW1 1403   2.933   3.101   1.181
 1948SOL    HW2 1404   2.932   3.094   1.017
 1950SOL     OW 1405   2.777   1.951   1.402
 1950SOL    HW1 1406   2.802   1.931   1.307
 1950SOL    HW2 1407   2.849   2.007   1.444
 1951SOL     OW 1408   2.842   2.978   1.719
 1951SOL    HW1 1409   2.743   2.984   1.729
 1951SOL    HW2 1410   2.865   2.898   1.663
 1953SOL     OW 1411   2.272   2.675   1.251
 1953SOL    HW1 1412   2.358   2.687   1.301
 1953SOL    HW2 1413   2.230   2.588   1.278
 1954SOL     OW 1414   3.136   2.248   1.262
 1954SOL    HW1 1415   3.157   2.322   1.326
 1954SOL    HW2 1416   3.047   2.265   1.219
 1955SOL     OW 1417   1.926   3.426   1.331
 1955SOL    HW1 1418   1.880   3.508   1.297
 1955SOL    HW2 1419   2.024   3.445   1.340
 1957SOL     OW 1420   2.428   2.399   0.865
 1957SOL    HW1 1421   2.440   2.465   0.791
 1957SOL    HW2 1422   2.474   2.433   0.948
 1959SOL     OW 1423   3.134   3.307   1.142
 1959SOL    HW1 1424   3.181   3.320   1.229
 1959SOL    HW2 1425   3.068   3.233   1.151
 1961SOL     OW 1426   2.216   3.372   1.329
 1961SOL    HW1 1427   2.195   3.328   1.242
 1961SOL    HW2 1428   2.313   3.398   1.332
 1962SOL     OW 1429   2.264   2.613   1.598
 1962SOL    HW1 1430   2.332   2.668   1.551
 1962SOL    HW2 1431   2.304   2.525   1.625
 1963SOL     OW 1432   3.449   2.641   1.670
 1963SOL    HW1 1433   3.357   2.679   1.665
 1963SOL    HW2 1434   3.509   2.688   1.605
 1964SOL     OW 1435   2.875   1.967   1.770
 1964SOL    HW1 1436   2.881   2.052   1.718
 1964SOL    HW2 1437   2.907   1.891   1.713
 1965SOL     OW 1438   2.366   1.912   1.740
 1965SOL    HW1 1439   2.324   1.855   1.670
 1965SOL    HW2 1440   2.300   1.981   1.772
 1966SOL     OW 1441   2.435   2.732   1.029
 1966SOL    HW1 1442   2.479   2.821   1.020
 1966SOL    HW2 1443   2.372   2.732   1.106
 1967SOL     OW 1444   3.222   2.724   1.045
 1967SOL    HW1 1445   3.147   2.724   0.979
 1967SOL    HW2 1446   3.259   2.632   1.054
 1969SOL     OW 1447   2.169   2.075   1.231
 1969SOL    HW1 1448   2.146   2.112   1.321
 1969SOL    HW2 1449   2.139   1.980   1.225
 1970SOL     OW 1450   1.899   3.172   1.282
 1970SOL    HW1 1451   1.952   3.123   1.350
 1970SOL    HW2 1452   1.921   3.270   1.287
 1971SOL     OW 1453   2.594   2.496   1.064
 1971SOL    HW1 1454   2.653   2.470   0.988
 1971SOL    HW2 1455   2.566   2.592   1.053
 1972SOL     OW 1456   3.590   2.797   1.854
 1972SOL    HW1 1457   3.544   2.790   1.765
 1972SOL    HW2 1458   3.528   2.841   1.920
 1973SOL     OW 1459   2.169   1.925   0.618
 1973SOL    HW1 1460   2.158   2.019   0.651
 1973SOL    HW2 1461   2.164   1.862   0.695
 1975SOL     OW 1462   2.885   2.628   0.966
 1975SOL    HW1 1463   2.900   2.649   1.062
 1975SOL    HW2 1464   2.855   2.533   0.957
 1976SOL     OW 1465   2.842   3.435   1.700
 1976SOL    HW1 1466   2.822   3.479   1.612
 1976SOL    HW2 1467   2.881   3.344   1.684
 1978SOL     OW 1468   2.212   2.760   1.804
 1978SOL    HW1 1469   2.288   2.804   1.852
 1978SOL    HW2 1470   2.247   2.713   1.722
 1982SOL     OW 1471   2.181   2.672   0.949
 1982SOL    HW1 1472   2.274   2.708   0.954
 1982SOL    HW2 1473   2.175   2.587   1.001
 1983SOL     OW 1474   2.201   2.371   1.006
 1983SOL    HW1 1475   2.149   2.288   0.989
 1983SOL    HW2 1476   2.278   2.376   0.942
 1984SOL     OW 1477   3.000   2.242   1.678
 1984SOL    HW1 1478   2.955   2.305   1.742
 1984SOL    HW2 1479   3.093   2.273   1.661
 1985SOL     OW 1480   3.022   2.069   1.477
 1985SOL    HW1 1481   3.022   2.133   1.554
 1985SOL    HW2 1482   3.050   2.117   1.394
 1988SOL     OW 1483   2.366   3.430   0.910
 1988SOL    HW1 1484   2.432   3.504   0.919
 1988SOL    HW2 1485   2.410   3.351   0.868
 1989SOL     OW 1486   2.864   2.658   1.238
 1989SOL    HW1 1487   2.905   2.626   1.324
 1989SOL    HW2 1488   2.768   2.631   1.235
 1990SOL     OW 1489   1.902   2.406   1.114
 1990SOL    HW1 1490   1.987   2.373   1.073
 1990SOL    HW2 1491   1.915   2.421   1.212
 1991SOL     OW 1492   2.051   2.382   1.722
 1991SOL    HW1 1493   2.110   2.342   1.652
 1991SOL    HW2 1494   1.993   2.453   1.681
 1992SOL     OW 1495   3.231   2.812   1.660
 1992SOL    HW1 1496   3.270   2.901   1.680
 1992SOL    HW2 1497   3.241   2.792   1.563
 1994SOL     OW 1498   3.519   2.466   1.206
 1994SOL    HW1 1499   3.481   2.397   1.268
 1994SOL    HW2 1500   3.601   2.430   1.162
 1995SOL     OW 1501   2.114   3.426   1.744
 1995SOL    HW1 1502   2.084   3.483   1.820
 1995SOL    HW2 1503   2.107   3.329   1.770
 1996SOL     OW 1504   2.533   2.326   1.269
 1996SOL    HW1 1505   2.499   2.237   1.239
 1996SOL    HW2 1506   2.559   2.380   1.189
 1997SOL     OW 1507   2.792   3.540   1.465
 1997SOL    HW1 1508   2.768   3.522   1.370
 1997SOL    HW2 1509   2.822   3.634   1.475
 1999SOL     OW 1510   2.021   2.999   1.466
 1999SOL    HW1 1511   2.043   2.938   1.542
 1999SOL    HW2 1512   2.031   2.950   1.380
 2000SOL     OW 1513   3.209   2.921   1.234
 2000SOL    HW1 1514   3.233   2.858   1.160
 2000SOL    HW2 1515   3.119   2.961   1.216
 2004SOL     OW 1516   1.945   3.120   1.022
 2004SOL    HW1 1517   1.940   3.119   1.122
 2004SOL    HW2 1518   1.862   3.079   0.984
 2005SOL     OW 1519   2.550   3.524   1.716
 2005SOL    HW1 1520   2.494   3.605   1.725
 2005SOL    HW2 1521   2.602   3.528   1.630
 2009SOL     OW 1522   1.992   3.656   1.851
 2009SOL    HW1 1523   1.951   3.582   1.904
 2009SOL    HW2 1524   2.056   3.707   1.909
 2011SOL     OW 1525   2.692   3.135   1.422
 2011SOL    HW1 1526   2.687   3.168   1.517
 2011SOL    HW2 1527   2.606   3.154   1.376
 2015SOL     OW 1528   2.125   2.188   0.720
 2015SOL    HW1 1529   2.046   2.239   0.686
 2015SOL    HW2 1530   2.116   2.173   0.818
 2017SOL     OW 1531   2.684   2.864   1.372
 2017SOL    HW1 1532   2.724   2.863   1.280
 2017SOL    HW2 1533   2.694   2.956   1.412
 2020SOL     OW 1534   2.234   3.150   1.490
 2020SOL    HW1 1535   2.221   3.243   1.456
 2020SOL    HW2 1536   2.150   3.098   1.477
 2021SOL     OW 1537   3.476   3.154   1.289
 2021SOL    HW1 1538   3.536   3.157   1.369
 2021SOL    HW2 1539   3.401   3.218   1.302
 2023SOL     OW 1540   2.876   2.098   0.971
 2023SOL    HW1 1541   2.868   2.062   0.878
 2023SOL    HW2 1542   2.874   2.022   1.036
 2025SOL     OW 1543   3.571   2.247   1.381
 2025SOL    HW1 1544   3.644   2.316   1.385
 2025SOL    HW2 1545   3.599   2.172   1.322
 2027SOL     OW 1546   1.967   2.875   1.726
 2027SOL    HW1 1547   1.890   2.842   1.780
 2027SOL    HW2 1548   2.052   2.845   1.768
 2028SOL     OW 1549   2.534   2.065   1.489
 2028SOL    HW1 1550   2.624   2.049   1.449
 2028SOL    HW2 1551   2.542   2.070   1.588
 2029SOL     OW 1552   3.302   2.718   1.398
 2029SOL    HW1 1553   3.245   2.770   1.335
 2029SOL    HW2 1554   3.398   2.730   1.374
 2032SOL     OW 1555   2.475   2.704   1.431
 2032SOL    HW1 1556   2.531   2.785   1.414
 2032SOL    HW2 1557   2.534   2.624   1.434
 2034SOL     OW 1558   2.578   2.427   1.708
 2034SOL    HW1 1559   2.597   2.492   1.782
 2034SOL    HW2 1560   2.638   2.347   1.717
 2035SOL     OW 1561   3.312   3.082   1.633
 2035SOL    HW1 1562   3.303   3.072   1.732
 2035SOL    HW2 1563   3.408   3.075   1.607
 2036SOL     OW 1564   2.252   3.603   1.560
 2036SOL    HW1 1565   2.161   3.644   1.558
 2036SOL    HW2 1566   2.245   3.509   1.592
 2037SOL     OW 1567   3.536   2.745   1.254
 2037SOL    HW1 1568   3.509   2.656   1.217
 2037SOL    HW2 1569   3.537   2.813   1.181
 2039SOL     OW 1570   2.456   2.607   0.652
 2039SOL    HW1 1571   2.506   2.692   0.633
 2039SOL    HW2 1572   2.368   2.609   0.604
 2040SOL     OW 1573   3.639   2.204   1.642
 2040SOL    HW1 1574   3.622   2.235   1.548
 2040SOL    HW2 1575   3.555   2.167   1.680
 2041SOL     OW 1576   3.592   2.796   1.517
 2041SOL    HW1 1577   3.630   2.887   1.532
 2041SOL    HW2 1578   3.584   2.779   1.418
 2044SOL     OW 1579   2.721   2.818   0.861
 2044SOL    HW1 1580   2.775   2.749   0.909
 2044SOL    HW2 1581   2.689   2.887   0.927
 2047SOL     OW 1582   2.083   3.176   1.844
 2047SOL    HW1 1583   2.018   3.103   1.823
 2047SOL    HW2 1584   2.087   3.190   1.942
 2049SOL     OW 1585   2.534   3.253   1.624
 2049SOL    HW1 1586   2.456   3.203   1.662
 2049SOL    HW2 1587   2.531   3.348   1.655
 2050SOL     OW 1588   3.686   2.054   1.227
 2050SOL    HW1 1589   3.682   1.964   1.271
 2050SOL    HW2 1590   3.689   2.043   1.128
 2053SOL     OW 1591   2.179   2.409   1.280
 2053SOL    HW1 1592   2.217   2.350   1.352
 2053SOL    HW2 1593   2.219   2.383   1.192
 2055SOL     OW 1594   3.286   2.076   1.112
 2055SOL    HW1 1595   3.338   2.011   1.167
 2055SOL    HW2 1596   3.237   2.139   1.173
 2056SOL     OW 1597   2.863   1.896   1.154
 2056SOL    HW1 1598   2.800   1.824   1.123
 2056SOL    HW2 1599   2.956   1.860   1.154
 2058SOL     OW 1600   2.480   3.429   1.284
 2058SOL    HW1 1601   2.475   3.511   1.341
 2058SOL    HW2 1602   2.569   3.426   1.239
 2064SOL     OW 1603   2.092   2.490   1.975
 2064SOL    HW1 1604   1.999   2.488   2.012
 2064SOL    HW2 1605   2.093   2.451   1.883
 2065SOL     OW 1606   2.087   2.137   2.858
 2065SOL    HW1 1607   2.122   2.120   2.950
 2065SOL    HW2 1608   1.999   2.092   2.846
 2066SOL     OW 1609   1.881   2.230   2.509
 2066SOL    HW1 1610   1.799   2.273   2.548
 2066SOL    HW2 1611   1.853   2.157   2.446
 2067SOL     OW 1612   2.431   3.137   3.027
 2067SOL    HW1 1613   2.338   3.130   2.990
 2067SOL    HW2 1614   2.442   3.226   3.071
 2068SOL     OW 1615   3.417   3.373   2.565
 2068SOL    HW1 1616   3.360   3.357   2.646
 2068SOL    HW2 1617   3.358   3.383   2.485
 2069SOL     OW 1618   2.997   2.565   2.579
 2069SOL    HW1 1619   3.054   2.643   2.554
 2069SOL    HW2 1620   2.937   2.591   2.655
 2070SOL     OW 1621   3.617   2.469   2.093
 2070SOL    HW1 1622   3.605   2.456   1.994
 2070SOL    HW2 1623   3.587   2.388   2.142
 2071SOL     OW 1624   2.630   3.006   2.885
 2071SOL    HW1 1625   2.552   3.023   2.945
 2071SOL    HW2 1626   2.664   3.093   2.849
 2072SOL     OW 1627   2.712   2.660   3.685
 2072SOL    HW1 1628   2.708   2.736   3.750
 2072SOL    HW2 1629   2.734   2.696   3.594
 2073SOL     OW 1630   2.547   2.874   2.527
 2073SOL    HW1 1631   2.616   2.858   2.597
 2073SOL    HW2 1632   2.474   2.931   2.565
 2074SOL     OW 1633   2.548   3.023   3.665
 2074SOL    HW1 1634   2.608   3.102   3.679
 2074SOL    HW2 1635   2.462   3.054   3.624
 2075SOL     OW 1636   2.197   3.297   2.923
 2075SOL    HW1 1637   2.119   3.266   2.870
 2075SOL    HW2 1638   2.255   3.355   2.866
 2076SOL     OW 1639   3.322   3.367   3.201
 2076SOL    HW1 1640   3.346   3.461   3.227
 2076SOL    HW2 1641   3.306   3.313   3.283
 2077SOL     OW 1642   2.300   2.254   3.361
 2077SOL    HW1 1643   2.382   2.198   3.370
 2077SOL    HW2 1644   2.219   2.196   3.365
 2078SOL     OW 1645   3.465   2.309   2.599
 2078SOL    HW1 1646   3.391   2.355   2.549
 2078SOL    HW2 1647   3.516   2.377   2.652
 2079SOL     OW 1648   2.093   3.575   2.345
 2079SOL    HW1 1649   2.127   3.652   2.399
 2079SOL    HW2 1650   2.137   3.575   2.255
 2080SOL     OW 1651   2.989   3.203   3.552
 2080SOL    HW1 1652   3.036   3.203   3.640
 2080SOL    HW2 1653   2.941   3.116   3.541
 2081SOL     OW 1654   2.092   3.296   2.400
 2081SOL    HW1 1655   2.066   3.392   2.400
 2081SOL    HW2 1656   2.021   3.242   2.445
 2082SOL     OW 1657   2.102   2.953   2.748
 2082SOL    HW1 1658   2.116   2.869   2.800
 2082SOL    HW2 1659   2.047   3.017   2.803
 2083SOL     OW 1660   2.482   3.648   3.301
 2083SOL    HW1 1661   2.390   3.631   3.336
 2083SOL    HW2 1662   2.510   3.740   3.327
 2084SOL     OW 1663   2.468   2.826   1.985
 2084SOL    HW1 1664   2.475   2.910   1.931
 2084SOL    HW2 1665   2.514   2.839   2.073
 2085SOL     OW 1666   3.456   1.976   3.342
 2085SOL    HW1 1667   3.438   2.043   3.270
 2085SOL    HW2 1668   3.453   2.022   3.431
 2086SOL     OW 1669   1.984   2.505   2.425
 2086SOL    HW1 1670   1.939   2.417   2.442
 2086SOL    HW2 1671   1.983   2.559   2.509
 2088SOL     OW 1672   1.889   3.458   1.979
 2088SOL    HW1 1673   1.870   3.362   2.000
 2088SOL    HW2 1674   1.856   3.516   2.054
 2089SOL     OW 1675   3.551   2.784   2.474
 2089SOL    HW1 1676   3.646   2.755   2.482
 2089SOL    HW2 1677   3.543   2.849   2.399
 2090SOL     OW 1678   3.503   2.970   2.294
 2090SOL    HW1 1679   3.589   2.972   2.242
 2090SOL    HW2 1680   3.517   3.017   2.382
 2091SOL     OW 1681   1.975   2.599   3.459
 2091SOL    HW1 1682   2.063   2.586   3.504
 2091SOL    HW2 1683   1.962   2.696   3.437
 2092SOL     OW 1684   2.475   3.227   2.588
 2092SOL    HW1 1685   2.426   3.140   2.597
 2092SOL    HW2 1686   2.452   3.270   2.501
 2093SOL     OW 1687   3.155   3.090   3.285
 2093SOL    HW1 1688   3.192   3.017   3.227
 2093SOL    HW2 1689   3.207   3.095   3.370
 2094SOL     OW 1690   2.671   1.866   2.364
 2094SOL    HW1 1691   2.711   1.957   2.355
 2094SOL    HW2 1692   2.571   1.874   2.370
 2095SOL     OW 1693   2.059   2.838   3.126
 2095SOL    HW1 1694   2.148   2.793   3.112
 2095SOL    HW2 1695   1.986   2.773   3.107
 2096SOL     OW 1696   3.387   2.861   2.052
 2096SOL    HW1 1697   3.324   2.785   2.065
 2096SOL    HW2 1698   3.435   2.879   2.138
 2098SOL     OW 1699   2.179   2.113   3.663
 2098SOL    HW1 1700   2.250   2.184   3.669
 2098SOL    HW2 1701   2.091   2.152   3.691
 2099SOL     OW 1702   3.328   3.279   2.815
 2099SOL    HW1 1703   3.269   3.285   2.895
 2099SOL    HW2 1704   3.313   3.191   2.769
 2100SOL     OW 1705   3.529   3.576   2.434
 2100SOL    HW1 1706   3.488   3.553   2.346
 2100SOL    HW2 1707   3.511   3.502   2.499
 2101SOL     OW 1708   3.143   2.207   2.806
 2101SOL    HW1 1709   3.057   2.157   2.793
 2101SOL    HW2 1710   3.205   2.153   2.862
 2102SOL     OW 1711   3.438   3.524   2.169
 2102SOL    HW1 1712   3.527   3.570   2.172
 2102SOL    HW2 1713   3.417   3.500   2.074
 2103SOL     OW 1714   2.669   2.467   3.327
 2103SOL    HW1 1715   2.622   2.464   3.416
 2103SOL    HW2 1716   2.618   2.412   3.261
 2104SOL     OW 1717   3.256   2.331   3.536
 2104SOL    HW1 1718   3.236   2.374   3.624
 2104SOL    HW2 1719   3.334   2.269   3.545
 2105SOL     OW 1720   2.835   2.752   3.434
 2105SOL    HW1 1721   2.881   2.668   3.405
 2105SOL    HW2 1722   2.779   2.786   3.359
 2106SOL     OW 1723   2.853   2.272   3.104
 2106SOL    HW1 1724   2.776   2.306   3.158
 2106SOL    HW2 1725   2.819   2.221   3.025
 2107SOL     OW 1726   2.903   2.563   2.291
 2107SOL    HW1 1727   2.929   2.559   2.387
 2107SOL    HW2 1728   2.818   2.512   2.277
 2108SOL     OW 1729   1.938   2.673   2.651
 2108SOL    HW1 1730   2.037   2.661   2.660
 2108SOL    HW2 1731   1.914   2.768   2.672
 2109SOL     OW 1732   1.992   3.683   3.433
 2109SOL    HW1 1733   1.982   3.668   3.532
 2109SOL    HW2 1734   1.906   3.719   3.397
 2110SOL     OW 1735   2.727   2.210   2.057
 2110SOL    HW1 1736   2.786   2.273   2.008
 2110SOL    HW2 1737   2.746   2.116   2.028
 2112SOL     OW 1738   3.224   3.006   2.407
 2112SOL    HW1 1739   3.307   2.977   2.359
 2112SOL    HW2 1740   3.175   3.073   2.351
 2113SOL     OW 1741   2.870   3.318   2.339
 2113SOL    HW1 1742   2.824   3.390   2.287
 2113SOL    HW2 1743   2.866   3.338   2.437
 2114SOL     OW 1744   2.213   3.663   2.715
 2114SOL    HW1 1745   2.263   3.577   2.721
 2114SOL    HW2 1746   2.278   3.740   2.712
 2115SOL     OW 1747   3.657   2.928   2.735
 2115SOL    HW1 1748   3.595   2.913   2.659
 2115SOL    HW2 1749   3.605   2.939   2.820
 2116SOL     OW 1750   3.089   3.412   3.368
 2116SOL    HW1 1751   3.095   3.335   3.432
 2116SOL    HW2 1752   3.037   3.386   3.288
 2117SOL     OW 1753   2.183   2.805   2.104
 2117SOL    HW1 1754   2.265   2.844   2.062
 2117SOL    HW2 1755   2.156   2.723   2.055
 2118SOL     OW 1756   3.320   2.597   2.590
 2118SOL    HW1 1757   3.315   2.532   2.665
 2118SOL    HW2 1758   3.400   2.656   2.603
 2119SOL     OW 1759   2.323   3.128   3.589
 2119SOL    HW1 1760   2.273   3.129   3.503
 2119SOL    HW2 1761   2.260   3.110   3.665
 2120SOL     OW 1762   2.973   3.638   2.099
 2120SOL    HW1 1763   2.913   3.576   2.149
 2120SOL    HW2 1764   3.004   3.594   2.014
 2121SOL     OW 1765   2.064   2.147   3.360
 2121SOL    HW1 1766   1.984   2.207   3.347
 2121SOL    HW2 1767   2.054   2.098   3.446
 2122SOL     OW 1768   3.494   3.239   1.943
 2122SOL    HW1 1769   3.462   3.333   1.933
 2122SOL    HW2 1770   3.418   3.176   1.931
 2123SOL     OW 1771   2.326   3.605   2.185
 2123SOL    HW1 1772   2.359   3.644   2.271
 2123SOL    HW2 1773   2.402   3.598   2.120
 2124SOL     OW 1774   3.262   1.969   2.288
 2124SOL    HW1 1775   3.238   1.932   2.198
 2124SOL    HW2 1776   3.361   1.985   2.292
 2125SOL     OW 1777   2.111   3.647   3.103
 2125SOL    HW1 1778   2.168   3.582   3.153
 2125SOL    HW2 1779   2.095   3.614   3.010
 2126SOL     OW 1780   2.802   3.560   2.766
 2126SOL    HW1 1781   2.882   3.503   2.787
 2126SOL    HW2 1782   2.753   3.520   2.689
 2127SOL     OW 1783   3.409   2.084   3.591
 2127SOL    HW1 1784   3.404   2.121   3.683
 2127SOL    HW2 1785   3.337   2.015   3.579
 2128SOL     OW 1786   2.476   1.984   1.979
 2128SOL    HW1 1787   2.574   1.962   1.986
 2128SOL    HW2 1788   2.445   1.967   1.886
 2129SOL     OW 1789   2.643   2.126   3.611
 2129SOL    HW1 1790   2.710   2.065   3.654
 2129SOL    HW2 1791   2.570   2.145   3.676
 2130SOL     OW 1792   2.750   3.376   3.057
 2130SOL    HW1 1793   2.727   3.351   2.963
 2130SOL    HW2 1794   2.811   3.307   3.096
 2131SOL     OW 1795   3.213   2.452   3.295
 2131SOL    HW1 1796   3.241   2.409   3.380
 2131SOL    HW2 1797   3.238   2.548   3.296
 2132SOL     OW 1798   2.665   3.264   2.786
 2132SOL    HW1 1799   2.755   3.278   2.744
 2132SOL    HW2 1800   2.594   3.266   2.715
 2133SOL     OW 1801   2.784   2.365   2.761
 2133SOL    HW1 1802   2.759   2.356   2.665
 2133SOL    HW2 1803   2.832   2.283   2.792
 2134SOL     OW 1804   2.401   1.926   2.374
 2134SOL    HW1 1805   2.320   1.927   2.432
 2134SOL    HW2 1806   2.404   2.009   2.319
 2135SOL     OW 1807   3.296   3.050   1.903
 2135SOL    HW1 1808   3.328   2.974   1.960
 2135SOL    HW2 1809   3.204   3.077   1.933
 2136SOL     OW 1810   2.159   1.897   2.033
 2136SOL    HW1 1811   2.208   1.981   2.012
 2136SOL    HW2 1812   2.221   1.832   2.078
 2137SOL     OW 1813   2.797   2.098   2.342
 2137SOL    HW1 1814   2.749   2.139   2.264
 2137SOL    HW2 1815   2.896   2.096   2.323
 2138SOL     OW 1816   2.938   2.545   3.326
 2138SOL    HW1 1817   2.858   2.484   3.329
 2138SOL    HW2 1818   3.019   2.492   3.302
 2139SOL     OW 1819   3.089   3.432   2.655
 2139SOL    HW1 1820   3.110   3.506   2.590
 2139SOL    HW2 1821   3.157   3.432   2.728
 2140SOL     OW 1822   2.321   3.014   2.603
 2140SOL    HW1 1823   2.250   2.987   2.668
 2140SOL    HW2 1824   2.295   2.986   2.510
 2141SOL     OW 1825   3.133   3.659   2.453
 2141SOL    HW1 1826   3.177   3.723   2.389
 2141SOL    HW2 1827   3.083   3.711   2.523
 2142SOL     OW 1828   2.894   2.411   1.878
 2142SOL    HW1 1829   2.853   2.493   1.839
 2142SOL    HW2 1830   2.958   2.437   1.951
 2143SOL     OW 1831   1.940   2.418   3.248
 2143SOL    HW1 1832   2.032   2.417   3.207
 2143SOL    HW2 1833   1.934   2.492   3.315
 2144SOL     OW 1834   2.423   2.084   3.009
 2144SOL    HW1 1835   2.461   2.000   3.046
 2144SOL    HW2 1836   2.335   2.103   3.053
 2145SOL     OW 1837   2.728   2.316   2.504
 2145SOL    HW1 1838   2.696   2.388   2.442
 2145SOL    HW2 1839   2.752   2.235   2.451
 2146SOL     OW 1840   2.879   1.901   2.615
 2146SOL    HW1 1841   2.807   1.906   2.546
 2146SOL    HW2 1842   2.855   1.832   2.684
 2147SOL     OW 1843   3.291   3.035   2.729
 2147SOL    HW1 1844   3.236   2.951   2.722
 2147SOL    HW2 1845   3.317   3.064   2.637
 2148SOL     OW 1846   3.328   2.452   2.854
 2148SOL    HW1 1847   3.298   2.357   2.861
 2148SOL    HW2 1848   3.401   2.468   2.920
 2149SOL     OW 1849   3.719   2.695   2.239
 2149SOL    HW1 1850   3.761   2.631   2.303
 2149SOL    HW2 1851   3.681   2.644   2.161
 2150SOL     OW 1852   2.350   3.247   2.036
 2150SOL    HW1 1853   2.263   3.232   2.083
 2150SOL    HW2 1854   2.333   3.273   1.941
 2151SOL     OW 1855   3.526   3.142   2.519
 2151SOL    HW1 1856   3.625   3.150   2.533
 2151SOL    HW2 1857   3.481   3.226   2.550
 2152SOL     OW 1858   3.252   2.437   1.940
 2152SOL    HW1 1859   3.198   2.416   2.021
 2152SOL    HW2 1860   3.343   2.396   1.949
 2154SOL     OW 1861   2.926   3.209   3.202
 2154SOL    HW1 1862   2.846   3.186   3.257
 2154SOL    HW2 1863   3.009   3.183   3.251
 2156SOL     OW 1864   2.973   3.057   2.962
 2156SOL    HW1 1865   2.933   3.101   3.043
 2156SOL    HW2 1866   2.932   3.094   2.879
 2157SOL     OW 1867   3.500   2.961   2.941
 2157SOL    HW1 1868   3.505   3.042   3.000
 2157SOL    HW2 1869   3.414   2.963   2.890
 2158SOL     OW 1870   2.777   1.951   3.264
 2158SOL    HW1 1871   2.802   1.931   3.169
 2158SOL    HW2 1872   2.849   2.007   3.306
 2159SOL     OW 1873   2.842   2.978   3.581
 2159SOL    HW1 1874   2.743   2.984   3.591
 2159SOL    HW2 1875   2.865   2.898   3.525
 2160SOL     OW 1876   2.567   2.912   2.230
 2160SOL    HW1 1877   2.553   2.919   2.329
 2160SOL    HW2 1878   2.651   2.861   2.212
 2161SOL     OW 1879   2.272   2.675   3.113
 2161SOL    HW1 1880   2.358   2.687   3.163
 2161SOL    HW2 1881   2.230   2.588   3.140
 2162SOL     OW 1882   3.136   2.248   3.124
 2162SOL    HW1 1883   3.157   2.322   3.188
 2162SOL    HW2 1884   3.047   2.265   3.081
 2163SOL     OW 1885   1.926   3.426   3.193
 2163SOL    HW1 1886   1.880   3.508   3.159
 2163SOL    HW2 1887   2.024   3.445   3.202
 2164SOL     OW 1888   2.229   2.962   2.363
 2164SOL    HW1 1889   2.222   3.045   2.307
 2164SOL    HW2 1890   2.233   2.882   2.303
 2165SOL     OW 1891   3.114   3.210   2.250
 2165SOL    HW1 1892   3.164   3.287   2.290
 2165SOL    HW2 1893   3.019   3.212   2.282
 2166SOL     OW 1894   3.134   3.307   3.004
 2166SOL    HW1 1895   3.181   3.320   3.091
 2166SOL    HW2 1896   3.068   3.233   3.013
 2167SOL     OW 1897   3.444   2.501   2.334
 2167SOL    HW1 1898   3.413   2.562   2.407
 2167SOL    HW2 1899   3.494   2.553   2.265
 2168SOL     OW 1900   2.216   3.372   3.191
 2168SOL    HW1 1901   2.195   3.328   3.104
 2168SOL    HW2 1902   2.313   3.398   3.194
 2169SOL     OW 1903   2.264   2.613   3.460
 2169SOL    HW1 1904   2.332   2.668   3.413
 2169SOL    HW2 1905   2.304   2.525   3.487
 2170SOL     OW 1906   3.449   2.641   3.532
 2170SOL    HW1 1907   3.357   2.679   3.527
 2170SOL    HW2 1908   3.509   2.688   3.467
 2171SOL     OW 1909   2.875   1.967   3.632
 2171SOL    HW1 1910   2.881   2.052   3.580
 2171SOL    HW2 1911   2.907   1.891   3.575
 2172SOL     OW 1912   2.366   1.912   3.602
 2172SOL    HW1 1913   2.324   1.855   3.532
 2172SOL    HW2 1914   2.300   1.981   3.634
 2173SOL     OW 1915   2.435   2.732   2.891
 2173SOL    HW1 1916   2.479   2.821   2.882
 2173SOL    HW2 1917   2.372   2.732   2.968
 2174SOL     OW 1918   3.222   2.724   2.907
 2174SOL    HW1 1919   3.147   2.724   2.841
 2174SOL    HW2 1920   3.259   2.632   2.916
 2175SOL     OW 1921   3.071   2.387   2.137
 2175SOL    HW1 1922   3.084   2.303   2.191
 2175SOL    HW2 1923   3.042   2.461   2.197
 2176SOL     OW 1924   2.169   2.075   3.093
 2176SOL    HW1 1925   2.146   2.112   3.183
 2176SOL    HW2 1926   2.139   1.980   3.087
 2177SOL     OW 1927   1.899   3.172   3.144
 2177SOL    HW1 1928   1.952   3.123   3.212
 2177SOL    HW2 1929   1.921   3.270   3.149
 2178SOL     OW 1930   2.594   2.496   2.926
 2178SOL    HW1 1931   2.653   2.470   2.850
 2178SOL    HW2 1932   2.566   2.592   2.915
 2180SOL     OW 1933   3.484   2.229   2.236
 2180SOL    HW1 1934   3.486   2.153   2.300
 2180SOL    HW2 1935   3.436   2.306   2.276
 2181SOL     OW 1936   2.885   2.628   2.828
 2181SOL    HW1 1937   2.900   2.649   2.924
 2181SOL    HW2 1938   2.855   2.533   2.819
 2182SOL     OW 1939   2.842   3.435   3.562
 2182SOL    HW1 1940   2.822   3.479   3.474
 2182SOL    HW2 1941   2.881   3.344   3.546
 2184SOL     OW 1942   2.212   2.760   3.666
 2184SOL    HW1 1943   2.288   2.804   3.714
 2184SOL    HW2 1944   2.247   2.713   3.584
 2185SOL     OW 1945   3.402   2.136   1.987
 2185SOL    HW1 1946   3.341   2.061   2.010
 2185SOL    HW2 1947   3.424   2.188   2.070
 2186SOL     OW 1948   3.165   2.700   1.904
 2186SOL    HW1 1949   3.199   2.607   1.919
 2186SOL    HW2 1950   3.183   2.727   1.809
 2187SOL     OW 1951   2.930   3.195   2.711
 2187SOL    HW1 1952   2.937   3.111   2.656
 2187SOL    HW2 1953   2.992   3.264   2.675
 2188SOL     OW 1954   2.181   2.672   2.811
 2188SOL    HW1 1955   2.274   2.708   2.816
 2188SOL    HW2 1956   2.175   2.587   2.863
 2189SOL     OW 1957   2.201   2.371   2.868
 2189SOL    HW1 1958   2.149   2.288   2.851
 2189SOL    HW2 1959   2.278   2.376   2.804
 2190SOL     OW 1960   3.000   2.242   3.540
 2190SOL    HW1 1961   2.955   2.305   3.604
 2190SOL    HW2 1962   3.093   2.273   3.523
 2191SOL     OW 1963   3.022   2.069   3.339
 2191SOL    HW1 1964   3.022   2.133   3.416
 2191SOL    HW2 1965   3.050   2.117   3.256
 2192SOL     OW 1966   1.870   3.188   2.062
 2192SOL    HW1 1967   1.777   3.209   2.031
 2192SOL    HW2 1968   1.880   3.089   2.075
 2193SOL     OW 1969   1.950   3.663   2.789
 2193SOL    HW1 1970   1.908   3.577   2.762
 2193SOL    HW2 1971   2.044   3.666   2.755
 2194SOL     OW 1972   2.366   3.430   2.772
 2194SOL    HW1 1973   2.432   3.504   2.781
 2194SOL    HW2 1974   2.410   3.351   2.730
 2195SOL     OW 1975   2.864   2.658   3.100
 2195SOL    HW1 1976   2.905   2.626   3.186
 2195SOL    HW2 1977   2.768   2.631   3.097
 2196SOL     OW 1978   1.902   2.406   2.976
 2196SOL    HW1 1979   1.987   2.373   2.935
 2196SOL    HW2 1980   1.915   2.421   3.074
 2197SOL     OW 1981   2.051   2.382   3.584
 2197SOL    HW1 1982   2.110   2.342   3.514
 2197SOL    HW2 1983   1.993   2.453   3.543
 2198SOL     OW 1984   3.231   2.812   3.522
 2198SOL    HW1 1985   3.270   2.901   3.542
 2198SOL    HW2 1986   3.241   2.792   3.425
 2199SOL     OW 1987   3.519   2.466   3.068
 2199SOL    HW1 1988   3.481   2.397   3.130
 2199SOL    HW2 1989   3.601   2.430   3.024
 2200SOL     OW 1990   2.114   3.426   3.606
 2200SOL    HW1 1991   2.084   3.483   3.682
 2200SOL    HW2 1992   2.107   3.329   3.632
 2201SOL     OW 1993   2.533   2.326   3.131
 2201SOL    HW1 1994   2.499   2.237   3.101
 2201SOL    HW2 1995   2.559   2.380   3.051
 2202SOL     OW 1996   2.792   3.540   3.327
 2202SOL    HW1 1997   2.768   3.522   3.232
 2202SOL    HW2 1998   2.822   3.634   3.337
 2203SOL     OW 1999   2.021   2.999   3.328
 2203SOL    HW1 2000   2.043   2.938   3.404
 2203SOL    HW2 2001   2.031   2.950   3.242
 2204SOL     OW 2002   3.209   2.921   3.096
 2204SOL    HW1 2003   3.233   2.858   3.022
 2204SOL    HW2 2004   3.119   2.961   3.078
 2205SOL     OW 2005   3.164   2.717   2.171
 2205SOL    HW1 2006   3.078   2.686   2.213
 2205SOL    HW2 2007   3.160   2.703   2.072
 2207SOL     OW 2008   3.114   3.593   2.990
 2207SOL    HW1 2009   3.198   3.598   2.936
 2207SOL    HW2 2010   3.091   3.497   3.008
 2208SOL     OW 2011   1.945   3.120   2.884
 2208SOL    HW1 2012   1.940   3.119   2.984
 2208SOL    HW2 2013   1.862   3.079   2.846
 2209SOL     OW 2014   2.550   3.524   3.578
 2209SOL    HW1 2015   2.494   3.605   3.587
 2209SOL    HW2 2016   2.602   3.528   3.492
 2210SOL     OW 2017   3.588   1.997   2.385
 2210SOL    HW1 2018   3.661   1.980   2.318
 2210SOL    HW2 2019   3.557   1.910   2.423
 2211SOL     OW 2020   3.250   3.435   2.339
 2211SOL    HW1 2021   3.317   3.447   2.265
 2211SOL    HW2 2022   3.210   3.524   2.362
 2213SOL     OW 2023   3.142   2.789   2.534
 2213SOL    HW1 2024   3.202   2.708   2.536
 2213SOL    HW2 2025   3.182   2.858   2.474
 2214SOL     OW 2026   2.692   3.135   3.284
 2214SOL    HW1 2027   2.687   3.168   3.379
 2214SOL    HW2 2028   2.606   3.154   3.238
 2215SOL     OW 2029   2.534   3.478   2.016
 2215SOL    HW1 2030   2.543   3.488   1.917
 2215SOL    HW2 2031   2.494   3.389   2.037
 2217SOL     OW 2032   3.703   2.037   2.825
 2217SOL    HW1 2033   3.742   1.952   2.789
 2217SOL    HW2 2034   3.605   2.039   2.806
 2218SOL     OW 2035   2.125   2.188   2.582
 2218SOL    HW1 2036   2.046   2.239   2.548
 2218SOL    HW2 2037   2.116   2.173   2.680
 2219SOL     OW 2038   3.056   3.474   1.893
 2219SOL    HW1 2039   3.062   3.381   1.930
 2219SOL    HW2 2040   2.997   3.474   1.813
 2220SOL     OW 2041   2.684   2.864   3.234
 2220SOL    HW1 2042   2.724   2.863   3.142
 2220SOL    HW2 2043   2.694   2.956   3.274
 2221SOL     OW 2044   2.778   2.772   2.153
 2221SOL    HW1 2045   2.841   2.810   2.085
 2221SOL    HW2 2046   2.818   2.689   2.192
 2222SOL     OW 2047   3.366   3.469   1.906
 2222SOL    HW1 2048   3.274   3.506   1.913
 2222SOL    HW2 2049   3.404   3.489   1.816
 2223SOL     OW 2050   2.234   3.150   3.352
 2223SOL    HW1 2051   2.221   3.243   3.318
 2223SOL    HW2 2052   2.150   3.098   3.339
 2224SOL     OW 2053   3.476   3.154   3.151
 2224SOL    HW1 2054   3.536   3.157   3.231
 2224SOL    HW2 2055   3.401   3.218   3.164
 2225SOL     OW 2056   2.901   2.960   2.558
 2225SOL    HW1 2057   2.831   2.913   2.612
 2225SOL    HW2 2058   2.960   2.892   2.515
 2226SOL     OW 2059   2.876   2.098   2.833
 2226SOL    HW1 2060   2.868   2.062   2.740
 2226SOL    HW2 2061   2.874   2.022   2.898
 2227SOL     OW 2062   2.452   3.349   2.353
 2227SOL    HW1 2063   2.494   3.291   2.283
 2227SOL    HW2 2064   2.408   3.428   2.309
 2228SOL     OW 2065   3.571   2.247   3.243
 2228SOL    HW1 2066   3.644   2.316   3.247
 2228SOL    HW2 2067   3.599   2.172   3.184
 2229SOL     OW 2068   2.117   3.210   2.152
 2229SOL    HW1 2069   2.021   3.211   2.125
 2229SOL    HW2 2070   2.129   3.263   2.236
 2230SOL     OW 2071   1.967   2.875   3.588
 2230SOL    HW1 2072   1.890   2.842   3.642
 2230SOL    HW2 2073   2.052   2.845   3.630
 2231SOL     OW 2074   2.534   2.065   3.351
 2231SOL    HW1 2075   2.624   2.049   3.311
 2231SOL    HW2 2076   2.542   2.070   3.450
 2232SOL     OW 2077   1.937   2.207   1.895
 2232SOL    HW1 2078   1.845   2.179   1.866
 2232SOL    HW2 2079   1.968   2.284   1.839
 2233SOL     OW 2080   3.302   2.718   3.260
 2233SOL    HW1 2081   3.245   2.770   3.197
 2233SOL    HW2 2082   3.398   2.730   3.236
 2234SOL     OW 2083   1.934   2.028   2.180
 2234SOL    HW1 2084   1.917   2.111   2.126
 2234SOL    HW2 2085   2.024   1.991   2.158
 2235SOL     OW 2086   3.045   3.197   1.981
 2235SOL    HW1 2087   2.946   3.186   1.983
 2235SOL    HW2 2088   3.079   3.212   2.074
 2236SOL     OW 2089   2.475   2.704   3.293
 2236SOL    HW1 2090   2.531   2.785   3.276
 2236SOL    HW2 2091   2.534   2.624   3.296
 2237SOL     OW 2092   3.355   3.629   2.821
 2237SOL    HW1 2093   3.388   3.693   2.752
 2237SOL    HW2 2094   3.421   3.623   2.896
 2238SOL     OW 2095   2.578   2.427   3.570
 2238SOL    HW1 2096   2.597   2.492   3.644
 2238SOL    HW2 2097   2.638   2.347   3.579
 2239SOL     OW 2098   3.312   3.082   3.495
 2239SOL    HW1 2099   3.303   3.072   3.594
 2239SOL    HW2 2100   3.408   3.075   3.469
 2240SOL     OW 2101   2.252   3.603   3.422
 2240SOL    HW1 2102   2.161   3.644   3.420
 2240SOL    HW2 2103   2.245   3.509   3.454
 2241SOL     OW 2104   3.536   2.745   3.116
 2241SOL    HW1 2105   3.509   2.656   3.079
 2241SOL    HW2 2106   3.537   2.813   3.043
 2242SOL     OW 2107   3.087   2.187   2.311
 2242SOL    HW1 2108   3.152   2.113   2.300
 2242SOL    HW2 2109   3.107   2.237   2.395
 2243SOL     OW 2110   3.639   2.204   3.504
 2243SOL    HW1 2111   3.622   2.235   3.410
 2243SOL    HW2 2112   3.555   2.167   3.542
 2244SOL     OW 2113   3.592   2.796   3.379
 2244SOL    HW1 2114   3.630   2.887   3.394
 2244SOL    HW2 2115   3.584   2.779   3.280
 2245SOL     OW 2116   2.721   3.236   1.878
 2245SOL    HW1 2117   2.675   3.251   1.966
 2245SOL    HW2 2118   2.765   3.321   1.848
 2246SOL     OW 2119   2.523   3.652   2.815
 2246SOL    HW1 2120   2.477   3.740   2.802
 2246SOL    HW2 2121   2.622   3.664   2.808
 2247SOL     OW 2122   2.721   2.818   2.723
 2247SOL    HW1 2123   2.775   2.749   2.771
 2247SOL    HW2 2124   2.689   2.887   2.789
 2248SOL     OW 2125   2.945   2.846   1.949
 2248SOL    HW1 2126   2.922   2.899   1.867
 2248SOL    HW2 2127   3.026   2.790   1.930
 2249SOL     OW 2128   3.723   3.431   2.713
 2249SOL    HW1 2129   3.652   3.419   2.643
 2249SOL    HW2 2130   3.724   3.352   2.773
 2250SOL     OW 2131   2.083   3.176   3.706
 2250SOL    HW1 2132   2.018   3.103   3.685
 2250SOL    HW2 2133   2.087   3.190   3.804
 2251SOL     OW 2134   1.941   3.102   2.515
 2251SOL    HW1 2135   1.940   3.055   2.603
 2251SOL    HW2 2136   2.023   3.074   2.464
 2252SOL     OW 2137   2.534   3.253   3.486
 2252SOL    HW1 2138   2.456   3.203   3.524
 2252SOL    HW2 2139   2.531   3.348   3.517
 2253SOL     OW 2140   3.686   2.054   3.089
 2253SOL    HW1 2141   3.682   1.964   3.133
 2253SOL    HW2 2142   3.689   2.043   2.990
 2254SOL     OW 2143   3.567   3.349   2.966
 2254SOL    HW1 2144   3.474   3.324   2.939
 2254SOL    HW2 2145   3.593   3.299   3.048
 2255SOL     OW 2146   2.179   2.409   3.142
 2255SOL    HW1 2147   2.217   2.350   3.214
 2255SOL    HW2 2148   2.219   2.383   3.054
 2256SOL     OW 2149   2.674   3.448   2.549
 2256SOL    HW1 2150   2.706   3.458   2.455
 2256SOL    HW2 2151   2.595   3.386   2.551
 2257SOL     OW 2152   3.286   2.076   2.974
 2257SOL    HW1 2153   3.338   2.011   3.029
 2257SOL    HW2 2154   3.237   2.139   3.035
 2258SOL     OW 2155   2.863   1.896   3.016
 2258SOL    HW1 2156   2.800   1.824   2.985
 2258SOL    HW2 2157   2.956   1.860   3.016
 2259SOL     OW 2158   2.632   3.192   2.163
 2259SOL    HW1 2159   2.586   3.105   2.180
 2259SOL    HW2 2160   2.723   3.189   2.204
 2260SOL     OW 2161   2.480   3.429   3.146
 2260SOL    HW1 2162   2.475   3.511   3.203
 2260SOL    HW2 2163   2.569   3.426   3.101
 2261SOL     OW 2164   3.214   1.914   2.030
 2261SOL    HW1 2165   3.249   1.873   1.946
 2261SOL    HW2 2166   3.124   1.876   2.050
 2262SOL     OW 2167   3.162   2.315   2.553
 2262SOL    HW1 2168   3.103   2.395   2.557
 2262SOL    HW2 2169   3.177   2.280   2.646
 2263SOL     OW 2170   3.455   2.083   2.744
 2263SOL    HW1 2171   3.371   2.082   2.798
 2263SOL    HW2 2172   3.457   2.166   2.688
 2264SOL     OW 2173   1.901   2.939   2.162
 2264SOL    HW1 2174   2.000   2.928   2.153
 2264SOL    HW2 2175   1.861   2.853   2.194
 2265SOL     OW 2176   2.737   3.508   2.199
 2265SOL    HW1 2177   2.660   3.473   2.145
 2265SOL    HW2 2178   2.705   3.579   2.261
 2266SOL     OW 2179   2.092   2.490   3.837
 2266SOL    HW1 2180   1.999   2.488   3.874
 2266SOL    HW2 2181   2.093   2.451   3.745
 2277SOL     OW 2182   2.468   2.826   3.847
 2277SOL    HW1 2183   2.475   2.910   3.793
 2277SOL    HW2 2184   2.514   2.839   3.935
 2288SOL     OW 2185   2.460   2.591   3.994
 2288SOL    HW1 2186   2.484   2.660   3.926
 2288SOL    HW2 2187   2.382   2.624   4.048
 2293SOL     OW 2188   2.727   2.210   3.919
 2293SOL    HW1 2189   2.786   2.273   3.870
 2293SOL    HW2 2190   2.746   2.116   3.890
 2299SOL     OW 2191   2.183   2.805   3.966
 2299SOL    HW1 2192   2.265   2.844   3.924
 2299SOL    HW2 2193   2.156   2.723   3.917
 2306SOL     OW 2194   2.476   1.984   3.841
 2306SOL    HW1 2195   2.574   1.962   3.848
 2306SOL    HW2 2196   2.445   1.967   3.748
 2309SOL     OW 2197   2.159   1.897   3.895
 2309SOL    HW1 2198   2.208   1.981   3.874
 2309SOL    HW2 2199   2.221   1.832   3.940
 2314SOL     OW 2200   2.894   2.411   3.740
 2314SOL    HW1 2201   2.853   2.493   3.701
 2314SOL    HW2 2202   2.958   2.437   3.813
 2318SOL     OW 2203   2.350   3.247   3.898
 2318SOL    HW1 2204   2.263   3.232   3.945
 2318SOL    HW2 2205   2.333   3.273   3.803
 2320SOL     OW 2206   3.252   2.437   3.802
 2320SOL    HW1 2207   3.198   2.416   3.883
 2320SOL    HW2 2208   3.343   2.396   3.811
 2321SOL     OW 2209   2.389   2.118   4.052
 2321SOL    HW1 2210   2.416   2.059   3.977
 2321SOL    HW2 2211   2.389   2.213   4.021
 2332SOL     OW 2212   3.165   2.700   3.766
 2332SOL    HW1 2213   3.199   2.607   3.781
 2332SOL    HW2 2214   3.183   2.727   3.671
 2337SOL     OW 2215   2.677   2.434   4.049
 2337SOL    HW1 2216   2.684   2.345   4.003
 2337SOL    HW2 2217   2.583   2.468   4.041
 2338SOL     OW 2218   2.335   2.362   3.915
 2338SOL    HW1 2219   2.396   2.442   3.919
 2338SOL    HW2 2220   2.240   2.393   3.922
 2348SOL     OW 2221   2.778   2.772   4.015
 2348SOL    HW1 2222   2.841   2.810   3.947
 2348SOL    HW2 2223   2.818   2.689   4.054
 2353SOL     OW 2224   1.937   2.207   3.757
 2353SOL    HW1 2225   1.845   2.179   3.728
 2353SOL    HW2 2226   1.968   2.284   3.701
 2354SOL     OW 2227   1.934   2.028   4.042
 2354SOL    HW1 2228   1.917   2.111   3.988
 2354SOL    HW2 2229   2.024   1.991   4.020
 2358SOL     OW 2230   2.721   3.236   3.740
 2358SOL    HW1 2231   2.675   3.251   3.828
 2358SOL    HW2 2232   2.765   3.321   3.710
 2361SOL     OW 2233   2.945   2.846   3.811
 2361SOL    HW1 2234   2.922   2.899   3.729
 2361SOL    HW2 2235   3.026   2.790   3.792
 2385SOL     OW 2236   2.179   3.975   1.801
 2385SOL    HW1 2237   2.250   4.046   1.807
 2385SOL    HW2 2238   2.091   4.014   1.829
 2402SOL     OW 2239   2.643   3.988   1.749
 2402SOL    HW1 2240   2.710   3.927   1.792
 2402SOL    HW2 2241   2.570   4.007   1.814
 2418SOL     OW 2242   2.777   3.813   1.402
 2418SOL    HW1 2243   2.802   3.793   1.307
 2418SOL    HW2 2244   2.849   3.869   1.444
 2425SOL     OW 2245   2.875   3.829   1.770
 2425SOL    HW1 2246   2.881   3.914   1.718
 2425SOL    HW2 2247   2.907   3.753   1.713
 2426SOL     OW 2248   2.366   3.774   1.740
 2426SOL    HW1 2249   2.324   3.717   1.670
 2426SOL    HW2 2250   2.300   3.843   1.772
 2477SOL     OW 2251   2.087   3.999   2.858
 2477SOL    HW1 2252   2.122   3.982   2.950
 2477SOL    HW2 2253   1.999   3.954   2.846
 2488SOL     OW 2254   2.671   3.728   2.364
 2488SOL    HW1 2255   2.711   3.819   2.355
 2488SOL    HW2 2256   2.571   3.736   2.370
 2498SOL     OW 2257   2.727   4.072   2.057
 2498SOL    HW1 2258   2.786   4.135   2.008
 2498SOL    HW2 2259   2.746   3.978   2.028
 2500SOL     OW 2260   2.412   3.920   2.747
 2500SOL    HW1 2261   2.407   3.915   2.847
 2500SOL    HW2 2262   2.414   4.016   2.718
 2503SOL     OW 2263   3.262   3.831   2.288
 2503SOL    HW1 2264   3.238   3.794   2.198
 2503SOL    HW2 2265   3.361   3.847   2.292
 2506SOL     OW 2266   2.476   3.846   1.979
 2506SOL    HW1 2267   2.574   3.824   1.986
 2506SOL    HW2 2268   2.445   3.829   1.886
 2510SOL     OW 2269   2.401   3.788   2.374
 2510SOL    HW1 2270   2.320   3.789   2.432
 2510SOL    HW2 2271   2.404   3.871   2.319
 2511SOL     OW 2272   2.159   3.759   2.033
 2511SOL    HW1 2273   2.208   3.843   2.012
 2511SOL    HW2 2274   2.221   3.694   2.078
 2512SOL     OW 2275   2.797   3.960   2.342
 2512SOL    HW1 2276   2.749   4.001   2.264
 2512SOL    HW2 2277   2.896   3.958   2.323
 2516SOL     OW 2278   2.423   3.946   3.009
 2516SOL    HW1 2279   2.461   3.862   3.046
 2516SOL    HW2 2280   2.335   3.965   3.053
 2518SOL     OW 2281   2.879   3.763   2.615
 2518SOL    HW1 2282   2.807   3.768   2.546
 2518SOL    HW2 2283   2.855   3.694   2.684
 2522SOL     OW 2284   2.389   3.980   2.190
 2522SOL    HW1 2285   2.416   3.921   2.115
 2522SOL    HW2 2286   2.389   4.075   2.159
 2523SOL     OW 2287   2.777   3.813   3.264
 2523SOL    HW1 2288   2.802   3.793   3.169
 2523SOL    HW2 2289   2.849   3.869   3.306
 2535SOL     OW 2290   2.169   3.937   3.093
 2535SOL    HW1 2291   2.146   3.974   3.183
 2535SOL    HW2 2292   2.139   3.842   3.087
 2538SOL     OW 2293   2.169   3.787   2.480
 2538SOL    HW1 2294   2.158   3.881   2.513
 2538SOL    HW2 2295   2.164   3.724   2.557
 2558SOL     OW 2296   2.125   4.050   2.582
 2558SOL    HW1 2297   2.046   4.101   2.548
 2558SOL    HW2 2298   2.116   4.035   2.680
 2560SOL     OW 2299   2.876   3.960   2.833
 2560SOL    HW1 2300   2.868   3.924   2.740
 2560SOL    HW2 2301   2.874   3.884   2.898
 2566SOL     OW 2302   1.934   3.890   2.180
 2566SOL    HW1 2303   1.917   3.973   2.126
 2566SOL    HW2 2304   2.024   3.853   2.158
 2578SOL     OW 2305   2.863   3.758   3.016
 2578SOL    HW1 2306   2.800   3.686   2.985
 2578SOL    HW2 2307   2.956   3.722   3.016
 2579SOL     OW 2308   3.214   3.776   2.030
 2579SOL    HW1 2309   3.249   3.735   1.946
 2579SOL    HW2 2310   3.124   3.738   2.050
 2660SOL     OW 2311   3.854   1.821   1.571
 2660SOL    HW1 2312   3.844   1.806   1.670
 2660SOL    HW2 2313   3.768   1.857   1.535
 2715SOL     OW 2314   3.854   1.794   1.851
 2715SOL    HW1 2315   3.813   1.720   1.904
 2715SOL    HW2 2316   3.918   1.845   1.909
 2753SOL     OW 2317   3.955   1.713   2.345
 2753SOL    HW1 2318   3.989   1.790   2.399
 2753SOL    HW2 2319   3.999   1.713   2.255
 2759SOL     OW 2320   3.751   1.596   1.979
 2759SOL    HW1 2321   3.732   1.500   2.000
 2759SOL    HW2 2322   3.718   1.654   2.054
 2810SOL     OW 2323   3.732   1.326   2.062
 2810SOL    HW1 2324   3.639   1.347   2.031
 2810SOL    HW2 2325   3.742   1.227   2.075
 2811SOL     OW 2326   3.812   1.801   2.789
 2811SOL    HW1 2327   3.770   1.715   2.762
 2811SOL    HW2 2328   3.906   1.804   2.755
 2925SOL     OW 2329   3.837   2.599   1.597
 2925SOL    HW1 2330   3.925   2.586   1.642
 2925SOL    HW2 2331   3.824   2.696   1.575
 2929SOL     OW 2332   4.041   2.113   1.801
 2929SOL    HW1 2333   4.112   2.184   1.807
 2929SOL    HW2 2334   3.953   2.152   1.829
 2951SOL     OW 2335   3.802   2.418   1.386
 2951SOL    HW1 2336   3.894   2.417   1.345
 2951SOL    HW2 2337   3.796   2.492   1.453
 2978SOL     OW 2338   3.913   2.382   1.722
 2978SOL    HW1 2339   3.972   2.342   1.652
 2978SOL    HW2 2340   3.855   2.453   1.681
 2996SOL     OW 2341   3.829   2.875   1.726
 2996SOL    HW1 2342   3.752   2.842   1.780
 2996SOL    HW2 2343   3.914   2.845   1.768
 3016SOL     OW 2344   3.954   2.490   1.975
 3016SOL    HW1 2345   3.861   2.488   2.012
 3016SOL    HW2 2346   3.955   2.451   1.883
 3017SOL     OW 2347   3.949   2.137   2.858
 3017SOL    HW1 2348   3.984   2.120   2.950
 3017SOL    HW2 2349   3.861   2.092   2.846
 3018SOL     OW 2350   3.743   2.230   2.509
 3018SOL    HW1 2351   3.661   2.273   2.548
 3018SOL    HW2 2352   3.715   2.157   2.446
 3028SOL     OW 2353   3.964   2.953   2.748
 3028SOL    HW1 2354   3.978   2.869   2.800
 3028SOL    HW2 2355   3.909   3.017   2.803
 3031SOL     OW 2356   3.846   2.505   2.425
 3031SOL    HW1 2357   3.801   2.417   2.442
 3031SOL    HW2 2358   3.845   2.559   2.509
 3040SOL     OW 2359   3.800   2.673   2.651
 3040SOL    HW1 2360   3.899   2.661   2.660
 3040SOL    HW2 2361   3.776   2.768   2.672
 3046SOL     OW 2362   4.045   2.805   2.104
 3046SOL    HW1 2363   4.127   2.844   2.062
 3046SOL    HW2 2364   4.018   2.723   2.055
 3052SOL     OW 2365   4.106   2.562   2.342
 3052SOL    HW1 2366   4.151   2.472   2.339
 3052SOL    HW2 2367   4.012   2.551   2.375
 3058SOL     OW 2368   4.021   1.897   2.033
 3058SOL    HW1 2369   4.070   1.981   2.012
 3058SOL    HW2 2370   4.083   1.832   2.078
 3060SOL     OW 2371   3.802   2.418   3.248
 3060SOL    HW1 2372   3.894   2.417   3.207
 3060SOL    HW2 2373   3.796   2.492   3.315
 3077SOL     OW 2374   4.031   1.925   2.480
 3077SOL    HW1 2375   4.020   2.019   2.513
 3077SOL    HW2 2376   4.026   1.862   2.557
 3081SOL     OW 2377   4.043   2.672   2.811
 3081SOL    HW1 2378   4.136   2.708   2.816
 3081SOL    HW2 2379   4.037   2.587   2.863
 3082SOL     OW 2380   4.063   2.371   2.868
 3082SOL    HW1 2381   4.011   2.288   2.851
 3082SOL    HW2 2382   4.140   2.376   2.804
 3083SOL     OW 2383   3.732   3.188   2.062
 3083SOL    HW1 2384   3.639   3.209   2.031
 3083SOL    HW2 2385   3.742   3.089   2.075
 3086SOL     OW 2386   3.764   2.406   2.976
 3086SOL    HW1 2387   3.849   2.373   2.935
 3086SOL    HW2 2388   3.777   2.421   3.074
 3093SOL     OW 2389   3.807   3.120   2.884
 3093SOL    HW1 2390   3.802   3.119   2.984
 3093SOL    HW2 2391   3.724   3.079   2.846
 3099SOL     OW 2392   3.987   2.188   2.582
 3099SOL    HW1 2393   3.908   2.239   2.548
 3099SOL    HW2 2394   3.978   2.173   2.680
 3106SOL     OW 2395   3.799   2.207   1.895
 3106SOL    HW1 2396   3.707   2.179   1.866
 3106SOL    HW2 2397   3.830   2.284   1.839
 3107SOL     OW 2398   3.796   2.028   2.180
 3107SOL    HW1 2399   3.779   2.111   2.126
 3107SOL    HW2 2400   3.886   1.991   2.158
 3115SOL     OW 2401   3.803   3.102   2.515
 3115SOL    HW1 2402   3.802   3.055   2.603
 3115SOL    HW2 2403   3.885   3.074   2.464
 3123SOL     OW 2404   3.763   2.939   2.162
 3123SOL    HW1 2405   3.862   2.928   2.153
 3123SOL    HW2 2406   3.723   2.853   2.194
   4.68717   4.68717   4.68717
