mobley_5157661_GMX.gro created by acpype (v: 2023.10.27) on Tue May 19 12:49:21 2026
 2399
    1MOL     C1    1   2.184   2.246   2.077
    1MOL     H1    2   2.242   2.166   2.030
    1MOL     H2    3   2.078   2.237   2.055
    1MOL     H3    4   2.212   2.345   2.043
    1MOL     C4    5   2.206   2.246   2.228
    1MOL     H5    6   2.160   2.332   2.276
    1MOL     C3    7   2.123   2.132   2.287
    1MOL     H6    8   2.116   2.116   2.394
    1MOL     H7    9   2.138   2.030   2.249
    1MOL     H8   10   2.027   2.159   2.243
    1MOL     C2   11   2.352   2.255   2.273
    1MOL     H9   12   2.363   2.184   2.355
    1MOL    H10   13   2.386   2.358   2.286
    1MOL     H4   14   2.421   2.203   2.207
    6SOL     OW   15   1.555   1.511   0.703
    6SOL    HW1   16   1.498   1.495   0.784
    6SOL    HW2   17   1.496   1.521   0.623
   14SOL     OW   18   1.460   1.505   1.339
   14SOL    HW1   19   1.484   1.599   1.365
   14SOL    HW2   20   1.444   1.451   1.421
   18SOL     OW   21   1.127   1.341   1.690
   18SOL    HW1   22   1.174   1.341   1.778
   18SOL    HW2   23   1.079   1.254   1.679
   31SOL     OW   24   1.293   1.228   1.423
   31SOL    HW1   25   1.330   1.155   1.365
   31SOL    HW2   26   1.345   1.233   1.508
   35SOL     OW   27   1.187   1.792   1.616
   35SOL    HW1   28   1.211   1.852   1.540
   35SOL    HW2   29   1.194   1.697   1.586
   37SOL     OW   30   1.466   1.417   0.953
   37SOL    HW1   31   1.407   1.423   1.033
   37SOL    HW2   32   1.451   1.329   0.907
   50SOL     OW   33   1.719   0.585   1.831
   50SOL    HW1   34   1.693   0.674   1.795
   50SOL    HW2   35   1.717   0.517   1.758
   56SOL     OW   36   1.227   1.550   1.506
   56SOL    HW1   37   1.233   1.473   1.570
   56SOL    HW2   38   1.175   1.524   1.426
   95SOL     OW   39   1.754   1.223   1.588
   95SOL    HW1   40   1.845   1.184   1.575
   95SOL    HW2   41   1.762   1.319   1.612
   96SOL     OW   42   1.064   1.347   1.340
   96SOL    HW1   43   0.984   1.324   1.395
   96SOL    HW2   44   1.147   1.321   1.389
   97SOL     OW   45   1.592   1.629   1.625
   97SOL    HW1   46   1.619   1.663   1.535
   97SOL    HW2   47   1.671   1.591   1.671
   99SOL     OW   48   1.638   1.099   1.079
   99SOL    HW1   49   1.643   1.180   1.138
   99SOL    HW2   50   1.552   1.101   1.028
  101SOL     OW   51   0.980   1.116   1.719
  101SOL    HW1   52   0.881   1.122   1.729
  101SOL    HW2   53   1.003   1.036   1.663
  109SOL     OW   54   1.272   1.445   1.142
  109SOL    HW1   55   1.319   1.458   1.229
  109SOL    HW2   56   1.206   1.371   1.151
  113SOL     OW   57   1.587   0.779   1.670
  113SOL    HW1   58   1.495   0.817   1.665
  113SOL    HW2   59   1.647   0.826   1.605
  122SOL     OW   60   1.728   0.935   1.854
  122SOL    HW1   61   1.682   0.928   1.765
  122SOL    HW2   62   1.666   0.979   1.920
  126SOL     OW   63   0.980   1.573   1.700
  126SOL    HW1   64   0.960   1.617   1.612
  126SOL    HW2   65   1.019   1.482   1.684
  127SOL     OW   66   1.859   1.518   1.605
  127SOL    HW1   67   1.873   1.545   1.510
  127SOL    HW2   68   1.942   1.540   1.658
  142SOL     OW   69   1.369   0.950   1.660
  142SOL    HW1   70   1.408   1.039   1.680
  142SOL    HW2   71   1.379   0.930   1.563
  147SOL     OW   72   0.930   1.678   1.465
  147SOL    HW1   73   0.906   1.660   1.370
  147SOL    HW2   74   0.960   1.772   1.475
  150SOL     OW   75   1.347   1.059   1.234
  150SOL    HW1   76   1.371   0.996   1.160
  150SOL    HW2   77   1.257   1.099   1.216
  152SOL     OW   78   1.759   1.747   1.154
  152SOL    HW1   79   1.820   1.777   1.081
  152SOL    HW2   80   1.721   1.658   1.132
  153SOL     OW   81   1.252   1.731   1.128
  153SOL    HW1   82   1.336   1.736   1.074
  153SOL    HW2   83   1.229   1.635   1.146
  155SOL     OW   84   0.688   1.662   1.716
  155SOL    HW1   85   0.632   1.743   1.725
  155SOL    HW2   86   0.740   1.666   1.630
  163SOL     OW   87   1.650   1.720   1.394
  163SOL    HW1   88   1.703   1.730   1.310
  163SOL    HW2   89   1.623   1.810   1.428
  171SOL     OW   90   1.614   1.292   1.289
  171SOL    HW1   91   1.674   1.295   1.369
  171SOL    HW2   92   1.539   1.356   1.302
  180SOL     OW   93   1.440   0.856   1.398
  180SOL    HW1   94   1.383   0.908   1.335
  180SOL    HW2   95   1.536   0.868   1.374
  184SOL     OW   96   1.493   1.767   0.959
  184SOL    HW1   97   1.526   1.831   0.890
  184SOL    HW2   98   1.559   1.761   1.034
  186SOL     OW   99   1.450   1.220   1.633
  186SOL    HW1  100   1.441   1.210   1.732
  186SOL    HW2  101   1.546   1.213   1.607
  188SOL     OW  102   1.674   0.883   1.254
  188SOL    HW1  103   1.647   0.794   1.217
  188SOL    HW2  104   1.675   0.951   1.181
  192SOL     OW  105   1.730   0.934   1.517
  192SOL    HW1  106   1.768   1.025   1.532
  192SOL    HW2  107   1.722   0.917   1.418
  197SOL     OW  108   1.861   1.569   0.851
  197SOL    HW1  109   1.790   1.557   0.781
  197SOL    HW2  110   1.862   1.490   0.911
  203SOL     OW  111   1.705   1.487   1.104
  203SOL    HW1  112   1.612   1.462   1.077
  203SOL    HW2  113   1.731   1.437   1.186
  219SOL     OW  114   1.555   1.511   2.565
  219SOL    HW1  115   1.498   1.495   2.646
  219SOL    HW2  116   1.496   1.521   2.485
  221SOL     OW  117   1.755   0.607   2.093
  221SOL    HW1  118   1.743   0.594   1.994
  221SOL    HW2  119   1.725   0.526   2.142
  227SOL     OW  120   1.460   1.505   3.201
  227SOL    HW1  121   1.484   1.599   3.227
  227SOL    HW2  122   1.444   1.451   3.283
  238SOL     OW  123   1.842   1.767   2.221
  238SOL    HW1  124   1.896   1.738   2.301
  238SOL    HW2  125   1.872   1.857   2.192
  240SOL     OW  126   1.689   0.922   2.474
  240SOL    HW1  127   1.784   0.893   2.482
  240SOL    HW2  128   1.681   0.987   2.399
  241SOL     OW  129   1.641   1.108   2.294
  241SOL    HW1  130   1.727   1.110   2.242
  241SOL    HW2  131   1.655   1.155   2.382
  244SOL     OW  132   1.293   1.228   3.285
  244SOL    HW1  133   1.330   1.155   3.227
  244SOL    HW2  134   1.345   1.233   3.370
  247SOL     OW  135   1.525   0.999   2.052
  247SOL    HW1  136   1.462   0.923   2.065
  247SOL    HW2  137   1.573   1.017   2.138
  248SOL     OW  138   1.187   1.792   3.478
  248SOL    HW1  139   1.211   1.852   3.402
  248SOL    HW2  140   1.194   1.697   3.448
  250SOL     OW  141   1.466   1.417   2.815
  250SOL    HW1  142   1.407   1.423   2.895
  250SOL    HW2  143   1.451   1.329   2.769
  251SOL     OW  144   1.667   1.714   2.434
  251SOL    HW1  145   1.626   1.691   2.346
  251SOL    HW2  146   1.649   1.640   2.499
  254SOL     OW  147   1.576   1.662   2.169
  254SOL    HW1  148   1.665   1.708   2.172
  254SOL    HW2  149   1.555   1.638   2.074
  264SOL     OW  150   1.362   1.144   2.407
  264SOL    HW1  151   1.445   1.115   2.359
  264SOL    HW2  152   1.313   1.211   2.351
  266SOL     OW  153   1.008   1.456   2.339
  266SOL    HW1  154   0.962   1.528   2.287
  266SOL    HW2  155   1.004   1.476   2.437
  268SOL     OW  156   1.795   1.066   2.735
  268SOL    HW1  157   1.733   1.051   2.659
  268SOL    HW2  158   1.743   1.077   2.820
  269SOL     OW  159   1.227   1.550   3.368
  269SOL    HW1  160   1.233   1.473   3.432
  269SOL    HW2  161   1.175   1.524   3.288
  271SOL     OW  162   1.458   0.735   2.590
  271SOL    HW1  163   1.453   0.670   2.665
  271SOL    HW2  164   1.538   0.794   2.603
  273SOL     OW  165   1.111   1.776   2.099
  273SOL    HW1  166   1.051   1.714   2.149
  273SOL    HW2  167   1.142   1.732   2.014
  275SOL     OW  168   1.632   1.377   1.943
  275SOL    HW1  169   1.600   1.471   1.933
  275SOL    HW2  170   1.556   1.314   1.931
  279SOL     OW  171   0.940   1.698   2.766
  279SOL    HW1  172   1.020   1.641   2.787
  279SOL    HW2  173   0.891   1.658   2.689
  284SOL     OW  174   0.888   1.514   3.057
  284SOL    HW1  175   0.865   1.489   2.963
  284SOL    HW2  176   0.949   1.445   3.096
  286SOL     OW  177   0.803   1.402   2.786
  286SOL    HW1  178   0.893   1.416   2.744
  286SOL    HW2  179   0.732   1.404   2.715
  289SOL     OW  180   1.434   1.188   1.903
  289SOL    HW1  181   1.466   1.112   1.960
  289SOL    HW2  182   1.342   1.215   1.933
  293SOL     OW  183   1.227   1.570   2.655
  293SOL    HW1  184   1.248   1.644   2.590
  293SOL    HW2  185   1.295   1.570   2.728
  295SOL     OW  186   1.271   1.797   2.453
  295SOL    HW1  187   1.315   1.861   2.389
  295SOL    HW2  188   1.221   1.849   2.523
  301SOL     OW  189   1.429   1.173   2.729
  301SOL    HW1  190   1.374   1.089   2.722
  301SOL    HW2  191   1.455   1.202   2.637
  303SOL     OW  192   1.857   0.833   2.239
  303SOL    HW1  193   1.899   0.769   2.303
  303SOL    HW2  194   1.819   0.782   2.161
  305SOL     OW  195   1.664   1.280   2.519
  305SOL    HW1  196   1.763   1.288   2.533
  305SOL    HW2  197   1.619   1.364   2.550
  308SOL     OW  198   1.754   1.223   3.450
  308SOL    HW1  199   1.845   1.184   3.437
  308SOL    HW2  200   1.762   1.319   3.474
  309SOL     OW  201   1.064   1.347   3.202
  309SOL    HW1  202   0.984   1.324   3.257
  309SOL    HW2  203   1.147   1.321   3.251
  310SOL     OW  204   1.592   1.629   3.487
  310SOL    HW1  205   1.619   1.663   3.397
  310SOL    HW2  206   1.671   1.591   3.533
  311SOL     OW  207   1.111   1.195   2.962
  311SOL    HW1  208   1.071   1.239   3.043
  311SOL    HW2  209   1.070   1.232   2.879
  312SOL     OW  210   1.638   1.099   2.941
  312SOL    HW1  211   1.643   1.180   3.000
  312SOL    HW2  212   1.552   1.101   2.890
  321SOL     OW  213   1.252   1.348   2.250
  321SOL    HW1  214   1.302   1.425   2.290
  321SOL    HW2  215   1.157   1.350   2.282
  322SOL     OW  216   1.272   1.445   3.004
  322SOL    HW1  217   1.319   1.458   3.091
  322SOL    HW2  218   1.206   1.371   3.013
  323SOL     OW  219   1.582   0.639   2.334
  323SOL    HW1  220   1.551   0.700   2.407
  323SOL    HW2  221   1.632   0.691   2.265
  330SOL     OW  222   1.360   0.862   2.907
  330SOL    HW1  223   1.285   0.862   2.841
  330SOL    HW2  224   1.397   0.770   2.916
  340SOL     OW  225   1.859   1.518   3.467
  340SOL    HW1  226   1.873   1.545   3.372
  340SOL    HW2  227   1.942   1.540   3.520
  343SOL     OW  228   1.303   0.838   1.904
  343SOL    HW1  229   1.337   0.745   1.919
  343SOL    HW2  230   1.321   0.865   1.809
  344SOL     OW  231   1.068   1.333   2.711
  344SOL    HW1  232   1.075   1.249   2.656
  344SOL    HW2  233   1.130   1.402   2.675
  360SOL     OW  234   0.930   1.678   3.327
  360SOL    HW1  235   0.906   1.660   3.232
  360SOL    HW2  236   0.960   1.772   3.337
  363SOL     OW  237   1.347   1.059   3.096
  363SOL    HW1  238   1.371   0.996   3.022
  363SOL    HW2  239   1.257   1.099   3.078
  364SOL     OW  240   1.302   0.855   2.171
  364SOL    HW1  241   1.216   0.824   2.213
  364SOL    HW2  242   1.298   0.841   2.072
  365SOL     OW  243   1.759   1.747   3.016
  365SOL    HW1  244   1.820   1.777   2.943
  365SOL    HW2  245   1.721   1.658   2.994
  366SOL     OW  246   1.252   1.731   2.990
  366SOL    HW1  247   1.336   1.736   2.936
  366SOL    HW2  248   1.229   1.635   3.008
  370SOL     OW  249   1.388   1.573   2.339
  370SOL    HW1  250   1.455   1.585   2.265
  370SOL    HW2  251   1.348   1.662   2.362
  372SOL     OW  252   1.280   0.927   2.534
  372SOL    HW1  253   1.340   0.846   2.536
  372SOL    HW2  254   1.320   0.996   2.474
  374SOL     OW  255   0.672   1.616   2.016
  374SOL    HW1  256   0.681   1.626   1.917
  374SOL    HW2  257   0.632   1.527   2.037
  375SOL     OW  258   1.650   1.720   3.256
  375SOL    HW1  259   1.703   1.730   3.172
  375SOL    HW2  260   1.623   1.810   3.290
  378SOL     OW  261   1.194   1.612   1.893
  378SOL    HW1  262   1.200   1.519   1.930
  378SOL    HW2  263   1.135   1.612   1.813
  381SOL     OW  264   1.504   1.607   1.906
  381SOL    HW1  265   1.412   1.644   1.913
  381SOL    HW2  266   1.542   1.627   1.816
  383SOL     OW  267   1.614   1.292   3.151
  383SOL    HW1  268   1.674   1.295   3.231
  383SOL    HW2  269   1.539   1.356   3.164
  384SOL     OW  270   1.039   1.098   2.558
  384SOL    HW1  271   0.969   1.051   2.612
  384SOL    HW2  272   1.098   1.030   2.515
  386SOL     OW  273   0.590   1.487   2.353
  386SOL    HW1  274   0.632   1.429   2.283
  386SOL    HW2  275   0.546   1.566   2.309
  394SOL     OW  276   1.183   1.335   1.981
  394SOL    HW1  277   1.084   1.324   1.983
  394SOL    HW2  278   1.217   1.350   2.074
  396SOL     OW  279   1.493   1.767   2.821
  396SOL    HW1  280   1.526   1.831   2.752
  396SOL    HW2  281   1.559   1.761   2.896
  398SOL     OW  282   1.450   1.220   3.495
  398SOL    HW1  283   1.441   1.210   3.594
  398SOL    HW2  284   1.546   1.213   3.469
  400SOL     OW  285   1.674   0.883   3.116
  400SOL    HW1  286   1.647   0.794   3.079
  400SOL    HW2  287   1.675   0.951   3.043
  404SOL     OW  288   1.730   0.934   3.379
  404SOL    HW1  289   1.768   1.025   3.394
  404SOL    HW2  290   1.722   0.917   3.280
  405SOL     OW  291   0.859   1.374   1.878
  405SOL    HW1  292   0.813   1.389   1.966
  405SOL    HW2  293   0.903   1.459   1.848
  406SOL     OW  294   0.661   1.790   2.815
  406SOL    HW1  295   0.615   1.878   2.802
  406SOL    HW2  296   0.760   1.802   2.808
  408SOL     OW  297   1.083   0.984   1.949
  408SOL    HW1  298   1.060   1.037   1.867
  408SOL    HW2  299   1.164   0.928   1.930
  409SOL     OW  300   1.861   1.569   2.713
  409SOL    HW1  301   1.790   1.557   2.643
  409SOL    HW2  302   1.862   1.490   2.773
  415SOL     OW  303   1.705   1.487   2.966
  415SOL    HW1  304   1.612   1.462   2.939
  415SOL    HW2  305   1.731   1.437   3.048
  417SOL     OW  306   0.812   1.586   2.549
  417SOL    HW1  307   0.844   1.596   2.455
  417SOL    HW2  308   0.733   1.524   2.551
  420SOL     OW  309   0.770   1.330   2.163
  420SOL    HW1  310   0.724   1.243   2.180
  420SOL    HW2  311   0.861   1.327   2.204
  426SOL     OW  312   0.875   1.646   2.199
  426SOL    HW1  313   0.798   1.611   2.145
  426SOL    HW2  314   0.843   1.717   2.261
  512SOL     OW  315   0.850   2.660   1.823
  512SOL    HW1  316   0.846   2.736   1.888
  512SOL    HW2  317   0.872   2.696   1.732
  514SOL     OW  318   0.686   3.023   1.803
  514SOL    HW1  319   0.746   3.102   1.817
  514SOL    HW2  320   0.600   3.054   1.762
  516SOL     OW  321   1.460   3.367   1.339
  516SOL    HW1  322   1.484   3.461   1.365
  516SOL    HW2  323   1.444   3.313   1.421
  518SOL     OW  324   1.603   2.309   0.737
  518SOL    HW1  325   1.529   2.355   0.687
  518SOL    HW2  326   1.654   2.377   0.790
  520SOL     OW  327   1.127   3.203   1.690
  520SOL    HW1  328   1.174   3.203   1.778
  520SOL    HW2  329   1.079   3.116   1.679
  525SOL     OW  330   1.594   1.976   1.480
  525SOL    HW1  331   1.576   2.043   1.408
  525SOL    HW2  332   1.591   2.022   1.569
  529SOL     OW  333   1.689   2.784   0.612
  529SOL    HW1  334   1.784   2.755   0.620
  529SOL    HW2  335   1.681   2.849   0.537
  533SOL     OW  336   1.293   3.090   1.423
  533SOL    HW1  337   1.330   3.017   1.365
  533SOL    HW2  338   1.345   3.095   1.508
  542SOL     OW  339   1.281   2.207   0.944
  542SOL    HW1  340   1.195   2.157   0.931
  542SOL    HW2  341   1.343   2.153   1.000
  544SOL     OW  342   0.807   2.467   1.465
  544SOL    HW1  343   0.760   2.464   1.554
  544SOL    HW2  344   0.756   2.412   1.399
  545SOL     OW  345   1.394   2.331   1.674
  545SOL    HW1  346   1.374   2.374   1.762
  545SOL    HW2  347   1.472   2.269   1.683
  546SOL     OW  348   0.973   2.752   1.572
  546SOL    HW1  349   1.019   2.668   1.543
  546SOL    HW2  350   0.917   2.786   1.497
  547SOL     OW  351   0.991   2.272   1.242
  547SOL    HW1  352   0.914   2.306   1.296
  547SOL    HW2  353   0.957   2.221   1.163
  552SOL     OW  354   1.719   2.447   1.831
  552SOL    HW1  355   1.693   2.536   1.795
  552SOL    HW2  356   1.717   2.379   1.758
  557SOL     OW  357   1.795   2.928   0.873
  557SOL    HW1  358   1.733   2.913   0.797
  557SOL    HW2  359   1.743   2.939   0.958
  558SOL     OW  360   1.227   3.412   1.506
  558SOL    HW1  361   1.233   3.335   1.570
  558SOL    HW2  362   1.175   3.386   1.426
  560SOL     OW  363   1.458   2.597   0.728
  560SOL    HW1  364   1.453   2.532   0.803
  560SOL    HW2  365   1.538   2.656   0.741
  570SOL     OW  366   1.547   2.084   1.729
  570SOL    HW1  367   1.542   2.121   1.821
  570SOL    HW2  368   1.475   2.015   1.717
  572SOL     OW  369   0.781   2.126   1.749
  572SOL    HW1  370   0.848   2.065   1.792
  572SOL    HW2  371   0.708   2.145   1.814
  574SOL     OW  372   1.351   2.452   1.433
  574SOL    HW1  373   1.379   2.409   1.518
  574SOL    HW2  374   1.376   2.548   1.434
  580SOL     OW  375   1.076   2.545   1.464
  580SOL    HW1  376   0.996   2.484   1.467
  580SOL    HW2  377   1.157   2.492   1.440
  589SOL     OW  378   1.429   3.035   0.867
  589SOL    HW1  379   1.374   2.951   0.860
  589SOL    HW2  380   1.455   3.064   0.775
  590SOL     OW  381   1.466   2.452   0.992
  590SOL    HW1  382   1.436   2.357   0.999
  590SOL    HW2  383   1.539   2.468   1.058
  596SOL     OW  384   1.754   3.085   1.588
  596SOL    HW1  385   1.845   3.046   1.575
  596SOL    HW2  386   1.762   3.181   1.612
  597SOL     OW  387   1.064   3.209   1.340
  597SOL    HW1  388   0.984   3.186   1.395
  597SOL    HW2  389   1.147   3.183   1.389
  598SOL     OW  390   1.592   3.491   1.625
  598SOL    HW1  391   1.619   3.525   1.535
  598SOL    HW2  392   1.671   3.453   1.671
  599SOL     OW  393   1.111   3.057   1.100
  599SOL    HW1  394   1.071   3.101   1.181
  599SOL    HW2  395   1.070   3.094   1.017
  600SOL     OW  396   1.638   2.961   1.079
  600SOL    HW1  397   1.643   3.042   1.138
  600SOL    HW2  398   1.552   2.963   1.028
  601SOL     OW  399   0.915   1.951   1.402
  601SOL    HW1  400   0.940   1.931   1.307
  601SOL    HW2  401   0.987   2.007   1.444
  602SOL     OW  402   0.980   2.978   1.719
  602SOL    HW1  403   0.881   2.984   1.729
  602SOL    HW2  404   1.003   2.898   1.663
  605SOL     OW  405   1.274   2.248   1.262
  605SOL    HW1  406   1.295   2.322   1.326
  605SOL    HW2  407   1.185   2.265   1.219
  610SOL     OW  408   1.272   3.307   1.142
  610SOL    HW1  409   1.319   3.320   1.229
  610SOL    HW2  410   1.206   3.233   1.151
  614SOL     OW  411   1.587   2.641   1.670
  614SOL    HW1  412   1.495   2.679   1.665
  614SOL    HW2  413   1.647   2.688   1.605
  615SOL     OW  414   1.013   1.967   1.770
  615SOL    HW1  415   1.019   2.052   1.718
  615SOL    HW2  416   1.045   1.891   1.713
  618SOL     OW  417   1.360   2.724   1.045
  618SOL    HW1  418   1.285   2.724   0.979
  618SOL    HW2  419   1.397   2.632   1.054
  623SOL     OW  420   1.728   2.797   1.854
  623SOL    HW1  421   1.682   2.790   1.765
  623SOL    HW2  422   1.666   2.841   1.920
  626SOL     OW  423   1.023   2.628   0.966
  626SOL    HW1  424   1.038   2.649   1.062
  626SOL    HW2  425   0.993   2.533   0.957
  628SOL     OW  426   1.859   3.380   1.605
  628SOL    HW1  427   1.873   3.407   1.510
  628SOL    HW2  428   1.942   3.402   1.658
  635SOL     OW  429   1.138   2.242   1.678
  635SOL    HW1  430   1.093   2.305   1.742
  635SOL    HW2  431   1.231   2.273   1.661
  636SOL     OW  432   1.160   2.069   1.477
  636SOL    HW1  433   1.160   2.133   1.554
  636SOL    HW2  434   1.188   2.117   1.394
  640SOL     OW  435   1.002   2.658   1.238
  640SOL    HW1  436   1.043   2.626   1.324
  640SOL    HW2  437   0.906   2.631   1.235
  643SOL     OW  438   1.369   2.812   1.660
  643SOL    HW1  439   1.408   2.901   1.680
  643SOL    HW2  440   1.379   2.792   1.563
  645SOL     OW  441   1.657   2.466   1.206
  645SOL    HW1  442   1.619   2.397   1.268
  645SOL    HW2  443   1.739   2.430   1.162
  651SOL     OW  444   1.347   2.921   1.234
  651SOL    HW1  445   1.371   2.858   1.160
  651SOL    HW2  446   1.257   2.961   1.216
  658SOL     OW  447   1.726   1.997   0.523
  658SOL    HW1  448   1.799   1.980   0.456
  658SOL    HW2  449   1.695   1.910   0.561
  664SOL     OW  450   1.650   3.582   1.394
  664SOL    HW1  451   1.703   3.592   1.310
  664SOL    HW2  452   1.623   3.672   1.428
  665SOL     OW  453   1.841   2.037   0.963
  665SOL    HW1  454   1.880   1.952   0.927
  665SOL    HW2  455   1.743   2.039   0.944
  668SOL     OW  456   0.822   2.864   1.372
  668SOL    HW1  457   0.862   2.863   1.280
  668SOL    HW2  458   0.832   2.956   1.412
  672SOL     OW  459   1.614   3.154   1.289
  672SOL    HW1  460   1.674   3.157   1.369
  672SOL    HW2  461   1.539   3.218   1.302
  674SOL     OW  462   1.014   2.098   0.971
  674SOL    HW1  463   1.006   2.062   0.878
  674SOL    HW2  464   1.012   2.022   1.036
  676SOL     OW  465   1.709   2.247   1.381
  676SOL    HW1  466   1.782   2.316   1.385
  676SOL    HW2  467   1.737   2.172   1.322
  679SOL     OW  468   0.672   2.065   1.489
  679SOL    HW1  469   0.762   2.049   1.449
  679SOL    HW2  470   0.680   2.070   1.588
  681SOL     OW  471   1.440   2.718   1.398
  681SOL    HW1  472   1.383   2.770   1.335
  681SOL    HW2  473   1.536   2.730   1.374
  686SOL     OW  474   0.716   2.427   1.708
  686SOL    HW1  475   0.735   2.492   1.782
  686SOL    HW2  476   0.776   2.347   1.717
  687SOL     OW  477   1.450   3.082   1.633
  687SOL    HW1  478   1.441   3.072   1.732
  687SOL    HW2  479   1.546   3.075   1.607
  689SOL     OW  480   1.674   2.745   1.254
  689SOL    HW1  481   1.647   2.656   1.217
  689SOL    HW2  482   1.675   2.813   1.181
  692SOL     OW  483   1.777   2.204   1.642
  692SOL    HW1  484   1.760   2.235   1.548
  692SOL    HW2  485   1.693   2.167   1.680
  693SOL     OW  486   1.730   2.796   1.517
  693SOL    HW1  487   1.768   2.887   1.532
  693SOL    HW2  488   1.722   2.779   1.418
  702SOL     OW  489   1.824   2.054   1.227
  702SOL    HW1  490   1.820   1.964   1.271
  702SOL    HW2  491   1.827   2.043   1.128
  704SOL     OW  492   1.705   3.349   1.104
  704SOL    HW1  493   1.612   3.324   1.077
  704SOL    HW2  494   1.731   3.299   1.186
  707SOL     OW  495   1.424   2.076   1.112
  707SOL    HW1  496   1.476   2.011   1.167
  707SOL    HW2  497   1.375   2.139   1.173
  708SOL     OW  498   1.001   1.896   1.154
  708SOL    HW1  499   0.938   1.824   1.123
  708SOL    HW2  500   1.094   1.860   1.154
  712SOL     OW  501   1.300   2.315   0.691
  712SOL    HW1  502   1.241   2.395   0.695
  712SOL    HW2  503   1.315   2.280   0.784
  713SOL     OW  504   1.593   2.083   0.882
  713SOL    HW1  505   1.509   2.082   0.936
  713SOL    HW2  506   1.595   2.166   0.826
  720SOL     OW  507   1.555   3.373   2.565
  720SOL    HW1  508   1.498   3.357   2.646
  720SOL    HW2  509   1.496   3.383   2.485
  721SOL     OW  510   1.135   2.565   2.579
  721SOL    HW1  511   1.192   2.643   2.554
  721SOL    HW2  512   1.075   2.591   2.655
  722SOL     OW  513   1.755   2.469   2.093
  722SOL    HW1  514   1.743   2.456   1.994
  722SOL    HW2  515   1.725   2.388   2.142
  723SOL     OW  516   0.768   3.006   2.885
  723SOL    HW1  517   0.690   3.023   2.945
  723SOL    HW2  518   0.802   3.093   2.849
  725SOL     OW  519   0.685   2.874   2.527
  725SOL    HW1  520   0.754   2.858   2.597
  725SOL    HW2  521   0.612   2.931   2.565
  728SOL     OW  522   1.460   3.367   3.201
  728SOL    HW1  523   1.484   3.461   3.227
  728SOL    HW2  524   1.444   3.313   3.283
  730SOL     OW  525   1.603   2.309   2.599
  730SOL    HW1  526   1.529   2.355   2.549
  730SOL    HW2  527   1.654   2.377   2.652
  736SOL     OW  528   0.606   2.826   1.985
  736SOL    HW1  529   0.613   2.910   1.931
  736SOL    HW2  530   0.652   2.839   2.073
  737SOL     OW  531   1.594   1.976   3.342
  737SOL    HW1  532   1.576   2.043   3.270
  737SOL    HW2  533   1.591   2.022   3.431
  739SOL     OW  534   1.842   3.629   2.221
  739SOL    HW1  535   1.896   3.600   2.301
  739SOL    HW2  536   1.872   3.719   2.192
  741SOL     OW  537   1.689   2.784   2.474
  741SOL    HW1  538   1.784   2.755   2.482
  741SOL    HW2  539   1.681   2.849   2.399
  742SOL     OW  540   1.641   2.970   2.294
  742SOL    HW1  541   1.727   2.972   2.242
  742SOL    HW2  542   1.655   3.017   2.382
  745SOL     OW  543   1.293   3.090   3.285
  745SOL    HW1  544   1.330   3.017   3.227
  745SOL    HW2  545   1.345   3.095   3.370
  746SOL     OW  546   0.809   1.866   2.364
  746SOL    HW1  547   0.849   1.957   2.355
  746SOL    HW2  548   0.709   1.874   2.370
  748SOL     OW  549   1.525   2.861   2.052
  748SOL    HW1  550   1.462   2.785   2.065
  748SOL    HW2  551   1.573   2.879   2.138
  751SOL     OW  552   1.466   3.279   2.815
  751SOL    HW1  553   1.407   3.285   2.895
  751SOL    HW2  554   1.451   3.191   2.769
  752SOL     OW  555   1.667   3.576   2.434
  752SOL    HW1  556   1.626   3.553   2.346
  752SOL    HW2  557   1.649   3.502   2.499
  753SOL     OW  558   0.598   2.591   2.132
  753SOL    HW1  559   0.622   2.660   2.064
  753SOL    HW2  560   0.520   2.624   2.186
  754SOL     OW  561   1.281   2.207   2.806
  754SOL    HW1  562   1.195   2.157   2.793
  754SOL    HW2  563   1.343   2.153   2.862
  755SOL     OW  564   1.576   3.524   2.169
  755SOL    HW1  565   1.665   3.570   2.172
  755SOL    HW2  566   1.555   3.500   2.074
  757SOL     OW  567   1.394   2.331   3.536
  757SOL    HW1  568   1.374   2.374   3.624
  757SOL    HW2  569   1.472   2.269   3.545
  759SOL     OW  570   0.991   2.272   3.104
  759SOL    HW1  571   0.914   2.306   3.158
  759SOL    HW2  572   0.957   2.221   3.025
  760SOL     OW  573   1.041   2.563   2.291
  760SOL    HW1  574   1.067   2.559   2.387
  760SOL    HW2  575   0.956   2.512   2.277
  763SOL     OW  576   0.865   2.210   2.057
  763SOL    HW1  577   0.924   2.273   2.008
  763SOL    HW2  578   0.884   2.116   2.028
  764SOL     OW  579   1.719   2.447   3.693
  764SOL    HW1  580   1.693   2.536   3.657
  764SOL    HW2  581   1.717   2.379   3.620
  765SOL     OW  582   1.362   3.006   2.407
  765SOL    HW1  583   1.445   2.977   2.359
  765SOL    HW2  584   1.313   3.073   2.351
  766SOL     OW  585   0.550   2.058   2.747
  766SOL    HW1  586   0.545   2.053   2.847
  766SOL    HW2  587   0.552   2.154   2.718
  767SOL     OW  588   1.008   3.318   2.339
  767SOL    HW1  589   0.962   3.390   2.287
  767SOL    HW2  590   1.004   3.338   2.437
  769SOL     OW  591   1.795   2.928   2.735
  769SOL    HW1  592   1.733   2.913   2.659
  769SOL    HW2  593   1.743   2.939   2.820
  772SOL     OW  594   1.458   2.597   2.590
  772SOL    HW1  595   1.453   2.532   2.665
  772SOL    HW2  596   1.538   2.656   2.603
  776SOL     OW  597   1.632   3.239   1.943
  776SOL    HW1  598   1.600   3.333   1.933
  776SOL    HW2  599   1.556   3.176   1.931
  778SOL     OW  600   1.400   1.969   2.288
  778SOL    HW1  601   1.376   1.932   2.198
  778SOL    HW2  602   1.499   1.985   2.292
  782SOL     OW  603   1.547   2.084   3.591
  782SOL    HW1  604   1.542   2.121   3.683
  782SOL    HW2  605   1.475   2.015   3.579
  783SOL     OW  606   0.614   1.984   1.979
  783SOL    HW1  607   0.712   1.962   1.986
  783SOL    HW2  608   0.583   1.967   1.886
  786SOL     OW  609   1.351   2.452   3.295
  786SOL    HW1  610   1.379   2.409   3.380
  786SOL    HW2  611   1.376   2.548   3.296
  788SOL     OW  612   0.922   2.365   2.761
  788SOL    HW1  613   0.897   2.356   2.665
  788SOL    HW2  614   0.970   2.283   2.792
  789SOL     OW  615   0.539   1.926   2.374
  789SOL    HW1  616   0.458   1.927   2.432
  789SOL    HW2  617   0.542   2.009   2.319
  790SOL     OW  618   1.434   3.050   1.903
  790SOL    HW1  619   1.466   2.974   1.960
  790SOL    HW2  620   1.342   3.077   1.933
  792SOL     OW  621   0.935   2.098   2.342
  792SOL    HW1  622   0.887   2.139   2.264
  792SOL    HW2  623   1.034   2.096   2.323
  793SOL     OW  624   1.076   2.545   3.326
  793SOL    HW1  625   0.996   2.484   3.329
  793SOL    HW2  626   1.157   2.492   3.302
  794SOL     OW  627   1.227   3.432   2.655
  794SOL    HW1  628   1.248   3.506   2.590
  794SOL    HW2  629   1.295   3.432   2.728
  796SOL     OW  630   1.271   3.659   2.453
  796SOL    HW1  631   1.315   3.723   2.389
  796SOL    HW2  632   1.221   3.711   2.523
  797SOL     OW  633   1.032   2.411   1.878
  797SOL    HW1  634   0.991   2.493   1.839
  797SOL    HW2  635   1.096   2.437   1.951
  800SOL     OW  636   0.866   2.316   2.504
  800SOL    HW1  637   0.834   2.388   2.442
  800SOL    HW2  638   0.890   2.235   2.451
  801SOL     OW  639   1.017   1.901   2.615
  801SOL    HW1  640   0.945   1.906   2.546
  801SOL    HW2  641   0.993   1.832   2.684
  802SOL     OW  642   1.429   3.035   2.729
  802SOL    HW1  643   1.374   2.951   2.722
  802SOL    HW2  644   1.455   3.064   2.637
  803SOL     OW  645   1.466   2.452   2.854
  803SOL    HW1  646   1.436   2.357   2.861
  803SOL    HW2  647   1.539   2.468   2.920
  804SOL     OW  648   1.857   2.695   2.239
  804SOL    HW1  649   1.899   2.631   2.303
  804SOL    HW2  650   1.819   2.644   2.161
  806SOL     OW  651   1.664   3.142   2.519
  806SOL    HW1  652   1.763   3.150   2.533
  806SOL    HW2  653   1.619   3.226   2.550
  807SOL     OW  654   1.390   2.437   1.940
  807SOL    HW1  655   1.336   2.416   2.021
  807SOL    HW2  656   1.481   2.396   1.949
  808SOL     OW  657   0.527   2.118   2.190
  808SOL    HW1  658   0.554   2.059   2.115
  808SOL    HW2  659   0.527   2.213   2.159
  809SOL     OW  660   1.754   3.085   3.450
  809SOL    HW1  661   1.845   3.046   3.437
  809SOL    HW2  662   1.762   3.181   3.474
  812SOL     OW  663   1.111   3.057   2.962
  812SOL    HW1  664   1.071   3.101   3.043
  812SOL    HW2  665   1.070   3.094   2.879
  813SOL     OW  666   1.638   2.961   2.941
  813SOL    HW1  667   1.643   3.042   3.000
  813SOL    HW2  668   1.552   2.963   2.890
  814SOL     OW  669   0.915   1.951   3.264
  814SOL    HW1  670   0.940   1.931   3.169
  814SOL    HW2  671   0.987   2.007   3.306
  816SOL     OW  672   0.705   2.912   2.230
  816SOL    HW1  673   0.691   2.919   2.329
  816SOL    HW2  674   0.789   2.861   2.212
  818SOL     OW  675   1.274   2.248   3.124
  818SOL    HW1  676   1.295   2.322   3.188
  818SOL    HW2  677   1.185   2.265   3.081
  821SOL     OW  678   0.566   2.399   2.727
  821SOL    HW1  679   0.578   2.465   2.653
  821SOL    HW2  680   0.612   2.433   2.810
  822SOL     OW  681   1.252   3.210   2.250
  822SOL    HW1  682   1.302   3.287   2.290
  822SOL    HW2  683   1.157   3.212   2.282
  823SOL     OW  684   1.272   3.307   3.004
  823SOL    HW1  685   1.319   3.320   3.091
  823SOL    HW2  686   1.206   3.233   3.013
  824SOL     OW  687   1.582   2.501   2.334
  824SOL    HW1  688   1.551   2.562   2.407
  824SOL    HW2  689   1.632   2.553   2.265
  827SOL     OW  690   1.587   2.641   3.532
  827SOL    HW1  691   1.495   2.679   3.527
  827SOL    HW2  692   1.647   2.688   3.467
  831SOL     OW  693   1.360   2.724   2.907
  831SOL    HW1  694   1.285   2.724   2.841
  831SOL    HW2  695   1.397   2.632   2.916
  832SOL     OW  696   1.209   2.387   2.137
  832SOL    HW1  697   1.222   2.303   2.191
  832SOL    HW2  698   1.180   2.461   2.197
  835SOL     OW  699   0.732   2.496   2.926
  835SOL    HW1  700   0.791   2.470   2.850
  835SOL    HW2  701   0.704   2.592   2.915
  836SOL     OW  702   1.728   2.797   3.716
  836SOL    HW1  703   1.682   2.790   3.627
  836SOL    HW2  704   1.666   2.841   3.782
  838SOL     OW  705   1.622   2.229   2.236
  838SOL    HW1  706   1.624   2.153   2.300
  838SOL    HW2  707   1.574   2.306   2.276
  839SOL     OW  708   1.023   2.628   2.828
  839SOL    HW1  709   1.038   2.649   2.924
  839SOL    HW2  710   0.993   2.533   2.819
  841SOL     OW  711   1.859   3.380   3.467
  841SOL    HW1  712   1.873   3.407   3.372
  841SOL    HW2  713   1.942   3.402   3.520
  843SOL     OW  714   1.540   2.136   1.987
  843SOL    HW1  715   1.479   2.061   2.010
  843SOL    HW2  716   1.562   2.188   2.070
  844SOL     OW  717   1.303   2.700   1.904
  844SOL    HW1  718   1.337   2.607   1.919
  844SOL    HW2  719   1.321   2.727   1.809
  845SOL     OW  720   1.068   3.195   2.711
  845SOL    HW1  721   1.075   3.111   2.656
  845SOL    HW2  722   1.130   3.264   2.675
  848SOL     OW  723   1.138   2.242   3.540
  848SOL    HW1  724   1.093   2.305   3.604
  848SOL    HW2  725   1.231   2.273   3.523
  849SOL     OW  726   1.160   2.069   3.339
  849SOL    HW1  727   1.160   2.133   3.416
  849SOL    HW2  728   1.188   2.117   3.256
  853SOL     OW  729   1.002   2.658   3.100
  853SOL    HW1  730   1.043   2.626   3.186
  853SOL    HW2  731   0.906   2.631   3.097
  856SOL     OW  732   1.369   2.812   3.522
  856SOL    HW1  733   1.408   2.901   3.542
  856SOL    HW2  734   1.379   2.792   3.425
  857SOL     OW  735   0.815   2.434   2.187
  857SOL    HW1  736   0.822   2.345   2.141
  857SOL    HW2  737   0.721   2.468   2.179
  858SOL     OW  738   1.657   2.466   3.068
  858SOL    HW1  739   1.619   2.397   3.130
  858SOL    HW2  740   1.739   2.430   3.024
  860SOL     OW  741   0.671   2.326   3.131
  860SOL    HW1  742   0.637   2.237   3.101
  860SOL    HW2  743   0.697   2.380   3.051
  862SOL     OW  744   0.473   2.362   2.053
  862SOL    HW1  745   0.534   2.442   2.057
  862SOL    HW2  746   0.378   2.393   2.060
  864SOL     OW  747   1.347   2.921   3.096
  864SOL    HW1  748   1.371   2.858   3.022
  864SOL    HW2  749   1.257   2.961   3.078
  865SOL     OW  750   1.302   2.717   2.171
  865SOL    HW1  751   1.216   2.686   2.213
  865SOL    HW2  752   1.298   2.703   2.072
  866SOL     OW  753   1.759   3.609   3.016
  866SOL    HW1  754   1.820   3.639   2.943
  866SOL    HW2  755   1.721   3.520   2.994
  870SOL     OW  756   1.726   1.997   2.385
  870SOL    HW1  757   1.799   1.980   2.318
  870SOL    HW2  758   1.695   1.910   2.423
  871SOL     OW  759   1.388   3.435   2.339
  871SOL    HW1  760   1.455   3.447   2.265
  871SOL    HW2  761   1.348   3.524   2.362
  873SOL     OW  762   1.280   2.789   2.534
  873SOL    HW1  763   1.340   2.708   2.536
  873SOL    HW2  764   1.320   2.858   2.474
  877SOL     OW  765   1.841   2.037   2.825
  877SOL    HW1  766   1.880   1.952   2.789
  877SOL    HW2  767   1.743   2.039   2.806
  879SOL     OW  768   1.194   3.474   1.893
  879SOL    HW1  769   1.200   3.381   1.930
  879SOL    HW2  770   1.135   3.474   1.813
  881SOL     OW  771   0.916   2.772   2.153
  881SOL    HW1  772   0.979   2.810   2.085
  881SOL    HW2  773   0.956   2.689   2.192
  882SOL     OW  774   1.504   3.469   1.906
  882SOL    HW1  775   1.412   3.506   1.913
  882SOL    HW2  776   1.542   3.489   1.816
  884SOL     OW  777   1.614   3.154   3.151
  884SOL    HW1  778   1.674   3.157   3.231
  884SOL    HW2  779   1.539   3.218   3.164
  885SOL     OW  780   1.039   2.960   2.558
  885SOL    HW1  781   0.969   2.913   2.612
  885SOL    HW2  782   1.098   2.892   2.515
  886SOL     OW  783   1.014   2.098   2.833
  886SOL    HW1  784   1.006   2.062   2.740
  886SOL    HW2  785   1.012   2.022   2.898
  888SOL     OW  786   1.709   2.247   3.243
  888SOL    HW1  787   1.782   2.316   3.247
  888SOL    HW2  788   1.737   2.172   3.184
  893SOL     OW  789   1.440   2.718   3.260
  893SOL    HW1  790   1.383   2.770   3.197
  893SOL    HW2  791   1.536   2.730   3.236
  895SOL     OW  792   1.183   3.197   1.981
  895SOL    HW1  793   1.084   3.186   1.983
  895SOL    HW2  794   1.217   3.212   2.074
  897SOL     OW  795   1.493   3.629   2.821
  897SOL    HW1  796   1.526   3.693   2.752
  897SOL    HW2  797   1.559   3.623   2.896
  899SOL     OW  798   1.450   3.082   3.495
  899SOL    HW1  799   1.441   3.072   3.594
  899SOL    HW2  800   1.546   3.075   3.469
  901SOL     OW  801   1.674   2.745   3.116
  901SOL    HW1  802   1.647   2.656   3.079
  901SOL    HW2  803   1.675   2.813   3.043
  902SOL     OW  804   1.225   2.187   2.311
  902SOL    HW1  805   1.290   2.113   2.300
  902SOL    HW2  806   1.245   2.237   2.395
  903SOL     OW  807   0.594   2.607   2.514
  903SOL    HW1  808   0.644   2.692   2.495
  903SOL    HW2  809   0.506   2.609   2.466
  904SOL     OW  810   1.777   2.204   3.504
  904SOL    HW1  811   1.760   2.235   3.410
  904SOL    HW2  812   1.693   2.167   3.542
  905SOL     OW  813   1.730   2.796   3.379
  905SOL    HW1  814   1.768   2.887   3.394
  905SOL    HW2  815   1.722   2.779   3.280
  906SOL     OW  816   0.859   3.236   1.878
  906SOL    HW1  817   0.813   3.251   1.966
  906SOL    HW2  818   0.903   3.321   1.848
  908SOL     OW  819   0.859   2.818   2.723
  908SOL    HW1  820   0.913   2.749   2.771
  908SOL    HW2  821   0.827   2.887   2.789
  909SOL     OW  822   1.083   2.846   1.949
  909SOL    HW1  823   1.060   2.899   1.867
  909SOL    HW2  824   1.164   2.790   1.930
  910SOL     OW  825   1.861   3.431   2.713
  910SOL    HW1  826   1.790   3.419   2.643
  910SOL    HW2  827   1.862   3.352   2.773
  914SOL     OW  828   1.824   2.054   3.089
  914SOL    HW1  829   1.820   1.964   3.133
  914SOL    HW2  830   1.827   2.043   2.990
  915SOL     OW  831   0.428   2.286   2.382
  915SOL    HW1  832   0.458   2.214   2.320
  915SOL    HW2  833   0.389   2.246   2.465
  916SOL     OW  834   1.705   3.349   2.966
  916SOL    HW1  835   1.612   3.324   2.939
  916SOL    HW2  836   1.731   3.299   3.048
  919SOL     OW  837   1.424   2.076   2.974
  919SOL    HW1  838   1.476   2.011   3.029
  919SOL    HW2  839   1.375   2.139   3.035
  920SOL     OW  840   1.001   1.896   3.016
  920SOL    HW1  841   0.938   1.824   2.985
  920SOL    HW2  842   1.094   1.860   3.016
  921SOL     OW  843   0.770   3.192   2.163
  921SOL    HW1  844   0.724   3.105   2.180
  921SOL    HW2  845   0.861   3.189   2.204
  923SOL     OW  846   1.352   1.914   2.030
  923SOL    HW1  847   1.387   1.873   1.946
  923SOL    HW2  848   1.262   1.876   2.050
  924SOL     OW  849   1.300   2.315   2.553
  924SOL    HW1  850   1.241   2.395   2.557
  924SOL    HW2  851   1.315   2.280   2.646
  925SOL     OW  852   1.593   2.083   2.744
  925SOL    HW1  853   1.509   2.082   2.798
  925SOL    HW2  854   1.595   2.166   2.688
  976SOL     OW  855   1.540   2.136   3.849
  976SOL    HW1  856   1.479   2.061   3.872
  976SOL    HW2  857   1.562   2.188   3.932
 1146SOL     OW  858   1.726   3.859   2.385
 1146SOL    HW1  859   1.799   3.842   2.318
 1146SOL    HW2  860   1.695   3.772   2.423
 1164SOL     OW  861   1.352   3.776   2.030
 1164SOL    HW1  862   1.387   3.735   1.946
 1164SOL    HW2  863   1.262   3.738   2.050
 1200SOL     OW  864   2.431   1.275   1.165
 1200SOL    HW1  865   2.338   1.268   1.128
 1200SOL    HW2  866   2.442   1.364   1.209
 1204SOL     OW  867   2.630   1.144   1.023
 1204SOL    HW1  868   2.552   1.161   1.083
 1204SOL    HW2  869   2.664   1.231   0.987
 1205SOL     OW  870   2.712   0.798   1.823
 1205SOL    HW1  871   2.708   0.874   1.888
 1205SOL    HW2  872   2.734   0.834   1.732
 1207SOL     OW  873   2.548   1.161   1.803
 1207SOL    HW1  874   2.608   1.240   1.817
 1207SOL    HW2  875   2.462   1.192   1.762
 1208SOL     OW  876   2.197   1.435   1.061
 1208SOL    HW1  877   2.119   1.404   1.008
 1208SOL    HW2  878   2.255   1.493   1.004
 1209SOL     OW  879   3.322   1.505   1.339
 1209SOL    HW1  880   3.346   1.599   1.365
 1209SOL    HW2  881   3.306   1.451   1.421
 1213SOL     OW  882   2.989   1.341   1.690
 1213SOL    HW1  883   3.036   1.341   1.778
 1213SOL    HW2  884   2.941   1.254   1.679
 1215SOL     OW  885   2.102   1.091   0.886
 1215SOL    HW1  886   2.116   1.007   0.938
 1215SOL    HW2  887   2.047   1.155   0.941
 1216SOL     OW  888   2.482   1.786   1.439
 1216SOL    HW1  889   2.390   1.769   1.474
 1216SOL    HW2  890   2.510   1.878   1.465
 1224SOL     OW  891   1.975   0.737   1.597
 1224SOL    HW1  892   2.063   0.724   1.642
 1224SOL    HW2  893   1.962   0.834   1.575
 1225SOL     OW  894   2.475   1.365   0.726
 1225SOL    HW1  895   2.426   1.278   0.735
 1225SOL    HW2  896   2.452   1.408   0.639
 1226SOL     OW  897   3.155   1.228   1.423
 1226SOL    HW1  898   3.192   1.155   1.365
 1226SOL    HW2  899   3.207   1.233   1.508
 1228SOL     OW  900   2.059   0.976   1.264
 1228SOL    HW1  901   2.148   0.931   1.250
 1228SOL    HW2  902   1.986   0.911   1.245
 1230SOL     OW  903   3.049   1.792   1.616
 1230SOL    HW1  904   3.073   1.852   1.540
 1230SOL    HW2  905   3.056   1.697   1.586
 1239SOL     OW  906   2.835   0.890   1.572
 1239SOL    HW1  907   2.881   0.806   1.543
 1239SOL    HW2  908   2.779   0.924   1.497
 1243SOL     OW  909   1.992   1.821   1.571
 1243SOL    HW1  910   1.982   1.806   1.670
 1243SOL    HW2  911   1.906   1.857   1.535
 1249SOL     OW  912   2.213   1.801   0.853
 1249SOL    HW1  913   2.263   1.715   0.859
 1249SOL    HW2  914   2.278   1.878   0.850
 1251SOL     OW  915   3.089   1.550   1.506
 1251SOL    HW1  916   3.095   1.473   1.570
 1251SOL    HW2  917   3.037   1.524   1.426
 1254SOL     OW  918   2.323   1.266   1.727
 1254SOL    HW1  919   2.273   1.267   1.641
 1254SOL    HW2  920   2.260   1.248   1.803
 1260SOL     OW  921   2.111   1.785   1.241
 1260SOL    HW1  922   2.168   1.720   1.291
 1260SOL    HW2  923   2.095   1.752   1.148
 1261SOL     OW  924   2.802   1.698   0.904
 1261SOL    HW1  925   2.882   1.641   0.925
 1261SOL    HW2  926   2.753   1.658   0.827
 1266SOL     OW  927   2.750   1.514   1.195
 1266SOL    HW1  928   2.727   1.489   1.101
 1266SOL    HW2  929   2.811   1.445   1.234
 1268SOL     OW  930   2.665   1.402   0.924
 1268SOL    HW1  931   2.755   1.416   0.882
 1268SOL    HW2  932   2.594   1.404   0.853
 1275SOL     OW  933   3.089   1.570   0.793
 1275SOL    HW1  934   3.110   1.644   0.728
 1275SOL    HW2  935   3.157   1.570   0.866
 1291SOL     OW  936   2.926   1.347   1.340
 1291SOL    HW1  937   2.846   1.324   1.395
 1291SOL    HW2  938   3.009   1.321   1.389
 1292SOL     OW  939   3.454   1.629   1.625
 1292SOL    HW1  940   3.481   1.663   1.535
 1292SOL    HW2  941   3.533   1.591   1.671
 1293SOL     OW  942   2.973   1.195   1.100
 1293SOL    HW1  943   2.933   1.239   1.181
 1293SOL    HW2  944   2.932   1.232   1.017
 1296SOL     OW  945   2.842   1.116   1.719
 1296SOL    HW1  946   2.743   1.122   1.729
 1296SOL    HW2  947   2.865   1.036   1.663
 1298SOL     OW  948   2.272   0.813   1.251
 1298SOL    HW1  949   2.358   0.825   1.301
 1298SOL    HW2  950   2.230   0.726   1.278
 1300SOL     OW  951   1.926   1.564   1.331
 1300SOL    HW1  952   1.880   1.646   1.297
 1300SOL    HW2  953   2.024   1.583   1.340
 1304SOL     OW  954   3.134   1.445   1.142
 1304SOL    HW1  955   3.181   1.458   1.229
 1304SOL    HW2  956   3.068   1.371   1.151
 1306SOL     OW  957   2.216   1.510   1.329
 1306SOL    HW1  958   2.195   1.466   1.242
 1306SOL    HW2  959   2.313   1.536   1.332
 1307SOL     OW  960   2.264   0.751   1.598
 1307SOL    HW1  961   2.332   0.806   1.551
 1307SOL    HW2  962   2.304   0.663   1.625
 1315SOL     OW  963   1.899   1.310   1.282
 1315SOL    HW1  964   1.952   1.261   1.350
 1315SOL    HW2  965   1.921   1.408   1.287
 1321SOL     OW  966   2.842   1.573   1.700
 1321SOL    HW1  967   2.822   1.617   1.612
 1321SOL    HW2  968   2.881   1.482   1.684
 1322SOL     OW  969   3.721   1.518   1.605
 1322SOL    HW1  970   3.735   1.545   1.510
 1322SOL    HW2  971   3.804   1.540   1.658
 1323SOL     OW  972   2.212   0.898   1.804
 1323SOL    HW1  973   2.288   0.942   1.852
 1323SOL    HW2  974   2.247   0.851   1.722
 1326SOL     OW  975   2.930   1.333   0.849
 1326SOL    HW1  976   2.937   1.249   0.794
 1326SOL    HW2  977   2.992   1.402   0.813
 1332SOL     OW  978   1.950   1.801   0.927
 1332SOL    HW1  979   1.908   1.715   0.900
 1332SOL    HW2  980   2.044   1.804   0.893
 1333SOL     OW  981   2.366   1.568   0.910
 1333SOL    HW1  982   2.432   1.642   0.919
 1333SOL    HW2  983   2.410   1.489   0.868
 1336SOL     OW  984   2.051   0.520   1.722
 1336SOL    HW1  985   2.110   0.480   1.652
 1336SOL    HW2  986   1.993   0.591   1.681
 1337SOL     OW  987   3.231   0.950   1.660
 1337SOL    HW1  988   3.270   1.039   1.680
 1337SOL    HW2  989   3.241   0.930   1.563
 1340SOL     OW  990   2.114   1.564   1.744
 1340SOL    HW1  991   2.084   1.621   1.820
 1340SOL    HW2  992   2.107   1.467   1.770
 1342SOL     OW  993   2.792   1.678   1.465
 1342SOL    HW1  994   2.768   1.660   1.370
 1342SOL    HW2  995   2.822   1.772   1.475
 1344SOL     OW  996   2.021   1.137   1.466
 1344SOL    HW1  997   2.043   1.076   1.542
 1344SOL    HW2  998   2.031   1.088   1.380
 1348SOL     OW  999   3.114   1.731   1.128
 1348SOL    HW1 1000   3.198   1.736   1.074
 1348SOL    HW2 1001   3.091   1.635   1.146
 1349SOL     OW 1002   1.945   1.258   1.022
 1349SOL    HW1 1003   1.940   1.257   1.122
 1349SOL    HW2 1004   1.862   1.217   0.984
 1350SOL     OW 1005   2.550   1.662   1.716
 1350SOL    HW1 1006   2.494   1.743   1.725
 1350SOL    HW2 1007   2.602   1.666   1.630
 1354SOL     OW 1008   1.992   1.794   1.851
 1354SOL    HW1 1009   1.951   1.720   1.904
 1354SOL    HW2 1010   2.056   1.845   1.909
 1356SOL     OW 1011   2.692   1.273   1.422
 1356SOL    HW1 1012   2.687   1.306   1.517
 1356SOL    HW2 1013   2.606   1.292   1.376
 1358SOL     OW 1014   3.512   1.720   1.394
 1358SOL    HW1 1015   3.565   1.730   1.310
 1358SOL    HW2 1016   3.485   1.810   1.428
 1362SOL     OW 1017   2.684   1.002   1.372
 1362SOL    HW1 1018   2.724   1.001   1.280
 1362SOL    HW2 1019   2.694   1.094   1.412
 1365SOL     OW 1020   2.234   1.288   1.490
 1365SOL    HW1 1021   2.221   1.381   1.456
 1365SOL    HW2 1022   2.150   1.236   1.477
 1372SOL     OW 1023   1.967   1.013   1.726
 1372SOL    HW1 1024   1.890   0.980   1.780
 1372SOL    HW2 1025   2.052   0.983   1.768
 1377SOL     OW 1026   2.475   0.842   1.431
 1377SOL    HW1 1027   2.531   0.923   1.414
 1377SOL    HW2 1028   2.534   0.762   1.434
 1378SOL     OW 1029   3.355   1.767   0.959
 1378SOL    HW1 1030   3.388   1.831   0.890
 1378SOL    HW2 1031   3.421   1.761   1.034
 1379SOL     OW 1032   2.578   0.565   1.708
 1379SOL    HW1 1033   2.597   0.630   1.782
 1379SOL    HW2 1034   2.638   0.485   1.717
 1380SOL     OW 1035   3.312   1.220   1.633
 1380SOL    HW1 1036   3.303   1.210   1.732
 1380SOL    HW2 1037   3.408   1.213   1.607
 1381SOL     OW 1038   2.252   1.741   1.560
 1381SOL    HW1 1039   2.161   1.782   1.558
 1381SOL    HW2 1040   2.245   1.647   1.592
 1388SOL     OW 1041   2.523   1.790   0.953
 1388SOL    HW1 1042   2.477   1.878   0.940
 1388SOL    HW2 1043   2.622   1.802   0.946
 1392SOL     OW 1044   2.083   1.314   1.844
 1392SOL    HW1 1045   2.018   1.241   1.823
 1392SOL    HW2 1046   2.087   1.328   1.942
 1394SOL     OW 1047   2.534   1.391   1.624
 1394SOL    HW1 1048   2.456   1.341   1.662
 1394SOL    HW2 1049   2.531   1.486   1.655
 1399SOL     OW 1050   2.674   1.586   0.687
 1399SOL    HW1 1051   2.706   1.596   0.593
 1399SOL    HW2 1052   2.595   1.524   0.689
 1403SOL     OW 1053   2.480   1.567   1.284
 1403SOL    HW1 1054   2.475   1.649   1.341
 1403SOL    HW2 1055   2.569   1.564   1.239
 1409SOL     OW 1056   2.092   0.628   1.975
 1409SOL    HW1 1057   1.999   0.626   2.012
 1409SOL    HW2 1058   2.093   0.589   1.883
 1412SOL     OW 1059   2.431   1.275   3.027
 1412SOL    HW1 1060   2.338   1.268   2.990
 1412SOL    HW2 1061   2.442   1.364   3.071
 1413SOL     OW 1062   3.417   1.511   2.565
 1413SOL    HW1 1063   3.360   1.495   2.646
 1413SOL    HW2 1064   3.358   1.521   2.485
 1414SOL     OW 1065   2.997   0.703   2.579
 1414SOL    HW1 1066   3.054   0.781   2.554
 1414SOL    HW2 1067   2.937   0.729   2.655
 1416SOL     OW 1068   2.630   1.144   2.885
 1416SOL    HW1 1069   2.552   1.161   2.945
 1416SOL    HW2 1070   2.664   1.231   2.849
 1418SOL     OW 1071   2.547   1.012   2.527
 1418SOL    HW1 1072   2.616   0.996   2.597
 1418SOL    HW2 1073   2.474   1.069   2.565
 1420SOL     OW 1074   2.197   1.435   2.923
 1420SOL    HW1 1075   2.119   1.404   2.870
 1420SOL    HW2 1076   2.255   1.493   2.866
 1421SOL     OW 1077   3.322   1.505   3.201
 1421SOL    HW1 1078   3.346   1.599   3.227
 1421SOL    HW2 1079   3.306   1.451   3.283
 1424SOL     OW 1080   2.093   1.713   2.345
 1424SOL    HW1 1081   2.127   1.790   2.399
 1424SOL    HW2 1082   2.137   1.713   2.255
 1425SOL     OW 1083   2.989   1.341   3.552
 1425SOL    HW1 1084   3.036   1.341   3.640
 1425SOL    HW2 1085   2.941   1.254   3.541
 1426SOL     OW 1086   2.092   1.434   2.400
 1426SOL    HW1 1087   2.066   1.530   2.400
 1426SOL    HW2 1088   2.021   1.380   2.445
 1427SOL     OW 1089   2.102   1.091   2.748
 1427SOL    HW1 1090   2.116   1.007   2.800
 1427SOL    HW2 1091   2.047   1.155   2.803
 1428SOL     OW 1092   2.482   1.786   3.301
 1428SOL    HW1 1093   2.390   1.769   3.336
 1428SOL    HW2 1094   2.510   1.878   3.327
 1429SOL     OW 1095   2.468   0.964   1.985
 1429SOL    HW1 1096   2.475   1.048   1.931
 1429SOL    HW2 1097   2.514   0.977   2.073
 1431SOL     OW 1098   1.984   0.643   2.425
 1431SOL    HW1 1099   1.939   0.555   2.442
 1431SOL    HW2 1100   1.983   0.697   2.509
 1432SOL     OW 1101   3.704   1.767   2.221
 1432SOL    HW1 1102   3.758   1.738   2.301
 1432SOL    HW2 1103   3.734   1.857   2.192
 1433SOL     OW 1104   1.889   1.596   1.979
 1433SOL    HW1 1105   1.870   1.500   2.000
 1433SOL    HW2 1106   1.856   1.654   2.054
 1435SOL     OW 1107   3.503   1.108   2.294
 1435SOL    HW1 1108   3.589   1.110   2.242
 1435SOL    HW2 1109   3.517   1.155   2.382
 1437SOL     OW 1110   2.475   1.365   2.588
 1437SOL    HW1 1111   2.426   1.278   2.597
 1437SOL    HW2 1112   2.452   1.408   2.501
 1438SOL     OW 1113   3.155   1.228   3.285
 1438SOL    HW1 1114   3.192   1.155   3.227
 1438SOL    HW2 1115   3.207   1.233   3.370
 1440SOL     OW 1116   2.059   0.976   3.126
 1440SOL    HW1 1117   2.148   0.931   3.112
 1440SOL    HW2 1118   1.986   0.911   3.107
 1441SOL     OW 1119   3.387   0.999   2.052
 1441SOL    HW1 1120   3.324   0.923   2.065
 1441SOL    HW2 1121   3.435   1.017   2.138
 1442SOL     OW 1122   3.049   1.792   3.478
 1442SOL    HW1 1123   3.073   1.852   3.402
 1442SOL    HW2 1124   3.056   1.697   3.448
 1444SOL     OW 1125   3.328   1.417   2.815
 1444SOL    HW1 1126   3.269   1.423   2.895
 1444SOL    HW2 1127   3.313   1.329   2.769
 1445SOL     OW 1128   3.529   1.714   2.434
 1445SOL    HW1 1129   3.488   1.691   2.346
 1445SOL    HW2 1130   3.511   1.640   2.499
 1446SOL     OW 1131   2.460   0.729   2.132
 1446SOL    HW1 1132   2.484   0.798   2.064
 1446SOL    HW2 1133   2.382   0.762   2.186
 1448SOL     OW 1134   3.438   1.662   2.169
 1448SOL    HW1 1135   3.527   1.708   2.172
 1448SOL    HW2 1136   3.417   1.638   2.074
 1453SOL     OW 1137   2.903   0.701   2.291
 1453SOL    HW1 1138   2.929   0.697   2.387
 1453SOL    HW2 1139   2.818   0.650   2.277
 1454SOL     OW 1140   1.938   0.811   2.651
 1454SOL    HW1 1141   2.037   0.799   2.660
 1454SOL    HW2 1142   1.914   0.906   2.672
 1455SOL     OW 1143   1.992   1.821   3.433
 1455SOL    HW1 1144   1.982   1.806   3.532
 1455SOL    HW2 1145   1.906   1.857   3.397
 1458SOL     OW 1146   3.224   1.144   2.407
 1458SOL    HW1 1147   3.307   1.115   2.359
 1458SOL    HW2 1148   3.175   1.211   2.351
 1460SOL     OW 1149   2.870   1.456   2.339
 1460SOL    HW1 1150   2.824   1.528   2.287
 1460SOL    HW2 1151   2.866   1.476   2.437
 1461SOL     OW 1152   2.213   1.801   2.715
 1461SOL    HW1 1153   2.263   1.715   2.721
 1461SOL    HW2 1154   2.278   1.878   2.712
 1463SOL     OW 1155   3.089   1.550   3.368
 1463SOL    HW1 1156   3.095   1.473   3.432
 1463SOL    HW2 1157   3.037   1.524   3.288
 1464SOL     OW 1158   2.183   0.943   2.104
 1464SOL    HW1 1159   2.265   0.982   2.062
 1464SOL    HW2 1160   2.156   0.861   2.055
 1466SOL     OW 1161   2.323   1.266   3.589
 1466SOL    HW1 1162   2.273   1.267   3.503
 1466SOL    HW2 1163   2.260   1.248   3.665
 1467SOL     OW 1164   2.973   1.776   2.099
 1467SOL    HW1 1165   2.913   1.714   2.149
 1467SOL    HW2 1166   3.004   1.732   2.014
 1469SOL     OW 1167   3.494   1.377   1.943
 1469SOL    HW1 1168   3.462   1.471   1.933
 1469SOL    HW2 1169   3.418   1.314   1.931
 1470SOL     OW 1170   2.326   1.743   2.185
 1470SOL    HW1 1171   2.359   1.782   2.271
 1470SOL    HW2 1172   2.402   1.736   2.120
 1472SOL     OW 1173   2.111   1.785   3.103
 1472SOL    HW1 1174   2.168   1.720   3.153
 1472SOL    HW2 1175   2.095   1.752   3.010
 1473SOL     OW 1176   2.802   1.698   2.766
 1473SOL    HW1 1177   2.882   1.641   2.787
 1473SOL    HW2 1178   2.753   1.658   2.689
 1474SOL     OW 1179   2.244   0.700   2.342
 1474SOL    HW1 1180   2.289   0.610   2.339
 1474SOL    HW2 1181   2.150   0.689   2.375
 1478SOL     OW 1182   2.750   1.514   3.057
 1478SOL    HW1 1183   2.727   1.489   2.963
 1478SOL    HW2 1184   2.811   1.445   3.096
 1480SOL     OW 1185   2.665   1.402   2.786
 1480SOL    HW1 1186   2.755   1.416   2.744
 1480SOL    HW2 1187   2.594   1.404   2.715
 1483SOL     OW 1188   3.296   1.188   1.903
 1483SOL    HW1 1189   3.328   1.112   1.960
 1483SOL    HW2 1190   3.204   1.215   1.933
 1487SOL     OW 1191   3.089   1.570   2.655
 1487SOL    HW1 1192   3.110   1.644   2.590
 1487SOL    HW2 1193   3.157   1.570   2.728
 1488SOL     OW 1194   2.321   1.152   2.603
 1488SOL    HW1 1195   2.250   1.125   2.668
 1488SOL    HW2 1196   2.295   1.124   2.510
 1489SOL     OW 1197   3.133   1.797   2.453
 1489SOL    HW1 1198   3.177   1.861   2.389
 1489SOL    HW2 1199   3.083   1.849   2.523
 1495SOL     OW 1200   3.291   1.173   2.729
 1495SOL    HW1 1201   3.236   1.089   2.722
 1495SOL    HW2 1202   3.317   1.202   2.637
 1498SOL     OW 1203   2.350   1.385   2.036
 1498SOL    HW1 1204   2.263   1.370   2.083
 1498SOL    HW2 1205   2.333   1.411   1.941
 1499SOL     OW 1206   3.526   1.280   2.519
 1499SOL    HW1 1207   3.625   1.288   2.533
 1499SOL    HW2 1208   3.481   1.364   2.550
 1503SOL     OW 1209   2.926   1.347   3.202
 1503SOL    HW1 1210   2.846   1.324   3.257
 1503SOL    HW2 1211   3.009   1.321   3.251
 1505SOL     OW 1212   2.973   1.195   2.962
 1505SOL    HW1 1213   2.933   1.239   3.043
 1505SOL    HW2 1214   2.932   1.232   2.879
 1509SOL     OW 1215   2.567   1.050   2.230
 1509SOL    HW1 1216   2.553   1.057   2.329
 1509SOL    HW2 1217   2.651   0.999   2.212
 1510SOL     OW 1218   2.272   0.813   3.113
 1510SOL    HW1 1219   2.358   0.825   3.163
 1510SOL    HW2 1220   2.230   0.726   3.140
 1512SOL     OW 1221   1.926   1.564   3.193
 1512SOL    HW1 1222   1.880   1.646   3.159
 1512SOL    HW2 1223   2.024   1.583   3.202
 1513SOL     OW 1224   2.229   1.100   2.363
 1513SOL    HW1 1225   2.222   1.183   2.307
 1513SOL    HW2 1226   2.233   1.020   2.303
 1514SOL     OW 1227   2.428   0.537   2.727
 1514SOL    HW1 1228   2.440   0.603   2.653
 1514SOL    HW2 1229   2.474   0.571   2.810
 1515SOL     OW 1230   3.114   1.348   2.250
 1515SOL    HW1 1231   3.164   1.425   2.290
 1515SOL    HW2 1232   3.019   1.350   2.282
 1516SOL     OW 1233   3.134   1.445   3.004
 1516SOL    HW1 1234   3.181   1.458   3.091
 1516SOL    HW2 1235   3.068   1.371   3.013
 1518SOL     OW 1236   2.216   1.510   3.191
 1518SOL    HW1 1237   2.195   1.466   3.104
 1518SOL    HW2 1238   2.313   1.536   3.194
 1523SOL     OW 1239   2.435   0.870   2.891
 1523SOL    HW1 1240   2.479   0.959   2.882
 1523SOL    HW2 1241   2.372   0.870   2.968
 1527SOL     OW 1242   1.899   1.310   3.144
 1527SOL    HW1 1243   1.952   1.261   3.212
 1527SOL    HW2 1244   1.921   1.408   3.149
 1528SOL     OW 1245   2.594   0.634   2.926
 1528SOL    HW1 1246   2.653   0.608   2.850
 1528SOL    HW2 1247   2.566   0.730   2.915
 1532SOL     OW 1248   2.885   0.766   2.828
 1532SOL    HW1 1249   2.900   0.787   2.924
 1532SOL    HW2 1250   2.855   0.671   2.819
 1533SOL     OW 1251   2.842   1.573   3.562
 1533SOL    HW1 1252   2.822   1.617   3.474
 1533SOL    HW2 1253   2.881   1.482   3.546
 1537SOL     OW 1254   3.165   0.838   1.904
 1537SOL    HW1 1255   3.199   0.745   1.919
 1537SOL    HW2 1256   3.183   0.865   1.809
 1538SOL     OW 1257   2.930   1.333   2.711
 1538SOL    HW1 1258   2.937   1.249   2.656
 1538SOL    HW2 1259   2.992   1.402   2.675
 1539SOL     OW 1260   2.181   0.810   2.811
 1539SOL    HW1 1261   2.274   0.846   2.816
 1539SOL    HW2 1262   2.175   0.725   2.863
 1543SOL     OW 1263   1.870   1.326   2.062
 1543SOL    HW1 1264   1.777   1.347   2.031
 1543SOL    HW2 1265   1.880   1.227   2.075
 1544SOL     OW 1266   1.950   1.801   2.789
 1544SOL    HW1 1267   1.908   1.715   2.762
 1544SOL    HW2 1268   2.044   1.804   2.755
 1545SOL     OW 1269   2.366   1.568   2.772
 1545SOL    HW1 1270   2.432   1.642   2.781
 1545SOL    HW2 1271   2.410   1.489   2.730
 1546SOL     OW 1272   2.864   0.796   3.100
 1546SOL    HW1 1273   2.905   0.764   3.186
 1546SOL    HW2 1274   2.768   0.769   3.097
 1550SOL     OW 1275   2.677   0.572   2.187
 1550SOL    HW1 1276   2.684   0.483   2.141
 1550SOL    HW2 1277   2.583   0.606   2.179
 1552SOL     OW 1278   2.114   1.564   3.606
 1552SOL    HW1 1279   2.084   1.621   3.682
 1552SOL    HW2 1280   2.107   1.467   3.632
 1554SOL     OW 1281   2.792   1.678   3.327
 1554SOL    HW1 1282   2.768   1.660   3.232
 1554SOL    HW2 1283   2.822   1.772   3.337
 1555SOL     OW 1284   2.335   0.500   2.053
 1555SOL    HW1 1285   2.396   0.580   2.057
 1555SOL    HW2 1286   2.240   0.531   2.060
 1556SOL     OW 1287   2.021   1.137   3.328
 1556SOL    HW1 1288   2.043   1.076   3.404
 1556SOL    HW2 1289   2.031   1.088   3.242
 1557SOL     OW 1290   3.209   1.059   3.096
 1557SOL    HW1 1291   3.233   0.996   3.022
 1557SOL    HW2 1292   3.119   1.099   3.078
 1558SOL     OW 1293   3.164   0.855   2.171
 1558SOL    HW1 1294   3.078   0.824   2.213
 1558SOL    HW2 1295   3.160   0.841   2.072
 1559SOL     OW 1296   3.621   1.747   3.016
 1559SOL    HW1 1297   3.682   1.777   2.943
 1559SOL    HW2 1298   3.583   1.658   2.994
 1560SOL     OW 1299   3.114   1.731   2.990
 1560SOL    HW1 1300   3.198   1.736   2.936
 1560SOL    HW2 1301   3.091   1.635   3.008
 1561SOL     OW 1302   1.945   1.258   2.884
 1561SOL    HW1 1303   1.940   1.257   2.984
 1561SOL    HW2 1304   1.862   1.217   2.846
 1562SOL     OW 1305   2.550   1.662   3.578
 1562SOL    HW1 1306   2.494   1.743   3.587
 1562SOL    HW2 1307   2.602   1.666   3.492
 1564SOL     OW 1308   3.250   1.573   2.339
 1564SOL    HW1 1309   3.317   1.585   2.265
 1564SOL    HW2 1310   3.210   1.662   2.362
 1565SOL     OW 1311   1.992   1.794   3.713
 1565SOL    HW1 1312   1.951   1.720   3.766
 1565SOL    HW2 1313   2.056   1.845   3.771
 1566SOL     OW 1314   3.142   0.927   2.534
 1566SOL    HW1 1315   3.202   0.846   2.536
 1566SOL    HW2 1316   3.182   0.996   2.474
 1567SOL     OW 1317   2.692   1.273   3.284
 1567SOL    HW1 1318   2.687   1.306   3.379
 1567SOL    HW2 1319   2.606   1.292   3.238
 1568SOL     OW 1320   2.534   1.616   2.016
 1568SOL    HW1 1321   2.543   1.626   1.917
 1568SOL    HW2 1322   2.494   1.527   2.037
 1569SOL     OW 1323   3.512   1.720   3.256
 1569SOL    HW1 1324   3.565   1.730   3.172
 1569SOL    HW2 1325   3.485   1.810   3.290
 1572SOL     OW 1326   3.056   1.612   1.893
 1572SOL    HW1 1327   3.062   1.519   1.930
 1572SOL    HW2 1328   2.997   1.612   1.813
 1573SOL     OW 1329   2.684   1.002   3.234
 1573SOL    HW1 1330   2.724   1.001   3.142
 1573SOL    HW2 1331   2.694   1.094   3.274
 1574SOL     OW 1332   2.778   0.910   2.153
 1574SOL    HW1 1333   2.841   0.948   2.085
 1574SOL    HW2 1334   2.818   0.827   2.192
 1575SOL     OW 1335   3.366   1.607   1.906
 1575SOL    HW1 1336   3.274   1.644   1.913
 1575SOL    HW2 1337   3.404   1.627   1.816
 1576SOL     OW 1338   2.234   1.288   3.352
 1576SOL    HW1 1339   2.221   1.381   3.318
 1576SOL    HW2 1340   2.150   1.236   3.339
 1578SOL     OW 1341   2.901   1.098   2.558
 1578SOL    HW1 1342   2.831   1.051   2.612
 1578SOL    HW2 1343   2.960   1.030   2.515
 1580SOL     OW 1344   2.452   1.487   2.353
 1580SOL    HW1 1345   2.494   1.429   2.283
 1580SOL    HW2 1346   2.408   1.566   2.309
 1582SOL     OW 1347   2.117   1.348   2.152
 1582SOL    HW1 1348   2.021   1.349   2.125
 1582SOL    HW2 1349   2.129   1.401   2.236
 1588SOL     OW 1350   3.045   1.335   1.981
 1588SOL    HW1 1351   2.946   1.324   1.983
 1588SOL    HW2 1352   3.079   1.350   2.074
 1589SOL     OW 1353   2.475   0.842   3.293
 1589SOL    HW1 1354   2.531   0.923   3.276
 1589SOL    HW2 1355   2.534   0.762   3.296
 1590SOL     OW 1356   3.355   1.767   2.821
 1590SOL    HW1 1357   3.388   1.831   2.752
 1590SOL    HW2 1358   3.421   1.761   2.896
 1593SOL     OW 1359   2.252   1.741   3.422
 1593SOL    HW1 1360   2.161   1.782   3.420
 1593SOL    HW2 1361   2.245   1.647   3.454
 1596SOL     OW 1362   2.456   0.745   2.514
 1596SOL    HW1 1363   2.506   0.830   2.495
 1596SOL    HW2 1364   2.368   0.747   2.466
 1599SOL     OW 1365   2.721   1.374   1.878
 1599SOL    HW1 1366   2.675   1.389   1.966
 1599SOL    HW2 1367   2.765   1.459   1.848
 1600SOL     OW 1368   2.523   1.790   2.815
 1600SOL    HW1 1369   2.477   1.878   2.802
 1600SOL    HW2 1370   2.622   1.802   2.808
 1601SOL     OW 1371   2.721   0.956   2.723
 1601SOL    HW1 1372   2.775   0.887   2.771
 1601SOL    HW2 1373   2.689   1.025   2.789
 1602SOL     OW 1374   2.945   0.984   1.949
 1602SOL    HW1 1375   2.922   1.037   1.867
 1602SOL    HW2 1376   3.026   0.928   1.930
 1603SOL     OW 1377   3.723   1.569   2.713
 1603SOL    HW1 1378   3.652   1.557   2.643
 1603SOL    HW2 1379   3.724   1.490   2.773
 1604SOL     OW 1380   2.083   1.314   3.706
 1604SOL    HW1 1381   2.018   1.241   3.685
 1604SOL    HW2 1382   2.087   1.328   3.804
 1605SOL     OW 1383   1.941   1.240   2.515
 1605SOL    HW1 1384   1.940   1.193   2.603
 1605SOL    HW2 1385   2.023   1.212   2.464
 1606SOL     OW 1386   2.534   1.391   3.486
 1606SOL    HW1 1387   2.456   1.341   3.524
 1606SOL    HW2 1388   2.531   1.486   3.517
 1609SOL     OW 1389   3.567   1.487   2.966
 1609SOL    HW1 1390   3.474   1.462   2.939
 1609SOL    HW2 1391   3.593   1.437   3.048
 1611SOL     OW 1392   2.674   1.586   2.549
 1611SOL    HW1 1393   2.706   1.596   2.455
 1611SOL    HW2 1394   2.595   1.524   2.551
 1614SOL     OW 1395   2.632   1.330   2.163
 1614SOL    HW1 1396   2.586   1.243   2.180
 1614SOL    HW2 1397   2.723   1.327   2.204
 1615SOL     OW 1398   2.480   1.567   3.146
 1615SOL    HW1 1399   2.475   1.649   3.203
 1615SOL    HW2 1400   2.569   1.564   3.101
 1619SOL     OW 1401   1.901   1.077   2.162
 1619SOL    HW1 1402   2.000   1.066   2.153
 1619SOL    HW2 1403   1.861   0.991   2.194
 1620SOL     OW 1404   2.737   1.646   2.199
 1620SOL    HW1 1405   2.660   1.611   2.145
 1620SOL    HW2 1406   2.705   1.717   2.261
 1628SOL     OW 1407   1.889   1.596   3.841
 1628SOL    HW1 1408   1.870   1.500   3.862
 1628SOL    HW2 1409   1.856   1.654   3.916
 1677SOL     OW 1410   2.534   1.616   3.878
 1677SOL    HW1 1411   2.543   1.626   3.779
 1677SOL    HW2 1412   2.494   1.527   3.899
 1699SOL     OW 1413   2.087   2.137   0.996
 1699SOL    HW1 1414   2.122   2.120   1.088
 1699SOL    HW2 1415   1.999   2.092   0.984
 1700SOL     OW 1416   1.881   2.230   0.647
 1700SOL    HW1 1417   1.799   2.273   0.686
 1700SOL    HW2 1418   1.853   2.157   0.584
 1701SOL     OW 1419   2.431   3.137   1.165
 1701SOL    HW1 1420   2.338   3.130   1.128
 1701SOL    HW2 1421   2.442   3.226   1.209
 1703SOL     OW 1422   2.997   2.565   0.717
 1703SOL    HW1 1423   3.054   2.643   0.692
 1703SOL    HW2 1424   2.937   2.591   0.793
 1705SOL     OW 1425   2.630   3.006   1.023
 1705SOL    HW1 1426   2.552   3.023   1.083
 1705SOL    HW2 1427   2.664   3.093   0.987
 1706SOL     OW 1428   2.712   2.660   1.823
 1706SOL    HW1 1429   2.708   2.736   1.888
 1706SOL    HW2 1430   2.734   2.696   1.732
 1707SOL     OW 1431   2.547   2.874   0.665
 1707SOL    HW1 1432   2.616   2.858   0.735
 1707SOL    HW2 1433   2.474   2.931   0.703
 1708SOL     OW 1434   2.548   3.023   1.803
 1708SOL    HW1 1435   2.608   3.102   1.817
 1708SOL    HW2 1436   2.462   3.054   1.762
 1709SOL     OW 1437   2.197   3.297   1.061
 1709SOL    HW1 1438   2.119   3.266   1.008
 1709SOL    HW2 1439   2.255   3.355   1.004
 1711SOL     OW 1440   2.300   2.254   1.499
 1711SOL    HW1 1441   2.382   2.198   1.508
 1711SOL    HW2 1442   2.219   2.196   1.503
 1714SOL     OW 1443   2.989   3.203   1.690
 1714SOL    HW1 1444   3.036   3.203   1.778
 1714SOL    HW2 1445   2.941   3.116   1.679
 1716SOL     OW 1446   2.102   2.953   0.886
 1716SOL    HW1 1447   2.116   2.869   0.938
 1716SOL    HW2 1448   2.047   3.017   0.941
 1717SOL     OW 1449   2.482   3.648   1.439
 1717SOL    HW1 1450   2.390   3.631   1.474
 1717SOL    HW2 1451   2.510   3.740   1.465
 1719SOL     OW 1452   3.456   1.976   1.480
 1719SOL    HW1 1453   3.438   2.043   1.408
 1719SOL    HW2 1454   3.453   2.022   1.569
 1720SOL     OW 1455   1.984   2.505   0.563
 1720SOL    HW1 1456   1.939   2.417   0.580
 1720SOL    HW2 1457   1.983   2.559   0.647
 1725SOL     OW 1458   1.975   2.599   1.597
 1725SOL    HW1 1459   2.063   2.586   1.642
 1725SOL    HW2 1460   1.962   2.696   1.575
 1727SOL     OW 1461   3.155   3.090   1.423
 1727SOL    HW1 1462   3.192   3.017   1.365
 1727SOL    HW2 1463   3.207   3.095   1.508
 1729SOL     OW 1464   2.059   2.838   1.264
 1729SOL    HW1 1465   2.148   2.793   1.250
 1729SOL    HW2 1466   1.986   2.773   1.245
 1731SOL     OW 1467   3.049   3.654   1.616
 1731SOL    HW1 1468   3.073   3.714   1.540
 1731SOL    HW2 1469   3.056   3.559   1.586
 1732SOL     OW 1470   2.179   2.113   1.801
 1732SOL    HW1 1471   2.250   2.184   1.807
 1732SOL    HW2 1472   2.091   2.152   1.829
 1736SOL     OW 1473   3.143   2.207   0.944
 1736SOL    HW1 1474   3.057   2.157   0.931
 1736SOL    HW2 1475   3.205   2.153   1.000
 1738SOL     OW 1476   2.669   2.467   1.465
 1738SOL    HW1 1477   2.622   2.464   1.554
 1738SOL    HW2 1478   2.618   2.412   1.399
 1739SOL     OW 1479   3.256   2.331   1.674
 1739SOL    HW1 1480   3.236   2.374   1.762
 1739SOL    HW2 1481   3.334   2.269   1.683
 1740SOL     OW 1482   2.835   2.752   1.572
 1740SOL    HW1 1483   2.881   2.668   1.543
 1740SOL    HW2 1484   2.779   2.786   1.497
 1741SOL     OW 1485   2.853   2.272   1.242
 1741SOL    HW1 1486   2.776   2.306   1.296
 1741SOL    HW2 1487   2.819   2.221   1.163
 1743SOL     OW 1488   1.938   2.673   0.789
 1743SOL    HW1 1489   2.037   2.661   0.798
 1743SOL    HW2 1490   1.914   2.768   0.810
 1744SOL     OW 1491   1.992   3.683   1.571
 1744SOL    HW1 1492   1.982   3.668   1.670
 1744SOL    HW2 1493   1.906   3.719   1.535
 1746SOL     OW 1494   3.581   2.447   1.831
 1746SOL    HW1 1495   3.555   2.536   1.795
 1746SOL    HW2 1496   3.579   2.379   1.758
 1748SOL     OW 1497   2.412   2.058   0.885
 1748SOL    HW1 1498   2.407   2.053   0.985
 1748SOL    HW2 1499   2.414   2.154   0.856
 1752SOL     OW 1500   3.089   3.412   1.506
 1752SOL    HW1 1501   3.095   3.335   1.570
 1752SOL    HW2 1502   3.037   3.386   1.426
 1755SOL     OW 1503   2.323   3.128   1.727
 1755SOL    HW1 1504   2.273   3.129   1.641
 1755SOL    HW2 1505   2.260   3.110   1.803
 1757SOL     OW 1506   2.064   2.147   1.498
 1757SOL    HW1 1507   1.984   2.207   1.485
 1757SOL    HW2 1508   2.054   2.098   1.584
 1761SOL     OW 1509   2.111   3.647   1.241
 1761SOL    HW1 1510   2.168   3.582   1.291
 1761SOL    HW2 1511   2.095   3.614   1.148
 1763SOL     OW 1512   2.244   2.562   0.480
 1763SOL    HW1 1513   2.289   2.472   0.477
 1763SOL    HW2 1514   2.150   2.551   0.513
 1764SOL     OW 1515   3.409   2.084   1.729
 1764SOL    HW1 1516   3.404   2.121   1.821
 1764SOL    HW2 1517   3.337   2.015   1.717
 1766SOL     OW 1518   2.643   2.126   1.749
 1766SOL    HW1 1519   2.710   2.065   1.792
 1766SOL    HW2 1520   2.570   2.145   1.814
 1767SOL     OW 1521   2.750   3.376   1.195
 1767SOL    HW1 1522   2.727   3.351   1.101
 1767SOL    HW2 1523   2.811   3.307   1.234
 1768SOL     OW 1524   3.213   2.452   1.433
 1768SOL    HW1 1525   3.241   2.409   1.518
 1768SOL    HW2 1526   3.238   2.548   1.434
 1769SOL     OW 1527   2.665   3.264   0.924
 1769SOL    HW1 1528   2.755   3.278   0.882
 1769SOL    HW2 1529   2.594   3.266   0.853
 1770SOL     OW 1530   2.784   2.365   0.899
 1770SOL    HW1 1531   2.759   2.356   0.803
 1770SOL    HW2 1532   2.832   2.283   0.930
 1771SOL     OW 1533   2.401   1.926   0.512
 1771SOL    HW1 1534   2.320   1.927   0.570
 1771SOL    HW2 1535   2.404   2.009   0.457
 1774SOL     OW 1536   2.938   2.545   1.464
 1774SOL    HW1 1537   2.858   2.484   1.467
 1774SOL    HW2 1538   3.019   2.492   1.440
 1776SOL     OW 1539   2.321   3.014   0.741
 1776SOL    HW1 1540   2.250   2.987   0.806
 1776SOL    HW2 1541   2.295   2.986   0.648
 1779SOL     OW 1542   1.940   2.418   1.386
 1779SOL    HW1 1543   2.032   2.417   1.345
 1779SOL    HW2 1544   1.934   2.492   1.453
 1780SOL     OW 1545   2.423   2.084   1.147
 1780SOL    HW1 1546   2.461   2.000   1.184
 1780SOL    HW2 1547   2.335   2.103   1.191
 1781SOL     OW 1548   2.728   2.316   0.642
 1781SOL    HW1 1549   2.696   2.388   0.580
 1781SOL    HW2 1550   2.752   2.235   0.589
 1782SOL     OW 1551   2.879   1.901   0.753
 1782SOL    HW1 1552   2.807   1.906   0.684
 1782SOL    HW2 1553   2.855   1.832   0.822
 1784SOL     OW 1554   3.328   2.452   0.992
 1784SOL    HW1 1555   3.298   2.357   0.999
 1784SOL    HW2 1556   3.401   2.468   1.058
 1790SOL     OW 1557   3.616   3.085   1.588
 1790SOL    HW1 1558   3.707   3.046   1.575
 1790SOL    HW2 1559   3.624   3.181   1.612
 1791SOL     OW 1560   2.926   3.209   1.340
 1791SOL    HW1 1561   2.846   3.186   1.395
 1791SOL    HW2 1562   3.009   3.183   1.389
 1793SOL     OW 1563   2.973   3.057   1.100
 1793SOL    HW1 1564   2.933   3.101   1.181
 1793SOL    HW2 1565   2.932   3.094   1.017
 1795SOL     OW 1566   2.777   1.951   1.402
 1795SOL    HW1 1567   2.802   1.931   1.307
 1795SOL    HW2 1568   2.849   2.007   1.444
 1796SOL     OW 1569   2.842   2.978   1.719
 1796SOL    HW1 1570   2.743   2.984   1.729
 1796SOL    HW2 1571   2.865   2.898   1.663
 1798SOL     OW 1572   2.272   2.675   1.251
 1798SOL    HW1 1573   2.358   2.687   1.301
 1798SOL    HW2 1574   2.230   2.588   1.278
 1799SOL     OW 1575   3.136   2.248   1.262
 1799SOL    HW1 1576   3.157   2.322   1.326
 1799SOL    HW2 1577   3.047   2.265   1.219
 1800SOL     OW 1578   1.926   3.426   1.331
 1800SOL    HW1 1579   1.880   3.508   1.297
 1800SOL    HW2 1580   2.024   3.445   1.340
 1802SOL     OW 1581   2.428   2.399   0.865
 1802SOL    HW1 1582   2.440   2.465   0.791
 1802SOL    HW2 1583   2.474   2.433   0.948
 1804SOL     OW 1584   3.134   3.307   1.142
 1804SOL    HW1 1585   3.181   3.320   1.229
 1804SOL    HW2 1586   3.068   3.233   1.151
 1806SOL     OW 1587   2.216   3.372   1.329
 1806SOL    HW1 1588   2.195   3.328   1.242
 1806SOL    HW2 1589   2.313   3.398   1.332
 1807SOL     OW 1590   2.264   2.613   1.598
 1807SOL    HW1 1591   2.332   2.668   1.551
 1807SOL    HW2 1592   2.304   2.525   1.625
 1808SOL     OW 1593   3.449   2.641   1.670
 1808SOL    HW1 1594   3.357   2.679   1.665
 1808SOL    HW2 1595   3.509   2.688   1.605
 1809SOL     OW 1596   2.875   1.967   1.770
 1809SOL    HW1 1597   2.881   2.052   1.718
 1809SOL    HW2 1598   2.907   1.891   1.713
 1810SOL     OW 1599   2.366   1.912   1.740
 1810SOL    HW1 1600   2.324   1.855   1.670
 1810SOL    HW2 1601   2.300   1.981   1.772
 1811SOL     OW 1602   2.435   2.732   1.029
 1811SOL    HW1 1603   2.479   2.821   1.020
 1811SOL    HW2 1604   2.372   2.732   1.106
 1812SOL     OW 1605   3.222   2.724   1.045
 1812SOL    HW1 1606   3.147   2.724   0.979
 1812SOL    HW2 1607   3.259   2.632   1.054
 1814SOL     OW 1608   2.169   2.075   1.231
 1814SOL    HW1 1609   2.146   2.112   1.321
 1814SOL    HW2 1610   2.139   1.980   1.225
 1815SOL     OW 1611   1.899   3.172   1.282
 1815SOL    HW1 1612   1.952   3.123   1.350
 1815SOL    HW2 1613   1.921   3.270   1.287
 1816SOL     OW 1614   2.594   2.496   1.064
 1816SOL    HW1 1615   2.653   2.470   0.988
 1816SOL    HW2 1616   2.566   2.592   1.053
 1817SOL     OW 1617   3.590   2.797   1.854
 1817SOL    HW1 1618   3.544   2.790   1.765
 1817SOL    HW2 1619   3.528   2.841   1.920
 1818SOL     OW 1620   2.169   1.925   0.618
 1818SOL    HW1 1621   2.158   2.019   0.651
 1818SOL    HW2 1622   2.164   1.862   0.695
 1820SOL     OW 1623   2.885   2.628   0.966
 1820SOL    HW1 1624   2.900   2.649   1.062
 1820SOL    HW2 1625   2.855   2.533   0.957
 1821SOL     OW 1626   2.842   3.435   1.700
 1821SOL    HW1 1627   2.822   3.479   1.612
 1821SOL    HW2 1628   2.881   3.344   1.684
 1823SOL     OW 1629   2.212   2.760   1.804
 1823SOL    HW1 1630   2.288   2.804   1.852
 1823SOL    HW2 1631   2.247   2.713   1.722
 1827SOL     OW 1632   2.181   2.672   0.949
 1827SOL    HW1 1633   2.274   2.708   0.954
 1827SOL    HW2 1634   2.175   2.587   1.001
 1828SOL     OW 1635   2.201   2.371   1.006
 1828SOL    HW1 1636   2.149   2.288   0.989
 1828SOL    HW2 1637   2.278   2.376   0.942
 1829SOL     OW 1638   3.000   2.242   1.678
 1829SOL    HW1 1639   2.955   2.305   1.742
 1829SOL    HW2 1640   3.093   2.273   1.661
 1830SOL     OW 1641   3.022   2.069   1.477
 1830SOL    HW1 1642   3.022   2.133   1.554
 1830SOL    HW2 1643   3.050   2.117   1.394
 1833SOL     OW 1644   2.366   3.430   0.910
 1833SOL    HW1 1645   2.432   3.504   0.919
 1833SOL    HW2 1646   2.410   3.351   0.868
 1834SOL     OW 1647   2.864   2.658   1.238
 1834SOL    HW1 1648   2.905   2.626   1.324
 1834SOL    HW2 1649   2.768   2.631   1.235
 1835SOL     OW 1650   1.902   2.406   1.114
 1835SOL    HW1 1651   1.987   2.373   1.073
 1835SOL    HW2 1652   1.915   2.421   1.212
 1836SOL     OW 1653   2.051   2.382   1.722
 1836SOL    HW1 1654   2.110   2.342   1.652
 1836SOL    HW2 1655   1.993   2.453   1.681
 1837SOL     OW 1656   3.231   2.812   1.660
 1837SOL    HW1 1657   3.270   2.901   1.680
 1837SOL    HW2 1658   3.241   2.792   1.563
 1839SOL     OW 1659   3.519   2.466   1.206
 1839SOL    HW1 1660   3.481   2.397   1.268
 1839SOL    HW2 1661   3.601   2.430   1.162
 1840SOL     OW 1662   2.114   3.426   1.744
 1840SOL    HW1 1663   2.084   3.483   1.820
 1840SOL    HW2 1664   2.107   3.329   1.770
 1841SOL     OW 1665   2.533   2.326   1.269
 1841SOL    HW1 1666   2.499   2.237   1.239
 1841SOL    HW2 1667   2.559   2.380   1.189
 1842SOL     OW 1668   2.792   3.540   1.465
 1842SOL    HW1 1669   2.768   3.522   1.370
 1842SOL    HW2 1670   2.822   3.634   1.475
 1844SOL     OW 1671   2.021   2.999   1.466
 1844SOL    HW1 1672   2.043   2.938   1.542
 1844SOL    HW2 1673   2.031   2.950   1.380
 1845SOL     OW 1674   3.209   2.921   1.234
 1845SOL    HW1 1675   3.233   2.858   1.160
 1845SOL    HW2 1676   3.119   2.961   1.216
 1849SOL     OW 1677   1.945   3.120   1.022
 1849SOL    HW1 1678   1.940   3.119   1.122
 1849SOL    HW2 1679   1.862   3.079   0.984
 1850SOL     OW 1680   2.550   3.524   1.716
 1850SOL    HW1 1681   2.494   3.605   1.725
 1850SOL    HW2 1682   2.602   3.528   1.630
 1854SOL     OW 1683   1.992   3.656   1.851
 1854SOL    HW1 1684   1.951   3.582   1.904
 1854SOL    HW2 1685   2.056   3.707   1.909
 1856SOL     OW 1686   2.692   3.135   1.422
 1856SOL    HW1 1687   2.687   3.168   1.517
 1856SOL    HW2 1688   2.606   3.154   1.376
 1860SOL     OW 1689   2.125   2.188   0.720
 1860SOL    HW1 1690   2.046   2.239   0.686
 1860SOL    HW2 1691   2.116   2.173   0.818
 1862SOL     OW 1692   2.684   2.864   1.372
 1862SOL    HW1 1693   2.724   2.863   1.280
 1862SOL    HW2 1694   2.694   2.956   1.412
 1865SOL     OW 1695   2.234   3.150   1.490
 1865SOL    HW1 1696   2.221   3.243   1.456
 1865SOL    HW2 1697   2.150   3.098   1.477
 1868SOL     OW 1698   2.876   2.098   0.971
 1868SOL    HW1 1699   2.868   2.062   0.878
 1868SOL    HW2 1700   2.874   2.022   1.036
 1870SOL     OW 1701   3.571   2.247   1.381
 1870SOL    HW1 1702   3.644   2.316   1.385
 1870SOL    HW2 1703   3.599   2.172   1.322
 1872SOL     OW 1704   1.967   2.875   1.726
 1872SOL    HW1 1705   1.890   2.842   1.780
 1872SOL    HW2 1706   2.052   2.845   1.768
 1873SOL     OW 1707   2.534   2.065   1.489
 1873SOL    HW1 1708   2.624   2.049   1.449
 1873SOL    HW2 1709   2.542   2.070   1.588
 1875SOL     OW 1710   3.302   2.718   1.398
 1875SOL    HW1 1711   3.245   2.770   1.335
 1875SOL    HW2 1712   3.398   2.730   1.374
 1877SOL     OW 1713   2.475   2.704   1.431
 1877SOL    HW1 1714   2.531   2.785   1.414
 1877SOL    HW2 1715   2.534   2.624   1.434
 1879SOL     OW 1716   2.578   2.427   1.708
 1879SOL    HW1 1717   2.597   2.492   1.782
 1879SOL    HW2 1718   2.638   2.347   1.717
 1880SOL     OW 1719   3.312   3.082   1.633
 1880SOL    HW1 1720   3.303   3.072   1.732
 1880SOL    HW2 1721   3.408   3.075   1.607
 1881SOL     OW 1722   2.252   3.603   1.560
 1881SOL    HW1 1723   2.161   3.644   1.558
 1881SOL    HW2 1724   2.245   3.509   1.592
 1882SOL     OW 1725   3.536   2.745   1.254
 1882SOL    HW1 1726   3.509   2.656   1.217
 1882SOL    HW2 1727   3.537   2.813   1.181
 1884SOL     OW 1728   2.456   2.607   0.652
 1884SOL    HW1 1729   2.506   2.692   0.633
 1884SOL    HW2 1730   2.368   2.609   0.604
 1885SOL     OW 1731   3.639   2.204   1.642
 1885SOL    HW1 1732   3.622   2.235   1.548
 1885SOL    HW2 1733   3.555   2.167   1.680
 1886SOL     OW 1734   3.592   2.796   1.517
 1886SOL    HW1 1735   3.630   2.887   1.532
 1886SOL    HW2 1736   3.584   2.779   1.418
 1889SOL     OW 1737   2.721   2.818   0.861
 1889SOL    HW1 1738   2.775   2.749   0.909
 1889SOL    HW2 1739   2.689   2.887   0.927
 1892SOL     OW 1740   2.083   3.176   1.844
 1892SOL    HW1 1741   2.018   3.103   1.823
 1892SOL    HW2 1742   2.087   3.190   1.942
 1894SOL     OW 1743   2.534   3.253   1.624
 1894SOL    HW1 1744   2.456   3.203   1.662
 1894SOL    HW2 1745   2.531   3.348   1.655
 1895SOL     OW 1746   3.686   2.054   1.227
 1895SOL    HW1 1747   3.682   1.964   1.271
 1895SOL    HW2 1748   3.689   2.043   1.128
 1896SOL     OW 1749   2.290   2.286   0.520
 1896SOL    HW1 1750   2.320   2.214   0.458
 1896SOL    HW2 1751   2.251   2.246   0.603
 1898SOL     OW 1752   2.179   2.409   1.280
 1898SOL    HW1 1753   2.217   2.350   1.352
 1898SOL    HW2 1754   2.219   2.383   1.192
 1900SOL     OW 1755   3.286   2.076   1.112
 1900SOL    HW1 1756   3.338   2.011   1.167
 1900SOL    HW2 1757   3.237   2.139   1.173
 1901SOL     OW 1758   2.863   1.896   1.154
 1901SOL    HW1 1759   2.800   1.824   1.123
 1901SOL    HW2 1760   2.956   1.860   1.154
 1903SOL     OW 1761   2.480   3.429   1.284
 1903SOL    HW1 1762   2.475   3.511   1.341
 1903SOL    HW2 1763   2.569   3.426   1.239
 1905SOL     OW 1764   3.162   2.315   0.691
 1905SOL    HW1 1765   3.103   2.395   0.695
 1905SOL    HW2 1766   3.177   2.280   0.784
 1909SOL     OW 1767   2.092   2.490   1.975
 1909SOL    HW1 1768   1.999   2.488   2.012
 1909SOL    HW2 1769   2.093   2.451   1.883
 1910SOL     OW 1770   2.087   2.137   2.858
 1910SOL    HW1 1771   2.122   2.120   2.950
 1910SOL    HW2 1772   1.999   2.092   2.846
 1911SOL     OW 1773   1.881   2.230   2.509
 1911SOL    HW1 1774   1.799   2.273   2.548
 1911SOL    HW2 1775   1.853   2.157   2.446
 1912SOL     OW 1776   2.431   3.137   3.027
 1912SOL    HW1 1777   2.338   3.130   2.990
 1912SOL    HW2 1778   2.442   3.226   3.071
 1913SOL     OW 1779   3.417   3.373   2.565
 1913SOL    HW1 1780   3.360   3.357   2.646
 1913SOL    HW2 1781   3.358   3.383   2.485
 1914SOL     OW 1782   2.997   2.565   2.579
 1914SOL    HW1 1783   3.054   2.643   2.554
 1914SOL    HW2 1784   2.937   2.591   2.655
 1915SOL     OW 1785   3.617   2.469   2.093
 1915SOL    HW1 1786   3.605   2.456   1.994
 1915SOL    HW2 1787   3.587   2.388   2.142
 1916SOL     OW 1788   2.630   3.006   2.885
 1916SOL    HW1 1789   2.552   3.023   2.945
 1916SOL    HW2 1790   2.664   3.093   2.849
 1917SOL     OW 1791   2.712   2.660   3.685
 1917SOL    HW1 1792   2.708   2.736   3.750
 1917SOL    HW2 1793   2.734   2.696   3.594
 1918SOL     OW 1794   2.547   2.874   2.527
 1918SOL    HW1 1795   2.616   2.858   2.597
 1918SOL    HW2 1796   2.474   2.931   2.565
 1919SOL     OW 1797   2.548   3.023   3.665
 1919SOL    HW1 1798   2.608   3.102   3.679
 1919SOL    HW2 1799   2.462   3.054   3.624
 1920SOL     OW 1800   2.197   3.297   2.923
 1920SOL    HW1 1801   2.119   3.266   2.870
 1920SOL    HW2 1802   2.255   3.355   2.866
 1922SOL     OW 1803   2.300   2.254   3.361
 1922SOL    HW1 1804   2.382   2.198   3.370
 1922SOL    HW2 1805   2.219   2.196   3.365
 1923SOL     OW 1806   3.465   2.309   2.599
 1923SOL    HW1 1807   3.391   2.355   2.549
 1923SOL    HW2 1808   3.516   2.377   2.652
 1924SOL     OW 1809   2.093   3.575   2.345
 1924SOL    HW1 1810   2.127   3.652   2.399
 1924SOL    HW2 1811   2.137   3.575   2.255
 1926SOL     OW 1812   2.092   3.296   2.400
 1926SOL    HW1 1813   2.066   3.392   2.400
 1926SOL    HW2 1814   2.021   3.242   2.445
 1927SOL     OW 1815   2.102   2.953   2.748
 1927SOL    HW1 1816   2.116   2.869   2.800
 1927SOL    HW2 1817   2.047   3.017   2.803
 1929SOL     OW 1818   2.468   2.826   1.985
 1929SOL    HW1 1819   2.475   2.910   1.931
 1929SOL    HW2 1820   2.514   2.839   2.073
 1930SOL     OW 1821   3.456   1.976   3.342
 1930SOL    HW1 1822   3.438   2.043   3.270
 1930SOL    HW2 1823   3.453   2.022   3.431
 1931SOL     OW 1824   1.984   2.505   2.425
 1931SOL    HW1 1825   1.939   2.417   2.442
 1931SOL    HW2 1826   1.983   2.559   2.509
 1933SOL     OW 1827   1.889   3.458   1.979
 1933SOL    HW1 1828   1.870   3.362   2.000
 1933SOL    HW2 1829   1.856   3.516   2.054
 1934SOL     OW 1830   3.551   2.784   2.474
 1934SOL    HW1 1831   3.646   2.755   2.482
 1934SOL    HW2 1832   3.543   2.849   2.399
 1935SOL     OW 1833   3.503   2.970   2.294
 1935SOL    HW1 1834   3.589   2.972   2.242
 1935SOL    HW2 1835   3.517   3.017   2.382
 1936SOL     OW 1836   1.975   2.599   3.459
 1936SOL    HW1 1837   2.063   2.586   3.504
 1936SOL    HW2 1838   1.962   2.696   3.437
 1937SOL     OW 1839   2.475   3.227   2.588
 1937SOL    HW1 1840   2.426   3.140   2.597
 1937SOL    HW2 1841   2.452   3.270   2.501
 1938SOL     OW 1842   3.155   3.090   3.285
 1938SOL    HW1 1843   3.192   3.017   3.227
 1938SOL    HW2 1844   3.207   3.095   3.370
 1939SOL     OW 1845   2.671   1.866   2.364
 1939SOL    HW1 1846   2.711   1.957   2.355
 1939SOL    HW2 1847   2.571   1.874   2.370
 1940SOL     OW 1848   2.059   2.838   3.126
 1940SOL    HW1 1849   2.148   2.793   3.112
 1940SOL    HW2 1850   1.986   2.773   3.107
 1941SOL     OW 1851   3.387   2.861   2.052
 1941SOL    HW1 1852   3.324   2.785   2.065
 1941SOL    HW2 1853   3.435   2.879   2.138
 1943SOL     OW 1854   2.179   2.113   3.663
 1943SOL    HW1 1855   2.250   2.184   3.669
 1943SOL    HW2 1856   2.091   2.152   3.691
 1944SOL     OW 1857   3.328   3.279   2.815
 1944SOL    HW1 1858   3.269   3.285   2.895
 1944SOL    HW2 1859   3.313   3.191   2.769
 1946SOL     OW 1860   2.460   2.591   2.132
 1946SOL    HW1 1861   2.484   2.660   2.064
 1946SOL    HW2 1862   2.382   2.624   2.186
 1947SOL     OW 1863   3.143   2.207   2.806
 1947SOL    HW1 1864   3.057   2.157   2.793
 1947SOL    HW2 1865   3.205   2.153   2.862
 1948SOL     OW 1866   3.438   3.524   2.169
 1948SOL    HW1 1867   3.527   3.570   2.172
 1948SOL    HW2 1868   3.417   3.500   2.074
 1949SOL     OW 1869   2.669   2.467   3.327
 1949SOL    HW1 1870   2.622   2.464   3.416
 1949SOL    HW2 1871   2.618   2.412   3.261
 1950SOL     OW 1872   3.256   2.331   3.536
 1950SOL    HW1 1873   3.236   2.374   3.624
 1950SOL    HW2 1874   3.334   2.269   3.545
 1951SOL     OW 1875   2.835   2.752   3.434
 1951SOL    HW1 1876   2.881   2.668   3.405
 1951SOL    HW2 1877   2.779   2.786   3.359
 1952SOL     OW 1878   2.853   2.272   3.104
 1952SOL    HW1 1879   2.776   2.306   3.158
 1952SOL    HW2 1880   2.819   2.221   3.025
 1953SOL     OW 1881   2.903   2.563   2.291
 1953SOL    HW1 1882   2.929   2.559   2.387
 1953SOL    HW2 1883   2.818   2.512   2.277
 1954SOL     OW 1884   1.938   2.673   2.651
 1954SOL    HW1 1885   2.037   2.661   2.660
 1954SOL    HW2 1886   1.914   2.768   2.672
 1956SOL     OW 1887   2.727   2.210   2.057
 1956SOL    HW1 1888   2.786   2.273   2.008
 1956SOL    HW2 1889   2.746   2.116   2.028
 1958SOL     OW 1890   3.224   3.006   2.407
 1958SOL    HW1 1891   3.307   2.977   2.359
 1958SOL    HW2 1892   3.175   3.073   2.351
 1959SOL     OW 1893   2.412   2.058   2.747
 1959SOL    HW1 1894   2.407   2.053   2.847
 1959SOL    HW2 1895   2.414   2.154   2.718
 1960SOL     OW 1896   2.870   3.318   2.339
 1960SOL    HW1 1897   2.824   3.390   2.287
 1960SOL    HW2 1898   2.866   3.338   2.437
 1961SOL     OW 1899   2.213   3.663   2.715
 1961SOL    HW1 1900   2.263   3.577   2.721
 1961SOL    HW2 1901   2.278   3.740   2.712
 1962SOL     OW 1902   3.657   2.928   2.735
 1962SOL    HW1 1903   3.595   2.913   2.659
 1962SOL    HW2 1904   3.605   2.939   2.820
 1964SOL     OW 1905   2.183   2.805   2.104
 1964SOL    HW1 1906   2.265   2.844   2.062
 1964SOL    HW2 1907   2.156   2.723   2.055
 1965SOL     OW 1908   3.320   2.597   2.590
 1965SOL    HW1 1909   3.315   2.532   2.665
 1965SOL    HW2 1910   3.400   2.656   2.603
 1966SOL     OW 1911   2.323   3.128   3.589
 1966SOL    HW1 1912   2.273   3.129   3.503
 1966SOL    HW2 1913   2.260   3.110   3.665
 1967SOL     OW 1914   2.973   3.638   2.099
 1967SOL    HW1 1915   2.913   3.576   2.149
 1967SOL    HW2 1916   3.004   3.594   2.014
 1968SOL     OW 1917   2.064   2.147   3.360
 1968SOL    HW1 1918   1.984   2.207   3.347
 1968SOL    HW2 1919   2.054   2.098   3.446
 1969SOL     OW 1920   3.494   3.239   1.943
 1969SOL    HW1 1921   3.462   3.333   1.933
 1969SOL    HW2 1922   3.418   3.176   1.931
 1970SOL     OW 1923   2.326   3.605   2.185
 1970SOL    HW1 1924   2.359   3.644   2.271
 1970SOL    HW2 1925   2.402   3.598   2.120
 1971SOL     OW 1926   3.262   1.969   2.288
 1971SOL    HW1 1927   3.238   1.932   2.198
 1971SOL    HW2 1928   3.361   1.985   2.292
 1972SOL     OW 1929   2.111   3.647   3.103
 1972SOL    HW1 1930   2.168   3.582   3.153
 1972SOL    HW2 1931   2.095   3.614   3.010
 1973SOL     OW 1932   2.802   3.560   2.766
 1973SOL    HW1 1933   2.882   3.503   2.787
 1973SOL    HW2 1934   2.753   3.520   2.689
 1974SOL     OW 1935   2.244   2.562   2.342
 1974SOL    HW1 1936   2.289   2.472   2.339
 1974SOL    HW2 1937   2.150   2.551   2.375
 1976SOL     OW 1938   2.476   1.984   1.979
 1976SOL    HW1 1939   2.574   1.962   1.986
 1976SOL    HW2 1940   2.445   1.967   1.886
 1977SOL     OW 1941   2.643   2.126   3.611
 1977SOL    HW1 1942   2.710   2.065   3.654
 1977SOL    HW2 1943   2.570   2.145   3.676
 1978SOL     OW 1944   2.750   3.376   3.057
 1978SOL    HW1 1945   2.727   3.351   2.963
 1978SOL    HW2 1946   2.811   3.307   3.096
 1979SOL     OW 1947   3.213   2.452   3.295
 1979SOL    HW1 1948   3.241   2.409   3.380
 1979SOL    HW2 1949   3.238   2.548   3.296
 1980SOL     OW 1950   2.665   3.264   2.786
 1980SOL    HW1 1951   2.755   3.278   2.744
 1980SOL    HW2 1952   2.594   3.266   2.715
 1981SOL     OW 1953   2.784   2.365   2.761
 1981SOL    HW1 1954   2.759   2.356   2.665
 1981SOL    HW2 1955   2.832   2.283   2.792
 1982SOL     OW 1956   2.401   1.926   2.374
 1982SOL    HW1 1957   2.320   1.927   2.432
 1982SOL    HW2 1958   2.404   2.009   2.319
 1983SOL     OW 1959   3.296   3.050   1.903
 1983SOL    HW1 1960   3.328   2.974   1.960
 1983SOL    HW2 1961   3.204   3.077   1.933
 1984SOL     OW 1962   2.159   1.897   2.033
 1984SOL    HW1 1963   2.208   1.981   2.012
 1984SOL    HW2 1964   2.221   1.832   2.078
 1985SOL     OW 1965   2.797   2.098   2.342
 1985SOL    HW1 1966   2.749   2.139   2.264
 1985SOL    HW2 1967   2.896   2.096   2.323
 1986SOL     OW 1968   2.938   2.545   3.326
 1986SOL    HW1 1969   2.858   2.484   3.329
 1986SOL    HW2 1970   3.019   2.492   3.302
 1987SOL     OW 1971   3.089   3.432   2.655
 1987SOL    HW1 1972   3.110   3.506   2.590
 1987SOL    HW2 1973   3.157   3.432   2.728
 1988SOL     OW 1974   2.321   3.014   2.603
 1988SOL    HW1 1975   2.250   2.987   2.668
 1988SOL    HW2 1976   2.295   2.986   2.510
 1989SOL     OW 1977   3.133   3.659   2.453
 1989SOL    HW1 1978   3.177   3.723   2.389
 1989SOL    HW2 1979   3.083   3.711   2.523
 1990SOL     OW 1980   2.894   2.411   1.878
 1990SOL    HW1 1981   2.853   2.493   1.839
 1990SOL    HW2 1982   2.958   2.437   1.951
 1991SOL     OW 1983   1.940   2.418   3.248
 1991SOL    HW1 1984   2.032   2.417   3.207
 1991SOL    HW2 1985   1.934   2.492   3.315
 1992SOL     OW 1986   2.423   2.084   3.009
 1992SOL    HW1 1987   2.461   2.000   3.046
 1992SOL    HW2 1988   2.335   2.103   3.053
 1993SOL     OW 1989   2.728   2.316   2.504
 1993SOL    HW1 1990   2.696   2.388   2.442
 1993SOL    HW2 1991   2.752   2.235   2.451
 1994SOL     OW 1992   2.879   1.901   2.615
 1994SOL    HW1 1993   2.807   1.906   2.546
 1994SOL    HW2 1994   2.855   1.832   2.684
 1995SOL     OW 1995   3.291   3.035   2.729
 1995SOL    HW1 1996   3.236   2.951   2.722
 1995SOL    HW2 1997   3.317   3.064   2.637
 1996SOL     OW 1998   3.328   2.452   2.854
 1996SOL    HW1 1999   3.298   2.357   2.861
 1996SOL    HW2 2000   3.401   2.468   2.920
 1997SOL     OW 2001   3.719   2.695   2.239
 1997SOL    HW1 2002   3.761   2.631   2.303
 1997SOL    HW2 2003   3.681   2.644   2.161
 1998SOL     OW 2004   2.350   3.247   2.036
 1998SOL    HW1 2005   2.263   3.232   2.083
 1998SOL    HW2 2006   2.333   3.273   1.941
 1999SOL     OW 2007   3.526   3.142   2.519
 1999SOL    HW1 2008   3.625   3.150   2.533
 1999SOL    HW2 2009   3.481   3.226   2.550
 2000SOL     OW 2010   3.252   2.437   1.940
 2000SOL    HW1 2011   3.198   2.416   2.021
 2000SOL    HW2 2012   3.343   2.396   1.949
 2002SOL     OW 2013   2.926   3.209   3.202
 2002SOL    HW1 2014   2.846   3.186   3.257
 2002SOL    HW2 2015   3.009   3.183   3.251
 2004SOL     OW 2016   2.973   3.057   2.962
 2004SOL    HW1 2017   2.933   3.101   3.043
 2004SOL    HW2 2018   2.932   3.094   2.879
 2005SOL     OW 2019   3.500   2.961   2.941
 2005SOL    HW1 2020   3.505   3.042   3.000
 2005SOL    HW2 2021   3.414   2.963   2.890
 2006SOL     OW 2022   2.777   1.951   3.264
 2006SOL    HW1 2023   2.802   1.931   3.169
 2006SOL    HW2 2024   2.849   2.007   3.306
 2007SOL     OW 2025   2.842   2.978   3.581
 2007SOL    HW1 2026   2.743   2.984   3.591
 2007SOL    HW2 2027   2.865   2.898   3.525
 2008SOL     OW 2028   2.567   2.912   2.230
 2008SOL    HW1 2029   2.553   2.919   2.329
 2008SOL    HW2 2030   2.651   2.861   2.212
 2009SOL     OW 2031   2.272   2.675   3.113
 2009SOL    HW1 2032   2.358   2.687   3.163
 2009SOL    HW2 2033   2.230   2.588   3.140
 2010SOL     OW 2034   3.136   2.248   3.124
 2010SOL    HW1 2035   3.157   2.322   3.188
 2010SOL    HW2 2036   3.047   2.265   3.081
 2011SOL     OW 2037   1.926   3.426   3.193
 2011SOL    HW1 2038   1.880   3.508   3.159
 2011SOL    HW2 2039   2.024   3.445   3.202
 2012SOL     OW 2040   2.229   2.962   2.363
 2012SOL    HW1 2041   2.222   3.045   2.307
 2012SOL    HW2 2042   2.233   2.882   2.303
 2013SOL     OW 2043   2.428   2.399   2.727
 2013SOL    HW1 2044   2.440   2.465   2.653
 2013SOL    HW2 2045   2.474   2.433   2.810
 2014SOL     OW 2046   3.114   3.210   2.250
 2014SOL    HW1 2047   3.164   3.287   2.290
 2014SOL    HW2 2048   3.019   3.212   2.282
 2015SOL     OW 2049   3.134   3.307   3.004
 2015SOL    HW1 2050   3.181   3.320   3.091
 2015SOL    HW2 2051   3.068   3.233   3.013
 2016SOL     OW 2052   3.444   2.501   2.334
 2016SOL    HW1 2053   3.413   2.562   2.407
 2016SOL    HW2 2054   3.494   2.553   2.265
 2017SOL     OW 2055   2.216   3.372   3.191
 2017SOL    HW1 2056   2.195   3.328   3.104
 2017SOL    HW2 2057   2.313   3.398   3.194
 2018SOL     OW 2058   2.264   2.613   3.460
 2018SOL    HW1 2059   2.332   2.668   3.413
 2018SOL    HW2 2060   2.304   2.525   3.487
 2020SOL     OW 2061   2.875   1.967   3.632
 2020SOL    HW1 2062   2.881   2.052   3.580
 2020SOL    HW2 2063   2.907   1.891   3.575
 2021SOL     OW 2064   2.366   1.912   3.602
 2021SOL    HW1 2065   2.324   1.855   3.532
 2021SOL    HW2 2066   2.300   1.981   3.634
 2022SOL     OW 2067   2.435   2.732   2.891
 2022SOL    HW1 2068   2.479   2.821   2.882
 2022SOL    HW2 2069   2.372   2.732   2.968
 2023SOL     OW 2070   3.222   2.724   2.907
 2023SOL    HW1 2071   3.147   2.724   2.841
 2023SOL    HW2 2072   3.259   2.632   2.916
 2024SOL     OW 2073   3.071   2.387   2.137
 2024SOL    HW1 2074   3.084   2.303   2.191
 2024SOL    HW2 2075   3.042   2.461   2.197
 2025SOL     OW 2076   2.169   2.075   3.093
 2025SOL    HW1 2077   2.146   2.112   3.183
 2025SOL    HW2 2078   2.139   1.980   3.087
 2026SOL     OW 2079   1.899   3.172   3.144
 2026SOL    HW1 2080   1.952   3.123   3.212
 2026SOL    HW2 2081   1.921   3.270   3.149
 2027SOL     OW 2082   2.594   2.496   2.926
 2027SOL    HW1 2083   2.653   2.470   2.850
 2027SOL    HW2 2084   2.566   2.592   2.915
 2029SOL     OW 2085   2.169   1.925   2.480
 2029SOL    HW1 2086   2.158   2.019   2.513
 2029SOL    HW2 2087   2.164   1.862   2.557
 2030SOL     OW 2088   3.484   2.229   2.236
 2030SOL    HW1 2089   3.486   2.153   2.300
 2030SOL    HW2 2090   3.436   2.306   2.276
 2031SOL     OW 2091   2.885   2.628   2.828
 2031SOL    HW1 2092   2.900   2.649   2.924
 2031SOL    HW2 2093   2.855   2.533   2.819
 2034SOL     OW 2094   2.212   2.760   3.666
 2034SOL    HW1 2095   2.288   2.804   3.714
 2034SOL    HW2 2096   2.247   2.713   3.584
 2035SOL     OW 2097   3.402   2.136   1.987
 2035SOL    HW1 2098   3.341   2.061   2.010
 2035SOL    HW2 2099   3.424   2.188   2.070
 2036SOL     OW 2100   3.165   2.700   1.904
 2036SOL    HW1 2101   3.199   2.607   1.919
 2036SOL    HW2 2102   3.183   2.727   1.809
 2037SOL     OW 2103   2.930   3.195   2.711
 2037SOL    HW1 2104   2.937   3.111   2.656
 2037SOL    HW2 2105   2.992   3.264   2.675
 2038SOL     OW 2106   2.181   2.672   2.811
 2038SOL    HW1 2107   2.274   2.708   2.816
 2038SOL    HW2 2108   2.175   2.587   2.863
 2039SOL     OW 2109   2.201   2.371   2.868
 2039SOL    HW1 2110   2.149   2.288   2.851
 2039SOL    HW2 2111   2.278   2.376   2.804
 2040SOL     OW 2112   3.000   2.242   3.540
 2040SOL    HW1 2113   2.955   2.305   3.604
 2040SOL    HW2 2114   3.093   2.273   3.523
 2041SOL     OW 2115   3.022   2.069   3.339
 2041SOL    HW1 2116   3.022   2.133   3.416
 2041SOL    HW2 2117   3.050   2.117   3.256
 2042SOL     OW 2118   1.870   3.188   2.062
 2042SOL    HW1 2119   1.777   3.209   2.031
 2042SOL    HW2 2120   1.880   3.089   2.075
 2043SOL     OW 2121   1.950   3.663   2.789
 2043SOL    HW1 2122   1.908   3.577   2.762
 2043SOL    HW2 2123   2.044   3.666   2.755
 2044SOL     OW 2124   2.366   3.430   2.772
 2044SOL    HW1 2125   2.432   3.504   2.781
 2044SOL    HW2 2126   2.410   3.351   2.730
 2045SOL     OW 2127   2.864   2.658   3.100
 2045SOL    HW1 2128   2.905   2.626   3.186
 2045SOL    HW2 2129   2.768   2.631   3.097
 2046SOL     OW 2130   1.902   2.406   2.976
 2046SOL    HW1 2131   1.987   2.373   2.935
 2046SOL    HW2 2132   1.915   2.421   3.074
 2047SOL     OW 2133   2.051   2.382   3.584
 2047SOL    HW1 2134   2.110   2.342   3.514
 2047SOL    HW2 2135   1.993   2.453   3.543
 2048SOL     OW 2136   3.231   2.812   3.522
 2048SOL    HW1 2137   3.270   2.901   3.542
 2048SOL    HW2 2138   3.241   2.792   3.425
 2049SOL     OW 2139   2.677   2.434   2.187
 2049SOL    HW1 2140   2.684   2.345   2.141
 2049SOL    HW2 2141   2.583   2.468   2.179
 2050SOL     OW 2142   3.519   2.466   3.068
 2050SOL    HW1 2143   3.481   2.397   3.130
 2050SOL    HW2 2144   3.601   2.430   3.024
 2052SOL     OW 2145   2.533   2.326   3.131
 2052SOL    HW1 2146   2.499   2.237   3.101
 2052SOL    HW2 2147   2.559   2.380   3.051
 2054SOL     OW 2148   2.021   2.999   3.328
 2054SOL    HW1 2149   2.043   2.938   3.404
 2054SOL    HW2 2150   2.031   2.950   3.242
 2055SOL     OW 2151   3.209   2.921   3.096
 2055SOL    HW1 2152   3.233   2.858   3.022
 2055SOL    HW2 2153   3.119   2.961   3.078
 2056SOL     OW 2154   3.164   2.717   2.171
 2056SOL    HW1 2155   3.078   2.686   2.213
 2056SOL    HW2 2156   3.160   2.703   2.072
 2059SOL     OW 2157   1.945   3.120   2.884
 2059SOL    HW1 2158   1.940   3.119   2.984
 2059SOL    HW2 2159   1.862   3.079   2.846
 2061SOL     OW 2160   3.588   1.997   2.385
 2061SOL    HW1 2161   3.661   1.980   2.318
 2061SOL    HW2 2162   3.557   1.910   2.423
 2062SOL     OW 2163   3.250   3.435   2.339
 2062SOL    HW1 2164   3.317   3.447   2.265
 2062SOL    HW2 2165   3.210   3.524   2.362
 2064SOL     OW 2166   3.142   2.789   2.534
 2064SOL    HW1 2167   3.202   2.708   2.536
 2064SOL    HW2 2168   3.182   2.858   2.474
 2065SOL     OW 2169   2.692   3.135   3.284
 2065SOL    HW1 2170   2.687   3.168   3.379
 2065SOL    HW2 2171   2.606   3.154   3.238
 2066SOL     OW 2172   2.534   3.478   2.016
 2066SOL    HW1 2173   2.543   3.488   1.917
 2066SOL    HW2 2174   2.494   3.389   2.037
 2068SOL     OW 2175   3.703   2.037   2.825
 2068SOL    HW1 2176   3.742   1.952   2.789
 2068SOL    HW2 2177   3.605   2.039   2.806
 2069SOL     OW 2178   2.125   2.188   2.582
 2069SOL    HW1 2179   2.046   2.239   2.548
 2069SOL    HW2 2180   2.116   2.173   2.680
 2070SOL     OW 2181   3.056   3.474   1.893
 2070SOL    HW1 2182   3.062   3.381   1.930
 2070SOL    HW2 2183   2.997   3.474   1.813
 2071SOL     OW 2184   2.684   2.864   3.234
 2071SOL    HW1 2185   2.724   2.863   3.142
 2071SOL    HW2 2186   2.694   2.956   3.274
 2072SOL     OW 2187   2.778   2.772   2.153
 2072SOL    HW1 2188   2.841   2.810   2.085
 2072SOL    HW2 2189   2.818   2.689   2.192
 2073SOL     OW 2190   3.366   3.469   1.906
 2073SOL    HW1 2191   3.274   3.506   1.913
 2073SOL    HW2 2192   3.404   3.489   1.816
 2074SOL     OW 2193   2.234   3.150   3.352
 2074SOL    HW1 2194   2.221   3.243   3.318
 2074SOL    HW2 2195   2.150   3.098   3.339
 2076SOL     OW 2196   2.901   2.960   2.558
 2076SOL    HW1 2197   2.831   2.913   2.612
 2076SOL    HW2 2198   2.960   2.892   2.515
 2077SOL     OW 2199   2.876   2.098   2.833
 2077SOL    HW1 2200   2.868   2.062   2.740
 2077SOL    HW2 2201   2.874   2.022   2.898
 2078SOL     OW 2202   2.452   3.349   2.353
 2078SOL    HW1 2203   2.494   3.291   2.283
 2078SOL    HW2 2204   2.408   3.428   2.309
 2079SOL     OW 2205   3.571   2.247   3.243
 2079SOL    HW1 2206   3.644   2.316   3.247
 2079SOL    HW2 2207   3.599   2.172   3.184
 2080SOL     OW 2208   2.117   3.210   2.152
 2080SOL    HW1 2209   2.021   3.211   2.125
 2080SOL    HW2 2210   2.129   3.263   2.236
 2081SOL     OW 2211   1.967   2.875   3.588
 2081SOL    HW1 2212   1.890   2.842   3.642
 2081SOL    HW2 2213   2.052   2.845   3.630
 2082SOL     OW 2214   2.534   2.065   3.351
 2082SOL    HW1 2215   2.624   2.049   3.311
 2082SOL    HW2 2216   2.542   2.070   3.450
 2083SOL     OW 2217   1.937   2.207   1.895
 2083SOL    HW1 2218   1.845   2.179   1.866
 2083SOL    HW2 2219   1.968   2.284   1.839
 2084SOL     OW 2220   3.302   2.718   3.260
 2084SOL    HW1 2221   3.245   2.770   3.197
 2084SOL    HW2 2222   3.398   2.730   3.236
 2085SOL     OW 2223   1.934   2.028   2.180
 2085SOL    HW1 2224   1.917   2.111   2.126
 2085SOL    HW2 2225   2.024   1.991   2.158
 2086SOL     OW 2226   3.045   3.197   1.981
 2086SOL    HW1 2227   2.946   3.186   1.983
 2086SOL    HW2 2228   3.079   3.212   2.074
 2087SOL     OW 2229   2.475   2.704   3.293
 2087SOL    HW1 2230   2.531   2.785   3.276
 2087SOL    HW2 2231   2.534   2.624   3.296
 2089SOL     OW 2232   2.578   2.427   3.570
 2089SOL    HW1 2233   2.597   2.492   3.644
 2089SOL    HW2 2234   2.638   2.347   3.579
 2092SOL     OW 2235   3.536   2.745   3.116
 2092SOL    HW1 2236   3.509   2.656   3.079
 2092SOL    HW2 2237   3.537   2.813   3.043
 2093SOL     OW 2238   3.087   2.187   2.311
 2093SOL    HW1 2239   3.152   2.113   2.300
 2093SOL    HW2 2240   3.107   2.237   2.395
 2094SOL     OW 2241   2.456   2.607   2.514
 2094SOL    HW1 2242   2.506   2.692   2.495
 2094SOL    HW2 2243   2.368   2.609   2.466
 2097SOL     OW 2244   2.721   3.236   1.878
 2097SOL    HW1 2245   2.675   3.251   1.966
 2097SOL    HW2 2246   2.765   3.321   1.848
 2098SOL     OW 2247   2.523   3.652   2.815
 2098SOL    HW1 2248   2.477   3.740   2.802
 2098SOL    HW2 2249   2.622   3.664   2.808
 2099SOL     OW 2250   2.721   2.818   2.723
 2099SOL    HW1 2251   2.775   2.749   2.771
 2099SOL    HW2 2252   2.689   2.887   2.789
 2100SOL     OW 2253   2.945   2.846   1.949
 2100SOL    HW1 2254   2.922   2.899   1.867
 2100SOL    HW2 2255   3.026   2.790   1.930
 2102SOL     OW 2256   2.083   3.176   3.706
 2102SOL    HW1 2257   2.018   3.103   3.685
 2102SOL    HW2 2258   2.087   3.190   3.804
 2103SOL     OW 2259   1.941   3.102   2.515
 2103SOL    HW1 2260   1.940   3.055   2.603
 2103SOL    HW2 2261   2.023   3.074   2.464
 2104SOL     OW 2262   2.534   3.253   3.486
 2104SOL    HW1 2263   2.456   3.203   3.524
 2104SOL    HW2 2264   2.531   3.348   3.517
 2105SOL     OW 2265   3.686   2.054   3.089
 2105SOL    HW1 2266   3.682   1.964   3.133
 2105SOL    HW2 2267   3.689   2.043   2.990
 2107SOL     OW 2268   2.179   2.409   3.142
 2107SOL    HW1 2269   2.217   2.350   3.214
 2107SOL    HW2 2270   2.219   2.383   3.054
 2108SOL     OW 2271   2.674   3.448   2.549
 2108SOL    HW1 2272   2.706   3.458   2.455
 2108SOL    HW2 2273   2.595   3.386   2.551
 2109SOL     OW 2274   3.286   2.076   2.974
 2109SOL    HW1 2275   3.338   2.011   3.029
 2109SOL    HW2 2276   3.237   2.139   3.035
 2110SOL     OW 2277   2.863   1.896   3.016
 2110SOL    HW1 2278   2.800   1.824   2.985
 2110SOL    HW2 2279   2.956   1.860   3.016
 2111SOL     OW 2280   2.632   3.192   2.163
 2111SOL    HW1 2281   2.586   3.105   2.180
 2111SOL    HW2 2282   2.723   3.189   2.204
 2112SOL     OW 2283   2.480   3.429   3.146
 2112SOL    HW1 2284   2.475   3.511   3.203
 2112SOL    HW2 2285   2.569   3.426   3.101
 2113SOL     OW 2286   3.214   1.914   2.030
 2113SOL    HW1 2287   3.249   1.873   1.946
 2113SOL    HW2 2288   3.124   1.876   2.050
 2114SOL     OW 2289   3.162   2.315   2.553
 2114SOL    HW1 2290   3.103   2.395   2.557
 2114SOL    HW2 2291   3.177   2.280   2.646
 2115SOL     OW 2292   3.455   2.083   2.744
 2115SOL    HW1 2293   3.371   2.082   2.798
 2115SOL    HW2 2294   3.457   2.166   2.688
 2116SOL     OW 2295   1.901   2.939   2.162
 2116SOL    HW1 2296   2.000   2.928   2.153
 2116SOL    HW2 2297   1.861   2.853   2.194
 2117SOL     OW 2298   2.737   3.508   2.199
 2117SOL    HW1 2299   2.660   3.473   2.145
 2117SOL    HW2 2300   2.705   3.579   2.261
 2118SOL     OW 2301   2.092   2.490   3.837
 2118SOL    HW1 2302   1.999   2.488   3.874
 2118SOL    HW2 2303   2.093   2.451   3.745
 2122SOL     OW 2304   2.468   2.826   3.847
 2122SOL    HW1 2305   2.475   2.910   3.793
 2122SOL    HW2 2306   2.514   2.839   3.935
 2136SOL     OW 2307   2.727   2.210   3.919
 2136SOL    HW1 2308   2.786   2.273   3.870
 2136SOL    HW2 2309   2.746   2.116   3.890
 2146SOL     OW 2310   2.476   1.984   3.841
 2146SOL    HW1 2311   2.574   1.962   3.848
 2146SOL    HW2 2312   2.445   1.967   3.748
 2149SOL     OW 2313   2.159   1.897   3.895
 2149SOL    HW1 2314   2.208   1.981   3.874
 2149SOL    HW2 2315   2.221   1.832   3.940
 2153SOL     OW 2316   2.894   2.411   3.740
 2153SOL    HW1 2317   2.853   2.493   3.701
 2153SOL    HW2 2318   2.958   2.437   3.813
 2170SOL     OW 2319   2.335   2.362   3.915
 2170SOL    HW1 2320   2.396   2.442   3.919
 2170SOL    HW2 2321   2.240   2.393   3.922
 2181SOL     OW 2322   1.937   2.207   3.757
 2181SOL    HW1 2323   1.845   2.179   3.728
 2181SOL    HW2 2324   1.968   2.284   3.701
 2235SOL     OW 2325   2.875   3.829   1.770
 2235SOL    HW1 2326   2.881   3.914   1.718
 2235SOL    HW2 2327   2.907   3.753   1.713
 2236SOL     OW 2328   2.366   3.774   1.740
 2236SOL    HW1 2329   2.324   3.717   1.670
 2236SOL    HW2 2330   2.300   3.843   1.772
 2282SOL     OW 2331   2.671   3.728   2.364
 2282SOL    HW1 2332   2.711   3.819   2.355
 2282SOL    HW2 2333   2.571   3.736   2.370
 2291SOL     OW 2334   2.412   3.920   2.747
 2291SOL    HW1 2335   2.407   3.915   2.847
 2291SOL    HW2 2336   2.414   4.016   2.718
 2296SOL     OW 2337   2.476   3.846   1.979
 2296SOL    HW1 2338   2.574   3.824   1.986
 2296SOL    HW2 2339   2.445   3.829   1.886
 2300SOL     OW 2340   2.401   3.788   2.374
 2300SOL    HW1 2341   2.320   3.789   2.432
 2300SOL    HW2 2342   2.404   3.871   2.319
 2301SOL     OW 2343   2.159   3.759   2.033
 2301SOL    HW1 2344   2.208   3.843   2.012
 2301SOL    HW2 2345   2.221   3.694   2.078
 2308SOL     OW 2346   2.879   3.763   2.615
 2308SOL    HW1 2347   2.807   3.768   2.546
 2308SOL    HW2 2348   2.855   3.694   2.684
 2310SOL     OW 2349   2.389   3.980   2.190
 2310SOL    HW1 2350   2.416   3.921   2.115
 2310SOL    HW2 2351   2.389   4.075   2.159
 2320SOL     OW 2352   2.169   3.787   2.480
 2320SOL    HW1 2353   2.158   3.881   2.513
 2320SOL    HW2 2354   2.164   3.724   2.557
 2341SOL     OW 2355   1.934   3.890   2.180
 2341SOL    HW1 2356   1.917   3.973   2.126
 2341SOL    HW2 2357   2.024   3.853   2.158
 2444SOL     OW 2358   3.854   1.794   1.851
 2444SOL    HW1 2359   3.813   1.720   1.904
 2444SOL    HW2 2360   3.918   1.845   1.909
 2472SOL     OW 2361   3.751   1.596   1.979
 2472SOL    HW1 2362   3.732   1.500   2.000
 2472SOL    HW2 2363   3.718   1.654   2.054
 2512SOL     OW 2364   3.732   1.326   2.062
 2512SOL    HW1 2365   3.639   1.347   2.031
 2512SOL    HW2 2366   3.742   1.227   2.075
 2513SOL     OW 2367   3.812   1.801   2.789
 2513SOL    HW1 2368   3.770   1.715   2.762
 2513SOL    HW2 2369   3.906   1.804   2.755
 2584SOL     OW 2370   3.837   2.599   1.597
 2584SOL    HW1 2371   3.925   2.586   1.642
 2584SOL    HW2 2372   3.824   2.696   1.575
 2627SOL     OW 2373   3.913   2.382   1.722
 2627SOL    HW1 2374   3.972   2.342   1.652
 2627SOL    HW2 2375   3.855   2.453   1.681
 2651SOL     OW 2376   3.954   2.490   1.975
 2651SOL    HW1 2377   3.861   2.488   2.012
 2651SOL    HW2 2378   3.955   2.451   1.883
 2653SOL     OW 2379   3.743   2.230   2.509
 2653SOL    HW1 2380   3.661   2.273   2.548
 2653SOL    HW2 2381   3.715   2.157   2.446
 2661SOL     OW 2382   3.846   2.505   2.425
 2661SOL    HW1 2383   3.801   2.417   2.442
 2661SOL    HW2 2384   3.845   2.559   2.509
 2669SOL     OW 2385   3.800   2.673   2.651
 2669SOL    HW1 2386   3.899   2.661   2.660
 2669SOL    HW2 2387   3.776   2.768   2.672
 2706SOL     OW 2388   3.764   2.406   2.976
 2706SOL    HW1 2389   3.849   2.373   2.935
 2706SOL    HW2 2390   3.777   2.421   3.074
 2721SOL     OW 2391   3.799   2.207   1.895
 2721SOL    HW1 2392   3.707   2.179   1.866
 2721SOL    HW2 2393   3.830   2.284   1.839
 2722SOL     OW 2394   3.796   2.028   2.180
 2722SOL    HW1 2395   3.779   2.111   2.126
 2722SOL    HW2 2396   3.886   1.991   2.158
 2731SOL     OW 2397   3.763   2.939   2.162
 2731SOL    HW1 2398   3.862   2.928   2.153
 2731SOL    HW2 2399   3.723   2.853   2.194
   4.42995   4.42995   4.42995
