mobley_2316618_GMX.gro created by acpype (v: 2023.10.27) on Thu May 21 00:23:06 2026
 2382
    1MOL     C1    1   2.116   2.696   2.398
    1MOL     C2    2   2.160   2.575   2.347
    1MOL     C3    3   2.744   2.768   2.780
    1MOL     C4    4   2.196   2.769   2.486
    1MOL     C5    5   2.285   2.525   2.384
    1MOL     C6    6   2.619   2.817   2.743
    1MOL     C7    7   2.788   2.646   2.729
    1MOL     C8    8   2.322   2.720   2.523
    1MOL     C9    9   2.366   2.598   2.472
    1MOL    C10   10   2.538   2.744   2.655
    1MOL    C11   11   2.583   2.622   2.604
    1MOL    C12   12   2.708   2.573   2.642
    1MOL    C13   13   2.406   2.798   2.616
    1MOL    C14   14   2.498   2.544   2.511
    1MOL    C15   15   2.888   2.400   2.633
    1MOL    C16   16   2.915   2.269   2.562
    1MOL     N1   17   2.760   2.450   2.594
    1MOL     O1   18   2.367   2.905   2.661
    1MOL     O2   19   2.534   2.437   2.465
    1MOL     O3   20   2.817   2.173   2.601
    1MOL     H1   21   2.018   2.735   2.369
    1MOL     H2   22   2.098   2.518   2.279
    1MOL     H3   23   2.807   2.824   2.848
    1MOL     H4   24   2.159   2.864   2.524
    1MOL     H5   25   2.317   2.429   2.343
    1MOL     H6   26   2.587   2.913   2.784
    1MOL     H7   27   2.886   2.608   2.759
    1MOL     H8   28   2.889   2.388   2.742
    1MOL     H9   29   2.964   2.475   2.605
    1MOL    H10   30   3.014   2.230   2.592
    1MOL    H11   31   2.913   2.280   2.454
    1MOL    H12   32   2.703   2.398   2.531
    1MOL    H13   33   2.838   2.091   2.554
   97SOL     OW   34   1.592   1.629   1.625
   97SOL    HW1   35   1.619   1.663   1.535
   97SOL    HW2   36   1.671   1.591   1.671
  127SOL     OW   37   1.859   1.518   1.605
  127SOL    HW1   38   1.873   1.545   1.510
  127SOL    HW2   39   1.942   1.540   1.658
  163SOL     OW   40   1.650   1.720   1.394
  163SOL    HW1   41   1.703   1.730   1.310
  163SOL    HW2   42   1.623   1.810   1.428
  219SOL     OW   43   1.555   1.511   2.565
  219SOL    HW1   44   1.498   1.495   2.646
  219SOL    HW2   45   1.496   1.521   2.485
  227SOL     OW   46   1.460   1.505   3.201
  227SOL    HW1   47   1.484   1.599   3.227
  227SOL    HW2   48   1.444   1.451   3.283
  238SOL     OW   49   1.842   1.767   2.221
  238SOL    HW1   50   1.896   1.738   2.301
  238SOL    HW2   51   1.872   1.857   2.192
  241SOL     OW   52   1.641   1.108   2.294
  241SOL    HW1   53   1.727   1.110   2.242
  241SOL    HW2   54   1.655   1.155   2.382
  250SOL     OW   55   1.466   1.417   2.815
  250SOL    HW1   56   1.407   1.423   2.895
  250SOL    HW2   57   1.451   1.329   2.769
  251SOL     OW   58   1.667   1.714   2.434
  251SOL    HW1   59   1.626   1.691   2.346
  251SOL    HW2   60   1.649   1.640   2.499
  254SOL     OW   61   1.576   1.662   2.169
  254SOL    HW1   62   1.665   1.708   2.172
  254SOL    HW2   63   1.555   1.638   2.074
  268SOL     OW   64   1.795   1.066   2.735
  268SOL    HW1   65   1.733   1.051   2.659
  268SOL    HW2   66   1.743   1.077   2.820
  273SOL     OW   67   1.111   1.776   2.099
  273SOL    HW1   68   1.051   1.714   2.149
  273SOL    HW2   69   1.142   1.732   2.014
  275SOL     OW   70   1.632   1.377   1.943
  275SOL    HW1   71   1.600   1.471   1.933
  275SOL    HW2   72   1.556   1.314   1.931
  293SOL     OW   73   1.227   1.570   2.655
  293SOL    HW1   74   1.248   1.644   2.590
  293SOL    HW2   75   1.295   1.570   2.728
  295SOL     OW   76   1.271   1.797   2.453
  295SOL    HW1   77   1.315   1.861   2.389
  295SOL    HW2   78   1.221   1.849   2.523
  305SOL     OW   79   1.664   1.280   2.519
  305SOL    HW1   80   1.763   1.288   2.533
  305SOL    HW2   81   1.619   1.364   2.550
  310SOL     OW   82   1.592   1.629   3.487
  310SOL    HW1   83   1.619   1.663   3.397
  310SOL    HW2   84   1.671   1.591   3.533
  312SOL     OW   85   1.638   1.099   2.941
  312SOL    HW1   86   1.643   1.180   3.000
  312SOL    HW2   87   1.552   1.101   2.890
  322SOL     OW   88   1.272   1.445   3.004
  322SOL    HW1   89   1.319   1.458   3.091
  322SOL    HW2   90   1.206   1.371   3.013
  340SOL     OW   91   1.859   1.518   3.467
  340SOL    HW1   92   1.873   1.545   3.372
  340SOL    HW2   93   1.942   1.540   3.520
  365SOL     OW   94   1.759   1.747   3.016
  365SOL    HW1   95   1.820   1.777   2.943
  365SOL    HW2   96   1.721   1.658   2.994
  366SOL     OW   97   1.252   1.731   2.990
  366SOL    HW1   98   1.336   1.736   2.936
  366SOL    HW2   99   1.229   1.635   3.008
  370SOL     OW  100   1.388   1.573   2.339
  370SOL    HW1  101   1.455   1.585   2.265
  370SOL    HW2  102   1.348   1.662   2.362
  375SOL     OW  103   1.650   1.720   3.256
  375SOL    HW1  104   1.703   1.730   3.172
  375SOL    HW2  105   1.623   1.810   3.290
  381SOL     OW  106   1.504   1.607   1.906
  381SOL    HW1  107   1.412   1.644   1.913
  381SOL    HW2  108   1.542   1.627   1.816
  383SOL     OW  109   1.614   1.292   3.151
  383SOL    HW1  110   1.674   1.295   3.231
  383SOL    HW2  111   1.539   1.356   3.164
  396SOL     OW  112   1.493   1.767   2.821
  396SOL    HW1  113   1.526   1.831   2.752
  396SOL    HW2  114   1.559   1.761   2.896
  409SOL     OW  115   1.861   1.569   2.713
  409SOL    HW1  116   1.790   1.557   2.643
  409SOL    HW2  117   1.862   1.490   2.773
  415SOL     OW  118   1.705   1.487   2.966
  415SOL    HW1  119   1.612   1.462   2.939
  415SOL    HW2  120   1.731   1.437   3.048
  611SOL     OW  121   1.594   1.976   1.480
  611SOL    HW1  122   1.576   2.043   1.408
  611SOL    HW2  123   1.591   2.022   1.569
  619SOL     OW  124   1.293   3.090   1.423
  619SOL    HW1  125   1.330   3.017   1.365
  619SOL    HW2  126   1.345   3.095   1.508
  631SOL     OW  127   1.394   2.331   1.674
  631SOL    HW1  128   1.374   2.374   1.762
  631SOL    HW2  129   1.472   2.269   1.683
  638SOL     OW  130   1.719   2.447   1.831
  638SOL    HW1  131   1.693   2.536   1.795
  638SOL    HW2  132   1.717   2.379   1.758
  655SOL     OW  133   1.547   2.084   1.729
  655SOL    HW1  134   1.542   2.121   1.821
  655SOL    HW2  135   1.475   2.015   1.717
  658SOL     OW  136   1.351   2.452   1.433
  658SOL    HW1  137   1.379   2.409   1.518
  658SOL    HW2  138   1.376   2.548   1.434
  680SOL     OW  139   1.754   3.085   1.588
  680SOL    HW1  140   1.845   3.046   1.575
  680SOL    HW2  141   1.762   3.181   1.612
  682SOL     OW  142   1.592   3.491   1.625
  682SOL    HW1  143   1.619   3.525   1.535
  682SOL    HW2  144   1.671   3.453   1.671
  698SOL     OW  145   1.587   2.641   1.670
  698SOL    HW1  146   1.495   2.679   1.665
  698SOL    HW2  147   1.647   2.688   1.605
  707SOL     OW  148   1.728   2.797   1.854
  707SOL    HW1  149   1.682   2.790   1.765
  707SOL    HW2  150   1.666   2.841   1.920
  712SOL     OW  151   1.859   3.380   1.605
  712SOL    HW1  152   1.873   3.407   1.510
  712SOL    HW2  153   1.942   3.402   1.658
  719SOL     OW  154   1.138   2.242   1.678
  719SOL    HW1  155   1.093   2.305   1.742
  719SOL    HW2  156   1.231   2.273   1.661
  727SOL     OW  157   1.369   2.812   1.660
  727SOL    HW1  158   1.408   2.901   1.680
  727SOL    HW2  159   1.379   2.792   1.563
  729SOL     OW  160   1.657   2.466   1.206
  729SOL    HW1  161   1.619   2.397   1.268
  729SOL    HW2  162   1.739   2.430   1.162
  756SOL     OW  163   1.614   3.154   1.289
  756SOL    HW1  164   1.674   3.157   1.369
  756SOL    HW2  165   1.539   3.218   1.302
  760SOL     OW  166   1.709   2.247   1.381
  760SOL    HW1  167   1.782   2.316   1.385
  760SOL    HW2  168   1.737   2.172   1.322
  765SOL     OW  169   1.440   2.718   1.398
  765SOL    HW1  170   1.383   2.770   1.335
  765SOL    HW2  171   1.536   2.730   1.374
  771SOL     OW  172   1.450   3.082   1.633
  771SOL    HW1  173   1.441   3.072   1.732
  771SOL    HW2  174   1.546   3.075   1.607
  773SOL     OW  175   1.674   2.745   1.254
  773SOL    HW1  176   1.647   2.656   1.217
  773SOL    HW2  177   1.675   2.813   1.181
  776SOL     OW  178   1.777   2.204   1.642
  776SOL    HW1  179   1.760   2.235   1.548
  776SOL    HW2  180   1.693   2.167   1.680
  777SOL     OW  181   1.730   2.796   1.517
  777SOL    HW1  182   1.768   2.887   1.532
  777SOL    HW2  183   1.722   2.779   1.418
  786SOL     OW  184   1.824   2.054   1.227
  786SOL    HW1  185   1.820   1.964   1.271
  786SOL    HW2  186   1.827   2.043   1.128
  804SOL     OW  187   1.555   3.373   2.565
  804SOL    HW1  188   1.498   3.357   2.646
  804SOL    HW2  189   1.496   3.383   2.485
  805SOL     OW  190   1.135   2.565   2.579
  805SOL    HW1  191   1.192   2.643   2.554
  805SOL    HW2  192   1.075   2.591   2.655
  806SOL     OW  193   1.755   2.469   2.093
  806SOL    HW1  194   1.743   2.456   1.994
  806SOL    HW2  195   1.725   2.388   2.142
  812SOL     OW  196   1.460   3.367   3.201
  812SOL    HW1  197   1.484   3.461   3.227
  812SOL    HW2  198   1.444   3.313   3.283
  814SOL     OW  199   1.603   2.309   2.599
  814SOL    HW1  200   1.529   2.355   2.549
  814SOL    HW2  201   1.654   2.377   2.652
  821SOL     OW  202   1.594   1.976   3.342
  821SOL    HW1  203   1.576   2.043   3.270
  821SOL    HW2  204   1.591   2.022   3.431
  823SOL     OW  205   1.842   3.629   2.221
  823SOL    HW1  206   1.896   3.600   2.301
  823SOL    HW2  207   1.872   3.719   2.192
  825SOL     OW  208   1.689   2.784   2.474
  825SOL    HW1  209   1.784   2.755   2.482
  825SOL    HW2  210   1.681   2.849   2.399
  826SOL     OW  211   1.641   2.970   2.294
  826SOL    HW1  212   1.727   2.972   2.242
  826SOL    HW2  213   1.655   3.017   2.382
  829SOL     OW  214   1.293   3.090   3.285
  829SOL    HW1  215   1.330   3.017   3.227
  829SOL    HW2  216   1.345   3.095   3.370
  832SOL     OW  217   1.525   2.861   2.052
  832SOL    HW1  218   1.462   2.785   2.065
  832SOL    HW2  219   1.573   2.879   2.138
  835SOL     OW  220   1.466   3.279   2.815
  835SOL    HW1  221   1.407   3.285   2.895
  835SOL    HW2  222   1.451   3.191   2.769
  836SOL     OW  223   1.667   3.576   2.434
  836SOL    HW1  224   1.626   3.553   2.346
  836SOL    HW2  225   1.649   3.502   2.499
  838SOL     OW  226   1.281   2.207   2.806
  838SOL    HW1  227   1.195   2.157   2.793
  838SOL    HW2  228   1.343   2.153   2.862
  839SOL     OW  229   1.576   3.524   2.169
  839SOL    HW1  230   1.665   3.570   2.172
  839SOL    HW2  231   1.555   3.500   2.074
  841SOL     OW  232   1.394   2.331   3.536
  841SOL    HW1  233   1.374   2.374   3.624
  841SOL    HW2  234   1.472   2.269   3.545
  843SOL     OW  235   0.991   2.272   3.104
  843SOL    HW1  236   0.914   2.306   3.158
  843SOL    HW2  237   0.957   2.221   3.025
  844SOL     OW  238   1.041   2.563   2.291
  844SOL    HW1  239   1.067   2.559   2.387
  844SOL    HW2  240   0.956   2.512   2.277
  848SOL     OW  241   1.719   2.447   3.693
  848SOL    HW1  242   1.693   2.536   3.657
  848SOL    HW2  243   1.717   2.379   3.620
  849SOL     OW  244   1.362   3.006   2.407
  849SOL    HW1  245   1.445   2.977   2.359
  849SOL    HW2  246   1.313   3.073   2.351
  851SOL     OW  247   1.008   3.318   2.339
  851SOL    HW1  248   0.962   3.390   2.287
  851SOL    HW2  249   1.004   3.338   2.437
  853SOL     OW  250   1.795   2.928   2.735
  853SOL    HW1  251   1.733   2.913   2.659
  853SOL    HW2  252   1.743   2.939   2.820
  854SOL     OW  253   1.227   3.412   3.368
  854SOL    HW1  254   1.233   3.335   3.432
  854SOL    HW2  255   1.175   3.386   3.288
  856SOL     OW  256   1.458   2.597   2.590
  856SOL    HW1  257   1.453   2.532   2.665
  856SOL    HW2  258   1.538   2.656   2.603
  860SOL     OW  259   1.632   3.239   1.943
  860SOL    HW1  260   1.600   3.333   1.933
  860SOL    HW2  261   1.556   3.176   1.931
  862SOL     OW  262   1.400   1.969   2.288
  862SOL    HW1  263   1.376   1.932   2.198
  862SOL    HW2  264   1.499   1.985   2.292
  866SOL     OW  265   1.547   2.084   3.591
  866SOL    HW1  266   1.542   2.121   3.683
  866SOL    HW2  267   1.475   2.015   3.579
  870SOL     OW  268   1.351   2.452   3.295
  870SOL    HW1  269   1.379   2.409   3.380
  870SOL    HW2  270   1.376   2.548   3.296
  872SOL     OW  271   0.922   2.365   2.761
  872SOL    HW1  272   0.897   2.356   2.665
  872SOL    HW2  273   0.970   2.283   2.792
  874SOL     OW  274   1.434   3.050   1.903
  874SOL    HW1  275   1.466   2.974   1.960
  874SOL    HW2  276   1.342   3.077   1.933
  876SOL     OW  277   0.935   2.098   2.342
  876SOL    HW1  278   0.887   2.139   2.264
  876SOL    HW2  279   1.034   2.096   2.323
  877SOL     OW  280   1.076   2.545   3.326
  877SOL    HW1  281   0.996   2.484   3.329
  877SOL    HW2  282   1.157   2.492   3.302
  878SOL     OW  283   1.227   3.432   2.655
  878SOL    HW1  284   1.248   3.506   2.590
  878SOL    HW2  285   1.295   3.432   2.728
  880SOL     OW  286   1.271   3.659   2.453
  880SOL    HW1  287   1.315   3.723   2.389
  880SOL    HW2  288   1.221   3.711   2.523
  881SOL     OW  289   1.032   2.411   1.878
  881SOL    HW1  290   0.991   2.493   1.839
  881SOL    HW2  291   1.096   2.437   1.951
  884SOL     OW  292   0.866   2.316   2.504
  884SOL    HW1  293   0.834   2.388   2.442
  884SOL    HW2  294   0.890   2.235   2.451
  885SOL     OW  295   1.017   1.901   2.615
  885SOL    HW1  296   0.945   1.906   2.546
  885SOL    HW2  297   0.993   1.832   2.684
  886SOL     OW  298   1.429   3.035   2.729
  886SOL    HW1  299   1.374   2.951   2.722
  886SOL    HW2  300   1.455   3.064   2.637
  887SOL     OW  301   1.466   2.452   2.854
  887SOL    HW1  302   1.436   2.357   2.861
  887SOL    HW2  303   1.539   2.468   2.920
  888SOL     OW  304   1.857   2.695   2.239
  888SOL    HW1  305   1.899   2.631   2.303
  888SOL    HW2  306   1.819   2.644   2.161
  890SOL     OW  307   1.664   3.142   2.519
  890SOL    HW1  308   1.763   3.150   2.533
  890SOL    HW2  309   1.619   3.226   2.550
  891SOL     OW  310   1.390   2.437   1.940
  891SOL    HW1  311   1.336   2.416   2.021
  891SOL    HW2  312   1.481   2.396   1.949
  893SOL     OW  313   1.754   3.085   3.450
  893SOL    HW1  314   1.845   3.046   3.437
  893SOL    HW2  315   1.762   3.181   3.474
  894SOL     OW  316   1.064   3.209   3.202
  894SOL    HW1  317   0.984   3.186   3.257
  894SOL    HW2  318   1.147   3.183   3.251
  895SOL     OW  319   1.592   3.491   3.487
  895SOL    HW1  320   1.619   3.525   3.397
  895SOL    HW2  321   1.671   3.453   3.533
  896SOL     OW  322   1.111   3.057   2.962
  896SOL    HW1  323   1.071   3.101   3.043
  896SOL    HW2  324   1.070   3.094   2.879
  897SOL     OW  325   1.638   2.961   2.941
  897SOL    HW1  326   1.643   3.042   3.000
  897SOL    HW2  327   1.552   2.963   2.890
  902SOL     OW  328   1.274   2.248   3.124
  902SOL    HW1  329   1.295   2.322   3.188
  902SOL    HW2  330   1.185   2.265   3.081
  906SOL     OW  331   1.252   3.210   2.250
  906SOL    HW1  332   1.302   3.287   2.290
  906SOL    HW2  333   1.157   3.212   2.282
  907SOL     OW  334   1.272   3.307   3.004
  907SOL    HW1  335   1.319   3.320   3.091
  907SOL    HW2  336   1.206   3.233   3.013
  908SOL     OW  337   1.582   2.501   2.334
  908SOL    HW1  338   1.551   2.562   2.407
  908SOL    HW2  339   1.632   2.553   2.265
  911SOL     OW  340   1.587   2.641   3.532
  911SOL    HW1  341   1.495   2.679   3.527
  911SOL    HW2  342   1.647   2.688   3.467
  915SOL     OW  343   1.360   2.724   2.907
  915SOL    HW1  344   1.285   2.724   2.841
  915SOL    HW2  345   1.397   2.632   2.916
  916SOL     OW  346   1.209   2.387   2.137
  916SOL    HW1  347   1.222   2.303   2.191
  916SOL    HW2  348   1.180   2.461   2.197
  920SOL     OW  349   1.728   2.797   3.716
  920SOL    HW1  350   1.682   2.790   3.627
  920SOL    HW2  351   1.666   2.841   3.782
  922SOL     OW  352   1.622   2.229   2.236
  922SOL    HW1  353   1.624   2.153   2.300
  922SOL    HW2  354   1.574   2.306   2.276
  923SOL     OW  355   1.023   2.628   2.828
  923SOL    HW1  356   1.038   2.649   2.924
  923SOL    HW2  357   0.993   2.533   2.819
  925SOL     OW  358   1.859   3.380   3.467
  925SOL    HW1  359   1.873   3.407   3.372
  925SOL    HW2  360   1.942   3.402   3.520
  927SOL     OW  361   1.540   2.136   1.987
  927SOL    HW1  362   1.479   2.061   2.010
  927SOL    HW2  363   1.562   2.188   2.070
  928SOL     OW  364   1.303   2.700   1.904
  928SOL    HW1  365   1.337   2.607   1.919
  928SOL    HW2  366   1.321   2.727   1.809
  929SOL     OW  367   1.068   3.195   2.711
  929SOL    HW1  368   1.075   3.111   2.656
  929SOL    HW2  369   1.130   3.264   2.675
  932SOL     OW  370   1.138   2.242   3.540
  932SOL    HW1  371   1.093   2.305   3.604
  932SOL    HW2  372   1.231   2.273   3.523
  933SOL     OW  373   1.160   2.069   3.339
  933SOL    HW1  374   1.160   2.133   3.416
  933SOL    HW2  375   1.188   2.117   3.256
  937SOL     OW  376   1.002   2.658   3.100
  937SOL    HW1  377   1.043   2.626   3.186
  937SOL    HW2  378   0.906   2.631   3.097
  940SOL     OW  379   1.369   2.812   3.522
  940SOL    HW1  380   1.408   2.901   3.542
  940SOL    HW2  381   1.379   2.792   3.425
  942SOL     OW  382   1.657   2.466   3.068
  942SOL    HW1  383   1.619   2.397   3.130
  942SOL    HW2  384   1.739   2.430   3.024
  948SOL     OW  385   1.347   2.921   3.096
  948SOL    HW1  386   1.371   2.858   3.022
  948SOL    HW2  387   1.257   2.961   3.078
  949SOL     OW  388   1.302   2.717   2.171
  949SOL    HW1  389   1.216   2.686   2.213
  949SOL    HW2  390   1.298   2.703   2.072
  950SOL     OW  391   1.759   3.609   3.016
  950SOL    HW1  392   1.820   3.639   2.943
  950SOL    HW2  393   1.721   3.520   2.994
  951SOL     OW  394   1.252   3.593   2.990
  951SOL    HW1  395   1.336   3.598   2.936
  951SOL    HW2  396   1.229   3.497   3.008
  954SOL     OW  397   1.726   1.997   2.385
  954SOL    HW1  398   1.799   1.980   2.318
  954SOL    HW2  399   1.695   1.910   2.423
  955SOL     OW  400   1.388   3.435   2.339
  955SOL    HW1  401   1.455   3.447   2.265
  955SOL    HW2  402   1.348   3.524   2.362
  957SOL     OW  403   1.280   2.789   2.534
  957SOL    HW1  404   1.340   2.708   2.536
  957SOL    HW2  405   1.320   2.858   2.474
  960SOL     OW  406   1.650   3.582   3.256
  960SOL    HW1  407   1.703   3.592   3.172
  960SOL    HW2  408   1.623   3.672   3.290
  961SOL     OW  409   1.841   2.037   2.825
  961SOL    HW1  410   1.880   1.952   2.789
  961SOL    HW2  411   1.743   2.039   2.806
  963SOL     OW  412   1.194   3.474   1.893
  963SOL    HW1  413   1.200   3.381   1.930
  963SOL    HW2  414   1.135   3.474   1.813
  965SOL     OW  415   0.916   2.772   2.153
  965SOL    HW1  416   0.979   2.810   2.085
  965SOL    HW2  417   0.956   2.689   2.192
  966SOL     OW  418   1.504   3.469   1.906
  966SOL    HW1  419   1.412   3.506   1.913
  966SOL    HW2  420   1.542   3.489   1.816
  968SOL     OW  421   1.614   3.154   3.151
  968SOL    HW1  422   1.674   3.157   3.231
  968SOL    HW2  423   1.539   3.218   3.164
  969SOL     OW  424   1.039   2.960   2.558
  969SOL    HW1  425   0.969   2.913   2.612
  969SOL    HW2  426   1.098   2.892   2.515
  970SOL     OW  427   1.014   2.098   2.833
  970SOL    HW1  428   1.006   2.062   2.740
  970SOL    HW2  429   1.012   2.022   2.898
  972SOL     OW  430   1.709   2.247   3.243
  972SOL    HW1  431   1.782   2.316   3.247
  972SOL    HW2  432   1.737   2.172   3.184
  977SOL     OW  433   1.440   2.718   3.260
  977SOL    HW1  434   1.383   2.770   3.197
  977SOL    HW2  435   1.536   2.730   3.236
  979SOL     OW  436   1.183   3.197   1.981
  979SOL    HW1  437   1.084   3.186   1.983
  979SOL    HW2  438   1.217   3.212   2.074
  981SOL     OW  439   1.493   3.629   2.821
  981SOL    HW1  440   1.526   3.693   2.752
  981SOL    HW2  441   1.559   3.623   2.896
  983SOL     OW  442   1.450   3.082   3.495
  983SOL    HW1  443   1.441   3.072   3.594
  983SOL    HW2  444   1.546   3.075   3.469
  985SOL     OW  445   1.674   2.745   3.116
  985SOL    HW1  446   1.647   2.656   3.079
  985SOL    HW2  447   1.675   2.813   3.043
  986SOL     OW  448   1.225   2.187   2.311
  986SOL    HW1  449   1.290   2.113   2.300
  986SOL    HW2  450   1.245   2.237   2.395
  988SOL     OW  451   1.777   2.204   3.504
  988SOL    HW1  452   1.760   2.235   3.410
  988SOL    HW2  453   1.693   2.167   3.542
  989SOL     OW  454   1.730   2.796   3.379
  989SOL    HW1  455   1.768   2.887   3.394
  989SOL    HW2  456   1.722   2.779   3.280
  992SOL     OW  457   0.859   2.818   2.723
  992SOL    HW1  458   0.913   2.749   2.771
  992SOL    HW2  459   0.827   2.887   2.789
  993SOL     OW  460   1.083   2.846   1.949
  993SOL    HW1  461   1.060   2.899   1.867
  993SOL    HW2  462   1.164   2.790   1.930
  994SOL     OW  463   1.861   3.431   2.713
  994SOL    HW1  464   1.790   3.419   2.643
  994SOL    HW2  465   1.862   3.352   2.773
  998SOL     OW  466   1.824   2.054   3.089
  998SOL    HW1  467   1.820   1.964   3.133
  998SOL    HW2  468   1.827   2.043   2.990
 1000SOL     OW  469   1.705   3.349   2.966
 1000SOL    HW1  470   1.612   3.324   2.939
 1000SOL    HW2  471   1.731   3.299   3.048
 1003SOL     OW  472   1.424   2.076   2.974
 1003SOL    HW1  473   1.476   2.011   3.029
 1003SOL    HW2  474   1.375   2.139   3.035
 1004SOL     OW  475   1.001   1.896   3.016
 1004SOL    HW1  476   0.938   1.824   2.985
 1004SOL    HW2  477   1.094   1.860   3.016
 1007SOL     OW  478   1.352   1.914   2.030
 1007SOL    HW1  479   1.387   1.873   1.946
 1007SOL    HW2  480   1.262   1.876   2.050
 1008SOL     OW  481   1.300   2.315   2.553
 1008SOL    HW1  482   1.241   2.395   2.557
 1008SOL    HW2  483   1.315   2.280   2.646
 1009SOL     OW  484   1.593   2.083   2.744
 1009SOL    HW1  485   1.509   2.082   2.798
 1009SOL    HW2  486   1.595   2.166   2.688
 1018SOL     OW  487   1.755   2.469   3.955
 1018SOL    HW1  488   1.743   2.456   3.856
 1018SOL    HW2  489   1.725   2.388   4.004
 1036SOL     OW  490   1.525   2.861   3.914
 1036SOL    HW1  491   1.462   2.785   3.927
 1036SOL    HW2  492   1.573   2.879   4.000
 1056SOL     OW  493   1.632   3.239   3.805
 1056SOL    HW1  494   1.600   3.333   3.795
 1056SOL    HW2  495   1.556   3.176   3.793
 1067SOL     OW  496   1.434   3.050   3.765
 1067SOL    HW1  497   1.466   2.974   3.822
 1067SOL    HW2  498   1.342   3.077   3.795
 1079SOL     OW  499   1.857   2.695   4.101
 1079SOL    HW1  500   1.899   2.631   4.165
 1079SOL    HW2  501   1.819   2.644   4.023
 1082SOL     OW  502   1.390   2.437   3.802
 1082SOL    HW1  503   1.336   2.416   3.883
 1082SOL    HW2  504   1.481   2.396   3.811
 1107SOL     OW  505   1.540   2.136   3.849
 1107SOL    HW1  506   1.479   2.061   3.872
 1107SOL    HW2  507   1.562   2.188   3.932
 1108SOL     OW  508   1.303   2.700   3.766
 1108SOL    HW1  509   1.337   2.607   3.781
 1108SOL    HW2  510   1.321   2.727   3.671
 1348SOL     OW  511   1.594   3.838   3.342
 1348SOL    HW1  512   1.576   3.905   3.270
 1348SOL    HW2  513   1.591   3.884   3.431
 1376SOL     OW  514   1.400   3.831   2.288
 1376SOL    HW1  515   1.376   3.794   2.198
 1376SOL    HW2  516   1.499   3.847   2.292
 1449SOL     OW  517   1.726   3.859   2.385
 1449SOL    HW1  518   1.799   3.842   2.318
 1449SOL    HW2  519   1.695   3.772   2.423
 1452SOL     OW  520   1.841   3.899   2.825
 1452SOL    HW1  521   1.880   3.814   2.789
 1452SOL    HW2  522   1.743   3.901   2.806
 1480SOL     OW  523   1.824   3.916   3.089
 1480SOL    HW1  524   1.820   3.826   3.133
 1480SOL    HW2  525   1.827   3.905   2.990
 1487SOL     OW  526   1.352   3.776   2.030
 1487SOL    HW1  527   1.387   3.735   1.946
 1487SOL    HW2  528   1.262   3.738   2.050
 1489SOL     OW  529   1.593   3.945   2.744
 1489SOL    HW1  530   1.509   3.944   2.798
 1489SOL    HW2  531   1.595   4.028   2.688
 1625SOL     OW  532   2.548   1.161   1.803
 1625SOL    HW1  533   2.608   1.240   1.817
 1625SOL    HW2  534   2.462   1.192   1.762
 1627SOL     OW  535   3.322   1.505   1.339
 1627SOL    HW1  536   3.346   1.599   1.365
 1627SOL    HW2  537   3.306   1.451   1.421
 1631SOL     OW  538   2.989   1.341   1.690
 1631SOL    HW1  539   3.036   1.341   1.778
 1631SOL    HW2  540   2.941   1.254   1.679
 1634SOL     OW  541   2.482   1.786   1.439
 1634SOL    HW1  542   2.390   1.769   1.474
 1634SOL    HW2  543   2.510   1.878   1.465
 1647SOL     OW  544   3.049   1.792   1.616
 1647SOL    HW1  545   3.073   1.852   1.540
 1647SOL    HW2  546   3.056   1.697   1.586
 1660SOL     OW  547   1.992   1.821   1.571
 1660SOL    HW1  548   1.982   1.806   1.670
 1660SOL    HW2  549   1.906   1.857   1.535
 1668SOL     OW  550   3.089   1.550   1.506
 1668SOL    HW1  551   3.095   1.473   1.570
 1668SOL    HW2  552   3.037   1.524   1.426
 1671SOL     OW  553   2.323   1.266   1.727
 1671SOL    HW1  554   2.273   1.267   1.641
 1671SOL    HW2  555   2.260   1.248   1.803
 1677SOL     OW  556   2.111   1.785   1.241
 1677SOL    HW1  557   2.168   1.720   1.291
 1677SOL    HW2  558   2.095   1.752   1.148
 1683SOL     OW  559   2.750   1.514   1.195
 1683SOL    HW1  560   2.727   1.489   1.101
 1683SOL    HW2  561   2.811   1.445   1.234
 1708SOL     OW  562   2.926   1.347   1.340
 1708SOL    HW1  563   2.846   1.324   1.395
 1708SOL    HW2  564   3.009   1.321   1.389
 1709SOL     OW  565   3.454   1.629   1.625
 1709SOL    HW1  566   3.481   1.663   1.535
 1709SOL    HW2  567   3.533   1.591   1.671
 1713SOL     OW  568   2.842   1.116   1.719
 1713SOL    HW1  569   2.743   1.122   1.729
 1713SOL    HW2  570   2.865   1.036   1.663
 1717SOL     OW  571   1.926   1.564   1.331
 1717SOL    HW1  572   1.880   1.646   1.297
 1717SOL    HW2  573   2.024   1.583   1.340
 1723SOL     OW  574   2.216   1.510   1.329
 1723SOL    HW1  575   2.195   1.466   1.242
 1723SOL    HW2  576   2.313   1.536   1.332
 1738SOL     OW  577   2.842   1.573   1.700
 1738SOL    HW1  578   2.822   1.617   1.612
 1738SOL    HW2  579   2.881   1.482   1.684
 1756SOL     OW  580   2.114   1.564   1.744
 1756SOL    HW1  581   2.084   1.621   1.820
 1756SOL    HW2  582   2.107   1.467   1.770
 1758SOL     OW  583   2.792   1.678   1.465
 1758SOL    HW1  584   2.768   1.660   1.370
 1758SOL    HW2  585   2.822   1.772   1.475
 1764SOL     OW  586   3.114   1.731   1.128
 1764SOL    HW1  587   3.198   1.736   1.074
 1764SOL    HW2  588   3.091   1.635   1.146
 1766SOL     OW  589   2.550   1.662   1.716
 1766SOL    HW1  590   2.494   1.743   1.725
 1766SOL    HW2  591   2.602   1.666   1.630
 1770SOL     OW  592   1.992   1.794   1.851
 1770SOL    HW1  593   1.951   1.720   1.904
 1770SOL    HW2  594   2.056   1.845   1.909
 1772SOL     OW  595   2.692   1.273   1.422
 1772SOL    HW1  596   2.687   1.306   1.517
 1772SOL    HW2  597   2.606   1.292   1.376
 1774SOL     OW  598   3.512   1.720   1.394
 1774SOL    HW1  599   3.565   1.730   1.310
 1774SOL    HW2  600   3.485   1.810   1.428
 1781SOL     OW  601   2.234   1.288   1.490
 1781SOL    HW1  602   2.221   1.381   1.456
 1781SOL    HW2  603   2.150   1.236   1.477
 1798SOL     OW  604   2.252   1.741   1.560
 1798SOL    HW1  605   2.161   1.782   1.558
 1798SOL    HW2  606   2.245   1.647   1.592
 1805SOL     OW  607   2.523   1.790   0.953
 1805SOL    HW1  608   2.477   1.878   0.940
 1805SOL    HW2  609   2.622   1.802   0.946
 1809SOL     OW  610   2.083   1.314   1.844
 1809SOL    HW1  611   2.018   1.241   1.823
 1809SOL    HW2  612   2.087   1.328   1.942
 1811SOL     OW  613   2.534   1.391   1.624
 1811SOL    HW1  614   2.456   1.341   1.662
 1811SOL    HW2  615   2.531   1.486   1.655
 1820SOL     OW  616   2.480   1.567   1.284
 1820SOL    HW1  617   2.475   1.649   1.341
 1820SOL    HW2  618   2.569   1.564   1.239
 1829SOL     OW  619   2.431   1.275   3.027
 1829SOL    HW1  620   2.338   1.268   2.990
 1829SOL    HW2  621   2.442   1.364   3.071
 1830SOL     OW  622   3.417   1.511   2.565
 1830SOL    HW1  623   3.360   1.495   2.646
 1830SOL    HW2  624   3.358   1.521   2.485
 1833SOL     OW  625   2.630   1.144   2.885
 1833SOL    HW1  626   2.552   1.161   2.945
 1833SOL    HW2  627   2.664   1.231   2.849
 1835SOL     OW  628   2.547   1.012   2.527
 1835SOL    HW1  629   2.616   0.996   2.597
 1835SOL    HW2  630   2.474   1.069   2.565
 1836SOL     OW  631   2.548   1.161   3.665
 1836SOL    HW1  632   2.608   1.240   3.679
 1836SOL    HW2  633   2.462   1.192   3.624
 1837SOL     OW  634   2.197   1.435   2.923
 1837SOL    HW1  635   2.119   1.404   2.870
 1837SOL    HW2  636   2.255   1.493   2.866
 1838SOL     OW  637   3.322   1.505   3.201
 1838SOL    HW1  638   3.346   1.599   3.227
 1838SOL    HW2  639   3.306   1.451   3.283
 1841SOL     OW  640   2.093   1.713   2.345
 1841SOL    HW1  641   2.127   1.790   2.399
 1841SOL    HW2  642   2.137   1.713   2.255
 1842SOL     OW  643   2.989   1.341   3.552
 1842SOL    HW1  644   3.036   1.341   3.640
 1842SOL    HW2  645   2.941   1.254   3.541
 1843SOL     OW  646   2.092   1.434   2.400
 1843SOL    HW1  647   2.066   1.530   2.400
 1843SOL    HW2  648   2.021   1.380   2.445
 1844SOL     OW  649   2.102   1.091   2.748
 1844SOL    HW1  650   2.116   1.007   2.800
 1844SOL    HW2  651   2.047   1.155   2.803
 1845SOL     OW  652   2.482   1.786   3.301
 1845SOL    HW1  653   2.390   1.769   3.336
 1845SOL    HW2  654   2.510   1.878   3.327
 1846SOL     OW  655   2.468   0.964   1.985
 1846SOL    HW1  656   2.475   1.048   1.931
 1846SOL    HW2  657   2.514   0.977   2.073
 1849SOL     OW  658   3.704   1.767   2.221
 1849SOL    HW1  659   3.758   1.738   2.301
 1849SOL    HW2  660   3.734   1.857   2.192
 1850SOL     OW  661   1.889   1.596   1.979
 1850SOL    HW1  662   1.870   1.500   2.000
 1850SOL    HW2  663   1.856   1.654   2.054
 1852SOL     OW  664   3.503   1.108   2.294
 1852SOL    HW1  665   3.589   1.110   2.242
 1852SOL    HW2  666   3.517   1.155   2.382
 1854SOL     OW  667   2.475   1.365   2.588
 1854SOL    HW1  668   2.426   1.278   2.597
 1854SOL    HW2  669   2.452   1.408   2.501
 1855SOL     OW  670   3.155   1.228   3.285
 1855SOL    HW1  671   3.192   1.155   3.227
 1855SOL    HW2  672   3.207   1.233   3.370
 1857SOL     OW  673   2.059   0.976   3.126
 1857SOL    HW1  674   2.148   0.931   3.112
 1857SOL    HW2  675   1.986   0.911   3.107
 1859SOL     OW  676   3.049   1.792   3.478
 1859SOL    HW1  677   3.073   1.852   3.402
 1859SOL    HW2  678   3.056   1.697   3.448
 1861SOL     OW  679   3.328   1.417   2.815
 1861SOL    HW1  680   3.269   1.423   2.895
 1861SOL    HW2  681   3.313   1.329   2.769
 1862SOL     OW  682   3.529   1.714   2.434
 1862SOL    HW1  683   3.488   1.691   2.346
 1862SOL    HW2  684   3.511   1.640   2.499
 1865SOL     OW  685   3.438   1.662   2.169
 1865SOL    HW1  686   3.527   1.708   2.172
 1865SOL    HW2  687   3.417   1.638   2.074
 1872SOL     OW  688   1.992   1.821   3.433
 1872SOL    HW1  689   1.982   1.806   3.532
 1872SOL    HW2  690   1.906   1.857   3.397
 1875SOL     OW  691   3.224   1.144   2.407
 1875SOL    HW1  692   3.307   1.115   2.359
 1875SOL    HW2  693   3.175   1.211   2.351
 1877SOL     OW  694   2.870   1.456   2.339
 1877SOL    HW1  695   2.824   1.528   2.287
 1877SOL    HW2  696   2.866   1.476   2.437
 1878SOL     OW  697   2.213   1.801   2.715
 1878SOL    HW1  698   2.263   1.715   2.721
 1878SOL    HW2  699   2.278   1.878   2.712
 1880SOL     OW  700   3.089   1.550   3.368
 1880SOL    HW1  701   3.095   1.473   3.432
 1880SOL    HW2  702   3.037   1.524   3.288
 1881SOL     OW  703   2.183   0.943   2.104
 1881SOL    HW1  704   2.265   0.982   2.062
 1881SOL    HW2  705   2.156   0.861   2.055
 1883SOL     OW  706   2.323   1.266   3.589
 1883SOL    HW1  707   2.273   1.267   3.503
 1883SOL    HW2  708   2.260   1.248   3.665
 1884SOL     OW  709   2.973   1.776   2.099
 1884SOL    HW1  710   2.913   1.714   2.149
 1884SOL    HW2  711   3.004   1.732   2.014
 1886SOL     OW  712   3.494   1.377   1.943
 1886SOL    HW1  713   3.462   1.471   1.933
 1886SOL    HW2  714   3.418   1.314   1.931
 1887SOL     OW  715   2.326   1.743   2.185
 1887SOL    HW1  716   2.359   1.782   2.271
 1887SOL    HW2  717   2.402   1.736   2.120
 1889SOL     OW  718   2.111   1.785   3.103
 1889SOL    HW1  719   2.168   1.720   3.153
 1889SOL    HW2  720   2.095   1.752   3.010
 1890SOL     OW  721   2.802   1.698   2.766
 1890SOL    HW1  722   2.882   1.641   2.787
 1890SOL    HW2  723   2.753   1.658   2.689
 1895SOL     OW  724   2.750   1.514   3.057
 1895SOL    HW1  725   2.727   1.489   2.963
 1895SOL    HW2  726   2.811   1.445   3.096
 1897SOL     OW  727   2.665   1.402   2.786
 1897SOL    HW1  728   2.755   1.416   2.744
 1897SOL    HW2  729   2.594   1.404   2.715
 1900SOL     OW  730   3.296   1.188   1.903
 1900SOL    HW1  731   3.328   1.112   1.960
 1900SOL    HW2  732   3.204   1.215   1.933
 1904SOL     OW  733   3.089   1.570   2.655
 1904SOL    HW1  734   3.110   1.644   2.590
 1904SOL    HW2  735   3.157   1.570   2.728
 1905SOL     OW  736   2.321   1.152   2.603
 1905SOL    HW1  737   2.250   1.125   2.668
 1905SOL    HW2  738   2.295   1.124   2.510
 1906SOL     OW  739   3.133   1.797   2.453
 1906SOL    HW1  740   3.177   1.861   2.389
 1906SOL    HW2  741   3.083   1.849   2.523
 1912SOL     OW  742   3.291   1.173   2.729
 1912SOL    HW1  743   3.236   1.089   2.722
 1912SOL    HW2  744   3.317   1.202   2.637
 1915SOL     OW  745   2.350   1.385   2.036
 1915SOL    HW1  746   2.263   1.370   2.083
 1915SOL    HW2  747   2.333   1.411   1.941
 1916SOL     OW  748   3.526   1.280   2.519
 1916SOL    HW1  749   3.625   1.288   2.533
 1916SOL    HW2  750   3.481   1.364   2.550
 1920SOL     OW  751   2.926   1.347   3.202
 1920SOL    HW1  752   2.846   1.324   3.257
 1920SOL    HW2  753   3.009   1.321   3.251
 1921SOL     OW  754   3.454   1.629   3.487
 1921SOL    HW1  755   3.481   1.663   3.397
 1921SOL    HW2  756   3.533   1.591   3.533
 1922SOL     OW  757   2.973   1.195   2.962
 1922SOL    HW1  758   2.933   1.239   3.043
 1922SOL    HW2  759   2.932   1.232   2.879
 1923SOL     OW  760   3.500   1.099   2.941
 1923SOL    HW1  761   3.505   1.180   3.000
 1923SOL    HW2  762   3.414   1.101   2.890
 1925SOL     OW  763   2.842   1.116   3.581
 1925SOL    HW1  764   2.743   1.122   3.591
 1925SOL    HW2  765   2.865   1.036   3.525
 1926SOL     OW  766   2.567   1.050   2.230
 1926SOL    HW1  767   2.553   1.057   2.329
 1926SOL    HW2  768   2.651   0.999   2.212
 1929SOL     OW  769   1.926   1.564   3.193
 1929SOL    HW1  770   1.880   1.646   3.159
 1929SOL    HW2  771   2.024   1.583   3.202
 1930SOL     OW  772   2.229   1.100   2.363
 1930SOL    HW1  773   2.222   1.183   2.307
 1930SOL    HW2  774   2.233   1.020   2.303
 1932SOL     OW  775   3.114   1.348   2.250
 1932SOL    HW1  776   3.164   1.425   2.290
 1932SOL    HW2  777   3.019   1.350   2.282
 1933SOL     OW  778   3.134   1.445   3.004
 1933SOL    HW1  779   3.181   1.458   3.091
 1933SOL    HW2  780   3.068   1.371   3.013
 1935SOL     OW  781   2.216   1.510   3.191
 1935SOL    HW1  782   2.195   1.466   3.104
 1935SOL    HW2  783   2.313   1.536   3.194
 1940SOL     OW  784   2.435   0.870   2.891
 1940SOL    HW1  785   2.479   0.959   2.882
 1940SOL    HW2  786   2.372   0.870   2.968
 1944SOL     OW  787   1.899   1.310   3.144
 1944SOL    HW1  788   1.952   1.261   3.212
 1944SOL    HW2  789   1.921   1.408   3.149
 1950SOL     OW  790   2.842   1.573   3.562
 1950SOL    HW1  791   2.822   1.617   3.474
 1950SOL    HW2  792   2.881   1.482   3.546
 1951SOL     OW  793   3.721   1.518   3.467
 1951SOL    HW1  794   3.735   1.545   3.372
 1951SOL    HW2  795   3.804   1.540   3.520
 1955SOL     OW  796   2.930   1.333   2.711
 1955SOL    HW1  797   2.937   1.249   2.656
 1955SOL    HW2  798   2.992   1.402   2.675
 1960SOL     OW  799   1.870   1.326   2.062
 1960SOL    HW1  800   1.777   1.347   2.031
 1960SOL    HW2  801   1.880   1.227   2.075
 1961SOL     OW  802   1.950   1.801   2.789
 1961SOL    HW1  803   1.908   1.715   2.762
 1961SOL    HW2  804   2.044   1.804   2.755
 1962SOL     OW  805   2.366   1.568   2.772
 1962SOL    HW1  806   2.432   1.642   2.781
 1962SOL    HW2  807   2.410   1.489   2.730
 1969SOL     OW  808   2.114   1.564   3.606
 1969SOL    HW1  809   2.084   1.621   3.682
 1969SOL    HW2  810   2.107   1.467   3.632
 1971SOL     OW  811   2.792   1.678   3.327
 1971SOL    HW1  812   2.768   1.660   3.232
 1971SOL    HW2  813   2.822   1.772   3.337
 1973SOL     OW  814   2.021   1.137   3.328
 1973SOL    HW1  815   2.043   1.076   3.404
 1973SOL    HW2  816   2.031   1.088   3.242
 1974SOL     OW  817   3.209   1.059   3.096
 1974SOL    HW1  818   3.233   0.996   3.022
 1974SOL    HW2  819   3.119   1.099   3.078
 1976SOL     OW  820   3.621   1.747   3.016
 1976SOL    HW1  821   3.682   1.777   2.943
 1976SOL    HW2  822   3.583   1.658   2.994
 1977SOL     OW  823   3.114   1.731   2.990
 1977SOL    HW1  824   3.198   1.736   2.936
 1977SOL    HW2  825   3.091   1.635   3.008
 1978SOL     OW  826   1.945   1.258   2.884
 1978SOL    HW1  827   1.940   1.257   2.984
 1978SOL    HW2  828   1.862   1.217   2.846
 1979SOL     OW  829   2.550   1.662   3.578
 1979SOL    HW1  830   2.494   1.743   3.587
 1979SOL    HW2  831   2.602   1.666   3.492
 1981SOL     OW  832   3.250   1.573   2.339
 1981SOL    HW1  833   3.317   1.585   2.265
 1981SOL    HW2  834   3.210   1.662   2.362
 1982SOL     OW  835   1.992   1.794   3.713
 1982SOL    HW1  836   1.951   1.720   3.766
 1982SOL    HW2  837   2.056   1.845   3.771
 1983SOL     OW  838   3.142   0.927   2.534
 1983SOL    HW1  839   3.202   0.846   2.536
 1983SOL    HW2  840   3.182   0.996   2.474
 1984SOL     OW  841   2.692   1.273   3.284
 1984SOL    HW1  842   2.687   1.306   3.379
 1984SOL    HW2  843   2.606   1.292   3.238
 1985SOL     OW  844   2.534   1.616   2.016
 1985SOL    HW1  845   2.543   1.626   1.917
 1985SOL    HW2  846   2.494   1.527   2.037
 1986SOL     OW  847   3.512   1.720   3.256
 1986SOL    HW1  848   3.565   1.730   3.172
 1986SOL    HW2  849   3.485   1.810   3.290
 1989SOL     OW  850   3.056   1.612   1.893
 1989SOL    HW1  851   3.062   1.519   1.930
 1989SOL    HW2  852   2.997   1.612   1.813
 1990SOL     OW  853   2.684   1.002   3.234
 1990SOL    HW1  854   2.724   1.001   3.142
 1990SOL    HW2  855   2.694   1.094   3.274
 1991SOL     OW  856   2.778   0.910   2.153
 1991SOL    HW1  857   2.841   0.948   2.085
 1991SOL    HW2  858   2.818   0.827   2.192
 1992SOL     OW  859   3.366   1.607   1.906
 1992SOL    HW1  860   3.274   1.644   1.913
 1992SOL    HW2  861   3.404   1.627   1.816
 1993SOL     OW  862   2.234   1.288   3.352
 1993SOL    HW1  863   2.221   1.381   3.318
 1993SOL    HW2  864   2.150   1.236   3.339
 1994SOL     OW  865   3.476   1.292   3.151
 1994SOL    HW1  866   3.536   1.295   3.231
 1994SOL    HW2  867   3.401   1.356   3.164
 1995SOL     OW  868   2.901   1.098   2.558
 1995SOL    HW1  869   2.831   1.051   2.612
 1995SOL    HW2  870   2.960   1.030   2.515
 1997SOL     OW  871   2.452   1.487   2.353
 1997SOL    HW1  872   2.494   1.429   2.283
 1997SOL    HW2  873   2.408   1.566   2.309
 1999SOL     OW  874   2.117   1.348   2.152
 1999SOL    HW1  875   2.021   1.349   2.125
 1999SOL    HW2  876   2.129   1.401   2.236
 2005SOL     OW  877   3.045   1.335   1.981
 2005SOL    HW1  878   2.946   1.324   1.983
 2005SOL    HW2  879   3.079   1.350   2.074
 2007SOL     OW  880   3.355   1.767   2.821
 2007SOL    HW1  881   3.388   1.831   2.752
 2007SOL    HW2  882   3.421   1.761   2.896
 2009SOL     OW  883   3.312   1.220   3.495
 2009SOL    HW1  884   3.303   1.210   3.594
 2009SOL    HW2  885   3.408   1.213   3.469
 2010SOL     OW  886   2.252   1.741   3.422
 2010SOL    HW1  887   2.161   1.782   3.420
 2010SOL    HW2  888   2.245   1.647   3.454
 2016SOL     OW  889   2.721   1.374   1.878
 2016SOL    HW1  890   2.675   1.389   1.966
 2016SOL    HW2  891   2.765   1.459   1.848
 2017SOL     OW  892   2.523   1.790   2.815
 2017SOL    HW1  893   2.477   1.878   2.802
 2017SOL    HW2  894   2.622   1.802   2.808
 2018SOL     OW  895   2.721   0.956   2.723
 2018SOL    HW1  896   2.775   0.887   2.771
 2018SOL    HW2  897   2.689   1.025   2.789
 2019SOL     OW  898   2.945   0.984   1.949
 2019SOL    HW1  899   2.922   1.037   1.867
 2019SOL    HW2  900   3.026   0.928   1.930
 2020SOL     OW  901   3.723   1.569   2.713
 2020SOL    HW1  902   3.652   1.557   2.643
 2020SOL    HW2  903   3.724   1.490   2.773
 2021SOL     OW  904   2.083   1.314   3.706
 2021SOL    HW1  905   2.018   1.241   3.685
 2021SOL    HW2  906   2.087   1.328   3.804
 2022SOL     OW  907   1.941   1.240   2.515
 2022SOL    HW1  908   1.940   1.193   2.603
 2022SOL    HW2  909   2.023   1.212   2.464
 2023SOL     OW  910   2.534   1.391   3.486
 2023SOL    HW1  911   2.456   1.341   3.524
 2023SOL    HW2  912   2.531   1.486   3.517
 2026SOL     OW  913   3.567   1.487   2.966
 2026SOL    HW1  914   3.474   1.462   2.939
 2026SOL    HW2  915   3.593   1.437   3.048
 2028SOL     OW  916   2.674   1.586   2.549
 2028SOL    HW1  917   2.706   1.596   2.455
 2028SOL    HW2  918   2.595   1.524   2.551
 2031SOL     OW  919   2.632   1.330   2.163
 2031SOL    HW1  920   2.586   1.243   2.180
 2031SOL    HW2  921   2.723   1.327   2.204
 2032SOL     OW  922   2.480   1.567   3.146
 2032SOL    HW1  923   2.475   1.649   3.203
 2032SOL    HW2  924   2.569   1.564   3.101
 2036SOL     OW  925   1.901   1.077   2.162
 2036SOL    HW1  926   2.000   1.066   2.153
 2036SOL    HW2  927   1.861   0.991   2.194
 2037SOL     OW  928   2.737   1.646   2.199
 2037SOL    HW1  929   2.660   1.611   2.145
 2037SOL    HW2  930   2.705   1.717   2.261
 2056SOL     OW  931   1.889   1.596   3.841
 2056SOL    HW1  932   1.870   1.500   3.862
 2056SOL    HW2  933   1.856   1.654   3.916
 2081SOL     OW  934   2.973   1.776   3.961
 2081SOL    HW1  935   2.913   1.714   4.011
 2081SOL    HW2  936   3.004   1.732   3.876
 2083SOL     OW  937   2.326   1.743   4.047
 2083SOL    HW1  938   2.359   1.782   4.133
 2083SOL    HW2  939   2.402   1.736   3.982
 2106SOL     OW  940   2.350   1.385   3.898
 2106SOL    HW1  941   2.263   1.370   3.945
 2106SOL    HW2  942   2.333   1.411   3.803
 2157SOL     OW  943   2.534   1.616   3.878
 2157SOL    HW1  944   2.543   1.626   3.779
 2157SOL    HW2  945   2.494   1.527   3.899
 2160SOL     OW  946   3.056   1.612   3.755
 2160SOL    HW1  947   3.062   1.519   3.792
 2160SOL    HW2  948   2.997   1.612   3.675
 2163SOL     OW  949   3.366   1.607   3.768
 2163SOL    HW1  950   3.274   1.644   3.775
 2163SOL    HW2  951   3.404   1.627   3.678
 2180SOL     OW  952   2.721   1.374   3.740
 2180SOL    HW1  953   2.675   1.389   3.828
 2180SOL    HW2  954   2.765   1.459   3.710
 2199SOL     OW  955   2.737   1.646   4.061
 2199SOL    HW1  956   2.660   1.611   4.007
 2199SOL    HW2  957   2.705   1.717   4.123
 2201SOL     OW  958   2.087   2.137   0.996
 2201SOL    HW1  959   2.122   2.120   1.088
 2201SOL    HW2  960   1.999   2.092   0.984
 2203SOL     OW  961   2.431   3.137   1.165
 2203SOL    HW1  962   2.338   3.130   1.128
 2203SOL    HW2  963   2.442   3.226   1.209
 2207SOL     OW  964   2.630   3.006   1.023
 2207SOL    HW1  965   2.552   3.023   1.083
 2207SOL    HW2  966   2.664   3.093   0.987
 2208SOL     OW  967   2.712   2.660   1.823
 2208SOL    HW1  968   2.708   2.736   1.888
 2208SOL    HW2  969   2.734   2.696   1.732
 2210SOL     OW  970   2.548   3.023   1.803
 2210SOL    HW1  971   2.608   3.102   1.817
 2210SOL    HW2  972   2.462   3.054   1.762
 2211SOL     OW  973   2.197   3.297   1.061
 2211SOL    HW1  974   2.119   3.266   1.008
 2211SOL    HW2  975   2.255   3.355   1.004
 2212SOL     OW  976   3.322   3.367   1.339
 2212SOL    HW1  977   3.346   3.461   1.365
 2212SOL    HW2  978   3.306   3.313   1.421
 2213SOL     OW  979   2.300   2.254   1.499
 2213SOL    HW1  980   2.382   2.198   1.508
 2213SOL    HW2  981   2.219   2.196   1.503
 2216SOL     OW  982   2.989   3.203   1.690
 2216SOL    HW1  983   3.036   3.203   1.778
 2216SOL    HW2  984   2.941   3.116   1.679
 2218SOL     OW  985   2.102   2.953   0.886
 2218SOL    HW1  986   2.116   2.869   0.938
 2218SOL    HW2  987   2.047   3.017   0.941
 2219SOL     OW  988   2.482   3.648   1.439
 2219SOL    HW1  989   2.390   3.631   1.474
 2219SOL    HW2  990   2.510   3.740   1.465
 2221SOL     OW  991   3.456   1.976   1.480
 2221SOL    HW1  992   3.438   2.043   1.408
 2221SOL    HW2  993   3.453   2.022   1.569
 2226SOL     OW  994   1.975   2.599   1.597
 2226SOL    HW1  995   2.063   2.586   1.642
 2226SOL    HW2  996   1.962   2.696   1.575
 2228SOL     OW  997   3.155   3.090   1.423
 2228SOL    HW1  998   3.192   3.017   1.365
 2228SOL    HW2  999   3.207   3.095   1.508
 2230SOL     OW 1000   2.059   2.838   1.264
 2230SOL    HW1 1001   2.148   2.793   1.250
 2230SOL    HW2 1002   1.986   2.773   1.245
 2232SOL     OW 1003   3.049   3.654   1.616
 2232SOL    HW1 1004   3.073   3.714   1.540
 2232SOL    HW2 1005   3.056   3.559   1.586
 2233SOL     OW 1006   2.179   2.113   1.801
 2233SOL    HW1 1007   2.250   2.184   1.807
 2233SOL    HW2 1008   2.091   2.152   1.829
 2237SOL     OW 1009   3.143   2.207   0.944
 2237SOL    HW1 1010   3.057   2.157   0.931
 2237SOL    HW2 1011   3.205   2.153   1.000
 2239SOL     OW 1012   2.669   2.467   1.465
 2239SOL    HW1 1013   2.622   2.464   1.554
 2239SOL    HW2 1014   2.618   2.412   1.399
 2240SOL     OW 1015   3.256   2.331   1.674
 2240SOL    HW1 1016   3.236   2.374   1.762
 2240SOL    HW2 1017   3.334   2.269   1.683
 2241SOL     OW 1018   2.835   2.752   1.572
 2241SOL    HW1 1019   2.881   2.668   1.543
 2241SOL    HW2 1020   2.779   2.786   1.497
 2242SOL     OW 1021   2.853   2.272   1.242
 2242SOL    HW1 1022   2.776   2.306   1.296
 2242SOL    HW2 1023   2.819   2.221   1.163
 2245SOL     OW 1024   1.992   3.683   1.571
 2245SOL    HW1 1025   1.982   3.668   1.670
 2245SOL    HW2 1026   1.906   3.719   1.535
 2247SOL     OW 1027   3.581   2.447   1.831
 2247SOL    HW1 1028   3.555   2.536   1.795
 2247SOL    HW2 1029   3.579   2.379   1.758
 2249SOL     OW 1030   2.412   2.058   0.885
 2249SOL    HW1 1031   2.407   2.053   0.985
 2249SOL    HW2 1032   2.414   2.154   0.856
 2253SOL     OW 1033   3.089   3.412   1.506
 2253SOL    HW1 1034   3.095   3.335   1.570
 2253SOL    HW2 1035   3.037   3.386   1.426
 2256SOL     OW 1036   2.323   3.128   1.727
 2256SOL    HW1 1037   2.273   3.129   1.641
 2256SOL    HW2 1038   2.260   3.110   1.803
 2258SOL     OW 1039   2.064   2.147   1.498
 2258SOL    HW1 1040   1.984   2.207   1.485
 2258SOL    HW2 1041   2.054   2.098   1.584
 2261SOL     OW 1042   2.111   3.647   1.241
 2261SOL    HW1 1043   2.168   3.582   1.291
 2261SOL    HW2 1044   2.095   3.614   1.148
 2264SOL     OW 1045   3.409   2.084   1.729
 2264SOL    HW1 1046   3.404   2.121   1.821
 2264SOL    HW2 1047   3.337   2.015   1.717
 2265SOL     OW 1048   2.643   2.126   1.749
 2265SOL    HW1 1049   2.710   2.065   1.792
 2265SOL    HW2 1050   2.570   2.145   1.814
 2266SOL     OW 1051   2.750   3.376   1.195
 2266SOL    HW1 1052   2.727   3.351   1.101
 2266SOL    HW2 1053   2.811   3.307   1.234
 2267SOL     OW 1054   3.213   2.452   1.433
 2267SOL    HW1 1055   3.241   2.409   1.518
 2267SOL    HW2 1056   3.238   2.548   1.434
 2268SOL     OW 1057   2.665   3.264   0.924
 2268SOL    HW1 1058   2.755   3.278   0.882
 2268SOL    HW2 1059   2.594   3.266   0.853
 2269SOL     OW 1060   2.784   2.365   0.899
 2269SOL    HW1 1061   2.759   2.356   0.803
 2269SOL    HW2 1062   2.832   2.283   0.930
 2273SOL     OW 1063   2.938   2.545   1.464
 2273SOL    HW1 1064   2.858   2.484   1.467
 2273SOL    HW2 1065   3.019   2.492   1.440
 2278SOL     OW 1066   1.940   2.418   1.386
 2278SOL    HW1 1067   2.032   2.417   1.345
 2278SOL    HW2 1068   1.934   2.492   1.453
 2279SOL     OW 1069   2.423   2.084   1.147
 2279SOL    HW1 1070   2.461   2.000   1.184
 2279SOL    HW2 1071   2.335   2.103   1.191
 2283SOL     OW 1072   3.328   2.452   0.992
 2283SOL    HW1 1073   3.298   2.357   0.999
 2283SOL    HW2 1074   3.401   2.468   1.058
 2289SOL     OW 1075   3.616   3.085   1.588
 2289SOL    HW1 1076   3.707   3.046   1.575
 2289SOL    HW2 1077   3.624   3.181   1.612
 2290SOL     OW 1078   2.926   3.209   1.340
 2290SOL    HW1 1079   2.846   3.186   1.395
 2290SOL    HW2 1080   3.009   3.183   1.389
 2291SOL     OW 1081   3.454   3.491   1.625
 2291SOL    HW1 1082   3.481   3.525   1.535
 2291SOL    HW2 1083   3.533   3.453   1.671
 2292SOL     OW 1084   2.973   3.057   1.100
 2292SOL    HW1 1085   2.933   3.101   1.181
 2292SOL    HW2 1086   2.932   3.094   1.017
 2294SOL     OW 1087   2.777   1.951   1.402
 2294SOL    HW1 1088   2.802   1.931   1.307
 2294SOL    HW2 1089   2.849   2.007   1.444
 2295SOL     OW 1090   2.842   2.978   1.719
 2295SOL    HW1 1091   2.743   2.984   1.729
 2295SOL    HW2 1092   2.865   2.898   1.663
 2297SOL     OW 1093   2.272   2.675   1.251
 2297SOL    HW1 1094   2.358   2.687   1.301
 2297SOL    HW2 1095   2.230   2.588   1.278
 2298SOL     OW 1096   3.136   2.248   1.262
 2298SOL    HW1 1097   3.157   2.322   1.326
 2298SOL    HW2 1098   3.047   2.265   1.219
 2299SOL     OW 1099   1.926   3.426   1.331
 2299SOL    HW1 1100   1.880   3.508   1.297
 2299SOL    HW2 1101   2.024   3.445   1.340
 2301SOL     OW 1102   2.428   2.399   0.865
 2301SOL    HW1 1103   2.440   2.465   0.791
 2301SOL    HW2 1104   2.474   2.433   0.948
 2303SOL     OW 1105   3.134   3.307   1.142
 2303SOL    HW1 1106   3.181   3.320   1.229
 2303SOL    HW2 1107   3.068   3.233   1.151
 2305SOL     OW 1108   2.216   3.372   1.329
 2305SOL    HW1 1109   2.195   3.328   1.242
 2305SOL    HW2 1110   2.313   3.398   1.332
 2306SOL     OW 1111   2.264   2.613   1.598
 2306SOL    HW1 1112   2.332   2.668   1.551
 2306SOL    HW2 1113   2.304   2.525   1.625
 2307SOL     OW 1114   3.449   2.641   1.670
 2307SOL    HW1 1115   3.357   2.679   1.665
 2307SOL    HW2 1116   3.509   2.688   1.605
 2308SOL     OW 1117   2.875   1.967   1.770
 2308SOL    HW1 1118   2.881   2.052   1.718
 2308SOL    HW2 1119   2.907   1.891   1.713
 2309SOL     OW 1120   2.366   1.912   1.740
 2309SOL    HW1 1121   2.324   1.855   1.670
 2309SOL    HW2 1122   2.300   1.981   1.772
 2310SOL     OW 1123   2.435   2.732   1.029
 2310SOL    HW1 1124   2.479   2.821   1.020
 2310SOL    HW2 1125   2.372   2.732   1.106
 2311SOL     OW 1126   3.222   2.724   1.045
 2311SOL    HW1 1127   3.147   2.724   0.979
 2311SOL    HW2 1128   3.259   2.632   1.054
 2313SOL     OW 1129   2.169   2.075   1.231
 2313SOL    HW1 1130   2.146   2.112   1.321
 2313SOL    HW2 1131   2.139   1.980   1.225
 2314SOL     OW 1132   1.899   3.172   1.282
 2314SOL    HW1 1133   1.952   3.123   1.350
 2314SOL    HW2 1134   1.921   3.270   1.287
 2315SOL     OW 1135   2.594   2.496   1.064
 2315SOL    HW1 1136   2.653   2.470   0.988
 2315SOL    HW2 1137   2.566   2.592   1.053
 2316SOL     OW 1138   3.590   2.797   1.854
 2316SOL    HW1 1139   3.544   2.790   1.765
 2316SOL    HW2 1140   3.528   2.841   1.920
 2319SOL     OW 1141   2.885   2.628   0.966
 2319SOL    HW1 1142   2.900   2.649   1.062
 2319SOL    HW2 1143   2.855   2.533   0.957
 2320SOL     OW 1144   2.842   3.435   1.700
 2320SOL    HW1 1145   2.822   3.479   1.612
 2320SOL    HW2 1146   2.881   3.344   1.684
 2321SOL     OW 1147   3.721   3.380   1.605
 2321SOL    HW1 1148   3.735   3.407   1.510
 2321SOL    HW2 1149   3.804   3.402   1.658
 2322SOL     OW 1150   2.212   2.760   1.804
 2322SOL    HW1 1151   2.288   2.804   1.852
 2322SOL    HW2 1152   2.247   2.713   1.722
 2326SOL     OW 1153   2.181   2.672   0.949
 2326SOL    HW1 1154   2.274   2.708   0.954
 2326SOL    HW2 1155   2.175   2.587   1.001
 2327SOL     OW 1156   2.201   2.371   1.006
 2327SOL    HW1 1157   2.149   2.288   0.989
 2327SOL    HW2 1158   2.278   2.376   0.942
 2328SOL     OW 1159   3.000   2.242   1.678
 2328SOL    HW1 1160   2.955   2.305   1.742
 2328SOL    HW2 1161   3.093   2.273   1.661
 2329SOL     OW 1162   3.022   2.069   1.477
 2329SOL    HW1 1163   3.022   2.133   1.554
 2329SOL    HW2 1164   3.050   2.117   1.394
 2332SOL     OW 1165   2.864   2.658   1.238
 2332SOL    HW1 1166   2.905   2.626   1.324
 2332SOL    HW2 1167   2.768   2.631   1.235
 2333SOL     OW 1168   1.902   2.406   1.114
 2333SOL    HW1 1169   1.987   2.373   1.073
 2333SOL    HW2 1170   1.915   2.421   1.212
 2334SOL     OW 1171   2.051   2.382   1.722
 2334SOL    HW1 1172   2.110   2.342   1.652
 2334SOL    HW2 1173   1.993   2.453   1.681
 2335SOL     OW 1174   3.231   2.812   1.660
 2335SOL    HW1 1175   3.270   2.901   1.680
 2335SOL    HW2 1176   3.241   2.792   1.563
 2337SOL     OW 1177   3.519   2.466   1.206
 2337SOL    HW1 1178   3.481   2.397   1.268
 2337SOL    HW2 1179   3.601   2.430   1.162
 2338SOL     OW 1180   2.114   3.426   1.744
 2338SOL    HW1 1181   2.084   3.483   1.820
 2338SOL    HW2 1182   2.107   3.329   1.770
 2339SOL     OW 1183   2.533   2.326   1.269
 2339SOL    HW1 1184   2.499   2.237   1.239
 2339SOL    HW2 1185   2.559   2.380   1.189
 2340SOL     OW 1186   2.792   3.540   1.465
 2340SOL    HW1 1187   2.768   3.522   1.370
 2340SOL    HW2 1188   2.822   3.634   1.475
 2342SOL     OW 1189   2.021   2.999   1.466
 2342SOL    HW1 1190   2.043   2.938   1.542
 2342SOL    HW2 1191   2.031   2.950   1.380
 2343SOL     OW 1192   3.209   2.921   1.234
 2343SOL    HW1 1193   3.233   2.858   1.160
 2343SOL    HW2 1194   3.119   2.961   1.216
 2347SOL     OW 1195   1.945   3.120   1.022
 2347SOL    HW1 1196   1.940   3.119   1.122
 2347SOL    HW2 1197   1.862   3.079   0.984
 2348SOL     OW 1198   2.550   3.524   1.716
 2348SOL    HW1 1199   2.494   3.605   1.725
 2348SOL    HW2 1200   2.602   3.528   1.630
 2352SOL     OW 1201   1.992   3.656   1.851
 2352SOL    HW1 1202   1.951   3.582   1.904
 2352SOL    HW2 1203   2.056   3.707   1.909
 2354SOL     OW 1204   2.692   3.135   1.422
 2354SOL    HW1 1205   2.687   3.168   1.517
 2354SOL    HW2 1206   2.606   3.154   1.376
 2360SOL     OW 1207   2.684   2.864   1.372
 2360SOL    HW1 1208   2.724   2.863   1.280
 2360SOL    HW2 1209   2.694   2.956   1.412
 2363SOL     OW 1210   2.234   3.150   1.490
 2363SOL    HW1 1211   2.221   3.243   1.456
 2363SOL    HW2 1212   2.150   3.098   1.477
 2364SOL     OW 1213   3.476   3.154   1.289
 2364SOL    HW1 1214   3.536   3.157   1.369
 2364SOL    HW2 1215   3.401   3.218   1.302
 2366SOL     OW 1216   2.876   2.098   0.971
 2366SOL    HW1 1217   2.868   2.062   0.878
 2366SOL    HW2 1218   2.874   2.022   1.036
 2368SOL     OW 1219   3.571   2.247   1.381
 2368SOL    HW1 1220   3.644   2.316   1.385
 2368SOL    HW2 1221   3.599   2.172   1.322
 2370SOL     OW 1222   1.967   2.875   1.726
 2370SOL    HW1 1223   1.890   2.842   1.780
 2370SOL    HW2 1224   2.052   2.845   1.768
 2371SOL     OW 1225   2.534   2.065   1.489
 2371SOL    HW1 1226   2.624   2.049   1.449
 2371SOL    HW2 1227   2.542   2.070   1.588
 2373SOL     OW 1228   3.302   2.718   1.398
 2373SOL    HW1 1229   3.245   2.770   1.335
 2373SOL    HW2 1230   3.398   2.730   1.374
 2376SOL     OW 1231   2.475   2.704   1.431
 2376SOL    HW1 1232   2.531   2.785   1.414
 2376SOL    HW2 1233   2.534   2.624   1.434
 2378SOL     OW 1234   2.578   2.427   1.708
 2378SOL    HW1 1235   2.597   2.492   1.782
 2378SOL    HW2 1236   2.638   2.347   1.717
 2379SOL     OW 1237   3.312   3.082   1.633
 2379SOL    HW1 1238   3.303   3.072   1.732
 2379SOL    HW2 1239   3.408   3.075   1.607
 2380SOL     OW 1240   2.252   3.603   1.560
 2380SOL    HW1 1241   2.161   3.644   1.558
 2380SOL    HW2 1242   2.245   3.509   1.592
 2381SOL     OW 1243   3.536   2.745   1.254
 2381SOL    HW1 1244   3.509   2.656   1.217
 2381SOL    HW2 1245   3.537   2.813   1.181
 2384SOL     OW 1246   3.639   2.204   1.642
 2384SOL    HW1 1247   3.622   2.235   1.548
 2384SOL    HW2 1248   3.555   2.167   1.680
 2385SOL     OW 1249   3.592   2.796   1.517
 2385SOL    HW1 1250   3.630   2.887   1.532
 2385SOL    HW2 1251   3.584   2.779   1.418
 2388SOL     OW 1252   2.721   2.818   0.861
 2388SOL    HW1 1253   2.775   2.749   0.909
 2388SOL    HW2 1254   2.689   2.887   0.927
 2391SOL     OW 1255   2.083   3.176   1.844
 2391SOL    HW1 1256   2.018   3.103   1.823
 2391SOL    HW2 1257   2.087   3.190   1.942
 2393SOL     OW 1258   2.534   3.253   1.624
 2393SOL    HW1 1259   2.456   3.203   1.662
 2393SOL    HW2 1260   2.531   3.348   1.655
 2397SOL     OW 1261   2.179   2.409   1.280
 2397SOL    HW1 1262   2.217   2.350   1.352
 2397SOL    HW2 1263   2.219   2.383   1.192
 2399SOL     OW 1264   3.286   2.076   1.112
 2399SOL    HW1 1265   3.338   2.011   1.167
 2399SOL    HW2 1266   3.237   2.139   1.173
 2400SOL     OW 1267   2.863   1.896   1.154
 2400SOL    HW1 1268   2.800   1.824   1.123
 2400SOL    HW2 1269   2.956   1.860   1.154
 2402SOL     OW 1270   2.480   3.429   1.284
 2402SOL    HW1 1271   2.475   3.511   1.341
 2402SOL    HW2 1272   2.569   3.426   1.239
 2408SOL     OW 1273   2.092   2.490   1.975
 2408SOL    HW1 1274   1.999   2.488   2.012
 2408SOL    HW2 1275   2.093   2.451   1.883
 2409SOL     OW 1276   2.087   2.137   2.858
 2409SOL    HW1 1277   2.122   2.120   2.950
 2409SOL    HW2 1278   1.999   2.092   2.846
 2410SOL     OW 1279   1.881   2.230   2.509
 2410SOL    HW1 1280   1.799   2.273   2.548
 2410SOL    HW2 1281   1.853   2.157   2.446
 2411SOL     OW 1282   2.431   3.137   3.027
 2411SOL    HW1 1283   2.338   3.130   2.990
 2411SOL    HW2 1284   2.442   3.226   3.071
 2412SOL     OW 1285   3.417   3.373   2.565
 2412SOL    HW1 1286   3.360   3.357   2.646
 2412SOL    HW2 1287   3.358   3.383   2.485
 2413SOL     OW 1288   3.617   2.469   2.093
 2413SOL    HW1 1289   3.605   2.456   1.994
 2413SOL    HW2 1290   3.587   2.388   2.142
 2414SOL     OW 1291   2.712   2.660   3.685
 2414SOL    HW1 1292   2.708   2.736   3.750
 2414SOL    HW2 1293   2.734   2.696   3.594
 2415SOL     OW 1294   2.548   3.023   3.665
 2415SOL    HW1 1295   2.608   3.102   3.679
 2415SOL    HW2 1296   2.462   3.054   3.624
 2416SOL     OW 1297   2.197   3.297   2.923
 2416SOL    HW1 1298   2.119   3.266   2.870
 2416SOL    HW2 1299   2.255   3.355   2.866
 2417SOL     OW 1300   3.322   3.367   3.201
 2417SOL    HW1 1301   3.346   3.461   3.227
 2417SOL    HW2 1302   3.306   3.313   3.283
 2418SOL     OW 1303   2.300   2.254   3.361
 2418SOL    HW1 1304   2.382   2.198   3.370
 2418SOL    HW2 1305   2.219   2.196   3.365
 2419SOL     OW 1306   3.465   2.309   2.599
 2419SOL    HW1 1307   3.391   2.355   2.549
 2419SOL    HW2 1308   3.516   2.377   2.652
 2420SOL     OW 1309   2.093   3.575   2.345
 2420SOL    HW1 1310   2.127   3.652   2.399
 2420SOL    HW2 1311   2.137   3.575   2.255
 2421SOL     OW 1312   2.989   3.203   3.552
 2421SOL    HW1 1313   3.036   3.203   3.640
 2421SOL    HW2 1314   2.941   3.116   3.541
 2422SOL     OW 1315   2.092   3.296   2.400
 2422SOL    HW1 1316   2.066   3.392   2.400
 2422SOL    HW2 1317   2.021   3.242   2.445
 2423SOL     OW 1318   2.102   2.953   2.748
 2423SOL    HW1 1319   2.116   2.869   2.800
 2423SOL    HW2 1320   2.047   3.017   2.803
 2424SOL     OW 1321   2.482   3.648   3.301
 2424SOL    HW1 1322   2.390   3.631   3.336
 2424SOL    HW2 1323   2.510   3.740   3.327
 2425SOL     OW 1324   2.468   2.826   1.985
 2425SOL    HW1 1325   2.475   2.910   1.931
 2425SOL    HW2 1326   2.514   2.839   2.073
 2426SOL     OW 1327   3.456   1.976   3.342
 2426SOL    HW1 1328   3.438   2.043   3.270
 2426SOL    HW2 1329   3.453   2.022   3.431
 2427SOL     OW 1330   1.984   2.505   2.425
 2427SOL    HW1 1331   1.939   2.417   2.442
 2427SOL    HW2 1332   1.983   2.559   2.509
 2428SOL     OW 1333   3.704   3.629   2.221
 2428SOL    HW1 1334   3.758   3.600   2.301
 2428SOL    HW2 1335   3.734   3.719   2.192
 2429SOL     OW 1336   1.889   3.458   1.979
 2429SOL    HW1 1337   1.870   3.362   2.000
 2429SOL    HW2 1338   1.856   3.516   2.054
 2430SOL     OW 1339   3.551   2.784   2.474
 2430SOL    HW1 1340   3.646   2.755   2.482
 2430SOL    HW2 1341   3.543   2.849   2.399
 2431SOL     OW 1342   3.503   2.970   2.294
 2431SOL    HW1 1343   3.589   2.972   2.242
 2431SOL    HW2 1344   3.517   3.017   2.382
 2432SOL     OW 1345   1.975   2.599   3.459
 2432SOL    HW1 1346   2.063   2.586   3.504
 2432SOL    HW2 1347   1.962   2.696   3.437
 2433SOL     OW 1348   2.475   3.227   2.588
 2433SOL    HW1 1349   2.426   3.140   2.597
 2433SOL    HW2 1350   2.452   3.270   2.501
 2434SOL     OW 1351   3.155   3.090   3.285
 2434SOL    HW1 1352   3.192   3.017   3.227
 2434SOL    HW2 1353   3.207   3.095   3.370
 2435SOL     OW 1354   2.671   1.866   2.364
 2435SOL    HW1 1355   2.711   1.957   2.355
 2435SOL    HW2 1356   2.571   1.874   2.370
 2436SOL     OW 1357   2.059   2.838   3.126
 2436SOL    HW1 1358   2.148   2.793   3.112
 2436SOL    HW2 1359   1.986   2.773   3.107
 2437SOL     OW 1360   3.387   2.861   2.052
 2437SOL    HW1 1361   3.324   2.785   2.065
 2437SOL    HW2 1362   3.435   2.879   2.138
 2438SOL     OW 1363   3.049   3.654   3.478
 2438SOL    HW1 1364   3.073   3.714   3.402
 2438SOL    HW2 1365   3.056   3.559   3.448
 2439SOL     OW 1366   2.179   2.113   3.663
 2439SOL    HW1 1367   2.250   2.184   3.669
 2439SOL    HW2 1368   2.091   2.152   3.691
 2440SOL     OW 1369   3.328   3.279   2.815
 2440SOL    HW1 1370   3.269   3.285   2.895
 2440SOL    HW2 1371   3.313   3.191   2.769
 2441SOL     OW 1372   3.529   3.576   2.434
 2441SOL    HW1 1373   3.488   3.553   2.346
 2441SOL    HW2 1374   3.511   3.502   2.499
 2442SOL     OW 1375   2.460   2.591   2.132
 2442SOL    HW1 1376   2.484   2.660   2.064
 2442SOL    HW2 1377   2.382   2.624   2.186
 2443SOL     OW 1378   3.143   2.207   2.806
 2443SOL    HW1 1379   3.057   2.157   2.793
 2443SOL    HW2 1380   3.205   2.153   2.862
 2444SOL     OW 1381   3.438   3.524   2.169
 2444SOL    HW1 1382   3.527   3.570   2.172
 2444SOL    HW2 1383   3.417   3.500   2.074
 2445SOL     OW 1384   2.669   2.467   3.327
 2445SOL    HW1 1385   2.622   2.464   3.416
 2445SOL    HW2 1386   2.618   2.412   3.261
 2446SOL     OW 1387   3.256   2.331   3.536
 2446SOL    HW1 1388   3.236   2.374   3.624
 2446SOL    HW2 1389   3.334   2.269   3.545
 2447SOL     OW 1390   2.835   2.752   3.434
 2447SOL    HW1 1391   2.881   2.668   3.405
 2447SOL    HW2 1392   2.779   2.786   3.359
 2448SOL     OW 1393   2.853   2.272   3.104
 2448SOL    HW1 1394   2.776   2.306   3.158
 2448SOL    HW2 1395   2.819   2.221   3.025
 2449SOL     OW 1396   2.903   2.563   2.291
 2449SOL    HW1 1397   2.929   2.559   2.387
 2449SOL    HW2 1398   2.818   2.512   2.277
 2450SOL     OW 1399   1.938   2.673   2.651
 2450SOL    HW1 1400   2.037   2.661   2.660
 2450SOL    HW2 1401   1.914   2.768   2.672
 2451SOL     OW 1402   1.992   3.683   3.433
 2451SOL    HW1 1403   1.982   3.668   3.532
 2451SOL    HW2 1404   1.906   3.719   3.397
 2452SOL     OW 1405   2.727   2.210   2.057
 2452SOL    HW1 1406   2.786   2.273   2.008
 2452SOL    HW2 1407   2.746   2.116   2.028
 2453SOL     OW 1408   3.581   2.447   3.693
 2453SOL    HW1 1409   3.555   2.536   3.657
 2453SOL    HW2 1410   3.579   2.379   3.620
 2454SOL     OW 1411   3.224   3.006   2.407
 2454SOL    HW1 1412   3.307   2.977   2.359
 2454SOL    HW2 1413   3.175   3.073   2.351
 2455SOL     OW 1414   2.412   2.058   2.747
 2455SOL    HW1 1415   2.407   2.053   2.847
 2455SOL    HW2 1416   2.414   2.154   2.718
 2456SOL     OW 1417   2.870   3.318   2.339
 2456SOL    HW1 1418   2.824   3.390   2.287
 2456SOL    HW2 1419   2.866   3.338   2.437
 2457SOL     OW 1420   2.213   3.663   2.715
 2457SOL    HW1 1421   2.263   3.577   2.721
 2457SOL    HW2 1422   2.278   3.740   2.712
 2458SOL     OW 1423   3.657   2.928   2.735
 2458SOL    HW1 1424   3.595   2.913   2.659
 2458SOL    HW2 1425   3.605   2.939   2.820
 2459SOL     OW 1426   3.089   3.412   3.368
 2459SOL    HW1 1427   3.095   3.335   3.432
 2459SOL    HW2 1428   3.037   3.386   3.288
 2460SOL     OW 1429   2.183   2.805   2.104
 2460SOL    HW1 1430   2.265   2.844   2.062
 2460SOL    HW2 1431   2.156   2.723   2.055
 2461SOL     OW 1432   3.320   2.597   2.590
 2461SOL    HW1 1433   3.315   2.532   2.665
 2461SOL    HW2 1434   3.400   2.656   2.603
 2462SOL     OW 1435   2.323   3.128   3.589
 2462SOL    HW1 1436   2.273   3.129   3.503
 2462SOL    HW2 1437   2.260   3.110   3.665
 2463SOL     OW 1438   2.973   3.638   2.099
 2463SOL    HW1 1439   2.913   3.576   2.149
 2463SOL    HW2 1440   3.004   3.594   2.014
 2464SOL     OW 1441   2.064   2.147   3.360
 2464SOL    HW1 1442   1.984   2.207   3.347
 2464SOL    HW2 1443   2.054   2.098   3.446
 2465SOL     OW 1444   3.494   3.239   1.943
 2465SOL    HW1 1445   3.462   3.333   1.933
 2465SOL    HW2 1446   3.418   3.176   1.931
 2466SOL     OW 1447   2.326   3.605   2.185
 2466SOL    HW1 1448   2.359   3.644   2.271
 2466SOL    HW2 1449   2.402   3.598   2.120
 2467SOL     OW 1450   3.262   1.969   2.288
 2467SOL    HW1 1451   3.238   1.932   2.198
 2467SOL    HW2 1452   3.361   1.985   2.292
 2468SOL     OW 1453   2.111   3.647   3.103
 2468SOL    HW1 1454   2.168   3.582   3.153
 2468SOL    HW2 1455   2.095   3.614   3.010
 2469SOL     OW 1456   2.802   3.560   2.766
 2469SOL    HW1 1457   2.882   3.503   2.787
 2469SOL    HW2 1458   2.753   3.520   2.689
 2470SOL     OW 1459   3.409   2.084   3.591
 2470SOL    HW1 1460   3.404   2.121   3.683
 2470SOL    HW2 1461   3.337   2.015   3.579
 2471SOL     OW 1462   2.476   1.984   1.979
 2471SOL    HW1 1463   2.574   1.962   1.986
 2471SOL    HW2 1464   2.445   1.967   1.886
 2472SOL     OW 1465   2.643   2.126   3.611
 2472SOL    HW1 1466   2.710   2.065   3.654
 2472SOL    HW2 1467   2.570   2.145   3.676
 2473SOL     OW 1468   2.750   3.376   3.057
 2473SOL    HW1 1469   2.727   3.351   2.963
 2473SOL    HW2 1470   2.811   3.307   3.096
 2474SOL     OW 1471   3.213   2.452   3.295
 2474SOL    HW1 1472   3.241   2.409   3.380
 2474SOL    HW2 1473   3.238   2.548   3.296
 2475SOL     OW 1474   2.665   3.264   2.786
 2475SOL    HW1 1475   2.755   3.278   2.744
 2475SOL    HW2 1476   2.594   3.266   2.715
 2476SOL     OW 1477   2.401   1.926   2.374
 2476SOL    HW1 1478   2.320   1.927   2.432
 2476SOL    HW2 1479   2.404   2.009   2.319
 2477SOL     OW 1480   3.296   3.050   1.903
 2477SOL    HW1 1481   3.328   2.974   1.960
 2477SOL    HW2 1482   3.204   3.077   1.933
 2478SOL     OW 1483   2.159   1.897   2.033
 2478SOL    HW1 1484   2.208   1.981   2.012
 2478SOL    HW2 1485   2.221   1.832   2.078
 2479SOL     OW 1486   2.797   2.098   2.342
 2479SOL    HW1 1487   2.749   2.139   2.264
 2479SOL    HW2 1488   2.896   2.096   2.323
 2480SOL     OW 1489   2.938   2.545   3.326
 2480SOL    HW1 1490   2.858   2.484   3.329
 2480SOL    HW2 1491   3.019   2.492   3.302
 2481SOL     OW 1492   3.089   3.432   2.655
 2481SOL    HW1 1493   3.110   3.506   2.590
 2481SOL    HW2 1494   3.157   3.432   2.728
 2482SOL     OW 1495   3.133   3.659   2.453
 2482SOL    HW1 1496   3.177   3.723   2.389
 2482SOL    HW2 1497   3.083   3.711   2.523
 2483SOL     OW 1498   2.894   2.411   1.878
 2483SOL    HW1 1499   2.853   2.493   1.839
 2483SOL    HW2 1500   2.958   2.437   1.951
 2484SOL     OW 1501   1.940   2.418   3.248
 2484SOL    HW1 1502   2.032   2.417   3.207
 2484SOL    HW2 1503   1.934   2.492   3.315
 2485SOL     OW 1504   2.423   2.084   3.009
 2485SOL    HW1 1505   2.461   2.000   3.046
 2485SOL    HW2 1506   2.335   2.103   3.053
 2486SOL     OW 1507   2.879   1.901   2.615
 2486SOL    HW1 1508   2.807   1.906   2.546
 2486SOL    HW2 1509   2.855   1.832   2.684
 2487SOL     OW 1510   3.291   3.035   2.729
 2487SOL    HW1 1511   3.236   2.951   2.722
 2487SOL    HW2 1512   3.317   3.064   2.637
 2488SOL     OW 1513   3.328   2.452   2.854
 2488SOL    HW1 1514   3.298   2.357   2.861
 2488SOL    HW2 1515   3.401   2.468   2.920
 2489SOL     OW 1516   3.719   2.695   2.239
 2489SOL    HW1 1517   3.761   2.631   2.303
 2489SOL    HW2 1518   3.681   2.644   2.161
 2490SOL     OW 1519   2.350   3.247   2.036
 2490SOL    HW1 1520   2.263   3.232   2.083
 2490SOL    HW2 1521   2.333   3.273   1.941
 2491SOL     OW 1522   3.526   3.142   2.519
 2491SOL    HW1 1523   3.625   3.150   2.533
 2491SOL    HW2 1524   3.481   3.226   2.550
 2492SOL     OW 1525   3.252   2.437   1.940
 2492SOL    HW1 1526   3.198   2.416   2.021
 2492SOL    HW2 1527   3.343   2.396   1.949
 2493SOL     OW 1528   2.389   2.118   2.190
 2493SOL    HW1 1529   2.416   2.059   2.115
 2493SOL    HW2 1530   2.389   2.213   2.159
 2494SOL     OW 1531   3.616   3.085   3.450
 2494SOL    HW1 1532   3.707   3.046   3.437
 2494SOL    HW2 1533   3.624   3.181   3.474
 2495SOL     OW 1534   2.926   3.209   3.202
 2495SOL    HW1 1535   2.846   3.186   3.257
 2495SOL    HW2 1536   3.009   3.183   3.251
 2496SOL     OW 1537   3.454   3.491   3.487
 2496SOL    HW1 1538   3.481   3.525   3.397
 2496SOL    HW2 1539   3.533   3.453   3.533
 2497SOL     OW 1540   2.973   3.057   2.962
 2497SOL    HW1 1541   2.933   3.101   3.043
 2497SOL    HW2 1542   2.932   3.094   2.879
 2498SOL     OW 1543   3.500   2.961   2.941
 2498SOL    HW1 1544   3.505   3.042   3.000
 2498SOL    HW2 1545   3.414   2.963   2.890
 2499SOL     OW 1546   2.777   1.951   3.264
 2499SOL    HW1 1547   2.802   1.931   3.169
 2499SOL    HW2 1548   2.849   2.007   3.306
 2500SOL     OW 1549   2.842   2.978   3.581
 2500SOL    HW1 1550   2.743   2.984   3.591
 2500SOL    HW2 1551   2.865   2.898   3.525
 2501SOL     OW 1552   2.567   2.912   2.230
 2501SOL    HW1 1553   2.553   2.919   2.329
 2501SOL    HW2 1554   2.651   2.861   2.212
 2502SOL     OW 1555   2.272   2.675   3.113
 2502SOL    HW1 1556   2.358   2.687   3.163
 2502SOL    HW2 1557   2.230   2.588   3.140
 2503SOL     OW 1558   3.136   2.248   3.124
 2503SOL    HW1 1559   3.157   2.322   3.188
 2503SOL    HW2 1560   3.047   2.265   3.081
 2504SOL     OW 1561   1.926   3.426   3.193
 2504SOL    HW1 1562   1.880   3.508   3.159
 2504SOL    HW2 1563   2.024   3.445   3.202
 2505SOL     OW 1564   2.229   2.962   2.363
 2505SOL    HW1 1565   2.222   3.045   2.307
 2505SOL    HW2 1566   2.233   2.882   2.303
 2506SOL     OW 1567   2.428   2.399   2.727
 2506SOL    HW1 1568   2.440   2.465   2.653
 2506SOL    HW2 1569   2.474   2.433   2.810
 2507SOL     OW 1570   3.114   3.210   2.250
 2507SOL    HW1 1571   3.164   3.287   2.290
 2507SOL    HW2 1572   3.019   3.212   2.282
 2508SOL     OW 1573   3.134   3.307   3.004
 2508SOL    HW1 1574   3.181   3.320   3.091
 2508SOL    HW2 1575   3.068   3.233   3.013
 2509SOL     OW 1576   3.444   2.501   2.334
 2509SOL    HW1 1577   3.413   2.562   2.407
 2509SOL    HW2 1578   3.494   2.553   2.265
 2510SOL     OW 1579   2.216   3.372   3.191
 2510SOL    HW1 1580   2.195   3.328   3.104
 2510SOL    HW2 1581   2.313   3.398   3.194
 2511SOL     OW 1582   2.264   2.613   3.460
 2511SOL    HW1 1583   2.332   2.668   3.413
 2511SOL    HW2 1584   2.304   2.525   3.487
 2512SOL     OW 1585   3.449   2.641   3.532
 2512SOL    HW1 1586   3.357   2.679   3.527
 2512SOL    HW2 1587   3.509   2.688   3.467
 2513SOL     OW 1588   2.875   1.967   3.632
 2513SOL    HW1 1589   2.881   2.052   3.580
 2513SOL    HW2 1590   2.907   1.891   3.575
 2514SOL     OW 1591   2.366   1.912   3.602
 2514SOL    HW1 1592   2.324   1.855   3.532
 2514SOL    HW2 1593   2.300   1.981   3.634
 2515SOL     OW 1594   2.435   2.732   2.891
 2515SOL    HW1 1595   2.479   2.821   2.882
 2515SOL    HW2 1596   2.372   2.732   2.968
 2516SOL     OW 1597   3.222   2.724   2.907
 2516SOL    HW1 1598   3.147   2.724   2.841
 2516SOL    HW2 1599   3.259   2.632   2.916
 2517SOL     OW 1600   3.071   2.387   2.137
 2517SOL    HW1 1601   3.084   2.303   2.191
 2517SOL    HW2 1602   3.042   2.461   2.197
 2518SOL     OW 1603   2.169   2.075   3.093
 2518SOL    HW1 1604   2.146   2.112   3.183
 2518SOL    HW2 1605   2.139   1.980   3.087
 2519SOL     OW 1606   1.899   3.172   3.144
 2519SOL    HW1 1607   1.952   3.123   3.212
 2519SOL    HW2 1608   1.921   3.270   3.149
 2520SOL     OW 1609   2.594   2.496   2.926
 2520SOL    HW1 1610   2.653   2.470   2.850
 2520SOL    HW2 1611   2.566   2.592   2.915
 2521SOL     OW 1612   3.590   2.797   3.716
 2521SOL    HW1 1613   3.544   2.790   3.627
 2521SOL    HW2 1614   3.528   2.841   3.782
 2522SOL     OW 1615   2.169   1.925   2.480
 2522SOL    HW1 1616   2.158   2.019   2.513
 2522SOL    HW2 1617   2.164   1.862   2.557
 2523SOL     OW 1618   3.484   2.229   2.236
 2523SOL    HW1 1619   3.486   2.153   2.300
 2523SOL    HW2 1620   3.436   2.306   2.276
 2524SOL     OW 1621   2.842   3.435   3.562
 2524SOL    HW1 1622   2.822   3.479   3.474
 2524SOL    HW2 1623   2.881   3.344   3.546
 2525SOL     OW 1624   3.721   3.380   3.467
 2525SOL    HW1 1625   3.735   3.407   3.372
 2525SOL    HW2 1626   3.804   3.402   3.520
 2526SOL     OW 1627   2.212   2.760   3.666
 2526SOL    HW1 1628   2.288   2.804   3.714
 2526SOL    HW2 1629   2.247   2.713   3.584
 2527SOL     OW 1630   3.402   2.136   1.987
 2527SOL    HW1 1631   3.341   2.061   2.010
 2527SOL    HW2 1632   3.424   2.188   2.070
 2528SOL     OW 1633   3.165   2.700   1.904
 2528SOL    HW1 1634   3.199   2.607   1.919
 2528SOL    HW2 1635   3.183   2.727   1.809
 2529SOL     OW 1636   2.930   3.195   2.711
 2529SOL    HW1 1637   2.937   3.111   2.656
 2529SOL    HW2 1638   2.992   3.264   2.675
 2530SOL     OW 1639   2.181   2.672   2.811
 2530SOL    HW1 1640   2.274   2.708   2.816
 2530SOL    HW2 1641   2.175   2.587   2.863
 2531SOL     OW 1642   2.201   2.371   2.868
 2531SOL    HW1 1643   2.149   2.288   2.851
 2531SOL    HW2 1644   2.278   2.376   2.804
 2532SOL     OW 1645   3.000   2.242   3.540
 2532SOL    HW1 1646   2.955   2.305   3.604
 2532SOL    HW2 1647   3.093   2.273   3.523
 2533SOL     OW 1648   3.022   2.069   3.339
 2533SOL    HW1 1649   3.022   2.133   3.416
 2533SOL    HW2 1650   3.050   2.117   3.256
 2534SOL     OW 1651   1.870   3.188   2.062
 2534SOL    HW1 1652   1.777   3.209   2.031
 2534SOL    HW2 1653   1.880   3.089   2.075
 2535SOL     OW 1654   1.950   3.663   2.789
 2535SOL    HW1 1655   1.908   3.577   2.762
 2535SOL    HW2 1656   2.044   3.666   2.755
 2536SOL     OW 1657   2.366   3.430   2.772
 2536SOL    HW1 1658   2.432   3.504   2.781
 2536SOL    HW2 1659   2.410   3.351   2.730
 2537SOL     OW 1660   2.864   2.658   3.100
 2537SOL    HW1 1661   2.905   2.626   3.186
 2537SOL    HW2 1662   2.768   2.631   3.097
 2538SOL     OW 1663   1.902   2.406   2.976
 2538SOL    HW1 1664   1.987   2.373   2.935
 2538SOL    HW2 1665   1.915   2.421   3.074
 2539SOL     OW 1666   2.051   2.382   3.584
 2539SOL    HW1 1667   2.110   2.342   3.514
 2539SOL    HW2 1668   1.993   2.453   3.543
 2540SOL     OW 1669   3.231   2.812   3.522
 2540SOL    HW1 1670   3.270   2.901   3.542
 2540SOL    HW2 1671   3.241   2.792   3.425
 2541SOL     OW 1672   2.677   2.434   2.187
 2541SOL    HW1 1673   2.684   2.345   2.141
 2541SOL    HW2 1674   2.583   2.468   2.179
 2542SOL     OW 1675   3.519   2.466   3.068
 2542SOL    HW1 1676   3.481   2.397   3.130
 2542SOL    HW2 1677   3.601   2.430   3.024
 2543SOL     OW 1678   2.114   3.426   3.606
 2543SOL    HW1 1679   2.084   3.483   3.682
 2543SOL    HW2 1680   2.107   3.329   3.632
 2544SOL     OW 1681   2.533   2.326   3.131
 2544SOL    HW1 1682   2.499   2.237   3.101
 2544SOL    HW2 1683   2.559   2.380   3.051
 2545SOL     OW 1684   2.792   3.540   3.327
 2545SOL    HW1 1685   2.768   3.522   3.232
 2545SOL    HW2 1686   2.822   3.634   3.337
 2546SOL     OW 1687   2.335   2.362   2.053
 2546SOL    HW1 1688   2.396   2.442   2.057
 2546SOL    HW2 1689   2.240   2.393   2.060
 2547SOL     OW 1690   2.021   2.999   3.328
 2547SOL    HW1 1691   2.043   2.938   3.404
 2547SOL    HW2 1692   2.031   2.950   3.242
 2548SOL     OW 1693   3.209   2.921   3.096
 2548SOL    HW1 1694   3.233   2.858   3.022
 2548SOL    HW2 1695   3.119   2.961   3.078
 2549SOL     OW 1696   3.164   2.717   2.171
 2549SOL    HW1 1697   3.078   2.686   2.213
 2549SOL    HW2 1698   3.160   2.703   2.072
 2550SOL     OW 1699   3.621   3.609   3.016
 2550SOL    HW1 1700   3.682   3.639   2.943
 2550SOL    HW2 1701   3.583   3.520   2.994
 2551SOL     OW 1702   3.114   3.593   2.990
 2551SOL    HW1 1703   3.198   3.598   2.936
 2551SOL    HW2 1704   3.091   3.497   3.008
 2552SOL     OW 1705   1.945   3.120   2.884
 2552SOL    HW1 1706   1.940   3.119   2.984
 2552SOL    HW2 1707   1.862   3.079   2.846
 2553SOL     OW 1708   2.550   3.524   3.578
 2553SOL    HW1 1709   2.494   3.605   3.587
 2553SOL    HW2 1710   2.602   3.528   3.492
 2554SOL     OW 1711   3.588   1.997   2.385
 2554SOL    HW1 1712   3.661   1.980   2.318
 2554SOL    HW2 1713   3.557   1.910   2.423
 2555SOL     OW 1714   3.250   3.435   2.339
 2555SOL    HW1 1715   3.317   3.447   2.265
 2555SOL    HW2 1716   3.210   3.524   2.362
 2556SOL     OW 1717   1.992   3.656   3.713
 2556SOL    HW1 1718   1.951   3.582   3.766
 2556SOL    HW2 1719   2.056   3.707   3.771
 2557SOL     OW 1720   3.142   2.789   2.534
 2557SOL    HW1 1721   3.202   2.708   2.536
 2557SOL    HW2 1722   3.182   2.858   2.474
 2558SOL     OW 1723   2.692   3.135   3.284
 2558SOL    HW1 1724   2.687   3.168   3.379
 2558SOL    HW2 1725   2.606   3.154   3.238
 2559SOL     OW 1726   2.534   3.478   2.016
 2559SOL    HW1 1727   2.543   3.488   1.917
 2559SOL    HW2 1728   2.494   3.389   2.037
 2560SOL     OW 1729   3.512   3.582   3.256
 2560SOL    HW1 1730   3.565   3.592   3.172
 2560SOL    HW2 1731   3.485   3.672   3.290
 2561SOL     OW 1732   3.703   2.037   2.825
 2561SOL    HW1 1733   3.742   1.952   2.789
 2561SOL    HW2 1734   3.605   2.039   2.806
 2562SOL     OW 1735   2.125   2.188   2.582
 2562SOL    HW1 1736   2.046   2.239   2.548
 2562SOL    HW2 1737   2.116   2.173   2.680
 2563SOL     OW 1738   3.056   3.474   1.893
 2563SOL    HW1 1739   3.062   3.381   1.930
 2563SOL    HW2 1740   2.997   3.474   1.813
 2564SOL     OW 1741   2.684   2.864   3.234
 2564SOL    HW1 1742   2.724   2.863   3.142
 2564SOL    HW2 1743   2.694   2.956   3.274
 2565SOL     OW 1744   2.778   2.772   2.153
 2565SOL    HW1 1745   2.841   2.810   2.085
 2565SOL    HW2 1746   2.818   2.689   2.192
 2566SOL     OW 1747   3.366   3.469   1.906
 2566SOL    HW1 1748   3.274   3.506   1.913
 2566SOL    HW2 1749   3.404   3.489   1.816
 2567SOL     OW 1750   2.234   3.150   3.352
 2567SOL    HW1 1751   2.221   3.243   3.318
 2567SOL    HW2 1752   2.150   3.098   3.339
 2568SOL     OW 1753   3.476   3.154   3.151
 2568SOL    HW1 1754   3.536   3.157   3.231
 2568SOL    HW2 1755   3.401   3.218   3.164
 2569SOL     OW 1756   2.901   2.960   2.558
 2569SOL    HW1 1757   2.831   2.913   2.612
 2569SOL    HW2 1758   2.960   2.892   2.515
 2570SOL     OW 1759   2.876   2.098   2.833
 2570SOL    HW1 1760   2.868   2.062   2.740
 2570SOL    HW2 1761   2.874   2.022   2.898
 2571SOL     OW 1762   2.452   3.349   2.353
 2571SOL    HW1 1763   2.494   3.291   2.283
 2571SOL    HW2 1764   2.408   3.428   2.309
 2572SOL     OW 1765   3.571   2.247   3.243
 2572SOL    HW1 1766   3.644   2.316   3.247
 2572SOL    HW2 1767   3.599   2.172   3.184
 2573SOL     OW 1768   2.117   3.210   2.152
 2573SOL    HW1 1769   2.021   3.211   2.125
 2573SOL    HW2 1770   2.129   3.263   2.236
 2574SOL     OW 1771   1.967   2.875   3.588
 2574SOL    HW1 1772   1.890   2.842   3.642
 2574SOL    HW2 1773   2.052   2.845   3.630
 2575SOL     OW 1774   2.534   2.065   3.351
 2575SOL    HW1 1775   2.624   2.049   3.311
 2575SOL    HW2 1776   2.542   2.070   3.450
 2576SOL     OW 1777   1.937   2.207   1.895
 2576SOL    HW1 1778   1.845   2.179   1.866
 2576SOL    HW2 1779   1.968   2.284   1.839
 2577SOL     OW 1780   3.302   2.718   3.260
 2577SOL    HW1 1781   3.245   2.770   3.197
 2577SOL    HW2 1782   3.398   2.730   3.236
 2578SOL     OW 1783   1.934   2.028   2.180
 2578SOL    HW1 1784   1.917   2.111   2.126
 2578SOL    HW2 1785   2.024   1.991   2.158
 2579SOL     OW 1786   3.045   3.197   1.981
 2579SOL    HW1 1787   2.946   3.186   1.983
 2579SOL    HW2 1788   3.079   3.212   2.074
 2580SOL     OW 1789   2.475   2.704   3.293
 2580SOL    HW1 1790   2.531   2.785   3.276
 2580SOL    HW2 1791   2.534   2.624   3.296
 2581SOL     OW 1792   3.355   3.629   2.821
 2581SOL    HW1 1793   3.388   3.693   2.752
 2581SOL    HW2 1794   3.421   3.623   2.896
 2582SOL     OW 1795   2.578   2.427   3.570
 2582SOL    HW1 1796   2.597   2.492   3.644
 2582SOL    HW2 1797   2.638   2.347   3.579
 2583SOL     OW 1798   3.312   3.082   3.495
 2583SOL    HW1 1799   3.303   3.072   3.594
 2583SOL    HW2 1800   3.408   3.075   3.469
 2584SOL     OW 1801   2.252   3.603   3.422
 2584SOL    HW1 1802   2.161   3.644   3.420
 2584SOL    HW2 1803   2.245   3.509   3.454
 2585SOL     OW 1804   3.536   2.745   3.116
 2585SOL    HW1 1805   3.509   2.656   3.079
 2585SOL    HW2 1806   3.537   2.813   3.043
 2586SOL     OW 1807   3.087   2.187   2.311
 2586SOL    HW1 1808   3.152   2.113   2.300
 2586SOL    HW2 1809   3.107   2.237   2.395
 2587SOL     OW 1810   3.639   2.204   3.504
 2587SOL    HW1 1811   3.622   2.235   3.410
 2587SOL    HW2 1812   3.555   2.167   3.542
 2588SOL     OW 1813   3.592   2.796   3.379
 2588SOL    HW1 1814   3.630   2.887   3.394
 2588SOL    HW2 1815   3.584   2.779   3.280
 2589SOL     OW 1816   2.721   3.236   1.878
 2589SOL    HW1 1817   2.675   3.251   1.966
 2589SOL    HW2 1818   2.765   3.321   1.848
 2590SOL     OW 1819   2.523   3.652   2.815
 2590SOL    HW1 1820   2.477   3.740   2.802
 2590SOL    HW2 1821   2.622   3.664   2.808
 2591SOL     OW 1822   2.945   2.846   1.949
 2591SOL    HW1 1823   2.922   2.899   1.867
 2591SOL    HW2 1824   3.026   2.790   1.930
 2592SOL     OW 1825   3.723   3.431   2.713
 2592SOL    HW1 1826   3.652   3.419   2.643
 2592SOL    HW2 1827   3.724   3.352   2.773
 2593SOL     OW 1828   2.083   3.176   3.706
 2593SOL    HW1 1829   2.018   3.103   3.685
 2593SOL    HW2 1830   2.087   3.190   3.804
 2594SOL     OW 1831   1.941   3.102   2.515
 2594SOL    HW1 1832   1.940   3.055   2.603
 2594SOL    HW2 1833   2.023   3.074   2.464
 2595SOL     OW 1834   2.534   3.253   3.486
 2595SOL    HW1 1835   2.456   3.203   3.524
 2595SOL    HW2 1836   2.531   3.348   3.517
 2596SOL     OW 1837   3.686   2.054   3.089
 2596SOL    HW1 1838   3.682   1.964   3.133
 2596SOL    HW2 1839   3.689   2.043   2.990
 2597SOL     OW 1840   3.567   3.349   2.966
 2597SOL    HW1 1841   3.474   3.324   2.939
 2597SOL    HW2 1842   3.593   3.299   3.048
 2598SOL     OW 1843   2.179   2.409   3.142
 2598SOL    HW1 1844   2.217   2.350   3.214
 2598SOL    HW2 1845   2.219   2.383   3.054
 2599SOL     OW 1846   2.674   3.448   2.549
 2599SOL    HW1 1847   2.706   3.458   2.455
 2599SOL    HW2 1848   2.595   3.386   2.551
 2600SOL     OW 1849   3.286   2.076   2.974
 2600SOL    HW1 1850   3.338   2.011   3.029
 2600SOL    HW2 1851   3.237   2.139   3.035
 2601SOL     OW 1852   2.863   1.896   3.016
 2601SOL    HW1 1853   2.800   1.824   2.985
 2601SOL    HW2 1854   2.956   1.860   3.016
 2602SOL     OW 1855   2.632   3.192   2.163
 2602SOL    HW1 1856   2.586   3.105   2.180
 2602SOL    HW2 1857   2.723   3.189   2.204
 2603SOL     OW 1858   2.480   3.429   3.146
 2603SOL    HW1 1859   2.475   3.511   3.203
 2603SOL    HW2 1860   2.569   3.426   3.101
 2604SOL     OW 1861   3.214   1.914   2.030
 2604SOL    HW1 1862   3.249   1.873   1.946
 2604SOL    HW2 1863   3.124   1.876   2.050
 2605SOL     OW 1864   3.162   2.315   2.553
 2605SOL    HW1 1865   3.103   2.395   2.557
 2605SOL    HW2 1866   3.177   2.280   2.646
 2606SOL     OW 1867   3.455   2.083   2.744
 2606SOL    HW1 1868   3.371   2.082   2.798
 2606SOL    HW2 1869   3.457   2.166   2.688
 2607SOL     OW 1870   1.901   2.939   2.162
 2607SOL    HW1 1871   2.000   2.928   2.153
 2607SOL    HW2 1872   1.861   2.853   2.194
 2608SOL     OW 1873   2.737   3.508   2.199
 2608SOL    HW1 1874   2.660   3.473   2.145
 2608SOL    HW2 1875   2.705   3.579   2.261
 2609SOL     OW 1876   2.092   2.490   3.837
 2609SOL    HW1 1877   1.999   2.488   3.874
 2609SOL    HW2 1878   2.093   2.451   3.745
 2615SOL     OW 1879   3.617   2.469   3.955
 2615SOL    HW1 1880   3.605   2.456   3.856
 2615SOL    HW2 1881   3.587   2.388   4.004
 2624SOL     OW 1882   2.468   2.826   3.847
 2624SOL    HW1 1883   2.475   2.910   3.793
 2624SOL    HW2 1884   2.514   2.839   3.935
 2627SOL     OW 1885   1.889   3.458   3.841
 2627SOL    HW1 1886   1.870   3.362   3.862
 2627SOL    HW2 1887   1.856   3.516   3.916
 2633SOL     OW 1888   3.387   2.861   3.914
 2633SOL    HW1 1889   3.324   2.785   3.927
 2633SOL    HW2 1890   3.435   2.879   4.000
 2636SOL     OW 1891   2.460   2.591   3.994
 2636SOL    HW1 1892   2.484   2.660   3.926
 2636SOL    HW2 1893   2.382   2.624   4.048
 2641SOL     OW 1894   2.903   2.563   4.153
 2641SOL    HW1 1895   2.929   2.559   4.249
 2641SOL    HW2 1896   2.818   2.512   4.139
 2644SOL     OW 1897   2.727   2.210   3.919
 2644SOL    HW1 1898   2.786   2.273   3.870
 2644SOL    HW2 1899   2.746   2.116   3.890
 2650SOL     OW 1900   2.183   2.805   3.966
 2650SOL    HW1 1901   2.265   2.844   3.924
 2650SOL    HW2 1902   2.156   2.723   3.917
 2653SOL     OW 1903   3.494   3.239   3.805
 2653SOL    HW1 1904   3.462   3.333   3.795
 2653SOL    HW2 1905   3.418   3.176   3.793
 2658SOL     OW 1906   2.244   2.562   4.204
 2658SOL    HW1 1907   2.289   2.472   4.201
 2658SOL    HW2 1908   2.150   2.551   4.237
 2659SOL     OW 1909   2.476   1.984   3.841
 2659SOL    HW1 1910   2.574   1.962   3.848
 2659SOL    HW2 1911   2.445   1.967   3.748
 2663SOL     OW 1912   2.401   1.926   4.236
 2663SOL    HW1 1913   2.320   1.927   4.294
 2663SOL    HW2 1914   2.404   2.009   4.181
 2664SOL     OW 1915   3.296   3.050   3.765
 2664SOL    HW1 1916   3.328   2.974   3.822
 2664SOL    HW2 1917   3.204   3.077   3.795
 2665SOL     OW 1918   2.159   1.897   3.895
 2665SOL    HW1 1919   2.208   1.981   3.874
 2665SOL    HW2 1920   2.221   1.832   3.940
 2666SOL     OW 1921   2.797   2.098   4.204
 2666SOL    HW1 1922   2.749   2.139   4.126
 2666SOL    HW2 1923   2.896   2.096   4.185
 2670SOL     OW 1924   2.894   2.411   3.740
 2670SOL    HW1 1925   2.853   2.493   3.701
 2670SOL    HW2 1926   2.958   2.437   3.813
 2677SOL     OW 1927   2.350   3.247   3.898
 2677SOL    HW1 1928   2.263   3.232   3.945
 2677SOL    HW2 1929   2.333   3.273   3.803
 2679SOL     OW 1930   3.252   2.437   3.802
 2679SOL    HW1 1931   3.198   2.416   3.883
 2679SOL    HW2 1932   3.343   2.396   3.811
 2680SOL     OW 1933   2.389   2.118   4.052
 2680SOL    HW1 1934   2.416   2.059   3.977
 2680SOL    HW2 1935   2.389   2.213   4.021
 2684SOL     OW 1936   2.567   2.912   4.092
 2684SOL    HW1 1937   2.553   2.919   4.191
 2684SOL    HW2 1938   2.651   2.861   4.074
 2688SOL     OW 1939   2.229   2.962   4.225
 2688SOL    HW1 1940   2.222   3.045   4.169
 2688SOL    HW2 1941   2.233   2.882   4.165
 2690SOL     OW 1942   3.114   3.210   4.112
 2690SOL    HW1 1943   3.164   3.287   4.152
 2690SOL    HW2 1944   3.019   3.212   4.144
 2696SOL     OW 1945   3.071   2.387   3.999
 2696SOL    HW1 1946   3.084   2.303   4.053
 2696SOL    HW2 1947   3.042   2.461   4.059
 2703SOL     OW 1948   3.402   2.136   3.849
 2703SOL    HW1 1949   3.341   2.061   3.872
 2703SOL    HW2 1950   3.424   2.188   3.932
 2704SOL     OW 1951   3.165   2.700   3.766
 2704SOL    HW1 1952   3.199   2.607   3.781
 2704SOL    HW2 1953   3.183   2.727   3.671
 2709SOL     OW 1954   1.870   3.188   3.924
 2709SOL    HW1 1955   1.777   3.209   3.893
 2709SOL    HW2 1956   1.880   3.089   3.937
 2714SOL     OW 1957   2.677   2.434   4.049
 2714SOL    HW1 1958   2.684   2.345   4.003
 2714SOL    HW2 1959   2.583   2.468   4.041
 2718SOL     OW 1960   2.335   2.362   3.915
 2718SOL    HW1 1961   2.396   2.442   3.919
 2718SOL    HW2 1962   2.240   2.393   3.922
 2721SOL     OW 1963   3.164   2.717   4.033
 2721SOL    HW1 1964   3.078   2.686   4.075
 2721SOL    HW2 1965   3.160   2.703   3.934
 2728SOL     OW 1966   2.534   3.478   3.878
 2728SOL    HW1 1967   2.543   3.488   3.779
 2728SOL    HW2 1968   2.494   3.389   3.899
 2731SOL     OW 1969   3.056   3.474   3.755
 2731SOL    HW1 1970   3.062   3.381   3.792
 2731SOL    HW2 1971   2.997   3.474   3.675
 2733SOL     OW 1972   2.778   2.772   4.015
 2733SOL    HW1 1973   2.841   2.810   3.947
 2733SOL    HW2 1974   2.818   2.689   4.054
 2734SOL     OW 1975   3.366   3.469   3.768
 2734SOL    HW1 1976   3.274   3.506   3.775
 2734SOL    HW2 1977   3.404   3.489   3.678
 2740SOL     OW 1978   2.117   3.210   4.014
 2740SOL    HW1 1979   2.021   3.211   3.987
 2740SOL    HW2 1980   2.129   3.263   4.098
 2742SOL     OW 1981   1.937   2.207   3.757
 2742SOL    HW1 1982   1.845   2.179   3.728
 2742SOL    HW2 1983   1.968   2.284   3.701
 2743SOL     OW 1984   1.934   2.028   4.042
 2743SOL    HW1 1985   1.917   2.111   3.988
 2743SOL    HW2 1986   2.024   1.991   4.020
 2744SOL     OW 1987   3.045   3.197   3.843
 2744SOL    HW1 1988   2.946   3.186   3.845
 2744SOL    HW2 1989   3.079   3.212   3.936
 2749SOL     OW 1990   3.087   2.187   4.173
 2749SOL    HW1 1991   3.152   2.113   4.162
 2749SOL    HW2 1992   3.107   2.237   4.257
 2752SOL     OW 1993   2.721   3.236   3.740
 2752SOL    HW1 1994   2.675   3.251   3.828
 2752SOL    HW2 1995   2.765   3.321   3.710
 2755SOL     OW 1996   2.945   2.846   3.811
 2755SOL    HW1 1997   2.922   2.899   3.729
 2755SOL    HW2 1998   3.026   2.790   3.792
 2759SOL     OW 1999   2.290   2.286   4.244
 2759SOL    HW1 2000   2.320   2.214   4.182
 2759SOL    HW2 2001   2.251   2.246   4.327
 2765SOL     OW 2002   2.632   3.192   4.025
 2765SOL    HW1 2003   2.586   3.105   4.042
 2765SOL    HW2 2004   2.723   3.189   4.066
 2767SOL     OW 2005   3.214   1.914   3.892
 2767SOL    HW1 2006   3.249   1.873   3.808
 2767SOL    HW2 2007   3.124   1.876   3.912
 2770SOL     OW 2008   1.901   2.939   4.024
 2770SOL    HW1 2009   2.000   2.928   4.015
 2770SOL    HW2 2010   1.861   2.853   4.056
 2771SOL     OW 2011   2.737   3.508   4.061
 2771SOL    HW1 2012   2.660   3.473   4.007
 2771SOL    HW2 2013   2.705   3.579   4.123
 2797SOL     OW 2014   2.179   3.975   1.801
 2797SOL    HW1 2015   2.250   4.046   1.807
 2797SOL    HW2 2016   2.091   4.014   1.829
 2818SOL     OW 2017   2.643   3.988   1.749
 2818SOL    HW1 2018   2.710   3.927   1.792
 2818SOL    HW2 2019   2.570   4.007   1.814
 2842SOL     OW 2020   2.777   3.813   1.402
 2842SOL    HW1 2021   2.802   3.793   1.307
 2842SOL    HW2 2022   2.849   3.869   1.444
 2852SOL     OW 2023   2.875   3.829   1.770
 2852SOL    HW1 2024   2.881   3.914   1.718
 2852SOL    HW2 2025   2.907   3.753   1.713
 2853SOL     OW 2026   2.366   3.774   1.740
 2853SOL    HW1 2027   2.324   3.717   1.670
 2853SOL    HW2 2028   2.300   3.843   1.772
 2898SOL     OW 2029   2.534   3.927   1.489
 2898SOL    HW1 2030   2.624   3.911   1.449
 2898SOL    HW2 2031   2.542   3.932   1.588
 2927SOL     OW 2032   2.087   3.999   2.858
 2927SOL    HW1 2033   2.122   3.982   2.950
 2927SOL    HW2 2034   1.999   3.954   2.846
 2928SOL     OW 2035   1.881   4.092   2.509
 2928SOL    HW1 2036   1.799   4.135   2.548
 2928SOL    HW2 2037   1.853   4.019   2.446
 2938SOL     OW 2038   2.300   4.116   3.361
 2938SOL    HW1 2039   2.382   4.060   3.370
 2938SOL    HW2 2040   2.219   4.058   3.365
 2942SOL     OW 2041   3.456   3.838   3.342
 2942SOL    HW1 2042   3.438   3.905   3.270
 2942SOL    HW2 2043   3.453   3.884   3.431
 2948SOL     OW 2044   2.671   3.728   2.364
 2948SOL    HW1 2045   2.711   3.819   2.355
 2948SOL    HW2 2046   2.571   3.736   2.370
 2954SOL     OW 2047   3.143   4.069   2.806
 2954SOL    HW1 2048   3.057   4.019   2.793
 2954SOL    HW2 2049   3.205   4.015   2.862
 2958SOL     OW 2050   2.853   4.134   3.104
 2958SOL    HW1 2051   2.776   4.168   3.158
 2958SOL    HW2 2052   2.819   4.083   3.025
 2961SOL     OW 2053   2.727   4.072   2.057
 2961SOL    HW1 2054   2.786   4.135   2.008
 2961SOL    HW2 2055   2.746   3.978   2.028
 2964SOL     OW 2056   2.412   3.920   2.747
 2964SOL    HW1 2057   2.407   3.915   2.847
 2964SOL    HW2 2058   2.414   4.016   2.718
 2968SOL     OW 2059   2.064   4.009   3.360
 2968SOL    HW1 2060   1.984   4.069   3.347
 2968SOL    HW2 2061   2.054   3.960   3.446
 2970SOL     OW 2062   3.262   3.831   2.288
 2970SOL    HW1 2063   3.238   3.794   2.198
 2970SOL    HW2 2064   3.361   3.847   2.292
 2973SOL     OW 2065   2.476   3.846   1.979
 2973SOL    HW1 2066   2.574   3.824   1.986
 2973SOL    HW2 2067   2.445   3.829   1.886
 2974SOL     OW 2068   2.643   3.988   3.611
 2974SOL    HW1 2069   2.710   3.927   3.654
 2974SOL    HW2 2070   2.570   4.007   3.676
 2976SOL     OW 2071   2.784   4.227   2.761
 2976SOL    HW1 2072   2.759   4.218   2.665
 2976SOL    HW2 2073   2.832   4.145   2.792
 2977SOL     OW 2074   2.401   3.788   2.374
 2977SOL    HW1 2075   2.320   3.789   2.432
 2977SOL    HW2 2076   2.404   3.871   2.319
 2979SOL     OW 2077   2.159   3.759   2.033
 2979SOL    HW1 2078   2.208   3.843   2.012
 2979SOL    HW2 2079   2.221   3.694   2.078
 2980SOL     OW 2080   2.797   3.960   2.342
 2980SOL    HW1 2081   2.749   4.001   2.264
 2980SOL    HW2 2082   2.896   3.958   2.323
 2986SOL     OW 2083   2.423   3.946   3.009
 2986SOL    HW1 2084   2.461   3.862   3.046
 2986SOL    HW2 2085   2.335   3.965   3.053
 2987SOL     OW 2086   2.728   4.178   2.504
 2987SOL    HW1 2087   2.696   4.250   2.442
 2987SOL    HW2 2088   2.752   4.097   2.451
 2988SOL     OW 2089   2.879   3.763   2.615
 2988SOL    HW1 2090   2.807   3.768   2.546
 2988SOL    HW2 2091   2.855   3.694   2.684
 2994SOL     OW 2092   2.389   3.980   2.190
 2994SOL    HW1 2093   2.416   3.921   2.115
 2994SOL    HW2 2094   2.389   4.075   2.159
 2999SOL     OW 2095   2.777   3.813   3.264
 2999SOL    HW1 2096   2.802   3.793   3.169
 2999SOL    HW2 2097   2.849   3.869   3.306
 3003SOL     OW 2098   3.136   4.110   3.124
 3003SOL    HW1 2099   3.157   4.184   3.188
 3003SOL    HW2 2100   3.047   4.127   3.081
 3005SOL     OW 2101   2.428   4.261   2.727
 3005SOL    HW1 2102   2.440   4.327   2.653
 3005SOL    HW2 2103   2.474   4.295   2.810
 3009SOL     OW 2104   2.875   3.829   3.632
 3009SOL    HW1 2105   2.881   3.914   3.580
 3009SOL    HW2 2106   2.907   3.753   3.575
 3010SOL     OW 2107   2.366   3.774   3.602
 3010SOL    HW1 2108   2.324   3.717   3.532
 3010SOL    HW2 2109   2.300   3.843   3.634
 3014SOL     OW 2110   2.169   3.937   3.093
 3014SOL    HW1 2111   2.146   3.974   3.183
 3014SOL    HW2 2112   2.139   3.842   3.087
 3018SOL     OW 2113   2.169   3.787   2.480
 3018SOL    HW1 2114   2.158   3.881   2.513
 3018SOL    HW2 2115   2.164   3.724   2.557
 3023SOL     OW 2116   3.402   3.998   1.987
 3023SOL    HW1 2117   3.341   3.923   2.010
 3023SOL    HW2 2118   3.424   4.050   2.070
 3026SOL     OW 2119   2.201   4.233   2.868
 3026SOL    HW1 2120   2.149   4.150   2.851
 3026SOL    HW2 2121   2.278   4.238   2.804
 3028SOL     OW 2122   3.022   3.931   3.339
 3028SOL    HW1 2123   3.022   3.995   3.416
 3028SOL    HW2 2124   3.050   3.979   3.256
 3034SOL     OW 2125   2.677   4.296   2.187
 3034SOL    HW1 2126   2.684   4.207   2.141
 3034SOL    HW2 2127   2.583   4.330   2.179
 3036SOL     OW 2128   2.533   4.188   3.131
 3036SOL    HW1 2129   2.499   4.099   3.101
 3036SOL    HW2 2130   2.559   4.242   3.051
 3037SOL     OW 2131   2.335   4.224   2.053
 3037SOL    HW1 2132   2.396   4.304   2.057
 3037SOL    HW2 2133   2.240   4.255   2.060
 3042SOL     OW 2134   3.588   3.859   2.385
 3042SOL    HW1 2135   3.661   3.842   2.318
 3042SOL    HW2 2136   3.557   3.772   2.423
 3045SOL     OW 2137   3.703   3.899   2.825
 3045SOL    HW1 2138   3.742   3.814   2.789
 3045SOL    HW2 2139   3.605   3.901   2.806
 3046SOL     OW 2140   2.125   4.050   2.582
 3046SOL    HW1 2141   2.046   4.101   2.548
 3046SOL    HW2 2142   2.116   4.035   2.680
 3053SOL     OW 2143   2.876   3.960   2.833
 3053SOL    HW1 2144   2.868   3.924   2.740
 3053SOL    HW2 2145   2.874   3.884   2.898
 3056SOL     OW 2146   2.534   3.927   3.351
 3056SOL    HW1 2147   2.624   3.911   3.311
 3056SOL    HW2 2148   2.542   3.932   3.450
 3057SOL     OW 2149   1.937   4.069   1.895
 3057SOL    HW1 2150   1.845   4.041   1.866
 3057SOL    HW2 2151   1.968   4.146   1.839
 3059SOL     OW 2152   1.934   3.890   2.180
 3059SOL    HW1 2153   1.917   3.973   2.126
 3059SOL    HW2 2154   2.024   3.853   2.158
 3064SOL     OW 2155   3.087   4.049   2.311
 3064SOL    HW1 2156   3.152   3.975   2.300
 3064SOL    HW2 2157   3.107   4.099   2.395
 3074SOL     OW 2158   2.290   4.148   2.382
 3074SOL    HW1 2159   2.320   4.076   2.320
 3074SOL    HW2 2160   2.251   4.108   2.465
 3077SOL     OW 2161   3.286   3.938   2.974
 3077SOL    HW1 2162   3.338   3.873   3.029
 3077SOL    HW2 2163   3.237   4.001   3.035
 3078SOL     OW 2164   2.863   3.758   3.016
 3078SOL    HW1 2165   2.800   3.686   2.985
 3078SOL    HW2 2166   2.956   3.722   3.016
 3080SOL     OW 2167   3.214   3.776   2.030
 3080SOL    HW1 2168   3.249   3.735   1.946
 3080SOL    HW2 2169   3.124   3.738   2.050
 3081SOL     OW 2170   3.162   4.177   2.553
 3081SOL    HW1 2171   3.103   4.257   2.557
 3081SOL    HW2 2172   3.177   4.142   2.646
 3082SOL     OW 2173   3.455   3.945   2.744
 3082SOL    HW1 2174   3.371   3.944   2.798
 3082SOL    HW2 2175   3.457   4.028   2.688
 3242SOL     OW 2176   3.854   1.821   1.571
 3242SOL    HW1 2177   3.844   1.806   1.670
 3242SOL    HW2 2178   3.768   1.857   1.535
 3328SOL     OW 2179   3.854   1.794   1.851
 3328SOL    HW1 2180   3.813   1.720   1.904
 3328SOL    HW2 2181   3.918   1.845   1.909
 3379SOL     OW 2182   3.955   1.713   2.345
 3379SOL    HW1 2183   3.989   1.790   2.399
 3379SOL    HW2 2184   3.999   1.713   2.255
 3381SOL     OW 2185   3.954   1.434   2.400
 3381SOL    HW1 2186   3.928   1.530   2.400
 3381SOL    HW2 2187   3.883   1.380   2.445
 3386SOL     OW 2188   3.751   1.596   1.979
 3386SOL    HW1 2189   3.732   1.500   2.000
 3386SOL    HW2 2190   3.718   1.654   2.054
 3402SOL     OW 2191   3.854   1.821   3.433
 3402SOL    HW1 2192   3.844   1.806   3.532
 3402SOL    HW2 2193   3.768   1.857   3.397
 3407SOL     OW 2194   4.075   1.801   2.715
 3407SOL    HW1 2195   4.125   1.715   2.721
 3407SOL    HW2 2196   4.140   1.878   2.712
 3414SOL     OW 2197   3.973   1.785   3.103
 3414SOL    HW1 2198   4.030   1.720   3.153
 3414SOL    HW2 2199   3.957   1.752   3.010
 3444SOL     OW 2200   3.788   1.564   3.193
 3444SOL    HW1 2201   3.742   1.646   3.159
 3444SOL    HW2 2202   3.886   1.583   3.202
 3470SOL     OW 2203   3.732   1.326   2.062
 3470SOL    HW1 2204   3.639   1.347   2.031
 3470SOL    HW2 2205   3.742   1.227   2.075
 3471SOL     OW 2206   3.812   1.801   2.789
 3471SOL    HW1 2207   3.770   1.715   2.762
 3471SOL    HW2 2208   3.906   1.804   2.755
 3672SOL     OW 2209   3.837   2.599   1.597
 3672SOL    HW1 2210   3.925   2.586   1.642
 3672SOL    HW2 2211   3.824   2.696   1.575
 3678SOL     OW 2212   4.041   2.113   1.801
 3678SOL    HW1 2213   4.112   2.184   1.807
 3678SOL    HW2 2214   3.953   2.152   1.829
 3697SOL     OW 2215   3.926   2.147   1.498
 3697SOL    HW1 2216   3.846   2.207   1.485
 3697SOL    HW2 2217   3.916   2.098   1.584
 3714SOL     OW 2218   3.802   2.418   1.386
 3714SOL    HW1 2219   3.894   2.417   1.345
 3714SOL    HW2 2220   3.796   2.492   1.453
 3746SOL     OW 2221   4.074   2.760   1.804
 3746SOL    HW1 2222   4.150   2.804   1.852
 3746SOL    HW2 2223   4.109   2.713   1.722
 3757SOL     OW 2224   3.913   2.382   1.722
 3757SOL    HW1 2225   3.972   2.342   1.652
 3757SOL    HW2 2226   3.855   2.453   1.681
 3763SOL     OW 2227   3.883   2.999   1.466
 3763SOL    HW1 2228   3.905   2.938   1.542
 3763SOL    HW2 2229   3.893   2.950   1.380
 3784SOL     OW 2230   3.829   2.875   1.726
 3784SOL    HW1 2231   3.752   2.842   1.780
 3784SOL    HW2 2232   3.914   2.845   1.768
 3798SOL     OW 2233   3.945   3.176   1.844
 3798SOL    HW1 2234   3.880   3.103   1.823
 3798SOL    HW2 2235   3.949   3.190   1.942
 3810SOL     OW 2236   3.954   2.490   1.975
 3810SOL    HW1 2237   3.861   2.488   2.012
 3810SOL    HW2 2238   3.955   2.451   1.883
 3811SOL     OW 2239   3.949   2.137   2.858
 3811SOL    HW1 2240   3.984   2.120   2.950
 3811SOL    HW2 2241   3.861   2.092   2.846
 3812SOL     OW 2242   3.743   2.230   2.509
 3812SOL    HW1 2243   3.661   2.273   2.548
 3812SOL    HW2 2244   3.715   2.157   2.446
 3820SOL     OW 2245   4.059   3.297   2.923
 3820SOL    HW1 2246   3.981   3.266   2.870
 3820SOL    HW2 2247   4.117   3.355   2.866
 3822SOL     OW 2248   3.955   3.575   2.345
 3822SOL    HW1 2249   3.989   3.652   2.399
 3822SOL    HW2 2250   3.999   3.575   2.255
 3824SOL     OW 2251   3.954   3.296   2.400
 3824SOL    HW1 2252   3.928   3.392   2.400
 3824SOL    HW2 2253   3.883   3.242   2.445
 3825SOL     OW 2254   3.964   2.953   2.748
 3825SOL    HW1 2255   3.978   2.869   2.800
 3825SOL    HW2 2256   3.909   3.017   2.803
 3828SOL     OW 2257   3.846   2.505   2.425
 3828SOL    HW1 2258   3.801   2.417   2.442
 3828SOL    HW2 2259   3.845   2.559   2.509
 3829SOL     OW 2260   3.751   3.458   1.979
 3829SOL    HW1 2261   3.732   3.362   2.000
 3829SOL    HW2 2262   3.718   3.516   2.054
 3830SOL     OW 2263   3.837   2.599   3.459
 3830SOL    HW1 2264   3.925   2.586   3.504
 3830SOL    HW2 2265   3.824   2.696   3.437
 3834SOL     OW 2266   3.921   2.838   3.126
 3834SOL    HW1 2267   4.010   2.793   3.112
 3834SOL    HW2 2268   3.848   2.773   3.107
 3844SOL     OW 2269   3.800   2.673   2.651
 3844SOL    HW1 2270   3.899   2.661   2.660
 3844SOL    HW2 2271   3.776   2.768   2.672
 3848SOL     OW 2272   4.274   2.058   2.747
 3848SOL    HW1 2273   4.269   2.053   2.847
 3848SOL    HW2 2274   4.276   2.154   2.718
 3852SOL     OW 2275   4.045   2.805   2.104
 3852SOL    HW1 2276   4.127   2.844   2.062
 3852SOL    HW2 2277   4.018   2.723   2.055
 3855SOL     OW 2278   3.926   2.147   3.360
 3855SOL    HW1 2279   3.846   2.207   3.347
 3855SOL    HW2 2280   3.916   2.098   3.446
 3859SOL     OW 2281   4.106   2.562   2.342
 3859SOL    HW1 2282   4.151   2.472   2.339
 3859SOL    HW2 2283   4.012   2.551   2.375
 3867SOL     OW 2284   4.021   1.897   2.033
 3867SOL    HW1 2285   4.070   1.981   2.012
 3867SOL    HW2 2286   4.083   1.832   2.078
 3871SOL     OW 2287   4.183   3.014   2.603
 3871SOL    HW1 2288   4.112   2.987   2.668
 3871SOL    HW2 2289   4.157   2.986   2.510
 3874SOL     OW 2290   3.802   2.418   3.248
 3874SOL    HW1 2291   3.894   2.417   3.207
 3874SOL    HW2 2292   3.796   2.492   3.315
 3879SOL     OW 2293   4.251   2.118   2.190
 3879SOL    HW1 2294   4.278   2.059   2.115
 3879SOL    HW2 2295   4.251   2.213   2.159
 3885SOL     OW 2296   4.134   2.675   3.113
 3885SOL    HW1 2297   4.220   2.687   3.163
 3885SOL    HW2 2298   4.092   2.588   3.140
 3887SOL     OW 2299   3.788   3.426   3.193
 3887SOL    HW1 2300   3.742   3.508   3.159
 3887SOL    HW2 2301   3.886   3.445   3.202
 3888SOL     OW 2302   4.091   2.962   2.363
 3888SOL    HW1 2303   4.084   3.045   2.307
 3888SOL    HW2 2304   4.095   2.882   2.303
 3889SOL     OW 2305   4.290   2.399   2.727
 3889SOL    HW1 2306   4.302   2.465   2.653
 3889SOL    HW2 2307   4.336   2.433   2.810
 3893SOL     OW 2308   4.126   2.613   3.460
 3893SOL    HW1 2309   4.194   2.668   3.413
 3893SOL    HW2 2310   4.166   2.525   3.487
 3896SOL     OW 2311   4.297   2.732   2.891
 3896SOL    HW1 2312   4.341   2.821   2.882
 3896SOL    HW2 2313   4.234   2.732   2.968
 3899SOL     OW 2314   4.031   2.075   3.093
 3899SOL    HW1 2315   4.008   2.112   3.183
 3899SOL    HW2 2316   4.001   1.980   3.087
 3900SOL     OW 2317   3.761   3.172   3.144
 3900SOL    HW1 2318   3.814   3.123   3.212
 3900SOL    HW2 2319   3.783   3.270   3.149
 3902SOL     OW 2320   4.031   1.925   2.480
 3902SOL    HW1 2321   4.020   2.019   2.513
 3902SOL    HW2 2322   4.026   1.862   2.557
 3909SOL     OW 2323   4.043   2.672   2.811
 3909SOL    HW1 2324   4.136   2.708   2.816
 3909SOL    HW2 2325   4.037   2.587   2.863
 3910SOL     OW 2326   4.063   2.371   2.868
 3910SOL    HW1 2327   4.011   2.288   2.851
 3910SOL    HW2 2328   4.140   2.376   2.804
 3913SOL     OW 2329   3.732   3.188   2.062
 3913SOL    HW1 2330   3.639   3.209   2.031
 3913SOL    HW2 2331   3.742   3.089   2.075
 3914SOL     OW 2332   3.812   3.663   2.789
 3914SOL    HW1 2333   3.770   3.577   2.762
 3914SOL    HW2 2334   3.906   3.666   2.755
 3917SOL     OW 2335   3.764   2.406   2.976
 3917SOL    HW1 2336   3.849   2.373   2.935
 3917SOL    HW2 2337   3.777   2.421   3.074
 3918SOL     OW 2338   3.913   2.382   3.584
 3918SOL    HW1 2339   3.972   2.342   3.514
 3918SOL    HW2 2340   3.855   2.453   3.543
 3923SOL     OW 2341   4.197   2.362   2.053
 3923SOL    HW1 2342   4.258   2.442   2.057
 3923SOL    HW2 2343   4.102   2.393   2.060
 3924SOL     OW 2344   3.883   2.999   3.328
 3924SOL    HW1 2345   3.905   2.938   3.404
 3924SOL    HW2 2346   3.893   2.950   3.242
 3928SOL     OW 2347   3.807   3.120   2.884
 3928SOL    HW1 2348   3.802   3.119   2.984
 3928SOL    HW2 2349   3.724   3.079   2.846
 3935SOL     OW 2350   3.987   2.188   2.582
 3935SOL    HW1 2351   3.908   2.239   2.548
 3935SOL    HW2 2352   3.978   2.173   2.680
 3943SOL     OW 2353   3.979   3.210   2.152
 3943SOL    HW1 2354   3.883   3.211   2.125
 3943SOL    HW2 2355   3.991   3.263   2.236
 3944SOL     OW 2356   3.829   2.875   3.588
 3944SOL    HW1 2357   3.752   2.842   3.642
 3944SOL    HW2 2358   3.914   2.845   3.630
 3946SOL     OW 2359   3.799   2.207   1.895
 3946SOL    HW1 2360   3.707   2.179   1.866
 3946SOL    HW2 2361   3.830   2.284   1.839
 3947SOL     OW 2362   3.796   2.028   2.180
 3947SOL    HW1 2363   3.779   2.111   2.126
 3947SOL    HW2 2364   3.886   1.991   2.158
 3953SOL     OW 2365   4.318   2.607   2.514
 3953SOL    HW1 2366   4.368   2.692   2.495
 3953SOL    HW2 2367   4.230   2.609   2.466
 3959SOL     OW 2368   3.803   3.102   2.515
 3959SOL    HW1 2369   3.802   3.055   2.603
 3959SOL    HW2 2370   3.885   3.074   2.464
 3961SOL     OW 2371   4.152   2.286   2.382
 3961SOL    HW1 2372   4.182   2.214   2.320
 3961SOL    HW2 2373   4.113   2.246   2.465
 3962SOL     OW 2374   4.041   2.409   3.142
 3962SOL    HW1 2375   4.079   2.350   3.214
 3962SOL    HW2 2376   4.081   2.383   3.054
 3969SOL     OW 2377   3.763   2.939   2.162
 3969SOL    HW1 2378   3.862   2.928   2.153
 3969SOL    HW2 2379   3.723   2.853   2.194
 4079SOL     OW 2380   3.799   2.207   3.757
 4079SOL    HW1 2381   3.707   2.179   3.728
 4079SOL    HW2 2382   3.830   2.284   3.701
   5.13876   5.13876   5.13876
