; mobley_1723043_GMX.itp created by acpype (v: 2023.10.27) on Wed May 20 23:45:00 2026

[ atomtypes ]
;name   bond_type     mass     charge   ptype   sigma         epsilon       Amb
 cy       cy          0.00000  0.00000   A     3.39771e-01   4.51035e-01 ; 1.91  0.1078
 f        f           0.00000  0.00000   A     3.03422e-01   3.48109e-01 ; 1.70  0.0832

[ moleculetype ]
;name            nrexcl
 mobley_1723043   3

[ atoms ]
;   nr  type  resi  res  atom  cgnr     charge      mass       ; qtot   bond_type
     1   cy     1   MOL    C1    1     0.346600     12.01000 ; qtot 0.347
     2   cy     1   MOL    C2    2     0.346600     12.01000 ; qtot 0.693
     3   cy     1   MOL    C3    3     0.346600     12.01000 ; qtot 1.040
     4   cy     1   MOL    C4    4     0.346600     12.01000 ; qtot 1.386
     5    f     1   MOL    F1    5    -0.173300     19.00000 ; qtot 1.213
     6    f     1   MOL    F2    6    -0.173300     19.00000 ; qtot 1.040
     7    f     1   MOL    F3    7    -0.173300     19.00000 ; qtot 0.867
     8    f     1   MOL    F4    8    -0.173300     19.00000 ; qtot 0.693
     9    f     1   MOL    F5    9    -0.173300     19.00000 ; qtot 0.520
    10    f     1   MOL    F6   10    -0.173300     19.00000 ; qtot 0.347
    11    f     1   MOL    F7   11    -0.173300     19.00000 ; qtot 0.173
    12    f     1   MOL    F8   12    -0.173300     19.00000 ; qtot 0.000

[ bonds ]
;   ai     aj funct   r             k
     1      2   1    1.5578e-01    1.7898e+05 ;     C1 - C2    
     1      3   1    1.5578e-01    1.7898e+05 ;     C1 - C3    
     1      5   1    1.3574e-01    2.7379e+05 ;     C1 - F1    
     1      6   1    1.3574e-01    2.7379e+05 ;     C1 - F2    
     2      4   1    1.5578e-01    1.7898e+05 ;     C2 - C4    
     2      7   1    1.3574e-01    2.7379e+05 ;     C2 - F3    
     2      8   1    1.3574e-01    2.7379e+05 ;     C2 - F4    
     3      4   1    1.5578e-01    1.7898e+05 ;     C3 - C4    
     3      9   1    1.3574e-01    2.7379e+05 ;     C3 - F5    
     3     10   1    1.3574e-01    2.7379e+05 ;     C3 - F6    
     4     11   1    1.3574e-01    2.7379e+05 ;     C4 - F7    
     4     12   1    1.3574e-01    2.7379e+05 ;     C4 - F8    

[ pairs ]
;   ai     aj    funct
     1     11      1 ;     C1 - F7    
     1     12      1 ;     C1 - F8    
     2      9      1 ;     C2 - F5    
     2     10      1 ;     C2 - F6    
     3      7      1 ;     C3 - F3    
     3      8      1 ;     C3 - F4    
     5      4      1 ;     F1 - C4    
     5      7      1 ;     F1 - F3    
     5      8      1 ;     F1 - F4    
     5      9      1 ;     F1 - F5    
     5     10      1 ;     F1 - F6    
     6      4      1 ;     F2 - C4    
     6      7      1 ;     F2 - F3    
     6      8      1 ;     F2 - F4    
     6      9      1 ;     F2 - F5    
     6     10      1 ;     F2 - F6    
     7     11      1 ;     F3 - F7    
     7     12      1 ;     F3 - F8    
     8     11      1 ;     F4 - F7    
     8     12      1 ;     F4 - F8    
     9     11      1 ;     F5 - F7    
     9     12      1 ;     F5 - F8    
    10     11      1 ;     F6 - F7    
    10     12      1 ;     F6 - F8    

[ angles ]
;   ai     aj     ak    funct   theta         cth
     1      2      4      1    8.8440e+01    5.5731e+02 ;     C1 - C2     - C4    
     1      2      7      1    1.1566e+02    6.3890e+02 ;     C1 - C2     - F3    
     1      2      8      1    1.1566e+02    6.3890e+02 ;     C1 - C2     - F4    
     1      3      4      1    8.8440e+01    5.5731e+02 ;     C1 - C3     - C4    
     1      3      9      1    1.1566e+02    6.3890e+02 ;     C1 - C3     - F5    
     1      3     10      1    1.1566e+02    6.3890e+02 ;     C1 - C3     - F6    
     2      1      3      1    8.8440e+01    5.5731e+02 ;     C2 - C1     - C3    
     2      1      5      1    1.1566e+02    6.3890e+02 ;     C2 - C1     - F1    
     2      1      6      1    1.1566e+02    6.3890e+02 ;     C2 - C1     - F2    
     2      4      3      1    8.8440e+01    5.5731e+02 ;     C2 - C4     - C3    
     2      4     11      1    1.1566e+02    6.3890e+02 ;     C2 - C4     - F7    
     2      4     12      1    1.1566e+02    6.3890e+02 ;     C2 - C4     - F8    
     3      1      5      1    1.1566e+02    6.3890e+02 ;     C3 - C1     - F1    
     3      1      6      1    1.1566e+02    6.3890e+02 ;     C3 - C1     - F2    
     3      4     11      1    1.1566e+02    6.3890e+02 ;     C3 - C4     - F7    
     3      4     12      1    1.1566e+02    6.3890e+02 ;     C3 - C4     - F8    
     4      2      7      1    1.1566e+02    6.3890e+02 ;     C4 - C2     - F3    
     4      2      8      1    1.1566e+02    6.3890e+02 ;     C4 - C2     - F4    
     4      3      9      1    1.1566e+02    6.3890e+02 ;     C4 - C3     - F5    
     4      3     10      1    1.1566e+02    6.3890e+02 ;     C4 - C3     - F6    
     5      1      6      1    1.0856e+02    8.8542e+02 ;     F1 - C1     - F2    
     7      2      8      1    1.0856e+02    8.8542e+02 ;     F3 - C2     - F4    
     9      3     10      1    1.0856e+02    8.8542e+02 ;     F5 - C3     - F6    
    11      4     12      1    1.0856e+02    8.8542e+02 ;     F7 - C4     - F8    

[ dihedrals ] ; propers
; for gromacs 4.5 or higher, using funct 9
;    i      j      k      l   func   phase     kd      pn
     1      2      4      3      9     0.00   0.65084   3 ;     C1-    C2-    C4-    C3
     1      2      4     11      9     0.00   0.65084   3 ;     C1-    C2-    C4-    F7
     1      2      4     12      9     0.00   0.65084   3 ;     C1-    C2-    C4-    F8
     1      3      4      2      9     0.00   0.65084   3 ;     C1-    C3-    C4-    C2
     1      3      4     11      9     0.00   0.65084   3 ;     C1-    C3-    C4-    F7
     1      3      4     12      9     0.00   0.65084   3 ;     C1-    C3-    C4-    F8
     2      1      3      4      9     0.00   0.65084   3 ;     C2-    C1-    C3-    C4
     2      1      3      9      9     0.00   0.65084   3 ;     C2-    C1-    C3-    F5
     2      1      3     10      9     0.00   0.65084   3 ;     C2-    C1-    C3-    F6
     2      4      3      9      9     0.00   0.65084   3 ;     C2-    C4-    C3-    F5
     2      4      3     10      9     0.00   0.65084   3 ;     C2-    C4-    C3-    F6
     3      1      2      4      9     0.00   0.65084   3 ;     C3-    C1-    C2-    C4
     3      1      2      7      9     0.00   0.65084   3 ;     C3-    C1-    C2-    F3
     3      1      2      8      9     0.00   0.65084   3 ;     C3-    C1-    C2-    F4
     3      4      2      7      9     0.00   0.65084   3 ;     C3-    C4-    C2-    F3
     3      4      2      8      9     0.00   0.65084   3 ;     C3-    C4-    C2-    F4
     5      1      2      4      9     0.00   0.65084   3 ;     F1-    C1-    C2-    C4
     5      1      2      7      9     0.00   0.65084   3 ;     F1-    C1-    C2-    F3
     5      1      2      8      9     0.00   0.65084   3 ;     F1-    C1-    C2-    F4
     5      1      3      4      9     0.00   0.65084   3 ;     F1-    C1-    C3-    C4
     5      1      3      9      9     0.00   0.65084   3 ;     F1-    C1-    C3-    F5
     5      1      3     10      9     0.00   0.65084   3 ;     F1-    C1-    C3-    F6
     6      1      2      4      9     0.00   0.65084   3 ;     F2-    C1-    C2-    C4
     6      1      2      7      9     0.00   0.65084   3 ;     F2-    C1-    C2-    F3
     6      1      2      8      9     0.00   0.65084   3 ;     F2-    C1-    C2-    F4
     6      1      3      4      9     0.00   0.65084   3 ;     F2-    C1-    C3-    C4
     6      1      3      9      9     0.00   0.65084   3 ;     F2-    C1-    C3-    F5
     6      1      3     10      9     0.00   0.65084   3 ;     F2-    C1-    C3-    F6
     7      2      4     11      9     0.00   0.65084   3 ;     F3-    C2-    C4-    F7
     7      2      4     12      9     0.00   0.65084   3 ;     F3-    C2-    C4-    F8
     8      2      4     11      9     0.00   0.65084   3 ;     F4-    C2-    C4-    F7
     8      2      4     12      9     0.00   0.65084   3 ;     F4-    C2-    C4-    F8
     9      3      4     11      9     0.00   0.65084   3 ;     F5-    C3-    C4-    F7
     9      3      4     12      9     0.00   0.65084   3 ;     F5-    C3-    C4-    F8
    10      3      4     11      9     0.00   0.65084   3 ;     F6-    C3-    C4-    F7
    10      3      4     12      9     0.00   0.65084   3 ;     F6-    C3-    C4-    F8
