mobley_637522_GMX.gro created by acpype (v: 2023.10.27) on Tue May 19 12:55:26 2026
 2436
    1MOL     C1    1   2.723   2.205   2.540
    1MOL     C2    2   2.604   2.134   2.547
    1MOL     C3    3   2.349   2.819   2.405
    1MOL     C4    4   2.229   2.748   2.412
    1MOL     C5    5   2.721   2.342   2.514
    1MOL     C6    6   2.482   2.200   2.528
    1MOL     C7    7   2.470   2.753   2.424
    1MOL     C8    8   2.231   2.611   2.438
    1MOL     C9    9   2.596   2.548   2.469
    1MOL    C10   10   2.357   2.405   2.483
    1MOL    C11   11   2.599   2.410   2.495
    1MOL    C12   12   2.478   2.337   2.502
    1MOL    C13   13   2.474   2.615   2.450
    1MOL    C14   14   2.353   2.543   2.457
    1MOL     H1   15   2.818   2.154   2.554
    1MOL     H2   16   2.605   2.027   2.567
    1MOL     H3   17   2.347   2.926   2.385
    1MOL     H4   18   2.135   2.799   2.398
    1MOL     H5   19   2.816   2.396   2.509
    1MOL     H6   20   2.390   2.142   2.534
    1MOL     H7   21   2.562   2.811   2.418
    1MOL     H8   22   2.137   2.557   2.443
    1MOL     H9   23   2.689   2.603   2.463
    1MOL    H10   24   2.263   2.349   2.489
   35SOL     OW   25   1.187   1.792   1.616
   35SOL    HW1   26   1.211   1.852   1.540
   35SOL    HW2   27   1.194   1.697   1.586
   95SOL     OW   28   1.754   1.223   1.588
   95SOL    HW1   29   1.845   1.184   1.575
   95SOL    HW2   30   1.762   1.319   1.612
   97SOL     OW   31   1.592   1.629   1.625
   97SOL    HW1   32   1.619   1.663   1.535
   97SOL    HW2   33   1.671   1.591   1.671
  127SOL     OW   34   1.859   1.518   1.605
  127SOL    HW1   35   1.873   1.545   1.510
  127SOL    HW2   36   1.942   1.540   1.658
  152SOL     OW   37   1.759   1.747   1.154
  152SOL    HW1   38   1.820   1.777   1.081
  152SOL    HW2   39   1.721   1.658   1.132
  163SOL     OW   40   1.650   1.720   1.394
  163SOL    HW1   41   1.703   1.730   1.310
  163SOL    HW2   42   1.623   1.810   1.428
  219SOL     OW   43   1.555   1.511   2.565
  219SOL    HW1   44   1.498   1.495   2.646
  219SOL    HW2   45   1.496   1.521   2.485
  227SOL     OW   46   1.460   1.505   3.201
  227SOL    HW1   47   1.484   1.599   3.227
  227SOL    HW2   48   1.444   1.451   3.283
  238SOL     OW   49   1.842   1.767   2.221
  238SOL    HW1   50   1.896   1.738   2.301
  238SOL    HW2   51   1.872   1.857   2.192
  240SOL     OW   52   1.689   0.922   2.474
  240SOL    HW1   53   1.784   0.893   2.482
  240SOL    HW2   54   1.681   0.987   2.399
  241SOL     OW   55   1.641   1.108   2.294
  241SOL    HW1   56   1.727   1.110   2.242
  241SOL    HW2   57   1.655   1.155   2.382
  248SOL     OW   58   1.187   1.792   3.478
  248SOL    HW1   59   1.211   1.852   3.402
  248SOL    HW2   60   1.194   1.697   3.448
  250SOL     OW   61   1.466   1.417   2.815
  250SOL    HW1   62   1.407   1.423   2.895
  250SOL    HW2   63   1.451   1.329   2.769
  251SOL     OW   64   1.667   1.714   2.434
  251SOL    HW1   65   1.626   1.691   2.346
  251SOL    HW2   66   1.649   1.640   2.499
  254SOL     OW   67   1.576   1.662   2.169
  254SOL    HW1   68   1.665   1.708   2.172
  254SOL    HW2   69   1.555   1.638   2.074
  264SOL     OW   70   1.362   1.144   2.407
  264SOL    HW1   71   1.445   1.115   2.359
  264SOL    HW2   72   1.313   1.211   2.351
  266SOL     OW   73   1.008   1.456   2.339
  266SOL    HW1   74   0.962   1.528   2.287
  266SOL    HW2   75   1.004   1.476   2.437
  268SOL     OW   76   1.795   1.066   2.735
  268SOL    HW1   77   1.733   1.051   2.659
  268SOL    HW2   78   1.743   1.077   2.820
  269SOL     OW   79   1.227   1.550   3.368
  269SOL    HW1   80   1.233   1.473   3.432
  269SOL    HW2   81   1.175   1.524   3.288
  273SOL     OW   82   1.111   1.776   2.099
  273SOL    HW1   83   1.051   1.714   2.149
  273SOL    HW2   84   1.142   1.732   2.014
  275SOL     OW   85   1.632   1.377   1.943
  275SOL    HW1   86   1.600   1.471   1.933
  275SOL    HW2   87   1.556   1.314   1.931
  279SOL     OW   88   0.940   1.698   2.766
  279SOL    HW1   89   1.020   1.641   2.787
  279SOL    HW2   90   0.891   1.658   2.689
  289SOL     OW   91   1.434   1.188   1.903
  289SOL    HW1   92   1.466   1.112   1.960
  289SOL    HW2   93   1.342   1.215   1.933
  293SOL     OW   94   1.227   1.570   2.655
  293SOL    HW1   95   1.248   1.644   2.590
  293SOL    HW2   96   1.295   1.570   2.728
  295SOL     OW   97   1.271   1.797   2.453
  295SOL    HW1   98   1.315   1.861   2.389
  295SOL    HW2   99   1.221   1.849   2.523
  301SOL     OW  100   1.429   1.173   2.729
  301SOL    HW1  101   1.374   1.089   2.722
  301SOL    HW2  102   1.455   1.202   2.637
  303SOL     OW  103   1.857   0.833   2.239
  303SOL    HW1  104   1.899   0.769   2.303
  303SOL    HW2  105   1.819   0.782   2.161
  305SOL     OW  106   1.664   1.280   2.519
  305SOL    HW1  107   1.763   1.288   2.533
  305SOL    HW2  108   1.619   1.364   2.550
  308SOL     OW  109   1.754   1.223   3.450
  308SOL    HW1  110   1.845   1.184   3.437
  308SOL    HW2  111   1.762   1.319   3.474
  310SOL     OW  112   1.592   1.629   3.487
  310SOL    HW1  113   1.619   1.663   3.397
  310SOL    HW2  114   1.671   1.591   3.533
  312SOL     OW  115   1.638   1.099   2.941
  312SOL    HW1  116   1.643   1.180   3.000
  312SOL    HW2  117   1.552   1.101   2.890
  321SOL     OW  118   1.252   1.348   2.250
  321SOL    HW1  119   1.302   1.425   2.290
  321SOL    HW2  120   1.157   1.350   2.282
  322SOL     OW  121   1.272   1.445   3.004
  322SOL    HW1  122   1.319   1.458   3.091
  322SOL    HW2  123   1.206   1.371   3.013
  340SOL     OW  124   1.859   1.518   3.467
  340SOL    HW1  125   1.873   1.545   3.372
  340SOL    HW2  126   1.942   1.540   3.520
  365SOL     OW  127   1.759   1.747   3.016
  365SOL    HW1  128   1.820   1.777   2.943
  365SOL    HW2  129   1.721   1.658   2.994
  366SOL     OW  130   1.252   1.731   2.990
  366SOL    HW1  131   1.336   1.736   2.936
  366SOL    HW2  132   1.229   1.635   3.008
  370SOL     OW  133   1.388   1.573   2.339
  370SOL    HW1  134   1.455   1.585   2.265
  370SOL    HW2  135   1.348   1.662   2.362
  375SOL     OW  136   1.650   1.720   3.256
  375SOL    HW1  137   1.703   1.730   3.172
  375SOL    HW2  138   1.623   1.810   3.290
  378SOL     OW  139   1.194   1.612   1.893
  378SOL    HW1  140   1.200   1.519   1.930
  378SOL    HW2  141   1.135   1.612   1.813
  381SOL     OW  142   1.504   1.607   1.906
  381SOL    HW1  143   1.412   1.644   1.913
  381SOL    HW2  144   1.542   1.627   1.816
  383SOL     OW  145   1.614   1.292   3.151
  383SOL    HW1  146   1.674   1.295   3.231
  383SOL    HW2  147   1.539   1.356   3.164
  394SOL     OW  148   1.183   1.335   1.981
  394SOL    HW1  149   1.084   1.324   1.983
  394SOL    HW2  150   1.217   1.350   2.074
  396SOL     OW  151   1.493   1.767   2.821
  396SOL    HW1  152   1.526   1.831   2.752
  396SOL    HW2  153   1.559   1.761   2.896
  409SOL     OW  154   1.861   1.569   2.713
  409SOL    HW1  155   1.790   1.557   2.643
  409SOL    HW2  156   1.862   1.490   2.773
  415SOL     OW  157   1.705   1.487   2.966
  415SOL    HW1  158   1.612   1.462   2.939
  415SOL    HW2  159   1.731   1.437   3.048
  573SOL     OW  160   0.850   2.660   1.823
  573SOL    HW1  161   0.846   2.736   1.888
  573SOL    HW2  162   0.872   2.696   1.732
  577SOL     OW  163   1.460   3.367   1.339
  577SOL    HW1  164   1.484   3.461   1.365
  577SOL    HW2  165   1.444   3.313   1.421
  581SOL     OW  166   1.127   3.203   1.690
  581SOL    HW1  167   1.174   3.203   1.778
  581SOL    HW2  168   1.079   3.116   1.679
  586SOL     OW  169   1.594   1.976   1.480
  586SOL    HW1  170   1.576   2.043   1.408
  586SOL    HW2  171   1.591   2.022   1.569
  594SOL     OW  172   1.293   3.090   1.423
  594SOL    HW1  173   1.330   3.017   1.365
  594SOL    HW2  174   1.345   3.095   1.508
  606SOL     OW  175   1.394   2.331   1.674
  606SOL    HW1  176   1.374   2.374   1.762
  606SOL    HW2  177   1.472   2.269   1.683
  607SOL     OW  178   0.973   2.752   1.572
  607SOL    HW1  179   1.019   2.668   1.543
  607SOL    HW2  180   0.917   2.786   1.497
  613SOL     OW  181   1.719   2.447   1.831
  613SOL    HW1  182   1.693   2.536   1.795
  613SOL    HW2  183   1.717   2.379   1.758
  618SOL     OW  184   1.795   2.928   0.873
  618SOL    HW1  185   1.733   2.913   0.797
  618SOL    HW2  186   1.743   2.939   0.958
  631SOL     OW  187   1.547   2.084   1.729
  631SOL    HW1  188   1.542   2.121   1.821
  631SOL    HW2  189   1.475   2.015   1.717
  635SOL     OW  190   1.351   2.452   1.433
  635SOL    HW1  191   1.379   2.409   1.518
  635SOL    HW2  192   1.376   2.548   1.434
  642SOL     OW  193   1.076   2.545   1.464
  642SOL    HW1  194   0.996   2.484   1.467
  642SOL    HW2  195   1.157   2.492   1.440
  652SOL     OW  196   1.466   2.452   0.992
  652SOL    HW1  197   1.436   2.357   0.999
  652SOL    HW2  198   1.539   2.468   1.058
  658SOL     OW  199   1.754   3.085   1.588
  658SOL    HW1  200   1.845   3.046   1.575
  658SOL    HW2  201   1.762   3.181   1.612
  660SOL     OW  202   1.592   3.491   1.625
  660SOL    HW1  203   1.619   3.525   1.535
  660SOL    HW2  204   1.671   3.453   1.671
  662SOL     OW  205   1.638   2.961   1.079
  662SOL    HW1  206   1.643   3.042   1.138
  662SOL    HW2  207   1.552   2.963   1.028
  664SOL     OW  208   0.980   2.978   1.719
  664SOL    HW1  209   0.881   2.984   1.729
  664SOL    HW2  210   1.003   2.898   1.663
  667SOL     OW  211   1.274   2.248   1.262
  667SOL    HW1  212   1.295   2.322   1.326
  667SOL    HW2  213   1.185   2.265   1.219
  676SOL     OW  214   1.587   2.641   1.670
  676SOL    HW1  215   1.495   2.679   1.665
  676SOL    HW2  216   1.647   2.688   1.605
  677SOL     OW  217   1.013   1.967   1.770
  677SOL    HW1  218   1.019   2.052   1.718
  677SOL    HW2  219   1.045   1.891   1.713
  685SOL     OW  220   1.728   2.797   1.854
  685SOL    HW1  221   1.682   2.790   1.765
  685SOL    HW2  222   1.666   2.841   1.920
  690SOL     OW  223   1.859   3.380   1.605
  690SOL    HW1  224   1.873   3.407   1.510
  690SOL    HW2  225   1.942   3.402   1.658
  697SOL     OW  226   1.138   2.242   1.678
  697SOL    HW1  227   1.093   2.305   1.742
  697SOL    HW2  228   1.231   2.273   1.661
  698SOL     OW  229   1.160   2.069   1.477
  698SOL    HW1  230   1.160   2.133   1.554
  698SOL    HW2  231   1.188   2.117   1.394
  705SOL     OW  232   1.369   2.812   1.660
  705SOL    HW1  233   1.408   2.901   1.680
  705SOL    HW2  234   1.379   2.792   1.563
  707SOL     OW  235   1.657   2.466   1.206
  707SOL    HW1  236   1.619   2.397   1.268
  707SOL    HW2  237   1.739   2.430   1.162
  713SOL     OW  238   1.347   2.921   1.234
  713SOL    HW1  239   1.371   2.858   1.160
  713SOL    HW2  240   1.257   2.961   1.216
  726SOL     OW  241   1.650   3.582   1.394
  726SOL    HW1  242   1.703   3.592   1.310
  726SOL    HW2  243   1.623   3.672   1.428
  727SOL     OW  244   1.841   2.037   0.963
  727SOL    HW1  245   1.880   1.952   0.927
  727SOL    HW2  246   1.743   2.039   0.944
  734SOL     OW  247   1.614   3.154   1.289
  734SOL    HW1  248   1.674   3.157   1.369
  734SOL    HW2  249   1.539   3.218   1.302
  738SOL     OW  250   1.709   2.247   1.381
  738SOL    HW1  251   1.782   2.316   1.385
  738SOL    HW2  252   1.737   2.172   1.322
  743SOL     OW  253   1.440   2.718   1.398
  743SOL    HW1  254   1.383   2.770   1.335
  743SOL    HW2  255   1.536   2.730   1.374
  749SOL     OW  256   1.450   3.082   1.633
  749SOL    HW1  257   1.441   3.072   1.732
  749SOL    HW2  258   1.546   3.075   1.607
  751SOL     OW  259   1.674   2.745   1.254
  751SOL    HW1  260   1.647   2.656   1.217
  751SOL    HW2  261   1.675   2.813   1.181
  754SOL     OW  262   1.777   2.204   1.642
  754SOL    HW1  263   1.760   2.235   1.548
  754SOL    HW2  264   1.693   2.167   1.680
  755SOL     OW  265   1.730   2.796   1.517
  755SOL    HW1  266   1.768   2.887   1.532
  755SOL    HW2  267   1.722   2.779   1.418
  764SOL     OW  268   1.824   2.054   1.227
  764SOL    HW1  269   1.820   1.964   1.271
  764SOL    HW2  270   1.827   2.043   1.128
  766SOL     OW  271   1.705   3.349   1.104
  766SOL    HW1  272   1.612   3.324   1.077
  766SOL    HW2  273   1.731   3.299   1.186
  769SOL     OW  274   1.424   2.076   1.112
  769SOL    HW1  275   1.476   2.011   1.167
  769SOL    HW2  276   1.375   2.139   1.173
  782SOL     OW  277   1.555   3.373   2.565
  782SOL    HW1  278   1.498   3.357   2.646
  782SOL    HW2  279   1.496   3.383   2.485
  783SOL     OW  280   1.135   2.565   2.579
  783SOL    HW1  281   1.192   2.643   2.554
  783SOL    HW2  282   1.075   2.591   2.655
  784SOL     OW  283   1.755   2.469   2.093
  784SOL    HW1  284   1.743   2.456   1.994
  784SOL    HW2  285   1.725   2.388   2.142
  790SOL     OW  286   1.460   3.367   3.201
  790SOL    HW1  287   1.484   3.461   3.227
  790SOL    HW2  288   1.444   3.313   3.283
  792SOL     OW  289   1.603   2.309   2.599
  792SOL    HW1  290   1.529   2.355   2.549
  792SOL    HW2  291   1.654   2.377   2.652
  799SOL     OW  292   1.594   1.976   3.342
  799SOL    HW1  293   1.576   2.043   3.270
  799SOL    HW2  294   1.591   2.022   3.431
  801SOL     OW  295   1.842   3.629   2.221
  801SOL    HW1  296   1.896   3.600   2.301
  801SOL    HW2  297   1.872   3.719   2.192
  803SOL     OW  298   1.689   2.784   2.474
  803SOL    HW1  299   1.784   2.755   2.482
  803SOL    HW2  300   1.681   2.849   2.399
  804SOL     OW  301   1.641   2.970   2.294
  804SOL    HW1  302   1.727   2.972   2.242
  804SOL    HW2  303   1.655   3.017   2.382
  807SOL     OW  304   1.293   3.090   3.285
  807SOL    HW1  305   1.330   3.017   3.227
  807SOL    HW2  306   1.345   3.095   3.370
  808SOL     OW  307   0.809   1.866   2.364
  808SOL    HW1  308   0.849   1.957   2.355
  808SOL    HW2  309   0.709   1.874   2.370
  810SOL     OW  310   1.525   2.861   2.052
  810SOL    HW1  311   1.462   2.785   2.065
  810SOL    HW2  312   1.573   2.879   2.138
  813SOL     OW  313   1.466   3.279   2.815
  813SOL    HW1  314   1.407   3.285   2.895
  813SOL    HW2  315   1.451   3.191   2.769
  814SOL     OW  316   1.667   3.576   2.434
  814SOL    HW1  317   1.626   3.553   2.346
  814SOL    HW2  318   1.649   3.502   2.499
  816SOL     OW  319   1.281   2.207   2.806
  816SOL    HW1  320   1.195   2.157   2.793
  816SOL    HW2  321   1.343   2.153   2.862
  817SOL     OW  322   1.576   3.524   2.169
  817SOL    HW1  323   1.665   3.570   2.172
  817SOL    HW2  324   1.555   3.500   2.074
  819SOL     OW  325   1.394   2.331   3.536
  819SOL    HW1  326   1.374   2.374   3.624
  819SOL    HW2  327   1.472   2.269   3.545
  821SOL     OW  328   0.991   2.272   3.104
  821SOL    HW1  329   0.914   2.306   3.158
  821SOL    HW2  330   0.957   2.221   3.025
  822SOL     OW  331   1.041   2.563   2.291
  822SOL    HW1  332   1.067   2.559   2.387
  822SOL    HW2  333   0.956   2.512   2.277
  825SOL     OW  334   0.865   2.210   2.057
  825SOL    HW1  335   0.924   2.273   2.008
  825SOL    HW2  336   0.884   2.116   2.028
  826SOL     OW  337   1.719   2.447   3.693
  826SOL    HW1  338   1.693   2.536   3.657
  826SOL    HW2  339   1.717   2.379   3.620
  827SOL     OW  340   1.362   3.006   2.407
  827SOL    HW1  341   1.445   2.977   2.359
  827SOL    HW2  342   1.313   3.073   2.351
  829SOL     OW  343   1.008   3.318   2.339
  829SOL    HW1  344   0.962   3.390   2.287
  829SOL    HW2  345   1.004   3.338   2.437
  831SOL     OW  346   1.795   2.928   2.735
  831SOL    HW1  347   1.733   2.913   2.659
  831SOL    HW2  348   1.743   2.939   2.820
  832SOL     OW  349   1.227   3.412   3.368
  832SOL    HW1  350   1.233   3.335   3.432
  832SOL    HW2  351   1.175   3.386   3.288
  834SOL     OW  352   1.458   2.597   2.590
  834SOL    HW1  353   1.453   2.532   2.665
  834SOL    HW2  354   1.538   2.656   2.603
  838SOL     OW  355   1.632   3.239   1.943
  838SOL    HW1  356   1.600   3.333   1.933
  838SOL    HW2  357   1.556   3.176   1.931
  840SOL     OW  358   1.400   1.969   2.288
  840SOL    HW1  359   1.376   1.932   2.198
  840SOL    HW2  360   1.499   1.985   2.292
  844SOL     OW  361   1.547   2.084   3.591
  844SOL    HW1  362   1.542   2.121   3.683
  844SOL    HW2  363   1.475   2.015   3.579
  848SOL     OW  364   1.351   2.452   3.295
  848SOL    HW1  365   1.379   2.409   3.380
  848SOL    HW2  366   1.376   2.548   3.296
  850SOL     OW  367   0.922   2.365   2.761
  850SOL    HW1  368   0.897   2.356   2.665
  850SOL    HW2  369   0.970   2.283   2.792
  852SOL     OW  370   1.434   3.050   1.903
  852SOL    HW1  371   1.466   2.974   1.960
  852SOL    HW2  372   1.342   3.077   1.933
  854SOL     OW  373   0.935   2.098   2.342
  854SOL    HW1  374   0.887   2.139   2.264
  854SOL    HW2  375   1.034   2.096   2.323
  855SOL     OW  376   1.076   2.545   3.326
  855SOL    HW1  377   0.996   2.484   3.329
  855SOL    HW2  378   1.157   2.492   3.302
  856SOL     OW  379   1.227   3.432   2.655
  856SOL    HW1  380   1.248   3.506   2.590
  856SOL    HW2  381   1.295   3.432   2.728
  858SOL     OW  382   1.271   3.659   2.453
  858SOL    HW1  383   1.315   3.723   2.389
  858SOL    HW2  384   1.221   3.711   2.523
  859SOL     OW  385   1.032   2.411   1.878
  859SOL    HW1  386   0.991   2.493   1.839
  859SOL    HW2  387   1.096   2.437   1.951
  862SOL     OW  388   0.866   2.316   2.504
  862SOL    HW1  389   0.834   2.388   2.442
  862SOL    HW2  390   0.890   2.235   2.451
  863SOL     OW  391   1.017   1.901   2.615
  863SOL    HW1  392   0.945   1.906   2.546
  863SOL    HW2  393   0.993   1.832   2.684
  864SOL     OW  394   1.429   3.035   2.729
  864SOL    HW1  395   1.374   2.951   2.722
  864SOL    HW2  396   1.455   3.064   2.637
  865SOL     OW  397   1.466   2.452   2.854
  865SOL    HW1  398   1.436   2.357   2.861
  865SOL    HW2  399   1.539   2.468   2.920
  866SOL     OW  400   1.857   2.695   2.239
  866SOL    HW1  401   1.899   2.631   2.303
  866SOL    HW2  402   1.819   2.644   2.161
  868SOL     OW  403   1.664   3.142   2.519
  868SOL    HW1  404   1.763   3.150   2.533
  868SOL    HW2  405   1.619   3.226   2.550
  869SOL     OW  406   1.390   2.437   1.940
  869SOL    HW1  407   1.336   2.416   2.021
  869SOL    HW2  408   1.481   2.396   1.949
  871SOL     OW  409   1.754   3.085   3.450
  871SOL    HW1  410   1.845   3.046   3.437
  871SOL    HW2  411   1.762   3.181   3.474
  872SOL     OW  412   1.064   3.209   3.202
  872SOL    HW1  413   0.984   3.186   3.257
  872SOL    HW2  414   1.147   3.183   3.251
  873SOL     OW  415   1.592   3.491   3.487
  873SOL    HW1  416   1.619   3.525   3.397
  873SOL    HW2  417   1.671   3.453   3.533
  874SOL     OW  418   1.111   3.057   2.962
  874SOL    HW1  419   1.071   3.101   3.043
  874SOL    HW2  420   1.070   3.094   2.879
  875SOL     OW  421   1.638   2.961   2.941
  875SOL    HW1  422   1.643   3.042   3.000
  875SOL    HW2  423   1.552   2.963   2.890
  880SOL     OW  424   1.274   2.248   3.124
  880SOL    HW1  425   1.295   2.322   3.188
  880SOL    HW2  426   1.185   2.265   3.081
  884SOL     OW  427   1.252   3.210   2.250
  884SOL    HW1  428   1.302   3.287   2.290
  884SOL    HW2  429   1.157   3.212   2.282
  885SOL     OW  430   1.272   3.307   3.004
  885SOL    HW1  431   1.319   3.320   3.091
  885SOL    HW2  432   1.206   3.233   3.013
  886SOL     OW  433   1.582   2.501   2.334
  886SOL    HW1  434   1.551   2.562   2.407
  886SOL    HW2  435   1.632   2.553   2.265
  889SOL     OW  436   1.587   2.641   3.532
  889SOL    HW1  437   1.495   2.679   3.527
  889SOL    HW2  438   1.647   2.688   3.467
  893SOL     OW  439   1.360   2.724   2.907
  893SOL    HW1  440   1.285   2.724   2.841
  893SOL    HW2  441   1.397   2.632   2.916
  894SOL     OW  442   1.209   2.387   2.137
  894SOL    HW1  443   1.222   2.303   2.191
  894SOL    HW2  444   1.180   2.461   2.197
  898SOL     OW  445   1.728   2.797   3.716
  898SOL    HW1  446   1.682   2.790   3.627
  898SOL    HW2  447   1.666   2.841   3.782
  900SOL     OW  448   1.622   2.229   2.236
  900SOL    HW1  449   1.624   2.153   2.300
  900SOL    HW2  450   1.574   2.306   2.276
  901SOL     OW  451   1.023   2.628   2.828
  901SOL    HW1  452   1.038   2.649   2.924
  901SOL    HW2  453   0.993   2.533   2.819
  903SOL     OW  454   1.859   3.380   3.467
  903SOL    HW1  455   1.873   3.407   3.372
  903SOL    HW2  456   1.942   3.402   3.520
  905SOL     OW  457   1.540   2.136   1.987
  905SOL    HW1  458   1.479   2.061   2.010
  905SOL    HW2  459   1.562   2.188   2.070
  906SOL     OW  460   1.303   2.700   1.904
  906SOL    HW1  461   1.337   2.607   1.919
  906SOL    HW2  462   1.321   2.727   1.809
  907SOL     OW  463   1.068   3.195   2.711
  907SOL    HW1  464   1.075   3.111   2.656
  907SOL    HW2  465   1.130   3.264   2.675
  910SOL     OW  466   1.138   2.242   3.540
  910SOL    HW1  467   1.093   2.305   3.604
  910SOL    HW2  468   1.231   2.273   3.523
  911SOL     OW  469   1.160   2.069   3.339
  911SOL    HW1  470   1.160   2.133   3.416
  911SOL    HW2  471   1.188   2.117   3.256
  915SOL     OW  472   1.002   2.658   3.100
  915SOL    HW1  473   1.043   2.626   3.186
  915SOL    HW2  474   0.906   2.631   3.097
  918SOL     OW  475   1.369   2.812   3.522
  918SOL    HW1  476   1.408   2.901   3.542
  918SOL    HW2  477   1.379   2.792   3.425
  919SOL     OW  478   0.815   2.434   2.187
  919SOL    HW1  479   0.822   2.345   2.141
  919SOL    HW2  480   0.721   2.468   2.179
  920SOL     OW  481   1.657   2.466   3.068
  920SOL    HW1  482   1.619   2.397   3.130
  920SOL    HW2  483   1.739   2.430   3.024
  926SOL     OW  484   1.347   2.921   3.096
  926SOL    HW1  485   1.371   2.858   3.022
  926SOL    HW2  486   1.257   2.961   3.078
  927SOL     OW  487   1.302   2.717   2.171
  927SOL    HW1  488   1.216   2.686   2.213
  927SOL    HW2  489   1.298   2.703   2.072
  928SOL     OW  490   1.759   3.609   3.016
  928SOL    HW1  491   1.820   3.639   2.943
  928SOL    HW2  492   1.721   3.520   2.994
  929SOL     OW  493   1.252   3.593   2.990
  929SOL    HW1  494   1.336   3.598   2.936
  929SOL    HW2  495   1.229   3.497   3.008
  932SOL     OW  496   1.726   1.997   2.385
  932SOL    HW1  497   1.799   1.980   2.318
  932SOL    HW2  498   1.695   1.910   2.423
  933SOL     OW  499   1.388   3.435   2.339
  933SOL    HW1  500   1.455   3.447   2.265
  933SOL    HW2  501   1.348   3.524   2.362
  935SOL     OW  502   1.280   2.789   2.534
  935SOL    HW1  503   1.340   2.708   2.536
  935SOL    HW2  504   1.320   2.858   2.474
  938SOL     OW  505   1.650   3.582   3.256
  938SOL    HW1  506   1.703   3.592   3.172
  938SOL    HW2  507   1.623   3.672   3.290
  939SOL     OW  508   1.841   2.037   2.825
  939SOL    HW1  509   1.880   1.952   2.789
  939SOL    HW2  510   1.743   2.039   2.806
  941SOL     OW  511   1.194   3.474   1.893
  941SOL    HW1  512   1.200   3.381   1.930
  941SOL    HW2  513   1.135   3.474   1.813
  943SOL     OW  514   0.916   2.772   2.153
  943SOL    HW1  515   0.979   2.810   2.085
  943SOL    HW2  516   0.956   2.689   2.192
  944SOL     OW  517   1.504   3.469   1.906
  944SOL    HW1  518   1.412   3.506   1.913
  944SOL    HW2  519   1.542   3.489   1.816
  946SOL     OW  520   1.614   3.154   3.151
  946SOL    HW1  521   1.674   3.157   3.231
  946SOL    HW2  522   1.539   3.218   3.164
  947SOL     OW  523   1.039   2.960   2.558
  947SOL    HW1  524   0.969   2.913   2.612
  947SOL    HW2  525   1.098   2.892   2.515
  948SOL     OW  526   1.014   2.098   2.833
  948SOL    HW1  527   1.006   2.062   2.740
  948SOL    HW2  528   1.012   2.022   2.898
  950SOL     OW  529   1.709   2.247   3.243
  950SOL    HW1  530   1.782   2.316   3.247
  950SOL    HW2  531   1.737   2.172   3.184
  955SOL     OW  532   1.440   2.718   3.260
  955SOL    HW1  533   1.383   2.770   3.197
  955SOL    HW2  534   1.536   2.730   3.236
  957SOL     OW  535   1.183   3.197   1.981
  957SOL    HW1  536   1.084   3.186   1.983
  957SOL    HW2  537   1.217   3.212   2.074
  959SOL     OW  538   1.493   3.629   2.821
  959SOL    HW1  539   1.526   3.693   2.752
  959SOL    HW2  540   1.559   3.623   2.896
  961SOL     OW  541   1.450   3.082   3.495
  961SOL    HW1  542   1.441   3.072   3.594
  961SOL    HW2  543   1.546   3.075   3.469
  963SOL     OW  544   1.674   2.745   3.116
  963SOL    HW1  545   1.647   2.656   3.079
  963SOL    HW2  546   1.675   2.813   3.043
  964SOL     OW  547   1.225   2.187   2.311
  964SOL    HW1  548   1.290   2.113   2.300
  964SOL    HW2  549   1.245   2.237   2.395
  966SOL     OW  550   1.777   2.204   3.504
  966SOL    HW1  551   1.760   2.235   3.410
  966SOL    HW2  552   1.693   2.167   3.542
  967SOL     OW  553   1.730   2.796   3.379
  967SOL    HW1  554   1.768   2.887   3.394
  967SOL    HW2  555   1.722   2.779   3.280
  970SOL     OW  556   0.859   2.818   2.723
  970SOL    HW1  557   0.913   2.749   2.771
  970SOL    HW2  558   0.827   2.887   2.789
  971SOL     OW  559   1.083   2.846   1.949
  971SOL    HW1  560   1.060   2.899   1.867
  971SOL    HW2  561   1.164   2.790   1.930
  972SOL     OW  562   1.861   3.431   2.713
  972SOL    HW1  563   1.790   3.419   2.643
  972SOL    HW2  564   1.862   3.352   2.773
  976SOL     OW  565   1.824   2.054   3.089
  976SOL    HW1  566   1.820   1.964   3.133
  976SOL    HW2  567   1.827   2.043   2.990
  978SOL     OW  568   1.705   3.349   2.966
  978SOL    HW1  569   1.612   3.324   2.939
  978SOL    HW2  570   1.731   3.299   3.048
  981SOL     OW  571   1.424   2.076   2.974
  981SOL    HW1  572   1.476   2.011   3.029
  981SOL    HW2  573   1.375   2.139   3.035
  982SOL     OW  574   1.001   1.896   3.016
  982SOL    HW1  575   0.938   1.824   2.985
  982SOL    HW2  576   1.094   1.860   3.016
  985SOL     OW  577   1.352   1.914   2.030
  985SOL    HW1  578   1.387   1.873   1.946
  985SOL    HW2  579   1.262   1.876   2.050
  986SOL     OW  580   1.300   2.315   2.553
  986SOL    HW1  581   1.241   2.395   2.557
  986SOL    HW2  582   1.315   2.280   2.646
  987SOL     OW  583   1.593   2.083   2.744
  987SOL    HW1  584   1.509   2.082   2.798
  987SOL    HW2  585   1.595   2.166   2.688
  996SOL     OW  586   1.755   2.469   3.955
  996SOL    HW1  587   1.743   2.456   3.856
  996SOL    HW2  588   1.725   2.388   4.004
 1013SOL     OW  589   1.525   2.861   3.914
 1013SOL    HW1  590   1.462   2.785   3.927
 1013SOL    HW2  591   1.573   2.879   4.000
 1030SOL     OW  592   1.632   3.239   3.805
 1030SOL    HW1  593   1.600   3.333   3.795
 1030SOL    HW2  594   1.556   3.176   3.793
 1040SOL     OW  595   1.434   3.050   3.765
 1040SOL    HW1  596   1.466   2.974   3.822
 1040SOL    HW2  597   1.342   3.077   3.795
 1051SOL     OW  598   1.857   2.695   4.101
 1051SOL    HW1  599   1.899   2.631   4.165
 1051SOL    HW2  600   1.819   2.644   4.023
 1054SOL     OW  601   1.390   2.437   3.802
 1054SOL    HW1  602   1.336   2.416   3.883
 1054SOL    HW2  603   1.481   2.396   3.811
 1072SOL     OW  604   1.540   2.136   3.849
 1072SOL    HW1  605   1.479   2.061   3.872
 1072SOL    HW2  606   1.562   2.188   3.932
 1073SOL     OW  607   1.303   2.700   3.766
 1073SOL    HW1  608   1.337   2.607   3.781
 1073SOL    HW2  609   1.321   2.727   3.671
 1308SOL     OW  610   1.400   3.831   2.288
 1308SOL    HW1  611   1.376   3.794   2.198
 1308SOL    HW2  612   1.499   3.847   2.292
 1373SOL     OW  613   1.726   3.859   2.385
 1373SOL    HW1  614   1.799   3.842   2.318
 1373SOL    HW2  615   1.695   3.772   2.423
 1375SOL     OW  616   1.841   3.899   2.825
 1375SOL    HW1  617   1.880   3.814   2.789
 1375SOL    HW2  618   1.743   3.901   2.806
 1399SOL     OW  619   1.824   3.916   3.089
 1399SOL    HW1  620   1.820   3.826   3.133
 1399SOL    HW2  621   1.827   3.905   2.990
 1405SOL     OW  622   1.352   3.776   2.030
 1405SOL    HW1  623   1.387   3.735   1.946
 1405SOL    HW2  624   1.262   3.738   2.050
 1407SOL     OW  625   1.593   3.945   2.744
 1407SOL    HW1  626   1.509   3.944   2.798
 1407SOL    HW2  627   1.595   4.028   2.688
 1508SOL     OW  628   2.431   1.275   1.165
 1508SOL    HW1  629   2.338   1.268   1.128
 1508SOL    HW2  630   2.442   1.364   1.209
 1515SOL     OW  631   2.548   1.161   1.803
 1515SOL    HW1  632   2.608   1.240   1.817
 1515SOL    HW2  633   2.462   1.192   1.762
 1516SOL     OW  634   2.197   1.435   1.061
 1516SOL    HW1  635   2.119   1.404   1.008
 1516SOL    HW2  636   2.255   1.493   1.004
 1517SOL     OW  637   3.322   1.505   1.339
 1517SOL    HW1  638   3.346   1.599   1.365
 1517SOL    HW2  639   3.306   1.451   1.421
 1521SOL     OW  640   2.989   1.341   1.690
 1521SOL    HW1  641   3.036   1.341   1.778
 1521SOL    HW2  642   2.941   1.254   1.679
 1524SOL     OW  643   2.482   1.786   1.439
 1524SOL    HW1  644   2.390   1.769   1.474
 1524SOL    HW2  645   2.510   1.878   1.465
 1534SOL     OW  646   3.155   1.228   1.423
 1534SOL    HW1  647   3.192   1.155   1.365
 1534SOL    HW2  648   3.207   1.233   1.508
 1538SOL     OW  649   3.049   1.792   1.616
 1538SOL    HW1  650   3.073   1.852   1.540
 1538SOL    HW2  651   3.056   1.697   1.586
 1551SOL     OW  652   1.992   1.821   1.571
 1551SOL    HW1  653   1.982   1.806   1.670
 1551SOL    HW2  654   1.906   1.857   1.535
 1557SOL     OW  655   2.213   1.801   0.853
 1557SOL    HW1  656   2.263   1.715   0.859
 1557SOL    HW2  657   2.278   1.878   0.850
 1559SOL     OW  658   3.089   1.550   1.506
 1559SOL    HW1  659   3.095   1.473   1.570
 1559SOL    HW2  660   3.037   1.524   1.426
 1562SOL     OW  661   2.323   1.266   1.727
 1562SOL    HW1  662   2.273   1.267   1.641
 1562SOL    HW2  663   2.260   1.248   1.803
 1568SOL     OW  664   2.111   1.785   1.241
 1568SOL    HW1  665   2.168   1.720   1.291
 1568SOL    HW2  666   2.095   1.752   1.148
 1569SOL     OW  667   2.802   1.698   0.904
 1569SOL    HW1  668   2.882   1.641   0.925
 1569SOL    HW2  669   2.753   1.658   0.827
 1574SOL     OW  670   2.750   1.514   1.195
 1574SOL    HW1  671   2.727   1.489   1.101
 1574SOL    HW2  672   2.811   1.445   1.234
 1599SOL     OW  673   2.926   1.347   1.340
 1599SOL    HW1  674   2.846   1.324   1.395
 1599SOL    HW2  675   3.009   1.321   1.389
 1600SOL     OW  676   3.454   1.629   1.625
 1600SOL    HW1  677   3.481   1.663   1.535
 1600SOL    HW2  678   3.533   1.591   1.671
 1604SOL     OW  679   2.842   1.116   1.719
 1604SOL    HW1  680   2.743   1.122   1.729
 1604SOL    HW2  681   2.865   1.036   1.663
 1608SOL     OW  682   1.926   1.564   1.331
 1608SOL    HW1  683   1.880   1.646   1.297
 1608SOL    HW2  684   2.024   1.583   1.340
 1614SOL     OW  685   2.216   1.510   1.329
 1614SOL    HW1  686   2.195   1.466   1.242
 1614SOL    HW2  687   2.313   1.536   1.332
 1623SOL     OW  688   1.899   1.310   1.282
 1623SOL    HW1  689   1.952   1.261   1.350
 1623SOL    HW2  690   1.921   1.408   1.287
 1629SOL     OW  691   2.842   1.573   1.700
 1629SOL    HW1  692   2.822   1.617   1.612
 1629SOL    HW2  693   2.881   1.482   1.684
 1630SOL     OW  694   3.721   1.518   1.605
 1630SOL    HW1  695   3.735   1.545   1.510
 1630SOL    HW2  696   3.804   1.540   1.658
 1631SOL     OW  697   2.212   0.898   1.804
 1631SOL    HW1  698   2.288   0.942   1.852
 1631SOL    HW2  699   2.247   0.851   1.722
 1640SOL     OW  700   1.950   1.801   0.927
 1640SOL    HW1  701   1.908   1.715   0.900
 1640SOL    HW2  702   2.044   1.804   0.893
 1648SOL     OW  703   2.114   1.564   1.744
 1648SOL    HW1  704   2.084   1.621   1.820
 1648SOL    HW2  705   2.107   1.467   1.770
 1650SOL     OW  706   2.792   1.678   1.465
 1650SOL    HW1  707   2.768   1.660   1.370
 1650SOL    HW2  708   2.822   1.772   1.475
 1652SOL     OW  709   2.021   1.137   1.466
 1652SOL    HW1  710   2.043   1.076   1.542
 1652SOL    HW2  711   2.031   1.088   1.380
 1656SOL     OW  712   3.114   1.731   1.128
 1656SOL    HW1  713   3.198   1.736   1.074
 1656SOL    HW2  714   3.091   1.635   1.146
 1658SOL     OW  715   2.550   1.662   1.716
 1658SOL    HW1  716   2.494   1.743   1.725
 1658SOL    HW2  717   2.602   1.666   1.630
 1662SOL     OW  718   1.992   1.794   1.851
 1662SOL    HW1  719   1.951   1.720   1.904
 1662SOL    HW2  720   2.056   1.845   1.909
 1664SOL     OW  721   2.692   1.273   1.422
 1664SOL    HW1  722   2.687   1.306   1.517
 1664SOL    HW2  723   2.606   1.292   1.376
 1666SOL     OW  724   3.512   1.720   1.394
 1666SOL    HW1  725   3.565   1.730   1.310
 1666SOL    HW2  726   3.485   1.810   1.428
 1673SOL     OW  727   2.234   1.288   1.490
 1673SOL    HW1  728   2.221   1.381   1.456
 1673SOL    HW2  729   2.150   1.236   1.477
 1680SOL     OW  730   1.967   1.013   1.726
 1680SOL    HW1  731   1.890   0.980   1.780
 1680SOL    HW2  732   2.052   0.983   1.768
 1688SOL     OW  733   3.312   1.220   1.633
 1688SOL    HW1  734   3.303   1.210   1.732
 1688SOL    HW2  735   3.408   1.213   1.607
 1689SOL     OW  736   2.252   1.741   1.560
 1689SOL    HW1  737   2.161   1.782   1.558
 1689SOL    HW2  738   2.245   1.647   1.592
 1696SOL     OW  739   2.523   1.790   0.953
 1696SOL    HW1  740   2.477   1.878   0.940
 1696SOL    HW2  741   2.622   1.802   0.946
 1700SOL     OW  742   2.083   1.314   1.844
 1700SOL    HW1  743   2.018   1.241   1.823
 1700SOL    HW2  744   2.087   1.328   1.942
 1702SOL     OW  745   2.534   1.391   1.624
 1702SOL    HW1  746   2.456   1.341   1.662
 1702SOL    HW2  747   2.531   1.486   1.655
 1711SOL     OW  748   2.480   1.567   1.284
 1711SOL    HW1  749   2.475   1.649   1.341
 1711SOL    HW2  750   2.569   1.564   1.239
 1720SOL     OW  751   2.431   1.275   3.027
 1720SOL    HW1  752   2.338   1.268   2.990
 1720SOL    HW2  753   2.442   1.364   3.071
 1721SOL     OW  754   3.417   1.511   2.565
 1721SOL    HW1  755   3.360   1.495   2.646
 1721SOL    HW2  756   3.358   1.521   2.485
 1724SOL     OW  757   2.630   1.144   2.885
 1724SOL    HW1  758   2.552   1.161   2.945
 1724SOL    HW2  759   2.664   1.231   2.849
 1726SOL     OW  760   2.547   1.012   2.527
 1726SOL    HW1  761   2.616   0.996   2.597
 1726SOL    HW2  762   2.474   1.069   2.565
 1727SOL     OW  763   2.548   1.161   3.665
 1727SOL    HW1  764   2.608   1.240   3.679
 1727SOL    HW2  765   2.462   1.192   3.624
 1728SOL     OW  766   2.197   1.435   2.923
 1728SOL    HW1  767   2.119   1.404   2.870
 1728SOL    HW2  768   2.255   1.493   2.866
 1729SOL     OW  769   3.322   1.505   3.201
 1729SOL    HW1  770   3.346   1.599   3.227
 1729SOL    HW2  771   3.306   1.451   3.283
 1732SOL     OW  772   2.093   1.713   2.345
 1732SOL    HW1  773   2.127   1.790   2.399
 1732SOL    HW2  774   2.137   1.713   2.255
 1733SOL     OW  775   2.989   1.341   3.552
 1733SOL    HW1  776   3.036   1.341   3.640
 1733SOL    HW2  777   2.941   1.254   3.541
 1734SOL     OW  778   2.092   1.434   2.400
 1734SOL    HW1  779   2.066   1.530   2.400
 1734SOL    HW2  780   2.021   1.380   2.445
 1735SOL     OW  781   2.102   1.091   2.748
 1735SOL    HW1  782   2.116   1.007   2.800
 1735SOL    HW2  783   2.047   1.155   2.803
 1736SOL     OW  784   2.482   1.786   3.301
 1736SOL    HW1  785   2.390   1.769   3.336
 1736SOL    HW2  786   2.510   1.878   3.327
 1737SOL     OW  787   2.468   0.964   1.985
 1737SOL    HW1  788   2.475   1.048   1.931
 1737SOL    HW2  789   2.514   0.977   2.073
 1740SOL     OW  790   3.704   1.767   2.221
 1740SOL    HW1  791   3.758   1.738   2.301
 1740SOL    HW2  792   3.734   1.857   2.192
 1741SOL     OW  793   1.889   1.596   1.979
 1741SOL    HW1  794   1.870   1.500   2.000
 1741SOL    HW2  795   1.856   1.654   2.054
 1743SOL     OW  796   3.503   1.108   2.294
 1743SOL    HW1  797   3.589   1.110   2.242
 1743SOL    HW2  798   3.517   1.155   2.382
 1745SOL     OW  799   2.475   1.365   2.588
 1745SOL    HW1  800   2.426   1.278   2.597
 1745SOL    HW2  801   2.452   1.408   2.501
 1746SOL     OW  802   3.155   1.228   3.285
 1746SOL    HW1  803   3.192   1.155   3.227
 1746SOL    HW2  804   3.207   1.233   3.370
 1748SOL     OW  805   2.059   0.976   3.126
 1748SOL    HW1  806   2.148   0.931   3.112
 1748SOL    HW2  807   1.986   0.911   3.107
 1749SOL     OW  808   3.387   0.999   2.052
 1749SOL    HW1  809   3.324   0.923   2.065
 1749SOL    HW2  810   3.435   1.017   2.138
 1750SOL     OW  811   3.049   1.792   3.478
 1750SOL    HW1  812   3.073   1.852   3.402
 1750SOL    HW2  813   3.056   1.697   3.448
 1752SOL     OW  814   3.328   1.417   2.815
 1752SOL    HW1  815   3.269   1.423   2.895
 1752SOL    HW2  816   3.313   1.329   2.769
 1753SOL     OW  817   3.529   1.714   2.434
 1753SOL    HW1  818   3.488   1.691   2.346
 1753SOL    HW2  819   3.511   1.640   2.499
 1754SOL     OW  820   2.460   0.729   2.132
 1754SOL    HW1  821   2.484   0.798   2.064
 1754SOL    HW2  822   2.382   0.762   2.186
 1756SOL     OW  823   3.438   1.662   2.169
 1756SOL    HW1  824   3.527   1.708   2.172
 1756SOL    HW2  825   3.417   1.638   2.074
 1762SOL     OW  826   1.938   0.811   2.651
 1762SOL    HW1  827   2.037   0.799   2.660
 1762SOL    HW2  828   1.914   0.906   2.672
 1763SOL     OW  829   1.992   1.821   3.433
 1763SOL    HW1  830   1.982   1.806   3.532
 1763SOL    HW2  831   1.906   1.857   3.397
 1766SOL     OW  832   3.224   1.144   2.407
 1766SOL    HW1  833   3.307   1.115   2.359
 1766SOL    HW2  834   3.175   1.211   2.351
 1768SOL     OW  835   2.870   1.456   2.339
 1768SOL    HW1  836   2.824   1.528   2.287
 1768SOL    HW2  837   2.866   1.476   2.437
 1769SOL     OW  838   2.213   1.801   2.715
 1769SOL    HW1  839   2.263   1.715   2.721
 1769SOL    HW2  840   2.278   1.878   2.712
 1771SOL     OW  841   3.089   1.550   3.368
 1771SOL    HW1  842   3.095   1.473   3.432
 1771SOL    HW2  843   3.037   1.524   3.288
 1772SOL     OW  844   2.183   0.943   2.104
 1772SOL    HW1  845   2.265   0.982   2.062
 1772SOL    HW2  846   2.156   0.861   2.055
 1774SOL     OW  847   2.323   1.266   3.589
 1774SOL    HW1  848   2.273   1.267   3.503
 1774SOL    HW2  849   2.260   1.248   3.665
 1775SOL     OW  850   2.973   1.776   2.099
 1775SOL    HW1  851   2.913   1.714   2.149
 1775SOL    HW2  852   3.004   1.732   2.014
 1777SOL     OW  853   3.494   1.377   1.943
 1777SOL    HW1  854   3.462   1.471   1.933
 1777SOL    HW2  855   3.418   1.314   1.931
 1778SOL     OW  856   2.326   1.743   2.185
 1778SOL    HW1  857   2.359   1.782   2.271
 1778SOL    HW2  858   2.402   1.736   2.120
 1780SOL     OW  859   2.111   1.785   3.103
 1780SOL    HW1  860   2.168   1.720   3.153
 1780SOL    HW2  861   2.095   1.752   3.010
 1781SOL     OW  862   2.802   1.698   2.766
 1781SOL    HW1  863   2.882   1.641   2.787
 1781SOL    HW2  864   2.753   1.658   2.689
 1782SOL     OW  865   2.244   0.700   2.342
 1782SOL    HW1  866   2.289   0.610   2.339
 1782SOL    HW2  867   2.150   0.689   2.375
 1786SOL     OW  868   2.750   1.514   3.057
 1786SOL    HW1  869   2.727   1.489   2.963
 1786SOL    HW2  870   2.811   1.445   3.096
 1788SOL     OW  871   2.665   1.402   2.786
 1788SOL    HW1  872   2.755   1.416   2.744
 1788SOL    HW2  873   2.594   1.404   2.715
 1791SOL     OW  874   3.296   1.188   1.903
 1791SOL    HW1  875   3.328   1.112   1.960
 1791SOL    HW2  876   3.204   1.215   1.933
 1795SOL     OW  877   3.089   1.570   2.655
 1795SOL    HW1  878   3.110   1.644   2.590
 1795SOL    HW2  879   3.157   1.570   2.728
 1796SOL     OW  880   2.321   1.152   2.603
 1796SOL    HW1  881   2.250   1.125   2.668
 1796SOL    HW2  882   2.295   1.124   2.510
 1797SOL     OW  883   3.133   1.797   2.453
 1797SOL    HW1  884   3.177   1.861   2.389
 1797SOL    HW2  885   3.083   1.849   2.523
 1803SOL     OW  886   3.291   1.173   2.729
 1803SOL    HW1  887   3.236   1.089   2.722
 1803SOL    HW2  888   3.317   1.202   2.637
 1806SOL     OW  889   2.350   1.385   2.036
 1806SOL    HW1  890   2.263   1.370   2.083
 1806SOL    HW2  891   2.333   1.411   1.941
 1807SOL     OW  892   3.526   1.280   2.519
 1807SOL    HW1  893   3.625   1.288   2.533
 1807SOL    HW2  894   3.481   1.364   2.550
 1811SOL     OW  895   2.926   1.347   3.202
 1811SOL    HW1  896   2.846   1.324   3.257
 1811SOL    HW2  897   3.009   1.321   3.251
 1812SOL     OW  898   3.454   1.629   3.487
 1812SOL    HW1  899   3.481   1.663   3.397
 1812SOL    HW2  900   3.533   1.591   3.533
 1813SOL     OW  901   2.973   1.195   2.962
 1813SOL    HW1  902   2.933   1.239   3.043
 1813SOL    HW2  903   2.932   1.232   2.879
 1814SOL     OW  904   3.500   1.099   2.941
 1814SOL    HW1  905   3.505   1.180   3.000
 1814SOL    HW2  906   3.414   1.101   2.890
 1816SOL     OW  907   2.842   1.116   3.581
 1816SOL    HW1  908   2.743   1.122   3.591
 1816SOL    HW2  909   2.865   1.036   3.525
 1817SOL     OW  910   2.567   1.050   2.230
 1817SOL    HW1  911   2.553   1.057   2.329
 1817SOL    HW2  912   2.651   0.999   2.212
 1818SOL     OW  913   2.272   0.813   3.113
 1818SOL    HW1  914   2.358   0.825   3.163
 1818SOL    HW2  915   2.230   0.726   3.140
 1820SOL     OW  916   1.926   1.564   3.193
 1820SOL    HW1  917   1.880   1.646   3.159
 1820SOL    HW2  918   2.024   1.583   3.202
 1821SOL     OW  919   2.229   1.100   2.363
 1821SOL    HW1  920   2.222   1.183   2.307
 1821SOL    HW2  921   2.233   1.020   2.303
 1823SOL     OW  922   3.114   1.348   2.250
 1823SOL    HW1  923   3.164   1.425   2.290
 1823SOL    HW2  924   3.019   1.350   2.282
 1824SOL     OW  925   3.134   1.445   3.004
 1824SOL    HW1  926   3.181   1.458   3.091
 1824SOL    HW2  927   3.068   1.371   3.013
 1826SOL     OW  928   2.216   1.510   3.191
 1826SOL    HW1  929   2.195   1.466   3.104
 1826SOL    HW2  930   2.313   1.536   3.194
 1831SOL     OW  931   2.435   0.870   2.891
 1831SOL    HW1  932   2.479   0.959   2.882
 1831SOL    HW2  933   2.372   0.870   2.968
 1835SOL     OW  934   1.899   1.310   3.144
 1835SOL    HW1  935   1.952   1.261   3.212
 1835SOL    HW2  936   1.921   1.408   3.149
 1840SOL     OW  937   2.885   0.766   2.828
 1840SOL    HW1  938   2.900   0.787   2.924
 1840SOL    HW2  939   2.855   0.671   2.819
 1841SOL     OW  940   2.842   1.573   3.562
 1841SOL    HW1  941   2.822   1.617   3.474
 1841SOL    HW2  942   2.881   1.482   3.546
 1846SOL     OW  943   2.930   1.333   2.711
 1846SOL    HW1  944   2.937   1.249   2.656
 1846SOL    HW2  945   2.992   1.402   2.675
 1847SOL     OW  946   2.181   0.810   2.811
 1847SOL    HW1  947   2.274   0.846   2.816
 1847SOL    HW2  948   2.175   0.725   2.863
 1851SOL     OW  949   1.870   1.326   2.062
 1851SOL    HW1  950   1.777   1.347   2.031
 1851SOL    HW2  951   1.880   1.227   2.075
 1852SOL     OW  952   1.950   1.801   2.789
 1852SOL    HW1  953   1.908   1.715   2.762
 1852SOL    HW2  954   2.044   1.804   2.755
 1853SOL     OW  955   2.366   1.568   2.772
 1853SOL    HW1  956   2.432   1.642   2.781
 1853SOL    HW2  957   2.410   1.489   2.730
 1860SOL     OW  958   2.114   1.564   3.606
 1860SOL    HW1  959   2.084   1.621   3.682
 1860SOL    HW2  960   2.107   1.467   3.632
 1862SOL     OW  961   2.792   1.678   3.327
 1862SOL    HW1  962   2.768   1.660   3.232
 1862SOL    HW2  963   2.822   1.772   3.337
 1864SOL     OW  964   2.021   1.137   3.328
 1864SOL    HW1  965   2.043   1.076   3.404
 1864SOL    HW2  966   2.031   1.088   3.242
 1865SOL     OW  967   3.209   1.059   3.096
 1865SOL    HW1  968   3.233   0.996   3.022
 1865SOL    HW2  969   3.119   1.099   3.078
 1866SOL     OW  970   3.164   0.855   2.171
 1866SOL    HW1  971   3.078   0.824   2.213
 1866SOL    HW2  972   3.160   0.841   2.072
 1867SOL     OW  973   3.621   1.747   3.016
 1867SOL    HW1  974   3.682   1.777   2.943
 1867SOL    HW2  975   3.583   1.658   2.994
 1868SOL     OW  976   3.114   1.731   2.990
 1868SOL    HW1  977   3.198   1.736   2.936
 1868SOL    HW2  978   3.091   1.635   3.008
 1869SOL     OW  979   1.945   1.258   2.884
 1869SOL    HW1  980   1.940   1.257   2.984
 1869SOL    HW2  981   1.862   1.217   2.846
 1870SOL     OW  982   2.550   1.662   3.578
 1870SOL    HW1  983   2.494   1.743   3.587
 1870SOL    HW2  984   2.602   1.666   3.492
 1872SOL     OW  985   3.250   1.573   2.339
 1872SOL    HW1  986   3.317   1.585   2.265
 1872SOL    HW2  987   3.210   1.662   2.362
 1873SOL     OW  988   1.992   1.794   3.713
 1873SOL    HW1  989   1.951   1.720   3.766
 1873SOL    HW2  990   2.056   1.845   3.771
 1874SOL     OW  991   3.142   0.927   2.534
 1874SOL    HW1  992   3.202   0.846   2.536
 1874SOL    HW2  993   3.182   0.996   2.474
 1875SOL     OW  994   2.692   1.273   3.284
 1875SOL    HW1  995   2.687   1.306   3.379
 1875SOL    HW2  996   2.606   1.292   3.238
 1876SOL     OW  997   2.534   1.616   2.016
 1876SOL    HW1  998   2.543   1.626   1.917
 1876SOL    HW2  999   2.494   1.527   2.037
 1877SOL     OW 1000   3.512   1.720   3.256
 1877SOL    HW1 1001   3.565   1.730   3.172
 1877SOL    HW2 1002   3.485   1.810   3.290
 1880SOL     OW 1003   3.056   1.612   1.893
 1880SOL    HW1 1004   3.062   1.519   1.930
 1880SOL    HW2 1005   2.997   1.612   1.813
 1881SOL     OW 1006   2.684   1.002   3.234
 1881SOL    HW1 1007   2.724   1.001   3.142
 1881SOL    HW2 1008   2.694   1.094   3.274
 1882SOL     OW 1009   2.778   0.910   2.153
 1882SOL    HW1 1010   2.841   0.948   2.085
 1882SOL    HW2 1011   2.818   0.827   2.192
 1883SOL     OW 1012   3.366   1.607   1.906
 1883SOL    HW1 1013   3.274   1.644   1.913
 1883SOL    HW2 1014   3.404   1.627   1.816
 1884SOL     OW 1015   2.234   1.288   3.352
 1884SOL    HW1 1016   2.221   1.381   3.318
 1884SOL    HW2 1017   2.150   1.236   3.339
 1885SOL     OW 1018   3.476   1.292   3.151
 1885SOL    HW1 1019   3.536   1.295   3.231
 1885SOL    HW2 1020   3.401   1.356   3.164
 1886SOL     OW 1021   2.901   1.098   2.558
 1886SOL    HW1 1022   2.831   1.051   2.612
 1886SOL    HW2 1023   2.960   1.030   2.515
 1888SOL     OW 1024   2.452   1.487   2.353
 1888SOL    HW1 1025   2.494   1.429   2.283
 1888SOL    HW2 1026   2.408   1.566   2.309
 1890SOL     OW 1027   2.117   1.348   2.152
 1890SOL    HW1 1028   2.021   1.349   2.125
 1890SOL    HW2 1029   2.129   1.401   2.236
 1896SOL     OW 1030   3.045   1.335   1.981
 1896SOL    HW1 1031   2.946   1.324   1.983
 1896SOL    HW2 1032   3.079   1.350   2.074
 1898SOL     OW 1033   3.355   1.767   2.821
 1898SOL    HW1 1034   3.388   1.831   2.752
 1898SOL    HW2 1035   3.421   1.761   2.896
 1901SOL     OW 1036   2.252   1.741   3.422
 1901SOL    HW1 1037   2.161   1.782   3.420
 1901SOL    HW2 1038   2.245   1.647   3.454
 1904SOL     OW 1039   2.456   0.745   2.514
 1904SOL    HW1 1040   2.506   0.830   2.495
 1904SOL    HW2 1041   2.368   0.747   2.466
 1907SOL     OW 1042   2.721   1.374   1.878
 1907SOL    HW1 1043   2.675   1.389   1.966
 1907SOL    HW2 1044   2.765   1.459   1.848
 1908SOL     OW 1045   2.523   1.790   2.815
 1908SOL    HW1 1046   2.477   1.878   2.802
 1908SOL    HW2 1047   2.622   1.802   2.808
 1909SOL     OW 1048   2.721   0.956   2.723
 1909SOL    HW1 1049   2.775   0.887   2.771
 1909SOL    HW2 1050   2.689   1.025   2.789
 1910SOL     OW 1051   2.945   0.984   1.949
 1910SOL    HW1 1052   2.922   1.037   1.867
 1910SOL    HW2 1053   3.026   0.928   1.930
 1911SOL     OW 1054   3.723   1.569   2.713
 1911SOL    HW1 1055   3.652   1.557   2.643
 1911SOL    HW2 1056   3.724   1.490   2.773
 1912SOL     OW 1057   2.083   1.314   3.706
 1912SOL    HW1 1058   2.018   1.241   3.685
 1912SOL    HW2 1059   2.087   1.328   3.804
 1913SOL     OW 1060   1.941   1.240   2.515
 1913SOL    HW1 1061   1.940   1.193   2.603
 1913SOL    HW2 1062   2.023   1.212   2.464
 1914SOL     OW 1063   2.534   1.391   3.486
 1914SOL    HW1 1064   2.456   1.341   3.524
 1914SOL    HW2 1065   2.531   1.486   3.517
 1917SOL     OW 1066   3.567   1.487   2.966
 1917SOL    HW1 1067   3.474   1.462   2.939
 1917SOL    HW2 1068   3.593   1.437   3.048
 1919SOL     OW 1069   2.674   1.586   2.549
 1919SOL    HW1 1070   2.706   1.596   2.455
 1919SOL    HW2 1071   2.595   1.524   2.551
 1922SOL     OW 1072   2.632   1.330   2.163
 1922SOL    HW1 1073   2.586   1.243   2.180
 1922SOL    HW2 1074   2.723   1.327   2.204
 1923SOL     OW 1075   2.480   1.567   3.146
 1923SOL    HW1 1076   2.475   1.649   3.203
 1923SOL    HW2 1077   2.569   1.564   3.101
 1927SOL     OW 1078   1.901   1.077   2.162
 1927SOL    HW1 1079   2.000   1.066   2.153
 1927SOL    HW2 1080   1.861   0.991   2.194
 1928SOL     OW 1081   2.737   1.646   2.199
 1928SOL    HW1 1082   2.660   1.611   2.145
 1928SOL    HW2 1083   2.705   1.717   2.261
 1946SOL     OW 1084   1.889   1.596   3.841
 1946SOL    HW1 1085   1.870   1.500   3.862
 1946SOL    HW2 1086   1.856   1.654   3.916
 1968SOL     OW 1087   2.973   1.776   3.961
 1968SOL    HW1 1088   2.913   1.714   4.011
 1968SOL    HW2 1089   3.004   1.732   3.876
 1970SOL     OW 1090   2.326   1.743   4.047
 1970SOL    HW1 1091   2.359   1.782   4.133
 1970SOL    HW2 1092   2.402   1.736   3.982
 1991SOL     OW 1093   2.350   1.385   3.898
 1991SOL    HW1 1094   2.263   1.370   3.945
 1991SOL    HW2 1095   2.333   1.411   3.803
 2031SOL     OW 1096   2.534   1.616   3.878
 2031SOL    HW1 1097   2.543   1.626   3.779
 2031SOL    HW2 1098   2.494   1.527   3.899
 2034SOL     OW 1099   3.056   1.612   3.755
 2034SOL    HW1 1100   3.062   1.519   3.792
 2034SOL    HW2 1101   2.997   1.612   3.675
 2037SOL     OW 1102   3.366   1.607   3.768
 2037SOL    HW1 1103   3.274   1.644   3.775
 2037SOL    HW2 1104   3.404   1.627   3.678
 2050SOL     OW 1105   2.721   1.374   3.740
 2050SOL    HW1 1106   2.675   1.389   3.828
 2050SOL    HW2 1107   2.765   1.459   3.710
 2068SOL     OW 1108   2.087   2.137   0.996
 2068SOL    HW1 1109   2.122   2.120   1.088
 2068SOL    HW2 1110   1.999   2.092   0.984
 2070SOL     OW 1111   2.431   3.137   1.165
 2070SOL    HW1 1112   2.338   3.130   1.128
 2070SOL    HW2 1113   2.442   3.226   1.209
 2074SOL     OW 1114   2.630   3.006   1.023
 2074SOL    HW1 1115   2.552   3.023   1.083
 2074SOL    HW2 1116   2.664   3.093   0.987
 2075SOL     OW 1117   2.712   2.660   1.823
 2075SOL    HW1 1118   2.708   2.736   1.888
 2075SOL    HW2 1119   2.734   2.696   1.732
 2077SOL     OW 1120   2.548   3.023   1.803
 2077SOL    HW1 1121   2.608   3.102   1.817
 2077SOL    HW2 1122   2.462   3.054   1.762
 2078SOL     OW 1123   2.197   3.297   1.061
 2078SOL    HW1 1124   2.119   3.266   1.008
 2078SOL    HW2 1125   2.255   3.355   1.004
 2079SOL     OW 1126   3.322   3.367   1.339
 2079SOL    HW1 1127   3.346   3.461   1.365
 2079SOL    HW2 1128   3.306   3.313   1.421
 2080SOL     OW 1129   2.300   2.254   1.499
 2080SOL    HW1 1130   2.382   2.198   1.508
 2080SOL    HW2 1131   2.219   2.196   1.503
 2083SOL     OW 1132   2.989   3.203   1.690
 2083SOL    HW1 1133   3.036   3.203   1.778
 2083SOL    HW2 1134   2.941   3.116   1.679
 2085SOL     OW 1135   2.102   2.953   0.886
 2085SOL    HW1 1136   2.116   2.869   0.938
 2085SOL    HW2 1137   2.047   3.017   0.941
 2086SOL     OW 1138   2.482   3.648   1.439
 2086SOL    HW1 1139   2.390   3.631   1.474
 2086SOL    HW2 1140   2.510   3.740   1.465
 2088SOL     OW 1141   3.456   1.976   1.480
 2088SOL    HW1 1142   3.438   2.043   1.408
 2088SOL    HW2 1143   3.453   2.022   1.569
 2094SOL     OW 1144   1.975   2.599   1.597
 2094SOL    HW1 1145   2.063   2.586   1.642
 2094SOL    HW2 1146   1.962   2.696   1.575
 2096SOL     OW 1147   3.155   3.090   1.423
 2096SOL    HW1 1148   3.192   3.017   1.365
 2096SOL    HW2 1149   3.207   3.095   1.508
 2098SOL     OW 1150   2.059   2.838   1.264
 2098SOL    HW1 1151   2.148   2.793   1.250
 2098SOL    HW2 1152   1.986   2.773   1.245
 2100SOL     OW 1153   3.049   3.654   1.616
 2100SOL    HW1 1154   3.073   3.714   1.540
 2100SOL    HW2 1155   3.056   3.559   1.586
 2101SOL     OW 1156   2.179   2.113   1.801
 2101SOL    HW1 1157   2.250   2.184   1.807
 2101SOL    HW2 1158   2.091   2.152   1.829
 2105SOL     OW 1159   3.143   2.207   0.944
 2105SOL    HW1 1160   3.057   2.157   0.931
 2105SOL    HW2 1161   3.205   2.153   1.000
 2107SOL     OW 1162   2.669   2.467   1.465
 2107SOL    HW1 1163   2.622   2.464   1.554
 2107SOL    HW2 1164   2.618   2.412   1.399
 2108SOL     OW 1165   3.256   2.331   1.674
 2108SOL    HW1 1166   3.236   2.374   1.762
 2108SOL    HW2 1167   3.334   2.269   1.683
 2109SOL     OW 1168   2.835   2.752   1.572
 2109SOL    HW1 1169   2.881   2.668   1.543
 2109SOL    HW2 1170   2.779   2.786   1.497
 2110SOL     OW 1171   2.853   2.272   1.242
 2110SOL    HW1 1172   2.776   2.306   1.296
 2110SOL    HW2 1173   2.819   2.221   1.163
 2112SOL     OW 1174   1.938   2.673   0.789
 2112SOL    HW1 1175   2.037   2.661   0.798
 2112SOL    HW2 1176   1.914   2.768   0.810
 2113SOL     OW 1177   1.992   3.683   1.571
 2113SOL    HW1 1178   1.982   3.668   1.670
 2113SOL    HW2 1179   1.906   3.719   1.535
 2115SOL     OW 1180   3.581   2.447   1.831
 2115SOL    HW1 1181   3.555   2.536   1.795
 2115SOL    HW2 1182   3.579   2.379   1.758
 2117SOL     OW 1183   2.412   2.058   0.885
 2117SOL    HW1 1184   2.407   2.053   0.985
 2117SOL    HW2 1185   2.414   2.154   0.856
 2121SOL     OW 1186   3.089   3.412   1.506
 2121SOL    HW1 1187   3.095   3.335   1.570
 2121SOL    HW2 1188   3.037   3.386   1.426
 2124SOL     OW 1189   2.323   3.128   1.727
 2124SOL    HW1 1190   2.273   3.129   1.641
 2124SOL    HW2 1191   2.260   3.110   1.803
 2126SOL     OW 1192   2.064   2.147   1.498
 2126SOL    HW1 1193   1.984   2.207   1.485
 2126SOL    HW2 1194   2.054   2.098   1.584
 2130SOL     OW 1195   2.111   3.647   1.241
 2130SOL    HW1 1196   2.168   3.582   1.291
 2130SOL    HW2 1197   2.095   3.614   1.148
 2133SOL     OW 1198   3.409   2.084   1.729
 2133SOL    HW1 1199   3.404   2.121   1.821
 2133SOL    HW2 1200   3.337   2.015   1.717
 2135SOL     OW 1201   2.643   2.126   1.749
 2135SOL    HW1 1202   2.710   2.065   1.792
 2135SOL    HW2 1203   2.570   2.145   1.814
 2136SOL     OW 1204   2.750   3.376   1.195
 2136SOL    HW1 1205   2.727   3.351   1.101
 2136SOL    HW2 1206   2.811   3.307   1.234
 2137SOL     OW 1207   3.213   2.452   1.433
 2137SOL    HW1 1208   3.241   2.409   1.518
 2137SOL    HW2 1209   3.238   2.548   1.434
 2138SOL     OW 1210   2.665   3.264   0.924
 2138SOL    HW1 1211   2.755   3.278   0.882
 2138SOL    HW2 1212   2.594   3.266   0.853
 2139SOL     OW 1213   2.784   2.365   0.899
 2139SOL    HW1 1214   2.759   2.356   0.803
 2139SOL    HW2 1215   2.832   2.283   0.930
 2144SOL     OW 1216   2.938   2.545   1.464
 2144SOL    HW1 1217   2.858   2.484   1.467
 2144SOL    HW2 1218   3.019   2.492   1.440
 2149SOL     OW 1219   1.940   2.418   1.386
 2149SOL    HW1 1220   2.032   2.417   1.345
 2149SOL    HW2 1221   1.934   2.492   1.453
 2150SOL     OW 1222   2.423   2.084   1.147
 2150SOL    HW1 1223   2.461   2.000   1.184
 2150SOL    HW2 1224   2.335   2.103   1.191
 2154SOL     OW 1225   3.328   2.452   0.992
 2154SOL    HW1 1226   3.298   2.357   0.999
 2154SOL    HW2 1227   3.401   2.468   1.058
 2160SOL     OW 1228   3.616   3.085   1.588
 2160SOL    HW1 1229   3.707   3.046   1.575
 2160SOL    HW2 1230   3.624   3.181   1.612
 2161SOL     OW 1231   2.926   3.209   1.340
 2161SOL    HW1 1232   2.846   3.186   1.395
 2161SOL    HW2 1233   3.009   3.183   1.389
 2162SOL     OW 1234   3.454   3.491   1.625
 2162SOL    HW1 1235   3.481   3.525   1.535
 2162SOL    HW2 1236   3.533   3.453   1.671
 2163SOL     OW 1237   2.973   3.057   1.100
 2163SOL    HW1 1238   2.933   3.101   1.181
 2163SOL    HW2 1239   2.932   3.094   1.017
 2164SOL     OW 1240   3.500   2.961   1.079
 2164SOL    HW1 1241   3.505   3.042   1.138
 2164SOL    HW2 1242   3.414   2.963   1.028
 2165SOL     OW 1243   2.777   1.951   1.402
 2165SOL    HW1 1244   2.802   1.931   1.307
 2165SOL    HW2 1245   2.849   2.007   1.444
 2166SOL     OW 1246   2.842   2.978   1.719
 2166SOL    HW1 1247   2.743   2.984   1.729
 2166SOL    HW2 1248   2.865   2.898   1.663
 2168SOL     OW 1249   2.272   2.675   1.251
 2168SOL    HW1 1250   2.358   2.687   1.301
 2168SOL    HW2 1251   2.230   2.588   1.278
 2169SOL     OW 1252   3.136   2.248   1.262
 2169SOL    HW1 1253   3.157   2.322   1.326
 2169SOL    HW2 1254   3.047   2.265   1.219
 2170SOL     OW 1255   1.926   3.426   1.331
 2170SOL    HW1 1256   1.880   3.508   1.297
 2170SOL    HW2 1257   2.024   3.445   1.340
 2172SOL     OW 1258   2.428   2.399   0.865
 2172SOL    HW1 1259   2.440   2.465   0.791
 2172SOL    HW2 1260   2.474   2.433   0.948
 2174SOL     OW 1261   3.134   3.307   1.142
 2174SOL    HW1 1262   3.181   3.320   1.229
 2174SOL    HW2 1263   3.068   3.233   1.151
 2176SOL     OW 1264   2.216   3.372   1.329
 2176SOL    HW1 1265   2.195   3.328   1.242
 2176SOL    HW2 1266   2.313   3.398   1.332
 2177SOL     OW 1267   2.264   2.613   1.598
 2177SOL    HW1 1268   2.332   2.668   1.551
 2177SOL    HW2 1269   2.304   2.525   1.625
 2178SOL     OW 1270   3.449   2.641   1.670
 2178SOL    HW1 1271   3.357   2.679   1.665
 2178SOL    HW2 1272   3.509   2.688   1.605
 2179SOL     OW 1273   2.875   1.967   1.770
 2179SOL    HW1 1274   2.881   2.052   1.718
 2179SOL    HW2 1275   2.907   1.891   1.713
 2180SOL     OW 1276   2.366   1.912   1.740
 2180SOL    HW1 1277   2.324   1.855   1.670
 2180SOL    HW2 1278   2.300   1.981   1.772
 2181SOL     OW 1279   2.435   2.732   1.029
 2181SOL    HW1 1280   2.479   2.821   1.020
 2181SOL    HW2 1281   2.372   2.732   1.106
 2182SOL     OW 1282   3.222   2.724   1.045
 2182SOL    HW1 1283   3.147   2.724   0.979
 2182SOL    HW2 1284   3.259   2.632   1.054
 2184SOL     OW 1285   2.169   2.075   1.231
 2184SOL    HW1 1286   2.146   2.112   1.321
 2184SOL    HW2 1287   2.139   1.980   1.225
 2185SOL     OW 1288   1.899   3.172   1.282
 2185SOL    HW1 1289   1.952   3.123   1.350
 2185SOL    HW2 1290   1.921   3.270   1.287
 2186SOL     OW 1291   2.594   2.496   1.064
 2186SOL    HW1 1292   2.653   2.470   0.988
 2186SOL    HW2 1293   2.566   2.592   1.053
 2187SOL     OW 1294   3.590   2.797   1.854
 2187SOL    HW1 1295   3.544   2.790   1.765
 2187SOL    HW2 1296   3.528   2.841   1.920
 2190SOL     OW 1297   2.885   2.628   0.966
 2190SOL    HW1 1298   2.900   2.649   1.062
 2190SOL    HW2 1299   2.855   2.533   0.957
 2191SOL     OW 1300   2.842   3.435   1.700
 2191SOL    HW1 1301   2.822   3.479   1.612
 2191SOL    HW2 1302   2.881   3.344   1.684
 2192SOL     OW 1303   3.721   3.380   1.605
 2192SOL    HW1 1304   3.735   3.407   1.510
 2192SOL    HW2 1305   3.804   3.402   1.658
 2193SOL     OW 1306   2.212   2.760   1.804
 2193SOL    HW1 1307   2.288   2.804   1.852
 2193SOL    HW2 1308   2.247   2.713   1.722
 2197SOL     OW 1309   2.181   2.672   0.949
 2197SOL    HW1 1310   2.274   2.708   0.954
 2197SOL    HW2 1311   2.175   2.587   1.001
 2198SOL     OW 1312   2.201   2.371   1.006
 2198SOL    HW1 1313   2.149   2.288   0.989
 2198SOL    HW2 1314   2.278   2.376   0.942
 2199SOL     OW 1315   3.000   2.242   1.678
 2199SOL    HW1 1316   2.955   2.305   1.742
 2199SOL    HW2 1317   3.093   2.273   1.661
 2200SOL     OW 1318   3.022   2.069   1.477
 2200SOL    HW1 1319   3.022   2.133   1.554
 2200SOL    HW2 1320   3.050   2.117   1.394
 2204SOL     OW 1321   2.864   2.658   1.238
 2204SOL    HW1 1322   2.905   2.626   1.324
 2204SOL    HW2 1323   2.768   2.631   1.235
 2205SOL     OW 1324   1.902   2.406   1.114
 2205SOL    HW1 1325   1.987   2.373   1.073
 2205SOL    HW2 1326   1.915   2.421   1.212
 2206SOL     OW 1327   2.051   2.382   1.722
 2206SOL    HW1 1328   2.110   2.342   1.652
 2206SOL    HW2 1329   1.993   2.453   1.681
 2207SOL     OW 1330   3.231   2.812   1.660
 2207SOL    HW1 1331   3.270   2.901   1.680
 2207SOL    HW2 1332   3.241   2.792   1.563
 2209SOL     OW 1333   3.519   2.466   1.206
 2209SOL    HW1 1334   3.481   2.397   1.268
 2209SOL    HW2 1335   3.601   2.430   1.162
 2210SOL     OW 1336   2.114   3.426   1.744
 2210SOL    HW1 1337   2.084   3.483   1.820
 2210SOL    HW2 1338   2.107   3.329   1.770
 2211SOL     OW 1339   2.533   2.326   1.269
 2211SOL    HW1 1340   2.499   2.237   1.239
 2211SOL    HW2 1341   2.559   2.380   1.189
 2212SOL     OW 1342   2.792   3.540   1.465
 2212SOL    HW1 1343   2.768   3.522   1.370
 2212SOL    HW2 1344   2.822   3.634   1.475
 2214SOL     OW 1345   2.021   2.999   1.466
 2214SOL    HW1 1346   2.043   2.938   1.542
 2214SOL    HW2 1347   2.031   2.950   1.380
 2215SOL     OW 1348   3.209   2.921   1.234
 2215SOL    HW1 1349   3.233   2.858   1.160
 2215SOL    HW2 1350   3.119   2.961   1.216
 2219SOL     OW 1351   1.945   3.120   1.022
 2219SOL    HW1 1352   1.940   3.119   1.122
 2219SOL    HW2 1353   1.862   3.079   0.984
 2220SOL     OW 1354   2.550   3.524   1.716
 2220SOL    HW1 1355   2.494   3.605   1.725
 2220SOL    HW2 1356   2.602   3.528   1.630
 2224SOL     OW 1357   1.992   3.656   1.851
 2224SOL    HW1 1358   1.951   3.582   1.904
 2224SOL    HW2 1359   2.056   3.707   1.909
 2226SOL     OW 1360   2.692   3.135   1.422
 2226SOL    HW1 1361   2.687   3.168   1.517
 2226SOL    HW2 1362   2.606   3.154   1.376
 2232SOL     OW 1363   2.684   2.864   1.372
 2232SOL    HW1 1364   2.724   2.863   1.280
 2232SOL    HW2 1365   2.694   2.956   1.412
 2235SOL     OW 1366   2.234   3.150   1.490
 2235SOL    HW1 1367   2.221   3.243   1.456
 2235SOL    HW2 1368   2.150   3.098   1.477
 2236SOL     OW 1369   3.476   3.154   1.289
 2236SOL    HW1 1370   3.536   3.157   1.369
 2236SOL    HW2 1371   3.401   3.218   1.302
 2238SOL     OW 1372   2.876   2.098   0.971
 2238SOL    HW1 1373   2.868   2.062   0.878
 2238SOL    HW2 1374   2.874   2.022   1.036
 2240SOL     OW 1375   3.571   2.247   1.381
 2240SOL    HW1 1376   3.644   2.316   1.385
 2240SOL    HW2 1377   3.599   2.172   1.322
 2242SOL     OW 1378   1.967   2.875   1.726
 2242SOL    HW1 1379   1.890   2.842   1.780
 2242SOL    HW2 1380   2.052   2.845   1.768
 2243SOL     OW 1381   2.534   2.065   1.489
 2243SOL    HW1 1382   2.624   2.049   1.449
 2243SOL    HW2 1383   2.542   2.070   1.588
 2244SOL     OW 1384   3.302   2.718   1.398
 2244SOL    HW1 1385   3.245   2.770   1.335
 2244SOL    HW2 1386   3.398   2.730   1.374
 2247SOL     OW 1387   2.475   2.704   1.431
 2247SOL    HW1 1388   2.531   2.785   1.414
 2247SOL    HW2 1389   2.534   2.624   1.434
 2249SOL     OW 1390   2.578   2.427   1.708
 2249SOL    HW1 1391   2.597   2.492   1.782
 2249SOL    HW2 1392   2.638   2.347   1.717
 2250SOL     OW 1393   3.312   3.082   1.633
 2250SOL    HW1 1394   3.303   3.072   1.732
 2250SOL    HW2 1395   3.408   3.075   1.607
 2251SOL     OW 1396   2.252   3.603   1.560
 2251SOL    HW1 1397   2.161   3.644   1.558
 2251SOL    HW2 1398   2.245   3.509   1.592
 2252SOL     OW 1399   3.536   2.745   1.254
 2252SOL    HW1 1400   3.509   2.656   1.217
 2252SOL    HW2 1401   3.537   2.813   1.181
 2255SOL     OW 1402   3.639   2.204   1.642
 2255SOL    HW1 1403   3.622   2.235   1.548
 2255SOL    HW2 1404   3.555   2.167   1.680
 2256SOL     OW 1405   3.592   2.796   1.517
 2256SOL    HW1 1406   3.630   2.887   1.532
 2256SOL    HW2 1407   3.584   2.779   1.418
 2259SOL     OW 1408   2.721   2.818   0.861
 2259SOL    HW1 1409   2.775   2.749   0.909
 2259SOL    HW2 1410   2.689   2.887   0.927
 2262SOL     OW 1411   2.083   3.176   1.844
 2262SOL    HW1 1412   2.018   3.103   1.823
 2262SOL    HW2 1413   2.087   3.190   1.942
 2264SOL     OW 1414   2.534   3.253   1.624
 2264SOL    HW1 1415   2.456   3.203   1.662
 2264SOL    HW2 1416   2.531   3.348   1.655
 2265SOL     OW 1417   3.686   2.054   1.227
 2265SOL    HW1 1418   3.682   1.964   1.271
 2265SOL    HW2 1419   3.689   2.043   1.128
 2268SOL     OW 1420   2.179   2.409   1.280
 2268SOL    HW1 1421   2.217   2.350   1.352
 2268SOL    HW2 1422   2.219   2.383   1.192
 2270SOL     OW 1423   3.286   2.076   1.112
 2270SOL    HW1 1424   3.338   2.011   1.167
 2270SOL    HW2 1425   3.237   2.139   1.173
 2271SOL     OW 1426   2.863   1.896   1.154
 2271SOL    HW1 1427   2.800   1.824   1.123
 2271SOL    HW2 1428   2.956   1.860   1.154
 2273SOL     OW 1429   2.480   3.429   1.284
 2273SOL    HW1 1430   2.475   3.511   1.341
 2273SOL    HW2 1431   2.569   3.426   1.239
 2279SOL     OW 1432   2.092   2.490   1.975
 2279SOL    HW1 1433   1.999   2.488   2.012
 2279SOL    HW2 1434   2.093   2.451   1.883
 2280SOL     OW 1435   2.087   2.137   2.858
 2280SOL    HW1 1436   2.122   2.120   2.950
 2280SOL    HW2 1437   1.999   2.092   2.846
 2281SOL     OW 1438   1.881   2.230   2.509
 2281SOL    HW1 1439   1.799   2.273   2.548
 2281SOL    HW2 1440   1.853   2.157   2.446
 2282SOL     OW 1441   2.431   3.137   3.027
 2282SOL    HW1 1442   2.338   3.130   2.990
 2282SOL    HW2 1443   2.442   3.226   3.071
 2283SOL     OW 1444   3.417   3.373   2.565
 2283SOL    HW1 1445   3.360   3.357   2.646
 2283SOL    HW2 1446   3.358   3.383   2.485
 2284SOL     OW 1447   2.997   2.565   2.579
 2284SOL    HW1 1448   3.054   2.643   2.554
 2284SOL    HW2 1449   2.937   2.591   2.655
 2285SOL     OW 1450   3.617   2.469   2.093
 2285SOL    HW1 1451   3.605   2.456   1.994
 2285SOL    HW2 1452   3.587   2.388   2.142
 2286SOL     OW 1453   2.630   3.006   2.885
 2286SOL    HW1 1454   2.552   3.023   2.945
 2286SOL    HW2 1455   2.664   3.093   2.849
 2287SOL     OW 1456   2.712   2.660   3.685
 2287SOL    HW1 1457   2.708   2.736   3.750
 2287SOL    HW2 1458   2.734   2.696   3.594
 2288SOL     OW 1459   2.548   3.023   3.665
 2288SOL    HW1 1460   2.608   3.102   3.679
 2288SOL    HW2 1461   2.462   3.054   3.624
 2289SOL     OW 1462   2.197   3.297   2.923
 2289SOL    HW1 1463   2.119   3.266   2.870
 2289SOL    HW2 1464   2.255   3.355   2.866
 2290SOL     OW 1465   3.322   3.367   3.201
 2290SOL    HW1 1466   3.346   3.461   3.227
 2290SOL    HW2 1467   3.306   3.313   3.283
 2291SOL     OW 1468   2.300   2.254   3.361
 2291SOL    HW1 1469   2.382   2.198   3.370
 2291SOL    HW2 1470   2.219   2.196   3.365
 2292SOL     OW 1471   3.465   2.309   2.599
 2292SOL    HW1 1472   3.391   2.355   2.549
 2292SOL    HW2 1473   3.516   2.377   2.652
 2293SOL     OW 1474   2.093   3.575   2.345
 2293SOL    HW1 1475   2.127   3.652   2.399
 2293SOL    HW2 1476   2.137   3.575   2.255
 2294SOL     OW 1477   2.989   3.203   3.552
 2294SOL    HW1 1478   3.036   3.203   3.640
 2294SOL    HW2 1479   2.941   3.116   3.541
 2295SOL     OW 1480   2.092   3.296   2.400
 2295SOL    HW1 1481   2.066   3.392   2.400
 2295SOL    HW2 1482   2.021   3.242   2.445
 2296SOL     OW 1483   2.102   2.953   2.748
 2296SOL    HW1 1484   2.116   2.869   2.800
 2296SOL    HW2 1485   2.047   3.017   2.803
 2297SOL     OW 1486   2.482   3.648   3.301
 2297SOL    HW1 1487   2.390   3.631   3.336
 2297SOL    HW2 1488   2.510   3.740   3.327
 2298SOL     OW 1489   2.468   2.826   1.985
 2298SOL    HW1 1490   2.475   2.910   1.931
 2298SOL    HW2 1491   2.514   2.839   2.073
 2299SOL     OW 1492   3.456   1.976   3.342
 2299SOL    HW1 1493   3.438   2.043   3.270
 2299SOL    HW2 1494   3.453   2.022   3.431
 2300SOL     OW 1495   1.984   2.505   2.425
 2300SOL    HW1 1496   1.939   2.417   2.442
 2300SOL    HW2 1497   1.983   2.559   2.509
 2301SOL     OW 1498   3.704   3.629   2.221
 2301SOL    HW1 1499   3.758   3.600   2.301
 2301SOL    HW2 1500   3.734   3.719   2.192
 2302SOL     OW 1501   1.889   3.458   1.979
 2302SOL    HW1 1502   1.870   3.362   2.000
 2302SOL    HW2 1503   1.856   3.516   2.054
 2303SOL     OW 1504   3.551   2.784   2.474
 2303SOL    HW1 1505   3.646   2.755   2.482
 2303SOL    HW2 1506   3.543   2.849   2.399
 2304SOL     OW 1507   3.503   2.970   2.294
 2304SOL    HW1 1508   3.589   2.972   2.242
 2304SOL    HW2 1509   3.517   3.017   2.382
 2305SOL     OW 1510   1.975   2.599   3.459
 2305SOL    HW1 1511   2.063   2.586   3.504
 2305SOL    HW2 1512   1.962   2.696   3.437
 2306SOL     OW 1513   2.475   3.227   2.588
 2306SOL    HW1 1514   2.426   3.140   2.597
 2306SOL    HW2 1515   2.452   3.270   2.501
 2307SOL     OW 1516   3.155   3.090   3.285
 2307SOL    HW1 1517   3.192   3.017   3.227
 2307SOL    HW2 1518   3.207   3.095   3.370
 2308SOL     OW 1519   2.671   1.866   2.364
 2308SOL    HW1 1520   2.711   1.957   2.355
 2308SOL    HW2 1521   2.571   1.874   2.370
 2309SOL     OW 1522   2.059   2.838   3.126
 2309SOL    HW1 1523   2.148   2.793   3.112
 2309SOL    HW2 1524   1.986   2.773   3.107
 2310SOL     OW 1525   3.387   2.861   2.052
 2310SOL    HW1 1526   3.324   2.785   2.065
 2310SOL    HW2 1527   3.435   2.879   2.138
 2311SOL     OW 1528   3.049   3.654   3.478
 2311SOL    HW1 1529   3.073   3.714   3.402
 2311SOL    HW2 1530   3.056   3.559   3.448
 2312SOL     OW 1531   2.179   2.113   3.663
 2312SOL    HW1 1532   2.250   2.184   3.669
 2312SOL    HW2 1533   2.091   2.152   3.691
 2313SOL     OW 1534   3.328   3.279   2.815
 2313SOL    HW1 1535   3.269   3.285   2.895
 2313SOL    HW2 1536   3.313   3.191   2.769
 2314SOL     OW 1537   3.529   3.576   2.434
 2314SOL    HW1 1538   3.488   3.553   2.346
 2314SOL    HW2 1539   3.511   3.502   2.499
 2315SOL     OW 1540   2.460   2.591   2.132
 2315SOL    HW1 1541   2.484   2.660   2.064
 2315SOL    HW2 1542   2.382   2.624   2.186
 2316SOL     OW 1543   3.143   2.207   2.806
 2316SOL    HW1 1544   3.057   2.157   2.793
 2316SOL    HW2 1545   3.205   2.153   2.862
 2317SOL     OW 1546   3.438   3.524   2.169
 2317SOL    HW1 1547   3.527   3.570   2.172
 2317SOL    HW2 1548   3.417   3.500   2.074
 2318SOL     OW 1549   2.669   2.467   3.327
 2318SOL    HW1 1550   2.622   2.464   3.416
 2318SOL    HW2 1551   2.618   2.412   3.261
 2319SOL     OW 1552   3.256   2.331   3.536
 2319SOL    HW1 1553   3.236   2.374   3.624
 2319SOL    HW2 1554   3.334   2.269   3.545
 2320SOL     OW 1555   2.835   2.752   3.434
 2320SOL    HW1 1556   2.881   2.668   3.405
 2320SOL    HW2 1557   2.779   2.786   3.359
 2321SOL     OW 1558   2.853   2.272   3.104
 2321SOL    HW1 1559   2.776   2.306   3.158
 2321SOL    HW2 1560   2.819   2.221   3.025
 2322SOL     OW 1561   2.903   2.563   2.291
 2322SOL    HW1 1562   2.929   2.559   2.387
 2322SOL    HW2 1563   2.818   2.512   2.277
 2323SOL     OW 1564   1.938   2.673   2.651
 2323SOL    HW1 1565   2.037   2.661   2.660
 2323SOL    HW2 1566   1.914   2.768   2.672
 2324SOL     OW 1567   1.992   3.683   3.433
 2324SOL    HW1 1568   1.982   3.668   3.532
 2324SOL    HW2 1569   1.906   3.719   3.397
 2325SOL     OW 1570   2.727   2.210   2.057
 2325SOL    HW1 1571   2.786   2.273   2.008
 2325SOL    HW2 1572   2.746   2.116   2.028
 2326SOL     OW 1573   3.581   2.447   3.693
 2326SOL    HW1 1574   3.555   2.536   3.657
 2326SOL    HW2 1575   3.579   2.379   3.620
 2327SOL     OW 1576   3.224   3.006   2.407
 2327SOL    HW1 1577   3.307   2.977   2.359
 2327SOL    HW2 1578   3.175   3.073   2.351
 2328SOL     OW 1579   2.412   2.058   2.747
 2328SOL    HW1 1580   2.407   2.053   2.847
 2328SOL    HW2 1581   2.414   2.154   2.718
 2329SOL     OW 1582   2.870   3.318   2.339
 2329SOL    HW1 1583   2.824   3.390   2.287
 2329SOL    HW2 1584   2.866   3.338   2.437
 2330SOL     OW 1585   2.213   3.663   2.715
 2330SOL    HW1 1586   2.263   3.577   2.721
 2330SOL    HW2 1587   2.278   3.740   2.712
 2331SOL     OW 1588   3.657   2.928   2.735
 2331SOL    HW1 1589   3.595   2.913   2.659
 2331SOL    HW2 1590   3.605   2.939   2.820
 2332SOL     OW 1591   3.089   3.412   3.368
 2332SOL    HW1 1592   3.095   3.335   3.432
 2332SOL    HW2 1593   3.037   3.386   3.288
 2333SOL     OW 1594   2.183   2.805   2.104
 2333SOL    HW1 1595   2.265   2.844   2.062
 2333SOL    HW2 1596   2.156   2.723   2.055
 2334SOL     OW 1597   3.320   2.597   2.590
 2334SOL    HW1 1598   3.315   2.532   2.665
 2334SOL    HW2 1599   3.400   2.656   2.603
 2335SOL     OW 1600   2.323   3.128   3.589
 2335SOL    HW1 1601   2.273   3.129   3.503
 2335SOL    HW2 1602   2.260   3.110   3.665
 2336SOL     OW 1603   2.973   3.638   2.099
 2336SOL    HW1 1604   2.913   3.576   2.149
 2336SOL    HW2 1605   3.004   3.594   2.014
 2337SOL     OW 1606   2.064   2.147   3.360
 2337SOL    HW1 1607   1.984   2.207   3.347
 2337SOL    HW2 1608   2.054   2.098   3.446
 2338SOL     OW 1609   3.494   3.239   1.943
 2338SOL    HW1 1610   3.462   3.333   1.933
 2338SOL    HW2 1611   3.418   3.176   1.931
 2339SOL     OW 1612   2.326   3.605   2.185
 2339SOL    HW1 1613   2.359   3.644   2.271
 2339SOL    HW2 1614   2.402   3.598   2.120
 2340SOL     OW 1615   3.262   1.969   2.288
 2340SOL    HW1 1616   3.238   1.932   2.198
 2340SOL    HW2 1617   3.361   1.985   2.292
 2341SOL     OW 1618   2.111   3.647   3.103
 2341SOL    HW1 1619   2.168   3.582   3.153
 2341SOL    HW2 1620   2.095   3.614   3.010
 2342SOL     OW 1621   2.802   3.560   2.766
 2342SOL    HW1 1622   2.882   3.503   2.787
 2342SOL    HW2 1623   2.753   3.520   2.689
 2343SOL     OW 1624   3.409   2.084   3.591
 2343SOL    HW1 1625   3.404   2.121   3.683
 2343SOL    HW2 1626   3.337   2.015   3.579
 2344SOL     OW 1627   2.476   1.984   1.979
 2344SOL    HW1 1628   2.574   1.962   1.986
 2344SOL    HW2 1629   2.445   1.967   1.886
 2345SOL     OW 1630   2.643   2.126   3.611
 2345SOL    HW1 1631   2.710   2.065   3.654
 2345SOL    HW2 1632   2.570   2.145   3.676
 2346SOL     OW 1633   2.750   3.376   3.057
 2346SOL    HW1 1634   2.727   3.351   2.963
 2346SOL    HW2 1635   2.811   3.307   3.096
 2347SOL     OW 1636   3.213   2.452   3.295
 2347SOL    HW1 1637   3.241   2.409   3.380
 2347SOL    HW2 1638   3.238   2.548   3.296
 2348SOL     OW 1639   2.665   3.264   2.786
 2348SOL    HW1 1640   2.755   3.278   2.744
 2348SOL    HW2 1641   2.594   3.266   2.715
 2349SOL     OW 1642   2.401   1.926   2.374
 2349SOL    HW1 1643   2.320   1.927   2.432
 2349SOL    HW2 1644   2.404   2.009   2.319
 2350SOL     OW 1645   3.296   3.050   1.903
 2350SOL    HW1 1646   3.328   2.974   1.960
 2350SOL    HW2 1647   3.204   3.077   1.933
 2351SOL     OW 1648   2.159   1.897   2.033
 2351SOL    HW1 1649   2.208   1.981   2.012
 2351SOL    HW2 1650   2.221   1.832   2.078
 2352SOL     OW 1651   2.797   2.098   2.342
 2352SOL    HW1 1652   2.749   2.139   2.264
 2352SOL    HW2 1653   2.896   2.096   2.323
 2353SOL     OW 1654   2.938   2.545   3.326
 2353SOL    HW1 1655   2.858   2.484   3.329
 2353SOL    HW2 1656   3.019   2.492   3.302
 2354SOL     OW 1657   3.089   3.432   2.655
 2354SOL    HW1 1658   3.110   3.506   2.590
 2354SOL    HW2 1659   3.157   3.432   2.728
 2355SOL     OW 1660   2.321   3.014   2.603
 2355SOL    HW1 1661   2.250   2.987   2.668
 2355SOL    HW2 1662   2.295   2.986   2.510
 2356SOL     OW 1663   3.133   3.659   2.453
 2356SOL    HW1 1664   3.177   3.723   2.389
 2356SOL    HW2 1665   3.083   3.711   2.523
 2357SOL     OW 1666   2.894   2.411   1.878
 2357SOL    HW1 1667   2.853   2.493   1.839
 2357SOL    HW2 1668   2.958   2.437   1.951
 2358SOL     OW 1669   1.940   2.418   3.248
 2358SOL    HW1 1670   2.032   2.417   3.207
 2358SOL    HW2 1671   1.934   2.492   3.315
 2359SOL     OW 1672   2.423   2.084   3.009
 2359SOL    HW1 1673   2.461   2.000   3.046
 2359SOL    HW2 1674   2.335   2.103   3.053
 2360SOL     OW 1675   2.879   1.901   2.615
 2360SOL    HW1 1676   2.807   1.906   2.546
 2360SOL    HW2 1677   2.855   1.832   2.684
 2361SOL     OW 1678   3.291   3.035   2.729
 2361SOL    HW1 1679   3.236   2.951   2.722
 2361SOL    HW2 1680   3.317   3.064   2.637
 2362SOL     OW 1681   3.328   2.452   2.854
 2362SOL    HW1 1682   3.298   2.357   2.861
 2362SOL    HW2 1683   3.401   2.468   2.920
 2363SOL     OW 1684   3.719   2.695   2.239
 2363SOL    HW1 1685   3.761   2.631   2.303
 2363SOL    HW2 1686   3.681   2.644   2.161
 2364SOL     OW 1687   2.350   3.247   2.036
 2364SOL    HW1 1688   2.263   3.232   2.083
 2364SOL    HW2 1689   2.333   3.273   1.941
 2365SOL     OW 1690   3.526   3.142   2.519
 2365SOL    HW1 1691   3.625   3.150   2.533
 2365SOL    HW2 1692   3.481   3.226   2.550
 2366SOL     OW 1693   3.252   2.437   1.940
 2366SOL    HW1 1694   3.198   2.416   2.021
 2366SOL    HW2 1695   3.343   2.396   1.949
 2367SOL     OW 1696   2.389   2.118   2.190
 2367SOL    HW1 1697   2.416   2.059   2.115
 2367SOL    HW2 1698   2.389   2.213   2.159
 2368SOL     OW 1699   3.616   3.085   3.450
 2368SOL    HW1 1700   3.707   3.046   3.437
 2368SOL    HW2 1701   3.624   3.181   3.474
 2369SOL     OW 1702   2.926   3.209   3.202
 2369SOL    HW1 1703   2.846   3.186   3.257
 2369SOL    HW2 1704   3.009   3.183   3.251
 2370SOL     OW 1705   3.454   3.491   3.487
 2370SOL    HW1 1706   3.481   3.525   3.397
 2370SOL    HW2 1707   3.533   3.453   3.533
 2371SOL     OW 1708   2.973   3.057   2.962
 2371SOL    HW1 1709   2.933   3.101   3.043
 2371SOL    HW2 1710   2.932   3.094   2.879
 2372SOL     OW 1711   3.500   2.961   2.941
 2372SOL    HW1 1712   3.505   3.042   3.000
 2372SOL    HW2 1713   3.414   2.963   2.890
 2373SOL     OW 1714   2.777   1.951   3.264
 2373SOL    HW1 1715   2.802   1.931   3.169
 2373SOL    HW2 1716   2.849   2.007   3.306
 2374SOL     OW 1717   2.842   2.978   3.581
 2374SOL    HW1 1718   2.743   2.984   3.591
 2374SOL    HW2 1719   2.865   2.898   3.525
 2375SOL     OW 1720   2.567   2.912   2.230
 2375SOL    HW1 1721   2.553   2.919   2.329
 2375SOL    HW2 1722   2.651   2.861   2.212
 2376SOL     OW 1723   2.272   2.675   3.113
 2376SOL    HW1 1724   2.358   2.687   3.163
 2376SOL    HW2 1725   2.230   2.588   3.140
 2377SOL     OW 1726   3.136   2.248   3.124
 2377SOL    HW1 1727   3.157   2.322   3.188
 2377SOL    HW2 1728   3.047   2.265   3.081
 2378SOL     OW 1729   1.926   3.426   3.193
 2378SOL    HW1 1730   1.880   3.508   3.159
 2378SOL    HW2 1731   2.024   3.445   3.202
 2379SOL     OW 1732   2.428   2.399   2.727
 2379SOL    HW1 1733   2.440   2.465   2.653
 2379SOL    HW2 1734   2.474   2.433   2.810
 2380SOL     OW 1735   3.114   3.210   2.250
 2380SOL    HW1 1736   3.164   3.287   2.290
 2380SOL    HW2 1737   3.019   3.212   2.282
 2381SOL     OW 1738   3.134   3.307   3.004
 2381SOL    HW1 1739   3.181   3.320   3.091
 2381SOL    HW2 1740   3.068   3.233   3.013
 2382SOL     OW 1741   3.444   2.501   2.334
 2382SOL    HW1 1742   3.413   2.562   2.407
 2382SOL    HW2 1743   3.494   2.553   2.265
 2383SOL     OW 1744   2.216   3.372   3.191
 2383SOL    HW1 1745   2.195   3.328   3.104
 2383SOL    HW2 1746   2.313   3.398   3.194
 2384SOL     OW 1747   2.264   2.613   3.460
 2384SOL    HW1 1748   2.332   2.668   3.413
 2384SOL    HW2 1749   2.304   2.525   3.487
 2385SOL     OW 1750   3.449   2.641   3.532
 2385SOL    HW1 1751   3.357   2.679   3.527
 2385SOL    HW2 1752   3.509   2.688   3.467
 2386SOL     OW 1753   2.875   1.967   3.632
 2386SOL    HW1 1754   2.881   2.052   3.580
 2386SOL    HW2 1755   2.907   1.891   3.575
 2387SOL     OW 1756   2.366   1.912   3.602
 2387SOL    HW1 1757   2.324   1.855   3.532
 2387SOL    HW2 1758   2.300   1.981   3.634
 2388SOL     OW 1759   2.435   2.732   2.891
 2388SOL    HW1 1760   2.479   2.821   2.882
 2388SOL    HW2 1761   2.372   2.732   2.968
 2389SOL     OW 1762   3.222   2.724   2.907
 2389SOL    HW1 1763   3.147   2.724   2.841
 2389SOL    HW2 1764   3.259   2.632   2.916
 2390SOL     OW 1765   3.071   2.387   2.137
 2390SOL    HW1 1766   3.084   2.303   2.191
 2390SOL    HW2 1767   3.042   2.461   2.197
 2391SOL     OW 1768   2.169   2.075   3.093
 2391SOL    HW1 1769   2.146   2.112   3.183
 2391SOL    HW2 1770   2.139   1.980   3.087
 2392SOL     OW 1771   1.899   3.172   3.144
 2392SOL    HW1 1772   1.952   3.123   3.212
 2392SOL    HW2 1773   1.921   3.270   3.149
 2393SOL     OW 1774   2.594   2.496   2.926
 2393SOL    HW1 1775   2.653   2.470   2.850
 2393SOL    HW2 1776   2.566   2.592   2.915
 2394SOL     OW 1777   3.590   2.797   3.716
 2394SOL    HW1 1778   3.544   2.790   3.627
 2394SOL    HW2 1779   3.528   2.841   3.782
 2395SOL     OW 1780   2.169   1.925   2.480
 2395SOL    HW1 1781   2.158   2.019   2.513
 2395SOL    HW2 1782   2.164   1.862   2.557
 2396SOL     OW 1783   3.484   2.229   2.236
 2396SOL    HW1 1784   3.486   2.153   2.300
 2396SOL    HW2 1785   3.436   2.306   2.276
 2397SOL     OW 1786   2.885   2.628   2.828
 2397SOL    HW1 1787   2.900   2.649   2.924
 2397SOL    HW2 1788   2.855   2.533   2.819
 2398SOL     OW 1789   2.842   3.435   3.562
 2398SOL    HW1 1790   2.822   3.479   3.474
 2398SOL    HW2 1791   2.881   3.344   3.546
 2400SOL     OW 1792   2.212   2.760   3.666
 2400SOL    HW1 1793   2.288   2.804   3.714
 2400SOL    HW2 1794   2.247   2.713   3.584
 2401SOL     OW 1795   3.402   2.136   1.987
 2401SOL    HW1 1796   3.341   2.061   2.010
 2401SOL    HW2 1797   3.424   2.188   2.070
 2402SOL     OW 1798   3.165   2.700   1.904
 2402SOL    HW1 1799   3.199   2.607   1.919
 2402SOL    HW2 1800   3.183   2.727   1.809
 2403SOL     OW 1801   2.930   3.195   2.711
 2403SOL    HW1 1802   2.937   3.111   2.656
 2403SOL    HW2 1803   2.992   3.264   2.675
 2404SOL     OW 1804   2.181   2.672   2.811
 2404SOL    HW1 1805   2.274   2.708   2.816
 2404SOL    HW2 1806   2.175   2.587   2.863
 2405SOL     OW 1807   2.201   2.371   2.868
 2405SOL    HW1 1808   2.149   2.288   2.851
 2405SOL    HW2 1809   2.278   2.376   2.804
 2406SOL     OW 1810   3.000   2.242   3.540
 2406SOL    HW1 1811   2.955   2.305   3.604
 2406SOL    HW2 1812   3.093   2.273   3.523
 2407SOL     OW 1813   3.022   2.069   3.339
 2407SOL    HW1 1814   3.022   2.133   3.416
 2407SOL    HW2 1815   3.050   2.117   3.256
 2408SOL     OW 1816   1.870   3.188   2.062
 2408SOL    HW1 1817   1.777   3.209   2.031
 2408SOL    HW2 1818   1.880   3.089   2.075
 2409SOL     OW 1819   1.950   3.663   2.789
 2409SOL    HW1 1820   1.908   3.577   2.762
 2409SOL    HW2 1821   2.044   3.666   2.755
 2410SOL     OW 1822   2.366   3.430   2.772
 2410SOL    HW1 1823   2.432   3.504   2.781
 2410SOL    HW2 1824   2.410   3.351   2.730
 2411SOL     OW 1825   2.864   2.658   3.100
 2411SOL    HW1 1826   2.905   2.626   3.186
 2411SOL    HW2 1827   2.768   2.631   3.097
 2412SOL     OW 1828   1.902   2.406   2.976
 2412SOL    HW1 1829   1.987   2.373   2.935
 2412SOL    HW2 1830   1.915   2.421   3.074
 2413SOL     OW 1831   2.051   2.382   3.584
 2413SOL    HW1 1832   2.110   2.342   3.514
 2413SOL    HW2 1833   1.993   2.453   3.543
 2414SOL     OW 1834   3.231   2.812   3.522
 2414SOL    HW1 1835   3.270   2.901   3.542
 2414SOL    HW2 1836   3.241   2.792   3.425
 2415SOL     OW 1837   2.677   2.434   2.187
 2415SOL    HW1 1838   2.684   2.345   2.141
 2415SOL    HW2 1839   2.583   2.468   2.179
 2416SOL     OW 1840   3.519   2.466   3.068
 2416SOL    HW1 1841   3.481   2.397   3.130
 2416SOL    HW2 1842   3.601   2.430   3.024
 2417SOL     OW 1843   2.114   3.426   3.606
 2417SOL    HW1 1844   2.084   3.483   3.682
 2417SOL    HW2 1845   2.107   3.329   3.632
 2418SOL     OW 1846   2.533   2.326   3.131
 2418SOL    HW1 1847   2.499   2.237   3.101
 2418SOL    HW2 1848   2.559   2.380   3.051
 2419SOL     OW 1849   2.792   3.540   3.327
 2419SOL    HW1 1850   2.768   3.522   3.232
 2419SOL    HW2 1851   2.822   3.634   3.337
 2420SOL     OW 1852   2.335   2.362   2.053
 2420SOL    HW1 1853   2.396   2.442   2.057
 2420SOL    HW2 1854   2.240   2.393   2.060
 2421SOL     OW 1855   2.021   2.999   3.328
 2421SOL    HW1 1856   2.043   2.938   3.404
 2421SOL    HW2 1857   2.031   2.950   3.242
 2422SOL     OW 1858   3.209   2.921   3.096
 2422SOL    HW1 1859   3.233   2.858   3.022
 2422SOL    HW2 1860   3.119   2.961   3.078
 2423SOL     OW 1861   3.164   2.717   2.171
 2423SOL    HW1 1862   3.078   2.686   2.213
 2423SOL    HW2 1863   3.160   2.703   2.072
 2424SOL     OW 1864   3.621   3.609   3.016
 2424SOL    HW1 1865   3.682   3.639   2.943
 2424SOL    HW2 1866   3.583   3.520   2.994
 2425SOL     OW 1867   3.114   3.593   2.990
 2425SOL    HW1 1868   3.198   3.598   2.936
 2425SOL    HW2 1869   3.091   3.497   3.008
 2426SOL     OW 1870   1.945   3.120   2.884
 2426SOL    HW1 1871   1.940   3.119   2.984
 2426SOL    HW2 1872   1.862   3.079   2.846
 2427SOL     OW 1873   2.550   3.524   3.578
 2427SOL    HW1 1874   2.494   3.605   3.587
 2427SOL    HW2 1875   2.602   3.528   3.492
 2428SOL     OW 1876   3.588   1.997   2.385
 2428SOL    HW1 1877   3.661   1.980   2.318
 2428SOL    HW2 1878   3.557   1.910   2.423
 2429SOL     OW 1879   3.250   3.435   2.339
 2429SOL    HW1 1880   3.317   3.447   2.265
 2429SOL    HW2 1881   3.210   3.524   2.362
 2430SOL     OW 1882   1.992   3.656   3.713
 2430SOL    HW1 1883   1.951   3.582   3.766
 2430SOL    HW2 1884   2.056   3.707   3.771
 2431SOL     OW 1885   3.142   2.789   2.534
 2431SOL    HW1 1886   3.202   2.708   2.536
 2431SOL    HW2 1887   3.182   2.858   2.474
 2432SOL     OW 1888   2.692   3.135   3.284
 2432SOL    HW1 1889   2.687   3.168   3.379
 2432SOL    HW2 1890   2.606   3.154   3.238
 2433SOL     OW 1891   2.534   3.478   2.016
 2433SOL    HW1 1892   2.543   3.488   1.917
 2433SOL    HW2 1893   2.494   3.389   2.037
 2434SOL     OW 1894   3.512   3.582   3.256
 2434SOL    HW1 1895   3.565   3.592   3.172
 2434SOL    HW2 1896   3.485   3.672   3.290
 2435SOL     OW 1897   3.703   2.037   2.825
 2435SOL    HW1 1898   3.742   1.952   2.789
 2435SOL    HW2 1899   3.605   2.039   2.806
 2436SOL     OW 1900   2.125   2.188   2.582
 2436SOL    HW1 1901   2.046   2.239   2.548
 2436SOL    HW2 1902   2.116   2.173   2.680
 2437SOL     OW 1903   3.056   3.474   1.893
 2437SOL    HW1 1904   3.062   3.381   1.930
 2437SOL    HW2 1905   2.997   3.474   1.813
 2438SOL     OW 1906   2.684   2.864   3.234
 2438SOL    HW1 1907   2.724   2.863   3.142
 2438SOL    HW2 1908   2.694   2.956   3.274
 2439SOL     OW 1909   2.778   2.772   2.153
 2439SOL    HW1 1910   2.841   2.810   2.085
 2439SOL    HW2 1911   2.818   2.689   2.192
 2440SOL     OW 1912   3.366   3.469   1.906
 2440SOL    HW1 1913   3.274   3.506   1.913
 2440SOL    HW2 1914   3.404   3.489   1.816
 2441SOL     OW 1915   2.234   3.150   3.352
 2441SOL    HW1 1916   2.221   3.243   3.318
 2441SOL    HW2 1917   2.150   3.098   3.339
 2442SOL     OW 1918   3.476   3.154   3.151
 2442SOL    HW1 1919   3.536   3.157   3.231
 2442SOL    HW2 1920   3.401   3.218   3.164
 2443SOL     OW 1921   2.901   2.960   2.558
 2443SOL    HW1 1922   2.831   2.913   2.612
 2443SOL    HW2 1923   2.960   2.892   2.515
 2444SOL     OW 1924   2.876   2.098   2.833
 2444SOL    HW1 1925   2.868   2.062   2.740
 2444SOL    HW2 1926   2.874   2.022   2.898
 2445SOL     OW 1927   2.452   3.349   2.353
 2445SOL    HW1 1928   2.494   3.291   2.283
 2445SOL    HW2 1929   2.408   3.428   2.309
 2446SOL     OW 1930   3.571   2.247   3.243
 2446SOL    HW1 1931   3.644   2.316   3.247
 2446SOL    HW2 1932   3.599   2.172   3.184
 2447SOL     OW 1933   2.117   3.210   2.152
 2447SOL    HW1 1934   2.021   3.211   2.125
 2447SOL    HW2 1935   2.129   3.263   2.236
 2448SOL     OW 1936   1.967   2.875   3.588
 2448SOL    HW1 1937   1.890   2.842   3.642
 2448SOL    HW2 1938   2.052   2.845   3.630
 2449SOL     OW 1939   2.534   2.065   3.351
 2449SOL    HW1 1940   2.624   2.049   3.311
 2449SOL    HW2 1941   2.542   2.070   3.450
 2450SOL     OW 1942   1.937   2.207   1.895
 2450SOL    HW1 1943   1.845   2.179   1.866
 2450SOL    HW2 1944   1.968   2.284   1.839
 2451SOL     OW 1945   3.302   2.718   3.260
 2451SOL    HW1 1946   3.245   2.770   3.197
 2451SOL    HW2 1947   3.398   2.730   3.236
 2452SOL     OW 1948   1.934   2.028   2.180
 2452SOL    HW1 1949   1.917   2.111   2.126
 2452SOL    HW2 1950   2.024   1.991   2.158
 2453SOL     OW 1951   3.045   3.197   1.981
 2453SOL    HW1 1952   2.946   3.186   1.983
 2453SOL    HW2 1953   3.079   3.212   2.074
 2454SOL     OW 1954   2.475   2.704   3.293
 2454SOL    HW1 1955   2.531   2.785   3.276
 2454SOL    HW2 1956   2.534   2.624   3.296
 2455SOL     OW 1957   3.355   3.629   2.821
 2455SOL    HW1 1958   3.388   3.693   2.752
 2455SOL    HW2 1959   3.421   3.623   2.896
 2456SOL     OW 1960   2.578   2.427   3.570
 2456SOL    HW1 1961   2.597   2.492   3.644
 2456SOL    HW2 1962   2.638   2.347   3.579
 2457SOL     OW 1963   3.312   3.082   3.495
 2457SOL    HW1 1964   3.303   3.072   3.594
 2457SOL    HW2 1965   3.408   3.075   3.469
 2458SOL     OW 1966   2.252   3.603   3.422
 2458SOL    HW1 1967   2.161   3.644   3.420
 2458SOL    HW2 1968   2.245   3.509   3.454
 2459SOL     OW 1969   3.536   2.745   3.116
 2459SOL    HW1 1970   3.509   2.656   3.079
 2459SOL    HW2 1971   3.537   2.813   3.043
 2460SOL     OW 1972   3.087   2.187   2.311
 2460SOL    HW1 1973   3.152   2.113   2.300
 2460SOL    HW2 1974   3.107   2.237   2.395
 2461SOL     OW 1975   3.639   2.204   3.504
 2461SOL    HW1 1976   3.622   2.235   3.410
 2461SOL    HW2 1977   3.555   2.167   3.542
 2462SOL     OW 1978   3.592   2.796   3.379
 2462SOL    HW1 1979   3.630   2.887   3.394
 2462SOL    HW2 1980   3.584   2.779   3.280
 2463SOL     OW 1981   2.721   3.236   1.878
 2463SOL    HW1 1982   2.675   3.251   1.966
 2463SOL    HW2 1983   2.765   3.321   1.848
 2464SOL     OW 1984   2.523   3.652   2.815
 2464SOL    HW1 1985   2.477   3.740   2.802
 2464SOL    HW2 1986   2.622   3.664   2.808
 2465SOL     OW 1987   2.721   2.818   2.723
 2465SOL    HW1 1988   2.775   2.749   2.771
 2465SOL    HW2 1989   2.689   2.887   2.789
 2466SOL     OW 1990   2.945   2.846   1.949
 2466SOL    HW1 1991   2.922   2.899   1.867
 2466SOL    HW2 1992   3.026   2.790   1.930
 2467SOL     OW 1993   3.723   3.431   2.713
 2467SOL    HW1 1994   3.652   3.419   2.643
 2467SOL    HW2 1995   3.724   3.352   2.773
 2468SOL     OW 1996   2.083   3.176   3.706
 2468SOL    HW1 1997   2.018   3.103   3.685
 2468SOL    HW2 1998   2.087   3.190   3.804
 2469SOL     OW 1999   1.941   3.102   2.515
 2469SOL    HW1 2000   1.940   3.055   2.603
 2469SOL    HW2 2001   2.023   3.074   2.464
 2470SOL     OW 2002   2.534   3.253   3.486
 2470SOL    HW1 2003   2.456   3.203   3.524
 2470SOL    HW2 2004   2.531   3.348   3.517
 2471SOL     OW 2005   3.686   2.054   3.089
 2471SOL    HW1 2006   3.682   1.964   3.133
 2471SOL    HW2 2007   3.689   2.043   2.990
 2472SOL     OW 2008   3.567   3.349   2.966
 2472SOL    HW1 2009   3.474   3.324   2.939
 2472SOL    HW2 2010   3.593   3.299   3.048
 2473SOL     OW 2011   2.179   2.409   3.142
 2473SOL    HW1 2012   2.217   2.350   3.214
 2473SOL    HW2 2013   2.219   2.383   3.054
 2474SOL     OW 2014   2.674   3.448   2.549
 2474SOL    HW1 2015   2.706   3.458   2.455
 2474SOL    HW2 2016   2.595   3.386   2.551
 2475SOL     OW 2017   3.286   2.076   2.974
 2475SOL    HW1 2018   3.338   2.011   3.029
 2475SOL    HW2 2019   3.237   2.139   3.035
 2476SOL     OW 2020   2.863   1.896   3.016
 2476SOL    HW1 2021   2.800   1.824   2.985
 2476SOL    HW2 2022   2.956   1.860   3.016
 2477SOL     OW 2023   2.632   3.192   2.163
 2477SOL    HW1 2024   2.586   3.105   2.180
 2477SOL    HW2 2025   2.723   3.189   2.204
 2478SOL     OW 2026   2.480   3.429   3.146
 2478SOL    HW1 2027   2.475   3.511   3.203
 2478SOL    HW2 2028   2.569   3.426   3.101
 2479SOL     OW 2029   3.214   1.914   2.030
 2479SOL    HW1 2030   3.249   1.873   1.946
 2479SOL    HW2 2031   3.124   1.876   2.050
 2480SOL     OW 2032   3.162   2.315   2.553
 2480SOL    HW1 2033   3.103   2.395   2.557
 2480SOL    HW2 2034   3.177   2.280   2.646
 2481SOL     OW 2035   3.455   2.083   2.744
 2481SOL    HW1 2036   3.371   2.082   2.798
 2481SOL    HW2 2037   3.457   2.166   2.688
 2482SOL     OW 2038   1.901   2.939   2.162
 2482SOL    HW1 2039   2.000   2.928   2.153
 2482SOL    HW2 2040   1.861   2.853   2.194
 2483SOL     OW 2041   2.737   3.508   2.199
 2483SOL    HW1 2042   2.660   3.473   2.145
 2483SOL    HW2 2043   2.705   3.579   2.261
 2484SOL     OW 2044   2.092   2.490   3.837
 2484SOL    HW1 2045   1.999   2.488   3.874
 2484SOL    HW2 2046   2.093   2.451   3.745
 2498SOL     OW 2047   2.468   2.826   3.847
 2498SOL    HW1 2048   2.475   2.910   3.793
 2498SOL    HW2 2049   2.514   2.839   3.935
 2501SOL     OW 2050   1.889   3.458   3.841
 2501SOL    HW1 2051   1.870   3.362   3.862
 2501SOL    HW2 2052   1.856   3.516   3.916
 2507SOL     OW 2053   3.387   2.861   3.914
 2507SOL    HW1 2054   3.324   2.785   3.927
 2507SOL    HW2 2055   3.435   2.879   4.000
 2510SOL     OW 2056   2.460   2.591   3.994
 2510SOL    HW1 2057   2.484   2.660   3.926
 2510SOL    HW2 2058   2.382   2.624   4.048
 2513SOL     OW 2059   2.903   2.563   4.153
 2513SOL    HW1 2060   2.929   2.559   4.249
 2513SOL    HW2 2061   2.818   2.512   4.139
 2515SOL     OW 2062   2.727   2.210   3.919
 2515SOL    HW1 2063   2.786   2.273   3.870
 2515SOL    HW2 2064   2.746   2.116   3.890
 2521SOL     OW 2065   2.183   2.805   3.966
 2521SOL    HW1 2066   2.265   2.844   3.924
 2521SOL    HW2 2067   2.156   2.723   3.917
 2529SOL     OW 2068   2.244   2.562   4.204
 2529SOL    HW1 2069   2.289   2.472   4.201
 2529SOL    HW2 2070   2.150   2.551   4.237
 2530SOL     OW 2071   2.476   1.984   3.841
 2530SOL    HW1 2072   2.574   1.962   3.848
 2530SOL    HW2 2073   2.445   1.967   3.748
 2534SOL     OW 2074   3.296   3.050   3.765
 2534SOL    HW1 2075   3.328   2.974   3.822
 2534SOL    HW2 2076   3.204   3.077   3.795
 2535SOL     OW 2077   2.159   1.897   3.895
 2535SOL    HW1 2078   2.208   1.981   3.874
 2535SOL    HW2 2079   2.221   1.832   3.940
 2536SOL     OW 2080   2.797   2.098   4.204
 2536SOL    HW1 2081   2.749   2.139   4.126
 2536SOL    HW2 2082   2.896   2.096   4.185
 2540SOL     OW 2083   2.894   2.411   3.740
 2540SOL    HW1 2084   2.853   2.493   3.701
 2540SOL    HW2 2085   2.958   2.437   3.813
 2546SOL     OW 2086   2.350   3.247   3.898
 2546SOL    HW1 2087   2.263   3.232   3.945
 2546SOL    HW2 2088   2.333   3.273   3.803
 2548SOL     OW 2089   3.252   2.437   3.802
 2548SOL    HW1 2090   3.198   2.416   3.883
 2548SOL    HW2 2091   3.343   2.396   3.811
 2549SOL     OW 2092   2.389   2.118   4.052
 2549SOL    HW1 2093   2.416   2.059   3.977
 2549SOL    HW2 2094   2.389   2.213   4.021
 2552SOL     OW 2095   2.567   2.912   4.092
 2552SOL    HW1 2096   2.553   2.919   4.191
 2552SOL    HW2 2097   2.651   2.861   4.074
 2560SOL     OW 2098   3.071   2.387   3.999
 2560SOL    HW1 2099   3.084   2.303   4.053
 2560SOL    HW2 2100   3.042   2.461   4.059
 2566SOL     OW 2101   3.402   2.136   3.849
 2566SOL    HW1 2102   3.341   2.061   3.872
 2566SOL    HW2 2103   3.424   2.188   3.932
 2567SOL     OW 2104   3.165   2.700   3.766
 2567SOL    HW1 2105   3.199   2.607   3.781
 2567SOL    HW2 2106   3.183   2.727   3.671
 2571SOL     OW 2107   1.870   3.188   3.924
 2571SOL    HW1 2108   1.777   3.209   3.893
 2571SOL    HW2 2109   1.880   3.089   3.937
 2576SOL     OW 2110   2.677   2.434   4.049
 2576SOL    HW1 2111   2.684   2.345   4.003
 2576SOL    HW2 2112   2.583   2.468   4.041
 2579SOL     OW 2113   2.335   2.362   3.915
 2579SOL    HW1 2114   2.396   2.442   3.919
 2579SOL    HW2 2115   2.240   2.393   3.922
 2580SOL     OW 2116   3.164   2.717   4.033
 2580SOL    HW1 2117   3.078   2.686   4.075
 2580SOL    HW2 2118   3.160   2.703   3.934
 2586SOL     OW 2119   2.534   3.478   3.878
 2586SOL    HW1 2120   2.543   3.488   3.779
 2586SOL    HW2 2121   2.494   3.389   3.899
 2589SOL     OW 2122   3.056   3.474   3.755
 2589SOL    HW1 2123   3.062   3.381   3.792
 2589SOL    HW2 2124   2.997   3.474   3.675
 2591SOL     OW 2125   2.778   2.772   4.015
 2591SOL    HW1 2126   2.841   2.810   3.947
 2591SOL    HW2 2127   2.818   2.689   4.054
 2597SOL     OW 2128   2.117   3.210   4.014
 2597SOL    HW1 2129   2.021   3.211   3.987
 2597SOL    HW2 2130   2.129   3.263   4.098
 2598SOL     OW 2131   1.937   2.207   3.757
 2598SOL    HW1 2132   1.845   2.179   3.728
 2598SOL    HW2 2133   1.968   2.284   3.701
 2599SOL     OW 2134   1.934   2.028   4.042
 2599SOL    HW1 2135   1.917   2.111   3.988
 2599SOL    HW2 2136   2.024   1.991   4.020
 2600SOL     OW 2137   3.045   3.197   3.843
 2600SOL    HW1 2138   2.946   3.186   3.845
 2600SOL    HW2 2139   3.079   3.212   3.936
 2605SOL     OW 2140   2.721   3.236   3.740
 2605SOL    HW1 2141   2.675   3.251   3.828
 2605SOL    HW2 2142   2.765   3.321   3.710
 2608SOL     OW 2143   2.945   2.846   3.811
 2608SOL    HW1 2144   2.922   2.899   3.729
 2608SOL    HW2 2145   3.026   2.790   3.792
 2612SOL     OW 2146   2.290   2.286   4.244
 2612SOL    HW1 2147   2.320   2.214   4.182
 2612SOL    HW2 2148   2.251   2.246   4.327
 2616SOL     OW 2149   2.632   3.192   4.025
 2616SOL    HW1 2150   2.586   3.105   4.042
 2616SOL    HW2 2151   2.723   3.189   4.066
 2617SOL     OW 2152   3.214   1.914   3.892
 2617SOL    HW1 2153   3.249   1.873   3.808
 2617SOL    HW2 2154   3.124   1.876   3.912
 2620SOL     OW 2155   1.901   2.939   4.024
 2620SOL    HW1 2156   2.000   2.928   4.015
 2620SOL    HW2 2157   1.861   2.853   4.056
 2644SOL     OW 2158   2.179   3.975   1.801
 2644SOL    HW1 2159   2.250   4.046   1.807
 2644SOL    HW2 2160   2.091   4.014   1.829
 2665SOL     OW 2161   2.643   3.988   1.749
 2665SOL    HW1 2162   2.710   3.927   1.792
 2665SOL    HW2 2163   2.570   4.007   1.814
 2685SOL     OW 2164   2.777   3.813   1.402
 2685SOL    HW1 2165   2.802   3.793   1.307
 2685SOL    HW2 2166   2.849   3.869   1.444
 2695SOL     OW 2167   2.875   3.829   1.770
 2695SOL    HW1 2168   2.881   3.914   1.718
 2695SOL    HW2 2169   2.907   3.753   1.713
 2696SOL     OW 2170   2.366   3.774   1.740
 2696SOL    HW1 2171   2.324   3.717   1.670
 2696SOL    HW2 2172   2.300   3.843   1.772
 2736SOL     OW 2173   2.534   3.927   1.489
 2736SOL    HW1 2174   2.624   3.911   1.449
 2736SOL    HW2 2175   2.542   3.932   1.588
 2760SOL     OW 2176   2.087   3.999   2.858
 2760SOL    HW1 2177   2.122   3.982   2.950
 2760SOL    HW2 2178   1.999   3.954   2.846
 2761SOL     OW 2179   1.881   4.092   2.509
 2761SOL    HW1 2180   1.799   4.135   2.548
 2761SOL    HW2 2181   1.853   4.019   2.446
 2778SOL     OW 2182   2.671   3.728   2.364
 2778SOL    HW1 2183   2.711   3.819   2.355
 2778SOL    HW2 2184   2.571   3.736   2.370
 2783SOL     OW 2185   3.143   4.069   2.806
 2783SOL    HW1 2186   3.057   4.019   2.793
 2783SOL    HW2 2187   3.205   4.015   2.862
 2790SOL     OW 2188   2.727   4.072   2.057
 2790SOL    HW1 2189   2.786   4.135   2.008
 2790SOL    HW2 2190   2.746   3.978   2.028
 2793SOL     OW 2191   2.412   3.920   2.747
 2793SOL    HW1 2192   2.407   3.915   2.847
 2793SOL    HW2 2193   2.414   4.016   2.718
 2798SOL     OW 2194   3.262   3.831   2.288
 2798SOL    HW1 2195   3.238   3.794   2.198
 2798SOL    HW2 2196   3.361   3.847   2.292
 2801SOL     OW 2197   2.476   3.846   1.979
 2801SOL    HW1 2198   2.574   3.824   1.986
 2801SOL    HW2 2199   2.445   3.829   1.886
 2805SOL     OW 2200   2.401   3.788   2.374
 2805SOL    HW1 2201   2.320   3.789   2.432
 2805SOL    HW2 2202   2.404   3.871   2.319
 2806SOL     OW 2203   2.159   3.759   2.033
 2806SOL    HW1 2204   2.208   3.843   2.012
 2806SOL    HW2 2205   2.221   3.694   2.078
 2807SOL     OW 2206   2.797   3.960   2.342
 2807SOL    HW1 2207   2.749   4.001   2.264
 2807SOL    HW2 2208   2.896   3.958   2.323
 2812SOL     OW 2209   2.423   3.946   3.009
 2812SOL    HW1 2210   2.461   3.862   3.046
 2812SOL    HW2 2211   2.335   3.965   3.053
 2813SOL     OW 2212   2.728   4.178   2.504
 2813SOL    HW1 2213   2.696   4.250   2.442
 2813SOL    HW2 2214   2.752   4.097   2.451
 2814SOL     OW 2215   2.879   3.763   2.615
 2814SOL    HW1 2216   2.807   3.768   2.546
 2814SOL    HW2 2217   2.855   3.694   2.684
 2819SOL     OW 2218   2.389   3.980   2.190
 2819SOL    HW1 2219   2.416   3.921   2.115
 2819SOL    HW2 2220   2.389   4.075   2.159
 2822SOL     OW 2221   2.777   3.813   3.264
 2822SOL    HW1 2222   2.802   3.793   3.169
 2822SOL    HW2 2223   2.849   3.869   3.306
 2833SOL     OW 2224   2.366   3.774   3.602
 2833SOL    HW1 2225   2.324   3.717   3.532
 2833SOL    HW2 2226   2.300   3.843   3.634
 2837SOL     OW 2227   2.169   3.937   3.093
 2837SOL    HW1 2228   2.146   3.974   3.183
 2837SOL    HW2 2229   2.139   3.842   3.087
 2840SOL     OW 2230   2.169   3.787   2.480
 2840SOL    HW1 2231   2.158   3.881   2.513
 2840SOL    HW2 2232   2.164   3.724   2.557
 2849SOL     OW 2233   3.022   3.931   3.339
 2849SOL    HW1 2234   3.022   3.995   3.416
 2849SOL    HW2 2235   3.050   3.979   3.256
 2861SOL     OW 2236   3.588   3.859   2.385
 2861SOL    HW1 2237   3.661   3.842   2.318
 2861SOL    HW2 2238   3.557   3.772   2.423
 2864SOL     OW 2239   2.125   4.050   2.582
 2864SOL    HW1 2240   2.046   4.101   2.548
 2864SOL    HW2 2241   2.116   4.035   2.680
 2869SOL     OW 2242   2.876   3.960   2.833
 2869SOL    HW1 2243   2.868   3.924   2.740
 2869SOL    HW2 2244   2.874   3.884   2.898
 2872SOL     OW 2245   2.534   3.927   3.351
 2872SOL    HW1 2246   2.624   3.911   3.311
 2872SOL    HW2 2247   2.542   3.932   3.450
 2873SOL     OW 2248   1.937   4.069   1.895
 2873SOL    HW1 2249   1.845   4.041   1.866
 2873SOL    HW2 2250   1.968   4.146   1.839
 2875SOL     OW 2251   1.934   3.890   2.180
 2875SOL    HW1 2252   1.917   3.973   2.126
 2875SOL    HW2 2253   2.024   3.853   2.158
 2880SOL     OW 2254   3.087   4.049   2.311
 2880SOL    HW1 2255   3.152   3.975   2.300
 2880SOL    HW2 2256   3.107   4.099   2.395
 2888SOL     OW 2257   2.290   4.148   2.382
 2888SOL    HW1 2258   2.320   4.076   2.320
 2888SOL    HW2 2259   2.251   4.108   2.465
 2890SOL     OW 2260   3.286   3.938   2.974
 2890SOL    HW1 2261   3.338   3.873   3.029
 2890SOL    HW2 2262   3.237   4.001   3.035
 2891SOL     OW 2263   2.863   3.758   3.016
 2891SOL    HW1 2264   2.800   3.686   2.985
 2891SOL    HW2 2265   2.956   3.722   3.016
 2893SOL     OW 2266   3.214   3.776   2.030
 2893SOL    HW1 2267   3.249   3.735   1.946
 2893SOL    HW2 2268   3.124   3.738   2.050
 2895SOL     OW 2269   3.455   3.945   2.744
 2895SOL    HW1 2270   3.371   3.944   2.798
 2895SOL    HW2 2271   3.457   4.028   2.688
 3021SOL     OW 2272   3.854   1.821   1.571
 3021SOL    HW1 2273   3.844   1.806   1.670
 3021SOL    HW2 2274   3.768   1.857   1.535
 3100SOL     OW 2275   3.854   1.794   1.851
 3100SOL    HW1 2276   3.813   1.720   1.904
 3100SOL    HW2 2277   3.918   1.845   1.909
 3143SOL     OW 2278   3.955   1.713   2.345
 3143SOL    HW1 2279   3.989   1.790   2.399
 3143SOL    HW2 2280   3.999   1.713   2.255
 3150SOL     OW 2281   3.751   1.596   1.979
 3150SOL    HW1 2282   3.732   1.500   2.000
 3150SOL    HW2 2283   3.718   1.654   2.054
 3166SOL     OW 2284   4.075   1.801   2.715
 3166SOL    HW1 2285   4.125   1.715   2.721
 3166SOL    HW2 2286   4.140   1.878   2.712
 3172SOL     OW 2287   3.973   1.785   3.103
 3172SOL    HW1 2288   4.030   1.720   3.153
 3172SOL    HW2 2289   3.957   1.752   3.010
 3200SOL     OW 2290   3.788   1.564   3.193
 3200SOL    HW1 2291   3.742   1.646   3.159
 3200SOL    HW2 2292   3.886   1.583   3.202
 3223SOL     OW 2293   3.732   1.326   2.062
 3223SOL    HW1 2294   3.639   1.347   2.031
 3223SOL    HW2 2295   3.742   1.227   2.075
 3224SOL     OW 2296   3.812   1.801   2.789
 3224SOL    HW1 2297   3.770   1.715   2.762
 3224SOL    HW2 2298   3.906   1.804   2.755
 3382SOL     OW 2299   3.837   2.599   1.597
 3382SOL    HW1 2300   3.925   2.586   1.642
 3382SOL    HW2 2301   3.824   2.696   1.575
 3386SOL     OW 2302   4.041   2.113   1.801
 3386SOL    HW1 2303   4.112   2.184   1.807
 3386SOL    HW2 2304   3.953   2.152   1.829
 3401SOL     OW 2305   3.926   2.147   1.498
 3401SOL    HW1 2306   3.846   2.207   1.485
 3401SOL    HW2 2307   3.916   2.098   1.584
 3420SOL     OW 2308   3.802   2.418   1.386
 3420SOL    HW1 2309   3.894   2.417   1.345
 3420SOL    HW2 2310   3.796   2.492   1.453
 3449SOL     OW 2311   4.074   2.760   1.804
 3449SOL    HW1 2312   4.150   2.804   1.852
 3449SOL    HW2 2313   4.109   2.713   1.722
 3460SOL     OW 2314   3.913   2.382   1.722
 3460SOL    HW1 2315   3.972   2.342   1.652
 3460SOL    HW2 2316   3.855   2.453   1.681
 3483SOL     OW 2317   3.829   2.875   1.726
 3483SOL    HW1 2318   3.752   2.842   1.780
 3483SOL    HW2 2319   3.914   2.845   1.768
 3494SOL     OW 2320   3.945   3.176   1.844
 3494SOL    HW1 2321   3.880   3.103   1.823
 3494SOL    HW2 2322   3.949   3.190   1.942
 3505SOL     OW 2323   3.954   2.490   1.975
 3505SOL    HW1 2324   3.861   2.488   2.012
 3505SOL    HW2 2325   3.955   2.451   1.883
 3506SOL     OW 2326   3.949   2.137   2.858
 3506SOL    HW1 2327   3.984   2.120   2.950
 3506SOL    HW2 2328   3.861   2.092   2.846
 3507SOL     OW 2329   3.743   2.230   2.509
 3507SOL    HW1 2330   3.661   2.273   2.548
 3507SOL    HW2 2331   3.715   2.157   2.446
 3517SOL     OW 2332   3.954   3.296   2.400
 3517SOL    HW1 2333   3.928   3.392   2.400
 3517SOL    HW2 2334   3.883   3.242   2.445
 3518SOL     OW 2335   3.964   2.953   2.748
 3518SOL    HW1 2336   3.978   2.869   2.800
 3518SOL    HW2 2337   3.909   3.017   2.803
 3521SOL     OW 2338   3.846   2.505   2.425
 3521SOL    HW1 2339   3.801   2.417   2.442
 3521SOL    HW2 2340   3.845   2.559   2.509
 3522SOL     OW 2341   3.751   3.458   1.979
 3522SOL    HW1 2342   3.732   3.362   2.000
 3522SOL    HW2 2343   3.718   3.516   2.054
 3523SOL     OW 2344   3.837   2.599   3.459
 3523SOL    HW1 2345   3.925   2.586   3.504
 3523SOL    HW2 2346   3.824   2.696   3.437
 3526SOL     OW 2347   3.921   2.838   3.126
 3526SOL    HW1 2348   4.010   2.793   3.112
 3526SOL    HW2 2349   3.848   2.773   3.107
 3533SOL     OW 2350   3.800   2.673   2.651
 3533SOL    HW1 2351   3.899   2.661   2.660
 3533SOL    HW2 2352   3.776   2.768   2.672
 3540SOL     OW 2353   4.045   2.805   2.104
 3540SOL    HW1 2354   4.127   2.844   2.062
 3540SOL    HW2 2355   4.018   2.723   2.055
 3542SOL     OW 2356   3.926   2.147   3.360
 3542SOL    HW1 2357   3.846   2.207   3.347
 3542SOL    HW2 2358   3.916   2.098   3.446
 3546SOL     OW 2359   4.106   2.562   2.342
 3546SOL    HW1 2360   4.151   2.472   2.339
 3546SOL    HW2 2361   4.012   2.551   2.375
 3553SOL     OW 2362   4.021   1.897   2.033
 3553SOL    HW1 2363   4.070   1.981   2.012
 3553SOL    HW2 2364   4.083   1.832   2.078
 3557SOL     OW 2365   4.183   3.014   2.603
 3557SOL    HW1 2366   4.112   2.987   2.668
 3557SOL    HW2 2367   4.157   2.986   2.510
 3560SOL     OW 2368   3.802   2.418   3.248
 3560SOL    HW1 2369   3.894   2.417   3.207
 3560SOL    HW2 2370   3.796   2.492   3.315
 3571SOL     OW 2371   4.134   2.675   3.113
 3571SOL    HW1 2372   4.220   2.687   3.163
 3571SOL    HW2 2373   4.092   2.588   3.140
 3572SOL     OW 2374   3.788   3.426   3.193
 3572SOL    HW1 2375   3.742   3.508   3.159
 3572SOL    HW2 2376   3.886   3.445   3.202
 3573SOL     OW 2377   4.091   2.962   2.363
 3573SOL    HW1 2378   4.084   3.045   2.307
 3573SOL    HW2 2379   4.095   2.882   2.303
 3583SOL     OW 2380   4.031   2.075   3.093
 3583SOL    HW1 2381   4.008   2.112   3.183
 3583SOL    HW2 2382   4.001   1.980   3.087
 3584SOL     OW 2383   3.761   3.172   3.144
 3584SOL    HW1 2384   3.814   3.123   3.212
 3584SOL    HW2 2385   3.783   3.270   3.149
 3586SOL     OW 2386   4.031   1.925   2.480
 3586SOL    HW1 2387   4.020   2.019   2.513
 3586SOL    HW2 2388   4.026   1.862   2.557
 3591SOL     OW 2389   4.043   2.672   2.811
 3591SOL    HW1 2390   4.136   2.708   2.816
 3591SOL    HW2 2391   4.037   2.587   2.863
 3592SOL     OW 2392   4.063   2.371   2.868
 3592SOL    HW1 2393   4.011   2.288   2.851
 3592SOL    HW2 2394   4.140   2.376   2.804
 3595SOL     OW 2395   3.732   3.188   2.062
 3595SOL    HW1 2396   3.639   3.209   2.031
 3595SOL    HW2 2397   3.742   3.089   2.075
 3599SOL     OW 2398   3.764   2.406   2.976
 3599SOL    HW1 2399   3.849   2.373   2.935
 3599SOL    HW2 2400   3.777   2.421   3.074
 3605SOL     OW 2401   4.197   2.362   2.053
 3605SOL    HW1 2402   4.258   2.442   2.057
 3605SOL    HW2 2403   4.102   2.393   2.060
 3606SOL     OW 2404   3.883   2.999   3.328
 3606SOL    HW1 2405   3.905   2.938   3.404
 3606SOL    HW2 2406   3.893   2.950   3.242
 3609SOL     OW 2407   3.807   3.120   2.884
 3609SOL    HW1 2408   3.802   3.119   2.984
 3609SOL    HW2 2409   3.724   3.079   2.846
 3614SOL     OW 2410   3.987   2.188   2.582
 3614SOL    HW1 2411   3.908   2.239   2.548
 3614SOL    HW2 2412   3.978   2.173   2.680
 3621SOL     OW 2413   3.979   3.210   2.152
 3621SOL    HW1 2414   3.883   3.211   2.125
 3621SOL    HW2 2415   3.991   3.263   2.236
 3622SOL     OW 2416   3.829   2.875   3.588
 3622SOL    HW1 2417   3.752   2.842   3.642
 3622SOL    HW2 2418   3.914   2.845   3.630
 3624SOL     OW 2419   3.799   2.207   1.895
 3624SOL    HW1 2420   3.707   2.179   1.866
 3624SOL    HW2 2421   3.830   2.284   1.839
 3625SOL     OW 2422   3.796   2.028   2.180
 3625SOL    HW1 2423   3.779   2.111   2.126
 3625SOL    HW2 2424   3.886   1.991   2.158
 3635SOL     OW 2425   3.803   3.102   2.515
 3635SOL    HW1 2426   3.802   3.055   2.603
 3635SOL    HW2 2427   3.885   3.074   2.464
 3637SOL     OW 2428   4.152   2.286   2.382
 3637SOL    HW1 2429   4.182   2.214   2.320
 3637SOL    HW2 2430   4.113   2.246   2.465
 3638SOL     OW 2431   4.041   2.409   3.142
 3638SOL    HW1 2432   4.079   2.350   3.214
 3638SOL    HW2 2433   4.081   2.383   3.054
 3643SOL     OW 2434   3.763   2.939   2.162
 3643SOL    HW1 2435   3.862   2.928   2.153
 3643SOL    HW2 2436   3.723   2.853   2.194
   4.95283   4.95283   4.95283
