; mobley_525934_GMX.itp created by acpype (v: 2023.10.27) on Thu May 21 00:04:43 2026

[ atomtypes ]
;name   bond_type     mass     charge   ptype   sigma         epsilon       Amb
 h1       h1          0.00000  0.00000   A     2.42200e-01   8.70272e-02 ; 1.36  0.0208
 c3       c3          0.00000  0.00000   A     3.39771e-01   4.51035e-01 ; 1.91  0.1078
 sh       sh          0.00000  0.00000   A     3.53241e-01   1.18156e+00 ; 1.98  0.2824
 hs       hs          0.00000  0.00000   A     1.08903e-01   5.18816e-02 ; 0.61  0.0124

[ moleculetype ]
;name            nrexcl
 mobley_525934    3

[ atoms ]
;   nr  type  resi  res  atom  cgnr     charge      mass       ; qtot   bond_type
     1   h1     1   MOL   H11    1     0.063700      1.00800 ; qtot 0.064
     2   c3     1   MOL    C1    2    -0.024000     12.01000 ; qtot 0.040
     3   h1     1   MOL   H12    3     0.063700      1.00800 ; qtot 0.103
     4   h1     1   MOL   H13    4     0.063700      1.00800 ; qtot 0.167
     5   sh     1   MOL    S1    5    -0.362900     32.06000 ; qtot -0.196
     6   hs     1   MOL    H1    6     0.195800      1.00800 ; qtot -0.000

[ bonds ]
;   ai     aj funct   r             k
     1      2   1    1.0969e-01    2.8804e+05 ;    H11 - C1    
     2      3   1    1.0969e-01    2.8804e+05 ;     C1 - H12   
     2      4   1    1.0969e-01    2.8804e+05 ;     C1 - H13   
     2      5   1    1.8446e-01    1.5307e+05 ;     C1 - S1    
     5      6   1    1.3503e-01    2.3222e+05 ;     S1 - H1    

[ pairs ]
;   ai     aj    funct
     1      6      1 ;    H11 - H1    
     3      6      1 ;    H12 - H1    
     4      6      1 ;    H13 - H1    

[ angles ]
;   ai     aj     ak    funct   theta         cth
     1      2      3      1    1.0855e+02    2.9824e+02 ;    H11 - C1     - H12   
     1      2      4      1    1.0855e+02    2.9824e+02 ;    H11 - C1     - H13   
     1      2      5      1    1.0837e+02    3.5171e+02 ;    H11 - C1     - S1    
     2      5      6      1    9.6410e+01    5.5957e+02 ;     C1 - S1     - H1    
     3      2      4      1    1.0855e+02    2.9824e+02 ;    H12 - C1     - H13   
     3      2      5      1    1.0837e+02    3.5171e+02 ;    H12 - C1     - S1    
     4      2      5      1    1.0837e+02    3.5171e+02 ;    H13 - C1     - S1    

[ dihedrals ] ; propers
; for gromacs 4.5 or higher, using funct 9
;    i      j      k      l   func   phase     kd      pn
     1      2      5      6      9     0.00   0.59831   3 ;    H11-    C1-    S1-    H1
     3      2      5      6      9     0.00   0.59831   3 ;    H12-    C1-    S1-    H1
     4      2      5      6      9     0.00   0.59831   3 ;    H13-    C1-    S1-    H1
