; mobley_282648_GMX.itp created by acpype (v: 2023.10.27) on Thu May 21 00:01:14 2026

[ atomtypes ]
;name   bond_type     mass     charge   ptype   sigma         epsilon       Amb
 ca       ca          0.00000  0.00000   A     3.31521e-01   4.13379e-01 ; 1.86  0.0988
 ha       ha          0.00000  0.00000   A     2.62548e-01   6.73624e-02 ; 1.47  0.0161

[ moleculetype ]
;name            nrexcl
 mobley_282648    3

[ atoms ]
;   nr  type  resi  res  atom  cgnr     charge      mass       ; qtot   bond_type
     1   ca     1   MOL    C1    1    -0.128000     12.01000 ; qtot -0.128
     2   ca     1   MOL    C2    2    -0.128000     12.01000 ; qtot -0.256
     3   ca     1   MOL    C3    3    -0.128000     12.01000 ; qtot -0.384
     4   ca     1   MOL    C4    4    -0.128000     12.01000 ; qtot -0.512
     5   ca     1   MOL    C5    5    -0.117000     12.01000 ; qtot -0.629
     6   ca     1   MOL    C6    6    -0.117000     12.01000 ; qtot -0.746
     7   ca     1   MOL    C7    7    -0.117000     12.01000 ; qtot -0.863
     8   ca     1   MOL    C8    8    -0.117000     12.01000 ; qtot -0.980
     9   ca     1   MOL    C9    9    -0.037000     12.01000 ; qtot -1.017
    10   ca     1   MOL   C10   10    -0.037000     12.01000 ; qtot -1.054
    11   ha     1   MOL    H1   11     0.131750      1.00800 ; qtot -0.922
    12   ha     1   MOL    H2   12     0.131750      1.00800 ; qtot -0.790
    13   ha     1   MOL    H3   13     0.131750      1.00800 ; qtot -0.659
    14   ha     1   MOL    H4   14     0.131750      1.00800 ; qtot -0.527
    15   ha     1   MOL    H5   15     0.131750      1.00800 ; qtot -0.395
    16   ha     1   MOL    H6   16     0.131750      1.00800 ; qtot -0.263
    17   ha     1   MOL    H7   17     0.131750      1.00800 ; qtot -0.132
    18   ha     1   MOL    H8   18     0.131750      1.00800 ; qtot 0.000

[ bonds ]
;   ai     aj funct   r             k
     1      2   1    1.3986e-01    2.9644e+05 ;     C1 - C2    
     1      5   1    1.3986e-01    2.9644e+05 ;     C1 - C5    
     1     11   1    1.0860e-01    3.0183e+05 ;     C1 - H1    
     2      6   1    1.3986e-01    2.9644e+05 ;     C2 - C6    
     2     12   1    1.0860e-01    3.0183e+05 ;     C2 - H2    
     3      4   1    1.3986e-01    2.9644e+05 ;     C3 - C4    
     3      7   1    1.3986e-01    2.9644e+05 ;     C3 - C7    
     3     13   1    1.0860e-01    3.0183e+05 ;     C3 - H3    
     4      8   1    1.3986e-01    2.9644e+05 ;     C4 - C8    
     4     14   1    1.0860e-01    3.0183e+05 ;     C4 - H4    
     5      9   1    1.3986e-01    2.9644e+05 ;     C5 - C9    
     5     15   1    1.0860e-01    3.0183e+05 ;     C5 - H5    
     6     10   1    1.3986e-01    2.9644e+05 ;     C6 - C10   
     6     16   1    1.0860e-01    3.0183e+05 ;     C6 - H6    
     7      9   1    1.3986e-01    2.9644e+05 ;     C7 - C9    
     7     17   1    1.0860e-01    3.0183e+05 ;     C7 - H7    
     8     10   1    1.3986e-01    2.9644e+05 ;     C8 - C10   
     8     18   1    1.0860e-01    3.0183e+05 ;     C8 - H8    
     9     10   1    1.3986e-01    2.9644e+05 ;     C9 - C10   

[ pairs ]
;   ai     aj    funct
     1      7      1 ;     C1 - C7    
     1     10      1 ;     C1 - C10   
     1     16      1 ;     C1 - H6    
     2      8      1 ;     C2 - C8    
     2      9      1 ;     C2 - C9    
     2     15      1 ;     C2 - H5    
     3      5      1 ;     C3 - C5    
     3     10      1 ;     C3 - C10   
     3     18      1 ;     C3 - H8    
     4      6      1 ;     C4 - C6    
     4      9      1 ;     C4 - C9    
     4     17      1 ;     C4 - H7    
     5      6      1 ;     C5 - C6    
     5      8      1 ;     C5 - C8    
     5     12      1 ;     C5 - H2    
     5     17      1 ;     C5 - H7    
     6      7      1 ;     C6 - C7    
     6     18      1 ;     C6 - H8    
     7      8      1 ;     C7 - C8    
     7     14      1 ;     C7 - H4    
     7     15      1 ;     C7 - H5    
     8     13      1 ;     C8 - H3    
     8     16      1 ;     C8 - H6    
     9     13      1 ;     C9 - H3    
     9     16      1 ;     C9 - H6    
     9     18      1 ;     C9 - H8    
    10     12      1 ;    C10 - H2    
    10     14      1 ;    C10 - H4    
    10     15      1 ;    C10 - H5    
    10     17      1 ;    C10 - H7    
    11      6      1 ;     H1 - C6    
    11      9      1 ;     H1 - C9    
    11     12      1 ;     H1 - H2    
    11     15      1 ;     H1 - H5    
    12     16      1 ;     H2 - H6    
    13     14      1 ;     H3 - H4    
    13     17      1 ;     H3 - H7    
    14     18      1 ;     H4 - H8    

[ angles ]
;   ai     aj     ak    funct   theta         cth
     1      2      6      1    1.2002e+02    5.3279e+02 ;     C1 - C2     - C6    
     1      2     12      1    1.1988e+02    3.7572e+02 ;     C1 - C2     - H2    
     1      5      9      1    1.2002e+02    5.3279e+02 ;     C1 - C5     - C9    
     1      5     15      1    1.1988e+02    3.7572e+02 ;     C1 - C5     - H5    
     2      1      5      1    1.2002e+02    5.3279e+02 ;     C2 - C1     - C5    
     2      1     11      1    1.1988e+02    3.7572e+02 ;     C2 - C1     - H1    
     2      6     10      1    1.2002e+02    5.3279e+02 ;     C2 - C6     - C10   
     2      6     16      1    1.1988e+02    3.7572e+02 ;     C2 - C6     - H6    
     3      4      8      1    1.2002e+02    5.3279e+02 ;     C3 - C4     - C8    
     3      4     14      1    1.1988e+02    3.7572e+02 ;     C3 - C4     - H4    
     3      7      9      1    1.2002e+02    5.3279e+02 ;     C3 - C7     - C9    
     3      7     17      1    1.1988e+02    3.7572e+02 ;     C3 - C7     - H7    
     4      3      7      1    1.2002e+02    5.3279e+02 ;     C4 - C3     - C7    
     4      3     13      1    1.1988e+02    3.7572e+02 ;     C4 - C3     - H3    
     4      8     10      1    1.2002e+02    5.3279e+02 ;     C4 - C8     - C10   
     4      8     18      1    1.1988e+02    3.7572e+02 ;     C4 - C8     - H8    
     5      1     11      1    1.1988e+02    3.7572e+02 ;     C5 - C1     - H1    
     5      9      7      1    1.2002e+02    5.3279e+02 ;     C5 - C9     - C7    
     5      9     10      1    1.2002e+02    5.3279e+02 ;     C5 - C9     - C10   
     6      2     12      1    1.1988e+02    3.7572e+02 ;     C6 - C2     - H2    
     6     10      8      1    1.2002e+02    5.3279e+02 ;     C6 - C10    - C8    
     6     10      9      1    1.2002e+02    5.3279e+02 ;     C6 - C10    - C9    
     7      3     13      1    1.1988e+02    3.7572e+02 ;     C7 - C3     - H3    
     7      9     10      1    1.2002e+02    5.3279e+02 ;     C7 - C9     - C10   
     8      4     14      1    1.1988e+02    3.7572e+02 ;     C8 - C4     - H4    
     8     10      9      1    1.2002e+02    5.3279e+02 ;     C8 - C10    - C9    
     9      5     15      1    1.1988e+02    3.7572e+02 ;     C9 - C5     - H5    
     9      7     17      1    1.1988e+02    3.7572e+02 ;     C9 - C7     - H7    
    10      6     16      1    1.1988e+02    3.7572e+02 ;    C10 - C6     - H6    
    10      8     18      1    1.1988e+02    3.7572e+02 ;    C10 - C8     - H8    

[ dihedrals ] ; propers
; for gromacs 4.5 or higher, using funct 9
;    i      j      k      l   func   phase     kd      pn
     1      2      6     10      9   180.00  15.16700   2 ;     C1-    C2-    C6-   C10
     1      2      6     16      9   180.00  15.16700   2 ;     C1-    C2-    C6-    H6
     1      5      9      7      9   180.00  15.16700   2 ;     C1-    C5-    C9-    C7
     1      5      9     10      9   180.00  15.16700   2 ;     C1-    C5-    C9-   C10
     2      1      5      9      9   180.00  15.16700   2 ;     C2-    C1-    C5-    C9
     2      1      5     15      9   180.00  15.16700   2 ;     C2-    C1-    C5-    H5
     2      6     10      8      9   180.00  15.16700   2 ;     C2-    C6-   C10-    C8
     2      6     10      9      9   180.00  15.16700   2 ;     C2-    C6-   C10-    C9
     3      4      8     10      9   180.00  15.16700   2 ;     C3-    C4-    C8-   C10
     3      4      8     18      9   180.00  15.16700   2 ;     C3-    C4-    C8-    H8
     3      7      9      5      9   180.00  15.16700   2 ;     C3-    C7-    C9-    C5
     3      7      9     10      9   180.00  15.16700   2 ;     C3-    C7-    C9-   C10
     4      3      7      9      9   180.00  15.16700   2 ;     C4-    C3-    C7-    C9
     4      3      7     17      9   180.00  15.16700   2 ;     C4-    C3-    C7-    H7
     4      8     10      6      9   180.00  15.16700   2 ;     C4-    C8-   C10-    C6
     4      8     10      9      9   180.00  15.16700   2 ;     C4-    C8-   C10-    C9
     5      1      2      6      9   180.00  15.16700   2 ;     C5-    C1-    C2-    C6
     5      1      2     12      9   180.00  15.16700   2 ;     C5-    C1-    C2-    H2
     5      9      7     17      9   180.00  15.16700   2 ;     C5-    C9-    C7-    H7
     5      9     10      6      9   180.00  15.16700   2 ;     C5-    C9-   C10-    C6
     5      9     10      8      9   180.00  15.16700   2 ;     C5-    C9-   C10-    C8
     6     10      8     18      9   180.00  15.16700   2 ;     C6-   C10-    C8-    H8
     6     10      9      7      9   180.00  15.16700   2 ;     C6-   C10-    C9-    C7
     7      3      4      8      9   180.00  15.16700   2 ;     C7-    C3-    C4-    C8
     7      3      4     14      9   180.00  15.16700   2 ;     C7-    C3-    C4-    H4
     7      9      5     15      9   180.00  15.16700   2 ;     C7-    C9-    C5-    H5
     7      9     10      8      9   180.00  15.16700   2 ;     C7-    C9-   C10-    C8
     8      4      3     13      9   180.00  15.16700   2 ;     C8-    C4-    C3-    H3
     8     10      6     16      9   180.00  15.16700   2 ;     C8-   C10-    C6-    H6
     9      7      3     13      9   180.00  15.16700   2 ;     C9-    C7-    C3-    H3
     9     10      6     16      9   180.00  15.16700   2 ;     C9-   C10-    C6-    H6
     9     10      8     18      9   180.00  15.16700   2 ;     C9-   C10-    C8-    H8
    10      6      2     12      9   180.00  15.16700   2 ;    C10-    C6-    C2-    H2
    10      8      4     14      9   180.00  15.16700   2 ;    C10-    C8-    C4-    H4
    10      9      5     15      9   180.00  15.16700   2 ;    C10-    C9-    C5-    H5
    10      9      7     17      9   180.00  15.16700   2 ;    C10-    C9-    C7-    H7
    11      1      2      6      9   180.00  15.16700   2 ;     H1-    C1-    C2-    C6
    11      1      2     12      9   180.00  15.16700   2 ;     H1-    C1-    C2-    H2
    11      1      5      9      9   180.00  15.16700   2 ;     H1-    C1-    C5-    C9
    11      1      5     15      9   180.00  15.16700   2 ;     H1-    C1-    C5-    H5
    12      2      6     16      9   180.00  15.16700   2 ;     H2-    C2-    C6-    H6
    13      3      4     14      9   180.00  15.16700   2 ;     H3-    C3-    C4-    H4
    13      3      7     17      9   180.00  15.16700   2 ;     H3-    C3-    C7-    H7
    14      4      8     18      9   180.00  15.16700   2 ;     H4-    C4-    C8-    H8

[ dihedrals ] ; impropers
; treated as propers in GROMACS to use correct AMBER analytical function
;    i      j      k      l   func   phase     kd      pn
     1      6      2     12      4   180.00   4.60240   2 ;     C1-    C6-    C2-    H2
     1      9      5     15      4   180.00   4.60240   2 ;     C1-    C9-    C5-    H5
     2     10      6     16      4   180.00   4.60240   2 ;     C2-   C10-    C6-    H6
     3      8      4     14      4   180.00   4.60240   2 ;     C3-    C8-    C4-    H4
     3      9      7     17      4   180.00   4.60240   2 ;     C3-    C9-    C7-    H7
     4      7      3     13      4   180.00   4.60240   2 ;     C4-    C7-    C3-    H3
     4     10      8     18      4   180.00   4.60240   2 ;     C4-   C10-    C8-    H8
     5      7      9     10      4   180.00   4.60240   2 ;     C5-    C7-    C9-   C10
     6      8     10      9      4   180.00   4.60240   2 ;     C6-    C8-   C10-    C9
    11      1      5      2      4   180.00   4.60240   2 ;     H1-    C1-    C5-    C2
