mobley_6190089_GMX.gro created by acpype (v: 2023.10.27) on Tue May 19 12:54:27 2026
 2390
    1MOL     C1    1   2.260   2.238   2.156
    1MOL     C2    2   2.174   2.219   2.282
    1MOL    CL1    3   2.376   2.105   2.130
    1MOL    CL2    4   2.158   2.257   2.011
    1MOL    CL3    5   2.075   2.071   2.278
    1MOL    CL4    6   2.275   2.218   2.429
    1MOL     H1    7   2.319   2.330   2.164
    1MOL     H2    8   2.105   2.304   2.293
    6SOL     OW    9   1.555   1.511   0.703
    6SOL    HW1   10   1.498   1.495   0.784
    6SOL    HW2   11   1.496   1.521   0.623
   14SOL     OW   12   1.460   1.505   1.339
   14SOL    HW1   13   1.484   1.599   1.365
   14SOL    HW2   14   1.444   1.451   1.421
   18SOL     OW   15   1.127   1.341   1.690
   18SOL    HW1   16   1.174   1.341   1.778
   18SOL    HW2   17   1.079   1.254   1.679
   31SOL     OW   18   1.293   1.228   1.423
   31SOL    HW1   19   1.330   1.155   1.365
   31SOL    HW2   20   1.345   1.233   1.508
   35SOL     OW   21   1.187   1.792   1.616
   35SOL    HW1   22   1.211   1.852   1.540
   35SOL    HW2   23   1.194   1.697   1.586
   37SOL     OW   24   1.466   1.417   0.953
   37SOL    HW1   25   1.407   1.423   1.033
   37SOL    HW2   26   1.451   1.329   0.907
   50SOL     OW   27   1.719   0.585   1.831
   50SOL    HW1   28   1.693   0.674   1.795
   50SOL    HW2   29   1.717   0.517   1.758
   56SOL     OW   30   1.227   1.550   1.506
   56SOL    HW1   31   1.233   1.473   1.570
   56SOL    HW2   32   1.175   1.524   1.426
   95SOL     OW   33   1.754   1.223   1.588
   95SOL    HW1   34   1.845   1.184   1.575
   95SOL    HW2   35   1.762   1.319   1.612
   96SOL     OW   36   1.064   1.347   1.340
   96SOL    HW1   37   0.984   1.324   1.395
   96SOL    HW2   38   1.147   1.321   1.389
   97SOL     OW   39   1.592   1.629   1.625
   97SOL    HW1   40   1.619   1.663   1.535
   97SOL    HW2   41   1.671   1.591   1.671
   99SOL     OW   42   1.638   1.099   1.079
   99SOL    HW1   43   1.643   1.180   1.138
   99SOL    HW2   44   1.552   1.101   1.028
  101SOL     OW   45   0.980   1.116   1.719
  101SOL    HW1   46   0.881   1.122   1.729
  101SOL    HW2   47   1.003   1.036   1.663
  109SOL     OW   48   1.272   1.445   1.142
  109SOL    HW1   49   1.319   1.458   1.229
  109SOL    HW2   50   1.206   1.371   1.151
  113SOL     OW   51   1.587   0.779   1.670
  113SOL    HW1   52   1.495   0.817   1.665
  113SOL    HW2   53   1.647   0.826   1.605
  122SOL     OW   54   1.728   0.935   1.854
  122SOL    HW1   55   1.682   0.928   1.765
  122SOL    HW2   56   1.666   0.979   1.920
  126SOL     OW   57   0.980   1.573   1.700
  126SOL    HW1   58   0.960   1.617   1.612
  126SOL    HW2   59   1.019   1.482   1.684
  127SOL     OW   60   1.859   1.518   1.605
  127SOL    HW1   61   1.873   1.545   1.510
  127SOL    HW2   62   1.942   1.540   1.658
  142SOL     OW   63   1.369   0.950   1.660
  142SOL    HW1   64   1.408   1.039   1.680
  142SOL    HW2   65   1.379   0.930   1.563
  147SOL     OW   66   0.930   1.678   1.465
  147SOL    HW1   67   0.906   1.660   1.370
  147SOL    HW2   68   0.960   1.772   1.475
  150SOL     OW   69   1.347   1.059   1.234
  150SOL    HW1   70   1.371   0.996   1.160
  150SOL    HW2   71   1.257   1.099   1.216
  152SOL     OW   72   1.759   1.747   1.154
  152SOL    HW1   73   1.820   1.777   1.081
  152SOL    HW2   74   1.721   1.658   1.132
  153SOL     OW   75   1.252   1.731   1.128
  153SOL    HW1   76   1.336   1.736   1.074
  153SOL    HW2   77   1.229   1.635   1.146
  155SOL     OW   78   0.688   1.662   1.716
  155SOL    HW1   79   0.632   1.743   1.725
  155SOL    HW2   80   0.740   1.666   1.630
  163SOL     OW   81   1.650   1.720   1.394
  163SOL    HW1   82   1.703   1.730   1.310
  163SOL    HW2   83   1.623   1.810   1.428
  171SOL     OW   84   1.614   1.292   1.289
  171SOL    HW1   85   1.674   1.295   1.369
  171SOL    HW2   86   1.539   1.356   1.302
  180SOL     OW   87   1.440   0.856   1.398
  180SOL    HW1   88   1.383   0.908   1.335
  180SOL    HW2   89   1.536   0.868   1.374
  184SOL     OW   90   1.493   1.767   0.959
  184SOL    HW1   91   1.526   1.831   0.890
  184SOL    HW2   92   1.559   1.761   1.034
  186SOL     OW   93   1.450   1.220   1.633
  186SOL    HW1   94   1.441   1.210   1.732
  186SOL    HW2   95   1.546   1.213   1.607
  188SOL     OW   96   1.674   0.883   1.254
  188SOL    HW1   97   1.647   0.794   1.217
  188SOL    HW2   98   1.675   0.951   1.181
  192SOL     OW   99   1.730   0.934   1.517
  192SOL    HW1  100   1.768   1.025   1.532
  192SOL    HW2  101   1.722   0.917   1.418
  197SOL     OW  102   1.861   1.569   0.851
  197SOL    HW1  103   1.790   1.557   0.781
  197SOL    HW2  104   1.862   1.490   0.911
  203SOL     OW  105   1.705   1.487   1.104
  203SOL    HW1  106   1.612   1.462   1.077
  203SOL    HW2  107   1.731   1.437   1.186
  219SOL     OW  108   1.555   1.511   2.565
  219SOL    HW1  109   1.498   1.495   2.646
  219SOL    HW2  110   1.496   1.521   2.485
  221SOL     OW  111   1.755   0.607   2.093
  221SOL    HW1  112   1.743   0.594   1.994
  221SOL    HW2  113   1.725   0.526   2.142
  227SOL     OW  114   1.460   1.505   3.201
  227SOL    HW1  115   1.484   1.599   3.227
  227SOL    HW2  116   1.444   1.451   3.283
  238SOL     OW  117   1.842   1.767   2.221
  238SOL    HW1  118   1.896   1.738   2.301
  238SOL    HW2  119   1.872   1.857   2.192
  240SOL     OW  120   1.689   0.922   2.474
  240SOL    HW1  121   1.784   0.893   2.482
  240SOL    HW2  122   1.681   0.987   2.399
  241SOL     OW  123   1.641   1.108   2.294
  241SOL    HW1  124   1.727   1.110   2.242
  241SOL    HW2  125   1.655   1.155   2.382
  244SOL     OW  126   1.293   1.228   3.285
  244SOL    HW1  127   1.330   1.155   3.227
  244SOL    HW2  128   1.345   1.233   3.370
  247SOL     OW  129   1.525   0.999   2.052
  247SOL    HW1  130   1.462   0.923   2.065
  247SOL    HW2  131   1.573   1.017   2.138
  248SOL     OW  132   1.187   1.792   3.478
  248SOL    HW1  133   1.211   1.852   3.402
  248SOL    HW2  134   1.194   1.697   3.448
  250SOL     OW  135   1.466   1.417   2.815
  250SOL    HW1  136   1.407   1.423   2.895
  250SOL    HW2  137   1.451   1.329   2.769
  251SOL     OW  138   1.667   1.714   2.434
  251SOL    HW1  139   1.626   1.691   2.346
  251SOL    HW2  140   1.649   1.640   2.499
  254SOL     OW  141   1.576   1.662   2.169
  254SOL    HW1  142   1.665   1.708   2.172
  254SOL    HW2  143   1.555   1.638   2.074
  264SOL     OW  144   1.362   1.144   2.407
  264SOL    HW1  145   1.445   1.115   2.359
  264SOL    HW2  146   1.313   1.211   2.351
  266SOL     OW  147   1.008   1.456   2.339
  266SOL    HW1  148   0.962   1.528   2.287
  266SOL    HW2  149   1.004   1.476   2.437
  268SOL     OW  150   1.795   1.066   2.735
  268SOL    HW1  151   1.733   1.051   2.659
  268SOL    HW2  152   1.743   1.077   2.820
  269SOL     OW  153   1.227   1.550   3.368
  269SOL    HW1  154   1.233   1.473   3.432
  269SOL    HW2  155   1.175   1.524   3.288
  271SOL     OW  156   1.458   0.735   2.590
  271SOL    HW1  157   1.453   0.670   2.665
  271SOL    HW2  158   1.538   0.794   2.603
  273SOL     OW  159   1.111   1.776   2.099
  273SOL    HW1  160   1.051   1.714   2.149
  273SOL    HW2  161   1.142   1.732   2.014
  275SOL     OW  162   1.632   1.377   1.943
  275SOL    HW1  163   1.600   1.471   1.933
  275SOL    HW2  164   1.556   1.314   1.931
  279SOL     OW  165   0.940   1.698   2.766
  279SOL    HW1  166   1.020   1.641   2.787
  279SOL    HW2  167   0.891   1.658   2.689
  284SOL     OW  168   0.888   1.514   3.057
  284SOL    HW1  169   0.865   1.489   2.963
  284SOL    HW2  170   0.949   1.445   3.096
  286SOL     OW  171   0.803   1.402   2.786
  286SOL    HW1  172   0.893   1.416   2.744
  286SOL    HW2  173   0.732   1.404   2.715
  289SOL     OW  174   1.434   1.188   1.903
  289SOL    HW1  175   1.466   1.112   1.960
  289SOL    HW2  176   1.342   1.215   1.933
  293SOL     OW  177   1.227   1.570   2.655
  293SOL    HW1  178   1.248   1.644   2.590
  293SOL    HW2  179   1.295   1.570   2.728
  295SOL     OW  180   1.271   1.797   2.453
  295SOL    HW1  181   1.315   1.861   2.389
  295SOL    HW2  182   1.221   1.849   2.523
  301SOL     OW  183   1.429   1.173   2.729
  301SOL    HW1  184   1.374   1.089   2.722
  301SOL    HW2  185   1.455   1.202   2.637
  303SOL     OW  186   1.857   0.833   2.239
  303SOL    HW1  187   1.899   0.769   2.303
  303SOL    HW2  188   1.819   0.782   2.161
  305SOL     OW  189   1.664   1.280   2.519
  305SOL    HW1  190   1.763   1.288   2.533
  305SOL    HW2  191   1.619   1.364   2.550
  308SOL     OW  192   1.754   1.223   3.450
  308SOL    HW1  193   1.845   1.184   3.437
  308SOL    HW2  194   1.762   1.319   3.474
  309SOL     OW  195   1.064   1.347   3.202
  309SOL    HW1  196   0.984   1.324   3.257
  309SOL    HW2  197   1.147   1.321   3.251
  310SOL     OW  198   1.592   1.629   3.487
  310SOL    HW1  199   1.619   1.663   3.397
  310SOL    HW2  200   1.671   1.591   3.533
  311SOL     OW  201   1.111   1.195   2.962
  311SOL    HW1  202   1.071   1.239   3.043
  311SOL    HW2  203   1.070   1.232   2.879
  312SOL     OW  204   1.638   1.099   2.941
  312SOL    HW1  205   1.643   1.180   3.000
  312SOL    HW2  206   1.552   1.101   2.890
  321SOL     OW  207   1.252   1.348   2.250
  321SOL    HW1  208   1.302   1.425   2.290
  321SOL    HW2  209   1.157   1.350   2.282
  322SOL     OW  210   1.272   1.445   3.004
  322SOL    HW1  211   1.319   1.458   3.091
  322SOL    HW2  212   1.206   1.371   3.013
  323SOL     OW  213   1.582   0.639   2.334
  323SOL    HW1  214   1.551   0.700   2.407
  323SOL    HW2  215   1.632   0.691   2.265
  330SOL     OW  216   1.360   0.862   2.907
  330SOL    HW1  217   1.285   0.862   2.841
  330SOL    HW2  218   1.397   0.770   2.916
  340SOL     OW  219   1.859   1.518   3.467
  340SOL    HW1  220   1.873   1.545   3.372
  340SOL    HW2  221   1.942   1.540   3.520
  343SOL     OW  222   1.303   0.838   1.904
  343SOL    HW1  223   1.337   0.745   1.919
  343SOL    HW2  224   1.321   0.865   1.809
  344SOL     OW  225   1.068   1.333   2.711
  344SOL    HW1  226   1.075   1.249   2.656
  344SOL    HW2  227   1.130   1.402   2.675
  360SOL     OW  228   0.930   1.678   3.327
  360SOL    HW1  229   0.906   1.660   3.232
  360SOL    HW2  230   0.960   1.772   3.337
  363SOL     OW  231   1.347   1.059   3.096
  363SOL    HW1  232   1.371   0.996   3.022
  363SOL    HW2  233   1.257   1.099   3.078
  364SOL     OW  234   1.302   0.855   2.171
  364SOL    HW1  235   1.216   0.824   2.213
  364SOL    HW2  236   1.298   0.841   2.072
  365SOL     OW  237   1.759   1.747   3.016
  365SOL    HW1  238   1.820   1.777   2.943
  365SOL    HW2  239   1.721   1.658   2.994
  366SOL     OW  240   1.252   1.731   2.990
  366SOL    HW1  241   1.336   1.736   2.936
  366SOL    HW2  242   1.229   1.635   3.008
  370SOL     OW  243   1.388   1.573   2.339
  370SOL    HW1  244   1.455   1.585   2.265
  370SOL    HW2  245   1.348   1.662   2.362
  372SOL     OW  246   1.280   0.927   2.534
  372SOL    HW1  247   1.340   0.846   2.536
  372SOL    HW2  248   1.320   0.996   2.474
  374SOL     OW  249   0.672   1.616   2.016
  374SOL    HW1  250   0.681   1.626   1.917
  374SOL    HW2  251   0.632   1.527   2.037
  375SOL     OW  252   1.650   1.720   3.256
  375SOL    HW1  253   1.703   1.730   3.172
  375SOL    HW2  254   1.623   1.810   3.290
  378SOL     OW  255   1.194   1.612   1.893
  378SOL    HW1  256   1.200   1.519   1.930
  378SOL    HW2  257   1.135   1.612   1.813
  381SOL     OW  258   1.504   1.607   1.906
  381SOL    HW1  259   1.412   1.644   1.913
  381SOL    HW2  260   1.542   1.627   1.816
  383SOL     OW  261   1.614   1.292   3.151
  383SOL    HW1  262   1.674   1.295   3.231
  383SOL    HW2  263   1.539   1.356   3.164
  384SOL     OW  264   1.039   1.098   2.558
  384SOL    HW1  265   0.969   1.051   2.612
  384SOL    HW2  266   1.098   1.030   2.515
  386SOL     OW  267   0.590   1.487   2.353
  386SOL    HW1  268   0.632   1.429   2.283
  386SOL    HW2  269   0.546   1.566   2.309
  394SOL     OW  270   1.183   1.335   1.981
  394SOL    HW1  271   1.084   1.324   1.983
  394SOL    HW2  272   1.217   1.350   2.074
  396SOL     OW  273   1.493   1.767   2.821
  396SOL    HW1  274   1.526   1.831   2.752
  396SOL    HW2  275   1.559   1.761   2.896
  398SOL     OW  276   1.450   1.220   3.495
  398SOL    HW1  277   1.441   1.210   3.594
  398SOL    HW2  278   1.546   1.213   3.469
  400SOL     OW  279   1.674   0.883   3.116
  400SOL    HW1  280   1.647   0.794   3.079
  400SOL    HW2  281   1.675   0.951   3.043
  404SOL     OW  282   1.730   0.934   3.379
  404SOL    HW1  283   1.768   1.025   3.394
  404SOL    HW2  284   1.722   0.917   3.280
  405SOL     OW  285   0.859   1.374   1.878
  405SOL    HW1  286   0.813   1.389   1.966
  405SOL    HW2  287   0.903   1.459   1.848
  406SOL     OW  288   0.661   1.790   2.815
  406SOL    HW1  289   0.615   1.878   2.802
  406SOL    HW2  290   0.760   1.802   2.808
  408SOL     OW  291   1.083   0.984   1.949
  408SOL    HW1  292   1.060   1.037   1.867
  408SOL    HW2  293   1.164   0.928   1.930
  409SOL     OW  294   1.861   1.569   2.713
  409SOL    HW1  295   1.790   1.557   2.643
  409SOL    HW2  296   1.862   1.490   2.773
  415SOL     OW  297   1.705   1.487   2.966
  415SOL    HW1  298   1.612   1.462   2.939
  415SOL    HW2  299   1.731   1.437   3.048
  417SOL     OW  300   0.812   1.586   2.549
  417SOL    HW1  301   0.844   1.596   2.455
  417SOL    HW2  302   0.733   1.524   2.551
  420SOL     OW  303   0.770   1.330   2.163
  420SOL    HW1  304   0.724   1.243   2.180
  420SOL    HW2  305   0.861   1.327   2.204
  426SOL     OW  306   0.875   1.646   2.199
  426SOL    HW1  307   0.798   1.611   2.145
  426SOL    HW2  308   0.843   1.717   2.261
  514SOL     OW  309   0.850   2.660   1.823
  514SOL    HW1  310   0.846   2.736   1.888
  514SOL    HW2  311   0.872   2.696   1.732
  516SOL     OW  312   0.686   3.023   1.803
  516SOL    HW1  313   0.746   3.102   1.817
  516SOL    HW2  314   0.600   3.054   1.762
  518SOL     OW  315   1.460   3.367   1.339
  518SOL    HW1  316   1.484   3.461   1.365
  518SOL    HW2  317   1.444   3.313   1.421
  520SOL     OW  318   1.603   2.309   0.737
  520SOL    HW1  319   1.529   2.355   0.687
  520SOL    HW2  320   1.654   2.377   0.790
  522SOL     OW  321   1.127   3.203   1.690
  522SOL    HW1  322   1.174   3.203   1.778
  522SOL    HW2  323   1.079   3.116   1.679
  527SOL     OW  324   1.594   1.976   1.480
  527SOL    HW1  325   1.576   2.043   1.408
  527SOL    HW2  326   1.591   2.022   1.569
  531SOL     OW  327   1.689   2.784   0.612
  531SOL    HW1  328   1.784   2.755   0.620
  531SOL    HW2  329   1.681   2.849   0.537
  535SOL     OW  330   1.293   3.090   1.423
  535SOL    HW1  331   1.330   3.017   1.365
  535SOL    HW2  332   1.345   3.095   1.508
  544SOL     OW  333   1.281   2.207   0.944
  544SOL    HW1  334   1.195   2.157   0.931
  544SOL    HW2  335   1.343   2.153   1.000
  546SOL     OW  336   0.807   2.467   1.465
  546SOL    HW1  337   0.760   2.464   1.554
  546SOL    HW2  338   0.756   2.412   1.399
  547SOL     OW  339   1.394   2.331   1.674
  547SOL    HW1  340   1.374   2.374   1.762
  547SOL    HW2  341   1.472   2.269   1.683
  548SOL     OW  342   0.973   2.752   1.572
  548SOL    HW1  343   1.019   2.668   1.543
  548SOL    HW2  344   0.917   2.786   1.497
  549SOL     OW  345   0.991   2.272   1.242
  549SOL    HW1  346   0.914   2.306   1.296
  549SOL    HW2  347   0.957   2.221   1.163
  554SOL     OW  348   1.719   2.447   1.831
  554SOL    HW1  349   1.693   2.536   1.795
  554SOL    HW2  350   1.717   2.379   1.758
  559SOL     OW  351   1.795   2.928   0.873
  559SOL    HW1  352   1.733   2.913   0.797
  559SOL    HW2  353   1.743   2.939   0.958
  560SOL     OW  354   1.227   3.412   1.506
  560SOL    HW1  355   1.233   3.335   1.570
  560SOL    HW2  356   1.175   3.386   1.426
  562SOL     OW  357   1.458   2.597   0.728
  562SOL    HW1  358   1.453   2.532   0.803
  562SOL    HW2  359   1.538   2.656   0.741
  572SOL     OW  360   1.547   2.084   1.729
  572SOL    HW1  361   1.542   2.121   1.821
  572SOL    HW2  362   1.475   2.015   1.717
  574SOL     OW  363   0.781   2.126   1.749
  574SOL    HW1  364   0.848   2.065   1.792
  574SOL    HW2  365   0.708   2.145   1.814
  576SOL     OW  366   1.351   2.452   1.433
  576SOL    HW1  367   1.379   2.409   1.518
  576SOL    HW2  368   1.376   2.548   1.434
  582SOL     OW  369   1.076   2.545   1.464
  582SOL    HW1  370   0.996   2.484   1.467
  582SOL    HW2  371   1.157   2.492   1.440
  591SOL     OW  372   1.429   3.035   0.867
  591SOL    HW1  373   1.374   2.951   0.860
  591SOL    HW2  374   1.455   3.064   0.775
  592SOL     OW  375   1.466   2.452   0.992
  592SOL    HW1  376   1.436   2.357   0.999
  592SOL    HW2  377   1.539   2.468   1.058
  598SOL     OW  378   1.754   3.085   1.588
  598SOL    HW1  379   1.845   3.046   1.575
  598SOL    HW2  380   1.762   3.181   1.612
  599SOL     OW  381   1.064   3.209   1.340
  599SOL    HW1  382   0.984   3.186   1.395
  599SOL    HW2  383   1.147   3.183   1.389
  600SOL     OW  384   1.592   3.491   1.625
  600SOL    HW1  385   1.619   3.525   1.535
  600SOL    HW2  386   1.671   3.453   1.671
  601SOL     OW  387   1.111   3.057   1.100
  601SOL    HW1  388   1.071   3.101   1.181
  601SOL    HW2  389   1.070   3.094   1.017
  602SOL     OW  390   1.638   2.961   1.079
  602SOL    HW1  391   1.643   3.042   1.138
  602SOL    HW2  392   1.552   2.963   1.028
  603SOL     OW  393   0.915   1.951   1.402
  603SOL    HW1  394   0.940   1.931   1.307
  603SOL    HW2  395   0.987   2.007   1.444
  604SOL     OW  396   0.980   2.978   1.719
  604SOL    HW1  397   0.881   2.984   1.729
  604SOL    HW2  398   1.003   2.898   1.663
  607SOL     OW  399   1.274   2.248   1.262
  607SOL    HW1  400   1.295   2.322   1.326
  607SOL    HW2  401   1.185   2.265   1.219
  612SOL     OW  402   1.272   3.307   1.142
  612SOL    HW1  403   1.319   3.320   1.229
  612SOL    HW2  404   1.206   3.233   1.151
  616SOL     OW  405   1.587   2.641   1.670
  616SOL    HW1  406   1.495   2.679   1.665
  616SOL    HW2  407   1.647   2.688   1.605
  617SOL     OW  408   1.013   1.967   1.770
  617SOL    HW1  409   1.019   2.052   1.718
  617SOL    HW2  410   1.045   1.891   1.713
  620SOL     OW  411   1.360   2.724   1.045
  620SOL    HW1  412   1.285   2.724   0.979
  620SOL    HW2  413   1.397   2.632   1.054
  625SOL     OW  414   1.728   2.797   1.854
  625SOL    HW1  415   1.682   2.790   1.765
  625SOL    HW2  416   1.666   2.841   1.920
  628SOL     OW  417   1.023   2.628   0.966
  628SOL    HW1  418   1.038   2.649   1.062
  628SOL    HW2  419   0.993   2.533   0.957
  630SOL     OW  420   1.859   3.380   1.605
  630SOL    HW1  421   1.873   3.407   1.510
  630SOL    HW2  422   1.942   3.402   1.658
  637SOL     OW  423   1.138   2.242   1.678
  637SOL    HW1  424   1.093   2.305   1.742
  637SOL    HW2  425   1.231   2.273   1.661
  638SOL     OW  426   1.160   2.069   1.477
  638SOL    HW1  427   1.160   2.133   1.554
  638SOL    HW2  428   1.188   2.117   1.394
  642SOL     OW  429   1.002   2.658   1.238
  642SOL    HW1  430   1.043   2.626   1.324
  642SOL    HW2  431   0.906   2.631   1.235
  645SOL     OW  432   1.369   2.812   1.660
  645SOL    HW1  433   1.408   2.901   1.680
  645SOL    HW2  434   1.379   2.792   1.563
  647SOL     OW  435   1.657   2.466   1.206
  647SOL    HW1  436   1.619   2.397   1.268
  647SOL    HW2  437   1.739   2.430   1.162
  653SOL     OW  438   1.347   2.921   1.234
  653SOL    HW1  439   1.371   2.858   1.160
  653SOL    HW2  440   1.257   2.961   1.216
  660SOL     OW  441   1.726   1.997   0.523
  660SOL    HW1  442   1.799   1.980   0.456
  660SOL    HW2  443   1.695   1.910   0.561
  666SOL     OW  444   1.650   3.582   1.394
  666SOL    HW1  445   1.703   3.592   1.310
  666SOL    HW2  446   1.623   3.672   1.428
  667SOL     OW  447   1.841   2.037   0.963
  667SOL    HW1  448   1.880   1.952   0.927
  667SOL    HW2  449   1.743   2.039   0.944
  670SOL     OW  450   0.822   2.864   1.372
  670SOL    HW1  451   0.862   2.863   1.280
  670SOL    HW2  452   0.832   2.956   1.412
  674SOL     OW  453   1.614   3.154   1.289
  674SOL    HW1  454   1.674   3.157   1.369
  674SOL    HW2  455   1.539   3.218   1.302
  676SOL     OW  456   1.014   2.098   0.971
  676SOL    HW1  457   1.006   2.062   0.878
  676SOL    HW2  458   1.012   2.022   1.036
  678SOL     OW  459   1.709   2.247   1.381
  678SOL    HW1  460   1.782   2.316   1.385
  678SOL    HW2  461   1.737   2.172   1.322
  681SOL     OW  462   0.672   2.065   1.489
  681SOL    HW1  463   0.762   2.049   1.449
  681SOL    HW2  464   0.680   2.070   1.588
  683SOL     OW  465   1.440   2.718   1.398
  683SOL    HW1  466   1.383   2.770   1.335
  683SOL    HW2  467   1.536   2.730   1.374
  688SOL     OW  468   0.716   2.427   1.708
  688SOL    HW1  469   0.735   2.492   1.782
  688SOL    HW2  470   0.776   2.347   1.717
  689SOL     OW  471   1.450   3.082   1.633
  689SOL    HW1  472   1.441   3.072   1.732
  689SOL    HW2  473   1.546   3.075   1.607
  691SOL     OW  474   1.674   2.745   1.254
  691SOL    HW1  475   1.647   2.656   1.217
  691SOL    HW2  476   1.675   2.813   1.181
  694SOL     OW  477   1.777   2.204   1.642
  694SOL    HW1  478   1.760   2.235   1.548
  694SOL    HW2  479   1.693   2.167   1.680
  695SOL     OW  480   1.730   2.796   1.517
  695SOL    HW1  481   1.768   2.887   1.532
  695SOL    HW2  482   1.722   2.779   1.418
  704SOL     OW  483   1.824   2.054   1.227
  704SOL    HW1  484   1.820   1.964   1.271
  704SOL    HW2  485   1.827   2.043   1.128
  706SOL     OW  486   1.705   3.349   1.104
  706SOL    HW1  487   1.612   3.324   1.077
  706SOL    HW2  488   1.731   3.299   1.186
  709SOL     OW  489   1.424   2.076   1.112
  709SOL    HW1  490   1.476   2.011   1.167
  709SOL    HW2  491   1.375   2.139   1.173
  710SOL     OW  492   1.001   1.896   1.154
  710SOL    HW1  493   0.938   1.824   1.123
  710SOL    HW2  494   1.094   1.860   1.154
  714SOL     OW  495   1.300   2.315   0.691
  714SOL    HW1  496   1.241   2.395   0.695
  714SOL    HW2  497   1.315   2.280   0.784
  715SOL     OW  498   1.593   2.083   0.882
  715SOL    HW1  499   1.509   2.082   0.936
  715SOL    HW2  500   1.595   2.166   0.826
  722SOL     OW  501   1.555   3.373   2.565
  722SOL    HW1  502   1.498   3.357   2.646
  722SOL    HW2  503   1.496   3.383   2.485
  723SOL     OW  504   1.135   2.565   2.579
  723SOL    HW1  505   1.192   2.643   2.554
  723SOL    HW2  506   1.075   2.591   2.655
  724SOL     OW  507   1.755   2.469   2.093
  724SOL    HW1  508   1.743   2.456   1.994
  724SOL    HW2  509   1.725   2.388   2.142
  725SOL     OW  510   0.768   3.006   2.885
  725SOL    HW1  511   0.690   3.023   2.945
  725SOL    HW2  512   0.802   3.093   2.849
  727SOL     OW  513   0.685   2.874   2.527
  727SOL    HW1  514   0.754   2.858   2.597
  727SOL    HW2  515   0.612   2.931   2.565
  730SOL     OW  516   1.460   3.367   3.201
  730SOL    HW1  517   1.484   3.461   3.227
  730SOL    HW2  518   1.444   3.313   3.283
  732SOL     OW  519   1.603   2.309   2.599
  732SOL    HW1  520   1.529   2.355   2.549
  732SOL    HW2  521   1.654   2.377   2.652
  738SOL     OW  522   0.606   2.826   1.985
  738SOL    HW1  523   0.613   2.910   1.931
  738SOL    HW2  524   0.652   2.839   2.073
  739SOL     OW  525   1.594   1.976   3.342
  739SOL    HW1  526   1.576   2.043   3.270
  739SOL    HW2  527   1.591   2.022   3.431
  741SOL     OW  528   1.842   3.629   2.221
  741SOL    HW1  529   1.896   3.600   2.301
  741SOL    HW2  530   1.872   3.719   2.192
  743SOL     OW  531   1.689   2.784   2.474
  743SOL    HW1  532   1.784   2.755   2.482
  743SOL    HW2  533   1.681   2.849   2.399
  744SOL     OW  534   1.641   2.970   2.294
  744SOL    HW1  535   1.727   2.972   2.242
  744SOL    HW2  536   1.655   3.017   2.382
  747SOL     OW  537   1.293   3.090   3.285
  747SOL    HW1  538   1.330   3.017   3.227
  747SOL    HW2  539   1.345   3.095   3.370
  748SOL     OW  540   0.809   1.866   2.364
  748SOL    HW1  541   0.849   1.957   2.355
  748SOL    HW2  542   0.709   1.874   2.370
  750SOL     OW  543   1.525   2.861   2.052
  750SOL    HW1  544   1.462   2.785   2.065
  750SOL    HW2  545   1.573   2.879   2.138
  753SOL     OW  546   1.466   3.279   2.815
  753SOL    HW1  547   1.407   3.285   2.895
  753SOL    HW2  548   1.451   3.191   2.769
  754SOL     OW  549   1.667   3.576   2.434
  754SOL    HW1  550   1.626   3.553   2.346
  754SOL    HW2  551   1.649   3.502   2.499
  755SOL     OW  552   0.598   2.591   2.132
  755SOL    HW1  553   0.622   2.660   2.064
  755SOL    HW2  554   0.520   2.624   2.186
  756SOL     OW  555   1.281   2.207   2.806
  756SOL    HW1  556   1.195   2.157   2.793
  756SOL    HW2  557   1.343   2.153   2.862
  757SOL     OW  558   1.576   3.524   2.169
  757SOL    HW1  559   1.665   3.570   2.172
  757SOL    HW2  560   1.555   3.500   2.074
  759SOL     OW  561   1.394   2.331   3.536
  759SOL    HW1  562   1.374   2.374   3.624
  759SOL    HW2  563   1.472   2.269   3.545
  761SOL     OW  564   0.991   2.272   3.104
  761SOL    HW1  565   0.914   2.306   3.158
  761SOL    HW2  566   0.957   2.221   3.025
  762SOL     OW  567   1.041   2.563   2.291
  762SOL    HW1  568   1.067   2.559   2.387
  762SOL    HW2  569   0.956   2.512   2.277
  765SOL     OW  570   0.865   2.210   2.057
  765SOL    HW1  571   0.924   2.273   2.008
  765SOL    HW2  572   0.884   2.116   2.028
  766SOL     OW  573   1.719   2.447   3.693
  766SOL    HW1  574   1.693   2.536   3.657
  766SOL    HW2  575   1.717   2.379   3.620
  767SOL     OW  576   1.362   3.006   2.407
  767SOL    HW1  577   1.445   2.977   2.359
  767SOL    HW2  578   1.313   3.073   2.351
  768SOL     OW  579   0.550   2.058   2.747
  768SOL    HW1  580   0.545   2.053   2.847
  768SOL    HW2  581   0.552   2.154   2.718
  769SOL     OW  582   1.008   3.318   2.339
  769SOL    HW1  583   0.962   3.390   2.287
  769SOL    HW2  584   1.004   3.338   2.437
  771SOL     OW  585   1.795   2.928   2.735
  771SOL    HW1  586   1.733   2.913   2.659
  771SOL    HW2  587   1.743   2.939   2.820
  774SOL     OW  588   1.458   2.597   2.590
  774SOL    HW1  589   1.453   2.532   2.665
  774SOL    HW2  590   1.538   2.656   2.603
  778SOL     OW  591   1.632   3.239   1.943
  778SOL    HW1  592   1.600   3.333   1.933
  778SOL    HW2  593   1.556   3.176   1.931
  780SOL     OW  594   1.400   1.969   2.288
  780SOL    HW1  595   1.376   1.932   2.198
  780SOL    HW2  596   1.499   1.985   2.292
  784SOL     OW  597   1.547   2.084   3.591
  784SOL    HW1  598   1.542   2.121   3.683
  784SOL    HW2  599   1.475   2.015   3.579
  785SOL     OW  600   0.614   1.984   1.979
  785SOL    HW1  601   0.712   1.962   1.986
  785SOL    HW2  602   0.583   1.967   1.886
  788SOL     OW  603   1.351   2.452   3.295
  788SOL    HW1  604   1.379   2.409   3.380
  788SOL    HW2  605   1.376   2.548   3.296
  790SOL     OW  606   0.922   2.365   2.761
  790SOL    HW1  607   0.897   2.356   2.665
  790SOL    HW2  608   0.970   2.283   2.792
  791SOL     OW  609   0.539   1.926   2.374
  791SOL    HW1  610   0.458   1.927   2.432
  791SOL    HW2  611   0.542   2.009   2.319
  792SOL     OW  612   1.434   3.050   1.903
  792SOL    HW1  613   1.466   2.974   1.960
  792SOL    HW2  614   1.342   3.077   1.933
  794SOL     OW  615   0.935   2.098   2.342
  794SOL    HW1  616   0.887   2.139   2.264
  794SOL    HW2  617   1.034   2.096   2.323
  795SOL     OW  618   1.076   2.545   3.326
  795SOL    HW1  619   0.996   2.484   3.329
  795SOL    HW2  620   1.157   2.492   3.302
  796SOL     OW  621   1.227   3.432   2.655
  796SOL    HW1  622   1.248   3.506   2.590
  796SOL    HW2  623   1.295   3.432   2.728
  798SOL     OW  624   1.271   3.659   2.453
  798SOL    HW1  625   1.315   3.723   2.389
  798SOL    HW2  626   1.221   3.711   2.523
  799SOL     OW  627   1.032   2.411   1.878
  799SOL    HW1  628   0.991   2.493   1.839
  799SOL    HW2  629   1.096   2.437   1.951
  802SOL     OW  630   0.866   2.316   2.504
  802SOL    HW1  631   0.834   2.388   2.442
  802SOL    HW2  632   0.890   2.235   2.451
  803SOL     OW  633   1.017   1.901   2.615
  803SOL    HW1  634   0.945   1.906   2.546
  803SOL    HW2  635   0.993   1.832   2.684
  804SOL     OW  636   1.429   3.035   2.729
  804SOL    HW1  637   1.374   2.951   2.722
  804SOL    HW2  638   1.455   3.064   2.637
  805SOL     OW  639   1.466   2.452   2.854
  805SOL    HW1  640   1.436   2.357   2.861
  805SOL    HW2  641   1.539   2.468   2.920
  806SOL     OW  642   1.857   2.695   2.239
  806SOL    HW1  643   1.899   2.631   2.303
  806SOL    HW2  644   1.819   2.644   2.161
  808SOL     OW  645   1.664   3.142   2.519
  808SOL    HW1  646   1.763   3.150   2.533
  808SOL    HW2  647   1.619   3.226   2.550
  809SOL     OW  648   1.390   2.437   1.940
  809SOL    HW1  649   1.336   2.416   2.021
  809SOL    HW2  650   1.481   2.396   1.949
  810SOL     OW  651   0.527   2.118   2.190
  810SOL    HW1  652   0.554   2.059   2.115
  810SOL    HW2  653   0.527   2.213   2.159
  811SOL     OW  654   1.754   3.085   3.450
  811SOL    HW1  655   1.845   3.046   3.437
  811SOL    HW2  656   1.762   3.181   3.474
  814SOL     OW  657   1.111   3.057   2.962
  814SOL    HW1  658   1.071   3.101   3.043
  814SOL    HW2  659   1.070   3.094   2.879
  815SOL     OW  660   1.638   2.961   2.941
  815SOL    HW1  661   1.643   3.042   3.000
  815SOL    HW2  662   1.552   2.963   2.890
  816SOL     OW  663   0.915   1.951   3.264
  816SOL    HW1  664   0.940   1.931   3.169
  816SOL    HW2  665   0.987   2.007   3.306
  818SOL     OW  666   0.705   2.912   2.230
  818SOL    HW1  667   0.691   2.919   2.329
  818SOL    HW2  668   0.789   2.861   2.212
  820SOL     OW  669   1.274   2.248   3.124
  820SOL    HW1  670   1.295   2.322   3.188
  820SOL    HW2  671   1.185   2.265   3.081
  823SOL     OW  672   0.566   2.399   2.727
  823SOL    HW1  673   0.578   2.465   2.653
  823SOL    HW2  674   0.612   2.433   2.810
  824SOL     OW  675   1.252   3.210   2.250
  824SOL    HW1  676   1.302   3.287   2.290
  824SOL    HW2  677   1.157   3.212   2.282
  825SOL     OW  678   1.272   3.307   3.004
  825SOL    HW1  679   1.319   3.320   3.091
  825SOL    HW2  680   1.206   3.233   3.013
  826SOL     OW  681   1.582   2.501   2.334
  826SOL    HW1  682   1.551   2.562   2.407
  826SOL    HW2  683   1.632   2.553   2.265
  829SOL     OW  684   1.587   2.641   3.532
  829SOL    HW1  685   1.495   2.679   3.527
  829SOL    HW2  686   1.647   2.688   3.467
  833SOL     OW  687   1.360   2.724   2.907
  833SOL    HW1  688   1.285   2.724   2.841
  833SOL    HW2  689   1.397   2.632   2.916
  834SOL     OW  690   1.209   2.387   2.137
  834SOL    HW1  691   1.222   2.303   2.191
  834SOL    HW2  692   1.180   2.461   2.197
  837SOL     OW  693   0.732   2.496   2.926
  837SOL    HW1  694   0.791   2.470   2.850
  837SOL    HW2  695   0.704   2.592   2.915
  838SOL     OW  696   1.728   2.797   3.716
  838SOL    HW1  697   1.682   2.790   3.627
  838SOL    HW2  698   1.666   2.841   3.782
  840SOL     OW  699   1.622   2.229   2.236
  840SOL    HW1  700   1.624   2.153   2.300
  840SOL    HW2  701   1.574   2.306   2.276
  841SOL     OW  702   1.023   2.628   2.828
  841SOL    HW1  703   1.038   2.649   2.924
  841SOL    HW2  704   0.993   2.533   2.819
  843SOL     OW  705   1.859   3.380   3.467
  843SOL    HW1  706   1.873   3.407   3.372
  843SOL    HW2  707   1.942   3.402   3.520
  845SOL     OW  708   1.540   2.136   1.987
  845SOL    HW1  709   1.479   2.061   2.010
  845SOL    HW2  710   1.562   2.188   2.070
  846SOL     OW  711   1.303   2.700   1.904
  846SOL    HW1  712   1.337   2.607   1.919
  846SOL    HW2  713   1.321   2.727   1.809
  847SOL     OW  714   1.068   3.195   2.711
  847SOL    HW1  715   1.075   3.111   2.656
  847SOL    HW2  716   1.130   3.264   2.675
  850SOL     OW  717   1.138   2.242   3.540
  850SOL    HW1  718   1.093   2.305   3.604
  850SOL    HW2  719   1.231   2.273   3.523
  851SOL     OW  720   1.160   2.069   3.339
  851SOL    HW1  721   1.160   2.133   3.416
  851SOL    HW2  722   1.188   2.117   3.256
  855SOL     OW  723   1.002   2.658   3.100
  855SOL    HW1  724   1.043   2.626   3.186
  855SOL    HW2  725   0.906   2.631   3.097
  858SOL     OW  726   1.369   2.812   3.522
  858SOL    HW1  727   1.408   2.901   3.542
  858SOL    HW2  728   1.379   2.792   3.425
  859SOL     OW  729   0.815   2.434   2.187
  859SOL    HW1  730   0.822   2.345   2.141
  859SOL    HW2  731   0.721   2.468   2.179
  860SOL     OW  732   1.657   2.466   3.068
  860SOL    HW1  733   1.619   2.397   3.130
  860SOL    HW2  734   1.739   2.430   3.024
  862SOL     OW  735   0.671   2.326   3.131
  862SOL    HW1  736   0.637   2.237   3.101
  862SOL    HW2  737   0.697   2.380   3.051
  864SOL     OW  738   0.473   2.362   2.053
  864SOL    HW1  739   0.534   2.442   2.057
  864SOL    HW2  740   0.378   2.393   2.060
  866SOL     OW  741   1.347   2.921   3.096
  866SOL    HW1  742   1.371   2.858   3.022
  866SOL    HW2  743   1.257   2.961   3.078
  867SOL     OW  744   1.302   2.717   2.171
  867SOL    HW1  745   1.216   2.686   2.213
  867SOL    HW2  746   1.298   2.703   2.072
  868SOL     OW  747   1.759   3.609   3.016
  868SOL    HW1  748   1.820   3.639   2.943
  868SOL    HW2  749   1.721   3.520   2.994
  872SOL     OW  750   1.726   1.997   2.385
  872SOL    HW1  751   1.799   1.980   2.318
  872SOL    HW2  752   1.695   1.910   2.423
  873SOL     OW  753   1.388   3.435   2.339
  873SOL    HW1  754   1.455   3.447   2.265
  873SOL    HW2  755   1.348   3.524   2.362
  875SOL     OW  756   1.280   2.789   2.534
  875SOL    HW1  757   1.340   2.708   2.536
  875SOL    HW2  758   1.320   2.858   2.474
  879SOL     OW  759   1.841   2.037   2.825
  879SOL    HW1  760   1.880   1.952   2.789
  879SOL    HW2  761   1.743   2.039   2.806
  881SOL     OW  762   1.194   3.474   1.893
  881SOL    HW1  763   1.200   3.381   1.930
  881SOL    HW2  764   1.135   3.474   1.813
  883SOL     OW  765   0.916   2.772   2.153
  883SOL    HW1  766   0.979   2.810   2.085
  883SOL    HW2  767   0.956   2.689   2.192
  884SOL     OW  768   1.504   3.469   1.906
  884SOL    HW1  769   1.412   3.506   1.913
  884SOL    HW2  770   1.542   3.489   1.816
  886SOL     OW  771   1.614   3.154   3.151
  886SOL    HW1  772   1.674   3.157   3.231
  886SOL    HW2  773   1.539   3.218   3.164
  887SOL     OW  774   1.039   2.960   2.558
  887SOL    HW1  775   0.969   2.913   2.612
  887SOL    HW2  776   1.098   2.892   2.515
  888SOL     OW  777   1.014   2.098   2.833
  888SOL    HW1  778   1.006   2.062   2.740
  888SOL    HW2  779   1.012   2.022   2.898
  890SOL     OW  780   1.709   2.247   3.243
  890SOL    HW1  781   1.782   2.316   3.247
  890SOL    HW2  782   1.737   2.172   3.184
  895SOL     OW  783   1.440   2.718   3.260
  895SOL    HW1  784   1.383   2.770   3.197
  895SOL    HW2  785   1.536   2.730   3.236
  897SOL     OW  786   1.183   3.197   1.981
  897SOL    HW1  787   1.084   3.186   1.983
  897SOL    HW2  788   1.217   3.212   2.074
  899SOL     OW  789   1.493   3.629   2.821
  899SOL    HW1  790   1.526   3.693   2.752
  899SOL    HW2  791   1.559   3.623   2.896
  901SOL     OW  792   1.450   3.082   3.495
  901SOL    HW1  793   1.441   3.072   3.594
  901SOL    HW2  794   1.546   3.075   3.469
  903SOL     OW  795   1.674   2.745   3.116
  903SOL    HW1  796   1.647   2.656   3.079
  903SOL    HW2  797   1.675   2.813   3.043
  904SOL     OW  798   1.225   2.187   2.311
  904SOL    HW1  799   1.290   2.113   2.300
  904SOL    HW2  800   1.245   2.237   2.395
  905SOL     OW  801   0.594   2.607   2.514
  905SOL    HW1  802   0.644   2.692   2.495
  905SOL    HW2  803   0.506   2.609   2.466
  906SOL     OW  804   1.777   2.204   3.504
  906SOL    HW1  805   1.760   2.235   3.410
  906SOL    HW2  806   1.693   2.167   3.542
  907SOL     OW  807   1.730   2.796   3.379
  907SOL    HW1  808   1.768   2.887   3.394
  907SOL    HW2  809   1.722   2.779   3.280
  908SOL     OW  810   0.859   3.236   1.878
  908SOL    HW1  811   0.813   3.251   1.966
  908SOL    HW2  812   0.903   3.321   1.848
  910SOL     OW  813   0.859   2.818   2.723
  910SOL    HW1  814   0.913   2.749   2.771
  910SOL    HW2  815   0.827   2.887   2.789
  911SOL     OW  816   1.083   2.846   1.949
  911SOL    HW1  817   1.060   2.899   1.867
  911SOL    HW2  818   1.164   2.790   1.930
  912SOL     OW  819   1.861   3.431   2.713
  912SOL    HW1  820   1.790   3.419   2.643
  912SOL    HW2  821   1.862   3.352   2.773
  916SOL     OW  822   1.824   2.054   3.089
  916SOL    HW1  823   1.820   1.964   3.133
  916SOL    HW2  824   1.827   2.043   2.990
  917SOL     OW  825   0.428   2.286   2.382
  917SOL    HW1  826   0.458   2.214   2.320
  917SOL    HW2  827   0.389   2.246   2.465
  918SOL     OW  828   1.705   3.349   2.966
  918SOL    HW1  829   1.612   3.324   2.939
  918SOL    HW2  830   1.731   3.299   3.048
  921SOL     OW  831   1.424   2.076   2.974
  921SOL    HW1  832   1.476   2.011   3.029
  921SOL    HW2  833   1.375   2.139   3.035
  922SOL     OW  834   1.001   1.896   3.016
  922SOL    HW1  835   0.938   1.824   2.985
  922SOL    HW2  836   1.094   1.860   3.016
  923SOL     OW  837   0.770   3.192   2.163
  923SOL    HW1  838   0.724   3.105   2.180
  923SOL    HW2  839   0.861   3.189   2.204
  925SOL     OW  840   1.352   1.914   2.030
  925SOL    HW1  841   1.387   1.873   1.946
  925SOL    HW2  842   1.262   1.876   2.050
  926SOL     OW  843   1.300   2.315   2.553
  926SOL    HW1  844   1.241   2.395   2.557
  926SOL    HW2  845   1.315   2.280   2.646
  927SOL     OW  846   1.593   2.083   2.744
  927SOL    HW1  847   1.509   2.082   2.798
  927SOL    HW2  848   1.595   2.166   2.688
  979SOL     OW  849   1.540   2.136   3.849
  979SOL    HW1  850   1.479   2.061   3.872
  979SOL    HW2  851   1.562   2.188   3.932
 1150SOL     OW  852   1.726   3.859   2.385
 1150SOL    HW1  853   1.799   3.842   2.318
 1150SOL    HW2  854   1.695   3.772   2.423
 1168SOL     OW  855   1.352   3.776   2.030
 1168SOL    HW1  856   1.387   3.735   1.946
 1168SOL    HW2  857   1.262   3.738   2.050
 1206SOL     OW  858   2.431   1.275   1.165
 1206SOL    HW1  859   2.338   1.268   1.128
 1206SOL    HW2  860   2.442   1.364   1.209
 1210SOL     OW  861   2.630   1.144   1.023
 1210SOL    HW1  862   2.552   1.161   1.083
 1210SOL    HW2  863   2.664   1.231   0.987
 1211SOL     OW  864   2.712   0.798   1.823
 1211SOL    HW1  865   2.708   0.874   1.888
 1211SOL    HW2  866   2.734   0.834   1.732
 1213SOL     OW  867   2.548   1.161   1.803
 1213SOL    HW1  868   2.608   1.240   1.817
 1213SOL    HW2  869   2.462   1.192   1.762
 1214SOL     OW  870   2.197   1.435   1.061
 1214SOL    HW1  871   2.119   1.404   1.008
 1214SOL    HW2  872   2.255   1.493   1.004
 1215SOL     OW  873   3.322   1.505   1.339
 1215SOL    HW1  874   3.346   1.599   1.365
 1215SOL    HW2  875   3.306   1.451   1.421
 1219SOL     OW  876   2.989   1.341   1.690
 1219SOL    HW1  877   3.036   1.341   1.778
 1219SOL    HW2  878   2.941   1.254   1.679
 1221SOL     OW  879   2.102   1.091   0.886
 1221SOL    HW1  880   2.116   1.007   0.938
 1221SOL    HW2  881   2.047   1.155   0.941
 1222SOL     OW  882   2.482   1.786   1.439
 1222SOL    HW1  883   2.390   1.769   1.474
 1222SOL    HW2  884   2.510   1.878   1.465
 1230SOL     OW  885   1.975   0.737   1.597
 1230SOL    HW1  886   2.063   0.724   1.642
 1230SOL    HW2  887   1.962   0.834   1.575
 1231SOL     OW  888   2.475   1.365   0.726
 1231SOL    HW1  889   2.426   1.278   0.735
 1231SOL    HW2  890   2.452   1.408   0.639
 1232SOL     OW  891   3.155   1.228   1.423
 1232SOL    HW1  892   3.192   1.155   1.365
 1232SOL    HW2  893   3.207   1.233   1.508
 1234SOL     OW  894   2.059   0.976   1.264
 1234SOL    HW1  895   2.148   0.931   1.250
 1234SOL    HW2  896   1.986   0.911   1.245
 1236SOL     OW  897   3.049   1.792   1.616
 1236SOL    HW1  898   3.073   1.852   1.540
 1236SOL    HW2  899   3.056   1.697   1.586
 1245SOL     OW  900   2.835   0.890   1.572
 1245SOL    HW1  901   2.881   0.806   1.543
 1245SOL    HW2  902   2.779   0.924   1.497
 1249SOL     OW  903   1.992   1.821   1.571
 1249SOL    HW1  904   1.982   1.806   1.670
 1249SOL    HW2  905   1.906   1.857   1.535
 1255SOL     OW  906   2.213   1.801   0.853
 1255SOL    HW1  907   2.263   1.715   0.859
 1255SOL    HW2  908   2.278   1.878   0.850
 1257SOL     OW  909   3.089   1.550   1.506
 1257SOL    HW1  910   3.095   1.473   1.570
 1257SOL    HW2  911   3.037   1.524   1.426
 1260SOL     OW  912   2.323   1.266   1.727
 1260SOL    HW1  913   2.273   1.267   1.641
 1260SOL    HW2  914   2.260   1.248   1.803
 1266SOL     OW  915   2.111   1.785   1.241
 1266SOL    HW1  916   2.168   1.720   1.291
 1266SOL    HW2  917   2.095   1.752   1.148
 1267SOL     OW  918   2.802   1.698   0.904
 1267SOL    HW1  919   2.882   1.641   0.925
 1267SOL    HW2  920   2.753   1.658   0.827
 1272SOL     OW  921   2.750   1.514   1.195
 1272SOL    HW1  922   2.727   1.489   1.101
 1272SOL    HW2  923   2.811   1.445   1.234
 1274SOL     OW  924   2.665   1.402   0.924
 1274SOL    HW1  925   2.755   1.416   0.882
 1274SOL    HW2  926   2.594   1.404   0.853
 1281SOL     OW  927   3.089   1.570   0.793
 1281SOL    HW1  928   3.110   1.644   0.728
 1281SOL    HW2  929   3.157   1.570   0.866
 1297SOL     OW  930   2.926   1.347   1.340
 1297SOL    HW1  931   2.846   1.324   1.395
 1297SOL    HW2  932   3.009   1.321   1.389
 1298SOL     OW  933   3.454   1.629   1.625
 1298SOL    HW1  934   3.481   1.663   1.535
 1298SOL    HW2  935   3.533   1.591   1.671
 1299SOL     OW  936   2.973   1.195   1.100
 1299SOL    HW1  937   2.933   1.239   1.181
 1299SOL    HW2  938   2.932   1.232   1.017
 1302SOL     OW  939   2.842   1.116   1.719
 1302SOL    HW1  940   2.743   1.122   1.729
 1302SOL    HW2  941   2.865   1.036   1.663
 1304SOL     OW  942   2.272   0.813   1.251
 1304SOL    HW1  943   2.358   0.825   1.301
 1304SOL    HW2  944   2.230   0.726   1.278
 1306SOL     OW  945   1.926   1.564   1.331
 1306SOL    HW1  946   1.880   1.646   1.297
 1306SOL    HW2  947   2.024   1.583   1.340
 1310SOL     OW  948   3.134   1.445   1.142
 1310SOL    HW1  949   3.181   1.458   1.229
 1310SOL    HW2  950   3.068   1.371   1.151
 1312SOL     OW  951   2.216   1.510   1.329
 1312SOL    HW1  952   2.195   1.466   1.242
 1312SOL    HW2  953   2.313   1.536   1.332
 1313SOL     OW  954   2.264   0.751   1.598
 1313SOL    HW1  955   2.332   0.806   1.551
 1313SOL    HW2  956   2.304   0.663   1.625
 1321SOL     OW  957   1.899   1.310   1.282
 1321SOL    HW1  958   1.952   1.261   1.350
 1321SOL    HW2  959   1.921   1.408   1.287
 1327SOL     OW  960   2.842   1.573   1.700
 1327SOL    HW1  961   2.822   1.617   1.612
 1327SOL    HW2  962   2.881   1.482   1.684
 1328SOL     OW  963   3.721   1.518   1.605
 1328SOL    HW1  964   3.735   1.545   1.510
 1328SOL    HW2  965   3.804   1.540   1.658
 1329SOL     OW  966   2.212   0.898   1.804
 1329SOL    HW1  967   2.288   0.942   1.852
 1329SOL    HW2  968   2.247   0.851   1.722
 1332SOL     OW  969   2.930   1.333   0.849
 1332SOL    HW1  970   2.937   1.249   0.794
 1332SOL    HW2  971   2.992   1.402   0.813
 1338SOL     OW  972   1.950   1.801   0.927
 1338SOL    HW1  973   1.908   1.715   0.900
 1338SOL    HW2  974   2.044   1.804   0.893
 1339SOL     OW  975   2.366   1.568   0.910
 1339SOL    HW1  976   2.432   1.642   0.919
 1339SOL    HW2  977   2.410   1.489   0.868
 1342SOL     OW  978   2.051   0.520   1.722
 1342SOL    HW1  979   2.110   0.480   1.652
 1342SOL    HW2  980   1.993   0.591   1.681
 1343SOL     OW  981   3.231   0.950   1.660
 1343SOL    HW1  982   3.270   1.039   1.680
 1343SOL    HW2  983   3.241   0.930   1.563
 1346SOL     OW  984   2.114   1.564   1.744
 1346SOL    HW1  985   2.084   1.621   1.820
 1346SOL    HW2  986   2.107   1.467   1.770
 1348SOL     OW  987   2.792   1.678   1.465
 1348SOL    HW1  988   2.768   1.660   1.370
 1348SOL    HW2  989   2.822   1.772   1.475
 1350SOL     OW  990   2.021   1.137   1.466
 1350SOL    HW1  991   2.043   1.076   1.542
 1350SOL    HW2  992   2.031   1.088   1.380
 1354SOL     OW  993   3.114   1.731   1.128
 1354SOL    HW1  994   3.198   1.736   1.074
 1354SOL    HW2  995   3.091   1.635   1.146
 1355SOL     OW  996   1.945   1.258   1.022
 1355SOL    HW1  997   1.940   1.257   1.122
 1355SOL    HW2  998   1.862   1.217   0.984
 1356SOL     OW  999   2.550   1.662   1.716
 1356SOL    HW1 1000   2.494   1.743   1.725
 1356SOL    HW2 1001   2.602   1.666   1.630
 1360SOL     OW 1002   1.992   1.794   1.851
 1360SOL    HW1 1003   1.951   1.720   1.904
 1360SOL    HW2 1004   2.056   1.845   1.909
 1362SOL     OW 1005   2.692   1.273   1.422
 1362SOL    HW1 1006   2.687   1.306   1.517
 1362SOL    HW2 1007   2.606   1.292   1.376
 1364SOL     OW 1008   3.512   1.720   1.394
 1364SOL    HW1 1009   3.565   1.730   1.310
 1364SOL    HW2 1010   3.485   1.810   1.428
 1368SOL     OW 1011   2.684   1.002   1.372
 1368SOL    HW1 1012   2.724   1.001   1.280
 1368SOL    HW2 1013   2.694   1.094   1.412
 1371SOL     OW 1014   2.234   1.288   1.490
 1371SOL    HW1 1015   2.221   1.381   1.456
 1371SOL    HW2 1016   2.150   1.236   1.477
 1378SOL     OW 1017   1.967   1.013   1.726
 1378SOL    HW1 1018   1.890   0.980   1.780
 1378SOL    HW2 1019   2.052   0.983   1.768
 1383SOL     OW 1020   2.475   0.842   1.431
 1383SOL    HW1 1021   2.531   0.923   1.414
 1383SOL    HW2 1022   2.534   0.762   1.434
 1384SOL     OW 1023   3.355   1.767   0.959
 1384SOL    HW1 1024   3.388   1.831   0.890
 1384SOL    HW2 1025   3.421   1.761   1.034
 1385SOL     OW 1026   2.578   0.565   1.708
 1385SOL    HW1 1027   2.597   0.630   1.782
 1385SOL    HW2 1028   2.638   0.485   1.717
 1386SOL     OW 1029   3.312   1.220   1.633
 1386SOL    HW1 1030   3.303   1.210   1.732
 1386SOL    HW2 1031   3.408   1.213   1.607
 1387SOL     OW 1032   2.252   1.741   1.560
 1387SOL    HW1 1033   2.161   1.782   1.558
 1387SOL    HW2 1034   2.245   1.647   1.592
 1394SOL     OW 1035   2.523   1.790   0.953
 1394SOL    HW1 1036   2.477   1.878   0.940
 1394SOL    HW2 1037   2.622   1.802   0.946
 1398SOL     OW 1038   2.083   1.314   1.844
 1398SOL    HW1 1039   2.018   1.241   1.823
 1398SOL    HW2 1040   2.087   1.328   1.942
 1400SOL     OW 1041   2.534   1.391   1.624
 1400SOL    HW1 1042   2.456   1.341   1.662
 1400SOL    HW2 1043   2.531   1.486   1.655
 1405SOL     OW 1044   2.674   1.586   0.687
 1405SOL    HW1 1045   2.706   1.596   0.593
 1405SOL    HW2 1046   2.595   1.524   0.689
 1409SOL     OW 1047   2.480   1.567   1.284
 1409SOL    HW1 1048   2.475   1.649   1.341
 1409SOL    HW2 1049   2.569   1.564   1.239
 1415SOL     OW 1050   2.092   0.628   1.975
 1415SOL    HW1 1051   1.999   0.626   2.012
 1415SOL    HW2 1052   2.093   0.589   1.883
 1418SOL     OW 1053   2.431   1.275   3.027
 1418SOL    HW1 1054   2.338   1.268   2.990
 1418SOL    HW2 1055   2.442   1.364   3.071
 1419SOL     OW 1056   3.417   1.511   2.565
 1419SOL    HW1 1057   3.360   1.495   2.646
 1419SOL    HW2 1058   3.358   1.521   2.485
 1420SOL     OW 1059   2.997   0.703   2.579
 1420SOL    HW1 1060   3.054   0.781   2.554
 1420SOL    HW2 1061   2.937   0.729   2.655
 1422SOL     OW 1062   2.630   1.144   2.885
 1422SOL    HW1 1063   2.552   1.161   2.945
 1422SOL    HW2 1064   2.664   1.231   2.849
 1424SOL     OW 1065   2.547   1.012   2.527
 1424SOL    HW1 1066   2.616   0.996   2.597
 1424SOL    HW2 1067   2.474   1.069   2.565
 1426SOL     OW 1068   2.197   1.435   2.923
 1426SOL    HW1 1069   2.119   1.404   2.870
 1426SOL    HW2 1070   2.255   1.493   2.866
 1427SOL     OW 1071   3.322   1.505   3.201
 1427SOL    HW1 1072   3.346   1.599   3.227
 1427SOL    HW2 1073   3.306   1.451   3.283
 1430SOL     OW 1074   2.093   1.713   2.345
 1430SOL    HW1 1075   2.127   1.790   2.399
 1430SOL    HW2 1076   2.137   1.713   2.255
 1431SOL     OW 1077   2.989   1.341   3.552
 1431SOL    HW1 1078   3.036   1.341   3.640
 1431SOL    HW2 1079   2.941   1.254   3.541
 1432SOL     OW 1080   2.092   1.434   2.400
 1432SOL    HW1 1081   2.066   1.530   2.400
 1432SOL    HW2 1082   2.021   1.380   2.445
 1433SOL     OW 1083   2.102   1.091   2.748
 1433SOL    HW1 1084   2.116   1.007   2.800
 1433SOL    HW2 1085   2.047   1.155   2.803
 1434SOL     OW 1086   2.482   1.786   3.301
 1434SOL    HW1 1087   2.390   1.769   3.336
 1434SOL    HW2 1088   2.510   1.878   3.327
 1435SOL     OW 1089   2.468   0.964   1.985
 1435SOL    HW1 1090   2.475   1.048   1.931
 1435SOL    HW2 1091   2.514   0.977   2.073
 1437SOL     OW 1092   1.984   0.643   2.425
 1437SOL    HW1 1093   1.939   0.555   2.442
 1437SOL    HW2 1094   1.983   0.697   2.509
 1438SOL     OW 1095   3.704   1.767   2.221
 1438SOL    HW1 1096   3.758   1.738   2.301
 1438SOL    HW2 1097   3.734   1.857   2.192
 1439SOL     OW 1098   1.889   1.596   1.979
 1439SOL    HW1 1099   1.870   1.500   2.000
 1439SOL    HW2 1100   1.856   1.654   2.054
 1441SOL     OW 1101   3.503   1.108   2.294
 1441SOL    HW1 1102   3.589   1.110   2.242
 1441SOL    HW2 1103   3.517   1.155   2.382
 1443SOL     OW 1104   2.475   1.365   2.588
 1443SOL    HW1 1105   2.426   1.278   2.597
 1443SOL    HW2 1106   2.452   1.408   2.501
 1444SOL     OW 1107   3.155   1.228   3.285
 1444SOL    HW1 1108   3.192   1.155   3.227
 1444SOL    HW2 1109   3.207   1.233   3.370
 1446SOL     OW 1110   2.059   0.976   3.126
 1446SOL    HW1 1111   2.148   0.931   3.112
 1446SOL    HW2 1112   1.986   0.911   3.107
 1447SOL     OW 1113   3.387   0.999   2.052
 1447SOL    HW1 1114   3.324   0.923   2.065
 1447SOL    HW2 1115   3.435   1.017   2.138
 1448SOL     OW 1116   3.049   1.792   3.478
 1448SOL    HW1 1117   3.073   1.852   3.402
 1448SOL    HW2 1118   3.056   1.697   3.448
 1450SOL     OW 1119   3.328   1.417   2.815
 1450SOL    HW1 1120   3.269   1.423   2.895
 1450SOL    HW2 1121   3.313   1.329   2.769
 1451SOL     OW 1122   3.529   1.714   2.434
 1451SOL    HW1 1123   3.488   1.691   2.346
 1451SOL    HW2 1124   3.511   1.640   2.499
 1452SOL     OW 1125   2.460   0.729   2.132
 1452SOL    HW1 1126   2.484   0.798   2.064
 1452SOL    HW2 1127   2.382   0.762   2.186
 1454SOL     OW 1128   3.438   1.662   2.169
 1454SOL    HW1 1129   3.527   1.708   2.172
 1454SOL    HW2 1130   3.417   1.638   2.074
 1459SOL     OW 1131   2.903   0.701   2.291
 1459SOL    HW1 1132   2.929   0.697   2.387
 1459SOL    HW2 1133   2.818   0.650   2.277
 1460SOL     OW 1134   1.938   0.811   2.651
 1460SOL    HW1 1135   2.037   0.799   2.660
 1460SOL    HW2 1136   1.914   0.906   2.672
 1461SOL     OW 1137   1.992   1.821   3.433
 1461SOL    HW1 1138   1.982   1.806   3.532
 1461SOL    HW2 1139   1.906   1.857   3.397
 1464SOL     OW 1140   3.224   1.144   2.407
 1464SOL    HW1 1141   3.307   1.115   2.359
 1464SOL    HW2 1142   3.175   1.211   2.351
 1466SOL     OW 1143   2.870   1.456   2.339
 1466SOL    HW1 1144   2.824   1.528   2.287
 1466SOL    HW2 1145   2.866   1.476   2.437
 1467SOL     OW 1146   2.213   1.801   2.715
 1467SOL    HW1 1147   2.263   1.715   2.721
 1467SOL    HW2 1148   2.278   1.878   2.712
 1469SOL     OW 1149   3.089   1.550   3.368
 1469SOL    HW1 1150   3.095   1.473   3.432
 1469SOL    HW2 1151   3.037   1.524   3.288
 1470SOL     OW 1152   2.183   0.943   2.104
 1470SOL    HW1 1153   2.265   0.982   2.062
 1470SOL    HW2 1154   2.156   0.861   2.055
 1472SOL     OW 1155   2.323   1.266   3.589
 1472SOL    HW1 1156   2.273   1.267   3.503
 1472SOL    HW2 1157   2.260   1.248   3.665
 1473SOL     OW 1158   2.973   1.776   2.099
 1473SOL    HW1 1159   2.913   1.714   2.149
 1473SOL    HW2 1160   3.004   1.732   2.014
 1475SOL     OW 1161   3.494   1.377   1.943
 1475SOL    HW1 1162   3.462   1.471   1.933
 1475SOL    HW2 1163   3.418   1.314   1.931
 1476SOL     OW 1164   2.326   1.743   2.185
 1476SOL    HW1 1165   2.359   1.782   2.271
 1476SOL    HW2 1166   2.402   1.736   2.120
 1478SOL     OW 1167   2.111   1.785   3.103
 1478SOL    HW1 1168   2.168   1.720   3.153
 1478SOL    HW2 1169   2.095   1.752   3.010
 1479SOL     OW 1170   2.802   1.698   2.766
 1479SOL    HW1 1171   2.882   1.641   2.787
 1479SOL    HW2 1172   2.753   1.658   2.689
 1480SOL     OW 1173   2.244   0.700   2.342
 1480SOL    HW1 1174   2.289   0.610   2.339
 1480SOL    HW2 1175   2.150   0.689   2.375
 1484SOL     OW 1176   2.750   1.514   3.057
 1484SOL    HW1 1177   2.727   1.489   2.963
 1484SOL    HW2 1178   2.811   1.445   3.096
 1486SOL     OW 1179   2.665   1.402   2.786
 1486SOL    HW1 1180   2.755   1.416   2.744
 1486SOL    HW2 1181   2.594   1.404   2.715
 1489SOL     OW 1182   3.296   1.188   1.903
 1489SOL    HW1 1183   3.328   1.112   1.960
 1489SOL    HW2 1184   3.204   1.215   1.933
 1493SOL     OW 1185   3.089   1.570   2.655
 1493SOL    HW1 1186   3.110   1.644   2.590
 1493SOL    HW2 1187   3.157   1.570   2.728
 1494SOL     OW 1188   2.321   1.152   2.603
 1494SOL    HW1 1189   2.250   1.125   2.668
 1494SOL    HW2 1190   2.295   1.124   2.510
 1495SOL     OW 1191   3.133   1.797   2.453
 1495SOL    HW1 1192   3.177   1.861   2.389
 1495SOL    HW2 1193   3.083   1.849   2.523
 1501SOL     OW 1194   3.291   1.173   2.729
 1501SOL    HW1 1195   3.236   1.089   2.722
 1501SOL    HW2 1196   3.317   1.202   2.637
 1504SOL     OW 1197   2.350   1.385   2.036
 1504SOL    HW1 1198   2.263   1.370   2.083
 1504SOL    HW2 1199   2.333   1.411   1.941
 1505SOL     OW 1200   3.526   1.280   2.519
 1505SOL    HW1 1201   3.625   1.288   2.533
 1505SOL    HW2 1202   3.481   1.364   2.550
 1509SOL     OW 1203   2.926   1.347   3.202
 1509SOL    HW1 1204   2.846   1.324   3.257
 1509SOL    HW2 1205   3.009   1.321   3.251
 1511SOL     OW 1206   2.973   1.195   2.962
 1511SOL    HW1 1207   2.933   1.239   3.043
 1511SOL    HW2 1208   2.932   1.232   2.879
 1515SOL     OW 1209   2.567   1.050   2.230
 1515SOL    HW1 1210   2.553   1.057   2.329
 1515SOL    HW2 1211   2.651   0.999   2.212
 1516SOL     OW 1212   2.272   0.813   3.113
 1516SOL    HW1 1213   2.358   0.825   3.163
 1516SOL    HW2 1214   2.230   0.726   3.140
 1518SOL     OW 1215   1.926   1.564   3.193
 1518SOL    HW1 1216   1.880   1.646   3.159
 1518SOL    HW2 1217   2.024   1.583   3.202
 1519SOL     OW 1218   2.229   1.100   2.363
 1519SOL    HW1 1219   2.222   1.183   2.307
 1519SOL    HW2 1220   2.233   1.020   2.303
 1520SOL     OW 1221   2.428   0.537   2.727
 1520SOL    HW1 1222   2.440   0.603   2.653
 1520SOL    HW2 1223   2.474   0.571   2.810
 1521SOL     OW 1224   3.114   1.348   2.250
 1521SOL    HW1 1225   3.164   1.425   2.290
 1521SOL    HW2 1226   3.019   1.350   2.282
 1522SOL     OW 1227   3.134   1.445   3.004
 1522SOL    HW1 1228   3.181   1.458   3.091
 1522SOL    HW2 1229   3.068   1.371   3.013
 1524SOL     OW 1230   2.216   1.510   3.191
 1524SOL    HW1 1231   2.195   1.466   3.104
 1524SOL    HW2 1232   2.313   1.536   3.194
 1529SOL     OW 1233   2.435   0.870   2.891
 1529SOL    HW1 1234   2.479   0.959   2.882
 1529SOL    HW2 1235   2.372   0.870   2.968
 1533SOL     OW 1236   1.899   1.310   3.144
 1533SOL    HW1 1237   1.952   1.261   3.212
 1533SOL    HW2 1238   1.921   1.408   3.149
 1534SOL     OW 1239   2.594   0.634   2.926
 1534SOL    HW1 1240   2.653   0.608   2.850
 1534SOL    HW2 1241   2.566   0.730   2.915
 1538SOL     OW 1242   2.885   0.766   2.828
 1538SOL    HW1 1243   2.900   0.787   2.924
 1538SOL    HW2 1244   2.855   0.671   2.819
 1539SOL     OW 1245   2.842   1.573   3.562
 1539SOL    HW1 1246   2.822   1.617   3.474
 1539SOL    HW2 1247   2.881   1.482   3.546
 1543SOL     OW 1248   3.165   0.838   1.904
 1543SOL    HW1 1249   3.199   0.745   1.919
 1543SOL    HW2 1250   3.183   0.865   1.809
 1544SOL     OW 1251   2.930   1.333   2.711
 1544SOL    HW1 1252   2.937   1.249   2.656
 1544SOL    HW2 1253   2.992   1.402   2.675
 1545SOL     OW 1254   2.181   0.810   2.811
 1545SOL    HW1 1255   2.274   0.846   2.816
 1545SOL    HW2 1256   2.175   0.725   2.863
 1549SOL     OW 1257   1.870   1.326   2.062
 1549SOL    HW1 1258   1.777   1.347   2.031
 1549SOL    HW2 1259   1.880   1.227   2.075
 1550SOL     OW 1260   1.950   1.801   2.789
 1550SOL    HW1 1261   1.908   1.715   2.762
 1550SOL    HW2 1262   2.044   1.804   2.755
 1551SOL     OW 1263   2.366   1.568   2.772
 1551SOL    HW1 1264   2.432   1.642   2.781
 1551SOL    HW2 1265   2.410   1.489   2.730
 1552SOL     OW 1266   2.864   0.796   3.100
 1552SOL    HW1 1267   2.905   0.764   3.186
 1552SOL    HW2 1268   2.768   0.769   3.097
 1556SOL     OW 1269   2.677   0.572   2.187
 1556SOL    HW1 1270   2.684   0.483   2.141
 1556SOL    HW2 1271   2.583   0.606   2.179
 1558SOL     OW 1272   2.114   1.564   3.606
 1558SOL    HW1 1273   2.084   1.621   3.682
 1558SOL    HW2 1274   2.107   1.467   3.632
 1560SOL     OW 1275   2.792   1.678   3.327
 1560SOL    HW1 1276   2.768   1.660   3.232
 1560SOL    HW2 1277   2.822   1.772   3.337
 1561SOL     OW 1278   2.335   0.500   2.053
 1561SOL    HW1 1279   2.396   0.580   2.057
 1561SOL    HW2 1280   2.240   0.531   2.060
 1562SOL     OW 1281   2.021   1.137   3.328
 1562SOL    HW1 1282   2.043   1.076   3.404
 1562SOL    HW2 1283   2.031   1.088   3.242
 1563SOL     OW 1284   3.209   1.059   3.096
 1563SOL    HW1 1285   3.233   0.996   3.022
 1563SOL    HW2 1286   3.119   1.099   3.078
 1564SOL     OW 1287   3.164   0.855   2.171
 1564SOL    HW1 1288   3.078   0.824   2.213
 1564SOL    HW2 1289   3.160   0.841   2.072
 1565SOL     OW 1290   3.621   1.747   3.016
 1565SOL    HW1 1291   3.682   1.777   2.943
 1565SOL    HW2 1292   3.583   1.658   2.994
 1566SOL     OW 1293   3.114   1.731   2.990
 1566SOL    HW1 1294   3.198   1.736   2.936
 1566SOL    HW2 1295   3.091   1.635   3.008
 1567SOL     OW 1296   1.945   1.258   2.884
 1567SOL    HW1 1297   1.940   1.257   2.984
 1567SOL    HW2 1298   1.862   1.217   2.846
 1568SOL     OW 1299   2.550   1.662   3.578
 1568SOL    HW1 1300   2.494   1.743   3.587
 1568SOL    HW2 1301   2.602   1.666   3.492
 1570SOL     OW 1302   3.250   1.573   2.339
 1570SOL    HW1 1303   3.317   1.585   2.265
 1570SOL    HW2 1304   3.210   1.662   2.362
 1571SOL     OW 1305   1.992   1.794   3.713
 1571SOL    HW1 1306   1.951   1.720   3.766
 1571SOL    HW2 1307   2.056   1.845   3.771
 1572SOL     OW 1308   3.142   0.927   2.534
 1572SOL    HW1 1309   3.202   0.846   2.536
 1572SOL    HW2 1310   3.182   0.996   2.474
 1573SOL     OW 1311   2.692   1.273   3.284
 1573SOL    HW1 1312   2.687   1.306   3.379
 1573SOL    HW2 1313   2.606   1.292   3.238
 1574SOL     OW 1314   2.534   1.616   2.016
 1574SOL    HW1 1315   2.543   1.626   1.917
 1574SOL    HW2 1316   2.494   1.527   2.037
 1575SOL     OW 1317   3.512   1.720   3.256
 1575SOL    HW1 1318   3.565   1.730   3.172
 1575SOL    HW2 1319   3.485   1.810   3.290
 1578SOL     OW 1320   3.056   1.612   1.893
 1578SOL    HW1 1321   3.062   1.519   1.930
 1578SOL    HW2 1322   2.997   1.612   1.813
 1579SOL     OW 1323   2.684   1.002   3.234
 1579SOL    HW1 1324   2.724   1.001   3.142
 1579SOL    HW2 1325   2.694   1.094   3.274
 1580SOL     OW 1326   2.778   0.910   2.153
 1580SOL    HW1 1327   2.841   0.948   2.085
 1580SOL    HW2 1328   2.818   0.827   2.192
 1581SOL     OW 1329   3.366   1.607   1.906
 1581SOL    HW1 1330   3.274   1.644   1.913
 1581SOL    HW2 1331   3.404   1.627   1.816
 1582SOL     OW 1332   2.234   1.288   3.352
 1582SOL    HW1 1333   2.221   1.381   3.318
 1582SOL    HW2 1334   2.150   1.236   3.339
 1584SOL     OW 1335   2.901   1.098   2.558
 1584SOL    HW1 1336   2.831   1.051   2.612
 1584SOL    HW2 1337   2.960   1.030   2.515
 1586SOL     OW 1338   2.452   1.487   2.353
 1586SOL    HW1 1339   2.494   1.429   2.283
 1586SOL    HW2 1340   2.408   1.566   2.309
 1588SOL     OW 1341   2.117   1.348   2.152
 1588SOL    HW1 1342   2.021   1.349   2.125
 1588SOL    HW2 1343   2.129   1.401   2.236
 1594SOL     OW 1344   3.045   1.335   1.981
 1594SOL    HW1 1345   2.946   1.324   1.983
 1594SOL    HW2 1346   3.079   1.350   2.074
 1595SOL     OW 1347   2.475   0.842   3.293
 1595SOL    HW1 1348   2.531   0.923   3.276
 1595SOL    HW2 1349   2.534   0.762   3.296
 1596SOL     OW 1350   3.355   1.767   2.821
 1596SOL    HW1 1351   3.388   1.831   2.752
 1596SOL    HW2 1352   3.421   1.761   2.896
 1599SOL     OW 1353   2.252   1.741   3.422
 1599SOL    HW1 1354   2.161   1.782   3.420
 1599SOL    HW2 1355   2.245   1.647   3.454
 1602SOL     OW 1356   2.456   0.745   2.514
 1602SOL    HW1 1357   2.506   0.830   2.495
 1602SOL    HW2 1358   2.368   0.747   2.466
 1605SOL     OW 1359   2.721   1.374   1.878
 1605SOL    HW1 1360   2.675   1.389   1.966
 1605SOL    HW2 1361   2.765   1.459   1.848
 1606SOL     OW 1362   2.523   1.790   2.815
 1606SOL    HW1 1363   2.477   1.878   2.802
 1606SOL    HW2 1364   2.622   1.802   2.808
 1607SOL     OW 1365   2.721   0.956   2.723
 1607SOL    HW1 1366   2.775   0.887   2.771
 1607SOL    HW2 1367   2.689   1.025   2.789
 1608SOL     OW 1368   2.945   0.984   1.949
 1608SOL    HW1 1369   2.922   1.037   1.867
 1608SOL    HW2 1370   3.026   0.928   1.930
 1609SOL     OW 1371   3.723   1.569   2.713
 1609SOL    HW1 1372   3.652   1.557   2.643
 1609SOL    HW2 1373   3.724   1.490   2.773
 1610SOL     OW 1374   2.083   1.314   3.706
 1610SOL    HW1 1375   2.018   1.241   3.685
 1610SOL    HW2 1376   2.087   1.328   3.804
 1611SOL     OW 1377   1.941   1.240   2.515
 1611SOL    HW1 1378   1.940   1.193   2.603
 1611SOL    HW2 1379   2.023   1.212   2.464
 1612SOL     OW 1380   2.534   1.391   3.486
 1612SOL    HW1 1381   2.456   1.341   3.524
 1612SOL    HW2 1382   2.531   1.486   3.517
 1615SOL     OW 1383   3.567   1.487   2.966
 1615SOL    HW1 1384   3.474   1.462   2.939
 1615SOL    HW2 1385   3.593   1.437   3.048
 1617SOL     OW 1386   2.674   1.586   2.549
 1617SOL    HW1 1387   2.706   1.596   2.455
 1617SOL    HW2 1388   2.595   1.524   2.551
 1620SOL     OW 1389   2.632   1.330   2.163
 1620SOL    HW1 1390   2.586   1.243   2.180
 1620SOL    HW2 1391   2.723   1.327   2.204
 1621SOL     OW 1392   2.480   1.567   3.146
 1621SOL    HW1 1393   2.475   1.649   3.203
 1621SOL    HW2 1394   2.569   1.564   3.101
 1625SOL     OW 1395   1.901   1.077   2.162
 1625SOL    HW1 1396   2.000   1.066   2.153
 1625SOL    HW2 1397   1.861   0.991   2.194
 1626SOL     OW 1398   2.737   1.646   2.199
 1626SOL    HW1 1399   2.660   1.611   2.145
 1626SOL    HW2 1400   2.705   1.717   2.261
 1634SOL     OW 1401   1.889   1.596   3.841
 1634SOL    HW1 1402   1.870   1.500   3.862
 1634SOL    HW2 1403   1.856   1.654   3.916
 1684SOL     OW 1404   2.534   1.616   3.878
 1684SOL    HW1 1405   2.543   1.626   3.779
 1684SOL    HW2 1406   2.494   1.527   3.899
 1707SOL     OW 1407   2.087   2.137   0.996
 1707SOL    HW1 1408   2.122   2.120   1.088
 1707SOL    HW2 1409   1.999   2.092   0.984
 1708SOL     OW 1410   1.881   2.230   0.647
 1708SOL    HW1 1411   1.799   2.273   0.686
 1708SOL    HW2 1412   1.853   2.157   0.584
 1709SOL     OW 1413   2.431   3.137   1.165
 1709SOL    HW1 1414   2.338   3.130   1.128
 1709SOL    HW2 1415   2.442   3.226   1.209
 1711SOL     OW 1416   2.997   2.565   0.717
 1711SOL    HW1 1417   3.054   2.643   0.692
 1711SOL    HW2 1418   2.937   2.591   0.793
 1713SOL     OW 1419   2.630   3.006   1.023
 1713SOL    HW1 1420   2.552   3.023   1.083
 1713SOL    HW2 1421   2.664   3.093   0.987
 1714SOL     OW 1422   2.712   2.660   1.823
 1714SOL    HW1 1423   2.708   2.736   1.888
 1714SOL    HW2 1424   2.734   2.696   1.732
 1715SOL     OW 1425   2.547   2.874   0.665
 1715SOL    HW1 1426   2.616   2.858   0.735
 1715SOL    HW2 1427   2.474   2.931   0.703
 1716SOL     OW 1428   2.548   3.023   1.803
 1716SOL    HW1 1429   2.608   3.102   1.817
 1716SOL    HW2 1430   2.462   3.054   1.762
 1717SOL     OW 1431   2.197   3.297   1.061
 1717SOL    HW1 1432   2.119   3.266   1.008
 1717SOL    HW2 1433   2.255   3.355   1.004
 1719SOL     OW 1434   2.300   2.254   1.499
 1719SOL    HW1 1435   2.382   2.198   1.508
 1719SOL    HW2 1436   2.219   2.196   1.503
 1722SOL     OW 1437   2.989   3.203   1.690
 1722SOL    HW1 1438   3.036   3.203   1.778
 1722SOL    HW2 1439   2.941   3.116   1.679
 1724SOL     OW 1440   2.102   2.953   0.886
 1724SOL    HW1 1441   2.116   2.869   0.938
 1724SOL    HW2 1442   2.047   3.017   0.941
 1725SOL     OW 1443   2.482   3.648   1.439
 1725SOL    HW1 1444   2.390   3.631   1.474
 1725SOL    HW2 1445   2.510   3.740   1.465
 1727SOL     OW 1446   3.456   1.976   1.480
 1727SOL    HW1 1447   3.438   2.043   1.408
 1727SOL    HW2 1448   3.453   2.022   1.569
 1728SOL     OW 1449   1.984   2.505   0.563
 1728SOL    HW1 1450   1.939   2.417   0.580
 1728SOL    HW2 1451   1.983   2.559   0.647
 1733SOL     OW 1452   1.975   2.599   1.597
 1733SOL    HW1 1453   2.063   2.586   1.642
 1733SOL    HW2 1454   1.962   2.696   1.575
 1735SOL     OW 1455   3.155   3.090   1.423
 1735SOL    HW1 1456   3.192   3.017   1.365
 1735SOL    HW2 1457   3.207   3.095   1.508
 1737SOL     OW 1458   2.059   2.838   1.264
 1737SOL    HW1 1459   2.148   2.793   1.250
 1737SOL    HW2 1460   1.986   2.773   1.245
 1739SOL     OW 1461   3.049   3.654   1.616
 1739SOL    HW1 1462   3.073   3.714   1.540
 1739SOL    HW2 1463   3.056   3.559   1.586
 1740SOL     OW 1464   2.179   2.113   1.801
 1740SOL    HW1 1465   2.250   2.184   1.807
 1740SOL    HW2 1466   2.091   2.152   1.829
 1744SOL     OW 1467   3.143   2.207   0.944
 1744SOL    HW1 1468   3.057   2.157   0.931
 1744SOL    HW2 1469   3.205   2.153   1.000
 1746SOL     OW 1470   2.669   2.467   1.465
 1746SOL    HW1 1471   2.622   2.464   1.554
 1746SOL    HW2 1472   2.618   2.412   1.399
 1747SOL     OW 1473   3.256   2.331   1.674
 1747SOL    HW1 1474   3.236   2.374   1.762
 1747SOL    HW2 1475   3.334   2.269   1.683
 1748SOL     OW 1476   2.835   2.752   1.572
 1748SOL    HW1 1477   2.881   2.668   1.543
 1748SOL    HW2 1478   2.779   2.786   1.497
 1749SOL     OW 1479   2.853   2.272   1.242
 1749SOL    HW1 1480   2.776   2.306   1.296
 1749SOL    HW2 1481   2.819   2.221   1.163
 1751SOL     OW 1482   1.938   2.673   0.789
 1751SOL    HW1 1483   2.037   2.661   0.798
 1751SOL    HW2 1484   1.914   2.768   0.810
 1752SOL     OW 1485   1.992   3.683   1.571
 1752SOL    HW1 1486   1.982   3.668   1.670
 1752SOL    HW2 1487   1.906   3.719   1.535
 1754SOL     OW 1488   3.581   2.447   1.831
 1754SOL    HW1 1489   3.555   2.536   1.795
 1754SOL    HW2 1490   3.579   2.379   1.758
 1756SOL     OW 1491   2.412   2.058   0.885
 1756SOL    HW1 1492   2.407   2.053   0.985
 1756SOL    HW2 1493   2.414   2.154   0.856
 1760SOL     OW 1494   3.089   3.412   1.506
 1760SOL    HW1 1495   3.095   3.335   1.570
 1760SOL    HW2 1496   3.037   3.386   1.426
 1763SOL     OW 1497   2.323   3.128   1.727
 1763SOL    HW1 1498   2.273   3.129   1.641
 1763SOL    HW2 1499   2.260   3.110   1.803
 1765SOL     OW 1500   2.064   2.147   1.498
 1765SOL    HW1 1501   1.984   2.207   1.485
 1765SOL    HW2 1502   2.054   2.098   1.584
 1769SOL     OW 1503   2.111   3.647   1.241
 1769SOL    HW1 1504   2.168   3.582   1.291
 1769SOL    HW2 1505   2.095   3.614   1.148
 1771SOL     OW 1506   2.244   2.562   0.480
 1771SOL    HW1 1507   2.289   2.472   0.477
 1771SOL    HW2 1508   2.150   2.551   0.513
 1772SOL     OW 1509   3.409   2.084   1.729
 1772SOL    HW1 1510   3.404   2.121   1.821
 1772SOL    HW2 1511   3.337   2.015   1.717
 1774SOL     OW 1512   2.643   2.126   1.749
 1774SOL    HW1 1513   2.710   2.065   1.792
 1774SOL    HW2 1514   2.570   2.145   1.814
 1775SOL     OW 1515   2.750   3.376   1.195
 1775SOL    HW1 1516   2.727   3.351   1.101
 1775SOL    HW2 1517   2.811   3.307   1.234
 1776SOL     OW 1518   3.213   2.452   1.433
 1776SOL    HW1 1519   3.241   2.409   1.518
 1776SOL    HW2 1520   3.238   2.548   1.434
 1777SOL     OW 1521   2.665   3.264   0.924
 1777SOL    HW1 1522   2.755   3.278   0.882
 1777SOL    HW2 1523   2.594   3.266   0.853
 1778SOL     OW 1524   2.784   2.365   0.899
 1778SOL    HW1 1525   2.759   2.356   0.803
 1778SOL    HW2 1526   2.832   2.283   0.930
 1779SOL     OW 1527   2.401   1.926   0.512
 1779SOL    HW1 1528   2.320   1.927   0.570
 1779SOL    HW2 1529   2.404   2.009   0.457
 1782SOL     OW 1530   2.938   2.545   1.464
 1782SOL    HW1 1531   2.858   2.484   1.467
 1782SOL    HW2 1532   3.019   2.492   1.440
 1784SOL     OW 1533   2.321   3.014   0.741
 1784SOL    HW1 1534   2.250   2.987   0.806
 1784SOL    HW2 1535   2.295   2.986   0.648
 1787SOL     OW 1536   1.940   2.418   1.386
 1787SOL    HW1 1537   2.032   2.417   1.345
 1787SOL    HW2 1538   1.934   2.492   1.453
 1788SOL     OW 1539   2.423   2.084   1.147
 1788SOL    HW1 1540   2.461   2.000   1.184
 1788SOL    HW2 1541   2.335   2.103   1.191
 1789SOL     OW 1542   2.728   2.316   0.642
 1789SOL    HW1 1543   2.696   2.388   0.580
 1789SOL    HW2 1544   2.752   2.235   0.589
 1790SOL     OW 1545   2.879   1.901   0.753
 1790SOL    HW1 1546   2.807   1.906   0.684
 1790SOL    HW2 1547   2.855   1.832   0.822
 1792SOL     OW 1548   3.328   2.452   0.992
 1792SOL    HW1 1549   3.298   2.357   0.999
 1792SOL    HW2 1550   3.401   2.468   1.058
 1798SOL     OW 1551   3.616   3.085   1.588
 1798SOL    HW1 1552   3.707   3.046   1.575
 1798SOL    HW2 1553   3.624   3.181   1.612
 1799SOL     OW 1554   2.926   3.209   1.340
 1799SOL    HW1 1555   2.846   3.186   1.395
 1799SOL    HW2 1556   3.009   3.183   1.389
 1801SOL     OW 1557   2.973   3.057   1.100
 1801SOL    HW1 1558   2.933   3.101   1.181
 1801SOL    HW2 1559   2.932   3.094   1.017
 1803SOL     OW 1560   2.777   1.951   1.402
 1803SOL    HW1 1561   2.802   1.931   1.307
 1803SOL    HW2 1562   2.849   2.007   1.444
 1804SOL     OW 1563   2.842   2.978   1.719
 1804SOL    HW1 1564   2.743   2.984   1.729
 1804SOL    HW2 1565   2.865   2.898   1.663
 1806SOL     OW 1566   2.272   2.675   1.251
 1806SOL    HW1 1567   2.358   2.687   1.301
 1806SOL    HW2 1568   2.230   2.588   1.278
 1807SOL     OW 1569   3.136   2.248   1.262
 1807SOL    HW1 1570   3.157   2.322   1.326
 1807SOL    HW2 1571   3.047   2.265   1.219
 1808SOL     OW 1572   1.926   3.426   1.331
 1808SOL    HW1 1573   1.880   3.508   1.297
 1808SOL    HW2 1574   2.024   3.445   1.340
 1810SOL     OW 1575   2.428   2.399   0.865
 1810SOL    HW1 1576   2.440   2.465   0.791
 1810SOL    HW2 1577   2.474   2.433   0.948
 1812SOL     OW 1578   3.134   3.307   1.142
 1812SOL    HW1 1579   3.181   3.320   1.229
 1812SOL    HW2 1580   3.068   3.233   1.151
 1814SOL     OW 1581   2.216   3.372   1.329
 1814SOL    HW1 1582   2.195   3.328   1.242
 1814SOL    HW2 1583   2.313   3.398   1.332
 1815SOL     OW 1584   2.264   2.613   1.598
 1815SOL    HW1 1585   2.332   2.668   1.551
 1815SOL    HW2 1586   2.304   2.525   1.625
 1816SOL     OW 1587   3.449   2.641   1.670
 1816SOL    HW1 1588   3.357   2.679   1.665
 1816SOL    HW2 1589   3.509   2.688   1.605
 1817SOL     OW 1590   2.875   1.967   1.770
 1817SOL    HW1 1591   2.881   2.052   1.718
 1817SOL    HW2 1592   2.907   1.891   1.713
 1818SOL     OW 1593   2.366   1.912   1.740
 1818SOL    HW1 1594   2.324   1.855   1.670
 1818SOL    HW2 1595   2.300   1.981   1.772
 1819SOL     OW 1596   2.435   2.732   1.029
 1819SOL    HW1 1597   2.479   2.821   1.020
 1819SOL    HW2 1598   2.372   2.732   1.106
 1820SOL     OW 1599   3.222   2.724   1.045
 1820SOL    HW1 1600   3.147   2.724   0.979
 1820SOL    HW2 1601   3.259   2.632   1.054
 1822SOL     OW 1602   2.169   2.075   1.231
 1822SOL    HW1 1603   2.146   2.112   1.321
 1822SOL    HW2 1604   2.139   1.980   1.225
 1823SOL     OW 1605   1.899   3.172   1.282
 1823SOL    HW1 1606   1.952   3.123   1.350
 1823SOL    HW2 1607   1.921   3.270   1.287
 1824SOL     OW 1608   2.594   2.496   1.064
 1824SOL    HW1 1609   2.653   2.470   0.988
 1824SOL    HW2 1610   2.566   2.592   1.053
 1825SOL     OW 1611   3.590   2.797   1.854
 1825SOL    HW1 1612   3.544   2.790   1.765
 1825SOL    HW2 1613   3.528   2.841   1.920
 1826SOL     OW 1614   2.169   1.925   0.618
 1826SOL    HW1 1615   2.158   2.019   0.651
 1826SOL    HW2 1616   2.164   1.862   0.695
 1828SOL     OW 1617   2.885   2.628   0.966
 1828SOL    HW1 1618   2.900   2.649   1.062
 1828SOL    HW2 1619   2.855   2.533   0.957
 1829SOL     OW 1620   2.842   3.435   1.700
 1829SOL    HW1 1621   2.822   3.479   1.612
 1829SOL    HW2 1622   2.881   3.344   1.684
 1831SOL     OW 1623   2.212   2.760   1.804
 1831SOL    HW1 1624   2.288   2.804   1.852
 1831SOL    HW2 1625   2.247   2.713   1.722
 1835SOL     OW 1626   2.181   2.672   0.949
 1835SOL    HW1 1627   2.274   2.708   0.954
 1835SOL    HW2 1628   2.175   2.587   1.001
 1836SOL     OW 1629   2.201   2.371   1.006
 1836SOL    HW1 1630   2.149   2.288   0.989
 1836SOL    HW2 1631   2.278   2.376   0.942
 1837SOL     OW 1632   3.000   2.242   1.678
 1837SOL    HW1 1633   2.955   2.305   1.742
 1837SOL    HW2 1634   3.093   2.273   1.661
 1838SOL     OW 1635   3.022   2.069   1.477
 1838SOL    HW1 1636   3.022   2.133   1.554
 1838SOL    HW2 1637   3.050   2.117   1.394
 1841SOL     OW 1638   2.366   3.430   0.910
 1841SOL    HW1 1639   2.432   3.504   0.919
 1841SOL    HW2 1640   2.410   3.351   0.868
 1842SOL     OW 1641   2.864   2.658   1.238
 1842SOL    HW1 1642   2.905   2.626   1.324
 1842SOL    HW2 1643   2.768   2.631   1.235
 1843SOL     OW 1644   1.902   2.406   1.114
 1843SOL    HW1 1645   1.987   2.373   1.073
 1843SOL    HW2 1646   1.915   2.421   1.212
 1844SOL     OW 1647   2.051   2.382   1.722
 1844SOL    HW1 1648   2.110   2.342   1.652
 1844SOL    HW2 1649   1.993   2.453   1.681
 1845SOL     OW 1650   3.231   2.812   1.660
 1845SOL    HW1 1651   3.270   2.901   1.680
 1845SOL    HW2 1652   3.241   2.792   1.563
 1847SOL     OW 1653   3.519   2.466   1.206
 1847SOL    HW1 1654   3.481   2.397   1.268
 1847SOL    HW2 1655   3.601   2.430   1.162
 1848SOL     OW 1656   2.114   3.426   1.744
 1848SOL    HW1 1657   2.084   3.483   1.820
 1848SOL    HW2 1658   2.107   3.329   1.770
 1849SOL     OW 1659   2.533   2.326   1.269
 1849SOL    HW1 1660   2.499   2.237   1.239
 1849SOL    HW2 1661   2.559   2.380   1.189
 1850SOL     OW 1662   2.792   3.540   1.465
 1850SOL    HW1 1663   2.768   3.522   1.370
 1850SOL    HW2 1664   2.822   3.634   1.475
 1852SOL     OW 1665   2.021   2.999   1.466
 1852SOL    HW1 1666   2.043   2.938   1.542
 1852SOL    HW2 1667   2.031   2.950   1.380
 1853SOL     OW 1668   3.209   2.921   1.234
 1853SOL    HW1 1669   3.233   2.858   1.160
 1853SOL    HW2 1670   3.119   2.961   1.216
 1857SOL     OW 1671   1.945   3.120   1.022
 1857SOL    HW1 1672   1.940   3.119   1.122
 1857SOL    HW2 1673   1.862   3.079   0.984
 1858SOL     OW 1674   2.550   3.524   1.716
 1858SOL    HW1 1675   2.494   3.605   1.725
 1858SOL    HW2 1676   2.602   3.528   1.630
 1862SOL     OW 1677   1.992   3.656   1.851
 1862SOL    HW1 1678   1.951   3.582   1.904
 1862SOL    HW2 1679   2.056   3.707   1.909
 1864SOL     OW 1680   2.692   3.135   1.422
 1864SOL    HW1 1681   2.687   3.168   1.517
 1864SOL    HW2 1682   2.606   3.154   1.376
 1868SOL     OW 1683   2.125   2.188   0.720
 1868SOL    HW1 1684   2.046   2.239   0.686
 1868SOL    HW2 1685   2.116   2.173   0.818
 1870SOL     OW 1686   2.684   2.864   1.372
 1870SOL    HW1 1687   2.724   2.863   1.280
 1870SOL    HW2 1688   2.694   2.956   1.412
 1873SOL     OW 1689   2.234   3.150   1.490
 1873SOL    HW1 1690   2.221   3.243   1.456
 1873SOL    HW2 1691   2.150   3.098   1.477
 1876SOL     OW 1692   2.876   2.098   0.971
 1876SOL    HW1 1693   2.868   2.062   0.878
 1876SOL    HW2 1694   2.874   2.022   1.036
 1878SOL     OW 1695   3.571   2.247   1.381
 1878SOL    HW1 1696   3.644   2.316   1.385
 1878SOL    HW2 1697   3.599   2.172   1.322
 1880SOL     OW 1698   1.967   2.875   1.726
 1880SOL    HW1 1699   1.890   2.842   1.780
 1880SOL    HW2 1700   2.052   2.845   1.768
 1881SOL     OW 1701   2.534   2.065   1.489
 1881SOL    HW1 1702   2.624   2.049   1.449
 1881SOL    HW2 1703   2.542   2.070   1.588
 1883SOL     OW 1704   3.302   2.718   1.398
 1883SOL    HW1 1705   3.245   2.770   1.335
 1883SOL    HW2 1706   3.398   2.730   1.374
 1885SOL     OW 1707   2.475   2.704   1.431
 1885SOL    HW1 1708   2.531   2.785   1.414
 1885SOL    HW2 1709   2.534   2.624   1.434
 1887SOL     OW 1710   2.578   2.427   1.708
 1887SOL    HW1 1711   2.597   2.492   1.782
 1887SOL    HW2 1712   2.638   2.347   1.717
 1888SOL     OW 1713   3.312   3.082   1.633
 1888SOL    HW1 1714   3.303   3.072   1.732
 1888SOL    HW2 1715   3.408   3.075   1.607
 1889SOL     OW 1716   2.252   3.603   1.560
 1889SOL    HW1 1717   2.161   3.644   1.558
 1889SOL    HW2 1718   2.245   3.509   1.592
 1890SOL     OW 1719   3.536   2.745   1.254
 1890SOL    HW1 1720   3.509   2.656   1.217
 1890SOL    HW2 1721   3.537   2.813   1.181
 1892SOL     OW 1722   2.456   2.607   0.652
 1892SOL    HW1 1723   2.506   2.692   0.633
 1892SOL    HW2 1724   2.368   2.609   0.604
 1893SOL     OW 1725   3.639   2.204   1.642
 1893SOL    HW1 1726   3.622   2.235   1.548
 1893SOL    HW2 1727   3.555   2.167   1.680
 1894SOL     OW 1728   3.592   2.796   1.517
 1894SOL    HW1 1729   3.630   2.887   1.532
 1894SOL    HW2 1730   3.584   2.779   1.418
 1897SOL     OW 1731   2.721   2.818   0.861
 1897SOL    HW1 1732   2.775   2.749   0.909
 1897SOL    HW2 1733   2.689   2.887   0.927
 1900SOL     OW 1734   2.083   3.176   1.844
 1900SOL    HW1 1735   2.018   3.103   1.823
 1900SOL    HW2 1736   2.087   3.190   1.942
 1902SOL     OW 1737   2.534   3.253   1.624
 1902SOL    HW1 1738   2.456   3.203   1.662
 1902SOL    HW2 1739   2.531   3.348   1.655
 1903SOL     OW 1740   3.686   2.054   1.227
 1903SOL    HW1 1741   3.682   1.964   1.271
 1903SOL    HW2 1742   3.689   2.043   1.128
 1904SOL     OW 1743   2.290   2.286   0.520
 1904SOL    HW1 1744   2.320   2.214   0.458
 1904SOL    HW2 1745   2.251   2.246   0.603
 1906SOL     OW 1746   2.179   2.409   1.280
 1906SOL    HW1 1747   2.217   2.350   1.352
 1906SOL    HW2 1748   2.219   2.383   1.192
 1908SOL     OW 1749   3.286   2.076   1.112
 1908SOL    HW1 1750   3.338   2.011   1.167
 1908SOL    HW2 1751   3.237   2.139   1.173
 1909SOL     OW 1752   2.863   1.896   1.154
 1909SOL    HW1 1753   2.800   1.824   1.123
 1909SOL    HW2 1754   2.956   1.860   1.154
 1911SOL     OW 1755   2.480   3.429   1.284
 1911SOL    HW1 1756   2.475   3.511   1.341
 1911SOL    HW2 1757   2.569   3.426   1.239
 1913SOL     OW 1758   3.162   2.315   0.691
 1913SOL    HW1 1759   3.103   2.395   0.695
 1913SOL    HW2 1760   3.177   2.280   0.784
 1917SOL     OW 1761   2.092   2.490   1.975
 1917SOL    HW1 1762   1.999   2.488   2.012
 1917SOL    HW2 1763   2.093   2.451   1.883
 1918SOL     OW 1764   2.087   2.137   2.858
 1918SOL    HW1 1765   2.122   2.120   2.950
 1918SOL    HW2 1766   1.999   2.092   2.846
 1919SOL     OW 1767   1.881   2.230   2.509
 1919SOL    HW1 1768   1.799   2.273   2.548
 1919SOL    HW2 1769   1.853   2.157   2.446
 1920SOL     OW 1770   2.431   3.137   3.027
 1920SOL    HW1 1771   2.338   3.130   2.990
 1920SOL    HW2 1772   2.442   3.226   3.071
 1921SOL     OW 1773   3.417   3.373   2.565
 1921SOL    HW1 1774   3.360   3.357   2.646
 1921SOL    HW2 1775   3.358   3.383   2.485
 1922SOL     OW 1776   2.997   2.565   2.579
 1922SOL    HW1 1777   3.054   2.643   2.554
 1922SOL    HW2 1778   2.937   2.591   2.655
 1923SOL     OW 1779   3.617   2.469   2.093
 1923SOL    HW1 1780   3.605   2.456   1.994
 1923SOL    HW2 1781   3.587   2.388   2.142
 1924SOL     OW 1782   2.630   3.006   2.885
 1924SOL    HW1 1783   2.552   3.023   2.945
 1924SOL    HW2 1784   2.664   3.093   2.849
 1925SOL     OW 1785   2.712   2.660   3.685
 1925SOL    HW1 1786   2.708   2.736   3.750
 1925SOL    HW2 1787   2.734   2.696   3.594
 1926SOL     OW 1788   2.547   2.874   2.527
 1926SOL    HW1 1789   2.616   2.858   2.597
 1926SOL    HW2 1790   2.474   2.931   2.565
 1927SOL     OW 1791   2.548   3.023   3.665
 1927SOL    HW1 1792   2.608   3.102   3.679
 1927SOL    HW2 1793   2.462   3.054   3.624
 1928SOL     OW 1794   2.197   3.297   2.923
 1928SOL    HW1 1795   2.119   3.266   2.870
 1928SOL    HW2 1796   2.255   3.355   2.866
 1930SOL     OW 1797   2.300   2.254   3.361
 1930SOL    HW1 1798   2.382   2.198   3.370
 1930SOL    HW2 1799   2.219   2.196   3.365
 1931SOL     OW 1800   3.465   2.309   2.599
 1931SOL    HW1 1801   3.391   2.355   2.549
 1931SOL    HW2 1802   3.516   2.377   2.652
 1932SOL     OW 1803   2.093   3.575   2.345
 1932SOL    HW1 1804   2.127   3.652   2.399
 1932SOL    HW2 1805   2.137   3.575   2.255
 1934SOL     OW 1806   2.092   3.296   2.400
 1934SOL    HW1 1807   2.066   3.392   2.400
 1934SOL    HW2 1808   2.021   3.242   2.445
 1935SOL     OW 1809   2.102   2.953   2.748
 1935SOL    HW1 1810   2.116   2.869   2.800
 1935SOL    HW2 1811   2.047   3.017   2.803
 1937SOL     OW 1812   2.468   2.826   1.985
 1937SOL    HW1 1813   2.475   2.910   1.931
 1937SOL    HW2 1814   2.514   2.839   2.073
 1938SOL     OW 1815   3.456   1.976   3.342
 1938SOL    HW1 1816   3.438   2.043   3.270
 1938SOL    HW2 1817   3.453   2.022   3.431
 1939SOL     OW 1818   1.984   2.505   2.425
 1939SOL    HW1 1819   1.939   2.417   2.442
 1939SOL    HW2 1820   1.983   2.559   2.509
 1941SOL     OW 1821   1.889   3.458   1.979
 1941SOL    HW1 1822   1.870   3.362   2.000
 1941SOL    HW2 1823   1.856   3.516   2.054
 1942SOL     OW 1824   3.551   2.784   2.474
 1942SOL    HW1 1825   3.646   2.755   2.482
 1942SOL    HW2 1826   3.543   2.849   2.399
 1943SOL     OW 1827   3.503   2.970   2.294
 1943SOL    HW1 1828   3.589   2.972   2.242
 1943SOL    HW2 1829   3.517   3.017   2.382
 1944SOL     OW 1830   1.975   2.599   3.459
 1944SOL    HW1 1831   2.063   2.586   3.504
 1944SOL    HW2 1832   1.962   2.696   3.437
 1945SOL     OW 1833   2.475   3.227   2.588
 1945SOL    HW1 1834   2.426   3.140   2.597
 1945SOL    HW2 1835   2.452   3.270   2.501
 1946SOL     OW 1836   3.155   3.090   3.285
 1946SOL    HW1 1837   3.192   3.017   3.227
 1946SOL    HW2 1838   3.207   3.095   3.370
 1947SOL     OW 1839   2.671   1.866   2.364
 1947SOL    HW1 1840   2.711   1.957   2.355
 1947SOL    HW2 1841   2.571   1.874   2.370
 1948SOL     OW 1842   2.059   2.838   3.126
 1948SOL    HW1 1843   2.148   2.793   3.112
 1948SOL    HW2 1844   1.986   2.773   3.107
 1949SOL     OW 1845   3.387   2.861   2.052
 1949SOL    HW1 1846   3.324   2.785   2.065
 1949SOL    HW2 1847   3.435   2.879   2.138
 1951SOL     OW 1848   2.179   2.113   3.663
 1951SOL    HW1 1849   2.250   2.184   3.669
 1951SOL    HW2 1850   2.091   2.152   3.691
 1952SOL     OW 1851   3.328   3.279   2.815
 1952SOL    HW1 1852   3.269   3.285   2.895
 1952SOL    HW2 1853   3.313   3.191   2.769
 1954SOL     OW 1854   2.460   2.591   2.132
 1954SOL    HW1 1855   2.484   2.660   2.064
 1954SOL    HW2 1856   2.382   2.624   2.186
 1955SOL     OW 1857   3.143   2.207   2.806
 1955SOL    HW1 1858   3.057   2.157   2.793
 1955SOL    HW2 1859   3.205   2.153   2.862
 1956SOL     OW 1860   3.438   3.524   2.169
 1956SOL    HW1 1861   3.527   3.570   2.172
 1956SOL    HW2 1862   3.417   3.500   2.074
 1957SOL     OW 1863   2.669   2.467   3.327
 1957SOL    HW1 1864   2.622   2.464   3.416
 1957SOL    HW2 1865   2.618   2.412   3.261
 1958SOL     OW 1866   3.256   2.331   3.536
 1958SOL    HW1 1867   3.236   2.374   3.624
 1958SOL    HW2 1868   3.334   2.269   3.545
 1959SOL     OW 1869   2.835   2.752   3.434
 1959SOL    HW1 1870   2.881   2.668   3.405
 1959SOL    HW2 1871   2.779   2.786   3.359
 1960SOL     OW 1872   2.853   2.272   3.104
 1960SOL    HW1 1873   2.776   2.306   3.158
 1960SOL    HW2 1874   2.819   2.221   3.025
 1961SOL     OW 1875   2.903   2.563   2.291
 1961SOL    HW1 1876   2.929   2.559   2.387
 1961SOL    HW2 1877   2.818   2.512   2.277
 1962SOL     OW 1878   1.938   2.673   2.651
 1962SOL    HW1 1879   2.037   2.661   2.660
 1962SOL    HW2 1880   1.914   2.768   2.672
 1964SOL     OW 1881   2.727   2.210   2.057
 1964SOL    HW1 1882   2.786   2.273   2.008
 1964SOL    HW2 1883   2.746   2.116   2.028
 1966SOL     OW 1884   3.224   3.006   2.407
 1966SOL    HW1 1885   3.307   2.977   2.359
 1966SOL    HW2 1886   3.175   3.073   2.351
 1967SOL     OW 1887   2.412   2.058   2.747
 1967SOL    HW1 1888   2.407   2.053   2.847
 1967SOL    HW2 1889   2.414   2.154   2.718
 1968SOL     OW 1890   2.870   3.318   2.339
 1968SOL    HW1 1891   2.824   3.390   2.287
 1968SOL    HW2 1892   2.866   3.338   2.437
 1969SOL     OW 1893   2.213   3.663   2.715
 1969SOL    HW1 1894   2.263   3.577   2.721
 1969SOL    HW2 1895   2.278   3.740   2.712
 1970SOL     OW 1896   3.657   2.928   2.735
 1970SOL    HW1 1897   3.595   2.913   2.659
 1970SOL    HW2 1898   3.605   2.939   2.820
 1972SOL     OW 1899   2.183   2.805   2.104
 1972SOL    HW1 1900   2.265   2.844   2.062
 1972SOL    HW2 1901   2.156   2.723   2.055
 1973SOL     OW 1902   3.320   2.597   2.590
 1973SOL    HW1 1903   3.315   2.532   2.665
 1973SOL    HW2 1904   3.400   2.656   2.603
 1974SOL     OW 1905   2.323   3.128   3.589
 1974SOL    HW1 1906   2.273   3.129   3.503
 1974SOL    HW2 1907   2.260   3.110   3.665
 1975SOL     OW 1908   2.973   3.638   2.099
 1975SOL    HW1 1909   2.913   3.576   2.149
 1975SOL    HW2 1910   3.004   3.594   2.014
 1976SOL     OW 1911   2.064   2.147   3.360
 1976SOL    HW1 1912   1.984   2.207   3.347
 1976SOL    HW2 1913   2.054   2.098   3.446
 1977SOL     OW 1914   3.494   3.239   1.943
 1977SOL    HW1 1915   3.462   3.333   1.933
 1977SOL    HW2 1916   3.418   3.176   1.931
 1978SOL     OW 1917   2.326   3.605   2.185
 1978SOL    HW1 1918   2.359   3.644   2.271
 1978SOL    HW2 1919   2.402   3.598   2.120
 1979SOL     OW 1920   3.262   1.969   2.288
 1979SOL    HW1 1921   3.238   1.932   2.198
 1979SOL    HW2 1922   3.361   1.985   2.292
 1980SOL     OW 1923   2.111   3.647   3.103
 1980SOL    HW1 1924   2.168   3.582   3.153
 1980SOL    HW2 1925   2.095   3.614   3.010
 1981SOL     OW 1926   2.802   3.560   2.766
 1981SOL    HW1 1927   2.882   3.503   2.787
 1981SOL    HW2 1928   2.753   3.520   2.689
 1982SOL     OW 1929   2.244   2.562   2.342
 1982SOL    HW1 1930   2.289   2.472   2.339
 1982SOL    HW2 1931   2.150   2.551   2.375
 1984SOL     OW 1932   2.476   1.984   1.979
 1984SOL    HW1 1933   2.574   1.962   1.986
 1984SOL    HW2 1934   2.445   1.967   1.886
 1985SOL     OW 1935   2.643   2.126   3.611
 1985SOL    HW1 1936   2.710   2.065   3.654
 1985SOL    HW2 1937   2.570   2.145   3.676
 1986SOL     OW 1938   2.750   3.376   3.057
 1986SOL    HW1 1939   2.727   3.351   2.963
 1986SOL    HW2 1940   2.811   3.307   3.096
 1987SOL     OW 1941   3.213   2.452   3.295
 1987SOL    HW1 1942   3.241   2.409   3.380
 1987SOL    HW2 1943   3.238   2.548   3.296
 1988SOL     OW 1944   2.665   3.264   2.786
 1988SOL    HW1 1945   2.755   3.278   2.744
 1988SOL    HW2 1946   2.594   3.266   2.715
 1989SOL     OW 1947   2.784   2.365   2.761
 1989SOL    HW1 1948   2.759   2.356   2.665
 1989SOL    HW2 1949   2.832   2.283   2.792
 1990SOL     OW 1950   2.401   1.926   2.374
 1990SOL    HW1 1951   2.320   1.927   2.432
 1990SOL    HW2 1952   2.404   2.009   2.319
 1991SOL     OW 1953   3.296   3.050   1.903
 1991SOL    HW1 1954   3.328   2.974   1.960
 1991SOL    HW2 1955   3.204   3.077   1.933
 1992SOL     OW 1956   2.159   1.897   2.033
 1992SOL    HW1 1957   2.208   1.981   2.012
 1992SOL    HW2 1958   2.221   1.832   2.078
 1993SOL     OW 1959   2.797   2.098   2.342
 1993SOL    HW1 1960   2.749   2.139   2.264
 1993SOL    HW2 1961   2.896   2.096   2.323
 1994SOL     OW 1962   2.938   2.545   3.326
 1994SOL    HW1 1963   2.858   2.484   3.329
 1994SOL    HW2 1964   3.019   2.492   3.302
 1995SOL     OW 1965   3.089   3.432   2.655
 1995SOL    HW1 1966   3.110   3.506   2.590
 1995SOL    HW2 1967   3.157   3.432   2.728
 1996SOL     OW 1968   2.321   3.014   2.603
 1996SOL    HW1 1969   2.250   2.987   2.668
 1996SOL    HW2 1970   2.295   2.986   2.510
 1997SOL     OW 1971   3.133   3.659   2.453
 1997SOL    HW1 1972   3.177   3.723   2.389
 1997SOL    HW2 1973   3.083   3.711   2.523
 1998SOL     OW 1974   2.894   2.411   1.878
 1998SOL    HW1 1975   2.853   2.493   1.839
 1998SOL    HW2 1976   2.958   2.437   1.951
 1999SOL     OW 1977   1.940   2.418   3.248
 1999SOL    HW1 1978   2.032   2.417   3.207
 1999SOL    HW2 1979   1.934   2.492   3.315
 2000SOL     OW 1980   2.423   2.084   3.009
 2000SOL    HW1 1981   2.461   2.000   3.046
 2000SOL    HW2 1982   2.335   2.103   3.053
 2001SOL     OW 1983   2.728   2.316   2.504
 2001SOL    HW1 1984   2.696   2.388   2.442
 2001SOL    HW2 1985   2.752   2.235   2.451
 2002SOL     OW 1986   2.879   1.901   2.615
 2002SOL    HW1 1987   2.807   1.906   2.546
 2002SOL    HW2 1988   2.855   1.832   2.684
 2003SOL     OW 1989   3.291   3.035   2.729
 2003SOL    HW1 1990   3.236   2.951   2.722
 2003SOL    HW2 1991   3.317   3.064   2.637
 2004SOL     OW 1992   3.328   2.452   2.854
 2004SOL    HW1 1993   3.298   2.357   2.861
 2004SOL    HW2 1994   3.401   2.468   2.920
 2005SOL     OW 1995   3.719   2.695   2.239
 2005SOL    HW1 1996   3.761   2.631   2.303
 2005SOL    HW2 1997   3.681   2.644   2.161
 2006SOL     OW 1998   2.350   3.247   2.036
 2006SOL    HW1 1999   2.263   3.232   2.083
 2006SOL    HW2 2000   2.333   3.273   1.941
 2007SOL     OW 2001   3.526   3.142   2.519
 2007SOL    HW1 2002   3.625   3.150   2.533
 2007SOL    HW2 2003   3.481   3.226   2.550
 2008SOL     OW 2004   3.252   2.437   1.940
 2008SOL    HW1 2005   3.198   2.416   2.021
 2008SOL    HW2 2006   3.343   2.396   1.949
 2010SOL     OW 2007   2.926   3.209   3.202
 2010SOL    HW1 2008   2.846   3.186   3.257
 2010SOL    HW2 2009   3.009   3.183   3.251
 2012SOL     OW 2010   2.973   3.057   2.962
 2012SOL    HW1 2011   2.933   3.101   3.043
 2012SOL    HW2 2012   2.932   3.094   2.879
 2013SOL     OW 2013   3.500   2.961   2.941
 2013SOL    HW1 2014   3.505   3.042   3.000
 2013SOL    HW2 2015   3.414   2.963   2.890
 2014SOL     OW 2016   2.777   1.951   3.264
 2014SOL    HW1 2017   2.802   1.931   3.169
 2014SOL    HW2 2018   2.849   2.007   3.306
 2015SOL     OW 2019   2.842   2.978   3.581
 2015SOL    HW1 2020   2.743   2.984   3.591
 2015SOL    HW2 2021   2.865   2.898   3.525
 2016SOL     OW 2022   2.567   2.912   2.230
 2016SOL    HW1 2023   2.553   2.919   2.329
 2016SOL    HW2 2024   2.651   2.861   2.212
 2017SOL     OW 2025   2.272   2.675   3.113
 2017SOL    HW1 2026   2.358   2.687   3.163
 2017SOL    HW2 2027   2.230   2.588   3.140
 2018SOL     OW 2028   3.136   2.248   3.124
 2018SOL    HW1 2029   3.157   2.322   3.188
 2018SOL    HW2 2030   3.047   2.265   3.081
 2019SOL     OW 2031   1.926   3.426   3.193
 2019SOL    HW1 2032   1.880   3.508   3.159
 2019SOL    HW2 2033   2.024   3.445   3.202
 2020SOL     OW 2034   2.229   2.962   2.363
 2020SOL    HW1 2035   2.222   3.045   2.307
 2020SOL    HW2 2036   2.233   2.882   2.303
 2021SOL     OW 2037   2.428   2.399   2.727
 2021SOL    HW1 2038   2.440   2.465   2.653
 2021SOL    HW2 2039   2.474   2.433   2.810
 2022SOL     OW 2040   3.114   3.210   2.250
 2022SOL    HW1 2041   3.164   3.287   2.290
 2022SOL    HW2 2042   3.019   3.212   2.282
 2023SOL     OW 2043   3.134   3.307   3.004
 2023SOL    HW1 2044   3.181   3.320   3.091
 2023SOL    HW2 2045   3.068   3.233   3.013
 2024SOL     OW 2046   3.444   2.501   2.334
 2024SOL    HW1 2047   3.413   2.562   2.407
 2024SOL    HW2 2048   3.494   2.553   2.265
 2025SOL     OW 2049   2.216   3.372   3.191
 2025SOL    HW1 2050   2.195   3.328   3.104
 2025SOL    HW2 2051   2.313   3.398   3.194
 2026SOL     OW 2052   2.264   2.613   3.460
 2026SOL    HW1 2053   2.332   2.668   3.413
 2026SOL    HW2 2054   2.304   2.525   3.487
 2028SOL     OW 2055   2.875   1.967   3.632
 2028SOL    HW1 2056   2.881   2.052   3.580
 2028SOL    HW2 2057   2.907   1.891   3.575
 2029SOL     OW 2058   2.366   1.912   3.602
 2029SOL    HW1 2059   2.324   1.855   3.532
 2029SOL    HW2 2060   2.300   1.981   3.634
 2030SOL     OW 2061   2.435   2.732   2.891
 2030SOL    HW1 2062   2.479   2.821   2.882
 2030SOL    HW2 2063   2.372   2.732   2.968
 2031SOL     OW 2064   3.222   2.724   2.907
 2031SOL    HW1 2065   3.147   2.724   2.841
 2031SOL    HW2 2066   3.259   2.632   2.916
 2032SOL     OW 2067   3.071   2.387   2.137
 2032SOL    HW1 2068   3.084   2.303   2.191
 2032SOL    HW2 2069   3.042   2.461   2.197
 2033SOL     OW 2070   2.169   2.075   3.093
 2033SOL    HW1 2071   2.146   2.112   3.183
 2033SOL    HW2 2072   2.139   1.980   3.087
 2034SOL     OW 2073   1.899   3.172   3.144
 2034SOL    HW1 2074   1.952   3.123   3.212
 2034SOL    HW2 2075   1.921   3.270   3.149
 2035SOL     OW 2076   2.594   2.496   2.926
 2035SOL    HW1 2077   2.653   2.470   2.850
 2035SOL    HW2 2078   2.566   2.592   2.915
 2037SOL     OW 2079   2.169   1.925   2.480
 2037SOL    HW1 2080   2.158   2.019   2.513
 2037SOL    HW2 2081   2.164   1.862   2.557
 2038SOL     OW 2082   3.484   2.229   2.236
 2038SOL    HW1 2083   3.486   2.153   2.300
 2038SOL    HW2 2084   3.436   2.306   2.276
 2039SOL     OW 2085   2.885   2.628   2.828
 2039SOL    HW1 2086   2.900   2.649   2.924
 2039SOL    HW2 2087   2.855   2.533   2.819
 2042SOL     OW 2088   2.212   2.760   3.666
 2042SOL    HW1 2089   2.288   2.804   3.714
 2042SOL    HW2 2090   2.247   2.713   3.584
 2043SOL     OW 2091   3.402   2.136   1.987
 2043SOL    HW1 2092   3.341   2.061   2.010
 2043SOL    HW2 2093   3.424   2.188   2.070
 2044SOL     OW 2094   3.165   2.700   1.904
 2044SOL    HW1 2095   3.199   2.607   1.919
 2044SOL    HW2 2096   3.183   2.727   1.809
 2045SOL     OW 2097   2.930   3.195   2.711
 2045SOL    HW1 2098   2.937   3.111   2.656
 2045SOL    HW2 2099   2.992   3.264   2.675
 2046SOL     OW 2100   2.181   2.672   2.811
 2046SOL    HW1 2101   2.274   2.708   2.816
 2046SOL    HW2 2102   2.175   2.587   2.863
 2047SOL     OW 2103   2.201   2.371   2.868
 2047SOL    HW1 2104   2.149   2.288   2.851
 2047SOL    HW2 2105   2.278   2.376   2.804
 2048SOL     OW 2106   3.000   2.242   3.540
 2048SOL    HW1 2107   2.955   2.305   3.604
 2048SOL    HW2 2108   3.093   2.273   3.523
 2049SOL     OW 2109   3.022   2.069   3.339
 2049SOL    HW1 2110   3.022   2.133   3.416
 2049SOL    HW2 2111   3.050   2.117   3.256
 2050SOL     OW 2112   1.870   3.188   2.062
 2050SOL    HW1 2113   1.777   3.209   2.031
 2050SOL    HW2 2114   1.880   3.089   2.075
 2051SOL     OW 2115   1.950   3.663   2.789
 2051SOL    HW1 2116   1.908   3.577   2.762
 2051SOL    HW2 2117   2.044   3.666   2.755
 2052SOL     OW 2118   2.366   3.430   2.772
 2052SOL    HW1 2119   2.432   3.504   2.781
 2052SOL    HW2 2120   2.410   3.351   2.730
 2053SOL     OW 2121   2.864   2.658   3.100
 2053SOL    HW1 2122   2.905   2.626   3.186
 2053SOL    HW2 2123   2.768   2.631   3.097
 2054SOL     OW 2124   1.902   2.406   2.976
 2054SOL    HW1 2125   1.987   2.373   2.935
 2054SOL    HW2 2126   1.915   2.421   3.074
 2055SOL     OW 2127   2.051   2.382   3.584
 2055SOL    HW1 2128   2.110   2.342   3.514
 2055SOL    HW2 2129   1.993   2.453   3.543
 2056SOL     OW 2130   3.231   2.812   3.522
 2056SOL    HW1 2131   3.270   2.901   3.542
 2056SOL    HW2 2132   3.241   2.792   3.425
 2057SOL     OW 2133   2.677   2.434   2.187
 2057SOL    HW1 2134   2.684   2.345   2.141
 2057SOL    HW2 2135   2.583   2.468   2.179
 2058SOL     OW 2136   3.519   2.466   3.068
 2058SOL    HW1 2137   3.481   2.397   3.130
 2058SOL    HW2 2138   3.601   2.430   3.024
 2060SOL     OW 2139   2.533   2.326   3.131
 2060SOL    HW1 2140   2.499   2.237   3.101
 2060SOL    HW2 2141   2.559   2.380   3.051
 2062SOL     OW 2142   2.021   2.999   3.328
 2062SOL    HW1 2143   2.043   2.938   3.404
 2062SOL    HW2 2144   2.031   2.950   3.242
 2063SOL     OW 2145   3.209   2.921   3.096
 2063SOL    HW1 2146   3.233   2.858   3.022
 2063SOL    HW2 2147   3.119   2.961   3.078
 2064SOL     OW 2148   3.164   2.717   2.171
 2064SOL    HW1 2149   3.078   2.686   2.213
 2064SOL    HW2 2150   3.160   2.703   2.072
 2067SOL     OW 2151   1.945   3.120   2.884
 2067SOL    HW1 2152   1.940   3.119   2.984
 2067SOL    HW2 2153   1.862   3.079   2.846
 2069SOL     OW 2154   3.588   1.997   2.385
 2069SOL    HW1 2155   3.661   1.980   2.318
 2069SOL    HW2 2156   3.557   1.910   2.423
 2070SOL     OW 2157   3.250   3.435   2.339
 2070SOL    HW1 2158   3.317   3.447   2.265
 2070SOL    HW2 2159   3.210   3.524   2.362
 2072SOL     OW 2160   3.142   2.789   2.534
 2072SOL    HW1 2161   3.202   2.708   2.536
 2072SOL    HW2 2162   3.182   2.858   2.474
 2073SOL     OW 2163   2.692   3.135   3.284
 2073SOL    HW1 2164   2.687   3.168   3.379
 2073SOL    HW2 2165   2.606   3.154   3.238
 2074SOL     OW 2166   2.534   3.478   2.016
 2074SOL    HW1 2167   2.543   3.488   1.917
 2074SOL    HW2 2168   2.494   3.389   2.037
 2076SOL     OW 2169   3.703   2.037   2.825
 2076SOL    HW1 2170   3.742   1.952   2.789
 2076SOL    HW2 2171   3.605   2.039   2.806
 2077SOL     OW 2172   2.125   2.188   2.582
 2077SOL    HW1 2173   2.046   2.239   2.548
 2077SOL    HW2 2174   2.116   2.173   2.680
 2078SOL     OW 2175   3.056   3.474   1.893
 2078SOL    HW1 2176   3.062   3.381   1.930
 2078SOL    HW2 2177   2.997   3.474   1.813
 2079SOL     OW 2178   2.684   2.864   3.234
 2079SOL    HW1 2179   2.724   2.863   3.142
 2079SOL    HW2 2180   2.694   2.956   3.274
 2080SOL     OW 2181   2.778   2.772   2.153
 2080SOL    HW1 2182   2.841   2.810   2.085
 2080SOL    HW2 2183   2.818   2.689   2.192
 2081SOL     OW 2184   3.366   3.469   1.906
 2081SOL    HW1 2185   3.274   3.506   1.913
 2081SOL    HW2 2186   3.404   3.489   1.816
 2082SOL     OW 2187   2.234   3.150   3.352
 2082SOL    HW1 2188   2.221   3.243   3.318
 2082SOL    HW2 2189   2.150   3.098   3.339
 2084SOL     OW 2190   2.901   2.960   2.558
 2084SOL    HW1 2191   2.831   2.913   2.612
 2084SOL    HW2 2192   2.960   2.892   2.515
 2085SOL     OW 2193   2.876   2.098   2.833
 2085SOL    HW1 2194   2.868   2.062   2.740
 2085SOL    HW2 2195   2.874   2.022   2.898
 2086SOL     OW 2196   2.452   3.349   2.353
 2086SOL    HW1 2197   2.494   3.291   2.283
 2086SOL    HW2 2198   2.408   3.428   2.309
 2087SOL     OW 2199   3.571   2.247   3.243
 2087SOL    HW1 2200   3.644   2.316   3.247
 2087SOL    HW2 2201   3.599   2.172   3.184
 2088SOL     OW 2202   2.117   3.210   2.152
 2088SOL    HW1 2203   2.021   3.211   2.125
 2088SOL    HW2 2204   2.129   3.263   2.236
 2089SOL     OW 2205   1.967   2.875   3.588
 2089SOL    HW1 2206   1.890   2.842   3.642
 2089SOL    HW2 2207   2.052   2.845   3.630
 2090SOL     OW 2208   2.534   2.065   3.351
 2090SOL    HW1 2209   2.624   2.049   3.311
 2090SOL    HW2 2210   2.542   2.070   3.450
 2091SOL     OW 2211   1.937   2.207   1.895
 2091SOL    HW1 2212   1.845   2.179   1.866
 2091SOL    HW2 2213   1.968   2.284   1.839
 2092SOL     OW 2214   3.302   2.718   3.260
 2092SOL    HW1 2215   3.245   2.770   3.197
 2092SOL    HW2 2216   3.398   2.730   3.236
 2093SOL     OW 2217   3.045   3.197   1.981
 2093SOL    HW1 2218   2.946   3.186   1.983
 2093SOL    HW2 2219   3.079   3.212   2.074
 2094SOL     OW 2220   2.475   2.704   3.293
 2094SOL    HW1 2221   2.531   2.785   3.276
 2094SOL    HW2 2222   2.534   2.624   3.296
 2096SOL     OW 2223   2.578   2.427   3.570
 2096SOL    HW1 2224   2.597   2.492   3.644
 2096SOL    HW2 2225   2.638   2.347   3.579
 2099SOL     OW 2226   3.536   2.745   3.116
 2099SOL    HW1 2227   3.509   2.656   3.079
 2099SOL    HW2 2228   3.537   2.813   3.043
 2100SOL     OW 2229   3.087   2.187   2.311
 2100SOL    HW1 2230   3.152   2.113   2.300
 2100SOL    HW2 2231   3.107   2.237   2.395
 2101SOL     OW 2232   2.456   2.607   2.514
 2101SOL    HW1 2233   2.506   2.692   2.495
 2101SOL    HW2 2234   2.368   2.609   2.466
 2104SOL     OW 2235   2.721   3.236   1.878
 2104SOL    HW1 2236   2.675   3.251   1.966
 2104SOL    HW2 2237   2.765   3.321   1.848
 2105SOL     OW 2238   2.523   3.652   2.815
 2105SOL    HW1 2239   2.477   3.740   2.802
 2105SOL    HW2 2240   2.622   3.664   2.808
 2106SOL     OW 2241   2.721   2.818   2.723
 2106SOL    HW1 2242   2.775   2.749   2.771
 2106SOL    HW2 2243   2.689   2.887   2.789
 2107SOL     OW 2244   2.945   2.846   1.949
 2107SOL    HW1 2245   2.922   2.899   1.867
 2107SOL    HW2 2246   3.026   2.790   1.930
 2109SOL     OW 2247   2.083   3.176   3.706
 2109SOL    HW1 2248   2.018   3.103   3.685
 2109SOL    HW2 2249   2.087   3.190   3.804
 2110SOL     OW 2250   1.941   3.102   2.515
 2110SOL    HW1 2251   1.940   3.055   2.603
 2110SOL    HW2 2252   2.023   3.074   2.464
 2111SOL     OW 2253   2.534   3.253   3.486
 2111SOL    HW1 2254   2.456   3.203   3.524
 2111SOL    HW2 2255   2.531   3.348   3.517
 2112SOL     OW 2256   3.686   2.054   3.089
 2112SOL    HW1 2257   3.682   1.964   3.133
 2112SOL    HW2 2258   3.689   2.043   2.990
 2114SOL     OW 2259   2.179   2.409   3.142
 2114SOL    HW1 2260   2.217   2.350   3.214
 2114SOL    HW2 2261   2.219   2.383   3.054
 2115SOL     OW 2262   2.674   3.448   2.549
 2115SOL    HW1 2263   2.706   3.458   2.455
 2115SOL    HW2 2264   2.595   3.386   2.551
 2116SOL     OW 2265   3.286   2.076   2.974
 2116SOL    HW1 2266   3.338   2.011   3.029
 2116SOL    HW2 2267   3.237   2.139   3.035
 2117SOL     OW 2268   2.863   1.896   3.016
 2117SOL    HW1 2269   2.800   1.824   2.985
 2117SOL    HW2 2270   2.956   1.860   3.016
 2118SOL     OW 2271   2.632   3.192   2.163
 2118SOL    HW1 2272   2.586   3.105   2.180
 2118SOL    HW2 2273   2.723   3.189   2.204
 2119SOL     OW 2274   2.480   3.429   3.146
 2119SOL    HW1 2275   2.475   3.511   3.203
 2119SOL    HW2 2276   2.569   3.426   3.101
 2120SOL     OW 2277   3.214   1.914   2.030
 2120SOL    HW1 2278   3.249   1.873   1.946
 2120SOL    HW2 2279   3.124   1.876   2.050
 2121SOL     OW 2280   3.162   2.315   2.553
 2121SOL    HW1 2281   3.103   2.395   2.557
 2121SOL    HW2 2282   3.177   2.280   2.646
 2122SOL     OW 2283   3.455   2.083   2.744
 2122SOL    HW1 2284   3.371   2.082   2.798
 2122SOL    HW2 2285   3.457   2.166   2.688
 2123SOL     OW 2286   1.901   2.939   2.162
 2123SOL    HW1 2287   2.000   2.928   2.153
 2123SOL    HW2 2288   1.861   2.853   2.194
 2124SOL     OW 2289   2.737   3.508   2.199
 2124SOL    HW1 2290   2.660   3.473   2.145
 2124SOL    HW2 2291   2.705   3.579   2.261
 2125SOL     OW 2292   2.092   2.490   3.837
 2125SOL    HW1 2293   1.999   2.488   3.874
 2125SOL    HW2 2294   2.093   2.451   3.745
 2129SOL     OW 2295   2.468   2.826   3.847
 2129SOL    HW1 2296   2.475   2.910   3.793
 2129SOL    HW2 2297   2.514   2.839   3.935
 2143SOL     OW 2298   2.727   2.210   3.919
 2143SOL    HW1 2299   2.786   2.273   3.870
 2143SOL    HW2 2300   2.746   2.116   3.890
 2154SOL     OW 2301   2.476   1.984   3.841
 2154SOL    HW1 2302   2.574   1.962   3.848
 2154SOL    HW2 2303   2.445   1.967   3.748
 2157SOL     OW 2304   2.159   1.897   3.895
 2157SOL    HW1 2305   2.208   1.981   3.874
 2157SOL    HW2 2306   2.221   1.832   3.940
 2161SOL     OW 2307   2.894   2.411   3.740
 2161SOL    HW1 2308   2.853   2.493   3.701
 2161SOL    HW2 2309   2.958   2.437   3.813
 2178SOL     OW 2310   2.335   2.362   3.915
 2178SOL    HW1 2311   2.396   2.442   3.919
 2178SOL    HW2 2312   2.240   2.393   3.922
 2189SOL     OW 2313   1.937   2.207   3.757
 2189SOL    HW1 2314   1.845   2.179   3.728
 2189SOL    HW2 2315   1.968   2.284   3.701
 2244SOL     OW 2316   2.875   3.829   1.770
 2244SOL    HW1 2317   2.881   3.914   1.718
 2244SOL    HW2 2318   2.907   3.753   1.713
 2245SOL     OW 2319   2.366   3.774   1.740
 2245SOL    HW1 2320   2.324   3.717   1.670
 2245SOL    HW2 2321   2.300   3.843   1.772
 2291SOL     OW 2322   2.671   3.728   2.364
 2291SOL    HW1 2323   2.711   3.819   2.355
 2291SOL    HW2 2324   2.571   3.736   2.370
 2300SOL     OW 2325   2.412   3.920   2.747
 2300SOL    HW1 2326   2.407   3.915   2.847
 2300SOL    HW2 2327   2.414   4.016   2.718
 2305SOL     OW 2328   2.476   3.846   1.979
 2305SOL    HW1 2329   2.574   3.824   1.986
 2305SOL    HW2 2330   2.445   3.829   1.886
 2309SOL     OW 2331   2.401   3.788   2.374
 2309SOL    HW1 2332   2.320   3.789   2.432
 2309SOL    HW2 2333   2.404   3.871   2.319
 2310SOL     OW 2334   2.159   3.759   2.033
 2310SOL    HW1 2335   2.208   3.843   2.012
 2310SOL    HW2 2336   2.221   3.694   2.078
 2317SOL     OW 2337   2.879   3.763   2.615
 2317SOL    HW1 2338   2.807   3.768   2.546
 2317SOL    HW2 2339   2.855   3.694   2.684
 2319SOL     OW 2340   2.389   3.980   2.190
 2319SOL    HW1 2341   2.416   3.921   2.115
 2319SOL    HW2 2342   2.389   4.075   2.159
 2329SOL     OW 2343   2.169   3.787   2.480
 2329SOL    HW1 2344   2.158   3.881   2.513
 2329SOL    HW2 2345   2.164   3.724   2.557
 2350SOL     OW 2346   1.934   3.890   2.180
 2350SOL    HW1 2347   1.917   3.973   2.126
 2350SOL    HW2 2348   2.024   3.853   2.158
 2455SOL     OW 2349   3.854   1.794   1.851
 2455SOL    HW1 2350   3.813   1.720   1.904
 2455SOL    HW2 2351   3.918   1.845   1.909
 2483SOL     OW 2352   3.751   1.596   1.979
 2483SOL    HW1 2353   3.732   1.500   2.000
 2483SOL    HW2 2354   3.718   1.654   2.054
 2523SOL     OW 2355   3.732   1.326   2.062
 2523SOL    HW1 2356   3.639   1.347   2.031
 2523SOL    HW2 2357   3.742   1.227   2.075
 2524SOL     OW 2358   3.812   1.801   2.789
 2524SOL    HW1 2359   3.770   1.715   2.762
 2524SOL    HW2 2360   3.906   1.804   2.755
 2596SOL     OW 2361   3.837   2.599   1.597
 2596SOL    HW1 2362   3.925   2.586   1.642
 2596SOL    HW2 2363   3.824   2.696   1.575
 2639SOL     OW 2364   3.913   2.382   1.722
 2639SOL    HW1 2365   3.972   2.342   1.652
 2639SOL    HW2 2366   3.855   2.453   1.681
 2663SOL     OW 2367   3.954   2.490   1.975
 2663SOL    HW1 2368   3.861   2.488   2.012
 2663SOL    HW2 2369   3.955   2.451   1.883
 2665SOL     OW 2370   3.743   2.230   2.509
 2665SOL    HW1 2371   3.661   2.273   2.548
 2665SOL    HW2 2372   3.715   2.157   2.446
 2673SOL     OW 2373   3.846   2.505   2.425
 2673SOL    HW1 2374   3.801   2.417   2.442
 2673SOL    HW2 2375   3.845   2.559   2.509
 2681SOL     OW 2376   3.800   2.673   2.651
 2681SOL    HW1 2377   3.899   2.661   2.660
 2681SOL    HW2 2378   3.776   2.768   2.672
 2718SOL     OW 2379   3.764   2.406   2.976
 2718SOL    HW1 2380   3.849   2.373   2.935
 2718SOL    HW2 2381   3.777   2.421   3.074
 2733SOL     OW 2382   3.799   2.207   1.895
 2733SOL    HW1 2383   3.707   2.179   1.866
 2733SOL    HW2 2384   3.830   2.284   1.839
 2734SOL     OW 2385   3.796   2.028   2.180
 2734SOL    HW1 2386   3.779   2.111   2.126
 2734SOL    HW2 2387   3.886   1.991   2.158
 2743SOL     OW 2388   3.763   2.939   2.162
 2743SOL    HW1 2389   3.862   2.928   2.153
 2743SOL    HW2 2390   3.723   2.853   2.194
   4.43581   4.43581   4.43581
