mobley_2410897_GMX.gro created by acpype (v: 2023.10.27) on Tue May 19 12:37:10 2026
 2410
    1MOL     C1    1   2.134   2.228   2.113
    1MOL     C2    2   2.168   2.188   2.255
    1MOL     N1    3   2.311   2.161   2.270
    1MOL     H1    4   2.187   2.319   2.084
    1MOL     H2    5   2.160   2.149   2.042
    1MOL     H3    6   2.027   2.247   2.104
    1MOL     H4    7   2.112   2.098   2.283
    1MOL     H5    8   2.139   2.267   2.325
    1MOL     H6    9   2.361   2.207   2.194
    1MOL     H7   10   2.327   2.061   2.258
    6SOL     OW   11   1.555   1.511   0.703
    6SOL    HW1   12   1.498   1.495   0.784
    6SOL    HW2   13   1.496   1.521   0.623
   14SOL     OW   14   1.460   1.505   1.339
   14SOL    HW1   15   1.484   1.599   1.365
   14SOL    HW2   16   1.444   1.451   1.421
   18SOL     OW   17   1.127   1.341   1.690
   18SOL    HW1   18   1.174   1.341   1.778
   18SOL    HW2   19   1.079   1.254   1.679
   21SOL     OW   20   0.620   1.786   1.439
   21SOL    HW1   21   0.528   1.769   1.474
   21SOL    HW2   22   0.648   1.878   1.465
   31SOL     OW   23   1.293   1.228   1.423
   31SOL    HW1   24   1.330   1.155   1.365
   31SOL    HW2   25   1.345   1.233   1.508
   35SOL     OW   26   1.187   1.792   1.616
   35SOL    HW1   27   1.211   1.852   1.540
   35SOL    HW2   28   1.194   1.697   1.586
   37SOL     OW   29   1.466   1.417   0.953
   37SOL    HW1   30   1.407   1.423   1.033
   37SOL    HW2   31   1.451   1.329   0.907
   38SOL     OW   32   1.667   1.714   0.572
   38SOL    HW1   33   1.626   1.691   0.484
   38SOL    HW2   34   1.649   1.640   0.637
   50SOL     OW   35   1.719   0.585   1.831
   50SOL    HW1   36   1.693   0.674   1.795
   50SOL    HW2   37   1.717   0.517   1.758
   55SOL     OW   38   1.795   1.066   0.873
   55SOL    HW1   39   1.733   1.051   0.797
   55SOL    HW2   40   1.743   1.077   0.958
   56SOL     OW   41   1.227   1.550   1.506
   56SOL    HW1   42   1.233   1.473   1.570
   56SOL    HW2   43   1.175   1.524   1.426
   71SOL     OW   44   0.888   1.514   1.195
   71SOL    HW1   45   0.865   1.489   1.101
   71SOL    HW2   46   0.949   1.445   1.234
   95SOL     OW   47   1.754   1.223   1.588
   95SOL    HW1   48   1.845   1.184   1.575
   95SOL    HW2   49   1.762   1.319   1.612
   96SOL     OW   50   1.064   1.347   1.340
   96SOL    HW1   51   0.984   1.324   1.395
   96SOL    HW2   52   1.147   1.321   1.389
   97SOL     OW   53   1.592   1.629   1.625
   97SOL    HW1   54   1.619   1.663   1.535
   97SOL    HW2   55   1.671   1.591   1.671
   99SOL     OW   56   1.638   1.099   1.079
   99SOL    HW1   57   1.643   1.180   1.138
   99SOL    HW2   58   1.552   1.101   1.028
  101SOL     OW   59   0.980   1.116   1.719
  101SOL    HW1   60   0.881   1.122   1.729
  101SOL    HW2   61   1.003   1.036   1.663
  109SOL     OW   62   1.272   1.445   1.142
  109SOL    HW1   63   1.319   1.458   1.229
  109SOL    HW2   64   1.206   1.371   1.151
  113SOL     OW   65   1.587   0.779   1.670
  113SOL    HW1   66   1.495   0.817   1.665
  113SOL    HW2   67   1.647   0.826   1.605
  122SOL     OW   68   1.728   0.935   1.854
  122SOL    HW1   69   1.682   0.928   1.765
  122SOL    HW2   70   1.666   0.979   1.920
  126SOL     OW   71   0.980   1.573   1.700
  126SOL    HW1   72   0.960   1.617   1.612
  126SOL    HW2   73   1.019   1.482   1.684
  127SOL     OW   74   1.859   1.518   1.605
  127SOL    HW1   75   1.873   1.545   1.510
  127SOL    HW2   76   1.942   1.540   1.658
  142SOL     OW   77   1.369   0.950   1.660
  142SOL    HW1   78   1.408   1.039   1.680
  142SOL    HW2   79   1.379   0.930   1.563
  147SOL     OW   80   0.930   1.678   1.465
  147SOL    HW1   81   0.906   1.660   1.370
  147SOL    HW2   82   0.960   1.772   1.475
  150SOL     OW   83   1.347   1.059   1.234
  150SOL    HW1   84   1.371   0.996   1.160
  150SOL    HW2   85   1.257   1.099   1.216
  152SOL     OW   86   1.759   1.747   1.154
  152SOL    HW1   87   1.820   1.777   1.081
  152SOL    HW2   88   1.721   1.658   1.132
  153SOL     OW   89   1.252   1.731   1.128
  153SOL    HW1   90   1.336   1.736   1.074
  153SOL    HW2   91   1.229   1.635   1.146
  155SOL     OW   92   0.688   1.662   1.716
  155SOL    HW1   93   0.632   1.743   1.725
  155SOL    HW2   94   0.740   1.666   1.630
  163SOL     OW   95   1.650   1.720   1.394
  163SOL    HW1   96   1.703   1.730   1.310
  163SOL    HW2   97   1.623   1.810   1.428
  171SOL     OW   98   1.614   1.292   1.289
  171SOL    HW1   99   1.674   1.295   1.369
  171SOL    HW2  100   1.539   1.356   1.302
  180SOL     OW  101   1.440   0.856   1.398
  180SOL    HW1  102   1.383   0.908   1.335
  180SOL    HW2  103   1.536   0.868   1.374
  184SOL     OW  104   1.493   1.767   0.959
  184SOL    HW1  105   1.526   1.831   0.890
  184SOL    HW2  106   1.559   1.761   1.034
  186SOL     OW  107   1.450   1.220   1.633
  186SOL    HW1  108   1.441   1.210   1.732
  186SOL    HW2  109   1.546   1.213   1.607
  188SOL     OW  110   1.674   0.883   1.254
  188SOL    HW1  111   1.647   0.794   1.217
  188SOL    HW2  112   1.675   0.951   1.181
  192SOL     OW  113   1.730   0.934   1.517
  192SOL    HW1  114   1.768   1.025   1.532
  192SOL    HW2  115   1.722   0.917   1.418
  197SOL     OW  116   1.861   1.569   0.851
  197SOL    HW1  117   1.790   1.557   0.781
  197SOL    HW2  118   1.862   1.490   0.911
  203SOL     OW  119   1.705   1.487   1.104
  203SOL    HW1  120   1.612   1.462   1.077
  203SOL    HW2  121   1.731   1.437   1.186
  219SOL     OW  122   1.555   1.511   2.565
  219SOL    HW1  123   1.498   1.495   2.646
  219SOL    HW2  124   1.496   1.521   2.485
  221SOL     OW  125   1.755   0.607   2.093
  221SOL    HW1  126   1.743   0.594   1.994
  221SOL    HW2  127   1.725   0.526   2.142
  227SOL     OW  128   1.460   1.505   3.201
  227SOL    HW1  129   1.484   1.599   3.227
  227SOL    HW2  130   1.444   1.451   3.283
  238SOL     OW  131   1.842   1.767   2.221
  238SOL    HW1  132   1.896   1.738   2.301
  238SOL    HW2  133   1.872   1.857   2.192
  240SOL     OW  134   1.689   0.922   2.474
  240SOL    HW1  135   1.784   0.893   2.482
  240SOL    HW2  136   1.681   0.987   2.399
  241SOL     OW  137   1.641   1.108   2.294
  241SOL    HW1  138   1.727   1.110   2.242
  241SOL    HW2  139   1.655   1.155   2.382
  244SOL     OW  140   1.293   1.228   3.285
  244SOL    HW1  141   1.330   1.155   3.227
  244SOL    HW2  142   1.345   1.233   3.370
  247SOL     OW  143   1.525   0.999   2.052
  247SOL    HW1  144   1.462   0.923   2.065
  247SOL    HW2  145   1.573   1.017   2.138
  248SOL     OW  146   1.187   1.792   3.478
  248SOL    HW1  147   1.211   1.852   3.402
  248SOL    HW2  148   1.194   1.697   3.448
  250SOL     OW  149   1.466   1.417   2.815
  250SOL    HW1  150   1.407   1.423   2.895
  250SOL    HW2  151   1.451   1.329   2.769
  251SOL     OW  152   1.667   1.714   2.434
  251SOL    HW1  153   1.626   1.691   2.346
  251SOL    HW2  154   1.649   1.640   2.499
  254SOL     OW  155   1.576   1.662   2.169
  254SOL    HW1  156   1.665   1.708   2.172
  254SOL    HW2  157   1.555   1.638   2.074
  264SOL     OW  158   1.362   1.144   2.407
  264SOL    HW1  159   1.445   1.115   2.359
  264SOL    HW2  160   1.313   1.211   2.351
  266SOL     OW  161   1.008   1.456   2.339
  266SOL    HW1  162   0.962   1.528   2.287
  266SOL    HW2  163   1.004   1.476   2.437
  268SOL     OW  164   1.795   1.066   2.735
  268SOL    HW1  165   1.733   1.051   2.659
  268SOL    HW2  166   1.743   1.077   2.820
  269SOL     OW  167   1.227   1.550   3.368
  269SOL    HW1  168   1.233   1.473   3.432
  269SOL    HW2  169   1.175   1.524   3.288
  271SOL     OW  170   1.458   0.735   2.590
  271SOL    HW1  171   1.453   0.670   2.665
  271SOL    HW2  172   1.538   0.794   2.603
  273SOL     OW  173   1.111   1.776   2.099
  273SOL    HW1  174   1.051   1.714   2.149
  273SOL    HW2  175   1.142   1.732   2.014
  275SOL     OW  176   1.632   1.377   1.943
  275SOL    HW1  177   1.600   1.471   1.933
  275SOL    HW2  178   1.556   1.314   1.931
  276SOL     OW  179   0.464   1.743   2.185
  276SOL    HW1  180   0.497   1.782   2.271
  276SOL    HW2  181   0.540   1.736   2.120
  279SOL     OW  182   0.940   1.698   2.766
  279SOL    HW1  183   1.020   1.641   2.787
  279SOL    HW2  184   0.891   1.658   2.689
  284SOL     OW  185   0.888   1.514   3.057
  284SOL    HW1  186   0.865   1.489   2.963
  284SOL    HW2  187   0.949   1.445   3.096
  286SOL     OW  188   0.803   1.402   2.786
  286SOL    HW1  189   0.893   1.416   2.744
  286SOL    HW2  190   0.732   1.404   2.715
  289SOL     OW  191   1.434   1.188   1.903
  289SOL    HW1  192   1.466   1.112   1.960
  289SOL    HW2  193   1.342   1.215   1.933
  293SOL     OW  194   1.227   1.570   2.655
  293SOL    HW1  195   1.248   1.644   2.590
  293SOL    HW2  196   1.295   1.570   2.728
  295SOL     OW  197   1.271   1.797   2.453
  295SOL    HW1  198   1.315   1.861   2.389
  295SOL    HW2  199   1.221   1.849   2.523
  301SOL     OW  200   1.429   1.173   2.729
  301SOL    HW1  201   1.374   1.089   2.722
  301SOL    HW2  202   1.455   1.202   2.637
  303SOL     OW  203   1.857   0.833   2.239
  303SOL    HW1  204   1.899   0.769   2.303
  303SOL    HW2  205   1.819   0.782   2.161
  305SOL     OW  206   1.664   1.280   2.519
  305SOL    HW1  207   1.763   1.288   2.533
  305SOL    HW2  208   1.619   1.364   2.550
  308SOL     OW  209   1.754   1.223   3.450
  308SOL    HW1  210   1.845   1.184   3.437
  308SOL    HW2  211   1.762   1.319   3.474
  309SOL     OW  212   1.064   1.347   3.202
  309SOL    HW1  213   0.984   1.324   3.257
  309SOL    HW2  214   1.147   1.321   3.251
  310SOL     OW  215   1.592   1.629   3.487
  310SOL    HW1  216   1.619   1.663   3.397
  310SOL    HW2  217   1.671   1.591   3.533
  311SOL     OW  218   1.111   1.195   2.962
  311SOL    HW1  219   1.071   1.239   3.043
  311SOL    HW2  220   1.070   1.232   2.879
  312SOL     OW  221   1.638   1.099   2.941
  312SOL    HW1  222   1.643   1.180   3.000
  312SOL    HW2  223   1.552   1.101   2.890
  321SOL     OW  224   1.252   1.348   2.250
  321SOL    HW1  225   1.302   1.425   2.290
  321SOL    HW2  226   1.157   1.350   2.282
  322SOL     OW  227   1.272   1.445   3.004
  322SOL    HW1  228   1.319   1.458   3.091
  322SOL    HW2  229   1.206   1.371   3.013
  323SOL     OW  230   1.582   0.639   2.334
  323SOL    HW1  231   1.551   0.700   2.407
  323SOL    HW2  232   1.632   0.691   2.265
  330SOL     OW  233   1.360   0.862   2.907
  330SOL    HW1  234   1.285   0.862   2.841
  330SOL    HW2  235   1.397   0.770   2.916
  340SOL     OW  236   1.859   1.518   3.467
  340SOL    HW1  237   1.873   1.545   3.372
  340SOL    HW2  238   1.942   1.540   3.520
  343SOL     OW  239   1.303   0.838   1.904
  343SOL    HW1  240   1.337   0.745   1.919
  343SOL    HW2  241   1.321   0.865   1.809
  344SOL     OW  242   1.068   1.333   2.711
  344SOL    HW1  243   1.075   1.249   2.656
  344SOL    HW2  244   1.130   1.402   2.675
  360SOL     OW  245   0.930   1.678   3.327
  360SOL    HW1  246   0.906   1.660   3.232
  360SOL    HW2  247   0.960   1.772   3.337
  363SOL     OW  248   1.347   1.059   3.096
  363SOL    HW1  249   1.371   0.996   3.022
  363SOL    HW2  250   1.257   1.099   3.078
  364SOL     OW  251   1.302   0.855   2.171
  364SOL    HW1  252   1.216   0.824   2.213
  364SOL    HW2  253   1.298   0.841   2.072
  365SOL     OW  254   1.759   1.747   3.016
  365SOL    HW1  255   1.820   1.777   2.943
  365SOL    HW2  256   1.721   1.658   2.994
  366SOL     OW  257   1.252   1.731   2.990
  366SOL    HW1  258   1.336   1.736   2.936
  366SOL    HW2  259   1.229   1.635   3.008
  370SOL     OW  260   1.388   1.573   2.339
  370SOL    HW1  261   1.455   1.585   2.265
  370SOL    HW2  262   1.348   1.662   2.362
  372SOL     OW  263   1.280   0.927   2.534
  372SOL    HW1  264   1.340   0.846   2.536
  372SOL    HW2  265   1.320   0.996   2.474
  374SOL     OW  266   0.672   1.616   2.016
  374SOL    HW1  267   0.681   1.626   1.917
  374SOL    HW2  268   0.632   1.527   2.037
  375SOL     OW  269   1.650   1.720   3.256
  375SOL    HW1  270   1.703   1.730   3.172
  375SOL    HW2  271   1.623   1.810   3.290
  378SOL     OW  272   1.194   1.612   1.893
  378SOL    HW1  273   1.200   1.519   1.930
  378SOL    HW2  274   1.135   1.612   1.813
  381SOL     OW  275   1.504   1.607   1.906
  381SOL    HW1  276   1.412   1.644   1.913
  381SOL    HW2  277   1.542   1.627   1.816
  383SOL     OW  278   1.614   1.292   3.151
  383SOL    HW1  279   1.674   1.295   3.231
  383SOL    HW2  280   1.539   1.356   3.164
  384SOL     OW  281   1.039   1.098   2.558
  384SOL    HW1  282   0.969   1.051   2.612
  384SOL    HW2  283   1.098   1.030   2.515
  386SOL     OW  284   0.590   1.487   2.353
  386SOL    HW1  285   0.632   1.429   2.283
  386SOL    HW2  286   0.546   1.566   2.309
  394SOL     OW  287   1.183   1.335   1.981
  394SOL    HW1  288   1.084   1.324   1.983
  394SOL    HW2  289   1.217   1.350   2.074
  396SOL     OW  290   1.493   1.767   2.821
  396SOL    HW1  291   1.526   1.831   2.752
  396SOL    HW2  292   1.559   1.761   2.896
  398SOL     OW  293   1.450   1.220   3.495
  398SOL    HW1  294   1.441   1.210   3.594
  398SOL    HW2  295   1.546   1.213   3.469
  400SOL     OW  296   1.674   0.883   3.116
  400SOL    HW1  297   1.647   0.794   3.079
  400SOL    HW2  298   1.675   0.951   3.043
  404SOL     OW  299   1.730   0.934   3.379
  404SOL    HW1  300   1.768   1.025   3.394
  404SOL    HW2  301   1.722   0.917   3.280
  405SOL     OW  302   0.859   1.374   1.878
  405SOL    HW1  303   0.813   1.389   1.966
  405SOL    HW2  304   0.903   1.459   1.848
  406SOL     OW  305   0.661   1.790   2.815
  406SOL    HW1  306   0.615   1.878   2.802
  406SOL    HW2  307   0.760   1.802   2.808
  408SOL     OW  308   1.083   0.984   1.949
  408SOL    HW1  309   1.060   1.037   1.867
  408SOL    HW2  310   1.164   0.928   1.930
  409SOL     OW  311   1.861   1.569   2.713
  409SOL    HW1  312   1.790   1.557   2.643
  409SOL    HW2  313   1.862   1.490   2.773
  415SOL     OW  314   1.705   1.487   2.966
  415SOL    HW1  315   1.612   1.462   2.939
  415SOL    HW2  316   1.731   1.437   3.048
  417SOL     OW  317   0.812   1.586   2.549
  417SOL    HW1  318   0.844   1.596   2.455
  417SOL    HW2  319   0.733   1.524   2.551
  420SOL     OW  320   0.770   1.330   2.163
  420SOL    HW1  321   0.724   1.243   2.180
  420SOL    HW2  322   0.861   1.327   2.204
  426SOL     OW  323   0.875   1.646   2.199
  426SOL    HW1  324   0.798   1.611   2.145
  426SOL    HW2  325   0.843   1.717   2.261
  505SOL     OW  326   0.850   2.660   1.823
  505SOL    HW1  327   0.846   2.736   1.888
  505SOL    HW2  328   0.872   2.696   1.732
  507SOL     OW  329   0.686   3.023   1.803
  507SOL    HW1  330   0.746   3.102   1.817
  507SOL    HW2  331   0.600   3.054   1.762
  509SOL     OW  332   1.460   3.367   1.339
  509SOL    HW1  333   1.484   3.461   1.365
  509SOL    HW2  334   1.444   3.313   1.421
  511SOL     OW  335   1.603   2.309   0.737
  511SOL    HW1  336   1.529   2.355   0.687
  511SOL    HW2  337   1.654   2.377   0.790
  513SOL     OW  338   1.127   3.203   1.690
  513SOL    HW1  339   1.174   3.203   1.778
  513SOL    HW2  340   1.079   3.116   1.679
  518SOL     OW  341   1.594   1.976   1.480
  518SOL    HW1  342   1.576   2.043   1.408
  518SOL    HW2  343   1.591   2.022   1.569
  522SOL     OW  344   1.689   2.784   0.612
  522SOL    HW1  345   1.784   2.755   0.620
  522SOL    HW2  346   1.681   2.849   0.537
  526SOL     OW  347   1.293   3.090   1.423
  526SOL    HW1  348   1.330   3.017   1.365
  526SOL    HW2  349   1.345   3.095   1.508
  535SOL     OW  350   1.281   2.207   0.944
  535SOL    HW1  351   1.195   2.157   0.931
  535SOL    HW2  352   1.343   2.153   1.000
  537SOL     OW  353   0.807   2.467   1.465
  537SOL    HW1  354   0.760   2.464   1.554
  537SOL    HW2  355   0.756   2.412   1.399
  538SOL     OW  356   1.394   2.331   1.674
  538SOL    HW1  357   1.374   2.374   1.762
  538SOL    HW2  358   1.472   2.269   1.683
  539SOL     OW  359   0.973   2.752   1.572
  539SOL    HW1  360   1.019   2.668   1.543
  539SOL    HW2  361   0.917   2.786   1.497
  540SOL     OW  362   0.991   2.272   1.242
  540SOL    HW1  363   0.914   2.306   1.296
  540SOL    HW2  364   0.957   2.221   1.163
  545SOL     OW  365   1.719   2.447   1.831
  545SOL    HW1  366   1.693   2.536   1.795
  545SOL    HW2  367   1.717   2.379   1.758
  550SOL     OW  368   1.795   2.928   0.873
  550SOL    HW1  369   1.733   2.913   0.797
  550SOL    HW2  370   1.743   2.939   0.958
  551SOL     OW  371   1.227   3.412   1.506
  551SOL    HW1  372   1.233   3.335   1.570
  551SOL    HW2  373   1.175   3.386   1.426
  553SOL     OW  374   1.458   2.597   0.728
  553SOL    HW1  375   1.453   2.532   0.803
  553SOL    HW2  376   1.538   2.656   0.741
  563SOL     OW  377   1.547   2.084   1.729
  563SOL    HW1  378   1.542   2.121   1.821
  563SOL    HW2  379   1.475   2.015   1.717
  565SOL     OW  380   0.781   2.126   1.749
  565SOL    HW1  381   0.848   2.065   1.792
  565SOL    HW2  382   0.708   2.145   1.814
  567SOL     OW  383   1.351   2.452   1.433
  567SOL    HW1  384   1.379   2.409   1.518
  567SOL    HW2  385   1.376   2.548   1.434
  574SOL     OW  386   1.076   2.545   1.464
  574SOL    HW1  387   0.996   2.484   1.467
  574SOL    HW2  388   1.157   2.492   1.440
  583SOL     OW  389   1.429   3.035   0.867
  583SOL    HW1  390   1.374   2.951   0.860
  583SOL    HW2  391   1.455   3.064   0.775
  584SOL     OW  392   1.466   2.452   0.992
  584SOL    HW1  393   1.436   2.357   0.999
  584SOL    HW2  394   1.539   2.468   1.058
  590SOL     OW  395   1.754   3.085   1.588
  590SOL    HW1  396   1.845   3.046   1.575
  590SOL    HW2  397   1.762   3.181   1.612
  591SOL     OW  398   1.064   3.209   1.340
  591SOL    HW1  399   0.984   3.186   1.395
  591SOL    HW2  400   1.147   3.183   1.389
  592SOL     OW  401   1.592   3.491   1.625
  592SOL    HW1  402   1.619   3.525   1.535
  592SOL    HW2  403   1.671   3.453   1.671
  593SOL     OW  404   1.111   3.057   1.100
  593SOL    HW1  405   1.071   3.101   1.181
  593SOL    HW2  406   1.070   3.094   1.017
  594SOL     OW  407   1.638   2.961   1.079
  594SOL    HW1  408   1.643   3.042   1.138
  594SOL    HW2  409   1.552   2.963   1.028
  595SOL     OW  410   0.915   1.951   1.402
  595SOL    HW1  411   0.940   1.931   1.307
  595SOL    HW2  412   0.987   2.007   1.444
  596SOL     OW  413   0.980   2.978   1.719
  596SOL    HW1  414   0.881   2.984   1.729
  596SOL    HW2  415   1.003   2.898   1.663
  599SOL     OW  416   1.274   2.248   1.262
  599SOL    HW1  417   1.295   2.322   1.326
  599SOL    HW2  418   1.185   2.265   1.219
  604SOL     OW  419   1.272   3.307   1.142
  604SOL    HW1  420   1.319   3.320   1.229
  604SOL    HW2  421   1.206   3.233   1.151
  608SOL     OW  422   1.587   2.641   1.670
  608SOL    HW1  423   1.495   2.679   1.665
  608SOL    HW2  424   1.647   2.688   1.605
  609SOL     OW  425   1.013   1.967   1.770
  609SOL    HW1  426   1.019   2.052   1.718
  609SOL    HW2  427   1.045   1.891   1.713
  610SOL     OW  428   0.504   1.912   1.740
  610SOL    HW1  429   0.462   1.855   1.670
  610SOL    HW2  430   0.438   1.981   1.772
  612SOL     OW  431   1.360   2.724   1.045
  612SOL    HW1  432   1.285   2.724   0.979
  612SOL    HW2  433   1.397   2.632   1.054
  617SOL     OW  434   1.728   2.797   1.854
  617SOL    HW1  435   1.682   2.790   1.765
  617SOL    HW2  436   1.666   2.841   1.920
  620SOL     OW  437   1.023   2.628   0.966
  620SOL    HW1  438   1.038   2.649   1.062
  620SOL    HW2  439   0.993   2.533   0.957
  622SOL     OW  440   1.859   3.380   1.605
  622SOL    HW1  441   1.873   3.407   1.510
  622SOL    HW2  442   1.942   3.402   1.658
  629SOL     OW  443   1.138   2.242   1.678
  629SOL    HW1  444   1.093   2.305   1.742
  629SOL    HW2  445   1.231   2.273   1.661
  630SOL     OW  446   1.160   2.069   1.477
  630SOL    HW1  447   1.160   2.133   1.554
  630SOL    HW2  448   1.188   2.117   1.394
  634SOL     OW  449   1.002   2.658   1.238
  634SOL    HW1  450   1.043   2.626   1.324
  634SOL    HW2  451   0.906   2.631   1.235
  637SOL     OW  452   1.369   2.812   1.660
  637SOL    HW1  453   1.408   2.901   1.680
  637SOL    HW2  454   1.379   2.792   1.563
  639SOL     OW  455   1.657   2.466   1.206
  639SOL    HW1  456   1.619   2.397   1.268
  639SOL    HW2  457   1.739   2.430   1.162
  641SOL     OW  458   0.671   2.326   1.269
  641SOL    HW1  459   0.637   2.237   1.239
  641SOL    HW2  460   0.697   2.380   1.189
  645SOL     OW  461   1.347   2.921   1.234
  645SOL    HW1  462   1.371   2.858   1.160
  645SOL    HW2  463   1.257   2.961   1.216
  652SOL     OW  464   1.726   1.997   0.523
  652SOL    HW1  465   1.799   1.980   0.456
  652SOL    HW2  466   1.695   1.910   0.561
  658SOL     OW  467   1.650   3.582   1.394
  658SOL    HW1  468   1.703   3.592   1.310
  658SOL    HW2  469   1.623   3.672   1.428
  659SOL     OW  470   1.841   2.037   0.963
  659SOL    HW1  471   1.880   1.952   0.927
  659SOL    HW2  472   1.743   2.039   0.944
  662SOL     OW  473   0.822   2.864   1.372
  662SOL    HW1  474   0.862   2.863   1.280
  662SOL    HW2  475   0.832   2.956   1.412
  666SOL     OW  476   1.614   3.154   1.289
  666SOL    HW1  477   1.674   3.157   1.369
  666SOL    HW2  478   1.539   3.218   1.302
  668SOL     OW  479   1.014   2.098   0.971
  668SOL    HW1  480   1.006   2.062   0.878
  668SOL    HW2  481   1.012   2.022   1.036
  670SOL     OW  482   1.709   2.247   1.381
  670SOL    HW1  483   1.782   2.316   1.385
  670SOL    HW2  484   1.737   2.172   1.322
  673SOL     OW  485   0.672   2.065   1.489
  673SOL    HW1  486   0.762   2.049   1.449
  673SOL    HW2  487   0.680   2.070   1.588
  675SOL     OW  488   1.440   2.718   1.398
  675SOL    HW1  489   1.383   2.770   1.335
  675SOL    HW2  490   1.536   2.730   1.374
  680SOL     OW  491   0.716   2.427   1.708
  680SOL    HW1  492   0.735   2.492   1.782
  680SOL    HW2  493   0.776   2.347   1.717
  681SOL     OW  494   1.450   3.082   1.633
  681SOL    HW1  495   1.441   3.072   1.732
  681SOL    HW2  496   1.546   3.075   1.607
  683SOL     OW  497   1.674   2.745   1.254
  683SOL    HW1  498   1.647   2.656   1.217
  683SOL    HW2  499   1.675   2.813   1.181
  686SOL     OW  500   1.777   2.204   1.642
  686SOL    HW1  501   1.760   2.235   1.548
  686SOL    HW2  502   1.693   2.167   1.680
  687SOL     OW  503   1.730   2.796   1.517
  687SOL    HW1  504   1.768   2.887   1.532
  687SOL    HW2  505   1.722   2.779   1.418
  696SOL     OW  506   1.824   2.054   1.227
  696SOL    HW1  507   1.820   1.964   1.271
  696SOL    HW2  508   1.827   2.043   1.128
  698SOL     OW  509   1.705   3.349   1.104
  698SOL    HW1  510   1.612   3.324   1.077
  698SOL    HW2  511   1.731   3.299   1.186
  701SOL     OW  512   1.424   2.076   1.112
  701SOL    HW1  513   1.476   2.011   1.167
  701SOL    HW2  514   1.375   2.139   1.173
  702SOL     OW  515   1.001   1.896   1.154
  702SOL    HW1  516   0.938   1.824   1.123
  702SOL    HW2  517   1.094   1.860   1.154
  706SOL     OW  518   1.300   2.315   0.691
  706SOL    HW1  519   1.241   2.395   0.695
  706SOL    HW2  520   1.315   2.280   0.784
  707SOL     OW  521   1.593   2.083   0.882
  707SOL    HW1  522   1.509   2.082   0.936
  707SOL    HW2  523   1.595   2.166   0.826
  714SOL     OW  524   1.555   3.373   2.565
  714SOL    HW1  525   1.498   3.357   2.646
  714SOL    HW2  526   1.496   3.383   2.485
  715SOL     OW  527   1.135   2.565   2.579
  715SOL    HW1  528   1.192   2.643   2.554
  715SOL    HW2  529   1.075   2.591   2.655
  716SOL     OW  530   1.755   2.469   2.093
  716SOL    HW1  531   1.743   2.456   1.994
  716SOL    HW2  532   1.725   2.388   2.142
  717SOL     OW  533   0.768   3.006   2.885
  717SOL    HW1  534   0.690   3.023   2.945
  717SOL    HW2  535   0.802   3.093   2.849
  719SOL     OW  536   0.685   2.874   2.527
  719SOL    HW1  537   0.754   2.858   2.597
  719SOL    HW2  538   0.612   2.931   2.565
  722SOL     OW  539   1.460   3.367   3.201
  722SOL    HW1  540   1.484   3.461   3.227
  722SOL    HW2  541   1.444   3.313   3.283
  724SOL     OW  542   1.603   2.309   2.599
  724SOL    HW1  543   1.529   2.355   2.549
  724SOL    HW2  544   1.654   2.377   2.652
  730SOL     OW  545   0.606   2.826   1.985
  730SOL    HW1  546   0.613   2.910   1.931
  730SOL    HW2  547   0.652   2.839   2.073
  731SOL     OW  548   1.594   1.976   3.342
  731SOL    HW1  549   1.576   2.043   3.270
  731SOL    HW2  550   1.591   2.022   3.431
  733SOL     OW  551   1.842   3.629   2.221
  733SOL    HW1  552   1.896   3.600   2.301
  733SOL    HW2  553   1.872   3.719   2.192
  735SOL     OW  554   1.689   2.784   2.474
  735SOL    HW1  555   1.784   2.755   2.482
  735SOL    HW2  556   1.681   2.849   2.399
  736SOL     OW  557   1.641   2.970   2.294
  736SOL    HW1  558   1.727   2.972   2.242
  736SOL    HW2  559   1.655   3.017   2.382
  739SOL     OW  560   1.293   3.090   3.285
  739SOL    HW1  561   1.330   3.017   3.227
  739SOL    HW2  562   1.345   3.095   3.370
  740SOL     OW  563   0.809   1.866   2.364
  740SOL    HW1  564   0.849   1.957   2.355
  740SOL    HW2  565   0.709   1.874   2.370
  742SOL     OW  566   1.525   2.861   2.052
  742SOL    HW1  567   1.462   2.785   2.065
  742SOL    HW2  568   1.573   2.879   2.138
  745SOL     OW  569   1.466   3.279   2.815
  745SOL    HW1  570   1.407   3.285   2.895
  745SOL    HW2  571   1.451   3.191   2.769
  746SOL     OW  572   1.667   3.576   2.434
  746SOL    HW1  573   1.626   3.553   2.346
  746SOL    HW2  574   1.649   3.502   2.499
  747SOL     OW  575   0.598   2.591   2.132
  747SOL    HW1  576   0.622   2.660   2.064
  747SOL    HW2  577   0.520   2.624   2.186
  748SOL     OW  578   1.281   2.207   2.806
  748SOL    HW1  579   1.195   2.157   2.793
  748SOL    HW2  580   1.343   2.153   2.862
  749SOL     OW  581   1.576   3.524   2.169
  749SOL    HW1  582   1.665   3.570   2.172
  749SOL    HW2  583   1.555   3.500   2.074
  751SOL     OW  584   1.394   2.331   3.536
  751SOL    HW1  585   1.374   2.374   3.624
  751SOL    HW2  586   1.472   2.269   3.545
  753SOL     OW  587   0.991   2.272   3.104
  753SOL    HW1  588   0.914   2.306   3.158
  753SOL    HW2  589   0.957   2.221   3.025
  754SOL     OW  590   1.041   2.563   2.291
  754SOL    HW1  591   1.067   2.559   2.387
  754SOL    HW2  592   0.956   2.512   2.277
  757SOL     OW  593   0.865   2.210   2.057
  757SOL    HW1  594   0.924   2.273   2.008
  757SOL    HW2  595   0.884   2.116   2.028
  758SOL     OW  596   1.719   2.447   3.693
  758SOL    HW1  597   1.693   2.536   3.657
  758SOL    HW2  598   1.717   2.379   3.620
  759SOL     OW  599   1.362   3.006   2.407
  759SOL    HW1  600   1.445   2.977   2.359
  759SOL    HW2  601   1.313   3.073   2.351
  760SOL     OW  602   0.550   2.058   2.747
  760SOL    HW1  603   0.545   2.053   2.847
  760SOL    HW2  604   0.552   2.154   2.718
  761SOL     OW  605   1.008   3.318   2.339
  761SOL    HW1  606   0.962   3.390   2.287
  761SOL    HW2  607   1.004   3.338   2.437
  763SOL     OW  608   1.795   2.928   2.735
  763SOL    HW1  609   1.733   2.913   2.659
  763SOL    HW2  610   1.743   2.939   2.820
  766SOL     OW  611   1.458   2.597   2.590
  766SOL    HW1  612   1.453   2.532   2.665
  766SOL    HW2  613   1.538   2.656   2.603
  770SOL     OW  614   1.632   3.239   1.943
  770SOL    HW1  615   1.600   3.333   1.933
  770SOL    HW2  616   1.556   3.176   1.931
  772SOL     OW  617   1.400   1.969   2.288
  772SOL    HW1  618   1.376   1.932   2.198
  772SOL    HW2  619   1.499   1.985   2.292
  776SOL     OW  620   1.547   2.084   3.591
  776SOL    HW1  621   1.542   2.121   3.683
  776SOL    HW2  622   1.475   2.015   3.579
  777SOL     OW  623   0.614   1.984   1.979
  777SOL    HW1  624   0.712   1.962   1.986
  777SOL    HW2  625   0.583   1.967   1.886
  780SOL     OW  626   1.351   2.452   3.295
  780SOL    HW1  627   1.379   2.409   3.380
  780SOL    HW2  628   1.376   2.548   3.296
  782SOL     OW  629   0.922   2.365   2.761
  782SOL    HW1  630   0.897   2.356   2.665
  782SOL    HW2  631   0.970   2.283   2.792
  783SOL     OW  632   0.539   1.926   2.374
  783SOL    HW1  633   0.458   1.927   2.432
  783SOL    HW2  634   0.542   2.009   2.319
  784SOL     OW  635   1.434   3.050   1.903
  784SOL    HW1  636   1.466   2.974   1.960
  784SOL    HW2  637   1.342   3.077   1.933
  786SOL     OW  638   0.935   2.098   2.342
  786SOL    HW1  639   0.887   2.139   2.264
  786SOL    HW2  640   1.034   2.096   2.323
  787SOL     OW  641   1.076   2.545   3.326
  787SOL    HW1  642   0.996   2.484   3.329
  787SOL    HW2  643   1.157   2.492   3.302
  788SOL     OW  644   1.227   3.432   2.655
  788SOL    HW1  645   1.248   3.506   2.590
  788SOL    HW2  646   1.295   3.432   2.728
  790SOL     OW  647   1.271   3.659   2.453
  790SOL    HW1  648   1.315   3.723   2.389
  790SOL    HW2  649   1.221   3.711   2.523
  791SOL     OW  650   1.032   2.411   1.878
  791SOL    HW1  651   0.991   2.493   1.839
  791SOL    HW2  652   1.096   2.437   1.951
  794SOL     OW  653   0.866   2.316   2.504
  794SOL    HW1  654   0.834   2.388   2.442
  794SOL    HW2  655   0.890   2.235   2.451
  795SOL     OW  656   1.017   1.901   2.615
  795SOL    HW1  657   0.945   1.906   2.546
  795SOL    HW2  658   0.993   1.832   2.684
  796SOL     OW  659   1.429   3.035   2.729
  796SOL    HW1  660   1.374   2.951   2.722
  796SOL    HW2  661   1.455   3.064   2.637
  797SOL     OW  662   1.466   2.452   2.854
  797SOL    HW1  663   1.436   2.357   2.861
  797SOL    HW2  664   1.539   2.468   2.920
  798SOL     OW  665   1.857   2.695   2.239
  798SOL    HW1  666   1.899   2.631   2.303
  798SOL    HW2  667   1.819   2.644   2.161
  800SOL     OW  668   1.664   3.142   2.519
  800SOL    HW1  669   1.763   3.150   2.533
  800SOL    HW2  670   1.619   3.226   2.550
  801SOL     OW  671   1.390   2.437   1.940
  801SOL    HW1  672   1.336   2.416   2.021
  801SOL    HW2  673   1.481   2.396   1.949
  802SOL     OW  674   0.527   2.118   2.190
  802SOL    HW1  675   0.554   2.059   2.115
  802SOL    HW2  676   0.527   2.213   2.159
  803SOL     OW  677   1.754   3.085   3.450
  803SOL    HW1  678   1.845   3.046   3.437
  803SOL    HW2  679   1.762   3.181   3.474
  806SOL     OW  680   1.111   3.057   2.962
  806SOL    HW1  681   1.071   3.101   3.043
  806SOL    HW2  682   1.070   3.094   2.879
  807SOL     OW  683   1.638   2.961   2.941
  807SOL    HW1  684   1.643   3.042   3.000
  807SOL    HW2  685   1.552   2.963   2.890
  808SOL     OW  686   0.915   1.951   3.264
  808SOL    HW1  687   0.940   1.931   3.169
  808SOL    HW2  688   0.987   2.007   3.306
  810SOL     OW  689   0.705   2.912   2.230
  810SOL    HW1  690   0.691   2.919   2.329
  810SOL    HW2  691   0.789   2.861   2.212
  812SOL     OW  692   1.274   2.248   3.124
  812SOL    HW1  693   1.295   2.322   3.188
  812SOL    HW2  694   1.185   2.265   3.081
  815SOL     OW  695   0.566   2.399   2.727
  815SOL    HW1  696   0.578   2.465   2.653
  815SOL    HW2  697   0.612   2.433   2.810
  816SOL     OW  698   1.252   3.210   2.250
  816SOL    HW1  699   1.302   3.287   2.290
  816SOL    HW2  700   1.157   3.212   2.282
  817SOL     OW  701   1.272   3.307   3.004
  817SOL    HW1  702   1.319   3.320   3.091
  817SOL    HW2  703   1.206   3.233   3.013
  818SOL     OW  704   1.582   2.501   2.334
  818SOL    HW1  705   1.551   2.562   2.407
  818SOL    HW2  706   1.632   2.553   2.265
  821SOL     OW  707   1.587   2.641   3.532
  821SOL    HW1  708   1.495   2.679   3.527
  821SOL    HW2  709   1.647   2.688   3.467
  825SOL     OW  710   1.360   2.724   2.907
  825SOL    HW1  711   1.285   2.724   2.841
  825SOL    HW2  712   1.397   2.632   2.916
  826SOL     OW  713   1.209   2.387   2.137
  826SOL    HW1  714   1.222   2.303   2.191
  826SOL    HW2  715   1.180   2.461   2.197
  829SOL     OW  716   0.732   2.496   2.926
  829SOL    HW1  717   0.791   2.470   2.850
  829SOL    HW2  718   0.704   2.592   2.915
  830SOL     OW  719   1.728   2.797   3.716
  830SOL    HW1  720   1.682   2.790   3.627
  830SOL    HW2  721   1.666   2.841   3.782
  832SOL     OW  722   1.622   2.229   2.236
  832SOL    HW1  723   1.624   2.153   2.300
  832SOL    HW2  724   1.574   2.306   2.276
  833SOL     OW  725   1.023   2.628   2.828
  833SOL    HW1  726   1.038   2.649   2.924
  833SOL    HW2  727   0.993   2.533   2.819
  835SOL     OW  728   1.859   3.380   3.467
  835SOL    HW1  729   1.873   3.407   3.372
  835SOL    HW2  730   1.942   3.402   3.520
  837SOL     OW  731   1.540   2.136   1.987
  837SOL    HW1  732   1.479   2.061   2.010
  837SOL    HW2  733   1.562   2.188   2.070
  838SOL     OW  734   1.303   2.700   1.904
  838SOL    HW1  735   1.337   2.607   1.919
  838SOL    HW2  736   1.321   2.727   1.809
  839SOL     OW  737   1.068   3.195   2.711
  839SOL    HW1  738   1.075   3.111   2.656
  839SOL    HW2  739   1.130   3.264   2.675
  842SOL     OW  740   1.138   2.242   3.540
  842SOL    HW1  741   1.093   2.305   3.604
  842SOL    HW2  742   1.231   2.273   3.523
  843SOL     OW  743   1.160   2.069   3.339
  843SOL    HW1  744   1.160   2.133   3.416
  843SOL    HW2  745   1.188   2.117   3.256
  847SOL     OW  746   1.002   2.658   3.100
  847SOL    HW1  747   1.043   2.626   3.186
  847SOL    HW2  748   0.906   2.631   3.097
  850SOL     OW  749   1.369   2.812   3.522
  850SOL    HW1  750   1.408   2.901   3.542
  850SOL    HW2  751   1.379   2.792   3.425
  851SOL     OW  752   0.815   2.434   2.187
  851SOL    HW1  753   0.822   2.345   2.141
  851SOL    HW2  754   0.721   2.468   2.179
  852SOL     OW  755   1.657   2.466   3.068
  852SOL    HW1  756   1.619   2.397   3.130
  852SOL    HW2  757   1.739   2.430   3.024
  854SOL     OW  758   0.671   2.326   3.131
  854SOL    HW1  759   0.637   2.237   3.101
  854SOL    HW2  760   0.697   2.380   3.051
  856SOL     OW  761   0.473   2.362   2.053
  856SOL    HW1  762   0.534   2.442   2.057
  856SOL    HW2  763   0.378   2.393   2.060
  858SOL     OW  764   1.347   2.921   3.096
  858SOL    HW1  765   1.371   2.858   3.022
  858SOL    HW2  766   1.257   2.961   3.078
  859SOL     OW  767   1.302   2.717   2.171
  859SOL    HW1  768   1.216   2.686   2.213
  859SOL    HW2  769   1.298   2.703   2.072
  860SOL     OW  770   1.759   3.609   3.016
  860SOL    HW1  771   1.820   3.639   2.943
  860SOL    HW2  772   1.721   3.520   2.994
  864SOL     OW  773   1.726   1.997   2.385
  864SOL    HW1  774   1.799   1.980   2.318
  864SOL    HW2  775   1.695   1.910   2.423
  865SOL     OW  776   1.388   3.435   2.339
  865SOL    HW1  777   1.455   3.447   2.265
  865SOL    HW2  778   1.348   3.524   2.362
  867SOL     OW  779   1.280   2.789   2.534
  867SOL    HW1  780   1.340   2.708   2.536
  867SOL    HW2  781   1.320   2.858   2.474
  871SOL     OW  782   1.841   2.037   2.825
  871SOL    HW1  783   1.880   1.952   2.789
  871SOL    HW2  784   1.743   2.039   2.806
  873SOL     OW  785   1.194   3.474   1.893
  873SOL    HW1  786   1.200   3.381   1.930
  873SOL    HW2  787   1.135   3.474   1.813
  875SOL     OW  788   0.916   2.772   2.153
  875SOL    HW1  789   0.979   2.810   2.085
  875SOL    HW2  790   0.956   2.689   2.192
  876SOL     OW  791   1.504   3.469   1.906
  876SOL    HW1  792   1.412   3.506   1.913
  876SOL    HW2  793   1.542   3.489   1.816
  878SOL     OW  794   1.614   3.154   3.151
  878SOL    HW1  795   1.674   3.157   3.231
  878SOL    HW2  796   1.539   3.218   3.164
  879SOL     OW  797   1.039   2.960   2.558
  879SOL    HW1  798   0.969   2.913   2.612
  879SOL    HW2  799   1.098   2.892   2.515
  880SOL     OW  800   1.014   2.098   2.833
  880SOL    HW1  801   1.006   2.062   2.740
  880SOL    HW2  802   1.012   2.022   2.898
  882SOL     OW  803   1.709   2.247   3.243
  882SOL    HW1  804   1.782   2.316   3.247
  882SOL    HW2  805   1.737   2.172   3.184
  887SOL     OW  806   1.440   2.718   3.260
  887SOL    HW1  807   1.383   2.770   3.197
  887SOL    HW2  808   1.536   2.730   3.236
  889SOL     OW  809   1.183   3.197   1.981
  889SOL    HW1  810   1.084   3.186   1.983
  889SOL    HW2  811   1.217   3.212   2.074
  891SOL     OW  812   1.493   3.629   2.821
  891SOL    HW1  813   1.526   3.693   2.752
  891SOL    HW2  814   1.559   3.623   2.896
  893SOL     OW  815   1.450   3.082   3.495
  893SOL    HW1  816   1.441   3.072   3.594
  893SOL    HW2  817   1.546   3.075   3.469
  895SOL     OW  818   1.674   2.745   3.116
  895SOL    HW1  819   1.647   2.656   3.079
  895SOL    HW2  820   1.675   2.813   3.043
  896SOL     OW  821   1.225   2.187   2.311
  896SOL    HW1  822   1.290   2.113   2.300
  896SOL    HW2  823   1.245   2.237   2.395
  897SOL     OW  824   0.594   2.607   2.514
  897SOL    HW1  825   0.644   2.692   2.495
  897SOL    HW2  826   0.506   2.609   2.466
  898SOL     OW  827   1.777   2.204   3.504
  898SOL    HW1  828   1.760   2.235   3.410
  898SOL    HW2  829   1.693   2.167   3.542
  899SOL     OW  830   1.730   2.796   3.379
  899SOL    HW1  831   1.768   2.887   3.394
  899SOL    HW2  832   1.722   2.779   3.280
  900SOL     OW  833   0.859   3.236   1.878
  900SOL    HW1  834   0.813   3.251   1.966
  900SOL    HW2  835   0.903   3.321   1.848
  902SOL     OW  836   0.859   2.818   2.723
  902SOL    HW1  837   0.913   2.749   2.771
  902SOL    HW2  838   0.827   2.887   2.789
  903SOL     OW  839   1.083   2.846   1.949
  903SOL    HW1  840   1.060   2.899   1.867
  903SOL    HW2  841   1.164   2.790   1.930
  904SOL     OW  842   1.861   3.431   2.713
  904SOL    HW1  843   1.790   3.419   2.643
  904SOL    HW2  844   1.862   3.352   2.773
  908SOL     OW  845   1.824   2.054   3.089
  908SOL    HW1  846   1.820   1.964   3.133
  908SOL    HW2  847   1.827   2.043   2.990
  909SOL     OW  848   0.428   2.286   2.382
  909SOL    HW1  849   0.458   2.214   2.320
  909SOL    HW2  850   0.389   2.246   2.465
  910SOL     OW  851   1.705   3.349   2.966
  910SOL    HW1  852   1.612   3.324   2.939
  910SOL    HW2  853   1.731   3.299   3.048
  913SOL     OW  854   1.424   2.076   2.974
  913SOL    HW1  855   1.476   2.011   3.029
  913SOL    HW2  856   1.375   2.139   3.035
  914SOL     OW  857   1.001   1.896   3.016
  914SOL    HW1  858   0.938   1.824   2.985
  914SOL    HW2  859   1.094   1.860   3.016
  915SOL     OW  860   0.770   3.192   2.163
  915SOL    HW1  861   0.724   3.105   2.180
  915SOL    HW2  862   0.861   3.189   2.204
  917SOL     OW  863   1.352   1.914   2.030
  917SOL    HW1  864   1.387   1.873   1.946
  917SOL    HW2  865   1.262   1.876   2.050
  918SOL     OW  866   1.300   2.315   2.553
  918SOL    HW1  867   1.241   2.395   2.557
  918SOL    HW2  868   1.315   2.280   2.646
  919SOL     OW  869   1.593   2.083   2.744
  919SOL    HW1  870   1.509   2.082   2.798
  919SOL    HW2  871   1.595   2.166   2.688
  965SOL     OW  872   1.540   2.136   3.849
  965SOL    HW1  873   1.479   2.061   3.872
  965SOL    HW2  874   1.562   2.188   3.932
 1123SOL     OW  875   1.726   3.859   2.385
 1123SOL    HW1  876   1.799   3.842   2.318
 1123SOL    HW2  877   1.695   3.772   2.423
 1169SOL     OW  878   2.431   1.275   1.165
 1169SOL    HW1  879   2.338   1.268   1.128
 1169SOL    HW2  880   2.442   1.364   1.209
 1173SOL     OW  881   2.630   1.144   1.023
 1173SOL    HW1  882   2.552   1.161   1.083
 1173SOL    HW2  883   2.664   1.231   0.987
 1174SOL     OW  884   2.712   0.798   1.823
 1174SOL    HW1  885   2.708   0.874   1.888
 1174SOL    HW2  886   2.734   0.834   1.732
 1176SOL     OW  887   2.548   1.161   1.803
 1176SOL    HW1  888   2.608   1.240   1.817
 1176SOL    HW2  889   2.462   1.192   1.762
 1177SOL     OW  890   2.197   1.435   1.061
 1177SOL    HW1  891   2.119   1.404   1.008
 1177SOL    HW2  892   2.255   1.493   1.004
 1178SOL     OW  893   3.322   1.505   1.339
 1178SOL    HW1  894   3.346   1.599   1.365
 1178SOL    HW2  895   3.306   1.451   1.421
 1181SOL     OW  896   2.093   1.713   0.483
 1181SOL    HW1  897   2.127   1.790   0.537
 1181SOL    HW2  898   2.137   1.713   0.393
 1182SOL     OW  899   2.989   1.341   1.690
 1182SOL    HW1  900   3.036   1.341   1.778
 1182SOL    HW2  901   2.941   1.254   1.679
 1184SOL     OW  902   2.102   1.091   0.886
 1184SOL    HW1  903   2.116   1.007   0.938
 1184SOL    HW2  904   2.047   1.155   0.941
 1185SOL     OW  905   2.482   1.786   1.439
 1185SOL    HW1  906   2.390   1.769   1.474
 1185SOL    HW2  907   2.510   1.878   1.465
 1193SOL     OW  908   1.975   0.737   1.597
 1193SOL    HW1  909   2.063   0.724   1.642
 1193SOL    HW2  910   1.962   0.834   1.575
 1194SOL     OW  911   2.475   1.365   0.726
 1194SOL    HW1  912   2.426   1.278   0.735
 1194SOL    HW2  913   2.452   1.408   0.639
 1195SOL     OW  914   3.155   1.228   1.423
 1195SOL    HW1  915   3.192   1.155   1.365
 1195SOL    HW2  916   3.207   1.233   1.508
 1197SOL     OW  917   2.059   0.976   1.264
 1197SOL    HW1  918   2.148   0.931   1.250
 1197SOL    HW2  919   1.986   0.911   1.245
 1199SOL     OW  920   3.049   1.792   1.616
 1199SOL    HW1  921   3.073   1.852   1.540
 1199SOL    HW2  922   3.056   1.697   1.586
 1208SOL     OW  923   2.835   0.890   1.572
 1208SOL    HW1  924   2.881   0.806   1.543
 1208SOL    HW2  925   2.779   0.924   1.497
 1212SOL     OW  926   1.992   1.821   1.571
 1212SOL    HW1  927   1.982   1.806   1.670
 1212SOL    HW2  928   1.906   1.857   1.535
 1218SOL     OW  929   2.213   1.801   0.853
 1218SOL    HW1  930   2.263   1.715   0.859
 1218SOL    HW2  931   2.278   1.878   0.850
 1220SOL     OW  932   3.089   1.550   1.506
 1220SOL    HW1  933   3.095   1.473   1.570
 1220SOL    HW2  934   3.037   1.524   1.426
 1223SOL     OW  935   2.323   1.266   1.727
 1223SOL    HW1  936   2.273   1.267   1.641
 1223SOL    HW2  937   2.260   1.248   1.803
 1229SOL     OW  938   2.111   1.785   1.241
 1229SOL    HW1  939   2.168   1.720   1.291
 1229SOL    HW2  940   2.095   1.752   1.148
 1230SOL     OW  941   2.802   1.698   0.904
 1230SOL    HW1  942   2.882   1.641   0.925
 1230SOL    HW2  943   2.753   1.658   0.827
 1235SOL     OW  944   2.750   1.514   1.195
 1235SOL    HW1  945   2.727   1.489   1.101
 1235SOL    HW2  946   2.811   1.445   1.234
 1237SOL     OW  947   2.665   1.402   0.924
 1237SOL    HW1  948   2.755   1.416   0.882
 1237SOL    HW2  949   2.594   1.404   0.853
 1244SOL     OW  950   3.089   1.570   0.793
 1244SOL    HW1  951   3.110   1.644   0.728
 1244SOL    HW2  952   3.157   1.570   0.866
 1245SOL     OW  953   2.321   1.152   0.741
 1245SOL    HW1  954   2.250   1.125   0.806
 1245SOL    HW2  955   2.295   1.124   0.648
 1260SOL     OW  956   2.926   1.347   1.340
 1260SOL    HW1  957   2.846   1.324   1.395
 1260SOL    HW2  958   3.009   1.321   1.389
 1261SOL     OW  959   3.454   1.629   1.625
 1261SOL    HW1  960   3.481   1.663   1.535
 1261SOL    HW2  961   3.533   1.591   1.671
 1262SOL     OW  962   2.973   1.195   1.100
 1262SOL    HW1  963   2.933   1.239   1.181
 1262SOL    HW2  964   2.932   1.232   1.017
 1265SOL     OW  965   2.842   1.116   1.719
 1265SOL    HW1  966   2.743   1.122   1.729
 1265SOL    HW2  967   2.865   1.036   1.663
 1267SOL     OW  968   2.272   0.813   1.251
 1267SOL    HW1  969   2.358   0.825   1.301
 1267SOL    HW2  970   2.230   0.726   1.278
 1269SOL     OW  971   1.926   1.564   1.331
 1269SOL    HW1  972   1.880   1.646   1.297
 1269SOL    HW2  973   2.024   1.583   1.340
 1273SOL     OW  974   3.134   1.445   1.142
 1273SOL    HW1  975   3.181   1.458   1.229
 1273SOL    HW2  976   3.068   1.371   1.151
 1275SOL     OW  977   2.216   1.510   1.329
 1275SOL    HW1  978   2.195   1.466   1.242
 1275SOL    HW2  979   2.313   1.536   1.332
 1276SOL     OW  980   2.264   0.751   1.598
 1276SOL    HW1  981   2.332   0.806   1.551
 1276SOL    HW2  982   2.304   0.663   1.625
 1280SOL     OW  983   2.435   0.870   1.029
 1280SOL    HW1  984   2.479   0.959   1.020
 1280SOL    HW2  985   2.372   0.870   1.106
 1284SOL     OW  986   1.899   1.310   1.282
 1284SOL    HW1  987   1.952   1.261   1.350
 1284SOL    HW2  988   1.921   1.408   1.287
 1290SOL     OW  989   2.842   1.573   1.700
 1290SOL    HW1  990   2.822   1.617   1.612
 1290SOL    HW2  991   2.881   1.482   1.684
 1291SOL     OW  992   3.721   1.518   1.605
 1291SOL    HW1  993   3.735   1.545   1.510
 1291SOL    HW2  994   3.804   1.540   1.658
 1292SOL     OW  995   2.212   0.898   1.804
 1292SOL    HW1  996   2.288   0.942   1.852
 1292SOL    HW2  997   2.247   0.851   1.722
 1295SOL     OW  998   2.930   1.333   0.849
 1295SOL    HW1  999   2.937   1.249   0.794
 1295SOL    HW2 1000   2.992   1.402   0.813
 1301SOL     OW 1001   1.950   1.801   0.927
 1301SOL    HW1 1002   1.908   1.715   0.900
 1301SOL    HW2 1003   2.044   1.804   0.893
 1302SOL     OW 1004   2.366   1.568   0.910
 1302SOL    HW1 1005   2.432   1.642   0.919
 1302SOL    HW2 1006   2.410   1.489   0.868
 1305SOL     OW 1007   2.051   0.520   1.722
 1305SOL    HW1 1008   2.110   0.480   1.652
 1305SOL    HW2 1009   1.993   0.591   1.681
 1306SOL     OW 1010   3.231   0.950   1.660
 1306SOL    HW1 1011   3.270   1.039   1.680
 1306SOL    HW2 1012   3.241   0.930   1.563
 1309SOL     OW 1013   2.114   1.564   1.744
 1309SOL    HW1 1014   2.084   1.621   1.820
 1309SOL    HW2 1015   2.107   1.467   1.770
 1311SOL     OW 1016   2.792   1.678   1.465
 1311SOL    HW1 1017   2.768   1.660   1.370
 1311SOL    HW2 1018   2.822   1.772   1.475
 1313SOL     OW 1019   2.021   1.137   1.466
 1313SOL    HW1 1020   2.043   1.076   1.542
 1313SOL    HW2 1021   2.031   1.088   1.380
 1314SOL     OW 1022   3.209   1.059   1.234
 1314SOL    HW1 1023   3.233   0.996   1.160
 1314SOL    HW2 1024   3.119   1.099   1.216
 1317SOL     OW 1025   3.114   1.731   1.128
 1317SOL    HW1 1026   3.198   1.736   1.074
 1317SOL    HW2 1027   3.091   1.635   1.146
 1318SOL     OW 1028   1.945   1.258   1.022
 1318SOL    HW1 1029   1.940   1.257   1.122
 1318SOL    HW2 1030   1.862   1.217   0.984
 1319SOL     OW 1031   2.550   1.662   1.716
 1319SOL    HW1 1032   2.494   1.743   1.725
 1319SOL    HW2 1033   2.602   1.666   1.630
 1323SOL     OW 1034   1.992   1.794   1.851
 1323SOL    HW1 1035   1.951   1.720   1.904
 1323SOL    HW2 1036   2.056   1.845   1.909
 1325SOL     OW 1037   2.692   1.273   1.422
 1325SOL    HW1 1038   2.687   1.306   1.517
 1325SOL    HW2 1039   2.606   1.292   1.376
 1327SOL     OW 1040   3.512   1.720   1.394
 1327SOL    HW1 1041   3.565   1.730   1.310
 1327SOL    HW2 1042   3.485   1.810   1.428
 1331SOL     OW 1043   2.684   1.002   1.372
 1331SOL    HW1 1044   2.724   1.001   1.280
 1331SOL    HW2 1045   2.694   1.094   1.412
 1334SOL     OW 1046   2.234   1.288   1.490
 1334SOL    HW1 1047   2.221   1.381   1.456
 1334SOL    HW2 1048   2.150   1.236   1.477
 1341SOL     OW 1049   1.967   1.013   1.726
 1341SOL    HW1 1050   1.890   0.980   1.780
 1341SOL    HW2 1051   2.052   0.983   1.768
 1347SOL     OW 1052   2.475   0.842   1.431
 1347SOL    HW1 1053   2.531   0.923   1.414
 1347SOL    HW2 1054   2.534   0.762   1.434
 1348SOL     OW 1055   3.355   1.767   0.959
 1348SOL    HW1 1056   3.388   1.831   0.890
 1348SOL    HW2 1057   3.421   1.761   1.034
 1349SOL     OW 1058   2.578   0.565   1.708
 1349SOL    HW1 1059   2.597   0.630   1.782
 1349SOL    HW2 1060   2.638   0.485   1.717
 1350SOL     OW 1061   3.312   1.220   1.633
 1350SOL    HW1 1062   3.303   1.210   1.732
 1350SOL    HW2 1063   3.408   1.213   1.607
 1351SOL     OW 1064   2.252   1.741   1.560
 1351SOL    HW1 1065   2.161   1.782   1.558
 1351SOL    HW2 1066   2.245   1.647   1.592
 1358SOL     OW 1067   2.523   1.790   0.953
 1358SOL    HW1 1068   2.477   1.878   0.940
 1358SOL    HW2 1069   2.622   1.802   0.946
 1362SOL     OW 1070   2.083   1.314   1.844
 1362SOL    HW1 1071   2.018   1.241   1.823
 1362SOL    HW2 1072   2.087   1.328   1.942
 1364SOL     OW 1073   2.534   1.391   1.624
 1364SOL    HW1 1074   2.456   1.341   1.662
 1364SOL    HW2 1075   2.531   1.486   1.655
 1369SOL     OW 1076   2.674   1.586   0.687
 1369SOL    HW1 1077   2.706   1.596   0.593
 1369SOL    HW2 1078   2.595   1.524   0.689
 1373SOL     OW 1079   2.480   1.567   1.284
 1373SOL    HW1 1080   2.475   1.649   1.341
 1373SOL    HW2 1081   2.569   1.564   1.239
 1379SOL     OW 1082   2.092   0.628   1.975
 1379SOL    HW1 1083   1.999   0.626   2.012
 1379SOL    HW2 1084   2.093   0.589   1.883
 1382SOL     OW 1085   2.431   1.275   3.027
 1382SOL    HW1 1086   2.338   1.268   2.990
 1382SOL    HW2 1087   2.442   1.364   3.071
 1383SOL     OW 1088   3.417   1.511   2.565
 1383SOL    HW1 1089   3.360   1.495   2.646
 1383SOL    HW2 1090   3.358   1.521   2.485
 1384SOL     OW 1091   2.997   0.703   2.579
 1384SOL    HW1 1092   3.054   0.781   2.554
 1384SOL    HW2 1093   2.937   0.729   2.655
 1386SOL     OW 1094   2.630   1.144   2.885
 1386SOL    HW1 1095   2.552   1.161   2.945
 1386SOL    HW2 1096   2.664   1.231   2.849
 1388SOL     OW 1097   2.547   1.012   2.527
 1388SOL    HW1 1098   2.616   0.996   2.597
 1388SOL    HW2 1099   2.474   1.069   2.565
 1390SOL     OW 1100   2.197   1.435   2.923
 1390SOL    HW1 1101   2.119   1.404   2.870
 1390SOL    HW2 1102   2.255   1.493   2.866
 1391SOL     OW 1103   3.322   1.505   3.201
 1391SOL    HW1 1104   3.346   1.599   3.227
 1391SOL    HW2 1105   3.306   1.451   3.283
 1394SOL     OW 1106   2.093   1.713   2.345
 1394SOL    HW1 1107   2.127   1.790   2.399
 1394SOL    HW2 1108   2.137   1.713   2.255
 1395SOL     OW 1109   2.989   1.341   3.552
 1395SOL    HW1 1110   3.036   1.341   3.640
 1395SOL    HW2 1111   2.941   1.254   3.541
 1396SOL     OW 1112   2.092   1.434   2.400
 1396SOL    HW1 1113   2.066   1.530   2.400
 1396SOL    HW2 1114   2.021   1.380   2.445
 1397SOL     OW 1115   2.102   1.091   2.748
 1397SOL    HW1 1116   2.116   1.007   2.800
 1397SOL    HW2 1117   2.047   1.155   2.803
 1398SOL     OW 1118   2.482   1.786   3.301
 1398SOL    HW1 1119   2.390   1.769   3.336
 1398SOL    HW2 1120   2.510   1.878   3.327
 1399SOL     OW 1121   2.468   0.964   1.985
 1399SOL    HW1 1122   2.475   1.048   1.931
 1399SOL    HW2 1123   2.514   0.977   2.073
 1401SOL     OW 1124   1.984   0.643   2.425
 1401SOL    HW1 1125   1.939   0.555   2.442
 1401SOL    HW2 1126   1.983   0.697   2.509
 1402SOL     OW 1127   3.704   1.767   2.221
 1402SOL    HW1 1128   3.758   1.738   2.301
 1402SOL    HW2 1129   3.734   1.857   2.192
 1403SOL     OW 1130   1.889   1.596   1.979
 1403SOL    HW1 1131   1.870   1.500   2.000
 1403SOL    HW2 1132   1.856   1.654   2.054
 1405SOL     OW 1133   3.503   1.108   2.294
 1405SOL    HW1 1134   3.589   1.110   2.242
 1405SOL    HW2 1135   3.517   1.155   2.382
 1407SOL     OW 1136   2.475   1.365   2.588
 1407SOL    HW1 1137   2.426   1.278   2.597
 1407SOL    HW2 1138   2.452   1.408   2.501
 1408SOL     OW 1139   3.155   1.228   3.285
 1408SOL    HW1 1140   3.192   1.155   3.227
 1408SOL    HW2 1141   3.207   1.233   3.370
 1410SOL     OW 1142   2.059   0.976   3.126
 1410SOL    HW1 1143   2.148   0.931   3.112
 1410SOL    HW2 1144   1.986   0.911   3.107
 1411SOL     OW 1145   3.387   0.999   2.052
 1411SOL    HW1 1146   3.324   0.923   2.065
 1411SOL    HW2 1147   3.435   1.017   2.138
 1412SOL     OW 1148   3.049   1.792   3.478
 1412SOL    HW1 1149   3.073   1.852   3.402
 1412SOL    HW2 1150   3.056   1.697   3.448
 1414SOL     OW 1151   3.328   1.417   2.815
 1414SOL    HW1 1152   3.269   1.423   2.895
 1414SOL    HW2 1153   3.313   1.329   2.769
 1415SOL     OW 1154   3.529   1.714   2.434
 1415SOL    HW1 1155   3.488   1.691   2.346
 1415SOL    HW2 1156   3.511   1.640   2.499
 1416SOL     OW 1157   2.460   0.729   2.132
 1416SOL    HW1 1158   2.484   0.798   2.064
 1416SOL    HW2 1159   2.382   0.762   2.186
 1418SOL     OW 1160   3.438   1.662   2.169
 1418SOL    HW1 1161   3.527   1.708   2.172
 1418SOL    HW2 1162   3.417   1.638   2.074
 1423SOL     OW 1163   2.903   0.701   2.291
 1423SOL    HW1 1164   2.929   0.697   2.387
 1423SOL    HW2 1165   2.818   0.650   2.277
 1424SOL     OW 1166   1.938   0.811   2.651
 1424SOL    HW1 1167   2.037   0.799   2.660
 1424SOL    HW2 1168   1.914   0.906   2.672
 1425SOL     OW 1169   1.992   1.821   3.433
 1425SOL    HW1 1170   1.982   1.806   3.532
 1425SOL    HW2 1171   1.906   1.857   3.397
 1428SOL     OW 1172   3.224   1.144   2.407
 1428SOL    HW1 1173   3.307   1.115   2.359
 1428SOL    HW2 1174   3.175   1.211   2.351
 1430SOL     OW 1175   2.870   1.456   2.339
 1430SOL    HW1 1176   2.824   1.528   2.287
 1430SOL    HW2 1177   2.866   1.476   2.437
 1431SOL     OW 1178   2.213   1.801   2.715
 1431SOL    HW1 1179   2.263   1.715   2.721
 1431SOL    HW2 1180   2.278   1.878   2.712
 1433SOL     OW 1181   3.089   1.550   3.368
 1433SOL    HW1 1182   3.095   1.473   3.432
 1433SOL    HW2 1183   3.037   1.524   3.288
 1434SOL     OW 1184   2.183   0.943   2.104
 1434SOL    HW1 1185   2.265   0.982   2.062
 1434SOL    HW2 1186   2.156   0.861   2.055
 1436SOL     OW 1187   2.323   1.266   3.589
 1436SOL    HW1 1188   2.273   1.267   3.503
 1436SOL    HW2 1189   2.260   1.248   3.665
 1437SOL     OW 1190   2.973   1.776   2.099
 1437SOL    HW1 1191   2.913   1.714   2.149
 1437SOL    HW2 1192   3.004   1.732   2.014
 1439SOL     OW 1193   3.494   1.377   1.943
 1439SOL    HW1 1194   3.462   1.471   1.933
 1439SOL    HW2 1195   3.418   1.314   1.931
 1440SOL     OW 1196   2.326   1.743   2.185
 1440SOL    HW1 1197   2.359   1.782   2.271
 1440SOL    HW2 1198   2.402   1.736   2.120
 1442SOL     OW 1199   2.111   1.785   3.103
 1442SOL    HW1 1200   2.168   1.720   3.153
 1442SOL    HW2 1201   2.095   1.752   3.010
 1443SOL     OW 1202   2.802   1.698   2.766
 1443SOL    HW1 1203   2.882   1.641   2.787
 1443SOL    HW2 1204   2.753   1.658   2.689
 1444SOL     OW 1205   2.244   0.700   2.342
 1444SOL    HW1 1206   2.289   0.610   2.339
 1444SOL    HW2 1207   2.150   0.689   2.375
 1448SOL     OW 1208   2.750   1.514   3.057
 1448SOL    HW1 1209   2.727   1.489   2.963
 1448SOL    HW2 1210   2.811   1.445   3.096
 1450SOL     OW 1211   2.665   1.402   2.786
 1450SOL    HW1 1212   2.755   1.416   2.744
 1450SOL    HW2 1213   2.594   1.404   2.715
 1453SOL     OW 1214   3.296   1.188   1.903
 1453SOL    HW1 1215   3.328   1.112   1.960
 1453SOL    HW2 1216   3.204   1.215   1.933
 1457SOL     OW 1217   3.089   1.570   2.655
 1457SOL    HW1 1218   3.110   1.644   2.590
 1457SOL    HW2 1219   3.157   1.570   2.728
 1458SOL     OW 1220   2.321   1.152   2.603
 1458SOL    HW1 1221   2.250   1.125   2.668
 1458SOL    HW2 1222   2.295   1.124   2.510
 1459SOL     OW 1223   3.133   1.797   2.453
 1459SOL    HW1 1224   3.177   1.861   2.389
 1459SOL    HW2 1225   3.083   1.849   2.523
 1465SOL     OW 1226   3.291   1.173   2.729
 1465SOL    HW1 1227   3.236   1.089   2.722
 1465SOL    HW2 1228   3.317   1.202   2.637
 1468SOL     OW 1229   2.350   1.385   2.036
 1468SOL    HW1 1230   2.263   1.370   2.083
 1468SOL    HW2 1231   2.333   1.411   1.941
 1469SOL     OW 1232   3.526   1.280   2.519
 1469SOL    HW1 1233   3.625   1.288   2.533
 1469SOL    HW2 1234   3.481   1.364   2.550
 1473SOL     OW 1235   2.926   1.347   3.202
 1473SOL    HW1 1236   2.846   1.324   3.257
 1473SOL    HW2 1237   3.009   1.321   3.251
 1475SOL     OW 1238   2.973   1.195   2.962
 1475SOL    HW1 1239   2.933   1.239   3.043
 1475SOL    HW2 1240   2.932   1.232   2.879
 1479SOL     OW 1241   2.567   1.050   2.230
 1479SOL    HW1 1242   2.553   1.057   2.329
 1479SOL    HW2 1243   2.651   0.999   2.212
 1480SOL     OW 1244   2.272   0.813   3.113
 1480SOL    HW1 1245   2.358   0.825   3.163
 1480SOL    HW2 1246   2.230   0.726   3.140
 1482SOL     OW 1247   1.926   1.564   3.193
 1482SOL    HW1 1248   1.880   1.646   3.159
 1482SOL    HW2 1249   2.024   1.583   3.202
 1483SOL     OW 1250   2.229   1.100   2.363
 1483SOL    HW1 1251   2.222   1.183   2.307
 1483SOL    HW2 1252   2.233   1.020   2.303
 1484SOL     OW 1253   2.428   0.537   2.727
 1484SOL    HW1 1254   2.440   0.603   2.653
 1484SOL    HW2 1255   2.474   0.571   2.810
 1485SOL     OW 1256   3.114   1.348   2.250
 1485SOL    HW1 1257   3.164   1.425   2.290
 1485SOL    HW2 1258   3.019   1.350   2.282
 1486SOL     OW 1259   3.134   1.445   3.004
 1486SOL    HW1 1260   3.181   1.458   3.091
 1486SOL    HW2 1261   3.068   1.371   3.013
 1488SOL     OW 1262   2.216   1.510   3.191
 1488SOL    HW1 1263   2.195   1.466   3.104
 1488SOL    HW2 1264   2.313   1.536   3.194
 1493SOL     OW 1265   2.435   0.870   2.891
 1493SOL    HW1 1266   2.479   0.959   2.882
 1493SOL    HW2 1267   2.372   0.870   2.968
 1497SOL     OW 1268   1.899   1.310   3.144
 1497SOL    HW1 1269   1.952   1.261   3.212
 1497SOL    HW2 1270   1.921   1.408   3.149
 1498SOL     OW 1271   2.594   0.634   2.926
 1498SOL    HW1 1272   2.653   0.608   2.850
 1498SOL    HW2 1273   2.566   0.730   2.915
 1502SOL     OW 1274   2.885   0.766   2.828
 1502SOL    HW1 1275   2.900   0.787   2.924
 1502SOL    HW2 1276   2.855   0.671   2.819
 1503SOL     OW 1277   2.842   1.573   3.562
 1503SOL    HW1 1278   2.822   1.617   3.474
 1503SOL    HW2 1279   2.881   1.482   3.546
 1507SOL     OW 1280   3.165   0.838   1.904
 1507SOL    HW1 1281   3.199   0.745   1.919
 1507SOL    HW2 1282   3.183   0.865   1.809
 1508SOL     OW 1283   2.930   1.333   2.711
 1508SOL    HW1 1284   2.937   1.249   2.656
 1508SOL    HW2 1285   2.992   1.402   2.675
 1509SOL     OW 1286   2.181   0.810   2.811
 1509SOL    HW1 1287   2.274   0.846   2.816
 1509SOL    HW2 1288   2.175   0.725   2.863
 1513SOL     OW 1289   1.870   1.326   2.062
 1513SOL    HW1 1290   1.777   1.347   2.031
 1513SOL    HW2 1291   1.880   1.227   2.075
 1514SOL     OW 1292   1.950   1.801   2.789
 1514SOL    HW1 1293   1.908   1.715   2.762
 1514SOL    HW2 1294   2.044   1.804   2.755
 1515SOL     OW 1295   2.366   1.568   2.772
 1515SOL    HW1 1296   2.432   1.642   2.781
 1515SOL    HW2 1297   2.410   1.489   2.730
 1516SOL     OW 1298   2.864   0.796   3.100
 1516SOL    HW1 1299   2.905   0.764   3.186
 1516SOL    HW2 1300   2.768   0.769   3.097
 1520SOL     OW 1301   2.677   0.572   2.187
 1520SOL    HW1 1302   2.684   0.483   2.141
 1520SOL    HW2 1303   2.583   0.606   2.179
 1522SOL     OW 1304   2.114   1.564   3.606
 1522SOL    HW1 1305   2.084   1.621   3.682
 1522SOL    HW2 1306   2.107   1.467   3.632
 1524SOL     OW 1307   2.792   1.678   3.327
 1524SOL    HW1 1308   2.768   1.660   3.232
 1524SOL    HW2 1309   2.822   1.772   3.337
 1525SOL     OW 1310   2.335   0.500   2.053
 1525SOL    HW1 1311   2.396   0.580   2.057
 1525SOL    HW2 1312   2.240   0.531   2.060
 1526SOL     OW 1313   2.021   1.137   3.328
 1526SOL    HW1 1314   2.043   1.076   3.404
 1526SOL    HW2 1315   2.031   1.088   3.242
 1527SOL     OW 1316   3.209   1.059   3.096
 1527SOL    HW1 1317   3.233   0.996   3.022
 1527SOL    HW2 1318   3.119   1.099   3.078
 1528SOL     OW 1319   3.164   0.855   2.171
 1528SOL    HW1 1320   3.078   0.824   2.213
 1528SOL    HW2 1321   3.160   0.841   2.072
 1529SOL     OW 1322   3.621   1.747   3.016
 1529SOL    HW1 1323   3.682   1.777   2.943
 1529SOL    HW2 1324   3.583   1.658   2.994
 1530SOL     OW 1325   3.114   1.731   2.990
 1530SOL    HW1 1326   3.198   1.736   2.936
 1530SOL    HW2 1327   3.091   1.635   3.008
 1531SOL     OW 1328   1.945   1.258   2.884
 1531SOL    HW1 1329   1.940   1.257   2.984
 1531SOL    HW2 1330   1.862   1.217   2.846
 1532SOL     OW 1331   2.550   1.662   3.578
 1532SOL    HW1 1332   2.494   1.743   3.587
 1532SOL    HW2 1333   2.602   1.666   3.492
 1534SOL     OW 1334   3.250   1.573   2.339
 1534SOL    HW1 1335   3.317   1.585   2.265
 1534SOL    HW2 1336   3.210   1.662   2.362
 1535SOL     OW 1337   1.992   1.794   3.713
 1535SOL    HW1 1338   1.951   1.720   3.766
 1535SOL    HW2 1339   2.056   1.845   3.771
 1536SOL     OW 1340   3.142   0.927   2.534
 1536SOL    HW1 1341   3.202   0.846   2.536
 1536SOL    HW2 1342   3.182   0.996   2.474
 1537SOL     OW 1343   2.692   1.273   3.284
 1537SOL    HW1 1344   2.687   1.306   3.379
 1537SOL    HW2 1345   2.606   1.292   3.238
 1538SOL     OW 1346   2.534   1.616   2.016
 1538SOL    HW1 1347   2.543   1.626   1.917
 1538SOL    HW2 1348   2.494   1.527   2.037
 1539SOL     OW 1349   3.512   1.720   3.256
 1539SOL    HW1 1350   3.565   1.730   3.172
 1539SOL    HW2 1351   3.485   1.810   3.290
 1542SOL     OW 1352   3.056   1.612   1.893
 1542SOL    HW1 1353   3.062   1.519   1.930
 1542SOL    HW2 1354   2.997   1.612   1.813
 1543SOL     OW 1355   2.684   1.002   3.234
 1543SOL    HW1 1356   2.724   1.001   3.142
 1543SOL    HW2 1357   2.694   1.094   3.274
 1544SOL     OW 1358   2.778   0.910   2.153
 1544SOL    HW1 1359   2.841   0.948   2.085
 1544SOL    HW2 1360   2.818   0.827   2.192
 1545SOL     OW 1361   3.366   1.607   1.906
 1545SOL    HW1 1362   3.274   1.644   1.913
 1545SOL    HW2 1363   3.404   1.627   1.816
 1546SOL     OW 1364   2.234   1.288   3.352
 1546SOL    HW1 1365   2.221   1.381   3.318
 1546SOL    HW2 1366   2.150   1.236   3.339
 1548SOL     OW 1367   2.901   1.098   2.558
 1548SOL    HW1 1368   2.831   1.051   2.612
 1548SOL    HW2 1369   2.960   1.030   2.515
 1550SOL     OW 1370   2.452   1.487   2.353
 1550SOL    HW1 1371   2.494   1.429   2.283
 1550SOL    HW2 1372   2.408   1.566   2.309
 1552SOL     OW 1373   2.117   1.348   2.152
 1552SOL    HW1 1374   2.021   1.349   2.125
 1552SOL    HW2 1375   2.129   1.401   2.236
 1558SOL     OW 1376   3.045   1.335   1.981
 1558SOL    HW1 1377   2.946   1.324   1.983
 1558SOL    HW2 1378   3.079   1.350   2.074
 1559SOL     OW 1379   2.475   0.842   3.293
 1559SOL    HW1 1380   2.531   0.923   3.276
 1559SOL    HW2 1381   2.534   0.762   3.296
 1560SOL     OW 1382   3.355   1.767   2.821
 1560SOL    HW1 1383   3.388   1.831   2.752
 1560SOL    HW2 1384   3.421   1.761   2.896
 1563SOL     OW 1385   2.252   1.741   3.422
 1563SOL    HW1 1386   2.161   1.782   3.420
 1563SOL    HW2 1387   2.245   1.647   3.454
 1566SOL     OW 1388   2.456   0.745   2.514
 1566SOL    HW1 1389   2.506   0.830   2.495
 1566SOL    HW2 1390   2.368   0.747   2.466
 1569SOL     OW 1391   2.721   1.374   1.878
 1569SOL    HW1 1392   2.675   1.389   1.966
 1569SOL    HW2 1393   2.765   1.459   1.848
 1570SOL     OW 1394   2.523   1.790   2.815
 1570SOL    HW1 1395   2.477   1.878   2.802
 1570SOL    HW2 1396   2.622   1.802   2.808
 1571SOL     OW 1397   2.721   0.956   2.723
 1571SOL    HW1 1398   2.775   0.887   2.771
 1571SOL    HW2 1399   2.689   1.025   2.789
 1572SOL     OW 1400   2.945   0.984   1.949
 1572SOL    HW1 1401   2.922   1.037   1.867
 1572SOL    HW2 1402   3.026   0.928   1.930
 1573SOL     OW 1403   3.723   1.569   2.713
 1573SOL    HW1 1404   3.652   1.557   2.643
 1573SOL    HW2 1405   3.724   1.490   2.773
 1574SOL     OW 1406   2.083   1.314   3.706
 1574SOL    HW1 1407   2.018   1.241   3.685
 1574SOL    HW2 1408   2.087   1.328   3.804
 1575SOL     OW 1409   1.941   1.240   2.515
 1575SOL    HW1 1410   1.940   1.193   2.603
 1575SOL    HW2 1411   2.023   1.212   2.464
 1576SOL     OW 1412   2.534   1.391   3.486
 1576SOL    HW1 1413   2.456   1.341   3.524
 1576SOL    HW2 1414   2.531   1.486   3.517
 1578SOL     OW 1415   2.290   0.424   2.382
 1578SOL    HW1 1416   2.320   0.352   2.320
 1578SOL    HW2 1417   2.251   0.384   2.465
 1579SOL     OW 1418   3.567   1.487   2.966
 1579SOL    HW1 1419   3.474   1.462   2.939
 1579SOL    HW2 1420   3.593   1.437   3.048
 1581SOL     OW 1421   2.674   1.586   2.549
 1581SOL    HW1 1422   2.706   1.596   2.455
 1581SOL    HW2 1423   2.595   1.524   2.551
 1584SOL     OW 1424   2.632   1.330   2.163
 1584SOL    HW1 1425   2.586   1.243   2.180
 1584SOL    HW2 1426   2.723   1.327   2.204
 1585SOL     OW 1427   2.480   1.567   3.146
 1585SOL    HW1 1428   2.475   1.649   3.203
 1585SOL    HW2 1429   2.569   1.564   3.101
 1589SOL     OW 1430   1.901   1.077   2.162
 1589SOL    HW1 1431   2.000   1.066   2.153
 1589SOL    HW2 1432   1.861   0.991   2.194
 1590SOL     OW 1433   2.737   1.646   2.199
 1590SOL    HW1 1434   2.660   1.611   2.145
 1590SOL    HW2 1435   2.705   1.717   2.261
 1598SOL     OW 1436   1.889   1.596   3.841
 1598SOL    HW1 1437   1.870   1.500   3.862
 1598SOL    HW2 1438   1.856   1.654   3.916
 1662SOL     OW 1439   2.087   2.137   0.996
 1662SOL    HW1 1440   2.122   2.120   1.088
 1662SOL    HW2 1441   1.999   2.092   0.984
 1663SOL     OW 1442   1.881   2.230   0.647
 1663SOL    HW1 1443   1.799   2.273   0.686
 1663SOL    HW2 1444   1.853   2.157   0.584
 1664SOL     OW 1445   2.431   3.137   1.165
 1664SOL    HW1 1446   2.338   3.130   1.128
 1664SOL    HW2 1447   2.442   3.226   1.209
 1666SOL     OW 1448   2.997   2.565   0.717
 1666SOL    HW1 1449   3.054   2.643   0.692
 1666SOL    HW2 1450   2.937   2.591   0.793
 1668SOL     OW 1451   2.630   3.006   1.023
 1668SOL    HW1 1452   2.552   3.023   1.083
 1668SOL    HW2 1453   2.664   3.093   0.987
 1669SOL     OW 1454   2.712   2.660   1.823
 1669SOL    HW1 1455   2.708   2.736   1.888
 1669SOL    HW2 1456   2.734   2.696   1.732
 1670SOL     OW 1457   2.547   2.874   0.665
 1670SOL    HW1 1458   2.616   2.858   0.735
 1670SOL    HW2 1459   2.474   2.931   0.703
 1671SOL     OW 1460   2.548   3.023   1.803
 1671SOL    HW1 1461   2.608   3.102   1.817
 1671SOL    HW2 1462   2.462   3.054   1.762
 1672SOL     OW 1463   2.197   3.297   1.061
 1672SOL    HW1 1464   2.119   3.266   1.008
 1672SOL    HW2 1465   2.255   3.355   1.004
 1674SOL     OW 1466   2.300   2.254   1.499
 1674SOL    HW1 1467   2.382   2.198   1.508
 1674SOL    HW2 1468   2.219   2.196   1.503
 1677SOL     OW 1469   2.989   3.203   1.690
 1677SOL    HW1 1470   3.036   3.203   1.778
 1677SOL    HW2 1471   2.941   3.116   1.679
 1679SOL     OW 1472   2.102   2.953   0.886
 1679SOL    HW1 1473   2.116   2.869   0.938
 1679SOL    HW2 1474   2.047   3.017   0.941
 1680SOL     OW 1475   2.482   3.648   1.439
 1680SOL    HW1 1476   2.390   3.631   1.474
 1680SOL    HW2 1477   2.510   3.740   1.465
 1682SOL     OW 1478   3.456   1.976   1.480
 1682SOL    HW1 1479   3.438   2.043   1.408
 1682SOL    HW2 1480   3.453   2.022   1.569
 1683SOL     OW 1481   1.984   2.505   0.563
 1683SOL    HW1 1482   1.939   2.417   0.580
 1683SOL    HW2 1483   1.983   2.559   0.647
 1688SOL     OW 1484   1.975   2.599   1.597
 1688SOL    HW1 1485   2.063   2.586   1.642
 1688SOL    HW2 1486   1.962   2.696   1.575
 1690SOL     OW 1487   3.155   3.090   1.423
 1690SOL    HW1 1488   3.192   3.017   1.365
 1690SOL    HW2 1489   3.207   3.095   1.508
 1691SOL     OW 1490   2.671   1.866   0.502
 1691SOL    HW1 1491   2.711   1.957   0.493
 1691SOL    HW2 1492   2.571   1.874   0.508
 1692SOL     OW 1493   2.059   2.838   1.264
 1692SOL    HW1 1494   2.148   2.793   1.250
 1692SOL    HW2 1495   1.986   2.773   1.245
 1694SOL     OW 1496   3.049   3.654   1.616
 1694SOL    HW1 1497   3.073   3.714   1.540
 1694SOL    HW2 1498   3.056   3.559   1.586
 1695SOL     OW 1499   2.179   2.113   1.801
 1695SOL    HW1 1500   2.250   2.184   1.807
 1695SOL    HW2 1501   2.091   2.152   1.829
 1699SOL     OW 1502   3.143   2.207   0.944
 1699SOL    HW1 1503   3.057   2.157   0.931
 1699SOL    HW2 1504   3.205   2.153   1.000
 1701SOL     OW 1505   2.669   2.467   1.465
 1701SOL    HW1 1506   2.622   2.464   1.554
 1701SOL    HW2 1507   2.618   2.412   1.399
 1702SOL     OW 1508   3.256   2.331   1.674
 1702SOL    HW1 1509   3.236   2.374   1.762
 1702SOL    HW2 1510   3.334   2.269   1.683
 1703SOL     OW 1511   2.835   2.752   1.572
 1703SOL    HW1 1512   2.881   2.668   1.543
 1703SOL    HW2 1513   2.779   2.786   1.497
 1704SOL     OW 1514   2.853   2.272   1.242
 1704SOL    HW1 1515   2.776   2.306   1.296
 1704SOL    HW2 1516   2.819   2.221   1.163
 1706SOL     OW 1517   1.938   2.673   0.789
 1706SOL    HW1 1518   2.037   2.661   0.798
 1706SOL    HW2 1519   1.914   2.768   0.810
 1707SOL     OW 1520   1.992   3.683   1.571
 1707SOL    HW1 1521   1.982   3.668   1.670
 1707SOL    HW2 1522   1.906   3.719   1.535
 1709SOL     OW 1523   3.581   2.447   1.831
 1709SOL    HW1 1524   3.555   2.536   1.795
 1709SOL    HW2 1525   3.579   2.379   1.758
 1711SOL     OW 1526   2.412   2.058   0.885
 1711SOL    HW1 1527   2.407   2.053   0.985
 1711SOL    HW2 1528   2.414   2.154   0.856
 1715SOL     OW 1529   3.089   3.412   1.506
 1715SOL    HW1 1530   3.095   3.335   1.570
 1715SOL    HW2 1531   3.037   3.386   1.426
 1718SOL     OW 1532   2.323   3.128   1.727
 1718SOL    HW1 1533   2.273   3.129   1.641
 1718SOL    HW2 1534   2.260   3.110   1.803
 1720SOL     OW 1535   2.064   2.147   1.498
 1720SOL    HW1 1536   1.984   2.207   1.485
 1720SOL    HW2 1537   2.054   2.098   1.584
 1724SOL     OW 1538   2.111   3.647   1.241
 1724SOL    HW1 1539   2.168   3.582   1.291
 1724SOL    HW2 1540   2.095   3.614   1.148
 1726SOL     OW 1541   2.244   2.562   0.480
 1726SOL    HW1 1542   2.289   2.472   0.477
 1726SOL    HW2 1543   2.150   2.551   0.513
 1727SOL     OW 1544   3.409   2.084   1.729
 1727SOL    HW1 1545   3.404   2.121   1.821
 1727SOL    HW2 1546   3.337   2.015   1.717
 1729SOL     OW 1547   2.643   2.126   1.749
 1729SOL    HW1 1548   2.710   2.065   1.792
 1729SOL    HW2 1549   2.570   2.145   1.814
 1730SOL     OW 1550   2.750   3.376   1.195
 1730SOL    HW1 1551   2.727   3.351   1.101
 1730SOL    HW2 1552   2.811   3.307   1.234
 1731SOL     OW 1553   3.213   2.452   1.433
 1731SOL    HW1 1554   3.241   2.409   1.518
 1731SOL    HW2 1555   3.238   2.548   1.434
 1732SOL     OW 1556   2.665   3.264   0.924
 1732SOL    HW1 1557   2.755   3.278   0.882
 1732SOL    HW2 1558   2.594   3.266   0.853
 1733SOL     OW 1559   2.784   2.365   0.899
 1733SOL    HW1 1560   2.759   2.356   0.803
 1733SOL    HW2 1561   2.832   2.283   0.930
 1734SOL     OW 1562   2.401   1.926   0.512
 1734SOL    HW1 1563   2.320   1.927   0.570
 1734SOL    HW2 1564   2.404   2.009   0.457
 1738SOL     OW 1565   2.938   2.545   1.464
 1738SOL    HW1 1566   2.858   2.484   1.467
 1738SOL    HW2 1567   3.019   2.492   1.440
 1740SOL     OW 1568   2.321   3.014   0.741
 1740SOL    HW1 1569   2.250   2.987   0.806
 1740SOL    HW2 1570   2.295   2.986   0.648
 1743SOL     OW 1571   1.940   2.418   1.386
 1743SOL    HW1 1572   2.032   2.417   1.345
 1743SOL    HW2 1573   1.934   2.492   1.453
 1744SOL     OW 1574   2.423   2.084   1.147
 1744SOL    HW1 1575   2.461   2.000   1.184
 1744SOL    HW2 1576   2.335   2.103   1.191
 1745SOL     OW 1577   2.728   2.316   0.642
 1745SOL    HW1 1578   2.696   2.388   0.580
 1745SOL    HW2 1579   2.752   2.235   0.589
 1746SOL     OW 1580   2.879   1.901   0.753
 1746SOL    HW1 1581   2.807   1.906   0.684
 1746SOL    HW2 1582   2.855   1.832   0.822
 1748SOL     OW 1583   3.328   2.452   0.992
 1748SOL    HW1 1584   3.298   2.357   0.999
 1748SOL    HW2 1585   3.401   2.468   1.058
 1754SOL     OW 1586   3.616   3.085   1.588
 1754SOL    HW1 1587   3.707   3.046   1.575
 1754SOL    HW2 1588   3.624   3.181   1.612
 1755SOL     OW 1589   2.926   3.209   1.340
 1755SOL    HW1 1590   2.846   3.186   1.395
 1755SOL    HW2 1591   3.009   3.183   1.389
 1757SOL     OW 1592   2.973   3.057   1.100
 1757SOL    HW1 1593   2.933   3.101   1.181
 1757SOL    HW2 1594   2.932   3.094   1.017
 1759SOL     OW 1595   2.777   1.951   1.402
 1759SOL    HW1 1596   2.802   1.931   1.307
 1759SOL    HW2 1597   2.849   2.007   1.444
 1760SOL     OW 1598   2.842   2.978   1.719
 1760SOL    HW1 1599   2.743   2.984   1.729
 1760SOL    HW2 1600   2.865   2.898   1.663
 1762SOL     OW 1601   2.272   2.675   1.251
 1762SOL    HW1 1602   2.358   2.687   1.301
 1762SOL    HW2 1603   2.230   2.588   1.278
 1763SOL     OW 1604   3.136   2.248   1.262
 1763SOL    HW1 1605   3.157   2.322   1.326
 1763SOL    HW2 1606   3.047   2.265   1.219
 1764SOL     OW 1607   1.926   3.426   1.331
 1764SOL    HW1 1608   1.880   3.508   1.297
 1764SOL    HW2 1609   2.024   3.445   1.340
 1766SOL     OW 1610   2.428   2.399   0.865
 1766SOL    HW1 1611   2.440   2.465   0.791
 1766SOL    HW2 1612   2.474   2.433   0.948
 1768SOL     OW 1613   3.134   3.307   1.142
 1768SOL    HW1 1614   3.181   3.320   1.229
 1768SOL    HW2 1615   3.068   3.233   1.151
 1770SOL     OW 1616   2.216   3.372   1.329
 1770SOL    HW1 1617   2.195   3.328   1.242
 1770SOL    HW2 1618   2.313   3.398   1.332
 1771SOL     OW 1619   2.264   2.613   1.598
 1771SOL    HW1 1620   2.332   2.668   1.551
 1771SOL    HW2 1621   2.304   2.525   1.625
 1772SOL     OW 1622   3.449   2.641   1.670
 1772SOL    HW1 1623   3.357   2.679   1.665
 1772SOL    HW2 1624   3.509   2.688   1.605
 1773SOL     OW 1625   2.875   1.967   1.770
 1773SOL    HW1 1626   2.881   2.052   1.718
 1773SOL    HW2 1627   2.907   1.891   1.713
 1774SOL     OW 1628   2.366   1.912   1.740
 1774SOL    HW1 1629   2.324   1.855   1.670
 1774SOL    HW2 1630   2.300   1.981   1.772
 1775SOL     OW 1631   2.435   2.732   1.029
 1775SOL    HW1 1632   2.479   2.821   1.020
 1775SOL    HW2 1633   2.372   2.732   1.106
 1776SOL     OW 1634   3.222   2.724   1.045
 1776SOL    HW1 1635   3.147   2.724   0.979
 1776SOL    HW2 1636   3.259   2.632   1.054
 1778SOL     OW 1637   2.169   2.075   1.231
 1778SOL    HW1 1638   2.146   2.112   1.321
 1778SOL    HW2 1639   2.139   1.980   1.225
 1779SOL     OW 1640   1.899   3.172   1.282
 1779SOL    HW1 1641   1.952   3.123   1.350
 1779SOL    HW2 1642   1.921   3.270   1.287
 1780SOL     OW 1643   2.594   2.496   1.064
 1780SOL    HW1 1644   2.653   2.470   0.988
 1780SOL    HW2 1645   2.566   2.592   1.053
 1781SOL     OW 1646   3.590   2.797   1.854
 1781SOL    HW1 1647   3.544   2.790   1.765
 1781SOL    HW2 1648   3.528   2.841   1.920
 1782SOL     OW 1649   2.169   1.925   0.618
 1782SOL    HW1 1650   2.158   2.019   0.651
 1782SOL    HW2 1651   2.164   1.862   0.695
 1784SOL     OW 1652   2.885   2.628   0.966
 1784SOL    HW1 1653   2.900   2.649   1.062
 1784SOL    HW2 1654   2.855   2.533   0.957
 1785SOL     OW 1655   2.842   3.435   1.700
 1785SOL    HW1 1656   2.822   3.479   1.612
 1785SOL    HW2 1657   2.881   3.344   1.684
 1787SOL     OW 1658   2.212   2.760   1.804
 1787SOL    HW1 1659   2.288   2.804   1.852
 1787SOL    HW2 1660   2.247   2.713   1.722
 1791SOL     OW 1661   2.181   2.672   0.949
 1791SOL    HW1 1662   2.274   2.708   0.954
 1791SOL    HW2 1663   2.175   2.587   1.001
 1792SOL     OW 1664   2.201   2.371   1.006
 1792SOL    HW1 1665   2.149   2.288   0.989
 1792SOL    HW2 1666   2.278   2.376   0.942
 1793SOL     OW 1667   3.000   2.242   1.678
 1793SOL    HW1 1668   2.955   2.305   1.742
 1793SOL    HW2 1669   3.093   2.273   1.661
 1794SOL     OW 1670   3.022   2.069   1.477
 1794SOL    HW1 1671   3.022   2.133   1.554
 1794SOL    HW2 1672   3.050   2.117   1.394
 1797SOL     OW 1673   2.366   3.430   0.910
 1797SOL    HW1 1674   2.432   3.504   0.919
 1797SOL    HW2 1675   2.410   3.351   0.868
 1798SOL     OW 1676   2.864   2.658   1.238
 1798SOL    HW1 1677   2.905   2.626   1.324
 1798SOL    HW2 1678   2.768   2.631   1.235
 1799SOL     OW 1679   1.902   2.406   1.114
 1799SOL    HW1 1680   1.987   2.373   1.073
 1799SOL    HW2 1681   1.915   2.421   1.212
 1800SOL     OW 1682   2.051   2.382   1.722
 1800SOL    HW1 1683   2.110   2.342   1.652
 1800SOL    HW2 1684   1.993   2.453   1.681
 1801SOL     OW 1685   3.231   2.812   1.660
 1801SOL    HW1 1686   3.270   2.901   1.680
 1801SOL    HW2 1687   3.241   2.792   1.563
 1803SOL     OW 1688   3.519   2.466   1.206
 1803SOL    HW1 1689   3.481   2.397   1.268
 1803SOL    HW2 1690   3.601   2.430   1.162
 1804SOL     OW 1691   2.114   3.426   1.744
 1804SOL    HW1 1692   2.084   3.483   1.820
 1804SOL    HW2 1693   2.107   3.329   1.770
 1805SOL     OW 1694   2.533   2.326   1.269
 1805SOL    HW1 1695   2.499   2.237   1.239
 1805SOL    HW2 1696   2.559   2.380   1.189
 1806SOL     OW 1697   2.792   3.540   1.465
 1806SOL    HW1 1698   2.768   3.522   1.370
 1806SOL    HW2 1699   2.822   3.634   1.475
 1808SOL     OW 1700   2.021   2.999   1.466
 1808SOL    HW1 1701   2.043   2.938   1.542
 1808SOL    HW2 1702   2.031   2.950   1.380
 1809SOL     OW 1703   3.209   2.921   1.234
 1809SOL    HW1 1704   3.233   2.858   1.160
 1809SOL    HW2 1705   3.119   2.961   1.216
 1813SOL     OW 1706   1.945   3.120   1.022
 1813SOL    HW1 1707   1.940   3.119   1.122
 1813SOL    HW2 1708   1.862   3.079   0.984
 1814SOL     OW 1709   2.550   3.524   1.716
 1814SOL    HW1 1710   2.494   3.605   1.725
 1814SOL    HW2 1711   2.602   3.528   1.630
 1818SOL     OW 1712   1.992   3.656   1.851
 1818SOL    HW1 1713   1.951   3.582   1.904
 1818SOL    HW2 1714   2.056   3.707   1.909
 1820SOL     OW 1715   2.692   3.135   1.422
 1820SOL    HW1 1716   2.687   3.168   1.517
 1820SOL    HW2 1717   2.606   3.154   1.376
 1824SOL     OW 1718   2.125   2.188   0.720
 1824SOL    HW1 1719   2.046   2.239   0.686
 1824SOL    HW2 1720   2.116   2.173   0.818
 1826SOL     OW 1721   2.684   2.864   1.372
 1826SOL    HW1 1722   2.724   2.863   1.280
 1826SOL    HW2 1723   2.694   2.956   1.412
 1829SOL     OW 1724   2.234   3.150   1.490
 1829SOL    HW1 1725   2.221   3.243   1.456
 1829SOL    HW2 1726   2.150   3.098   1.477
 1832SOL     OW 1727   2.876   2.098   0.971
 1832SOL    HW1 1728   2.868   2.062   0.878
 1832SOL    HW2 1729   2.874   2.022   1.036
 1834SOL     OW 1730   3.571   2.247   1.381
 1834SOL    HW1 1731   3.644   2.316   1.385
 1834SOL    HW2 1732   3.599   2.172   1.322
 1836SOL     OW 1733   1.967   2.875   1.726
 1836SOL    HW1 1734   1.890   2.842   1.780
 1836SOL    HW2 1735   2.052   2.845   1.768
 1837SOL     OW 1736   2.534   2.065   1.489
 1837SOL    HW1 1737   2.624   2.049   1.449
 1837SOL    HW2 1738   2.542   2.070   1.588
 1839SOL     OW 1739   3.302   2.718   1.398
 1839SOL    HW1 1740   3.245   2.770   1.335
 1839SOL    HW2 1741   3.398   2.730   1.374
 1842SOL     OW 1742   2.475   2.704   1.431
 1842SOL    HW1 1743   2.531   2.785   1.414
 1842SOL    HW2 1744   2.534   2.624   1.434
 1844SOL     OW 1745   2.578   2.427   1.708
 1844SOL    HW1 1746   2.597   2.492   1.782
 1844SOL    HW2 1747   2.638   2.347   1.717
 1845SOL     OW 1748   3.312   3.082   1.633
 1845SOL    HW1 1749   3.303   3.072   1.732
 1845SOL    HW2 1750   3.408   3.075   1.607
 1846SOL     OW 1751   2.252   3.603   1.560
 1846SOL    HW1 1752   2.161   3.644   1.558
 1846SOL    HW2 1753   2.245   3.509   1.592
 1847SOL     OW 1754   3.536   2.745   1.254
 1847SOL    HW1 1755   3.509   2.656   1.217
 1847SOL    HW2 1756   3.537   2.813   1.181
 1849SOL     OW 1757   2.456   2.607   0.652
 1849SOL    HW1 1758   2.506   2.692   0.633
 1849SOL    HW2 1759   2.368   2.609   0.604
 1850SOL     OW 1760   3.639   2.204   1.642
 1850SOL    HW1 1761   3.622   2.235   1.548
 1850SOL    HW2 1762   3.555   2.167   1.680
 1851SOL     OW 1763   3.592   2.796   1.517
 1851SOL    HW1 1764   3.630   2.887   1.532
 1851SOL    HW2 1765   3.584   2.779   1.418
 1854SOL     OW 1766   2.721   2.818   0.861
 1854SOL    HW1 1767   2.775   2.749   0.909
 1854SOL    HW2 1768   2.689   2.887   0.927
 1857SOL     OW 1769   2.083   3.176   1.844
 1857SOL    HW1 1770   2.018   3.103   1.823
 1857SOL    HW2 1771   2.087   3.190   1.942
 1859SOL     OW 1772   2.534   3.253   1.624
 1859SOL    HW1 1773   2.456   3.203   1.662
 1859SOL    HW2 1774   2.531   3.348   1.655
 1860SOL     OW 1775   3.686   2.054   1.227
 1860SOL    HW1 1776   3.682   1.964   1.271
 1860SOL    HW2 1777   3.689   2.043   1.128
 1861SOL     OW 1778   2.290   2.286   0.520
 1861SOL    HW1 1779   2.320   2.214   0.458
 1861SOL    HW2 1780   2.251   2.246   0.603
 1863SOL     OW 1781   2.179   2.409   1.280
 1863SOL    HW1 1782   2.217   2.350   1.352
 1863SOL    HW2 1783   2.219   2.383   1.192
 1865SOL     OW 1784   3.286   2.076   1.112
 1865SOL    HW1 1785   3.338   2.011   1.167
 1865SOL    HW2 1786   3.237   2.139   1.173
 1866SOL     OW 1787   2.863   1.896   1.154
 1866SOL    HW1 1788   2.800   1.824   1.123
 1866SOL    HW2 1789   2.956   1.860   1.154
 1868SOL     OW 1790   2.480   3.429   1.284
 1868SOL    HW1 1791   2.475   3.511   1.341
 1868SOL    HW2 1792   2.569   3.426   1.239
 1870SOL     OW 1793   3.162   2.315   0.691
 1870SOL    HW1 1794   3.103   2.395   0.695
 1870SOL    HW2 1795   3.177   2.280   0.784
 1874SOL     OW 1796   2.092   2.490   1.975
 1874SOL    HW1 1797   1.999   2.488   2.012
 1874SOL    HW2 1798   2.093   2.451   1.883
 1875SOL     OW 1799   2.087   2.137   2.858
 1875SOL    HW1 1800   2.122   2.120   2.950
 1875SOL    HW2 1801   1.999   2.092   2.846
 1876SOL     OW 1802   1.881   2.230   2.509
 1876SOL    HW1 1803   1.799   2.273   2.548
 1876SOL    HW2 1804   1.853   2.157   2.446
 1877SOL     OW 1805   2.431   3.137   3.027
 1877SOL    HW1 1806   2.338   3.130   2.990
 1877SOL    HW2 1807   2.442   3.226   3.071
 1878SOL     OW 1808   3.417   3.373   2.565
 1878SOL    HW1 1809   3.360   3.357   2.646
 1878SOL    HW2 1810   3.358   3.383   2.485
 1879SOL     OW 1811   2.997   2.565   2.579
 1879SOL    HW1 1812   3.054   2.643   2.554
 1879SOL    HW2 1813   2.937   2.591   2.655
 1880SOL     OW 1814   3.617   2.469   2.093
 1880SOL    HW1 1815   3.605   2.456   1.994
 1880SOL    HW2 1816   3.587   2.388   2.142
 1881SOL     OW 1817   2.630   3.006   2.885
 1881SOL    HW1 1818   2.552   3.023   2.945
 1881SOL    HW2 1819   2.664   3.093   2.849
 1882SOL     OW 1820   2.712   2.660   3.685
 1882SOL    HW1 1821   2.708   2.736   3.750
 1882SOL    HW2 1822   2.734   2.696   3.594
 1883SOL     OW 1823   2.547   2.874   2.527
 1883SOL    HW1 1824   2.616   2.858   2.597
 1883SOL    HW2 1825   2.474   2.931   2.565
 1884SOL     OW 1826   2.548   3.023   3.665
 1884SOL    HW1 1827   2.608   3.102   3.679
 1884SOL    HW2 1828   2.462   3.054   3.624
 1885SOL     OW 1829   2.197   3.297   2.923
 1885SOL    HW1 1830   2.119   3.266   2.870
 1885SOL    HW2 1831   2.255   3.355   2.866
 1887SOL     OW 1832   2.300   2.254   3.361
 1887SOL    HW1 1833   2.382   2.198   3.370
 1887SOL    HW2 1834   2.219   2.196   3.365
 1888SOL     OW 1835   3.465   2.309   2.599
 1888SOL    HW1 1836   3.391   2.355   2.549
 1888SOL    HW2 1837   3.516   2.377   2.652
 1889SOL     OW 1838   2.093   3.575   2.345
 1889SOL    HW1 1839   2.127   3.652   2.399
 1889SOL    HW2 1840   2.137   3.575   2.255
 1891SOL     OW 1841   2.092   3.296   2.400
 1891SOL    HW1 1842   2.066   3.392   2.400
 1891SOL    HW2 1843   2.021   3.242   2.445
 1892SOL     OW 1844   2.102   2.953   2.748
 1892SOL    HW1 1845   2.116   2.869   2.800
 1892SOL    HW2 1846   2.047   3.017   2.803
 1894SOL     OW 1847   2.468   2.826   1.985
 1894SOL    HW1 1848   2.475   2.910   1.931
 1894SOL    HW2 1849   2.514   2.839   2.073
 1895SOL     OW 1850   3.456   1.976   3.342
 1895SOL    HW1 1851   3.438   2.043   3.270
 1895SOL    HW2 1852   3.453   2.022   3.431
 1896SOL     OW 1853   1.984   2.505   2.425
 1896SOL    HW1 1854   1.939   2.417   2.442
 1896SOL    HW2 1855   1.983   2.559   2.509
 1898SOL     OW 1856   1.889   3.458   1.979
 1898SOL    HW1 1857   1.870   3.362   2.000
 1898SOL    HW2 1858   1.856   3.516   2.054
 1899SOL     OW 1859   3.551   2.784   2.474
 1899SOL    HW1 1860   3.646   2.755   2.482
 1899SOL    HW2 1861   3.543   2.849   2.399
 1900SOL     OW 1862   3.503   2.970   2.294
 1900SOL    HW1 1863   3.589   2.972   2.242
 1900SOL    HW2 1864   3.517   3.017   2.382
 1901SOL     OW 1865   1.975   2.599   3.459
 1901SOL    HW1 1866   2.063   2.586   3.504
 1901SOL    HW2 1867   1.962   2.696   3.437
 1902SOL     OW 1868   2.475   3.227   2.588
 1902SOL    HW1 1869   2.426   3.140   2.597
 1902SOL    HW2 1870   2.452   3.270   2.501
 1903SOL     OW 1871   3.155   3.090   3.285
 1903SOL    HW1 1872   3.192   3.017   3.227
 1903SOL    HW2 1873   3.207   3.095   3.370
 1904SOL     OW 1874   2.671   1.866   2.364
 1904SOL    HW1 1875   2.711   1.957   2.355
 1904SOL    HW2 1876   2.571   1.874   2.370
 1905SOL     OW 1877   2.059   2.838   3.126
 1905SOL    HW1 1878   2.148   2.793   3.112
 1905SOL    HW2 1879   1.986   2.773   3.107
 1906SOL     OW 1880   3.387   2.861   2.052
 1906SOL    HW1 1881   3.324   2.785   2.065
 1906SOL    HW2 1882   3.435   2.879   2.138
 1908SOL     OW 1883   2.179   2.113   3.663
 1908SOL    HW1 1884   2.250   2.184   3.669
 1908SOL    HW2 1885   2.091   2.152   3.691
 1909SOL     OW 1886   3.328   3.279   2.815
 1909SOL    HW1 1887   3.269   3.285   2.895
 1909SOL    HW2 1888   3.313   3.191   2.769
 1911SOL     OW 1889   2.460   2.591   2.132
 1911SOL    HW1 1890   2.484   2.660   2.064
 1911SOL    HW2 1891   2.382   2.624   2.186
 1912SOL     OW 1892   3.143   2.207   2.806
 1912SOL    HW1 1893   3.057   2.157   2.793
 1912SOL    HW2 1894   3.205   2.153   2.862
 1914SOL     OW 1895   2.669   2.467   3.327
 1914SOL    HW1 1896   2.622   2.464   3.416
 1914SOL    HW2 1897   2.618   2.412   3.261
 1915SOL     OW 1898   3.256   2.331   3.536
 1915SOL    HW1 1899   3.236   2.374   3.624
 1915SOL    HW2 1900   3.334   2.269   3.545
 1916SOL     OW 1901   2.835   2.752   3.434
 1916SOL    HW1 1902   2.881   2.668   3.405
 1916SOL    HW2 1903   2.779   2.786   3.359
 1917SOL     OW 1904   2.853   2.272   3.104
 1917SOL    HW1 1905   2.776   2.306   3.158
 1917SOL    HW2 1906   2.819   2.221   3.025
 1918SOL     OW 1907   2.903   2.563   2.291
 1918SOL    HW1 1908   2.929   2.559   2.387
 1918SOL    HW2 1909   2.818   2.512   2.277
 1919SOL     OW 1910   1.938   2.673   2.651
 1919SOL    HW1 1911   2.037   2.661   2.660
 1919SOL    HW2 1912   1.914   2.768   2.672
 1921SOL     OW 1913   2.727   2.210   2.057
 1921SOL    HW1 1914   2.786   2.273   2.008
 1921SOL    HW2 1915   2.746   2.116   2.028
 1923SOL     OW 1916   3.224   3.006   2.407
 1923SOL    HW1 1917   3.307   2.977   2.359
 1923SOL    HW2 1918   3.175   3.073   2.351
 1924SOL     OW 1919   2.412   2.058   2.747
 1924SOL    HW1 1920   2.407   2.053   2.847
 1924SOL    HW2 1921   2.414   2.154   2.718
 1925SOL     OW 1922   2.870   3.318   2.339
 1925SOL    HW1 1923   2.824   3.390   2.287
 1925SOL    HW2 1924   2.866   3.338   2.437
 1926SOL     OW 1925   2.213   3.663   2.715
 1926SOL    HW1 1926   2.263   3.577   2.721
 1926SOL    HW2 1927   2.278   3.740   2.712
 1927SOL     OW 1928   3.657   2.928   2.735
 1927SOL    HW1 1929   3.595   2.913   2.659
 1927SOL    HW2 1930   3.605   2.939   2.820
 1929SOL     OW 1931   2.183   2.805   2.104
 1929SOL    HW1 1932   2.265   2.844   2.062
 1929SOL    HW2 1933   2.156   2.723   2.055
 1930SOL     OW 1934   3.320   2.597   2.590
 1930SOL    HW1 1935   3.315   2.532   2.665
 1930SOL    HW2 1936   3.400   2.656   2.603
 1931SOL     OW 1937   2.323   3.128   3.589
 1931SOL    HW1 1938   2.273   3.129   3.503
 1931SOL    HW2 1939   2.260   3.110   3.665
 1932SOL     OW 1940   2.973   3.638   2.099
 1932SOL    HW1 1941   2.913   3.576   2.149
 1932SOL    HW2 1942   3.004   3.594   2.014
 1933SOL     OW 1943   2.064   2.147   3.360
 1933SOL    HW1 1944   1.984   2.207   3.347
 1933SOL    HW2 1945   2.054   2.098   3.446
 1934SOL     OW 1946   3.494   3.239   1.943
 1934SOL    HW1 1947   3.462   3.333   1.933
 1934SOL    HW2 1948   3.418   3.176   1.931
 1935SOL     OW 1949   2.326   3.605   2.185
 1935SOL    HW1 1950   2.359   3.644   2.271
 1935SOL    HW2 1951   2.402   3.598   2.120
 1936SOL     OW 1952   3.262   1.969   2.288
 1936SOL    HW1 1953   3.238   1.932   2.198
 1936SOL    HW2 1954   3.361   1.985   2.292
 1937SOL     OW 1955   2.111   3.647   3.103
 1937SOL    HW1 1956   2.168   3.582   3.153
 1937SOL    HW2 1957   2.095   3.614   3.010
 1938SOL     OW 1958   2.802   3.560   2.766
 1938SOL    HW1 1959   2.882   3.503   2.787
 1938SOL    HW2 1960   2.753   3.520   2.689
 1939SOL     OW 1961   2.244   2.562   2.342
 1939SOL    HW1 1962   2.289   2.472   2.339
 1939SOL    HW2 1963   2.150   2.551   2.375
 1941SOL     OW 1964   2.476   1.984   1.979
 1941SOL    HW1 1965   2.574   1.962   1.986
 1941SOL    HW2 1966   2.445   1.967   1.886
 1942SOL     OW 1967   2.643   2.126   3.611
 1942SOL    HW1 1968   2.710   2.065   3.654
 1942SOL    HW2 1969   2.570   2.145   3.676
 1943SOL     OW 1970   2.750   3.376   3.057
 1943SOL    HW1 1971   2.727   3.351   2.963
 1943SOL    HW2 1972   2.811   3.307   3.096
 1944SOL     OW 1973   3.213   2.452   3.295
 1944SOL    HW1 1974   3.241   2.409   3.380
 1944SOL    HW2 1975   3.238   2.548   3.296
 1945SOL     OW 1976   2.665   3.264   2.786
 1945SOL    HW1 1977   2.755   3.278   2.744
 1945SOL    HW2 1978   2.594   3.266   2.715
 1946SOL     OW 1979   2.784   2.365   2.761
 1946SOL    HW1 1980   2.759   2.356   2.665
 1946SOL    HW2 1981   2.832   2.283   2.792
 1947SOL     OW 1982   3.296   3.050   1.903
 1947SOL    HW1 1983   3.328   2.974   1.960
 1947SOL    HW2 1984   3.204   3.077   1.933
 1948SOL     OW 1985   2.159   1.897   2.033
 1948SOL    HW1 1986   2.208   1.981   2.012
 1948SOL    HW2 1987   2.221   1.832   2.078
 1949SOL     OW 1988   2.797   2.098   2.342
 1949SOL    HW1 1989   2.749   2.139   2.264
 1949SOL    HW2 1990   2.896   2.096   2.323
 1950SOL     OW 1991   2.938   2.545   3.326
 1950SOL    HW1 1992   2.858   2.484   3.329
 1950SOL    HW2 1993   3.019   2.492   3.302
 1951SOL     OW 1994   3.089   3.432   2.655
 1951SOL    HW1 1995   3.110   3.506   2.590
 1951SOL    HW2 1996   3.157   3.432   2.728
 1952SOL     OW 1997   2.321   3.014   2.603
 1952SOL    HW1 1998   2.250   2.987   2.668
 1952SOL    HW2 1999   2.295   2.986   2.510
 1953SOL     OW 2000   3.133   3.659   2.453
 1953SOL    HW1 2001   3.177   3.723   2.389
 1953SOL    HW2 2002   3.083   3.711   2.523
 1954SOL     OW 2003   2.894   2.411   1.878
 1954SOL    HW1 2004   2.853   2.493   1.839
 1954SOL    HW2 2005   2.958   2.437   1.951
 1955SOL     OW 2006   1.940   2.418   3.248
 1955SOL    HW1 2007   2.032   2.417   3.207
 1955SOL    HW2 2008   1.934   2.492   3.315
 1956SOL     OW 2009   2.423   2.084   3.009
 1956SOL    HW1 2010   2.461   2.000   3.046
 1956SOL    HW2 2011   2.335   2.103   3.053
 1957SOL     OW 2012   2.728   2.316   2.504
 1957SOL    HW1 2013   2.696   2.388   2.442
 1957SOL    HW2 2014   2.752   2.235   2.451
 1958SOL     OW 2015   2.879   1.901   2.615
 1958SOL    HW1 2016   2.807   1.906   2.546
 1958SOL    HW2 2017   2.855   1.832   2.684
 1959SOL     OW 2018   3.291   3.035   2.729
 1959SOL    HW1 2019   3.236   2.951   2.722
 1959SOL    HW2 2020   3.317   3.064   2.637
 1960SOL     OW 2021   3.328   2.452   2.854
 1960SOL    HW1 2022   3.298   2.357   2.861
 1960SOL    HW2 2023   3.401   2.468   2.920
 1961SOL     OW 2024   3.719   2.695   2.239
 1961SOL    HW1 2025   3.761   2.631   2.303
 1961SOL    HW2 2026   3.681   2.644   2.161
 1962SOL     OW 2027   2.350   3.247   2.036
 1962SOL    HW1 2028   2.263   3.232   2.083
 1962SOL    HW2 2029   2.333   3.273   1.941
 1963SOL     OW 2030   3.526   3.142   2.519
 1963SOL    HW1 2031   3.625   3.150   2.533
 1963SOL    HW2 2032   3.481   3.226   2.550
 1964SOL     OW 2033   3.252   2.437   1.940
 1964SOL    HW1 2034   3.198   2.416   2.021
 1964SOL    HW2 2035   3.343   2.396   1.949
 1966SOL     OW 2036   2.926   3.209   3.202
 1966SOL    HW1 2037   2.846   3.186   3.257
 1966SOL    HW2 2038   3.009   3.183   3.251
 1968SOL     OW 2039   2.973   3.057   2.962
 1968SOL    HW1 2040   2.933   3.101   3.043
 1968SOL    HW2 2041   2.932   3.094   2.879
 1969SOL     OW 2042   3.500   2.961   2.941
 1969SOL    HW1 2043   3.505   3.042   3.000
 1969SOL    HW2 2044   3.414   2.963   2.890
 1970SOL     OW 2045   2.777   1.951   3.264
 1970SOL    HW1 2046   2.802   1.931   3.169
 1970SOL    HW2 2047   2.849   2.007   3.306
 1971SOL     OW 2048   2.842   2.978   3.581
 1971SOL    HW1 2049   2.743   2.984   3.591
 1971SOL    HW2 2050   2.865   2.898   3.525
 1972SOL     OW 2051   2.567   2.912   2.230
 1972SOL    HW1 2052   2.553   2.919   2.329
 1972SOL    HW2 2053   2.651   2.861   2.212
 1973SOL     OW 2054   2.272   2.675   3.113
 1973SOL    HW1 2055   2.358   2.687   3.163
 1973SOL    HW2 2056   2.230   2.588   3.140
 1974SOL     OW 2057   3.136   2.248   3.124
 1974SOL    HW1 2058   3.157   2.322   3.188
 1974SOL    HW2 2059   3.047   2.265   3.081
 1975SOL     OW 2060   1.926   3.426   3.193
 1975SOL    HW1 2061   1.880   3.508   3.159
 1975SOL    HW2 2062   2.024   3.445   3.202
 1976SOL     OW 2063   2.229   2.962   2.363
 1976SOL    HW1 2064   2.222   3.045   2.307
 1976SOL    HW2 2065   2.233   2.882   2.303
 1977SOL     OW 2066   2.428   2.399   2.727
 1977SOL    HW1 2067   2.440   2.465   2.653
 1977SOL    HW2 2068   2.474   2.433   2.810
 1978SOL     OW 2069   3.114   3.210   2.250
 1978SOL    HW1 2070   3.164   3.287   2.290
 1978SOL    HW2 2071   3.019   3.212   2.282
 1979SOL     OW 2072   3.134   3.307   3.004
 1979SOL    HW1 2073   3.181   3.320   3.091
 1979SOL    HW2 2074   3.068   3.233   3.013
 1980SOL     OW 2075   3.444   2.501   2.334
 1980SOL    HW1 2076   3.413   2.562   2.407
 1980SOL    HW2 2077   3.494   2.553   2.265
 1981SOL     OW 2078   2.216   3.372   3.191
 1981SOL    HW1 2079   2.195   3.328   3.104
 1981SOL    HW2 2080   2.313   3.398   3.194
 1982SOL     OW 2081   2.264   2.613   3.460
 1982SOL    HW1 2082   2.332   2.668   3.413
 1982SOL    HW2 2083   2.304   2.525   3.487
 1984SOL     OW 2084   2.875   1.967   3.632
 1984SOL    HW1 2085   2.881   2.052   3.580
 1984SOL    HW2 2086   2.907   1.891   3.575
 1985SOL     OW 2087   2.366   1.912   3.602
 1985SOL    HW1 2088   2.324   1.855   3.532
 1985SOL    HW2 2089   2.300   1.981   3.634
 1986SOL     OW 2090   2.435   2.732   2.891
 1986SOL    HW1 2091   2.479   2.821   2.882
 1986SOL    HW2 2092   2.372   2.732   2.968
 1987SOL     OW 2093   3.222   2.724   2.907
 1987SOL    HW1 2094   3.147   2.724   2.841
 1987SOL    HW2 2095   3.259   2.632   2.916
 1988SOL     OW 2096   3.071   2.387   2.137
 1988SOL    HW1 2097   3.084   2.303   2.191
 1988SOL    HW2 2098   3.042   2.461   2.197
 1989SOL     OW 2099   2.169   2.075   3.093
 1989SOL    HW1 2100   2.146   2.112   3.183
 1989SOL    HW2 2101   2.139   1.980   3.087
 1990SOL     OW 2102   1.899   3.172   3.144
 1990SOL    HW1 2103   1.952   3.123   3.212
 1990SOL    HW2 2104   1.921   3.270   3.149
 1991SOL     OW 2105   2.594   2.496   2.926
 1991SOL    HW1 2106   2.653   2.470   2.850
 1991SOL    HW2 2107   2.566   2.592   2.915
 1993SOL     OW 2108   2.169   1.925   2.480
 1993SOL    HW1 2109   2.158   2.019   2.513
 1993SOL    HW2 2110   2.164   1.862   2.557
 1994SOL     OW 2111   3.484   2.229   2.236
 1994SOL    HW1 2112   3.486   2.153   2.300
 1994SOL    HW2 2113   3.436   2.306   2.276
 1995SOL     OW 2114   2.885   2.628   2.828
 1995SOL    HW1 2115   2.900   2.649   2.924
 1995SOL    HW2 2116   2.855   2.533   2.819
 1998SOL     OW 2117   2.212   2.760   3.666
 1998SOL    HW1 2118   2.288   2.804   3.714
 1998SOL    HW2 2119   2.247   2.713   3.584
 1999SOL     OW 2120   3.402   2.136   1.987
 1999SOL    HW1 2121   3.341   2.061   2.010
 1999SOL    HW2 2122   3.424   2.188   2.070
 2000SOL     OW 2123   3.165   2.700   1.904
 2000SOL    HW1 2124   3.199   2.607   1.919
 2000SOL    HW2 2125   3.183   2.727   1.809
 2001SOL     OW 2126   2.930   3.195   2.711
 2001SOL    HW1 2127   2.937   3.111   2.656
 2001SOL    HW2 2128   2.992   3.264   2.675
 2002SOL     OW 2129   2.181   2.672   2.811
 2002SOL    HW1 2130   2.274   2.708   2.816
 2002SOL    HW2 2131   2.175   2.587   2.863
 2003SOL     OW 2132   2.201   2.371   2.868
 2003SOL    HW1 2133   2.149   2.288   2.851
 2003SOL    HW2 2134   2.278   2.376   2.804
 2004SOL     OW 2135   3.000   2.242   3.540
 2004SOL    HW1 2136   2.955   2.305   3.604
 2004SOL    HW2 2137   3.093   2.273   3.523
 2005SOL     OW 2138   3.022   2.069   3.339
 2005SOL    HW1 2139   3.022   2.133   3.416
 2005SOL    HW2 2140   3.050   2.117   3.256
 2006SOL     OW 2141   1.870   3.188   2.062
 2006SOL    HW1 2142   1.777   3.209   2.031
 2006SOL    HW2 2143   1.880   3.089   2.075
 2007SOL     OW 2144   1.950   3.663   2.789
 2007SOL    HW1 2145   1.908   3.577   2.762
 2007SOL    HW2 2146   2.044   3.666   2.755
 2008SOL     OW 2147   2.366   3.430   2.772
 2008SOL    HW1 2148   2.432   3.504   2.781
 2008SOL    HW2 2149   2.410   3.351   2.730
 2009SOL     OW 2150   2.864   2.658   3.100
 2009SOL    HW1 2151   2.905   2.626   3.186
 2009SOL    HW2 2152   2.768   2.631   3.097
 2010SOL     OW 2153   1.902   2.406   2.976
 2010SOL    HW1 2154   1.987   2.373   2.935
 2010SOL    HW2 2155   1.915   2.421   3.074
 2011SOL     OW 2156   2.051   2.382   3.584
 2011SOL    HW1 2157   2.110   2.342   3.514
 2011SOL    HW2 2158   1.993   2.453   3.543
 2012SOL     OW 2159   3.231   2.812   3.522
 2012SOL    HW1 2160   3.270   2.901   3.542
 2012SOL    HW2 2161   3.241   2.792   3.425
 2013SOL     OW 2162   2.677   2.434   2.187
 2013SOL    HW1 2163   2.684   2.345   2.141
 2013SOL    HW2 2164   2.583   2.468   2.179
 2014SOL     OW 2165   3.519   2.466   3.068
 2014SOL    HW1 2166   3.481   2.397   3.130
 2014SOL    HW2 2167   3.601   2.430   3.024
 2016SOL     OW 2168   2.533   2.326   3.131
 2016SOL    HW1 2169   2.499   2.237   3.101
 2016SOL    HW2 2170   2.559   2.380   3.051
 2018SOL     OW 2171   2.021   2.999   3.328
 2018SOL    HW1 2172   2.043   2.938   3.404
 2018SOL    HW2 2173   2.031   2.950   3.242
 2019SOL     OW 2174   3.209   2.921   3.096
 2019SOL    HW1 2175   3.233   2.858   3.022
 2019SOL    HW2 2176   3.119   2.961   3.078
 2020SOL     OW 2177   3.164   2.717   2.171
 2020SOL    HW1 2178   3.078   2.686   2.213
 2020SOL    HW2 2179   3.160   2.703   2.072
 2023SOL     OW 2180   1.945   3.120   2.884
 2023SOL    HW1 2181   1.940   3.119   2.984
 2023SOL    HW2 2182   1.862   3.079   2.846
 2025SOL     OW 2183   3.588   1.997   2.385
 2025SOL    HW1 2184   3.661   1.980   2.318
 2025SOL    HW2 2185   3.557   1.910   2.423
 2026SOL     OW 2186   3.250   3.435   2.339
 2026SOL    HW1 2187   3.317   3.447   2.265
 2026SOL    HW2 2188   3.210   3.524   2.362
 2028SOL     OW 2189   3.142   2.789   2.534
 2028SOL    HW1 2190   3.202   2.708   2.536
 2028SOL    HW2 2191   3.182   2.858   2.474
 2029SOL     OW 2192   2.692   3.135   3.284
 2029SOL    HW1 2193   2.687   3.168   3.379
 2029SOL    HW2 2194   2.606   3.154   3.238
 2030SOL     OW 2195   2.534   3.478   2.016
 2030SOL    HW1 2196   2.543   3.488   1.917
 2030SOL    HW2 2197   2.494   3.389   2.037
 2032SOL     OW 2198   3.703   2.037   2.825
 2032SOL    HW1 2199   3.742   1.952   2.789
 2032SOL    HW2 2200   3.605   2.039   2.806
 2033SOL     OW 2201   2.125   2.188   2.582
 2033SOL    HW1 2202   2.046   2.239   2.548
 2033SOL    HW2 2203   2.116   2.173   2.680
 2034SOL     OW 2204   3.056   3.474   1.893
 2034SOL    HW1 2205   3.062   3.381   1.930
 2034SOL    HW2 2206   2.997   3.474   1.813
 2035SOL     OW 2207   2.684   2.864   3.234
 2035SOL    HW1 2208   2.724   2.863   3.142
 2035SOL    HW2 2209   2.694   2.956   3.274
 2036SOL     OW 2210   2.778   2.772   2.153
 2036SOL    HW1 2211   2.841   2.810   2.085
 2036SOL    HW2 2212   2.818   2.689   2.192
 2037SOL     OW 2213   3.366   3.469   1.906
 2037SOL    HW1 2214   3.274   3.506   1.913
 2037SOL    HW2 2215   3.404   3.489   1.816
 2038SOL     OW 2216   2.234   3.150   3.352
 2038SOL    HW1 2217   2.221   3.243   3.318
 2038SOL    HW2 2218   2.150   3.098   3.339
 2040SOL     OW 2219   2.901   2.960   2.558
 2040SOL    HW1 2220   2.831   2.913   2.612
 2040SOL    HW2 2221   2.960   2.892   2.515
 2041SOL     OW 2222   2.876   2.098   2.833
 2041SOL    HW1 2223   2.868   2.062   2.740
 2041SOL    HW2 2224   2.874   2.022   2.898
 2042SOL     OW 2225   2.452   3.349   2.353
 2042SOL    HW1 2226   2.494   3.291   2.283
 2042SOL    HW2 2227   2.408   3.428   2.309
 2043SOL     OW 2228   3.571   2.247   3.243
 2043SOL    HW1 2229   3.644   2.316   3.247
 2043SOL    HW2 2230   3.599   2.172   3.184
 2044SOL     OW 2231   2.117   3.210   2.152
 2044SOL    HW1 2232   2.021   3.211   2.125
 2044SOL    HW2 2233   2.129   3.263   2.236
 2045SOL     OW 2234   1.967   2.875   3.588
 2045SOL    HW1 2235   1.890   2.842   3.642
 2045SOL    HW2 2236   2.052   2.845   3.630
 2046SOL     OW 2237   2.534   2.065   3.351
 2046SOL    HW1 2238   2.624   2.049   3.311
 2046SOL    HW2 2239   2.542   2.070   3.450
 2047SOL     OW 2240   1.937   2.207   1.895
 2047SOL    HW1 2241   1.845   2.179   1.866
 2047SOL    HW2 2242   1.968   2.284   1.839
 2048SOL     OW 2243   3.302   2.718   3.260
 2048SOL    HW1 2244   3.245   2.770   3.197
 2048SOL    HW2 2245   3.398   2.730   3.236
 2049SOL     OW 2246   1.934   2.028   2.180
 2049SOL    HW1 2247   1.917   2.111   2.126
 2049SOL    HW2 2248   2.024   1.991   2.158
 2050SOL     OW 2249   3.045   3.197   1.981
 2050SOL    HW1 2250   2.946   3.186   1.983
 2050SOL    HW2 2251   3.079   3.212   2.074
 2051SOL     OW 2252   2.475   2.704   3.293
 2051SOL    HW1 2253   2.531   2.785   3.276
 2051SOL    HW2 2254   2.534   2.624   3.296
 2053SOL     OW 2255   2.578   2.427   3.570
 2053SOL    HW1 2256   2.597   2.492   3.644
 2053SOL    HW2 2257   2.638   2.347   3.579
 2056SOL     OW 2258   3.536   2.745   3.116
 2056SOL    HW1 2259   3.509   2.656   3.079
 2056SOL    HW2 2260   3.537   2.813   3.043
 2057SOL     OW 2261   3.087   2.187   2.311
 2057SOL    HW1 2262   3.152   2.113   2.300
 2057SOL    HW2 2263   3.107   2.237   2.395
 2058SOL     OW 2264   2.456   2.607   2.514
 2058SOL    HW1 2265   2.506   2.692   2.495
 2058SOL    HW2 2266   2.368   2.609   2.466
 2061SOL     OW 2267   2.721   3.236   1.878
 2061SOL    HW1 2268   2.675   3.251   1.966
 2061SOL    HW2 2269   2.765   3.321   1.848
 2062SOL     OW 2270   2.523   3.652   2.815
 2062SOL    HW1 2271   2.477   3.740   2.802
 2062SOL    HW2 2272   2.622   3.664   2.808
 2063SOL     OW 2273   2.721   2.818   2.723
 2063SOL    HW1 2274   2.775   2.749   2.771
 2063SOL    HW2 2275   2.689   2.887   2.789
 2064SOL     OW 2276   2.945   2.846   1.949
 2064SOL    HW1 2277   2.922   2.899   1.867
 2064SOL    HW2 2278   3.026   2.790   1.930
 2067SOL     OW 2279   1.941   3.102   2.515
 2067SOL    HW1 2280   1.940   3.055   2.603
 2067SOL    HW2 2281   2.023   3.074   2.464
 2068SOL     OW 2282   2.534   3.253   3.486
 2068SOL    HW1 2283   2.456   3.203   3.524
 2068SOL    HW2 2284   2.531   3.348   3.517
 2069SOL     OW 2285   3.686   2.054   3.089
 2069SOL    HW1 2286   3.682   1.964   3.133
 2069SOL    HW2 2287   3.689   2.043   2.990
 2071SOL     OW 2288   2.179   2.409   3.142
 2071SOL    HW1 2289   2.217   2.350   3.214
 2071SOL    HW2 2290   2.219   2.383   3.054
 2072SOL     OW 2291   2.674   3.448   2.549
 2072SOL    HW1 2292   2.706   3.458   2.455
 2072SOL    HW2 2293   2.595   3.386   2.551
 2073SOL     OW 2294   3.286   2.076   2.974
 2073SOL    HW1 2295   3.338   2.011   3.029
 2073SOL    HW2 2296   3.237   2.139   3.035
 2074SOL     OW 2297   2.863   1.896   3.016
 2074SOL    HW1 2298   2.800   1.824   2.985
 2074SOL    HW2 2299   2.956   1.860   3.016
 2075SOL     OW 2300   2.632   3.192   2.163
 2075SOL    HW1 2301   2.586   3.105   2.180
 2075SOL    HW2 2302   2.723   3.189   2.204
 2076SOL     OW 2303   2.480   3.429   3.146
 2076SOL    HW1 2304   2.475   3.511   3.203
 2076SOL    HW2 2305   2.569   3.426   3.101
 2077SOL     OW 2306   3.214   1.914   2.030
 2077SOL    HW1 2307   3.249   1.873   1.946
 2077SOL    HW2 2308   3.124   1.876   2.050
 2078SOL     OW 2309   3.162   2.315   2.553
 2078SOL    HW1 2310   3.103   2.395   2.557
 2078SOL    HW2 2311   3.177   2.280   2.646
 2079SOL     OW 2312   3.455   2.083   2.744
 2079SOL    HW1 2313   3.371   2.082   2.798
 2079SOL    HW2 2314   3.457   2.166   2.688
 2080SOL     OW 2315   1.901   2.939   2.162
 2080SOL    HW1 2316   2.000   2.928   2.153
 2080SOL    HW2 2317   1.861   2.853   2.194
 2081SOL     OW 2318   2.737   3.508   2.199
 2081SOL    HW1 2319   2.660   3.473   2.145
 2081SOL    HW2 2320   2.705   3.579   2.261
 2082SOL     OW 2321   2.092   2.490   3.837
 2082SOL    HW1 2322   1.999   2.488   3.874
 2082SOL    HW2 2323   2.093   2.451   3.745
 2086SOL     OW 2324   2.468   2.826   3.847
 2086SOL    HW1 2325   2.475   2.910   3.793
 2086SOL    HW2 2326   2.514   2.839   3.935
 2106SOL     OW 2327   2.476   1.984   3.841
 2106SOL    HW1 2328   2.574   1.962   3.848
 2106SOL    HW2 2329   2.445   1.967   3.748
 2109SOL     OW 2330   2.159   1.897   3.895
 2109SOL    HW1 2331   2.208   1.981   3.874
 2109SOL    HW2 2332   2.221   1.832   3.940
 2113SOL     OW 2333   2.894   2.411   3.740
 2113SOL    HW1 2334   2.853   2.493   3.701
 2113SOL    HW2 2335   2.958   2.437   3.813
 2129SOL     OW 2336   2.335   2.362   3.915
 2129SOL    HW1 2337   2.396   2.442   3.919
 2129SOL    HW2 2338   2.240   2.393   3.922
 2139SOL     OW 2339   1.937   2.207   3.757
 2139SOL    HW1 2340   1.845   2.179   3.728
 2139SOL    HW2 2341   1.968   2.284   3.701
 2193SOL     OW 2342   2.366   3.774   1.740
 2193SOL    HW1 2343   2.324   3.717   1.670
 2193SOL    HW2 2344   2.300   3.843   1.772
 2235SOL     OW 2345   2.671   3.728   2.364
 2235SOL    HW1 2346   2.711   3.819   2.355
 2235SOL    HW2 2347   2.571   3.736   2.370
 2250SOL     OW 2348   2.476   3.846   1.979
 2250SOL    HW1 2349   2.574   3.824   1.986
 2250SOL    HW2 2350   2.445   3.829   1.886
 2254SOL     OW 2351   2.401   3.788   2.374
 2254SOL    HW1 2352   2.320   3.789   2.432
 2254SOL    HW2 2353   2.404   3.871   2.319
 2255SOL     OW 2354   2.159   3.759   2.033
 2255SOL    HW1 2355   2.208   3.843   2.012
 2255SOL    HW2 2356   2.221   3.694   2.078
 2260SOL     OW 2357   2.879   3.763   2.615
 2260SOL    HW1 2358   2.807   3.768   2.546
 2260SOL    HW2 2359   2.855   3.694   2.684
 2262SOL     OW 2360   2.389   3.980   2.190
 2262SOL    HW1 2361   2.416   3.921   2.115
 2262SOL    HW2 2362   2.389   4.075   2.159
 2272SOL     OW 2363   2.169   3.787   2.480
 2272SOL    HW1 2364   2.158   3.881   2.513
 2272SOL    HW2 2365   2.164   3.724   2.557
 2290SOL     OW 2366   1.934   3.890   2.180
 2290SOL    HW1 2367   1.917   3.973   2.126
 2290SOL    HW2 2368   2.024   3.853   2.158
 2386SOL     OW 2369   3.854   1.794   1.851
 2386SOL    HW1 2370   3.813   1.720   1.904
 2386SOL    HW2 2371   3.918   1.845   1.909
 2413SOL     OW 2372   3.751   1.596   1.979
 2413SOL    HW1 2373   3.732   1.500   2.000
 2413SOL    HW2 2374   3.718   1.654   2.054
 2453SOL     OW 2375   3.732   1.326   2.062
 2453SOL    HW1 2376   3.639   1.347   2.031
 2453SOL    HW2 2377   3.742   1.227   2.075
 2454SOL     OW 2378   3.812   1.801   2.789
 2454SOL    HW1 2379   3.770   1.715   2.762
 2454SOL    HW2 2380   3.906   1.804   2.755
 2521SOL     OW 2381   3.837   2.599   1.597
 2521SOL    HW1 2382   3.925   2.586   1.642
 2521SOL    HW2 2383   3.824   2.696   1.575
 2563SOL     OW 2384   3.913   2.382   1.722
 2563SOL    HW1 2385   3.972   2.342   1.652
 2563SOL    HW2 2386   3.855   2.453   1.681
 2587SOL     OW 2387   3.954   2.490   1.975
 2587SOL    HW1 2388   3.861   2.488   2.012
 2587SOL    HW2 2389   3.955   2.451   1.883
 2589SOL     OW 2390   3.743   2.230   2.509
 2589SOL    HW1 2391   3.661   2.273   2.548
 2589SOL    HW2 2392   3.715   2.157   2.446
 2596SOL     OW 2393   3.846   2.505   2.425
 2596SOL    HW1 2394   3.801   2.417   2.442
 2596SOL    HW2 2395   3.845   2.559   2.509
 2603SOL     OW 2396   3.800   2.673   2.651
 2603SOL    HW1 2397   3.899   2.661   2.660
 2603SOL    HW2 2398   3.776   2.768   2.672
 2640SOL     OW 2399   3.764   2.406   2.976
 2640SOL    HW1 2400   3.849   2.373   2.935
 2640SOL    HW2 2401   3.777   2.421   3.074
 2654SOL     OW 2402   3.799   2.207   1.895
 2654SOL    HW1 2403   3.707   2.179   1.866
 2654SOL    HW2 2404   3.830   2.284   1.839
 2655SOL     OW 2405   3.796   2.028   2.180
 2655SOL    HW1 2406   3.779   2.111   2.126
 2655SOL    HW2 2407   3.886   1.991   2.158
 2664SOL     OW 2408   3.763   2.939   2.162
 2664SOL    HW1 2409   3.862   2.928   2.153
 2664SOL    HW2 2410   3.723   2.853   2.194
   4.38511   4.38511   4.38511
