mobley_6620221_GMX.gro created by acpype (v: 2023.10.27) on Thu May 21 00:11:36 2026
 2428
    1MOL     C1    1   2.177   2.458   2.647
    1MOL     C2    2   2.247   2.337   2.649
    1MOL     C3    3   2.211   2.560   2.557
    1MOL     C4    4   2.352   2.321   2.559
    1MOL     C5    5   2.386   2.421   2.470
    1MOL     C6    6   2.318   2.542   2.469
    1MOL     C7    7   2.462   2.714   2.416
    1MOL     C8    8   2.439   2.203   2.537
    1MOL     C9    9   2.544   2.265   2.442
    1MOL    C10   10   2.674   2.300   2.516
    1MOL    C11   11   2.575   2.172   2.324
    1MOL    C12   12   2.599   2.899   2.329
    1MOL     N1   13   2.494   2.802   2.315
    1MOL     O1   14   2.522   2.706   2.522
    1MOL     O2   15   2.490   2.389   2.387
    1MOL     O3   16   2.350   2.642   2.378
    1MOL     H1   17   2.094   2.473   2.716
    1MOL     H2   18   2.220   2.258   2.718
    1MOL     H3   19   2.156   2.654   2.557
    1MOL     H4   20   2.483   2.164   2.629
    1MOL     H5   21   2.381   2.124   2.488
    1MOL     H6   22   2.745   2.350   2.449
    1MOL     H7   23   2.655   2.370   2.598
    1MOL     H8   24   2.722   2.210   2.557
    1MOL     H9   25   2.646   2.218   2.256
    1MOL    H10   26   2.616   2.077   2.359
    1MOL    H11   27   2.484   2.152   2.266
    1MOL    H12   28   2.558   2.987   2.379
    1MOL    H13   29   2.634   2.926   2.229
    1MOL    H14   30   2.681   2.858   2.387
    1MOL    H15   31   2.430   2.805   2.237
   14SOL     OW   32   1.460   1.505   1.339
   14SOL    HW1   33   1.484   1.599   1.365
   14SOL    HW2   34   1.444   1.451   1.421
   35SOL     OW   35   1.187   1.792   1.616
   35SOL    HW1   36   1.211   1.852   1.540
   35SOL    HW2   37   1.194   1.697   1.586
   95SOL     OW   38   1.754   1.223   1.588
   95SOL    HW1   39   1.845   1.184   1.575
   95SOL    HW2   40   1.762   1.319   1.612
   97SOL     OW   41   1.592   1.629   1.625
   97SOL    HW1   42   1.619   1.663   1.535
   97SOL    HW2   43   1.671   1.591   1.671
  127SOL     OW   44   1.859   1.518   1.605
  127SOL    HW1   45   1.873   1.545   1.510
  127SOL    HW2   46   1.942   1.540   1.658
  152SOL     OW   47   1.759   1.747   1.154
  152SOL    HW1   48   1.820   1.777   1.081
  152SOL    HW2   49   1.721   1.658   1.132
  163SOL     OW   50   1.650   1.720   1.394
  163SOL    HW1   51   1.703   1.730   1.310
  163SOL    HW2   52   1.623   1.810   1.428
  219SOL     OW   53   1.555   1.511   2.565
  219SOL    HW1   54   1.498   1.495   2.646
  219SOL    HW2   55   1.496   1.521   2.485
  227SOL     OW   56   1.460   1.505   3.201
  227SOL    HW1   57   1.484   1.599   3.227
  227SOL    HW2   58   1.444   1.451   3.283
  238SOL     OW   59   1.842   1.767   2.221
  238SOL    HW1   60   1.896   1.738   2.301
  238SOL    HW2   61   1.872   1.857   2.192
  240SOL     OW   62   1.689   0.922   2.474
  240SOL    HW1   63   1.784   0.893   2.482
  240SOL    HW2   64   1.681   0.987   2.399
  241SOL     OW   65   1.641   1.108   2.294
  241SOL    HW1   66   1.727   1.110   2.242
  241SOL    HW2   67   1.655   1.155   2.382
  247SOL     OW   68   1.525   0.999   2.052
  247SOL    HW1   69   1.462   0.923   2.065
  247SOL    HW2   70   1.573   1.017   2.138
  248SOL     OW   71   1.187   1.792   3.478
  248SOL    HW1   72   1.211   1.852   3.402
  248SOL    HW2   73   1.194   1.697   3.448
  250SOL     OW   74   1.466   1.417   2.815
  250SOL    HW1   75   1.407   1.423   2.895
  250SOL    HW2   76   1.451   1.329   2.769
  251SOL     OW   77   1.667   1.714   2.434
  251SOL    HW1   78   1.626   1.691   2.346
  251SOL    HW2   79   1.649   1.640   2.499
  254SOL     OW   80   1.576   1.662   2.169
  254SOL    HW1   81   1.665   1.708   2.172
  254SOL    HW2   82   1.555   1.638   2.074
  264SOL     OW   83   1.362   1.144   2.407
  264SOL    HW1   84   1.445   1.115   2.359
  264SOL    HW2   85   1.313   1.211   2.351
  266SOL     OW   86   1.008   1.456   2.339
  266SOL    HW1   87   0.962   1.528   2.287
  266SOL    HW2   88   1.004   1.476   2.437
  268SOL     OW   89   1.795   1.066   2.735
  268SOL    HW1   90   1.733   1.051   2.659
  268SOL    HW2   91   1.743   1.077   2.820
  269SOL     OW   92   1.227   1.550   3.368
  269SOL    HW1   93   1.233   1.473   3.432
  269SOL    HW2   94   1.175   1.524   3.288
  273SOL     OW   95   1.111   1.776   2.099
  273SOL    HW1   96   1.051   1.714   2.149
  273SOL    HW2   97   1.142   1.732   2.014
  275SOL     OW   98   1.632   1.377   1.943
  275SOL    HW1   99   1.600   1.471   1.933
  275SOL    HW2  100   1.556   1.314   1.931
  279SOL     OW  101   0.940   1.698   2.766
  279SOL    HW1  102   1.020   1.641   2.787
  279SOL    HW2  103   0.891   1.658   2.689
  289SOL     OW  104   1.434   1.188   1.903
  289SOL    HW1  105   1.466   1.112   1.960
  289SOL    HW2  106   1.342   1.215   1.933
  293SOL     OW  107   1.227   1.570   2.655
  293SOL    HW1  108   1.248   1.644   2.590
  293SOL    HW2  109   1.295   1.570   2.728
  295SOL     OW  110   1.271   1.797   2.453
  295SOL    HW1  111   1.315   1.861   2.389
  295SOL    HW2  112   1.221   1.849   2.523
  301SOL     OW  113   1.429   1.173   2.729
  301SOL    HW1  114   1.374   1.089   2.722
  301SOL    HW2  115   1.455   1.202   2.637
  303SOL     OW  116   1.857   0.833   2.239
  303SOL    HW1  117   1.899   0.769   2.303
  303SOL    HW2  118   1.819   0.782   2.161
  305SOL     OW  119   1.664   1.280   2.519
  305SOL    HW1  120   1.763   1.288   2.533
  305SOL    HW2  121   1.619   1.364   2.550
  308SOL     OW  122   1.754   1.223   3.450
  308SOL    HW1  123   1.845   1.184   3.437
  308SOL    HW2  124   1.762   1.319   3.474
  310SOL     OW  125   1.592   1.629   3.487
  310SOL    HW1  126   1.619   1.663   3.397
  310SOL    HW2  127   1.671   1.591   3.533
  312SOL     OW  128   1.638   1.099   2.941
  312SOL    HW1  129   1.643   1.180   3.000
  312SOL    HW2  130   1.552   1.101   2.890
  321SOL     OW  131   1.252   1.348   2.250
  321SOL    HW1  132   1.302   1.425   2.290
  321SOL    HW2  133   1.157   1.350   2.282
  322SOL     OW  134   1.272   1.445   3.004
  322SOL    HW1  135   1.319   1.458   3.091
  322SOL    HW2  136   1.206   1.371   3.013
  340SOL     OW  137   1.859   1.518   3.467
  340SOL    HW1  138   1.873   1.545   3.372
  340SOL    HW2  139   1.942   1.540   3.520
  365SOL     OW  140   1.759   1.747   3.016
  365SOL    HW1  141   1.820   1.777   2.943
  365SOL    HW2  142   1.721   1.658   2.994
  366SOL     OW  143   1.252   1.731   2.990
  366SOL    HW1  144   1.336   1.736   2.936
  366SOL    HW2  145   1.229   1.635   3.008
  370SOL     OW  146   1.388   1.573   2.339
  370SOL    HW1  147   1.455   1.585   2.265
  370SOL    HW2  148   1.348   1.662   2.362
  375SOL     OW  149   1.650   1.720   3.256
  375SOL    HW1  150   1.703   1.730   3.172
  375SOL    HW2  151   1.623   1.810   3.290
  378SOL     OW  152   1.194   1.612   1.893
  378SOL    HW1  153   1.200   1.519   1.930
  378SOL    HW2  154   1.135   1.612   1.813
  381SOL     OW  155   1.504   1.607   1.906
  381SOL    HW1  156   1.412   1.644   1.913
  381SOL    HW2  157   1.542   1.627   1.816
  383SOL     OW  158   1.614   1.292   3.151
  383SOL    HW1  159   1.674   1.295   3.231
  383SOL    HW2  160   1.539   1.356   3.164
  394SOL     OW  161   1.183   1.335   1.981
  394SOL    HW1  162   1.084   1.324   1.983
  394SOL    HW2  163   1.217   1.350   2.074
  396SOL     OW  164   1.493   1.767   2.821
  396SOL    HW1  165   1.526   1.831   2.752
  396SOL    HW2  166   1.559   1.761   2.896
  409SOL     OW  167   1.861   1.569   2.713
  409SOL    HW1  168   1.790   1.557   2.643
  409SOL    HW2  169   1.862   1.490   2.773
  415SOL     OW  170   1.705   1.487   2.966
  415SOL    HW1  171   1.612   1.462   2.939
  415SOL    HW2  172   1.731   1.437   3.048
  569SOL     OW  173   0.850   2.660   1.823
  569SOL    HW1  174   0.846   2.736   1.888
  569SOL    HW2  175   0.872   2.696   1.732
  573SOL     OW  176   1.460   3.367   1.339
  573SOL    HW1  177   1.484   3.461   1.365
  573SOL    HW2  178   1.444   3.313   1.421
  577SOL     OW  179   1.127   3.203   1.690
  577SOL    HW1  180   1.174   3.203   1.778
  577SOL    HW2  181   1.079   3.116   1.679
  582SOL     OW  182   1.594   1.976   1.480
  582SOL    HW1  183   1.576   2.043   1.408
  582SOL    HW2  184   1.591   2.022   1.569
  590SOL     OW  185   1.293   3.090   1.423
  590SOL    HW1  186   1.330   3.017   1.365
  590SOL    HW2  187   1.345   3.095   1.508
  602SOL     OW  188   1.394   2.331   1.674
  602SOL    HW1  189   1.374   2.374   1.762
  602SOL    HW2  190   1.472   2.269   1.683
  603SOL     OW  191   0.973   2.752   1.572
  603SOL    HW1  192   1.019   2.668   1.543
  603SOL    HW2  193   0.917   2.786   1.497
  609SOL     OW  194   1.719   2.447   1.831
  609SOL    HW1  195   1.693   2.536   1.795
  609SOL    HW2  196   1.717   2.379   1.758
  614SOL     OW  197   1.795   2.928   0.873
  614SOL    HW1  198   1.733   2.913   0.797
  614SOL    HW2  199   1.743   2.939   0.958
  627SOL     OW  200   1.547   2.084   1.729
  627SOL    HW1  201   1.542   2.121   1.821
  627SOL    HW2  202   1.475   2.015   1.717
  631SOL     OW  203   1.351   2.452   1.433
  631SOL    HW1  204   1.379   2.409   1.518
  631SOL    HW2  205   1.376   2.548   1.434
  638SOL     OW  206   1.076   2.545   1.464
  638SOL    HW1  207   0.996   2.484   1.467
  638SOL    HW2  208   1.157   2.492   1.440
  648SOL     OW  209   1.466   2.452   0.992
  648SOL    HW1  210   1.436   2.357   0.999
  648SOL    HW2  211   1.539   2.468   1.058
  654SOL     OW  212   1.754   3.085   1.588
  654SOL    HW1  213   1.845   3.046   1.575
  654SOL    HW2  214   1.762   3.181   1.612
  656SOL     OW  215   1.592   3.491   1.625
  656SOL    HW1  216   1.619   3.525   1.535
  656SOL    HW2  217   1.671   3.453   1.671
  658SOL     OW  218   1.638   2.961   1.079
  658SOL    HW1  219   1.643   3.042   1.138
  658SOL    HW2  220   1.552   2.963   1.028
  660SOL     OW  221   0.980   2.978   1.719
  660SOL    HW1  222   0.881   2.984   1.729
  660SOL    HW2  223   1.003   2.898   1.663
  663SOL     OW  224   1.274   2.248   1.262
  663SOL    HW1  225   1.295   2.322   1.326
  663SOL    HW2  226   1.185   2.265   1.219
  672SOL     OW  227   1.587   2.641   1.670
  672SOL    HW1  228   1.495   2.679   1.665
  672SOL    HW2  229   1.647   2.688   1.605
  673SOL     OW  230   1.013   1.967   1.770
  673SOL    HW1  231   1.019   2.052   1.718
  673SOL    HW2  232   1.045   1.891   1.713
  681SOL     OW  233   1.728   2.797   1.854
  681SOL    HW1  234   1.682   2.790   1.765
  681SOL    HW2  235   1.666   2.841   1.920
  686SOL     OW  236   1.859   3.380   1.605
  686SOL    HW1  237   1.873   3.407   1.510
  686SOL    HW2  238   1.942   3.402   1.658
  693SOL     OW  239   1.138   2.242   1.678
  693SOL    HW1  240   1.093   2.305   1.742
  693SOL    HW2  241   1.231   2.273   1.661
  694SOL     OW  242   1.160   2.069   1.477
  694SOL    HW1  243   1.160   2.133   1.554
  694SOL    HW2  244   1.188   2.117   1.394
  701SOL     OW  245   1.369   2.812   1.660
  701SOL    HW1  246   1.408   2.901   1.680
  701SOL    HW2  247   1.379   2.792   1.563
  703SOL     OW  248   1.657   2.466   1.206
  703SOL    HW1  249   1.619   2.397   1.268
  703SOL    HW2  250   1.739   2.430   1.162
  709SOL     OW  251   1.347   2.921   1.234
  709SOL    HW1  252   1.371   2.858   1.160
  709SOL    HW2  253   1.257   2.961   1.216
  722SOL     OW  254   1.650   3.582   1.394
  722SOL    HW1  255   1.703   3.592   1.310
  722SOL    HW2  256   1.623   3.672   1.428
  723SOL     OW  257   1.841   2.037   0.963
  723SOL    HW1  258   1.880   1.952   0.927
  723SOL    HW2  259   1.743   2.039   0.944
  730SOL     OW  260   1.614   3.154   1.289
  730SOL    HW1  261   1.674   3.157   1.369
  730SOL    HW2  262   1.539   3.218   1.302
  734SOL     OW  263   1.709   2.247   1.381
  734SOL    HW1  264   1.782   2.316   1.385
  734SOL    HW2  265   1.737   2.172   1.322
  739SOL     OW  266   1.440   2.718   1.398
  739SOL    HW1  267   1.383   2.770   1.335
  739SOL    HW2  268   1.536   2.730   1.374
  745SOL     OW  269   1.450   3.082   1.633
  745SOL    HW1  270   1.441   3.072   1.732
  745SOL    HW2  271   1.546   3.075   1.607
  747SOL     OW  272   1.674   2.745   1.254
  747SOL    HW1  273   1.647   2.656   1.217
  747SOL    HW2  274   1.675   2.813   1.181
  750SOL     OW  275   1.777   2.204   1.642
  750SOL    HW1  276   1.760   2.235   1.548
  750SOL    HW2  277   1.693   2.167   1.680
  751SOL     OW  278   1.730   2.796   1.517
  751SOL    HW1  279   1.768   2.887   1.532
  751SOL    HW2  280   1.722   2.779   1.418
  760SOL     OW  281   1.824   2.054   1.227
  760SOL    HW1  282   1.820   1.964   1.271
  760SOL    HW2  283   1.827   2.043   1.128
  762SOL     OW  284   1.705   3.349   1.104
  762SOL    HW1  285   1.612   3.324   1.077
  762SOL    HW2  286   1.731   3.299   1.186
  765SOL     OW  287   1.424   2.076   1.112
  765SOL    HW1  288   1.476   2.011   1.167
  765SOL    HW2  289   1.375   2.139   1.173
  778SOL     OW  290   1.555   3.373   2.565
  778SOL    HW1  291   1.498   3.357   2.646
  778SOL    HW2  292   1.496   3.383   2.485
  779SOL     OW  293   1.135   2.565   2.579
  779SOL    HW1  294   1.192   2.643   2.554
  779SOL    HW2  295   1.075   2.591   2.655
  780SOL     OW  296   1.755   2.469   2.093
  780SOL    HW1  297   1.743   2.456   1.994
  780SOL    HW2  298   1.725   2.388   2.142
  786SOL     OW  299   1.460   3.367   3.201
  786SOL    HW1  300   1.484   3.461   3.227
  786SOL    HW2  301   1.444   3.313   3.283
  788SOL     OW  302   1.603   2.309   2.599
  788SOL    HW1  303   1.529   2.355   2.549
  788SOL    HW2  304   1.654   2.377   2.652
  795SOL     OW  305   1.594   1.976   3.342
  795SOL    HW1  306   1.576   2.043   3.270
  795SOL    HW2  307   1.591   2.022   3.431
  797SOL     OW  308   1.842   3.629   2.221
  797SOL    HW1  309   1.896   3.600   2.301
  797SOL    HW2  310   1.872   3.719   2.192
  799SOL     OW  311   1.689   2.784   2.474
  799SOL    HW1  312   1.784   2.755   2.482
  799SOL    HW2  313   1.681   2.849   2.399
  800SOL     OW  314   1.641   2.970   2.294
  800SOL    HW1  315   1.727   2.972   2.242
  800SOL    HW2  316   1.655   3.017   2.382
  803SOL     OW  317   1.293   3.090   3.285
  803SOL    HW1  318   1.330   3.017   3.227
  803SOL    HW2  319   1.345   3.095   3.370
  804SOL     OW  320   0.809   1.866   2.364
  804SOL    HW1  321   0.849   1.957   2.355
  804SOL    HW2  322   0.709   1.874   2.370
  806SOL     OW  323   1.525   2.861   2.052
  806SOL    HW1  324   1.462   2.785   2.065
  806SOL    HW2  325   1.573   2.879   2.138
  809SOL     OW  326   1.466   3.279   2.815
  809SOL    HW1  327   1.407   3.285   2.895
  809SOL    HW2  328   1.451   3.191   2.769
  810SOL     OW  329   1.667   3.576   2.434
  810SOL    HW1  330   1.626   3.553   2.346
  810SOL    HW2  331   1.649   3.502   2.499
  812SOL     OW  332   1.281   2.207   2.806
  812SOL    HW1  333   1.195   2.157   2.793
  812SOL    HW2  334   1.343   2.153   2.862
  813SOL     OW  335   1.576   3.524   2.169
  813SOL    HW1  336   1.665   3.570   2.172
  813SOL    HW2  337   1.555   3.500   2.074
  815SOL     OW  338   1.394   2.331   3.536
  815SOL    HW1  339   1.374   2.374   3.624
  815SOL    HW2  340   1.472   2.269   3.545
  817SOL     OW  341   0.991   2.272   3.104
  817SOL    HW1  342   0.914   2.306   3.158
  817SOL    HW2  343   0.957   2.221   3.025
  818SOL     OW  344   1.041   2.563   2.291
  818SOL    HW1  345   1.067   2.559   2.387
  818SOL    HW2  346   0.956   2.512   2.277
  821SOL     OW  347   0.865   2.210   2.057
  821SOL    HW1  348   0.924   2.273   2.008
  821SOL    HW2  349   0.884   2.116   2.028
  822SOL     OW  350   1.719   2.447   3.693
  822SOL    HW1  351   1.693   2.536   3.657
  822SOL    HW2  352   1.717   2.379   3.620
  823SOL     OW  353   1.362   3.006   2.407
  823SOL    HW1  354   1.445   2.977   2.359
  823SOL    HW2  355   1.313   3.073   2.351
  825SOL     OW  356   1.008   3.318   2.339
  825SOL    HW1  357   0.962   3.390   2.287
  825SOL    HW2  358   1.004   3.338   2.437
  827SOL     OW  359   1.795   2.928   2.735
  827SOL    HW1  360   1.733   2.913   2.659
  827SOL    HW2  361   1.743   2.939   2.820
  830SOL     OW  362   1.458   2.597   2.590
  830SOL    HW1  363   1.453   2.532   2.665
  830SOL    HW2  364   1.538   2.656   2.603
  834SOL     OW  365   1.632   3.239   1.943
  834SOL    HW1  366   1.600   3.333   1.933
  834SOL    HW2  367   1.556   3.176   1.931
  836SOL     OW  368   1.400   1.969   2.288
  836SOL    HW1  369   1.376   1.932   2.198
  836SOL    HW2  370   1.499   1.985   2.292
  840SOL     OW  371   1.547   2.084   3.591
  840SOL    HW1  372   1.542   2.121   3.683
  840SOL    HW2  373   1.475   2.015   3.579
  844SOL     OW  374   1.351   2.452   3.295
  844SOL    HW1  375   1.379   2.409   3.380
  844SOL    HW2  376   1.376   2.548   3.296
  846SOL     OW  377   0.922   2.365   2.761
  846SOL    HW1  378   0.897   2.356   2.665
  846SOL    HW2  379   0.970   2.283   2.792
  848SOL     OW  380   1.434   3.050   1.903
  848SOL    HW1  381   1.466   2.974   1.960
  848SOL    HW2  382   1.342   3.077   1.933
  850SOL     OW  383   0.935   2.098   2.342
  850SOL    HW1  384   0.887   2.139   2.264
  850SOL    HW2  385   1.034   2.096   2.323
  851SOL     OW  386   1.076   2.545   3.326
  851SOL    HW1  387   0.996   2.484   3.329
  851SOL    HW2  388   1.157   2.492   3.302
  852SOL     OW  389   1.227   3.432   2.655
  852SOL    HW1  390   1.248   3.506   2.590
  852SOL    HW2  391   1.295   3.432   2.728
  854SOL     OW  392   1.271   3.659   2.453
  854SOL    HW1  393   1.315   3.723   2.389
  854SOL    HW2  394   1.221   3.711   2.523
  855SOL     OW  395   1.032   2.411   1.878
  855SOL    HW1  396   0.991   2.493   1.839
  855SOL    HW2  397   1.096   2.437   1.951
  858SOL     OW  398   0.866   2.316   2.504
  858SOL    HW1  399   0.834   2.388   2.442
  858SOL    HW2  400   0.890   2.235   2.451
  859SOL     OW  401   1.017   1.901   2.615
  859SOL    HW1  402   0.945   1.906   2.546
  859SOL    HW2  403   0.993   1.832   2.684
  860SOL     OW  404   1.429   3.035   2.729
  860SOL    HW1  405   1.374   2.951   2.722
  860SOL    HW2  406   1.455   3.064   2.637
  861SOL     OW  407   1.466   2.452   2.854
  861SOL    HW1  408   1.436   2.357   2.861
  861SOL    HW2  409   1.539   2.468   2.920
  862SOL     OW  410   1.857   2.695   2.239
  862SOL    HW1  411   1.899   2.631   2.303
  862SOL    HW2  412   1.819   2.644   2.161
  864SOL     OW  413   1.664   3.142   2.519
  864SOL    HW1  414   1.763   3.150   2.533
  864SOL    HW2  415   1.619   3.226   2.550
  865SOL     OW  416   1.390   2.437   1.940
  865SOL    HW1  417   1.336   2.416   2.021
  865SOL    HW2  418   1.481   2.396   1.949
  867SOL     OW  419   1.754   3.085   3.450
  867SOL    HW1  420   1.845   3.046   3.437
  867SOL    HW2  421   1.762   3.181   3.474
  868SOL     OW  422   1.064   3.209   3.202
  868SOL    HW1  423   0.984   3.186   3.257
  868SOL    HW2  424   1.147   3.183   3.251
  869SOL     OW  425   1.592   3.491   3.487
  869SOL    HW1  426   1.619   3.525   3.397
  869SOL    HW2  427   1.671   3.453   3.533
  870SOL     OW  428   1.111   3.057   2.962
  870SOL    HW1  429   1.071   3.101   3.043
  870SOL    HW2  430   1.070   3.094   2.879
  871SOL     OW  431   1.638   2.961   2.941
  871SOL    HW1  432   1.643   3.042   3.000
  871SOL    HW2  433   1.552   2.963   2.890
  876SOL     OW  434   1.274   2.248   3.124
  876SOL    HW1  435   1.295   2.322   3.188
  876SOL    HW2  436   1.185   2.265   3.081
  880SOL     OW  437   1.252   3.210   2.250
  880SOL    HW1  438   1.302   3.287   2.290
  880SOL    HW2  439   1.157   3.212   2.282
  881SOL     OW  440   1.272   3.307   3.004
  881SOL    HW1  441   1.319   3.320   3.091
  881SOL    HW2  442   1.206   3.233   3.013
  882SOL     OW  443   1.582   2.501   2.334
  882SOL    HW1  444   1.551   2.562   2.407
  882SOL    HW2  445   1.632   2.553   2.265
  885SOL     OW  446   1.587   2.641   3.532
  885SOL    HW1  447   1.495   2.679   3.527
  885SOL    HW2  448   1.647   2.688   3.467
  889SOL     OW  449   1.360   2.724   2.907
  889SOL    HW1  450   1.285   2.724   2.841
  889SOL    HW2  451   1.397   2.632   2.916
  890SOL     OW  452   1.209   2.387   2.137
  890SOL    HW1  453   1.222   2.303   2.191
  890SOL    HW2  454   1.180   2.461   2.197
  893SOL     OW  455   0.732   2.496   2.926
  893SOL    HW1  456   0.791   2.470   2.850
  893SOL    HW2  457   0.704   2.592   2.915
  894SOL     OW  458   1.728   2.797   3.716
  894SOL    HW1  459   1.682   2.790   3.627
  894SOL    HW2  460   1.666   2.841   3.782
  896SOL     OW  461   1.622   2.229   2.236
  896SOL    HW1  462   1.624   2.153   2.300
  896SOL    HW2  463   1.574   2.306   2.276
  897SOL     OW  464   1.023   2.628   2.828
  897SOL    HW1  465   1.038   2.649   2.924
  897SOL    HW2  466   0.993   2.533   2.819
  899SOL     OW  467   1.859   3.380   3.467
  899SOL    HW1  468   1.873   3.407   3.372
  899SOL    HW2  469   1.942   3.402   3.520
  901SOL     OW  470   1.540   2.136   1.987
  901SOL    HW1  471   1.479   2.061   2.010
  901SOL    HW2  472   1.562   2.188   2.070
  902SOL     OW  473   1.303   2.700   1.904
  902SOL    HW1  474   1.337   2.607   1.919
  902SOL    HW2  475   1.321   2.727   1.809
  903SOL     OW  476   1.068   3.195   2.711
  903SOL    HW1  477   1.075   3.111   2.656
  903SOL    HW2  478   1.130   3.264   2.675
  906SOL     OW  479   1.138   2.242   3.540
  906SOL    HW1  480   1.093   2.305   3.604
  906SOL    HW2  481   1.231   2.273   3.523
  907SOL     OW  482   1.160   2.069   3.339
  907SOL    HW1  483   1.160   2.133   3.416
  907SOL    HW2  484   1.188   2.117   3.256
  911SOL     OW  485   1.002   2.658   3.100
  911SOL    HW1  486   1.043   2.626   3.186
  911SOL    HW2  487   0.906   2.631   3.097
  914SOL     OW  488   1.369   2.812   3.522
  914SOL    HW1  489   1.408   2.901   3.542
  914SOL    HW2  490   1.379   2.792   3.425
  915SOL     OW  491   0.815   2.434   2.187
  915SOL    HW1  492   0.822   2.345   2.141
  915SOL    HW2  493   0.721   2.468   2.179
  916SOL     OW  494   1.657   2.466   3.068
  916SOL    HW1  495   1.619   2.397   3.130
  916SOL    HW2  496   1.739   2.430   3.024
  922SOL     OW  497   1.347   2.921   3.096
  922SOL    HW1  498   1.371   2.858   3.022
  922SOL    HW2  499   1.257   2.961   3.078
  923SOL     OW  500   1.302   2.717   2.171
  923SOL    HW1  501   1.216   2.686   2.213
  923SOL    HW2  502   1.298   2.703   2.072
  924SOL     OW  503   1.759   3.609   3.016
  924SOL    HW1  504   1.820   3.639   2.943
  924SOL    HW2  505   1.721   3.520   2.994
  925SOL     OW  506   1.252   3.593   2.990
  925SOL    HW1  507   1.336   3.598   2.936
  925SOL    HW2  508   1.229   3.497   3.008
  928SOL     OW  509   1.726   1.997   2.385
  928SOL    HW1  510   1.799   1.980   2.318
  928SOL    HW2  511   1.695   1.910   2.423
  929SOL     OW  512   1.388   3.435   2.339
  929SOL    HW1  513   1.455   3.447   2.265
  929SOL    HW2  514   1.348   3.524   2.362
  931SOL     OW  515   1.280   2.789   2.534
  931SOL    HW1  516   1.340   2.708   2.536
  931SOL    HW2  517   1.320   2.858   2.474
  934SOL     OW  518   1.650   3.582   3.256
  934SOL    HW1  519   1.703   3.592   3.172
  934SOL    HW2  520   1.623   3.672   3.290
  935SOL     OW  521   1.841   2.037   2.825
  935SOL    HW1  522   1.880   1.952   2.789
  935SOL    HW2  523   1.743   2.039   2.806
  937SOL     OW  524   1.194   3.474   1.893
  937SOL    HW1  525   1.200   3.381   1.930
  937SOL    HW2  526   1.135   3.474   1.813
  939SOL     OW  527   0.916   2.772   2.153
  939SOL    HW1  528   0.979   2.810   2.085
  939SOL    HW2  529   0.956   2.689   2.192
  940SOL     OW  530   1.504   3.469   1.906
  940SOL    HW1  531   1.412   3.506   1.913
  940SOL    HW2  532   1.542   3.489   1.816
  942SOL     OW  533   1.614   3.154   3.151
  942SOL    HW1  534   1.674   3.157   3.231
  942SOL    HW2  535   1.539   3.218   3.164
  943SOL     OW  536   1.039   2.960   2.558
  943SOL    HW1  537   0.969   2.913   2.612
  943SOL    HW2  538   1.098   2.892   2.515
  944SOL     OW  539   1.014   2.098   2.833
  944SOL    HW1  540   1.006   2.062   2.740
  944SOL    HW2  541   1.012   2.022   2.898
  946SOL     OW  542   1.709   2.247   3.243
  946SOL    HW1  543   1.782   2.316   3.247
  946SOL    HW2  544   1.737   2.172   3.184
  951SOL     OW  545   1.440   2.718   3.260
  951SOL    HW1  546   1.383   2.770   3.197
  951SOL    HW2  547   1.536   2.730   3.236
  953SOL     OW  548   1.183   3.197   1.981
  953SOL    HW1  549   1.084   3.186   1.983
  953SOL    HW2  550   1.217   3.212   2.074
  955SOL     OW  551   1.493   3.629   2.821
  955SOL    HW1  552   1.526   3.693   2.752
  955SOL    HW2  553   1.559   3.623   2.896
  957SOL     OW  554   1.450   3.082   3.495
  957SOL    HW1  555   1.441   3.072   3.594
  957SOL    HW2  556   1.546   3.075   3.469
  959SOL     OW  557   1.674   2.745   3.116
  959SOL    HW1  558   1.647   2.656   3.079
  959SOL    HW2  559   1.675   2.813   3.043
  960SOL     OW  560   1.225   2.187   2.311
  960SOL    HW1  561   1.290   2.113   2.300
  960SOL    HW2  562   1.245   2.237   2.395
  962SOL     OW  563   1.777   2.204   3.504
  962SOL    HW1  564   1.760   2.235   3.410
  962SOL    HW2  565   1.693   2.167   3.542
  963SOL     OW  566   1.730   2.796   3.379
  963SOL    HW1  567   1.768   2.887   3.394
  963SOL    HW2  568   1.722   2.779   3.280
  966SOL     OW  569   0.859   2.818   2.723
  966SOL    HW1  570   0.913   2.749   2.771
  966SOL    HW2  571   0.827   2.887   2.789
  967SOL     OW  572   1.083   2.846   1.949
  967SOL    HW1  573   1.060   2.899   1.867
  967SOL    HW2  574   1.164   2.790   1.930
  968SOL     OW  575   1.861   3.431   2.713
  968SOL    HW1  576   1.790   3.419   2.643
  968SOL    HW2  577   1.862   3.352   2.773
  972SOL     OW  578   1.824   2.054   3.089
  972SOL    HW1  579   1.820   1.964   3.133
  972SOL    HW2  580   1.827   2.043   2.990
  974SOL     OW  581   1.705   3.349   2.966
  974SOL    HW1  582   1.612   3.324   2.939
  974SOL    HW2  583   1.731   3.299   3.048
  977SOL     OW  584   1.424   2.076   2.974
  977SOL    HW1  585   1.476   2.011   3.029
  977SOL    HW2  586   1.375   2.139   3.035
  978SOL     OW  587   1.001   1.896   3.016
  978SOL    HW1  588   0.938   1.824   2.985
  978SOL    HW2  589   1.094   1.860   3.016
  981SOL     OW  590   1.352   1.914   2.030
  981SOL    HW1  591   1.387   1.873   1.946
  981SOL    HW2  592   1.262   1.876   2.050
  982SOL     OW  593   1.300   2.315   2.553
  982SOL    HW1  594   1.241   2.395   2.557
  982SOL    HW2  595   1.315   2.280   2.646
  983SOL     OW  596   1.593   2.083   2.744
  983SOL    HW1  597   1.509   2.082   2.798
  983SOL    HW2  598   1.595   2.166   2.688
  992SOL     OW  599   1.755   2.469   3.955
  992SOL    HW1  600   1.743   2.456   3.856
  992SOL    HW2  601   1.725   2.388   4.004
 1009SOL     OW  602   1.525   2.861   3.914
 1009SOL    HW1  603   1.462   2.785   3.927
 1009SOL    HW2  604   1.573   2.879   4.000
 1026SOL     OW  605   1.632   3.239   3.805
 1026SOL    HW1  606   1.600   3.333   3.795
 1026SOL    HW2  607   1.556   3.176   3.793
 1036SOL     OW  608   1.434   3.050   3.765
 1036SOL    HW1  609   1.466   2.974   3.822
 1036SOL    HW2  610   1.342   3.077   3.795
 1047SOL     OW  611   1.857   2.695   4.101
 1047SOL    HW1  612   1.899   2.631   4.165
 1047SOL    HW2  613   1.819   2.644   4.023
 1050SOL     OW  614   1.390   2.437   3.802
 1050SOL    HW1  615   1.336   2.416   3.883
 1050SOL    HW2  616   1.481   2.396   3.811
 1068SOL     OW  617   1.540   2.136   3.849
 1068SOL    HW1  618   1.479   2.061   3.872
 1068SOL    HW2  619   1.562   2.188   3.932
 1069SOL     OW  620   1.303   2.700   3.766
 1069SOL    HW1  621   1.337   2.607   3.781
 1069SOL    HW2  622   1.321   2.727   3.671
 1297SOL     OW  623   1.400   3.831   2.288
 1297SOL    HW1  624   1.376   3.794   2.198
 1297SOL    HW2  625   1.499   3.847   2.292
 1361SOL     OW  626   1.726   3.859   2.385
 1361SOL    HW1  627   1.799   3.842   2.318
 1361SOL    HW2  628   1.695   3.772   2.423
 1363SOL     OW  629   1.841   3.899   2.825
 1363SOL    HW1  630   1.880   3.814   2.789
 1363SOL    HW2  631   1.743   3.901   2.806
 1387SOL     OW  632   1.824   3.916   3.089
 1387SOL    HW1  633   1.820   3.826   3.133
 1387SOL    HW2  634   1.827   3.905   2.990
 1393SOL     OW  635   1.352   3.776   2.030
 1393SOL    HW1  636   1.387   3.735   1.946
 1393SOL    HW2  637   1.262   3.738   2.050
 1395SOL     OW  638   1.593   3.945   2.744
 1395SOL    HW1  639   1.509   3.944   2.798
 1395SOL    HW2  640   1.595   4.028   2.688
 1492SOL     OW  641   2.431   1.275   1.165
 1492SOL    HW1  642   2.338   1.268   1.128
 1492SOL    HW2  643   2.442   1.364   1.209
 1499SOL     OW  644   2.548   1.161   1.803
 1499SOL    HW1  645   2.608   1.240   1.817
 1499SOL    HW2  646   2.462   1.192   1.762
 1500SOL     OW  647   2.197   1.435   1.061
 1500SOL    HW1  648   2.119   1.404   1.008
 1500SOL    HW2  649   2.255   1.493   1.004
 1501SOL     OW  650   3.322   1.505   1.339
 1501SOL    HW1  651   3.346   1.599   1.365
 1501SOL    HW2  652   3.306   1.451   1.421
 1505SOL     OW  653   2.989   1.341   1.690
 1505SOL    HW1  654   3.036   1.341   1.778
 1505SOL    HW2  655   2.941   1.254   1.679
 1508SOL     OW  656   2.482   1.786   1.439
 1508SOL    HW1  657   2.390   1.769   1.474
 1508SOL    HW2  658   2.510   1.878   1.465
 1518SOL     OW  659   3.155   1.228   1.423
 1518SOL    HW1  660   3.192   1.155   1.365
 1518SOL    HW2  661   3.207   1.233   1.508
 1522SOL     OW  662   3.049   1.792   1.616
 1522SOL    HW1  663   3.073   1.852   1.540
 1522SOL    HW2  664   3.056   1.697   1.586
 1535SOL     OW  665   1.992   1.821   1.571
 1535SOL    HW1  666   1.982   1.806   1.670
 1535SOL    HW2  667   1.906   1.857   1.535
 1541SOL     OW  668   2.213   1.801   0.853
 1541SOL    HW1  669   2.263   1.715   0.859
 1541SOL    HW2  670   2.278   1.878   0.850
 1543SOL     OW  671   3.089   1.550   1.506
 1543SOL    HW1  672   3.095   1.473   1.570
 1543SOL    HW2  673   3.037   1.524   1.426
 1546SOL     OW  674   2.323   1.266   1.727
 1546SOL    HW1  675   2.273   1.267   1.641
 1546SOL    HW2  676   2.260   1.248   1.803
 1552SOL     OW  677   2.111   1.785   1.241
 1552SOL    HW1  678   2.168   1.720   1.291
 1552SOL    HW2  679   2.095   1.752   1.148
 1553SOL     OW  680   2.802   1.698   0.904
 1553SOL    HW1  681   2.882   1.641   0.925
 1553SOL    HW2  682   2.753   1.658   0.827
 1558SOL     OW  683   2.750   1.514   1.195
 1558SOL    HW1  684   2.727   1.489   1.101
 1558SOL    HW2  685   2.811   1.445   1.234
 1583SOL     OW  686   2.926   1.347   1.340
 1583SOL    HW1  687   2.846   1.324   1.395
 1583SOL    HW2  688   3.009   1.321   1.389
 1584SOL     OW  689   3.454   1.629   1.625
 1584SOL    HW1  690   3.481   1.663   1.535
 1584SOL    HW2  691   3.533   1.591   1.671
 1588SOL     OW  692   2.842   1.116   1.719
 1588SOL    HW1  693   2.743   1.122   1.729
 1588SOL    HW2  694   2.865   1.036   1.663
 1592SOL     OW  695   1.926   1.564   1.331
 1592SOL    HW1  696   1.880   1.646   1.297
 1592SOL    HW2  697   2.024   1.583   1.340
 1596SOL     OW  698   3.134   1.445   1.142
 1596SOL    HW1  699   3.181   1.458   1.229
 1596SOL    HW2  700   3.068   1.371   1.151
 1598SOL     OW  701   2.216   1.510   1.329
 1598SOL    HW1  702   2.195   1.466   1.242
 1598SOL    HW2  703   2.313   1.536   1.332
 1607SOL     OW  704   1.899   1.310   1.282
 1607SOL    HW1  705   1.952   1.261   1.350
 1607SOL    HW2  706   1.921   1.408   1.287
 1613SOL     OW  707   2.842   1.573   1.700
 1613SOL    HW1  708   2.822   1.617   1.612
 1613SOL    HW2  709   2.881   1.482   1.684
 1614SOL     OW  710   3.721   1.518   1.605
 1614SOL    HW1  711   3.735   1.545   1.510
 1614SOL    HW2  712   3.804   1.540   1.658
 1615SOL     OW  713   2.212   0.898   1.804
 1615SOL    HW1  714   2.288   0.942   1.852
 1615SOL    HW2  715   2.247   0.851   1.722
 1624SOL     OW  716   1.950   1.801   0.927
 1624SOL    HW1  717   1.908   1.715   0.900
 1624SOL    HW2  718   2.044   1.804   0.893
 1625SOL     OW  719   2.366   1.568   0.910
 1625SOL    HW1  720   2.432   1.642   0.919
 1625SOL    HW2  721   2.410   1.489   0.868
 1632SOL     OW  722   2.114   1.564   1.744
 1632SOL    HW1  723   2.084   1.621   1.820
 1632SOL    HW2  724   2.107   1.467   1.770
 1634SOL     OW  725   2.792   1.678   1.465
 1634SOL    HW1  726   2.768   1.660   1.370
 1634SOL    HW2  727   2.822   1.772   1.475
 1636SOL     OW  728   2.021   1.137   1.466
 1636SOL    HW1  729   2.043   1.076   1.542
 1636SOL    HW2  730   2.031   1.088   1.380
 1640SOL     OW  731   3.114   1.731   1.128
 1640SOL    HW1  732   3.198   1.736   1.074
 1640SOL    HW2  733   3.091   1.635   1.146
 1642SOL     OW  734   2.550   1.662   1.716
 1642SOL    HW1  735   2.494   1.743   1.725
 1642SOL    HW2  736   2.602   1.666   1.630
 1646SOL     OW  737   1.992   1.794   1.851
 1646SOL    HW1  738   1.951   1.720   1.904
 1646SOL    HW2  739   2.056   1.845   1.909
 1648SOL     OW  740   2.692   1.273   1.422
 1648SOL    HW1  741   2.687   1.306   1.517
 1648SOL    HW2  742   2.606   1.292   1.376
 1650SOL     OW  743   3.512   1.720   1.394
 1650SOL    HW1  744   3.565   1.730   1.310
 1650SOL    HW2  745   3.485   1.810   1.428
 1657SOL     OW  746   2.234   1.288   1.490
 1657SOL    HW1  747   2.221   1.381   1.456
 1657SOL    HW2  748   2.150   1.236   1.477
 1664SOL     OW  749   1.967   1.013   1.726
 1664SOL    HW1  750   1.890   0.980   1.780
 1664SOL    HW2  751   2.052   0.983   1.768
 1672SOL     OW  752   3.312   1.220   1.633
 1672SOL    HW1  753   3.303   1.210   1.732
 1672SOL    HW2  754   3.408   1.213   1.607
 1673SOL     OW  755   2.252   1.741   1.560
 1673SOL    HW1  756   2.161   1.782   1.558
 1673SOL    HW2  757   2.245   1.647   1.592
 1680SOL     OW  758   2.523   1.790   0.953
 1680SOL    HW1  759   2.477   1.878   0.940
 1680SOL    HW2  760   2.622   1.802   0.946
 1684SOL     OW  761   2.083   1.314   1.844
 1684SOL    HW1  762   2.018   1.241   1.823
 1684SOL    HW2  763   2.087   1.328   1.942
 1686SOL     OW  764   2.534   1.391   1.624
 1686SOL    HW1  765   2.456   1.341   1.662
 1686SOL    HW2  766   2.531   1.486   1.655
 1695SOL     OW  767   2.480   1.567   1.284
 1695SOL    HW1  768   2.475   1.649   1.341
 1695SOL    HW2  769   2.569   1.564   1.239
 1704SOL     OW  770   2.431   1.275   3.027
 1704SOL    HW1  771   2.338   1.268   2.990
 1704SOL    HW2  772   2.442   1.364   3.071
 1705SOL     OW  773   3.417   1.511   2.565
 1705SOL    HW1  774   3.360   1.495   2.646
 1705SOL    HW2  775   3.358   1.521   2.485
 1708SOL     OW  776   2.630   1.144   2.885
 1708SOL    HW1  777   2.552   1.161   2.945
 1708SOL    HW2  778   2.664   1.231   2.849
 1710SOL     OW  779   2.547   1.012   2.527
 1710SOL    HW1  780   2.616   0.996   2.597
 1710SOL    HW2  781   2.474   1.069   2.565
 1711SOL     OW  782   2.548   1.161   3.665
 1711SOL    HW1  783   2.608   1.240   3.679
 1711SOL    HW2  784   2.462   1.192   3.624
 1712SOL     OW  785   2.197   1.435   2.923
 1712SOL    HW1  786   2.119   1.404   2.870
 1712SOL    HW2  787   2.255   1.493   2.866
 1713SOL     OW  788   3.322   1.505   3.201
 1713SOL    HW1  789   3.346   1.599   3.227
 1713SOL    HW2  790   3.306   1.451   3.283
 1716SOL     OW  791   2.093   1.713   2.345
 1716SOL    HW1  792   2.127   1.790   2.399
 1716SOL    HW2  793   2.137   1.713   2.255
 1717SOL     OW  794   2.989   1.341   3.552
 1717SOL    HW1  795   3.036   1.341   3.640
 1717SOL    HW2  796   2.941   1.254   3.541
 1718SOL     OW  797   2.092   1.434   2.400
 1718SOL    HW1  798   2.066   1.530   2.400
 1718SOL    HW2  799   2.021   1.380   2.445
 1719SOL     OW  800   2.102   1.091   2.748
 1719SOL    HW1  801   2.116   1.007   2.800
 1719SOL    HW2  802   2.047   1.155   2.803
 1720SOL     OW  803   2.482   1.786   3.301
 1720SOL    HW1  804   2.390   1.769   3.336
 1720SOL    HW2  805   2.510   1.878   3.327
 1721SOL     OW  806   2.468   0.964   1.985
 1721SOL    HW1  807   2.475   1.048   1.931
 1721SOL    HW2  808   2.514   0.977   2.073
 1724SOL     OW  809   3.704   1.767   2.221
 1724SOL    HW1  810   3.758   1.738   2.301
 1724SOL    HW2  811   3.734   1.857   2.192
 1725SOL     OW  812   1.889   1.596   1.979
 1725SOL    HW1  813   1.870   1.500   2.000
 1725SOL    HW2  814   1.856   1.654   2.054
 1727SOL     OW  815   3.503   1.108   2.294
 1727SOL    HW1  816   3.589   1.110   2.242
 1727SOL    HW2  817   3.517   1.155   2.382
 1729SOL     OW  818   2.475   1.365   2.588
 1729SOL    HW1  819   2.426   1.278   2.597
 1729SOL    HW2  820   2.452   1.408   2.501
 1730SOL     OW  821   3.155   1.228   3.285
 1730SOL    HW1  822   3.192   1.155   3.227
 1730SOL    HW2  823   3.207   1.233   3.370
 1732SOL     OW  824   2.059   0.976   3.126
 1732SOL    HW1  825   2.148   0.931   3.112
 1732SOL    HW2  826   1.986   0.911   3.107
 1733SOL     OW  827   3.387   0.999   2.052
 1733SOL    HW1  828   3.324   0.923   2.065
 1733SOL    HW2  829   3.435   1.017   2.138
 1734SOL     OW  830   3.049   1.792   3.478
 1734SOL    HW1  831   3.073   1.852   3.402
 1734SOL    HW2  832   3.056   1.697   3.448
 1736SOL     OW  833   3.328   1.417   2.815
 1736SOL    HW1  834   3.269   1.423   2.895
 1736SOL    HW2  835   3.313   1.329   2.769
 1737SOL     OW  836   3.529   1.714   2.434
 1737SOL    HW1  837   3.488   1.691   2.346
 1737SOL    HW2  838   3.511   1.640   2.499
 1738SOL     OW  839   2.460   0.729   2.132
 1738SOL    HW1  840   2.484   0.798   2.064
 1738SOL    HW2  841   2.382   0.762   2.186
 1740SOL     OW  842   3.438   1.662   2.169
 1740SOL    HW1  843   3.527   1.708   2.172
 1740SOL    HW2  844   3.417   1.638   2.074
 1746SOL     OW  845   1.938   0.811   2.651
 1746SOL    HW1  846   2.037   0.799   2.660
 1746SOL    HW2  847   1.914   0.906   2.672
 1747SOL     OW  848   1.992   1.821   3.433
 1747SOL    HW1  849   1.982   1.806   3.532
 1747SOL    HW2  850   1.906   1.857   3.397
 1750SOL     OW  851   3.224   1.144   2.407
 1750SOL    HW1  852   3.307   1.115   2.359
 1750SOL    HW2  853   3.175   1.211   2.351
 1752SOL     OW  854   2.870   1.456   2.339
 1752SOL    HW1  855   2.824   1.528   2.287
 1752SOL    HW2  856   2.866   1.476   2.437
 1753SOL     OW  857   2.213   1.801   2.715
 1753SOL    HW1  858   2.263   1.715   2.721
 1753SOL    HW2  859   2.278   1.878   2.712
 1755SOL     OW  860   3.089   1.550   3.368
 1755SOL    HW1  861   3.095   1.473   3.432
 1755SOL    HW2  862   3.037   1.524   3.288
 1756SOL     OW  863   2.183   0.943   2.104
 1756SOL    HW1  864   2.265   0.982   2.062
 1756SOL    HW2  865   2.156   0.861   2.055
 1758SOL     OW  866   2.323   1.266   3.589
 1758SOL    HW1  867   2.273   1.267   3.503
 1758SOL    HW2  868   2.260   1.248   3.665
 1759SOL     OW  869   2.973   1.776   2.099
 1759SOL    HW1  870   2.913   1.714   2.149
 1759SOL    HW2  871   3.004   1.732   2.014
 1761SOL     OW  872   3.494   1.377   1.943
 1761SOL    HW1  873   3.462   1.471   1.933
 1761SOL    HW2  874   3.418   1.314   1.931
 1762SOL     OW  875   2.326   1.743   2.185
 1762SOL    HW1  876   2.359   1.782   2.271
 1762SOL    HW2  877   2.402   1.736   2.120
 1764SOL     OW  878   2.111   1.785   3.103
 1764SOL    HW1  879   2.168   1.720   3.153
 1764SOL    HW2  880   2.095   1.752   3.010
 1765SOL     OW  881   2.802   1.698   2.766
 1765SOL    HW1  882   2.882   1.641   2.787
 1765SOL    HW2  883   2.753   1.658   2.689
 1766SOL     OW  884   2.244   0.700   2.342
 1766SOL    HW1  885   2.289   0.610   2.339
 1766SOL    HW2  886   2.150   0.689   2.375
 1770SOL     OW  887   2.750   1.514   3.057
 1770SOL    HW1  888   2.727   1.489   2.963
 1770SOL    HW2  889   2.811   1.445   3.096
 1772SOL     OW  890   2.665   1.402   2.786
 1772SOL    HW1  891   2.755   1.416   2.744
 1772SOL    HW2  892   2.594   1.404   2.715
 1775SOL     OW  893   3.296   1.188   1.903
 1775SOL    HW1  894   3.328   1.112   1.960
 1775SOL    HW2  895   3.204   1.215   1.933
 1779SOL     OW  896   3.089   1.570   2.655
 1779SOL    HW1  897   3.110   1.644   2.590
 1779SOL    HW2  898   3.157   1.570   2.728
 1780SOL     OW  899   2.321   1.152   2.603
 1780SOL    HW1  900   2.250   1.125   2.668
 1780SOL    HW2  901   2.295   1.124   2.510
 1781SOL     OW  902   3.133   1.797   2.453
 1781SOL    HW1  903   3.177   1.861   2.389
 1781SOL    HW2  904   3.083   1.849   2.523
 1787SOL     OW  905   3.291   1.173   2.729
 1787SOL    HW1  906   3.236   1.089   2.722
 1787SOL    HW2  907   3.317   1.202   2.637
 1790SOL     OW  908   2.350   1.385   2.036
 1790SOL    HW1  909   2.263   1.370   2.083
 1790SOL    HW2  910   2.333   1.411   1.941
 1791SOL     OW  911   3.526   1.280   2.519
 1791SOL    HW1  912   3.625   1.288   2.533
 1791SOL    HW2  913   3.481   1.364   2.550
 1795SOL     OW  914   2.926   1.347   3.202
 1795SOL    HW1  915   2.846   1.324   3.257
 1795SOL    HW2  916   3.009   1.321   3.251
 1796SOL     OW  917   3.454   1.629   3.487
 1796SOL    HW1  918   3.481   1.663   3.397
 1796SOL    HW2  919   3.533   1.591   3.533
 1797SOL     OW  920   2.973   1.195   2.962
 1797SOL    HW1  921   2.933   1.239   3.043
 1797SOL    HW2  922   2.932   1.232   2.879
 1798SOL     OW  923   3.500   1.099   2.941
 1798SOL    HW1  924   3.505   1.180   3.000
 1798SOL    HW2  925   3.414   1.101   2.890
 1800SOL     OW  926   2.842   1.116   3.581
 1800SOL    HW1  927   2.743   1.122   3.591
 1800SOL    HW2  928   2.865   1.036   3.525
 1801SOL     OW  929   2.567   1.050   2.230
 1801SOL    HW1  930   2.553   1.057   2.329
 1801SOL    HW2  931   2.651   0.999   2.212
 1802SOL     OW  932   2.272   0.813   3.113
 1802SOL    HW1  933   2.358   0.825   3.163
 1802SOL    HW2  934   2.230   0.726   3.140
 1804SOL     OW  935   1.926   1.564   3.193
 1804SOL    HW1  936   1.880   1.646   3.159
 1804SOL    HW2  937   2.024   1.583   3.202
 1805SOL     OW  938   2.229   1.100   2.363
 1805SOL    HW1  939   2.222   1.183   2.307
 1805SOL    HW2  940   2.233   1.020   2.303
 1807SOL     OW  941   3.114   1.348   2.250
 1807SOL    HW1  942   3.164   1.425   2.290
 1807SOL    HW2  943   3.019   1.350   2.282
 1808SOL     OW  944   3.134   1.445   3.004
 1808SOL    HW1  945   3.181   1.458   3.091
 1808SOL    HW2  946   3.068   1.371   3.013
 1810SOL     OW  947   2.216   1.510   3.191
 1810SOL    HW1  948   2.195   1.466   3.104
 1810SOL    HW2  949   2.313   1.536   3.194
 1815SOL     OW  950   2.435   0.870   2.891
 1815SOL    HW1  951   2.479   0.959   2.882
 1815SOL    HW2  952   2.372   0.870   2.968
 1819SOL     OW  953   1.899   1.310   3.144
 1819SOL    HW1  954   1.952   1.261   3.212
 1819SOL    HW2  955   1.921   1.408   3.149
 1824SOL     OW  956   2.885   0.766   2.828
 1824SOL    HW1  957   2.900   0.787   2.924
 1824SOL    HW2  958   2.855   0.671   2.819
 1825SOL     OW  959   2.842   1.573   3.562
 1825SOL    HW1  960   2.822   1.617   3.474
 1825SOL    HW2  961   2.881   1.482   3.546
 1830SOL     OW  962   2.930   1.333   2.711
 1830SOL    HW1  963   2.937   1.249   2.656
 1830SOL    HW2  964   2.992   1.402   2.675
 1831SOL     OW  965   2.181   0.810   2.811
 1831SOL    HW1  966   2.274   0.846   2.816
 1831SOL    HW2  967   2.175   0.725   2.863
 1835SOL     OW  968   1.870   1.326   2.062
 1835SOL    HW1  969   1.777   1.347   2.031
 1835SOL    HW2  970   1.880   1.227   2.075
 1836SOL     OW  971   1.950   1.801   2.789
 1836SOL    HW1  972   1.908   1.715   2.762
 1836SOL    HW2  973   2.044   1.804   2.755
 1837SOL     OW  974   2.366   1.568   2.772
 1837SOL    HW1  975   2.432   1.642   2.781
 1837SOL    HW2  976   2.410   1.489   2.730
 1844SOL     OW  977   2.114   1.564   3.606
 1844SOL    HW1  978   2.084   1.621   3.682
 1844SOL    HW2  979   2.107   1.467   3.632
 1846SOL     OW  980   2.792   1.678   3.327
 1846SOL    HW1  981   2.768   1.660   3.232
 1846SOL    HW2  982   2.822   1.772   3.337
 1848SOL     OW  983   2.021   1.137   3.328
 1848SOL    HW1  984   2.043   1.076   3.404
 1848SOL    HW2  985   2.031   1.088   3.242
 1849SOL     OW  986   3.209   1.059   3.096
 1849SOL    HW1  987   3.233   0.996   3.022
 1849SOL    HW2  988   3.119   1.099   3.078
 1850SOL     OW  989   3.164   0.855   2.171
 1850SOL    HW1  990   3.078   0.824   2.213
 1850SOL    HW2  991   3.160   0.841   2.072
 1851SOL     OW  992   3.621   1.747   3.016
 1851SOL    HW1  993   3.682   1.777   2.943
 1851SOL    HW2  994   3.583   1.658   2.994
 1852SOL     OW  995   3.114   1.731   2.990
 1852SOL    HW1  996   3.198   1.736   2.936
 1852SOL    HW2  997   3.091   1.635   3.008
 1853SOL     OW  998   1.945   1.258   2.884
 1853SOL    HW1  999   1.940   1.257   2.984
 1853SOL    HW2 1000   1.862   1.217   2.846
 1854SOL     OW 1001   2.550   1.662   3.578
 1854SOL    HW1 1002   2.494   1.743   3.587
 1854SOL    HW2 1003   2.602   1.666   3.492
 1856SOL     OW 1004   3.250   1.573   2.339
 1856SOL    HW1 1005   3.317   1.585   2.265
 1856SOL    HW2 1006   3.210   1.662   2.362
 1857SOL     OW 1007   1.992   1.794   3.713
 1857SOL    HW1 1008   1.951   1.720   3.766
 1857SOL    HW2 1009   2.056   1.845   3.771
 1858SOL     OW 1010   3.142   0.927   2.534
 1858SOL    HW1 1011   3.202   0.846   2.536
 1858SOL    HW2 1012   3.182   0.996   2.474
 1859SOL     OW 1013   2.692   1.273   3.284
 1859SOL    HW1 1014   2.687   1.306   3.379
 1859SOL    HW2 1015   2.606   1.292   3.238
 1860SOL     OW 1016   2.534   1.616   2.016
 1860SOL    HW1 1017   2.543   1.626   1.917
 1860SOL    HW2 1018   2.494   1.527   2.037
 1861SOL     OW 1019   3.512   1.720   3.256
 1861SOL    HW1 1020   3.565   1.730   3.172
 1861SOL    HW2 1021   3.485   1.810   3.290
 1864SOL     OW 1022   3.056   1.612   1.893
 1864SOL    HW1 1023   3.062   1.519   1.930
 1864SOL    HW2 1024   2.997   1.612   1.813
 1865SOL     OW 1025   2.684   1.002   3.234
 1865SOL    HW1 1026   2.724   1.001   3.142
 1865SOL    HW2 1027   2.694   1.094   3.274
 1866SOL     OW 1028   2.778   0.910   2.153
 1866SOL    HW1 1029   2.841   0.948   2.085
 1866SOL    HW2 1030   2.818   0.827   2.192
 1867SOL     OW 1031   3.366   1.607   1.906
 1867SOL    HW1 1032   3.274   1.644   1.913
 1867SOL    HW2 1033   3.404   1.627   1.816
 1868SOL     OW 1034   2.234   1.288   3.352
 1868SOL    HW1 1035   2.221   1.381   3.318
 1868SOL    HW2 1036   2.150   1.236   3.339
 1869SOL     OW 1037   3.476   1.292   3.151
 1869SOL    HW1 1038   3.536   1.295   3.231
 1869SOL    HW2 1039   3.401   1.356   3.164
 1870SOL     OW 1040   2.901   1.098   2.558
 1870SOL    HW1 1041   2.831   1.051   2.612
 1870SOL    HW2 1042   2.960   1.030   2.515
 1872SOL     OW 1043   2.452   1.487   2.353
 1872SOL    HW1 1044   2.494   1.429   2.283
 1872SOL    HW2 1045   2.408   1.566   2.309
 1874SOL     OW 1046   2.117   1.348   2.152
 1874SOL    HW1 1047   2.021   1.349   2.125
 1874SOL    HW2 1048   2.129   1.401   2.236
 1880SOL     OW 1049   3.045   1.335   1.981
 1880SOL    HW1 1050   2.946   1.324   1.983
 1880SOL    HW2 1051   3.079   1.350   2.074
 1882SOL     OW 1052   3.355   1.767   2.821
 1882SOL    HW1 1053   3.388   1.831   2.752
 1882SOL    HW2 1054   3.421   1.761   2.896
 1885SOL     OW 1055   2.252   1.741   3.422
 1885SOL    HW1 1056   2.161   1.782   3.420
 1885SOL    HW2 1057   2.245   1.647   3.454
 1888SOL     OW 1058   2.456   0.745   2.514
 1888SOL    HW1 1059   2.506   0.830   2.495
 1888SOL    HW2 1060   2.368   0.747   2.466
 1891SOL     OW 1061   2.721   1.374   1.878
 1891SOL    HW1 1062   2.675   1.389   1.966
 1891SOL    HW2 1063   2.765   1.459   1.848
 1892SOL     OW 1064   2.523   1.790   2.815
 1892SOL    HW1 1065   2.477   1.878   2.802
 1892SOL    HW2 1066   2.622   1.802   2.808
 1893SOL     OW 1067   2.721   0.956   2.723
 1893SOL    HW1 1068   2.775   0.887   2.771
 1893SOL    HW2 1069   2.689   1.025   2.789
 1894SOL     OW 1070   2.945   0.984   1.949
 1894SOL    HW1 1071   2.922   1.037   1.867
 1894SOL    HW2 1072   3.026   0.928   1.930
 1895SOL     OW 1073   3.723   1.569   2.713
 1895SOL    HW1 1074   3.652   1.557   2.643
 1895SOL    HW2 1075   3.724   1.490   2.773
 1896SOL     OW 1076   2.083   1.314   3.706
 1896SOL    HW1 1077   2.018   1.241   3.685
 1896SOL    HW2 1078   2.087   1.328   3.804
 1897SOL     OW 1079   1.941   1.240   2.515
 1897SOL    HW1 1080   1.940   1.193   2.603
 1897SOL    HW2 1081   2.023   1.212   2.464
 1898SOL     OW 1082   2.534   1.391   3.486
 1898SOL    HW1 1083   2.456   1.341   3.524
 1898SOL    HW2 1084   2.531   1.486   3.517
 1901SOL     OW 1085   3.567   1.487   2.966
 1901SOL    HW1 1086   3.474   1.462   2.939
 1901SOL    HW2 1087   3.593   1.437   3.048
 1903SOL     OW 1088   2.674   1.586   2.549
 1903SOL    HW1 1089   2.706   1.596   2.455
 1903SOL    HW2 1090   2.595   1.524   2.551
 1906SOL     OW 1091   2.632   1.330   2.163
 1906SOL    HW1 1092   2.586   1.243   2.180
 1906SOL    HW2 1093   2.723   1.327   2.204
 1907SOL     OW 1094   2.480   1.567   3.146
 1907SOL    HW1 1095   2.475   1.649   3.203
 1907SOL    HW2 1096   2.569   1.564   3.101
 1911SOL     OW 1097   1.901   1.077   2.162
 1911SOL    HW1 1098   2.000   1.066   2.153
 1911SOL    HW2 1099   1.861   0.991   2.194
 1912SOL     OW 1100   2.737   1.646   2.199
 1912SOL    HW1 1101   2.660   1.611   2.145
 1912SOL    HW2 1102   2.705   1.717   2.261
 1930SOL     OW 1103   1.889   1.596   3.841
 1930SOL    HW1 1104   1.870   1.500   3.862
 1930SOL    HW2 1105   1.856   1.654   3.916
 1952SOL     OW 1106   2.973   1.776   3.961
 1952SOL    HW1 1107   2.913   1.714   4.011
 1952SOL    HW2 1108   3.004   1.732   3.876
 1954SOL     OW 1109   2.326   1.743   4.047
 1954SOL    HW1 1110   2.359   1.782   4.133
 1954SOL    HW2 1111   2.402   1.736   3.982
 1975SOL     OW 1112   2.350   1.385   3.898
 1975SOL    HW1 1113   2.263   1.370   3.945
 1975SOL    HW2 1114   2.333   1.411   3.803
 2014SOL     OW 1115   2.534   1.616   3.878
 2014SOL    HW1 1116   2.543   1.626   3.779
 2014SOL    HW2 1117   2.494   1.527   3.899
 2017SOL     OW 1118   3.056   1.612   3.755
 2017SOL    HW1 1119   3.062   1.519   3.792
 2017SOL    HW2 1120   2.997   1.612   3.675
 2032SOL     OW 1121   2.721   1.374   3.740
 2032SOL    HW1 1122   2.675   1.389   3.828
 2032SOL    HW2 1123   2.765   1.459   3.710
 2049SOL     OW 1124   2.087   2.137   0.996
 2049SOL    HW1 1125   2.122   2.120   1.088
 2049SOL    HW2 1126   1.999   2.092   0.984
 2051SOL     OW 1127   2.431   3.137   1.165
 2051SOL    HW1 1128   2.338   3.130   1.128
 2051SOL    HW2 1129   2.442   3.226   1.209
 2055SOL     OW 1130   2.630   3.006   1.023
 2055SOL    HW1 1131   2.552   3.023   1.083
 2055SOL    HW2 1132   2.664   3.093   0.987
 2056SOL     OW 1133   2.712   2.660   1.823
 2056SOL    HW1 1134   2.708   2.736   1.888
 2056SOL    HW2 1135   2.734   2.696   1.732
 2058SOL     OW 1136   2.548   3.023   1.803
 2058SOL    HW1 1137   2.608   3.102   1.817
 2058SOL    HW2 1138   2.462   3.054   1.762
 2059SOL     OW 1139   2.197   3.297   1.061
 2059SOL    HW1 1140   2.119   3.266   1.008
 2059SOL    HW2 1141   2.255   3.355   1.004
 2060SOL     OW 1142   3.322   3.367   1.339
 2060SOL    HW1 1143   3.346   3.461   1.365
 2060SOL    HW2 1144   3.306   3.313   1.421
 2061SOL     OW 1145   2.300   2.254   1.499
 2061SOL    HW1 1146   2.382   2.198   1.508
 2061SOL    HW2 1147   2.219   2.196   1.503
 2064SOL     OW 1148   2.989   3.203   1.690
 2064SOL    HW1 1149   3.036   3.203   1.778
 2064SOL    HW2 1150   2.941   3.116   1.679
 2066SOL     OW 1151   2.102   2.953   0.886
 2066SOL    HW1 1152   2.116   2.869   0.938
 2066SOL    HW2 1153   2.047   3.017   0.941
 2067SOL     OW 1154   2.482   3.648   1.439
 2067SOL    HW1 1155   2.390   3.631   1.474
 2067SOL    HW2 1156   2.510   3.740   1.465
 2069SOL     OW 1157   3.456   1.976   1.480
 2069SOL    HW1 1158   3.438   2.043   1.408
 2069SOL    HW2 1159   3.453   2.022   1.569
 2075SOL     OW 1160   1.975   2.599   1.597
 2075SOL    HW1 1161   2.063   2.586   1.642
 2075SOL    HW2 1162   1.962   2.696   1.575
 2077SOL     OW 1163   3.155   3.090   1.423
 2077SOL    HW1 1164   3.192   3.017   1.365
 2077SOL    HW2 1165   3.207   3.095   1.508
 2079SOL     OW 1166   2.059   2.838   1.264
 2079SOL    HW1 1167   2.148   2.793   1.250
 2079SOL    HW2 1168   1.986   2.773   1.245
 2081SOL     OW 1169   3.049   3.654   1.616
 2081SOL    HW1 1170   3.073   3.714   1.540
 2081SOL    HW2 1171   3.056   3.559   1.586
 2082SOL     OW 1172   2.179   2.113   1.801
 2082SOL    HW1 1173   2.250   2.184   1.807
 2082SOL    HW2 1174   2.091   2.152   1.829
 2086SOL     OW 1175   3.143   2.207   0.944
 2086SOL    HW1 1176   3.057   2.157   0.931
 2086SOL    HW2 1177   3.205   2.153   1.000
 2088SOL     OW 1178   2.669   2.467   1.465
 2088SOL    HW1 1179   2.622   2.464   1.554
 2088SOL    HW2 1180   2.618   2.412   1.399
 2089SOL     OW 1181   3.256   2.331   1.674
 2089SOL    HW1 1182   3.236   2.374   1.762
 2089SOL    HW2 1183   3.334   2.269   1.683
 2090SOL     OW 1184   2.835   2.752   1.572
 2090SOL    HW1 1185   2.881   2.668   1.543
 2090SOL    HW2 1186   2.779   2.786   1.497
 2091SOL     OW 1187   2.853   2.272   1.242
 2091SOL    HW1 1188   2.776   2.306   1.296
 2091SOL    HW2 1189   2.819   2.221   1.163
 2093SOL     OW 1190   1.938   2.673   0.789
 2093SOL    HW1 1191   2.037   2.661   0.798
 2093SOL    HW2 1192   1.914   2.768   0.810
 2094SOL     OW 1193   1.992   3.683   1.571
 2094SOL    HW1 1194   1.982   3.668   1.670
 2094SOL    HW2 1195   1.906   3.719   1.535
 2096SOL     OW 1196   3.581   2.447   1.831
 2096SOL    HW1 1197   3.555   2.536   1.795
 2096SOL    HW2 1198   3.579   2.379   1.758
 2098SOL     OW 1199   2.412   2.058   0.885
 2098SOL    HW1 1200   2.407   2.053   0.985
 2098SOL    HW2 1201   2.414   2.154   0.856
 2102SOL     OW 1202   3.089   3.412   1.506
 2102SOL    HW1 1203   3.095   3.335   1.570
 2102SOL    HW2 1204   3.037   3.386   1.426
 2105SOL     OW 1205   2.323   3.128   1.727
 2105SOL    HW1 1206   2.273   3.129   1.641
 2105SOL    HW2 1207   2.260   3.110   1.803
 2107SOL     OW 1208   2.064   2.147   1.498
 2107SOL    HW1 1209   1.984   2.207   1.485
 2107SOL    HW2 1210   2.054   2.098   1.584
 2111SOL     OW 1211   2.111   3.647   1.241
 2111SOL    HW1 1212   2.168   3.582   1.291
 2111SOL    HW2 1213   2.095   3.614   1.148
 2114SOL     OW 1214   3.409   2.084   1.729
 2114SOL    HW1 1215   3.404   2.121   1.821
 2114SOL    HW2 1216   3.337   2.015   1.717
 2116SOL     OW 1217   2.643   2.126   1.749
 2116SOL    HW1 1218   2.710   2.065   1.792
 2116SOL    HW2 1219   2.570   2.145   1.814
 2117SOL     OW 1220   2.750   3.376   1.195
 2117SOL    HW1 1221   2.727   3.351   1.101
 2117SOL    HW2 1222   2.811   3.307   1.234
 2118SOL     OW 1223   3.213   2.452   1.433
 2118SOL    HW1 1224   3.241   2.409   1.518
 2118SOL    HW2 1225   3.238   2.548   1.434
 2119SOL     OW 1226   2.665   3.264   0.924
 2119SOL    HW1 1227   2.755   3.278   0.882
 2119SOL    HW2 1228   2.594   3.266   0.853
 2120SOL     OW 1229   2.784   2.365   0.899
 2120SOL    HW1 1230   2.759   2.356   0.803
 2120SOL    HW2 1231   2.832   2.283   0.930
 2125SOL     OW 1232   2.938   2.545   1.464
 2125SOL    HW1 1233   2.858   2.484   1.467
 2125SOL    HW2 1234   3.019   2.492   1.440
 2130SOL     OW 1235   1.940   2.418   1.386
 2130SOL    HW1 1236   2.032   2.417   1.345
 2130SOL    HW2 1237   1.934   2.492   1.453
 2131SOL     OW 1238   2.423   2.084   1.147
 2131SOL    HW1 1239   2.461   2.000   1.184
 2131SOL    HW2 1240   2.335   2.103   1.191
 2135SOL     OW 1241   3.328   2.452   0.992
 2135SOL    HW1 1242   3.298   2.357   0.999
 2135SOL    HW2 1243   3.401   2.468   1.058
 2141SOL     OW 1244   3.616   3.085   1.588
 2141SOL    HW1 1245   3.707   3.046   1.575
 2141SOL    HW2 1246   3.624   3.181   1.612
 2142SOL     OW 1247   2.926   3.209   1.340
 2142SOL    HW1 1248   2.846   3.186   1.395
 2142SOL    HW2 1249   3.009   3.183   1.389
 2143SOL     OW 1250   3.454   3.491   1.625
 2143SOL    HW1 1251   3.481   3.525   1.535
 2143SOL    HW2 1252   3.533   3.453   1.671
 2144SOL     OW 1253   2.973   3.057   1.100
 2144SOL    HW1 1254   2.933   3.101   1.181
 2144SOL    HW2 1255   2.932   3.094   1.017
 2145SOL     OW 1256   3.500   2.961   1.079
 2145SOL    HW1 1257   3.505   3.042   1.138
 2145SOL    HW2 1258   3.414   2.963   1.028
 2146SOL     OW 1259   2.777   1.951   1.402
 2146SOL    HW1 1260   2.802   1.931   1.307
 2146SOL    HW2 1261   2.849   2.007   1.444
 2147SOL     OW 1262   2.842   2.978   1.719
 2147SOL    HW1 1263   2.743   2.984   1.729
 2147SOL    HW2 1264   2.865   2.898   1.663
 2149SOL     OW 1265   2.272   2.675   1.251
 2149SOL    HW1 1266   2.358   2.687   1.301
 2149SOL    HW2 1267   2.230   2.588   1.278
 2150SOL     OW 1268   3.136   2.248   1.262
 2150SOL    HW1 1269   3.157   2.322   1.326
 2150SOL    HW2 1270   3.047   2.265   1.219
 2151SOL     OW 1271   1.926   3.426   1.331
 2151SOL    HW1 1272   1.880   3.508   1.297
 2151SOL    HW2 1273   2.024   3.445   1.340
 2153SOL     OW 1274   2.428   2.399   0.865
 2153SOL    HW1 1275   2.440   2.465   0.791
 2153SOL    HW2 1276   2.474   2.433   0.948
 2155SOL     OW 1277   3.134   3.307   1.142
 2155SOL    HW1 1278   3.181   3.320   1.229
 2155SOL    HW2 1279   3.068   3.233   1.151
 2157SOL     OW 1280   2.216   3.372   1.329
 2157SOL    HW1 1281   2.195   3.328   1.242
 2157SOL    HW2 1282   2.313   3.398   1.332
 2158SOL     OW 1283   2.264   2.613   1.598
 2158SOL    HW1 1284   2.332   2.668   1.551
 2158SOL    HW2 1285   2.304   2.525   1.625
 2159SOL     OW 1286   3.449   2.641   1.670
 2159SOL    HW1 1287   3.357   2.679   1.665
 2159SOL    HW2 1288   3.509   2.688   1.605
 2160SOL     OW 1289   2.875   1.967   1.770
 2160SOL    HW1 1290   2.881   2.052   1.718
 2160SOL    HW2 1291   2.907   1.891   1.713
 2161SOL     OW 1292   2.366   1.912   1.740
 2161SOL    HW1 1293   2.324   1.855   1.670
 2161SOL    HW2 1294   2.300   1.981   1.772
 2162SOL     OW 1295   2.435   2.732   1.029
 2162SOL    HW1 1296   2.479   2.821   1.020
 2162SOL    HW2 1297   2.372   2.732   1.106
 2163SOL     OW 1298   3.222   2.724   1.045
 2163SOL    HW1 1299   3.147   2.724   0.979
 2163SOL    HW2 1300   3.259   2.632   1.054
 2165SOL     OW 1301   2.169   2.075   1.231
 2165SOL    HW1 1302   2.146   2.112   1.321
 2165SOL    HW2 1303   2.139   1.980   1.225
 2166SOL     OW 1304   1.899   3.172   1.282
 2166SOL    HW1 1305   1.952   3.123   1.350
 2166SOL    HW2 1306   1.921   3.270   1.287
 2167SOL     OW 1307   2.594   2.496   1.064
 2167SOL    HW1 1308   2.653   2.470   0.988
 2167SOL    HW2 1309   2.566   2.592   1.053
 2168SOL     OW 1310   3.590   2.797   1.854
 2168SOL    HW1 1311   3.544   2.790   1.765
 2168SOL    HW2 1312   3.528   2.841   1.920
 2171SOL     OW 1313   2.885   2.628   0.966
 2171SOL    HW1 1314   2.900   2.649   1.062
 2171SOL    HW2 1315   2.855   2.533   0.957
 2172SOL     OW 1316   2.842   3.435   1.700
 2172SOL    HW1 1317   2.822   3.479   1.612
 2172SOL    HW2 1318   2.881   3.344   1.684
 2173SOL     OW 1319   3.721   3.380   1.605
 2173SOL    HW1 1320   3.735   3.407   1.510
 2173SOL    HW2 1321   3.804   3.402   1.658
 2174SOL     OW 1322   2.212   2.760   1.804
 2174SOL    HW1 1323   2.288   2.804   1.852
 2174SOL    HW2 1324   2.247   2.713   1.722
 2178SOL     OW 1325   2.181   2.672   0.949
 2178SOL    HW1 1326   2.274   2.708   0.954
 2178SOL    HW2 1327   2.175   2.587   1.001
 2179SOL     OW 1328   2.201   2.371   1.006
 2179SOL    HW1 1329   2.149   2.288   0.989
 2179SOL    HW2 1330   2.278   2.376   0.942
 2180SOL     OW 1331   3.000   2.242   1.678
 2180SOL    HW1 1332   2.955   2.305   1.742
 2180SOL    HW2 1333   3.093   2.273   1.661
 2181SOL     OW 1334   3.022   2.069   1.477
 2181SOL    HW1 1335   3.022   2.133   1.554
 2181SOL    HW2 1336   3.050   2.117   1.394
 2185SOL     OW 1337   2.864   2.658   1.238
 2185SOL    HW1 1338   2.905   2.626   1.324
 2185SOL    HW2 1339   2.768   2.631   1.235
 2186SOL     OW 1340   1.902   2.406   1.114
 2186SOL    HW1 1341   1.987   2.373   1.073
 2186SOL    HW2 1342   1.915   2.421   1.212
 2187SOL     OW 1343   2.051   2.382   1.722
 2187SOL    HW1 1344   2.110   2.342   1.652
 2187SOL    HW2 1345   1.993   2.453   1.681
 2188SOL     OW 1346   3.231   2.812   1.660
 2188SOL    HW1 1347   3.270   2.901   1.680
 2188SOL    HW2 1348   3.241   2.792   1.563
 2190SOL     OW 1349   3.519   2.466   1.206
 2190SOL    HW1 1350   3.481   2.397   1.268
 2190SOL    HW2 1351   3.601   2.430   1.162
 2191SOL     OW 1352   2.114   3.426   1.744
 2191SOL    HW1 1353   2.084   3.483   1.820
 2191SOL    HW2 1354   2.107   3.329   1.770
 2192SOL     OW 1355   2.533   2.326   1.269
 2192SOL    HW1 1356   2.499   2.237   1.239
 2192SOL    HW2 1357   2.559   2.380   1.189
 2193SOL     OW 1358   2.792   3.540   1.465
 2193SOL    HW1 1359   2.768   3.522   1.370
 2193SOL    HW2 1360   2.822   3.634   1.475
 2195SOL     OW 1361   2.021   2.999   1.466
 2195SOL    HW1 1362   2.043   2.938   1.542
 2195SOL    HW2 1363   2.031   2.950   1.380
 2196SOL     OW 1364   3.209   2.921   1.234
 2196SOL    HW1 1365   3.233   2.858   1.160
 2196SOL    HW2 1366   3.119   2.961   1.216
 2200SOL     OW 1367   1.945   3.120   1.022
 2200SOL    HW1 1368   1.940   3.119   1.122
 2200SOL    HW2 1369   1.862   3.079   0.984
 2201SOL     OW 1370   2.550   3.524   1.716
 2201SOL    HW1 1371   2.494   3.605   1.725
 2201SOL    HW2 1372   2.602   3.528   1.630
 2205SOL     OW 1373   1.992   3.656   1.851
 2205SOL    HW1 1374   1.951   3.582   1.904
 2205SOL    HW2 1375   2.056   3.707   1.909
 2207SOL     OW 1376   2.692   3.135   1.422
 2207SOL    HW1 1377   2.687   3.168   1.517
 2207SOL    HW2 1378   2.606   3.154   1.376
 2211SOL     OW 1379   2.125   2.188   0.720
 2211SOL    HW1 1380   2.046   2.239   0.686
 2211SOL    HW2 1381   2.116   2.173   0.818
 2213SOL     OW 1382   2.684   2.864   1.372
 2213SOL    HW1 1383   2.724   2.863   1.280
 2213SOL    HW2 1384   2.694   2.956   1.412
 2216SOL     OW 1385   2.234   3.150   1.490
 2216SOL    HW1 1386   2.221   3.243   1.456
 2216SOL    HW2 1387   2.150   3.098   1.477
 2217SOL     OW 1388   3.476   3.154   1.289
 2217SOL    HW1 1389   3.536   3.157   1.369
 2217SOL    HW2 1390   3.401   3.218   1.302
 2219SOL     OW 1391   2.876   2.098   0.971
 2219SOL    HW1 1392   2.868   2.062   0.878
 2219SOL    HW2 1393   2.874   2.022   1.036
 2221SOL     OW 1394   3.571   2.247   1.381
 2221SOL    HW1 1395   3.644   2.316   1.385
 2221SOL    HW2 1396   3.599   2.172   1.322
 2223SOL     OW 1397   1.967   2.875   1.726
 2223SOL    HW1 1398   1.890   2.842   1.780
 2223SOL    HW2 1399   2.052   2.845   1.768
 2224SOL     OW 1400   2.534   2.065   1.489
 2224SOL    HW1 1401   2.624   2.049   1.449
 2224SOL    HW2 1402   2.542   2.070   1.588
 2225SOL     OW 1403   3.302   2.718   1.398
 2225SOL    HW1 1404   3.245   2.770   1.335
 2225SOL    HW2 1405   3.398   2.730   1.374
 2228SOL     OW 1406   2.475   2.704   1.431
 2228SOL    HW1 1407   2.531   2.785   1.414
 2228SOL    HW2 1408   2.534   2.624   1.434
 2230SOL     OW 1409   2.578   2.427   1.708
 2230SOL    HW1 1410   2.597   2.492   1.782
 2230SOL    HW2 1411   2.638   2.347   1.717
 2231SOL     OW 1412   3.312   3.082   1.633
 2231SOL    HW1 1413   3.303   3.072   1.732
 2231SOL    HW2 1414   3.408   3.075   1.607
 2232SOL     OW 1415   2.252   3.603   1.560
 2232SOL    HW1 1416   2.161   3.644   1.558
 2232SOL    HW2 1417   2.245   3.509   1.592
 2233SOL     OW 1418   3.536   2.745   1.254
 2233SOL    HW1 1419   3.509   2.656   1.217
 2233SOL    HW2 1420   3.537   2.813   1.181
 2236SOL     OW 1421   3.639   2.204   1.642
 2236SOL    HW1 1422   3.622   2.235   1.548
 2236SOL    HW2 1423   3.555   2.167   1.680
 2237SOL     OW 1424   3.592   2.796   1.517
 2237SOL    HW1 1425   3.630   2.887   1.532
 2237SOL    HW2 1426   3.584   2.779   1.418
 2240SOL     OW 1427   2.721   2.818   0.861
 2240SOL    HW1 1428   2.775   2.749   0.909
 2240SOL    HW2 1429   2.689   2.887   0.927
 2243SOL     OW 1430   2.083   3.176   1.844
 2243SOL    HW1 1431   2.018   3.103   1.823
 2243SOL    HW2 1432   2.087   3.190   1.942
 2245SOL     OW 1433   2.534   3.253   1.624
 2245SOL    HW1 1434   2.456   3.203   1.662
 2245SOL    HW2 1435   2.531   3.348   1.655
 2246SOL     OW 1436   3.686   2.054   1.227
 2246SOL    HW1 1437   3.682   1.964   1.271
 2246SOL    HW2 1438   3.689   2.043   1.128
 2249SOL     OW 1439   2.179   2.409   1.280
 2249SOL    HW1 1440   2.217   2.350   1.352
 2249SOL    HW2 1441   2.219   2.383   1.192
 2251SOL     OW 1442   3.286   2.076   1.112
 2251SOL    HW1 1443   3.338   2.011   1.167
 2251SOL    HW2 1444   3.237   2.139   1.173
 2252SOL     OW 1445   2.863   1.896   1.154
 2252SOL    HW1 1446   2.800   1.824   1.123
 2252SOL    HW2 1447   2.956   1.860   1.154
 2254SOL     OW 1448   2.480   3.429   1.284
 2254SOL    HW1 1449   2.475   3.511   1.341
 2254SOL    HW2 1450   2.569   3.426   1.239
 2260SOL     OW 1451   2.092   2.490   1.975
 2260SOL    HW1 1452   1.999   2.488   2.012
 2260SOL    HW2 1453   2.093   2.451   1.883
 2261SOL     OW 1454   2.087   2.137   2.858
 2261SOL    HW1 1455   2.122   2.120   2.950
 2261SOL    HW2 1456   1.999   2.092   2.846
 2262SOL     OW 1457   1.881   2.230   2.509
 2262SOL    HW1 1458   1.799   2.273   2.548
 2262SOL    HW2 1459   1.853   2.157   2.446
 2263SOL     OW 1460   2.431   3.137   3.027
 2263SOL    HW1 1461   2.338   3.130   2.990
 2263SOL    HW2 1462   2.442   3.226   3.071
 2264SOL     OW 1463   3.417   3.373   2.565
 2264SOL    HW1 1464   3.360   3.357   2.646
 2264SOL    HW2 1465   3.358   3.383   2.485
 2265SOL     OW 1466   2.997   2.565   2.579
 2265SOL    HW1 1467   3.054   2.643   2.554
 2265SOL    HW2 1468   2.937   2.591   2.655
 2266SOL     OW 1469   3.617   2.469   2.093
 2266SOL    HW1 1470   3.605   2.456   1.994
 2266SOL    HW2 1471   3.587   2.388   2.142
 2267SOL     OW 1472   2.630   3.006   2.885
 2267SOL    HW1 1473   2.552   3.023   2.945
 2267SOL    HW2 1474   2.664   3.093   2.849
 2268SOL     OW 1475   2.712   2.660   3.685
 2268SOL    HW1 1476   2.708   2.736   3.750
 2268SOL    HW2 1477   2.734   2.696   3.594
 2269SOL     OW 1478   2.548   3.023   3.665
 2269SOL    HW1 1479   2.608   3.102   3.679
 2269SOL    HW2 1480   2.462   3.054   3.624
 2270SOL     OW 1481   2.197   3.297   2.923
 2270SOL    HW1 1482   2.119   3.266   2.870
 2270SOL    HW2 1483   2.255   3.355   2.866
 2271SOL     OW 1484   3.322   3.367   3.201
 2271SOL    HW1 1485   3.346   3.461   3.227
 2271SOL    HW2 1486   3.306   3.313   3.283
 2272SOL     OW 1487   2.300   2.254   3.361
 2272SOL    HW1 1488   2.382   2.198   3.370
 2272SOL    HW2 1489   2.219   2.196   3.365
 2273SOL     OW 1490   3.465   2.309   2.599
 2273SOL    HW1 1491   3.391   2.355   2.549
 2273SOL    HW2 1492   3.516   2.377   2.652
 2274SOL     OW 1493   2.093   3.575   2.345
 2274SOL    HW1 1494   2.127   3.652   2.399
 2274SOL    HW2 1495   2.137   3.575   2.255
 2275SOL     OW 1496   2.989   3.203   3.552
 2275SOL    HW1 1497   3.036   3.203   3.640
 2275SOL    HW2 1498   2.941   3.116   3.541
 2276SOL     OW 1499   2.092   3.296   2.400
 2276SOL    HW1 1500   2.066   3.392   2.400
 2276SOL    HW2 1501   2.021   3.242   2.445
 2277SOL     OW 1502   2.102   2.953   2.748
 2277SOL    HW1 1503   2.116   2.869   2.800
 2277SOL    HW2 1504   2.047   3.017   2.803
 2278SOL     OW 1505   2.482   3.648   3.301
 2278SOL    HW1 1506   2.390   3.631   3.336
 2278SOL    HW2 1507   2.510   3.740   3.327
 2279SOL     OW 1508   2.468   2.826   1.985
 2279SOL    HW1 1509   2.475   2.910   1.931
 2279SOL    HW2 1510   2.514   2.839   2.073
 2280SOL     OW 1511   3.456   1.976   3.342
 2280SOL    HW1 1512   3.438   2.043   3.270
 2280SOL    HW2 1513   3.453   2.022   3.431
 2281SOL     OW 1514   1.984   2.505   2.425
 2281SOL    HW1 1515   1.939   2.417   2.442
 2281SOL    HW2 1516   1.983   2.559   2.509
 2282SOL     OW 1517   3.704   3.629   2.221
 2282SOL    HW1 1518   3.758   3.600   2.301
 2282SOL    HW2 1519   3.734   3.719   2.192
 2283SOL     OW 1520   1.889   3.458   1.979
 2283SOL    HW1 1521   1.870   3.362   2.000
 2283SOL    HW2 1522   1.856   3.516   2.054
 2284SOL     OW 1523   3.551   2.784   2.474
 2284SOL    HW1 1524   3.646   2.755   2.482
 2284SOL    HW2 1525   3.543   2.849   2.399
 2285SOL     OW 1526   3.503   2.970   2.294
 2285SOL    HW1 1527   3.589   2.972   2.242
 2285SOL    HW2 1528   3.517   3.017   2.382
 2286SOL     OW 1529   1.975   2.599   3.459
 2286SOL    HW1 1530   2.063   2.586   3.504
 2286SOL    HW2 1531   1.962   2.696   3.437
 2287SOL     OW 1532   2.475   3.227   2.588
 2287SOL    HW1 1533   2.426   3.140   2.597
 2287SOL    HW2 1534   2.452   3.270   2.501
 2288SOL     OW 1535   3.155   3.090   3.285
 2288SOL    HW1 1536   3.192   3.017   3.227
 2288SOL    HW2 1537   3.207   3.095   3.370
 2289SOL     OW 1538   2.671   1.866   2.364
 2289SOL    HW1 1539   2.711   1.957   2.355
 2289SOL    HW2 1540   2.571   1.874   2.370
 2290SOL     OW 1541   2.059   2.838   3.126
 2290SOL    HW1 1542   2.148   2.793   3.112
 2290SOL    HW2 1543   1.986   2.773   3.107
 2291SOL     OW 1544   3.387   2.861   2.052
 2291SOL    HW1 1545   3.324   2.785   2.065
 2291SOL    HW2 1546   3.435   2.879   2.138
 2292SOL     OW 1547   3.049   3.654   3.478
 2292SOL    HW1 1548   3.073   3.714   3.402
 2292SOL    HW2 1549   3.056   3.559   3.448
 2293SOL     OW 1550   2.179   2.113   3.663
 2293SOL    HW1 1551   2.250   2.184   3.669
 2293SOL    HW2 1552   2.091   2.152   3.691
 2294SOL     OW 1553   3.328   3.279   2.815
 2294SOL    HW1 1554   3.269   3.285   2.895
 2294SOL    HW2 1555   3.313   3.191   2.769
 2295SOL     OW 1556   3.529   3.576   2.434
 2295SOL    HW1 1557   3.488   3.553   2.346
 2295SOL    HW2 1558   3.511   3.502   2.499
 2296SOL     OW 1559   2.460   2.591   2.132
 2296SOL    HW1 1560   2.484   2.660   2.064
 2296SOL    HW2 1561   2.382   2.624   2.186
 2297SOL     OW 1562   3.143   2.207   2.806
 2297SOL    HW1 1563   3.057   2.157   2.793
 2297SOL    HW2 1564   3.205   2.153   2.862
 2298SOL     OW 1565   3.438   3.524   2.169
 2298SOL    HW1 1566   3.527   3.570   2.172
 2298SOL    HW2 1567   3.417   3.500   2.074
 2299SOL     OW 1568   2.669   2.467   3.327
 2299SOL    HW1 1569   2.622   2.464   3.416
 2299SOL    HW2 1570   2.618   2.412   3.261
 2300SOL     OW 1571   3.256   2.331   3.536
 2300SOL    HW1 1572   3.236   2.374   3.624
 2300SOL    HW2 1573   3.334   2.269   3.545
 2301SOL     OW 1574   2.835   2.752   3.434
 2301SOL    HW1 1575   2.881   2.668   3.405
 2301SOL    HW2 1576   2.779   2.786   3.359
 2302SOL     OW 1577   2.853   2.272   3.104
 2302SOL    HW1 1578   2.776   2.306   3.158
 2302SOL    HW2 1579   2.819   2.221   3.025
 2303SOL     OW 1580   2.903   2.563   2.291
 2303SOL    HW1 1581   2.929   2.559   2.387
 2303SOL    HW2 1582   2.818   2.512   2.277
 2304SOL     OW 1583   1.938   2.673   2.651
 2304SOL    HW1 1584   2.037   2.661   2.660
 2304SOL    HW2 1585   1.914   2.768   2.672
 2305SOL     OW 1586   1.992   3.683   3.433
 2305SOL    HW1 1587   1.982   3.668   3.532
 2305SOL    HW2 1588   1.906   3.719   3.397
 2306SOL     OW 1589   2.727   2.210   2.057
 2306SOL    HW1 1590   2.786   2.273   2.008
 2306SOL    HW2 1591   2.746   2.116   2.028
 2307SOL     OW 1592   3.581   2.447   3.693
 2307SOL    HW1 1593   3.555   2.536   3.657
 2307SOL    HW2 1594   3.579   2.379   3.620
 2308SOL     OW 1595   3.224   3.006   2.407
 2308SOL    HW1 1596   3.307   2.977   2.359
 2308SOL    HW2 1597   3.175   3.073   2.351
 2309SOL     OW 1598   2.870   3.318   2.339
 2309SOL    HW1 1599   2.824   3.390   2.287
 2309SOL    HW2 1600   2.866   3.338   2.437
 2310SOL     OW 1601   2.213   3.663   2.715
 2310SOL    HW1 1602   2.263   3.577   2.721
 2310SOL    HW2 1603   2.278   3.740   2.712
 2311SOL     OW 1604   3.657   2.928   2.735
 2311SOL    HW1 1605   3.595   2.913   2.659
 2311SOL    HW2 1606   3.605   2.939   2.820
 2312SOL     OW 1607   3.089   3.412   3.368
 2312SOL    HW1 1608   3.095   3.335   3.432
 2312SOL    HW2 1609   3.037   3.386   3.288
 2313SOL     OW 1610   2.183   2.805   2.104
 2313SOL    HW1 1611   2.265   2.844   2.062
 2313SOL    HW2 1612   2.156   2.723   2.055
 2314SOL     OW 1613   3.320   2.597   2.590
 2314SOL    HW1 1614   3.315   2.532   2.665
 2314SOL    HW2 1615   3.400   2.656   2.603
 2315SOL     OW 1616   2.323   3.128   3.589
 2315SOL    HW1 1617   2.273   3.129   3.503
 2315SOL    HW2 1618   2.260   3.110   3.665
 2316SOL     OW 1619   2.973   3.638   2.099
 2316SOL    HW1 1620   2.913   3.576   2.149
 2316SOL    HW2 1621   3.004   3.594   2.014
 2317SOL     OW 1622   2.064   2.147   3.360
 2317SOL    HW1 1623   1.984   2.207   3.347
 2317SOL    HW2 1624   2.054   2.098   3.446
 2318SOL     OW 1625   3.494   3.239   1.943
 2318SOL    HW1 1626   3.462   3.333   1.933
 2318SOL    HW2 1627   3.418   3.176   1.931
 2319SOL     OW 1628   2.326   3.605   2.185
 2319SOL    HW1 1629   2.359   3.644   2.271
 2319SOL    HW2 1630   2.402   3.598   2.120
 2320SOL     OW 1631   3.262   1.969   2.288
 2320SOL    HW1 1632   3.238   1.932   2.198
 2320SOL    HW2 1633   3.361   1.985   2.292
 2321SOL     OW 1634   2.111   3.647   3.103
 2321SOL    HW1 1635   2.168   3.582   3.153
 2321SOL    HW2 1636   2.095   3.614   3.010
 2322SOL     OW 1637   2.802   3.560   2.766
 2322SOL    HW1 1638   2.882   3.503   2.787
 2322SOL    HW2 1639   2.753   3.520   2.689
 2323SOL     OW 1640   3.409   2.084   3.591
 2323SOL    HW1 1641   3.404   2.121   3.683
 2323SOL    HW2 1642   3.337   2.015   3.579
 2324SOL     OW 1643   2.476   1.984   1.979
 2324SOL    HW1 1644   2.574   1.962   1.986
 2324SOL    HW2 1645   2.445   1.967   1.886
 2325SOL     OW 1646   2.643   2.126   3.611
 2325SOL    HW1 1647   2.710   2.065   3.654
 2325SOL    HW2 1648   2.570   2.145   3.676
 2326SOL     OW 1649   2.750   3.376   3.057
 2326SOL    HW1 1650   2.727   3.351   2.963
 2326SOL    HW2 1651   2.811   3.307   3.096
 2327SOL     OW 1652   3.213   2.452   3.295
 2327SOL    HW1 1653   3.241   2.409   3.380
 2327SOL    HW2 1654   3.238   2.548   3.296
 2328SOL     OW 1655   2.665   3.264   2.786
 2328SOL    HW1 1656   2.755   3.278   2.744
 2328SOL    HW2 1657   2.594   3.266   2.715
 2329SOL     OW 1658   2.401   1.926   2.374
 2329SOL    HW1 1659   2.320   1.927   2.432
 2329SOL    HW2 1660   2.404   2.009   2.319
 2330SOL     OW 1661   3.296   3.050   1.903
 2330SOL    HW1 1662   3.328   2.974   1.960
 2330SOL    HW2 1663   3.204   3.077   1.933
 2331SOL     OW 1664   2.159   1.897   2.033
 2331SOL    HW1 1665   2.208   1.981   2.012
 2331SOL    HW2 1666   2.221   1.832   2.078
 2332SOL     OW 1667   2.938   2.545   3.326
 2332SOL    HW1 1668   2.858   2.484   3.329
 2332SOL    HW2 1669   3.019   2.492   3.302
 2333SOL     OW 1670   3.089   3.432   2.655
 2333SOL    HW1 1671   3.110   3.506   2.590
 2333SOL    HW2 1672   3.157   3.432   2.728
 2334SOL     OW 1673   2.321   3.014   2.603
 2334SOL    HW1 1674   2.250   2.987   2.668
 2334SOL    HW2 1675   2.295   2.986   2.510
 2335SOL     OW 1676   3.133   3.659   2.453
 2335SOL    HW1 1677   3.177   3.723   2.389
 2335SOL    HW2 1678   3.083   3.711   2.523
 2336SOL     OW 1679   2.894   2.411   1.878
 2336SOL    HW1 1680   2.853   2.493   1.839
 2336SOL    HW2 1681   2.958   2.437   1.951
 2337SOL     OW 1682   1.940   2.418   3.248
 2337SOL    HW1 1683   2.032   2.417   3.207
 2337SOL    HW2 1684   1.934   2.492   3.315
 2338SOL     OW 1685   2.423   2.084   3.009
 2338SOL    HW1 1686   2.461   2.000   3.046
 2338SOL    HW2 1687   2.335   2.103   3.053
 2339SOL     OW 1688   2.879   1.901   2.615
 2339SOL    HW1 1689   2.807   1.906   2.546
 2339SOL    HW2 1690   2.855   1.832   2.684
 2340SOL     OW 1691   3.291   3.035   2.729
 2340SOL    HW1 1692   3.236   2.951   2.722
 2340SOL    HW2 1693   3.317   3.064   2.637
 2341SOL     OW 1694   3.328   2.452   2.854
 2341SOL    HW1 1695   3.298   2.357   2.861
 2341SOL    HW2 1696   3.401   2.468   2.920
 2342SOL     OW 1697   3.719   2.695   2.239
 2342SOL    HW1 1698   3.761   2.631   2.303
 2342SOL    HW2 1699   3.681   2.644   2.161
 2343SOL     OW 1700   2.350   3.247   2.036
 2343SOL    HW1 1701   2.263   3.232   2.083
 2343SOL    HW2 1702   2.333   3.273   1.941
 2344SOL     OW 1703   3.526   3.142   2.519
 2344SOL    HW1 1704   3.625   3.150   2.533
 2344SOL    HW2 1705   3.481   3.226   2.550
 2345SOL     OW 1706   3.252   2.437   1.940
 2345SOL    HW1 1707   3.198   2.416   2.021
 2345SOL    HW2 1708   3.343   2.396   1.949
 2346SOL     OW 1709   3.616   3.085   3.450
 2346SOL    HW1 1710   3.707   3.046   3.437
 2346SOL    HW2 1711   3.624   3.181   3.474
 2347SOL     OW 1712   2.926   3.209   3.202
 2347SOL    HW1 1713   2.846   3.186   3.257
 2347SOL    HW2 1714   3.009   3.183   3.251
 2348SOL     OW 1715   3.454   3.491   3.487
 2348SOL    HW1 1716   3.481   3.525   3.397
 2348SOL    HW2 1717   3.533   3.453   3.533
 2349SOL     OW 1718   2.973   3.057   2.962
 2349SOL    HW1 1719   2.933   3.101   3.043
 2349SOL    HW2 1720   2.932   3.094   2.879
 2350SOL     OW 1721   3.500   2.961   2.941
 2350SOL    HW1 1722   3.505   3.042   3.000
 2350SOL    HW2 1723   3.414   2.963   2.890
 2351SOL     OW 1724   2.777   1.951   3.264
 2351SOL    HW1 1725   2.802   1.931   3.169
 2351SOL    HW2 1726   2.849   2.007   3.306
 2352SOL     OW 1727   2.842   2.978   3.581
 2352SOL    HW1 1728   2.743   2.984   3.591
 2352SOL    HW2 1729   2.865   2.898   3.525
 2353SOL     OW 1730   2.272   2.675   3.113
 2353SOL    HW1 1731   2.358   2.687   3.163
 2353SOL    HW2 1732   2.230   2.588   3.140
 2354SOL     OW 1733   3.136   2.248   3.124
 2354SOL    HW1 1734   3.157   2.322   3.188
 2354SOL    HW2 1735   3.047   2.265   3.081
 2355SOL     OW 1736   1.926   3.426   3.193
 2355SOL    HW1 1737   1.880   3.508   3.159
 2355SOL    HW2 1738   2.024   3.445   3.202
 2356SOL     OW 1739   2.229   2.962   2.363
 2356SOL    HW1 1740   2.222   3.045   2.307
 2356SOL    HW2 1741   2.233   2.882   2.303
 2357SOL     OW 1742   2.428   2.399   2.727
 2357SOL    HW1 1743   2.440   2.465   2.653
 2357SOL    HW2 1744   2.474   2.433   2.810
 2358SOL     OW 1745   3.114   3.210   2.250
 2358SOL    HW1 1746   3.164   3.287   2.290
 2358SOL    HW2 1747   3.019   3.212   2.282
 2359SOL     OW 1748   3.134   3.307   3.004
 2359SOL    HW1 1749   3.181   3.320   3.091
 2359SOL    HW2 1750   3.068   3.233   3.013
 2360SOL     OW 1751   3.444   2.501   2.334
 2360SOL    HW1 1752   3.413   2.562   2.407
 2360SOL    HW2 1753   3.494   2.553   2.265
 2361SOL     OW 1754   2.216   3.372   3.191
 2361SOL    HW1 1755   2.195   3.328   3.104
 2361SOL    HW2 1756   2.313   3.398   3.194
 2362SOL     OW 1757   2.264   2.613   3.460
 2362SOL    HW1 1758   2.332   2.668   3.413
 2362SOL    HW2 1759   2.304   2.525   3.487
 2363SOL     OW 1760   3.449   2.641   3.532
 2363SOL    HW1 1761   3.357   2.679   3.527
 2363SOL    HW2 1762   3.509   2.688   3.467
 2364SOL     OW 1763   2.875   1.967   3.632
 2364SOL    HW1 1764   2.881   2.052   3.580
 2364SOL    HW2 1765   2.907   1.891   3.575
 2365SOL     OW 1766   2.366   1.912   3.602
 2365SOL    HW1 1767   2.324   1.855   3.532
 2365SOL    HW2 1768   2.300   1.981   3.634
 2366SOL     OW 1769   2.435   2.732   2.891
 2366SOL    HW1 1770   2.479   2.821   2.882
 2366SOL    HW2 1771   2.372   2.732   2.968
 2367SOL     OW 1772   3.222   2.724   2.907
 2367SOL    HW1 1773   3.147   2.724   2.841
 2367SOL    HW2 1774   3.259   2.632   2.916
 2368SOL     OW 1775   3.071   2.387   2.137
 2368SOL    HW1 1776   3.084   2.303   2.191
 2368SOL    HW2 1777   3.042   2.461   2.197
 2369SOL     OW 1778   2.169   2.075   3.093
 2369SOL    HW1 1779   2.146   2.112   3.183
 2369SOL    HW2 1780   2.139   1.980   3.087
 2370SOL     OW 1781   1.899   3.172   3.144
 2370SOL    HW1 1782   1.952   3.123   3.212
 2370SOL    HW2 1783   1.921   3.270   3.149
 2371SOL     OW 1784   2.594   2.496   2.926
 2371SOL    HW1 1785   2.653   2.470   2.850
 2371SOL    HW2 1786   2.566   2.592   2.915
 2372SOL     OW 1787   3.590   2.797   3.716
 2372SOL    HW1 1788   3.544   2.790   3.627
 2372SOL    HW2 1789   3.528   2.841   3.782
 2373SOL     OW 1790   2.169   1.925   2.480
 2373SOL    HW1 1791   2.158   2.019   2.513
 2373SOL    HW2 1792   2.164   1.862   2.557
 2374SOL     OW 1793   3.484   2.229   2.236
 2374SOL    HW1 1794   3.486   2.153   2.300
 2374SOL    HW2 1795   3.436   2.306   2.276
 2375SOL     OW 1796   2.885   2.628   2.828
 2375SOL    HW1 1797   2.900   2.649   2.924
 2375SOL    HW2 1798   2.855   2.533   2.819
 2376SOL     OW 1799   2.842   3.435   3.562
 2376SOL    HW1 1800   2.822   3.479   3.474
 2376SOL    HW2 1801   2.881   3.344   3.546
 2378SOL     OW 1802   2.212   2.760   3.666
 2378SOL    HW1 1803   2.288   2.804   3.714
 2378SOL    HW2 1804   2.247   2.713   3.584
 2379SOL     OW 1805   3.402   2.136   1.987
 2379SOL    HW1 1806   3.341   2.061   2.010
 2379SOL    HW2 1807   3.424   2.188   2.070
 2380SOL     OW 1808   3.165   2.700   1.904
 2380SOL    HW1 1809   3.199   2.607   1.919
 2380SOL    HW2 1810   3.183   2.727   1.809
 2381SOL     OW 1811   2.930   3.195   2.711
 2381SOL    HW1 1812   2.937   3.111   2.656
 2381SOL    HW2 1813   2.992   3.264   2.675
 2382SOL     OW 1814   2.181   2.672   2.811
 2382SOL    HW1 1815   2.274   2.708   2.816
 2382SOL    HW2 1816   2.175   2.587   2.863
 2383SOL     OW 1817   3.000   2.242   3.540
 2383SOL    HW1 1818   2.955   2.305   3.604
 2383SOL    HW2 1819   3.093   2.273   3.523
 2384SOL     OW 1820   3.022   2.069   3.339
 2384SOL    HW1 1821   3.022   2.133   3.416
 2384SOL    HW2 1822   3.050   2.117   3.256
 2385SOL     OW 1823   1.870   3.188   2.062
 2385SOL    HW1 1824   1.777   3.209   2.031
 2385SOL    HW2 1825   1.880   3.089   2.075
 2386SOL     OW 1826   1.950   3.663   2.789
 2386SOL    HW1 1827   1.908   3.577   2.762
 2386SOL    HW2 1828   2.044   3.666   2.755
 2387SOL     OW 1829   2.366   3.430   2.772
 2387SOL    HW1 1830   2.432   3.504   2.781
 2387SOL    HW2 1831   2.410   3.351   2.730
 2388SOL     OW 1832   2.864   2.658   3.100
 2388SOL    HW1 1833   2.905   2.626   3.186
 2388SOL    HW2 1834   2.768   2.631   3.097
 2389SOL     OW 1835   1.902   2.406   2.976
 2389SOL    HW1 1836   1.987   2.373   2.935
 2389SOL    HW2 1837   1.915   2.421   3.074
 2390SOL     OW 1838   2.051   2.382   3.584
 2390SOL    HW1 1839   2.110   2.342   3.514
 2390SOL    HW2 1840   1.993   2.453   3.543
 2391SOL     OW 1841   3.231   2.812   3.522
 2391SOL    HW1 1842   3.270   2.901   3.542
 2391SOL    HW2 1843   3.241   2.792   3.425
 2392SOL     OW 1844   2.677   2.434   2.187
 2392SOL    HW1 1845   2.684   2.345   2.141
 2392SOL    HW2 1846   2.583   2.468   2.179
 2393SOL     OW 1847   3.519   2.466   3.068
 2393SOL    HW1 1848   3.481   2.397   3.130
 2393SOL    HW2 1849   3.601   2.430   3.024
 2394SOL     OW 1850   2.114   3.426   3.606
 2394SOL    HW1 1851   2.084   3.483   3.682
 2394SOL    HW2 1852   2.107   3.329   3.632
 2395SOL     OW 1853   2.533   2.326   3.131
 2395SOL    HW1 1854   2.499   2.237   3.101
 2395SOL    HW2 1855   2.559   2.380   3.051
 2396SOL     OW 1856   2.792   3.540   3.327
 2396SOL    HW1 1857   2.768   3.522   3.232
 2396SOL    HW2 1858   2.822   3.634   3.337
 2397SOL     OW 1859   2.335   2.362   2.053
 2397SOL    HW1 1860   2.396   2.442   2.057
 2397SOL    HW2 1861   2.240   2.393   2.060
 2398SOL     OW 1862   2.021   2.999   3.328
 2398SOL    HW1 1863   2.043   2.938   3.404
 2398SOL    HW2 1864   2.031   2.950   3.242
 2399SOL     OW 1865   3.209   2.921   3.096
 2399SOL    HW1 1866   3.233   2.858   3.022
 2399SOL    HW2 1867   3.119   2.961   3.078
 2400SOL     OW 1868   3.164   2.717   2.171
 2400SOL    HW1 1869   3.078   2.686   2.213
 2400SOL    HW2 1870   3.160   2.703   2.072
 2401SOL     OW 1871   3.621   3.609   3.016
 2401SOL    HW1 1872   3.682   3.639   2.943
 2401SOL    HW2 1873   3.583   3.520   2.994
 2402SOL     OW 1874   3.114   3.593   2.990
 2402SOL    HW1 1875   3.198   3.598   2.936
 2402SOL    HW2 1876   3.091   3.497   3.008
 2403SOL     OW 1877   1.945   3.120   2.884
 2403SOL    HW1 1878   1.940   3.119   2.984
 2403SOL    HW2 1879   1.862   3.079   2.846
 2404SOL     OW 1880   2.550   3.524   3.578
 2404SOL    HW1 1881   2.494   3.605   3.587
 2404SOL    HW2 1882   2.602   3.528   3.492
 2405SOL     OW 1883   3.588   1.997   2.385
 2405SOL    HW1 1884   3.661   1.980   2.318
 2405SOL    HW2 1885   3.557   1.910   2.423
 2406SOL     OW 1886   3.250   3.435   2.339
 2406SOL    HW1 1887   3.317   3.447   2.265
 2406SOL    HW2 1888   3.210   3.524   2.362
 2407SOL     OW 1889   1.992   3.656   3.713
 2407SOL    HW1 1890   1.951   3.582   3.766
 2407SOL    HW2 1891   2.056   3.707   3.771
 2408SOL     OW 1892   3.142   2.789   2.534
 2408SOL    HW1 1893   3.202   2.708   2.536
 2408SOL    HW2 1894   3.182   2.858   2.474
 2409SOL     OW 1895   2.692   3.135   3.284
 2409SOL    HW1 1896   2.687   3.168   3.379
 2409SOL    HW2 1897   2.606   3.154   3.238
 2410SOL     OW 1898   2.534   3.478   2.016
 2410SOL    HW1 1899   2.543   3.488   1.917
 2410SOL    HW2 1900   2.494   3.389   2.037
 2411SOL     OW 1901   3.512   3.582   3.256
 2411SOL    HW1 1902   3.565   3.592   3.172
 2411SOL    HW2 1903   3.485   3.672   3.290
 2412SOL     OW 1904   3.703   2.037   2.825
 2412SOL    HW1 1905   3.742   1.952   2.789
 2412SOL    HW2 1906   3.605   2.039   2.806
 2413SOL     OW 1907   2.125   2.188   2.582
 2413SOL    HW1 1908   2.046   2.239   2.548
 2413SOL    HW2 1909   2.116   2.173   2.680
 2414SOL     OW 1910   3.056   3.474   1.893
 2414SOL    HW1 1911   3.062   3.381   1.930
 2414SOL    HW2 1912   2.997   3.474   1.813
 2415SOL     OW 1913   2.684   2.864   3.234
 2415SOL    HW1 1914   2.724   2.863   3.142
 2415SOL    HW2 1915   2.694   2.956   3.274
 2416SOL     OW 1916   2.778   2.772   2.153
 2416SOL    HW1 1917   2.841   2.810   2.085
 2416SOL    HW2 1918   2.818   2.689   2.192
 2417SOL     OW 1919   3.366   3.469   1.906
 2417SOL    HW1 1920   3.274   3.506   1.913
 2417SOL    HW2 1921   3.404   3.489   1.816
 2418SOL     OW 1922   2.234   3.150   3.352
 2418SOL    HW1 1923   2.221   3.243   3.318
 2418SOL    HW2 1924   2.150   3.098   3.339
 2419SOL     OW 1925   3.476   3.154   3.151
 2419SOL    HW1 1926   3.536   3.157   3.231
 2419SOL    HW2 1927   3.401   3.218   3.164
 2420SOL     OW 1928   2.901   2.960   2.558
 2420SOL    HW1 1929   2.831   2.913   2.612
 2420SOL    HW2 1930   2.960   2.892   2.515
 2421SOL     OW 1931   2.876   2.098   2.833
 2421SOL    HW1 1932   2.868   2.062   2.740
 2421SOL    HW2 1933   2.874   2.022   2.898
 2422SOL     OW 1934   2.452   3.349   2.353
 2422SOL    HW1 1935   2.494   3.291   2.283
 2422SOL    HW2 1936   2.408   3.428   2.309
 2423SOL     OW 1937   3.571   2.247   3.243
 2423SOL    HW1 1938   3.644   2.316   3.247
 2423SOL    HW2 1939   3.599   2.172   3.184
 2424SOL     OW 1940   2.117   3.210   2.152
 2424SOL    HW1 1941   2.021   3.211   2.125
 2424SOL    HW2 1942   2.129   3.263   2.236
 2425SOL     OW 1943   1.967   2.875   3.588
 2425SOL    HW1 1944   1.890   2.842   3.642
 2425SOL    HW2 1945   2.052   2.845   3.630
 2426SOL     OW 1946   2.534   2.065   3.351
 2426SOL    HW1 1947   2.624   2.049   3.311
 2426SOL    HW2 1948   2.542   2.070   3.450
 2427SOL     OW 1949   1.937   2.207   1.895
 2427SOL    HW1 1950   1.845   2.179   1.866
 2427SOL    HW2 1951   1.968   2.284   1.839
 2428SOL     OW 1952   3.302   2.718   3.260
 2428SOL    HW1 1953   3.245   2.770   3.197
 2428SOL    HW2 1954   3.398   2.730   3.236
 2429SOL     OW 1955   1.934   2.028   2.180
 2429SOL    HW1 1956   1.917   2.111   2.126
 2429SOL    HW2 1957   2.024   1.991   2.158
 2430SOL     OW 1958   3.045   3.197   1.981
 2430SOL    HW1 1959   2.946   3.186   1.983
 2430SOL    HW2 1960   3.079   3.212   2.074
 2431SOL     OW 1961   2.475   2.704   3.293
 2431SOL    HW1 1962   2.531   2.785   3.276
 2431SOL    HW2 1963   2.534   2.624   3.296
 2432SOL     OW 1964   3.355   3.629   2.821
 2432SOL    HW1 1965   3.388   3.693   2.752
 2432SOL    HW2 1966   3.421   3.623   2.896
 2433SOL     OW 1967   2.578   2.427   3.570
 2433SOL    HW1 1968   2.597   2.492   3.644
 2433SOL    HW2 1969   2.638   2.347   3.579
 2434SOL     OW 1970   3.312   3.082   3.495
 2434SOL    HW1 1971   3.303   3.072   3.594
 2434SOL    HW2 1972   3.408   3.075   3.469
 2435SOL     OW 1973   2.252   3.603   3.422
 2435SOL    HW1 1974   2.161   3.644   3.420
 2435SOL    HW2 1975   2.245   3.509   3.454
 2436SOL     OW 1976   3.536   2.745   3.116
 2436SOL    HW1 1977   3.509   2.656   3.079
 2436SOL    HW2 1978   3.537   2.813   3.043
 2437SOL     OW 1979   3.087   2.187   2.311
 2437SOL    HW1 1980   3.152   2.113   2.300
 2437SOL    HW2 1981   3.107   2.237   2.395
 2438SOL     OW 1982   3.639   2.204   3.504
 2438SOL    HW1 1983   3.622   2.235   3.410
 2438SOL    HW2 1984   3.555   2.167   3.542
 2439SOL     OW 1985   3.592   2.796   3.379
 2439SOL    HW1 1986   3.630   2.887   3.394
 2439SOL    HW2 1987   3.584   2.779   3.280
 2440SOL     OW 1988   2.721   3.236   1.878
 2440SOL    HW1 1989   2.675   3.251   1.966
 2440SOL    HW2 1990   2.765   3.321   1.848
 2441SOL     OW 1991   2.523   3.652   2.815
 2441SOL    HW1 1992   2.477   3.740   2.802
 2441SOL    HW2 1993   2.622   3.664   2.808
 2442SOL     OW 1994   2.721   2.818   2.723
 2442SOL    HW1 1995   2.775   2.749   2.771
 2442SOL    HW2 1996   2.689   2.887   2.789
 2443SOL     OW 1997   2.945   2.846   1.949
 2443SOL    HW1 1998   2.922   2.899   1.867
 2443SOL    HW2 1999   3.026   2.790   1.930
 2444SOL     OW 2000   3.723   3.431   2.713
 2444SOL    HW1 2001   3.652   3.419   2.643
 2444SOL    HW2 2002   3.724   3.352   2.773
 2445SOL     OW 2003   2.083   3.176   3.706
 2445SOL    HW1 2004   2.018   3.103   3.685
 2445SOL    HW2 2005   2.087   3.190   3.804
 2446SOL     OW 2006   1.941   3.102   2.515
 2446SOL    HW1 2007   1.940   3.055   2.603
 2446SOL    HW2 2008   2.023   3.074   2.464
 2447SOL     OW 2009   2.534   3.253   3.486
 2447SOL    HW1 2010   2.456   3.203   3.524
 2447SOL    HW2 2011   2.531   3.348   3.517
 2448SOL     OW 2012   3.686   2.054   3.089
 2448SOL    HW1 2013   3.682   1.964   3.133
 2448SOL    HW2 2014   3.689   2.043   2.990
 2449SOL     OW 2015   3.567   3.349   2.966
 2449SOL    HW1 2016   3.474   3.324   2.939
 2449SOL    HW2 2017   3.593   3.299   3.048
 2450SOL     OW 2018   2.179   2.409   3.142
 2450SOL    HW1 2019   2.217   2.350   3.214
 2450SOL    HW2 2020   2.219   2.383   3.054
 2451SOL     OW 2021   2.674   3.448   2.549
 2451SOL    HW1 2022   2.706   3.458   2.455
 2451SOL    HW2 2023   2.595   3.386   2.551
 2452SOL     OW 2024   3.286   2.076   2.974
 2452SOL    HW1 2025   3.338   2.011   3.029
 2452SOL    HW2 2026   3.237   2.139   3.035
 2453SOL     OW 2027   2.863   1.896   3.016
 2453SOL    HW1 2028   2.800   1.824   2.985
 2453SOL    HW2 2029   2.956   1.860   3.016
 2454SOL     OW 2030   2.632   3.192   2.163
 2454SOL    HW1 2031   2.586   3.105   2.180
 2454SOL    HW2 2032   2.723   3.189   2.204
 2455SOL     OW 2033   2.480   3.429   3.146
 2455SOL    HW1 2034   2.475   3.511   3.203
 2455SOL    HW2 2035   2.569   3.426   3.101
 2456SOL     OW 2036   3.214   1.914   2.030
 2456SOL    HW1 2037   3.249   1.873   1.946
 2456SOL    HW2 2038   3.124   1.876   2.050
 2457SOL     OW 2039   3.162   2.315   2.553
 2457SOL    HW1 2040   3.103   2.395   2.557
 2457SOL    HW2 2041   3.177   2.280   2.646
 2458SOL     OW 2042   3.455   2.083   2.744
 2458SOL    HW1 2043   3.371   2.082   2.798
 2458SOL    HW2 2044   3.457   2.166   2.688
 2459SOL     OW 2045   1.901   2.939   2.162
 2459SOL    HW1 2046   2.000   2.928   2.153
 2459SOL    HW2 2047   1.861   2.853   2.194
 2460SOL     OW 2048   2.737   3.508   2.199
 2460SOL    HW1 2049   2.660   3.473   2.145
 2460SOL    HW2 2050   2.705   3.579   2.261
 2461SOL     OW 2051   2.092   2.490   3.837
 2461SOL    HW1 2052   1.999   2.488   3.874
 2461SOL    HW2 2053   2.093   2.451   3.745
 2475SOL     OW 2054   2.468   2.826   3.847
 2475SOL    HW1 2055   2.475   2.910   3.793
 2475SOL    HW2 2056   2.514   2.839   3.935
 2478SOL     OW 2057   1.889   3.458   3.841
 2478SOL    HW1 2058   1.870   3.362   3.862
 2478SOL    HW2 2059   1.856   3.516   3.916
 2484SOL     OW 2060   3.387   2.861   3.914
 2484SOL    HW1 2061   3.324   2.785   3.927
 2484SOL    HW2 2062   3.435   2.879   4.000
 2487SOL     OW 2063   2.460   2.591   3.994
 2487SOL    HW1 2064   2.484   2.660   3.926
 2487SOL    HW2 2065   2.382   2.624   4.048
 2490SOL     OW 2066   2.903   2.563   4.153
 2490SOL    HW1 2067   2.929   2.559   4.249
 2490SOL    HW2 2068   2.818   2.512   4.139
 2492SOL     OW 2069   2.727   2.210   3.919
 2492SOL    HW1 2070   2.786   2.273   3.870
 2492SOL    HW2 2071   2.746   2.116   3.890
 2498SOL     OW 2072   2.183   2.805   3.966
 2498SOL    HW1 2073   2.265   2.844   3.924
 2498SOL    HW2 2074   2.156   2.723   3.917
 2506SOL     OW 2075   2.244   2.562   4.204
 2506SOL    HW1 2076   2.289   2.472   4.201
 2506SOL    HW2 2077   2.150   2.551   4.237
 2507SOL     OW 2078   2.476   1.984   3.841
 2507SOL    HW1 2079   2.574   1.962   3.848
 2507SOL    HW2 2080   2.445   1.967   3.748
 2511SOL     OW 2081   3.296   3.050   3.765
 2511SOL    HW1 2082   3.328   2.974   3.822
 2511SOL    HW2 2083   3.204   3.077   3.795
 2512SOL     OW 2084   2.159   1.897   3.895
 2512SOL    HW1 2085   2.208   1.981   3.874
 2512SOL    HW2 2086   2.221   1.832   3.940
 2517SOL     OW 2087   2.894   2.411   3.740
 2517SOL    HW1 2088   2.853   2.493   3.701
 2517SOL    HW2 2089   2.958   2.437   3.813
 2523SOL     OW 2090   2.350   3.247   3.898
 2523SOL    HW1 2091   2.263   3.232   3.945
 2523SOL    HW2 2092   2.333   3.273   3.803
 2525SOL     OW 2093   3.252   2.437   3.802
 2525SOL    HW1 2094   3.198   2.416   3.883
 2525SOL    HW2 2095   3.343   2.396   3.811
 2526SOL     OW 2096   2.389   2.118   4.052
 2526SOL    HW1 2097   2.416   2.059   3.977
 2526SOL    HW2 2098   2.389   2.213   4.021
 2529SOL     OW 2099   2.567   2.912   4.092
 2529SOL    HW1 2100   2.553   2.919   4.191
 2529SOL    HW2 2101   2.651   2.861   4.074
 2537SOL     OW 2102   3.071   2.387   3.999
 2537SOL    HW1 2103   3.084   2.303   4.053
 2537SOL    HW2 2104   3.042   2.461   4.059
 2543SOL     OW 2105   3.402   2.136   3.849
 2543SOL    HW1 2106   3.341   2.061   3.872
 2543SOL    HW2 2107   3.424   2.188   3.932
 2544SOL     OW 2108   3.165   2.700   3.766
 2544SOL    HW1 2109   3.199   2.607   3.781
 2544SOL    HW2 2110   3.183   2.727   3.671
 2548SOL     OW 2111   1.870   3.188   3.924
 2548SOL    HW1 2112   1.777   3.209   3.893
 2548SOL    HW2 2113   1.880   3.089   3.937
 2553SOL     OW 2114   2.677   2.434   4.049
 2553SOL    HW1 2115   2.684   2.345   4.003
 2553SOL    HW2 2116   2.583   2.468   4.041
 2555SOL     OW 2117   2.335   2.362   3.915
 2555SOL    HW1 2118   2.396   2.442   3.919
 2555SOL    HW2 2119   2.240   2.393   3.922
 2556SOL     OW 2120   3.164   2.717   4.033
 2556SOL    HW1 2121   3.078   2.686   4.075
 2556SOL    HW2 2122   3.160   2.703   3.934
 2562SOL     OW 2123   2.534   3.478   3.878
 2562SOL    HW1 2124   2.543   3.488   3.779
 2562SOL    HW2 2125   2.494   3.389   3.899
 2565SOL     OW 2126   3.056   3.474   3.755
 2565SOL    HW1 2127   3.062   3.381   3.792
 2565SOL    HW2 2128   2.997   3.474   3.675
 2567SOL     OW 2129   2.778   2.772   4.015
 2567SOL    HW1 2130   2.841   2.810   3.947
 2567SOL    HW2 2131   2.818   2.689   4.054
 2572SOL     OW 2132   2.117   3.210   4.014
 2572SOL    HW1 2133   2.021   3.211   3.987
 2572SOL    HW2 2134   2.129   3.263   4.098
 2573SOL     OW 2135   1.937   2.207   3.757
 2573SOL    HW1 2136   1.845   2.179   3.728
 2573SOL    HW2 2137   1.968   2.284   3.701
 2574SOL     OW 2138   1.934   2.028   4.042
 2574SOL    HW1 2139   1.917   2.111   3.988
 2574SOL    HW2 2140   2.024   1.991   4.020
 2575SOL     OW 2141   3.045   3.197   3.843
 2575SOL    HW1 2142   2.946   3.186   3.845
 2575SOL    HW2 2143   3.079   3.212   3.936
 2580SOL     OW 2144   2.721   3.236   3.740
 2580SOL    HW1 2145   2.675   3.251   3.828
 2580SOL    HW2 2146   2.765   3.321   3.710
 2583SOL     OW 2147   2.945   2.846   3.811
 2583SOL    HW1 2148   2.922   2.899   3.729
 2583SOL    HW2 2149   3.026   2.790   3.792
 2587SOL     OW 2150   2.290   2.286   4.244
 2587SOL    HW1 2151   2.320   2.214   4.182
 2587SOL    HW2 2152   2.251   2.246   4.327
 2590SOL     OW 2153   2.632   3.192   4.025
 2590SOL    HW1 2154   2.586   3.105   4.042
 2590SOL    HW2 2155   2.723   3.189   4.066
 2591SOL     OW 2156   3.214   1.914   3.892
 2591SOL    HW1 2157   3.249   1.873   3.808
 2591SOL    HW2 2158   3.124   1.876   3.912
 2594SOL     OW 2159   1.901   2.939   4.024
 2594SOL    HW1 2160   2.000   2.928   4.015
 2594SOL    HW2 2161   1.861   2.853   4.056
 2618SOL     OW 2162   2.179   3.975   1.801
 2618SOL    HW1 2163   2.250   4.046   1.807
 2618SOL    HW2 2164   2.091   4.014   1.829
 2638SOL     OW 2165   2.643   3.988   1.749
 2638SOL    HW1 2166   2.710   3.927   1.792
 2638SOL    HW2 2167   2.570   4.007   1.814
 2658SOL     OW 2168   2.777   3.813   1.402
 2658SOL    HW1 2169   2.802   3.793   1.307
 2658SOL    HW2 2170   2.849   3.869   1.444
 2667SOL     OW 2171   2.875   3.829   1.770
 2667SOL    HW1 2172   2.881   3.914   1.718
 2667SOL    HW2 2173   2.907   3.753   1.713
 2668SOL     OW 2174   2.366   3.774   1.740
 2668SOL    HW1 2175   2.324   3.717   1.670
 2668SOL    HW2 2176   2.300   3.843   1.772
 2707SOL     OW 2177   2.534   3.927   1.489
 2707SOL    HW1 2178   2.624   3.911   1.449
 2707SOL    HW2 2179   2.542   3.932   1.588
 2732SOL     OW 2180   2.087   3.999   2.858
 2732SOL    HW1 2181   2.122   3.982   2.950
 2732SOL    HW2 2182   1.999   3.954   2.846
 2733SOL     OW 2183   1.881   4.092   2.509
 2733SOL    HW1 2184   1.799   4.135   2.548
 2733SOL    HW2 2185   1.853   4.019   2.446
 2750SOL     OW 2186   2.671   3.728   2.364
 2750SOL    HW1 2187   2.711   3.819   2.355
 2750SOL    HW2 2188   2.571   3.736   2.370
 2755SOL     OW 2189   3.143   4.069   2.806
 2755SOL    HW1 2190   3.057   4.019   2.793
 2755SOL    HW2 2191   3.205   4.015   2.862
 2762SOL     OW 2192   2.727   4.072   2.057
 2762SOL    HW1 2193   2.786   4.135   2.008
 2762SOL    HW2 2194   2.746   3.978   2.028
 2764SOL     OW 2195   2.412   3.920   2.747
 2764SOL    HW1 2196   2.407   3.915   2.847
 2764SOL    HW2 2197   2.414   4.016   2.718
 2769SOL     OW 2198   3.262   3.831   2.288
 2769SOL    HW1 2199   3.238   3.794   2.198
 2769SOL    HW2 2200   3.361   3.847   2.292
 2772SOL     OW 2201   2.476   3.846   1.979
 2772SOL    HW1 2202   2.574   3.824   1.986
 2772SOL    HW2 2203   2.445   3.829   1.886
 2776SOL     OW 2204   2.401   3.788   2.374
 2776SOL    HW1 2205   2.320   3.789   2.432
 2776SOL    HW2 2206   2.404   3.871   2.319
 2777SOL     OW 2207   2.159   3.759   2.033
 2777SOL    HW1 2208   2.208   3.843   2.012
 2777SOL    HW2 2209   2.221   3.694   2.078
 2778SOL     OW 2210   2.797   3.960   2.342
 2778SOL    HW1 2211   2.749   4.001   2.264
 2778SOL    HW2 2212   2.896   3.958   2.323
 2783SOL     OW 2213   2.423   3.946   3.009
 2783SOL    HW1 2214   2.461   3.862   3.046
 2783SOL    HW2 2215   2.335   3.965   3.053
 2784SOL     OW 2216   2.728   4.178   2.504
 2784SOL    HW1 2217   2.696   4.250   2.442
 2784SOL    HW2 2218   2.752   4.097   2.451
 2785SOL     OW 2219   2.879   3.763   2.615
 2785SOL    HW1 2220   2.807   3.768   2.546
 2785SOL    HW2 2221   2.855   3.694   2.684
 2790SOL     OW 2222   2.389   3.980   2.190
 2790SOL    HW1 2223   2.416   3.921   2.115
 2790SOL    HW2 2224   2.389   4.075   2.159
 2793SOL     OW 2225   2.777   3.813   3.264
 2793SOL    HW1 2226   2.802   3.793   3.169
 2793SOL    HW2 2227   2.849   3.869   3.306
 2803SOL     OW 2228   2.366   3.774   3.602
 2803SOL    HW1 2229   2.324   3.717   3.532
 2803SOL    HW2 2230   2.300   3.843   3.634
 2807SOL     OW 2231   2.169   3.937   3.093
 2807SOL    HW1 2232   2.146   3.974   3.183
 2807SOL    HW2 2233   2.139   3.842   3.087
 2810SOL     OW 2234   2.169   3.787   2.480
 2810SOL    HW1 2235   2.158   3.881   2.513
 2810SOL    HW2 2236   2.164   3.724   2.557
 2819SOL     OW 2237   3.022   3.931   3.339
 2819SOL    HW1 2238   3.022   3.995   3.416
 2819SOL    HW2 2239   3.050   3.979   3.256
 2831SOL     OW 2240   3.588   3.859   2.385
 2831SOL    HW1 2241   3.661   3.842   2.318
 2831SOL    HW2 2242   3.557   3.772   2.423
 2834SOL     OW 2243   2.125   4.050   2.582
 2834SOL    HW1 2244   2.046   4.101   2.548
 2834SOL    HW2 2245   2.116   4.035   2.680
 2838SOL     OW 2246   2.876   3.960   2.833
 2838SOL    HW1 2247   2.868   3.924   2.740
 2838SOL    HW2 2248   2.874   3.884   2.898
 2841SOL     OW 2249   2.534   3.927   3.351
 2841SOL    HW1 2250   2.624   3.911   3.311
 2841SOL    HW2 2251   2.542   3.932   3.450
 2842SOL     OW 2252   1.937   4.069   1.895
 2842SOL    HW1 2253   1.845   4.041   1.866
 2842SOL    HW2 2254   1.968   4.146   1.839
 2844SOL     OW 2255   1.934   3.890   2.180
 2844SOL    HW1 2256   1.917   3.973   2.126
 2844SOL    HW2 2257   2.024   3.853   2.158
 2850SOL     OW 2258   3.087   4.049   2.311
 2850SOL    HW1 2259   3.152   3.975   2.300
 2850SOL    HW2 2260   3.107   4.099   2.395
 2858SOL     OW 2261   2.290   4.148   2.382
 2858SOL    HW1 2262   2.320   4.076   2.320
 2858SOL    HW2 2263   2.251   4.108   2.465
 2860SOL     OW 2264   3.286   3.938   2.974
 2860SOL    HW1 2265   3.338   3.873   3.029
 2860SOL    HW2 2266   3.237   4.001   3.035
 2861SOL     OW 2267   2.863   3.758   3.016
 2861SOL    HW1 2268   2.800   3.686   2.985
 2861SOL    HW2 2269   2.956   3.722   3.016
 2863SOL     OW 2270   3.214   3.776   2.030
 2863SOL    HW1 2271   3.249   3.735   1.946
 2863SOL    HW2 2272   3.124   3.738   2.050
 2989SOL     OW 2273   3.854   1.821   1.571
 2989SOL    HW1 2274   3.844   1.806   1.670
 2989SOL    HW2 2275   3.768   1.857   1.535
 3062SOL     OW 2276   3.854   1.794   1.851
 3062SOL    HW1 2277   3.813   1.720   1.904
 3062SOL    HW2 2278   3.918   1.845   1.909
 3105SOL     OW 2279   3.955   1.713   2.345
 3105SOL    HW1 2280   3.989   1.790   2.399
 3105SOL    HW2 2281   3.999   1.713   2.255
 3112SOL     OW 2282   3.751   1.596   1.979
 3112SOL    HW1 2283   3.732   1.500   2.000
 3112SOL    HW2 2284   3.718   1.654   2.054
 3128SOL     OW 2285   4.075   1.801   2.715
 3128SOL    HW1 2286   4.125   1.715   2.721
 3128SOL    HW2 2287   4.140   1.878   2.712
 3133SOL     OW 2288   3.973   1.785   3.103
 3133SOL    HW1 2289   4.030   1.720   3.153
 3133SOL    HW2 2290   3.957   1.752   3.010
 3158SOL     OW 2291   3.788   1.564   3.193
 3158SOL    HW1 2292   3.742   1.646   3.159
 3158SOL    HW2 2293   3.886   1.583   3.202
 3181SOL     OW 2294   3.732   1.326   2.062
 3181SOL    HW1 2295   3.639   1.347   2.031
 3181SOL    HW2 2296   3.742   1.227   2.075
 3182SOL     OW 2297   3.812   1.801   2.789
 3182SOL    HW1 2298   3.770   1.715   2.762
 3182SOL    HW2 2299   3.906   1.804   2.755
 3337SOL     OW 2300   3.837   2.599   1.597
 3337SOL    HW1 2301   3.925   2.586   1.642
 3337SOL    HW2 2302   3.824   2.696   1.575
 3341SOL     OW 2303   4.041   2.113   1.801
 3341SOL    HW1 2304   4.112   2.184   1.807
 3341SOL    HW2 2305   3.953   2.152   1.829
 3355SOL     OW 2306   3.926   2.147   1.498
 3355SOL    HW1 2307   3.846   2.207   1.485
 3355SOL    HW2 2308   3.916   2.098   1.584
 3373SOL     OW 2309   3.802   2.418   1.386
 3373SOL    HW1 2310   3.894   2.417   1.345
 3373SOL    HW2 2311   3.796   2.492   1.453
 3399SOL     OW 2312   4.074   2.760   1.804
 3399SOL    HW1 2313   4.150   2.804   1.852
 3399SOL    HW2 2314   4.109   2.713   1.722
 3410SOL     OW 2315   3.913   2.382   1.722
 3410SOL    HW1 2316   3.972   2.342   1.652
 3410SOL    HW2 2317   3.855   2.453   1.681
 3432SOL     OW 2318   3.829   2.875   1.726
 3432SOL    HW1 2319   3.752   2.842   1.780
 3432SOL    HW2 2320   3.914   2.845   1.768
 3443SOL     OW 2321   3.945   3.176   1.844
 3443SOL    HW1 2322   3.880   3.103   1.823
 3443SOL    HW2 2323   3.949   3.190   1.942
 3454SOL     OW 2324   3.954   2.490   1.975
 3454SOL    HW1 2325   3.861   2.488   2.012
 3454SOL    HW2 2326   3.955   2.451   1.883
 3455SOL     OW 2327   3.949   2.137   2.858
 3455SOL    HW1 2328   3.984   2.120   2.950
 3455SOL    HW2 2329   3.861   2.092   2.846
 3456SOL     OW 2330   3.743   2.230   2.509
 3456SOL    HW1 2331   3.661   2.273   2.548
 3456SOL    HW2 2332   3.715   2.157   2.446
 3466SOL     OW 2333   3.954   3.296   2.400
 3466SOL    HW1 2334   3.928   3.392   2.400
 3466SOL    HW2 2335   3.883   3.242   2.445
 3467SOL     OW 2336   3.964   2.953   2.748
 3467SOL    HW1 2337   3.978   2.869   2.800
 3467SOL    HW2 2338   3.909   3.017   2.803
 3470SOL     OW 2339   3.846   2.505   2.425
 3470SOL    HW1 2340   3.801   2.417   2.442
 3470SOL    HW2 2341   3.845   2.559   2.509
 3471SOL     OW 2342   3.751   3.458   1.979
 3471SOL    HW1 2343   3.732   3.362   2.000
 3471SOL    HW2 2344   3.718   3.516   2.054
 3472SOL     OW 2345   3.837   2.599   3.459
 3472SOL    HW1 2346   3.925   2.586   3.504
 3472SOL    HW2 2347   3.824   2.696   3.437
 3475SOL     OW 2348   3.921   2.838   3.126
 3475SOL    HW1 2349   4.010   2.793   3.112
 3475SOL    HW2 2350   3.848   2.773   3.107
 3482SOL     OW 2351   3.800   2.673   2.651
 3482SOL    HW1 2352   3.899   2.661   2.660
 3482SOL    HW2 2353   3.776   2.768   2.672
 3488SOL     OW 2354   4.045   2.805   2.104
 3488SOL    HW1 2355   4.127   2.844   2.062
 3488SOL    HW2 2356   4.018   2.723   2.055
 3490SOL     OW 2357   3.926   2.147   3.360
 3490SOL    HW1 2358   3.846   2.207   3.347
 3490SOL    HW2 2359   3.916   2.098   3.446
 3494SOL     OW 2360   4.106   2.562   2.342
 3494SOL    HW1 2361   4.151   2.472   2.339
 3494SOL    HW2 2362   4.012   2.551   2.375
 3501SOL     OW 2363   4.021   1.897   2.033
 3501SOL    HW1 2364   4.070   1.981   2.012
 3501SOL    HW2 2365   4.083   1.832   2.078
 3507SOL     OW 2366   3.802   2.418   3.248
 3507SOL    HW1 2367   3.894   2.417   3.207
 3507SOL    HW2 2368   3.796   2.492   3.315
 3517SOL     OW 2369   3.788   3.426   3.193
 3517SOL    HW1 2370   3.742   3.508   3.159
 3517SOL    HW2 2371   3.886   3.445   3.202
 3518SOL     OW 2372   4.091   2.962   2.363
 3518SOL    HW1 2373   4.084   3.045   2.307
 3518SOL    HW2 2374   4.095   2.882   2.303
 3527SOL     OW 2375   4.031   2.075   3.093
 3527SOL    HW1 2376   4.008   2.112   3.183
 3527SOL    HW2 2377   4.001   1.980   3.087
 3528SOL     OW 2378   3.761   3.172   3.144
 3528SOL    HW1 2379   3.814   3.123   3.212
 3528SOL    HW2 2380   3.783   3.270   3.149
 3530SOL     OW 2381   4.031   1.925   2.480
 3530SOL    HW1 2382   4.020   2.019   2.513
 3530SOL    HW2 2383   4.026   1.862   2.557
 3536SOL     OW 2384   4.043   2.672   2.811
 3536SOL    HW1 2385   4.136   2.708   2.816
 3536SOL    HW2 2386   4.037   2.587   2.863
 3537SOL     OW 2387   4.063   2.371   2.868
 3537SOL    HW1 2388   4.011   2.288   2.851
 3537SOL    HW2 2389   4.140   2.376   2.804
 3540SOL     OW 2390   3.732   3.188   2.062
 3540SOL    HW1 2391   3.639   3.209   2.031
 3540SOL    HW2 2392   3.742   3.089   2.075
 3544SOL     OW 2393   3.764   2.406   2.976
 3544SOL    HW1 2394   3.849   2.373   2.935
 3544SOL    HW2 2395   3.777   2.421   3.074
 3550SOL     OW 2396   4.197   2.362   2.053
 3550SOL    HW1 2397   4.258   2.442   2.057
 3550SOL    HW2 2398   4.102   2.393   2.060
 3551SOL     OW 2399   3.883   2.999   3.328
 3551SOL    HW1 2400   3.905   2.938   3.404
 3551SOL    HW2 2401   3.893   2.950   3.242
 3553SOL     OW 2402   3.807   3.120   2.884
 3553SOL    HW1 2403   3.802   3.119   2.984
 3553SOL    HW2 2404   3.724   3.079   2.846
 3558SOL     OW 2405   3.987   2.188   2.582
 3558SOL    HW1 2406   3.908   2.239   2.548
 3558SOL    HW2 2407   3.978   2.173   2.680
 3565SOL     OW 2408   3.979   3.210   2.152
 3565SOL    HW1 2409   3.883   3.211   2.125
 3565SOL    HW2 2410   3.991   3.263   2.236
 3568SOL     OW 2411   3.799   2.207   1.895
 3568SOL    HW1 2412   3.707   2.179   1.866
 3568SOL    HW2 2413   3.830   2.284   1.839
 3569SOL     OW 2414   3.796   2.028   2.180
 3569SOL    HW1 2415   3.779   2.111   2.126
 3569SOL    HW2 2416   3.886   1.991   2.158
 3579SOL     OW 2417   3.803   3.102   2.515
 3579SOL    HW1 2418   3.802   3.055   2.603
 3579SOL    HW2 2419   3.885   3.074   2.464
 3581SOL     OW 2420   4.152   2.286   2.382
 3581SOL    HW1 2421   4.182   2.214   2.320
 3581SOL    HW2 2422   4.113   2.246   2.465
 3582SOL     OW 2423   4.041   2.409   3.142
 3582SOL    HW1 2424   4.079   2.350   3.214
 3582SOL    HW2 2425   4.081   2.383   3.054
 3587SOL     OW 2426   3.763   2.939   2.162
 3587SOL    HW1 2427   3.862   2.928   2.153
 3587SOL    HW2 2428   3.723   2.853   2.194
   4.92560   4.92560   4.92560
