; mobley_8436428_GMX.itp created by acpype (v: 2023.10.27) on Thu May 21 00:21:54 2026

[ atomtypes ]
;name   bond_type     mass     charge   ptype   sigma         epsilon       Amb
 c3       c3          0.00000  0.00000   A     3.39771e-01   4.51035e-01 ; 1.91  0.1078
 hc       hc          0.00000  0.00000   A     2.60018e-01   8.70272e-02 ; 1.46  0.0208

[ moleculetype ]
;name            nrexcl
 mobley_8436428   3

[ atoms ]
;   nr  type  resi  res  atom  cgnr     charge      mass       ; qtot   bond_type
     1   c3     1   MOL    C1    1    -0.089850     12.01000 ; qtot -0.090
     2   c3     1   MOL    C2    2    -0.089850     12.01000 ; qtot -0.180
     3   c3     1   MOL    C3    3    -0.089850     12.01000 ; qtot -0.270
     4   c3     1   MOL    C4    4    -0.089850     12.01000 ; qtot -0.359
     5   c3     1   MOL    C5    5    -0.069400     12.01000 ; qtot -0.429
     6   c3     1   MOL    C6    6    -0.064200     12.01000 ; qtot -0.493
     7   c3     1   MOL    C7    7    -0.064200     12.01000 ; qtot -0.557
     8   hc     1   MOL    H1    8     0.032950      1.00800 ; qtot -0.524
     9   hc     1   MOL    H2    9     0.032950      1.00800 ; qtot -0.491
    10   hc     1   MOL    H3   10     0.032950      1.00800 ; qtot -0.458
    11   hc     1   MOL    H4   11     0.032950      1.00800 ; qtot -0.425
    12   hc     1   MOL    H5   12     0.032950      1.00800 ; qtot -0.392
    13   hc     1   MOL    H6   13     0.032950      1.00800 ; qtot -0.359
    14   hc     1   MOL    H7   14     0.032950      1.00800 ; qtot -0.327
    15   hc     1   MOL    H8   15     0.032950      1.00800 ; qtot -0.294
    16   hc     1   MOL    H9   16     0.032950      1.00800 ; qtot -0.261
    17   hc     1   MOL   H10   17     0.032950      1.00800 ; qtot -0.228
    18   hc     1   MOL   H11   18     0.032950      1.00800 ; qtot -0.195
    19   hc     1   MOL   H12   19     0.032950      1.00800 ; qtot -0.162
    20   hc     1   MOL   H13   20     0.037200      1.00800 ; qtot -0.125
    21   hc     1   MOL   H14   21     0.037200      1.00800 ; qtot -0.087
    22   hc     1   MOL   H15   22     0.043700      1.00800 ; qtot -0.044
    23   hc     1   MOL   H16   23     0.043700      1.00800 ; qtot 0.000

[ bonds ]
;   ai     aj funct   r             k
     1      6   1    1.5354e-01    1.9154e+05 ;     C1 - C6    
     1      8   1    1.0962e-01    2.8891e+05 ;     C1 - H1    
     1      9   1    1.0962e-01    2.8891e+05 ;     C1 - H2    
     1     10   1    1.0962e-01    2.8891e+05 ;     C1 - H3    
     2      6   1    1.5354e-01    1.9154e+05 ;     C2 - C6    
     2     11   1    1.0962e-01    2.8891e+05 ;     C2 - H4    
     2     12   1    1.0962e-01    2.8891e+05 ;     C2 - H5    
     2     13   1    1.0962e-01    2.8891e+05 ;     C2 - H6    
     3      7   1    1.5354e-01    1.9154e+05 ;     C3 - C7    
     3     14   1    1.0962e-01    2.8891e+05 ;     C3 - H7    
     3     15   1    1.0962e-01    2.8891e+05 ;     C3 - H8    
     3     16   1    1.0962e-01    2.8891e+05 ;     C3 - H9    
     4      7   1    1.5354e-01    1.9154e+05 ;     C4 - C7    
     4     17   1    1.0962e-01    2.8891e+05 ;     C4 - H10   
     4     18   1    1.0962e-01    2.8891e+05 ;     C4 - H11   
     4     19   1    1.0962e-01    2.8891e+05 ;     C4 - H12   
     5      6   1    1.5354e-01    1.9154e+05 ;     C5 - C6    
     5      7   1    1.5354e-01    1.9154e+05 ;     C5 - C7    
     5     20   1    1.0962e-01    2.8891e+05 ;     C5 - H13   
     5     21   1    1.0962e-01    2.8891e+05 ;     C5 - H14   
     6     22   1    1.0962e-01    2.8891e+05 ;     C6 - H15   
     7     23   1    1.0962e-01    2.8891e+05 ;     C7 - H16   

[ pairs ]
;   ai     aj    funct
     1      7      1 ;     C1 - C7    
     1     11      1 ;     C1 - H4    
     1     12      1 ;     C1 - H5    
     1     13      1 ;     C1 - H6    
     1     20      1 ;     C1 - H13   
     1     21      1 ;     C1 - H14   
     2      7      1 ;     C2 - C7    
     2     20      1 ;     C2 - H13   
     2     21      1 ;     C2 - H14   
     3      6      1 ;     C3 - C6    
     3     17      1 ;     C3 - H10   
     3     18      1 ;     C3 - H11   
     3     19      1 ;     C3 - H12   
     3     20      1 ;     C3 - H13   
     3     21      1 ;     C3 - H14   
     4      6      1 ;     C4 - C6    
     4     14      1 ;     C4 - H7    
     4     15      1 ;     C4 - H8    
     4     16      1 ;     C4 - H9    
     4     20      1 ;     C4 - H13   
     4     21      1 ;     C4 - H14   
     5     11      1 ;     C5 - H4    
     5     12      1 ;     C5 - H5    
     5     13      1 ;     C5 - H6    
     5     14      1 ;     C5 - H7    
     5     15      1 ;     C5 - H8    
     5     16      1 ;     C5 - H9    
     5     17      1 ;     C5 - H10   
     5     18      1 ;     C5 - H11   
     5     19      1 ;     C5 - H12   
     6     23      1 ;     C6 - H16   
     7     22      1 ;     C7 - H15   
     8      2      1 ;     H1 - C2    
     8      5      1 ;     H1 - C5    
     8     22      1 ;     H1 - H15   
     9      2      1 ;     H2 - C2    
     9      5      1 ;     H2 - C5    
     9     22      1 ;     H2 - H15   
    10      2      1 ;     H3 - C2    
    10      5      1 ;     H3 - C5    
    10     22      1 ;     H3 - H15   
    11     22      1 ;     H4 - H15   
    12     22      1 ;     H5 - H15   
    13     22      1 ;     H6 - H15   
    14     23      1 ;     H7 - H16   
    15     23      1 ;     H8 - H16   
    16     23      1 ;     H9 - H16   
    17     23      1 ;    H10 - H16   
    18     23      1 ;    H11 - H16   
    19     23      1 ;    H12 - H16   
    20     22      1 ;    H13 - H15   
    20     23      1 ;    H13 - H16   
    21     22      1 ;    H14 - H15   
    21     23      1 ;    H14 - H16   

[ angles ]
;   ai     aj     ak    funct   theta         cth
     1      6      2      1    1.1263e+02    5.0099e+02 ;     C1 - C6     - C2    
     1      6      5      1    1.1263e+02    5.0099e+02 ;     C1 - C6     - C5    
     1      6     22      1    1.0968e+02    3.6208e+02 ;     C1 - C6     - H15   
     2      6      5      1    1.1263e+02    5.0099e+02 ;     C2 - C6     - C5    
     2      6     22      1    1.0968e+02    3.6208e+02 ;     C2 - C6     - H15   
     3      7      4      1    1.1263e+02    5.0099e+02 ;     C3 - C7     - C4    
     3      7      5      1    1.1263e+02    5.0099e+02 ;     C3 - C7     - C5    
     3      7     23      1    1.0968e+02    3.6208e+02 ;     C3 - C7     - H16   
     4      7      5      1    1.1263e+02    5.0099e+02 ;     C4 - C7     - C5    
     4      7     23      1    1.0968e+02    3.6208e+02 ;     C4 - C7     - H16   
     5      6     22      1    1.0968e+02    3.6208e+02 ;     C5 - C6     - H15   
     5      7     23      1    1.0968e+02    3.6208e+02 ;     C5 - C7     - H16   
     6      1      8      1    1.0968e+02    3.6208e+02 ;     C6 - C1     - H1    
     6      1      9      1    1.0968e+02    3.6208e+02 ;     C6 - C1     - H2    
     6      1     10      1    1.0968e+02    3.6208e+02 ;     C6 - C1     - H3    
     6      2     11      1    1.0968e+02    3.6208e+02 ;     C6 - C2     - H4    
     6      2     12      1    1.0968e+02    3.6208e+02 ;     C6 - C2     - H5    
     6      2     13      1    1.0968e+02    3.6208e+02 ;     C6 - C2     - H6    
     6      5      7      1    1.1263e+02    5.0099e+02 ;     C6 - C5     - C7    
     6      5     20      1    1.0968e+02    3.6208e+02 ;     C6 - C5     - H13   
     6      5     21      1    1.0968e+02    3.6208e+02 ;     C6 - C5     - H14   
     7      3     14      1    1.0968e+02    3.6208e+02 ;     C7 - C3     - H7    
     7      3     15      1    1.0968e+02    3.6208e+02 ;     C7 - C3     - H8    
     7      3     16      1    1.0968e+02    3.6208e+02 ;     C7 - C3     - H9    
     7      4     17      1    1.0968e+02    3.6208e+02 ;     C7 - C4     - H10   
     7      4     18      1    1.0968e+02    3.6208e+02 ;     C7 - C4     - H11   
     7      4     19      1    1.0968e+02    3.6208e+02 ;     C7 - C4     - H12   
     7      5     20      1    1.0968e+02    3.6208e+02 ;     C7 - C5     - H13   
     7      5     21      1    1.0968e+02    3.6208e+02 ;     C7 - C5     - H14   
     8      1      9      1    1.0773e+02    2.9957e+02 ;     H1 - C1     - H2    
     8      1     10      1    1.0773e+02    2.9957e+02 ;     H1 - C1     - H3    
     9      1     10      1    1.0773e+02    2.9957e+02 ;     H2 - C1     - H3    
    11      2     12      1    1.0773e+02    2.9957e+02 ;     H4 - C2     - H5    
    11      2     13      1    1.0773e+02    2.9957e+02 ;     H4 - C2     - H6    
    12      2     13      1    1.0773e+02    2.9957e+02 ;     H5 - C2     - H6    
    14      3     15      1    1.0773e+02    2.9957e+02 ;     H7 - C3     - H8    
    14      3     16      1    1.0773e+02    2.9957e+02 ;     H7 - C3     - H9    
    15      3     16      1    1.0773e+02    2.9957e+02 ;     H8 - C3     - H9    
    17      4     18      1    1.0773e+02    2.9957e+02 ;    H10 - C4     - H11   
    17      4     19      1    1.0773e+02    2.9957e+02 ;    H10 - C4     - H12   
    18      4     19      1    1.0773e+02    2.9957e+02 ;    H11 - C4     - H12   
    20      5     21      1    1.0773e+02    2.9957e+02 ;    H13 - C5     - H14   

[ dihedrals ] ; propers
; for gromacs 4.5 or higher, using funct 9
;    i      j      k      l   func   phase     kd      pn
     1      6      2     11      9     0.00   0.54392   3 ;     C1-    C6-    C2-    H4
     1      6      2     12      9     0.00   0.54392   3 ;     C1-    C6-    C2-    H5
     1      6      2     13      9     0.00   0.54392   3 ;     C1-    C6-    C2-    H6
     1      6      5      7      9     0.00   2.17568   3 ;     C1-    C6-    C5-    C7
     1      6      5     20      9     0.00   0.54392   3 ;     C1-    C6-    C5-   H13
     1      6      5     21      9     0.00   0.54392   3 ;     C1-    C6-    C5-   H14
     2      6      5      7      9     0.00   2.17568   3 ;     C2-    C6-    C5-    C7
     2      6      5     20      9     0.00   0.54392   3 ;     C2-    C6-    C5-   H13
     2      6      5     21      9     0.00   0.54392   3 ;     C2-    C6-    C5-   H14
     3      7      4     17      9     0.00   0.54392   3 ;     C3-    C7-    C4-   H10
     3      7      4     18      9     0.00   0.54392   3 ;     C3-    C7-    C4-   H11
     3      7      4     19      9     0.00   0.54392   3 ;     C3-    C7-    C4-   H12
     3      7      5      6      9     0.00   2.17568   3 ;     C3-    C7-    C5-    C6
     3      7      5     20      9     0.00   0.54392   3 ;     C3-    C7-    C5-   H13
     3      7      5     21      9     0.00   0.54392   3 ;     C3-    C7-    C5-   H14
     4      7      3     14      9     0.00   0.54392   3 ;     C4-    C7-    C3-    H7
     4      7      3     15      9     0.00   0.54392   3 ;     C4-    C7-    C3-    H8
     4      7      3     16      9     0.00   0.54392   3 ;     C4-    C7-    C3-    H9
     4      7      5      6      9     0.00   2.17568   3 ;     C4-    C7-    C5-    C6
     4      7      5     20      9     0.00   0.54392   3 ;     C4-    C7-    C5-   H13
     4      7      5     21      9     0.00   0.54392   3 ;     C4-    C7-    C5-   H14
     5      6      2     11      9     0.00   0.54392   3 ;     C5-    C6-    C2-    H4
     5      6      2     12      9     0.00   0.54392   3 ;     C5-    C6-    C2-    H5
     5      6      2     13      9     0.00   0.54392   3 ;     C5-    C6-    C2-    H6
     5      7      3     14      9     0.00   0.54392   3 ;     C5-    C7-    C3-    H7
     5      7      3     15      9     0.00   0.54392   3 ;     C5-    C7-    C3-    H8
     5      7      3     16      9     0.00   0.54392   3 ;     C5-    C7-    C3-    H9
     5      7      4     17      9     0.00   0.54392   3 ;     C5-    C7-    C4-   H10
     5      7      4     18      9     0.00   0.54392   3 ;     C5-    C7-    C4-   H11
     5      7      4     19      9     0.00   0.54392   3 ;     C5-    C7-    C4-   H12
     6      5      7     23      9     0.00   0.54392   3 ;     C6-    C5-    C7-   H16
     7      5      6     22      9     0.00   0.54392   3 ;     C7-    C5-    C6-   H15
     8      1      6      2      9     0.00   0.54392   3 ;     H1-    C1-    C6-    C2
     8      1      6      5      9     0.00   0.54392   3 ;     H1-    C1-    C6-    C5
     8      1      6     22      9     0.00   0.50208   3 ;     H1-    C1-    C6-   H15
     9      1      6      2      9     0.00   0.54392   3 ;     H2-    C1-    C6-    C2
     9      1      6      5      9     0.00   0.54392   3 ;     H2-    C1-    C6-    C5
     9      1      6     22      9     0.00   0.50208   3 ;     H2-    C1-    C6-   H15
    10      1      6      2      9     0.00   0.54392   3 ;     H3-    C1-    C6-    C2
    10      1      6      5      9     0.00   0.54392   3 ;     H3-    C1-    C6-    C5
    10      1      6     22      9     0.00   0.50208   3 ;     H3-    C1-    C6-   H15
    11      2      6     22      9     0.00   0.50208   3 ;     H4-    C2-    C6-   H15
    12      2      6     22      9     0.00   0.50208   3 ;     H5-    C2-    C6-   H15
    13      2      6     22      9     0.00   0.50208   3 ;     H6-    C2-    C6-   H15
    14      3      7     23      9     0.00   0.50208   3 ;     H7-    C3-    C7-   H16
    15      3      7     23      9     0.00   0.50208   3 ;     H8-    C3-    C7-   H16
    16      3      7     23      9     0.00   0.50208   3 ;     H9-    C3-    C7-   H16
    17      4      7     23      9     0.00   0.50208   3 ;    H10-    C4-    C7-   H16
    18      4      7     23      9     0.00   0.50208   3 ;    H11-    C4-    C7-   H16
    19      4      7     23      9     0.00   0.50208   3 ;    H12-    C4-    C7-   H16
    20      5      6     22      9     0.00   0.50208   3 ;    H13-    C5-    C6-   H15
    20      5      7     23      9     0.00   0.50208   3 ;    H13-    C5-    C7-   H16
    21      5      6     22      9     0.00   0.50208   3 ;    H14-    C5-    C6-   H15
    21      5      7     23      9     0.00   0.50208   3 ;    H14-    C5-    C7-   H16
