; mobley_4338603_GMX.itp created by acpype (v: 2023.10.27) on Thu May 21 00:21:59 2026

[ atomtypes ]
;name   bond_type     mass     charge   ptype   sigma         epsilon       Amb
 cc       cc          0.00000  0.00000   A     3.31521e-01   4.13379e-01 ; 1.86  0.0988
 cd       cd          0.00000  0.00000   A     3.31521e-01   4.13379e-01 ; 1.86  0.0988
 c        c           0.00000  0.00000   A     3.31521e-01   4.13379e-01 ; 1.86  0.0988
 ns       ns          0.00000  0.00000   A     3.26995e-01   4.91202e-01 ; 1.84  0.1174
 o        o           0.00000  0.00000   A     3.04812e-01   6.12119e-01 ; 1.71  0.1463
 cl       cl          0.00000  0.00000   A     3.46595e-01   1.10374e+00 ; 1.95  0.2638
 ha       ha          0.00000  0.00000   A     2.62548e-01   6.73624e-02 ; 1.47  0.0161
 hn       hn          0.00000  0.00000   A     1.10650e-01   4.18400e-02 ; 0.62  0.0100

[ moleculetype ]
;name            nrexcl
 mobley_4338603   3

[ atoms ]
;   nr  type  resi  res  atom  cgnr     charge      mass       ; qtot   bond_type
     1   cc     1   MOL    C1    1    -0.304200     12.01000 ; qtot -0.304
     2   cd     1   MOL    C2    2     0.190000     12.01000 ; qtot -0.114
     3    c     1   MOL    C3    3     0.717700     12.01000 ; qtot 0.603
     4    c     1   MOL    C4    4     0.810500     12.01000 ; qtot 1.414
     5   ns     1   MOL    N1    5    -0.476100     14.01000 ; qtot 0.938
     6   ns     1   MOL    N2    6    -0.584500     14.01000 ; qtot 0.353
     7    o     1   MOL    O1    7    -0.595500     16.00000 ; qtot -0.242
     8    o     1   MOL    O2    8    -0.625500     16.00000 ; qtot -0.868
     9   cl     1   MOL   CL1    9    -0.046400     35.45000 ; qtot -0.914
    10   ha     1   MOL    H1   10     0.192000      1.00800 ; qtot -0.722
    11   hn     1   MOL    H2   11     0.363500      1.00800 ; qtot -0.359
    12   hn     1   MOL    H3   12     0.358500      1.00800 ; qtot -0.000

[ bonds ]
;   ai     aj funct   r             k
     1      2   1    1.3730e-01    3.2321e+05 ;     C1 - C2    
     1      3   1    1.4687e-01    2.3579e+05 ;     C1 - C3    
     1     10   1    1.0838e-01    3.0470e+05 ;     C1 - H1    
     2      5   1    1.3765e-01    2.8439e+05 ;     C2 - N1    
     2      9   1    1.7333e-01    1.6771e+05 ;     C2 - CL1   
     3      6   1    1.3798e-01    2.8122e+05 ;     C3 - N2    
     3      7   1    1.2190e-01    4.9421e+05 ;     C3 - O1    
     4      5   1    1.3798e-01    2.8122e+05 ;     C4 - N1    
     4      6   1    1.3798e-01    2.8122e+05 ;     C4 - N2    
     4      8   1    1.2190e-01    4.9421e+05 ;     C4 - O2    
     5     11   1    1.0132e-01    3.9630e+05 ;     N1 - H2    
     6     12   1    1.0132e-01    3.9630e+05 ;     N2 - H3    

[ pairs ]
;   ai     aj    funct
     1      4      1 ;     C1 - C4    
     1     11      1 ;     C1 - H2    
     1     12      1 ;     C1 - H3    
     2      6      1 ;     C2 - N2    
     2      7      1 ;     C2 - O1    
     2      8      1 ;     C2 - O2    
     3      5      1 ;     C3 - N1    
     3      8      1 ;     C3 - O2    
     3      9      1 ;     C3 - CL1   
     4      7      1 ;     C4 - O1    
     4      9      1 ;     C4 - CL1   
     5     12      1 ;     N1 - H3    
     6     11      1 ;     N2 - H2    
     7     12      1 ;     O1 - H3    
     8     11      1 ;     O2 - H2    
     8     12      1 ;     O2 - H3    
     9     11      1 ;    CL1 - H2    
    10      5      1 ;     H1 - N1    
    10      6      1 ;     H1 - N2    
    10      7      1 ;     H1 - O1    
    10      9      1 ;     H1 - CL1   

[ angles ]
;   ai     aj     ak    funct   theta         cth
     1      2      5      1    1.2046e+02    5.7438e+02 ;     C1 - C2     - N1    
     1      2      9      1    1.2336e+02    5.3513e+02 ;     C1 - C2     - CL1   
     1      3      6      1    1.1288e+02    5.7162e+02 ;     C1 - C3     - N2    
     1      3      7      1    1.2406e+02    6.5572e+02 ;     C1 - C3     - O1    
     2      1      3      1    1.2132e+02    5.2049e+02 ;     C2 - C1     - C3    
     2      1     10      1    1.2140e+02    3.7907e+02 ;     C2 - C1     - H1    
     2      5      4      1    1.2538e+02    6.5379e+02 ;     C2 - N1     - C4    
     2      5     11      1    1.1991e+02    4.7580e+02 ;     C2 - N1     - H2    
     3      1     10      1    1.1681e+02    3.6543e+02 ;     C3 - C1     - H1    
     3      6      4      1    1.2805e+02    6.4618e+02 ;     C3 - N2     - C4    
     3      6     12      1    1.1726e+02    4.8007e+02 ;     C3 - N2     - H3    
     4      5     11      1    1.1726e+02    4.8007e+02 ;     C4 - N1     - H2    
     4      6     12      1    1.1726e+02    4.8007e+02 ;     C4 - N2     - H3    
     5      2      9      1    1.1598e+02    5.8425e+02 ;     N1 - C2     - CL1   
     5      4      6      1    1.1289e+02    6.2752e+02 ;     N1 - C4     - N2    
     5      4      8      1    1.2305e+02    7.2977e+02 ;     N1 - C4     - O2    
     6      3      7      1    1.2305e+02    7.2977e+02 ;     N2 - C3     - O1    
     6      4      8      1    1.2305e+02    7.2977e+02 ;     N2 - C4     - O2    

[ dihedrals ] ; propers
; for gromacs 4.5 or higher, using funct 9
;    i      j      k      l   func   phase     kd      pn
     1      2      5      4      9   180.00   6.90360   2 ;     C1-    C2-    N1-    C4
     1      2      5     11      9   180.00   6.90360   2 ;     C1-    C2-    N1-    H2
     1      3      6      4      9   180.00  10.46000   2 ;     C1-    C3-    N2-    C4
     1      3      6     12      9   180.00  10.46000   2 ;     C1-    C3-    N2-    H3
     2      1      3      6      9   180.00  12.02900   2 ;     C2-    C1-    C3-    N2
     2      1      3      7      9   180.00  12.02900   2 ;     C2-    C1-    C3-    O1
     2      5      4      6      9   180.00   3.65054   2 ;     C2-    N1-    C4-    N2
     2      5      4      8      9   180.00  10.46000   2 ;     C2-    N1-    C4-    O2
     3      1      2      5      9   180.00  16.73600   2 ;     C3-    C1-    C2-    N1
     3      1      2      9      9   180.00  16.73600   2 ;     C3-    C1-    C2-   CL1
     3      6      4      5      9   180.00  10.46000   2 ;     C3-    N2-    C4-    N1
     3      6      4      8      9   180.00  10.46000   2 ;     C3-    N2-    C4-    O2
     4      5      2      9      9   180.00   6.90360   2 ;     C4-    N1-    C2-   CL1
     4      6      3      7      9   180.00  10.46000   2 ;     C4-    N2-    C3-    O1
     5      4      6     12      9   180.00  10.46000   2 ;     N1-    C4-    N2-    H3
     6      4      5     11      9   180.00  10.46000   2 ;     N2-    C4-    N1-    H2
     7      3      6     12      9     0.00   8.36800   1 ;     O1-    C3-    N2-    H3
     7      3      6     12      9   180.00  10.46000   2 ;     O1-    C3-    N2-    H3
     8      4      5     11      9     0.00   8.36800   1 ;     O2-    C4-    N1-    H2
     8      4      5     11      9   180.00  10.46000   2 ;     O2-    C4-    N1-    H2
     8      4      6     12      9     0.00   8.36800   1 ;     O2-    C4-    N2-    H3
     8      4      6     12      9   180.00  10.46000   2 ;     O2-    C4-    N2-    H3
     9      2      5     11      9   180.00   6.90360   2 ;    CL1-    C2-    N1-    H2
    10      1      2      5      9   180.00  16.73600   2 ;     H1-    C1-    C2-    N1
    10      1      2      9      9   180.00  16.73600   2 ;     H1-    C1-    C2-   CL1
    10      1      3      6      9   180.00  12.02900   2 ;     H1-    C1-    C3-    N2
    10      1      3      7      9   180.00  12.02900   2 ;     H1-    C1-    C3-    O1

[ dihedrals ] ; impropers
; treated as propers in GROMACS to use correct AMBER analytical function
;    i      j      k      l   func   phase     kd      pn
     1      6      3      7      4   180.00  43.93200   2 ;     C1-    N2-    C3-    O1
     1      9      2      5      4   180.00   4.60240   2 ;     C1-   CL1-    C2-    N1
     3      4      6     12      4   180.00   4.60240   2 ;     C3-    C4-    N2-    H3
     4      2      5     11      4   180.00   4.60240   2 ;     C4-    C2-    N1-    H2
     5      6      4      8      4   180.00  43.93200   2 ;     N1-    N2-    C4-    O2
    10      1      2      3      4   180.00   4.60240   2 ;     H1-    C1-    C2-    C3
