mobley_2328633_GMX.gro created by acpype (v: 2023.10.27) on Thu May 21 00:15:36 2026
 2412
    1MOL     C1    1   2.317   2.482   2.814
    1MOL     C2    2   2.408   2.370   2.865
    1MOL     C3    3   2.364   2.513   2.672
    1MOL     C4    4   2.504   2.338   2.751
    1MOL     C5    5   2.509   2.467   2.670
    1MOL     C6    6   2.670   2.669   2.088
    1MOL     C7    7   2.564   2.448   2.529
    1MOL     C8    8   2.615   2.688   2.229
    1MOL     C9    9   2.562   2.578   2.450
    1MOL    C10   10   2.620   2.559   2.310
    1MOL     H1   11   2.212   2.453   2.815
    1MOL     H2   12   2.328   2.571   2.878
    1MOL     H3   13   2.464   2.405   2.953
    1MOL     H4   14   2.351   2.282   2.895
    1MOL     H5   15   2.304   2.456   2.600
    1MOL     H6   16   2.353   2.619   2.647
    1MOL     H7   17   2.603   2.307   2.787
    1MOL     H8   18   2.464   2.256   2.690
    1MOL     H9   19   2.572   2.541   2.722
    1MOL    H10   20   2.774   2.636   2.091
    1MOL    H11   21   2.665   2.763   2.032
    1MOL    H12   22   2.611   2.594   2.034
    1MOL    H13   23   2.504   2.372   2.478
    1MOL    H14   24   2.667   2.410   2.536
    1MOL    H15   25   2.511   2.724   2.222
    1MOL    H16   26   2.673   2.766   2.280
    1MOL    H17   27   2.459   2.615   2.442
    1MOL    H18   28   2.619   2.655   2.503
    1MOL    H19   29   2.724   2.525   2.317
    1MOL    H20   30   2.564   2.480   2.257
   35SOL     OW   31   1.187   1.792   1.616
   35SOL    HW1   32   1.211   1.852   1.540
   35SOL    HW2   33   1.194   1.697   1.586
   95SOL     OW   34   1.754   1.223   1.588
   95SOL    HW1   35   1.845   1.184   1.575
   95SOL    HW2   36   1.762   1.319   1.612
   97SOL     OW   37   1.592   1.629   1.625
   97SOL    HW1   38   1.619   1.663   1.535
   97SOL    HW2   39   1.671   1.591   1.671
  127SOL     OW   40   1.859   1.518   1.605
  127SOL    HW1   41   1.873   1.545   1.510
  127SOL    HW2   42   1.942   1.540   1.658
  152SOL     OW   43   1.759   1.747   1.154
  152SOL    HW1   44   1.820   1.777   1.081
  152SOL    HW2   45   1.721   1.658   1.132
  163SOL     OW   46   1.650   1.720   1.394
  163SOL    HW1   47   1.703   1.730   1.310
  163SOL    HW2   48   1.623   1.810   1.428
  219SOL     OW   49   1.555   1.511   2.565
  219SOL    HW1   50   1.498   1.495   2.646
  219SOL    HW2   51   1.496   1.521   2.485
  227SOL     OW   52   1.460   1.505   3.201
  227SOL    HW1   53   1.484   1.599   3.227
  227SOL    HW2   54   1.444   1.451   3.283
  238SOL     OW   55   1.842   1.767   2.221
  238SOL    HW1   56   1.896   1.738   2.301
  238SOL    HW2   57   1.872   1.857   2.192
  240SOL     OW   58   1.689   0.922   2.474
  240SOL    HW1   59   1.784   0.893   2.482
  240SOL    HW2   60   1.681   0.987   2.399
  241SOL     OW   61   1.641   1.108   2.294
  241SOL    HW1   62   1.727   1.110   2.242
  241SOL    HW2   63   1.655   1.155   2.382
  248SOL     OW   64   1.187   1.792   3.478
  248SOL    HW1   65   1.211   1.852   3.402
  248SOL    HW2   66   1.194   1.697   3.448
  250SOL     OW   67   1.466   1.417   2.815
  250SOL    HW1   68   1.407   1.423   2.895
  250SOL    HW2   69   1.451   1.329   2.769
  251SOL     OW   70   1.667   1.714   2.434
  251SOL    HW1   71   1.626   1.691   2.346
  251SOL    HW2   72   1.649   1.640   2.499
  254SOL     OW   73   1.576   1.662   2.169
  254SOL    HW1   74   1.665   1.708   2.172
  254SOL    HW2   75   1.555   1.638   2.074
  264SOL     OW   76   1.362   1.144   2.407
  264SOL    HW1   77   1.445   1.115   2.359
  264SOL    HW2   78   1.313   1.211   2.351
  268SOL     OW   79   1.795   1.066   2.735
  268SOL    HW1   80   1.733   1.051   2.659
  268SOL    HW2   81   1.743   1.077   2.820
  273SOL     OW   82   1.111   1.776   2.099
  273SOL    HW1   83   1.051   1.714   2.149
  273SOL    HW2   84   1.142   1.732   2.014
  275SOL     OW   85   1.632   1.377   1.943
  275SOL    HW1   86   1.600   1.471   1.933
  275SOL    HW2   87   1.556   1.314   1.931
  279SOL     OW   88   0.940   1.698   2.766
  279SOL    HW1   89   1.020   1.641   2.787
  279SOL    HW2   90   0.891   1.658   2.689
  293SOL     OW   91   1.227   1.570   2.655
  293SOL    HW1   92   1.248   1.644   2.590
  293SOL    HW2   93   1.295   1.570   2.728
  295SOL     OW   94   1.271   1.797   2.453
  295SOL    HW1   95   1.315   1.861   2.389
  295SOL    HW2   96   1.221   1.849   2.523
  301SOL     OW   97   1.429   1.173   2.729
  301SOL    HW1   98   1.374   1.089   2.722
  301SOL    HW2   99   1.455   1.202   2.637
  305SOL     OW  100   1.664   1.280   2.519
  305SOL    HW1  101   1.763   1.288   2.533
  305SOL    HW2  102   1.619   1.364   2.550
  308SOL     OW  103   1.754   1.223   3.450
  308SOL    HW1  104   1.845   1.184   3.437
  308SOL    HW2  105   1.762   1.319   3.474
  310SOL     OW  106   1.592   1.629   3.487
  310SOL    HW1  107   1.619   1.663   3.397
  310SOL    HW2  108   1.671   1.591   3.533
  312SOL     OW  109   1.638   1.099   2.941
  312SOL    HW1  110   1.643   1.180   3.000
  312SOL    HW2  111   1.552   1.101   2.890
  321SOL     OW  112   1.252   1.348   2.250
  321SOL    HW1  113   1.302   1.425   2.290
  321SOL    HW2  114   1.157   1.350   2.282
  322SOL     OW  115   1.272   1.445   3.004
  322SOL    HW1  116   1.319   1.458   3.091
  322SOL    HW2  117   1.206   1.371   3.013
  340SOL     OW  118   1.859   1.518   3.467
  340SOL    HW1  119   1.873   1.545   3.372
  340SOL    HW2  120   1.942   1.540   3.520
  365SOL     OW  121   1.759   1.747   3.016
  365SOL    HW1  122   1.820   1.777   2.943
  365SOL    HW2  123   1.721   1.658   2.994
  366SOL     OW  124   1.252   1.731   2.990
  366SOL    HW1  125   1.336   1.736   2.936
  366SOL    HW2  126   1.229   1.635   3.008
  370SOL     OW  127   1.388   1.573   2.339
  370SOL    HW1  128   1.455   1.585   2.265
  370SOL    HW2  129   1.348   1.662   2.362
  375SOL     OW  130   1.650   1.720   3.256
  375SOL    HW1  131   1.703   1.730   3.172
  375SOL    HW2  132   1.623   1.810   3.290
  378SOL     OW  133   1.194   1.612   1.893
  378SOL    HW1  134   1.200   1.519   1.930
  378SOL    HW2  135   1.135   1.612   1.813
  381SOL     OW  136   1.504   1.607   1.906
  381SOL    HW1  137   1.412   1.644   1.913
  381SOL    HW2  138   1.542   1.627   1.816
  383SOL     OW  139   1.614   1.292   3.151
  383SOL    HW1  140   1.674   1.295   3.231
  383SOL    HW2  141   1.539   1.356   3.164
  396SOL     OW  142   1.493   1.767   2.821
  396SOL    HW1  143   1.526   1.831   2.752
  396SOL    HW2  144   1.559   1.761   2.896
  409SOL     OW  145   1.861   1.569   2.713
  409SOL    HW1  146   1.790   1.557   2.643
  409SOL    HW2  147   1.862   1.490   2.773
  415SOL     OW  148   1.705   1.487   2.966
  415SOL    HW1  149   1.612   1.462   2.939
  415SOL    HW2  150   1.731   1.437   3.048
  590SOL     OW  151   1.460   3.367   1.339
  590SOL    HW1  152   1.484   3.461   1.365
  590SOL    HW2  153   1.444   3.313   1.421
  594SOL     OW  154   1.127   3.203   1.690
  594SOL    HW1  155   1.174   3.203   1.778
  594SOL    HW2  156   1.079   3.116   1.679
  599SOL     OW  157   1.594   1.976   1.480
  599SOL    HW1  158   1.576   2.043   1.408
  599SOL    HW2  159   1.591   2.022   1.569
  607SOL     OW  160   1.293   3.090   1.423
  607SOL    HW1  161   1.330   3.017   1.365
  607SOL    HW2  162   1.345   3.095   1.508
  619SOL     OW  163   1.394   2.331   1.674
  619SOL    HW1  164   1.374   2.374   1.762
  619SOL    HW2  165   1.472   2.269   1.683
  626SOL     OW  166   1.719   2.447   1.831
  626SOL    HW1  167   1.693   2.536   1.795
  626SOL    HW2  168   1.717   2.379   1.758
  644SOL     OW  169   1.547   2.084   1.729
  644SOL    HW1  170   1.542   2.121   1.821
  644SOL    HW2  171   1.475   2.015   1.717
  648SOL     OW  172   1.351   2.452   1.433
  648SOL    HW1  173   1.379   2.409   1.518
  648SOL    HW2  174   1.376   2.548   1.434
  655SOL     OW  175   1.076   2.545   1.464
  655SOL    HW1  176   0.996   2.484   1.467
  655SOL    HW2  177   1.157   2.492   1.440
  671SOL     OW  178   1.754   3.085   1.588
  671SOL    HW1  179   1.845   3.046   1.575
  671SOL    HW2  180   1.762   3.181   1.612
  673SOL     OW  181   1.592   3.491   1.625
  673SOL    HW1  182   1.619   3.525   1.535
  673SOL    HW2  183   1.671   3.453   1.671
  675SOL     OW  184   1.638   2.961   1.079
  675SOL    HW1  185   1.643   3.042   1.138
  675SOL    HW2  186   1.552   2.963   1.028
  677SOL     OW  187   0.980   2.978   1.719
  677SOL    HW1  188   0.881   2.984   1.729
  677SOL    HW2  189   1.003   2.898   1.663
  680SOL     OW  190   1.274   2.248   1.262
  680SOL    HW1  191   1.295   2.322   1.326
  680SOL    HW2  192   1.185   2.265   1.219
  689SOL     OW  193   1.587   2.641   1.670
  689SOL    HW1  194   1.495   2.679   1.665
  689SOL    HW2  195   1.647   2.688   1.605
  690SOL     OW  196   1.013   1.967   1.770
  690SOL    HW1  197   1.019   2.052   1.718
  690SOL    HW2  198   1.045   1.891   1.713
  698SOL     OW  199   1.728   2.797   1.854
  698SOL    HW1  200   1.682   2.790   1.765
  698SOL    HW2  201   1.666   2.841   1.920
  703SOL     OW  202   1.859   3.380   1.605
  703SOL    HW1  203   1.873   3.407   1.510
  703SOL    HW2  204   1.942   3.402   1.658
  710SOL     OW  205   1.138   2.242   1.678
  710SOL    HW1  206   1.093   2.305   1.742
  710SOL    HW2  207   1.231   2.273   1.661
  711SOL     OW  208   1.160   2.069   1.477
  711SOL    HW1  209   1.160   2.133   1.554
  711SOL    HW2  210   1.188   2.117   1.394
  718SOL     OW  211   1.369   2.812   1.660
  718SOL    HW1  212   1.408   2.901   1.680
  718SOL    HW2  213   1.379   2.792   1.563
  720SOL     OW  214   1.657   2.466   1.206
  720SOL    HW1  215   1.619   2.397   1.268
  720SOL    HW2  216   1.739   2.430   1.162
  726SOL     OW  217   1.347   2.921   1.234
  726SOL    HW1  218   1.371   2.858   1.160
  726SOL    HW2  219   1.257   2.961   1.216
  739SOL     OW  220   1.650   3.582   1.394
  739SOL    HW1  221   1.703   3.592   1.310
  739SOL    HW2  222   1.623   3.672   1.428
  740SOL     OW  223   1.841   2.037   0.963
  740SOL    HW1  224   1.880   1.952   0.927
  740SOL    HW2  225   1.743   2.039   0.944
  747SOL     OW  226   1.614   3.154   1.289
  747SOL    HW1  227   1.674   3.157   1.369
  747SOL    HW2  228   1.539   3.218   1.302
  751SOL     OW  229   1.709   2.247   1.381
  751SOL    HW1  230   1.782   2.316   1.385
  751SOL    HW2  231   1.737   2.172   1.322
  756SOL     OW  232   1.440   2.718   1.398
  756SOL    HW1  233   1.383   2.770   1.335
  756SOL    HW2  234   1.536   2.730   1.374
  762SOL     OW  235   1.450   3.082   1.633
  762SOL    HW1  236   1.441   3.072   1.732
  762SOL    HW2  237   1.546   3.075   1.607
  764SOL     OW  238   1.674   2.745   1.254
  764SOL    HW1  239   1.647   2.656   1.217
  764SOL    HW2  240   1.675   2.813   1.181
  767SOL     OW  241   1.777   2.204   1.642
  767SOL    HW1  242   1.760   2.235   1.548
  767SOL    HW2  243   1.693   2.167   1.680
  768SOL     OW  244   1.730   2.796   1.517
  768SOL    HW1  245   1.768   2.887   1.532
  768SOL    HW2  246   1.722   2.779   1.418
  777SOL     OW  247   1.824   2.054   1.227
  777SOL    HW1  248   1.820   1.964   1.271
  777SOL    HW2  249   1.827   2.043   1.128
  795SOL     OW  250   1.555   3.373   2.565
  795SOL    HW1  251   1.498   3.357   2.646
  795SOL    HW2  252   1.496   3.383   2.485
  796SOL     OW  253   1.135   2.565   2.579
  796SOL    HW1  254   1.192   2.643   2.554
  796SOL    HW2  255   1.075   2.591   2.655
  797SOL     OW  256   1.755   2.469   2.093
  797SOL    HW1  257   1.743   2.456   1.994
  797SOL    HW2  258   1.725   2.388   2.142
  803SOL     OW  259   1.460   3.367   3.201
  803SOL    HW1  260   1.484   3.461   3.227
  803SOL    HW2  261   1.444   3.313   3.283
  805SOL     OW  262   1.603   2.309   2.599
  805SOL    HW1  263   1.529   2.355   2.549
  805SOL    HW2  264   1.654   2.377   2.652
  812SOL     OW  265   1.594   1.976   3.342
  812SOL    HW1  266   1.576   2.043   3.270
  812SOL    HW2  267   1.591   2.022   3.431
  814SOL     OW  268   1.842   3.629   2.221
  814SOL    HW1  269   1.896   3.600   2.301
  814SOL    HW2  270   1.872   3.719   2.192
  816SOL     OW  271   1.689   2.784   2.474
  816SOL    HW1  272   1.784   2.755   2.482
  816SOL    HW2  273   1.681   2.849   2.399
  817SOL     OW  274   1.641   2.970   2.294
  817SOL    HW1  275   1.727   2.972   2.242
  817SOL    HW2  276   1.655   3.017   2.382
  820SOL     OW  277   1.293   3.090   3.285
  820SOL    HW1  278   1.330   3.017   3.227
  820SOL    HW2  279   1.345   3.095   3.370
  823SOL     OW  280   1.525   2.861   2.052
  823SOL    HW1  281   1.462   2.785   2.065
  823SOL    HW2  282   1.573   2.879   2.138
  826SOL     OW  283   1.466   3.279   2.815
  826SOL    HW1  284   1.407   3.285   2.895
  826SOL    HW2  285   1.451   3.191   2.769
  827SOL     OW  286   1.667   3.576   2.434
  827SOL    HW1  287   1.626   3.553   2.346
  827SOL    HW2  288   1.649   3.502   2.499
  829SOL     OW  289   1.281   2.207   2.806
  829SOL    HW1  290   1.195   2.157   2.793
  829SOL    HW2  291   1.343   2.153   2.862
  830SOL     OW  292   1.576   3.524   2.169
  830SOL    HW1  293   1.665   3.570   2.172
  830SOL    HW2  294   1.555   3.500   2.074
  832SOL     OW  295   1.394   2.331   3.536
  832SOL    HW1  296   1.374   2.374   3.624
  832SOL    HW2  297   1.472   2.269   3.545
  834SOL     OW  298   0.991   2.272   3.104
  834SOL    HW1  299   0.914   2.306   3.158
  834SOL    HW2  300   0.957   2.221   3.025
  835SOL     OW  301   1.041   2.563   2.291
  835SOL    HW1  302   1.067   2.559   2.387
  835SOL    HW2  303   0.956   2.512   2.277
  838SOL     OW  304   0.865   2.210   2.057
  838SOL    HW1  305   0.924   2.273   2.008
  838SOL    HW2  306   0.884   2.116   2.028
  839SOL     OW  307   1.719   2.447   3.693
  839SOL    HW1  308   1.693   2.536   3.657
  839SOL    HW2  309   1.717   2.379   3.620
  840SOL     OW  310   1.362   3.006   2.407
  840SOL    HW1  311   1.445   2.977   2.359
  840SOL    HW2  312   1.313   3.073   2.351
  842SOL     OW  313   1.008   3.318   2.339
  842SOL    HW1  314   0.962   3.390   2.287
  842SOL    HW2  315   1.004   3.338   2.437
  844SOL     OW  316   1.795   2.928   2.735
  844SOL    HW1  317   1.733   2.913   2.659
  844SOL    HW2  318   1.743   2.939   2.820
  845SOL     OW  319   1.227   3.412   3.368
  845SOL    HW1  320   1.233   3.335   3.432
  845SOL    HW2  321   1.175   3.386   3.288
  847SOL     OW  322   1.458   2.597   2.590
  847SOL    HW1  323   1.453   2.532   2.665
  847SOL    HW2  324   1.538   2.656   2.603
  851SOL     OW  325   1.632   3.239   1.943
  851SOL    HW1  326   1.600   3.333   1.933
  851SOL    HW2  327   1.556   3.176   1.931
  853SOL     OW  328   1.400   1.969   2.288
  853SOL    HW1  329   1.376   1.932   2.198
  853SOL    HW2  330   1.499   1.985   2.292
  857SOL     OW  331   1.547   2.084   3.591
  857SOL    HW1  332   1.542   2.121   3.683
  857SOL    HW2  333   1.475   2.015   3.579
  861SOL     OW  334   1.351   2.452   3.295
  861SOL    HW1  335   1.379   2.409   3.380
  861SOL    HW2  336   1.376   2.548   3.296
  863SOL     OW  337   0.922   2.365   2.761
  863SOL    HW1  338   0.897   2.356   2.665
  863SOL    HW2  339   0.970   2.283   2.792
  865SOL     OW  340   1.434   3.050   1.903
  865SOL    HW1  341   1.466   2.974   1.960
  865SOL    HW2  342   1.342   3.077   1.933
  867SOL     OW  343   0.935   2.098   2.342
  867SOL    HW1  344   0.887   2.139   2.264
  867SOL    HW2  345   1.034   2.096   2.323
  868SOL     OW  346   1.076   2.545   3.326
  868SOL    HW1  347   0.996   2.484   3.329
  868SOL    HW2  348   1.157   2.492   3.302
  869SOL     OW  349   1.227   3.432   2.655
  869SOL    HW1  350   1.248   3.506   2.590
  869SOL    HW2  351   1.295   3.432   2.728
  871SOL     OW  352   1.271   3.659   2.453
  871SOL    HW1  353   1.315   3.723   2.389
  871SOL    HW2  354   1.221   3.711   2.523
  872SOL     OW  355   1.032   2.411   1.878
  872SOL    HW1  356   0.991   2.493   1.839
  872SOL    HW2  357   1.096   2.437   1.951
  875SOL     OW  358   0.866   2.316   2.504
  875SOL    HW1  359   0.834   2.388   2.442
  875SOL    HW2  360   0.890   2.235   2.451
  876SOL     OW  361   1.017   1.901   2.615
  876SOL    HW1  362   0.945   1.906   2.546
  876SOL    HW2  363   0.993   1.832   2.684
  877SOL     OW  364   1.429   3.035   2.729
  877SOL    HW1  365   1.374   2.951   2.722
  877SOL    HW2  366   1.455   3.064   2.637
  878SOL     OW  367   1.466   2.452   2.854
  878SOL    HW1  368   1.436   2.357   2.861
  878SOL    HW2  369   1.539   2.468   2.920
  879SOL     OW  370   1.857   2.695   2.239
  879SOL    HW1  371   1.899   2.631   2.303
  879SOL    HW2  372   1.819   2.644   2.161
  881SOL     OW  373   1.664   3.142   2.519
  881SOL    HW1  374   1.763   3.150   2.533
  881SOL    HW2  375   1.619   3.226   2.550
  882SOL     OW  376   1.390   2.437   1.940
  882SOL    HW1  377   1.336   2.416   2.021
  882SOL    HW2  378   1.481   2.396   1.949
  884SOL     OW  379   1.754   3.085   3.450
  884SOL    HW1  380   1.845   3.046   3.437
  884SOL    HW2  381   1.762   3.181   3.474
  885SOL     OW  382   1.064   3.209   3.202
  885SOL    HW1  383   0.984   3.186   3.257
  885SOL    HW2  384   1.147   3.183   3.251
  886SOL     OW  385   1.592   3.491   3.487
  886SOL    HW1  386   1.619   3.525   3.397
  886SOL    HW2  387   1.671   3.453   3.533
  887SOL     OW  388   1.111   3.057   2.962
  887SOL    HW1  389   1.071   3.101   3.043
  887SOL    HW2  390   1.070   3.094   2.879
  888SOL     OW  391   1.638   2.961   2.941
  888SOL    HW1  392   1.643   3.042   3.000
  888SOL    HW2  393   1.552   2.963   2.890
  893SOL     OW  394   1.274   2.248   3.124
  893SOL    HW1  395   1.295   2.322   3.188
  893SOL    HW2  396   1.185   2.265   3.081
  897SOL     OW  397   1.252   3.210   2.250
  897SOL    HW1  398   1.302   3.287   2.290
  897SOL    HW2  399   1.157   3.212   2.282
  898SOL     OW  400   1.272   3.307   3.004
  898SOL    HW1  401   1.319   3.320   3.091
  898SOL    HW2  402   1.206   3.233   3.013
  899SOL     OW  403   1.582   2.501   2.334
  899SOL    HW1  404   1.551   2.562   2.407
  899SOL    HW2  405   1.632   2.553   2.265
  902SOL     OW  406   1.587   2.641   3.532
  902SOL    HW1  407   1.495   2.679   3.527
  902SOL    HW2  408   1.647   2.688   3.467
  906SOL     OW  409   1.360   2.724   2.907
  906SOL    HW1  410   1.285   2.724   2.841
  906SOL    HW2  411   1.397   2.632   2.916
  907SOL     OW  412   1.209   2.387   2.137
  907SOL    HW1  413   1.222   2.303   2.191
  907SOL    HW2  414   1.180   2.461   2.197
  911SOL     OW  415   1.728   2.797   3.716
  911SOL    HW1  416   1.682   2.790   3.627
  911SOL    HW2  417   1.666   2.841   3.782
  913SOL     OW  418   1.622   2.229   2.236
  913SOL    HW1  419   1.624   2.153   2.300
  913SOL    HW2  420   1.574   2.306   2.276
  914SOL     OW  421   1.023   2.628   2.828
  914SOL    HW1  422   1.038   2.649   2.924
  914SOL    HW2  423   0.993   2.533   2.819
  916SOL     OW  424   1.859   3.380   3.467
  916SOL    HW1  425   1.873   3.407   3.372
  916SOL    HW2  426   1.942   3.402   3.520
  918SOL     OW  427   1.540   2.136   1.987
  918SOL    HW1  428   1.479   2.061   2.010
  918SOL    HW2  429   1.562   2.188   2.070
  919SOL     OW  430   1.303   2.700   1.904
  919SOL    HW1  431   1.337   2.607   1.919
  919SOL    HW2  432   1.321   2.727   1.809
  920SOL     OW  433   1.068   3.195   2.711
  920SOL    HW1  434   1.075   3.111   2.656
  920SOL    HW2  435   1.130   3.264   2.675
  923SOL     OW  436   1.138   2.242   3.540
  923SOL    HW1  437   1.093   2.305   3.604
  923SOL    HW2  438   1.231   2.273   3.523
  924SOL     OW  439   1.160   2.069   3.339
  924SOL    HW1  440   1.160   2.133   3.416
  924SOL    HW2  441   1.188   2.117   3.256
  928SOL     OW  442   1.002   2.658   3.100
  928SOL    HW1  443   1.043   2.626   3.186
  928SOL    HW2  444   0.906   2.631   3.097
  931SOL     OW  445   1.369   2.812   3.522
  931SOL    HW1  446   1.408   2.901   3.542
  931SOL    HW2  447   1.379   2.792   3.425
  932SOL     OW  448   0.815   2.434   2.187
  932SOL    HW1  449   0.822   2.345   2.141
  932SOL    HW2  450   0.721   2.468   2.179
  933SOL     OW  451   1.657   2.466   3.068
  933SOL    HW1  452   1.619   2.397   3.130
  933SOL    HW2  453   1.739   2.430   3.024
  939SOL     OW  454   1.347   2.921   3.096
  939SOL    HW1  455   1.371   2.858   3.022
  939SOL    HW2  456   1.257   2.961   3.078
  940SOL     OW  457   1.302   2.717   2.171
  940SOL    HW1  458   1.216   2.686   2.213
  940SOL    HW2  459   1.298   2.703   2.072
  941SOL     OW  460   1.759   3.609   3.016
  941SOL    HW1  461   1.820   3.639   2.943
  941SOL    HW2  462   1.721   3.520   2.994
  942SOL     OW  463   1.252   3.593   2.990
  942SOL    HW1  464   1.336   3.598   2.936
  942SOL    HW2  465   1.229   3.497   3.008
  945SOL     OW  466   1.726   1.997   2.385
  945SOL    HW1  467   1.799   1.980   2.318
  945SOL    HW2  468   1.695   1.910   2.423
  946SOL     OW  469   1.388   3.435   2.339
  946SOL    HW1  470   1.455   3.447   2.265
  946SOL    HW2  471   1.348   3.524   2.362
  948SOL     OW  472   1.280   2.789   2.534
  948SOL    HW1  473   1.340   2.708   2.536
  948SOL    HW2  474   1.320   2.858   2.474
  951SOL     OW  475   1.650   3.582   3.256
  951SOL    HW1  476   1.703   3.592   3.172
  951SOL    HW2  477   1.623   3.672   3.290
  952SOL     OW  478   1.841   2.037   2.825
  952SOL    HW1  479   1.880   1.952   2.789
  952SOL    HW2  480   1.743   2.039   2.806
  954SOL     OW  481   1.194   3.474   1.893
  954SOL    HW1  482   1.200   3.381   1.930
  954SOL    HW2  483   1.135   3.474   1.813
  956SOL     OW  484   0.916   2.772   2.153
  956SOL    HW1  485   0.979   2.810   2.085
  956SOL    HW2  486   0.956   2.689   2.192
  957SOL     OW  487   1.504   3.469   1.906
  957SOL    HW1  488   1.412   3.506   1.913
  957SOL    HW2  489   1.542   3.489   1.816
  959SOL     OW  490   1.614   3.154   3.151
  959SOL    HW1  491   1.674   3.157   3.231
  959SOL    HW2  492   1.539   3.218   3.164
  960SOL     OW  493   1.039   2.960   2.558
  960SOL    HW1  494   0.969   2.913   2.612
  960SOL    HW2  495   1.098   2.892   2.515
  961SOL     OW  496   1.014   2.098   2.833
  961SOL    HW1  497   1.006   2.062   2.740
  961SOL    HW2  498   1.012   2.022   2.898
  963SOL     OW  499   1.709   2.247   3.243
  963SOL    HW1  500   1.782   2.316   3.247
  963SOL    HW2  501   1.737   2.172   3.184
  968SOL     OW  502   1.440   2.718   3.260
  968SOL    HW1  503   1.383   2.770   3.197
  968SOL    HW2  504   1.536   2.730   3.236
  970SOL     OW  505   1.183   3.197   1.981
  970SOL    HW1  506   1.084   3.186   1.983
  970SOL    HW2  507   1.217   3.212   2.074
  972SOL     OW  508   1.493   3.629   2.821
  972SOL    HW1  509   1.526   3.693   2.752
  972SOL    HW2  510   1.559   3.623   2.896
  974SOL     OW  511   1.450   3.082   3.495
  974SOL    HW1  512   1.441   3.072   3.594
  974SOL    HW2  513   1.546   3.075   3.469
  976SOL     OW  514   1.674   2.745   3.116
  976SOL    HW1  515   1.647   2.656   3.079
  976SOL    HW2  516   1.675   2.813   3.043
  977SOL     OW  517   1.225   2.187   2.311
  977SOL    HW1  518   1.290   2.113   2.300
  977SOL    HW2  519   1.245   2.237   2.395
  979SOL     OW  520   1.777   2.204   3.504
  979SOL    HW1  521   1.760   2.235   3.410
  979SOL    HW2  522   1.693   2.167   3.542
  980SOL     OW  523   1.730   2.796   3.379
  980SOL    HW1  524   1.768   2.887   3.394
  980SOL    HW2  525   1.722   2.779   3.280
  983SOL     OW  526   0.859   2.818   2.723
  983SOL    HW1  527   0.913   2.749   2.771
  983SOL    HW2  528   0.827   2.887   2.789
  984SOL     OW  529   1.083   2.846   1.949
  984SOL    HW1  530   1.060   2.899   1.867
  984SOL    HW2  531   1.164   2.790   1.930
  985SOL     OW  532   1.861   3.431   2.713
  985SOL    HW1  533   1.790   3.419   2.643
  985SOL    HW2  534   1.862   3.352   2.773
  989SOL     OW  535   1.824   2.054   3.089
  989SOL    HW1  536   1.820   1.964   3.133
  989SOL    HW2  537   1.827   2.043   2.990
  991SOL     OW  538   1.705   3.349   2.966
  991SOL    HW1  539   1.612   3.324   2.939
  991SOL    HW2  540   1.731   3.299   3.048
  994SOL     OW  541   1.424   2.076   2.974
  994SOL    HW1  542   1.476   2.011   3.029
  994SOL    HW2  543   1.375   2.139   3.035
  995SOL     OW  544   1.001   1.896   3.016
  995SOL    HW1  545   0.938   1.824   2.985
  995SOL    HW2  546   1.094   1.860   3.016
  998SOL     OW  547   1.352   1.914   2.030
  998SOL    HW1  548   1.387   1.873   1.946
  998SOL    HW2  549   1.262   1.876   2.050
  999SOL     OW  550   1.300   2.315   2.553
  999SOL    HW1  551   1.241   2.395   2.557
  999SOL    HW2  552   1.315   2.280   2.646
 1000SOL     OW  553   1.593   2.083   2.744
 1000SOL    HW1  554   1.509   2.082   2.798
 1000SOL    HW2  555   1.595   2.166   2.688
 1009SOL     OW  556   1.755   2.469   3.955
 1009SOL    HW1  557   1.743   2.456   3.856
 1009SOL    HW2  558   1.725   2.388   4.004
 1026SOL     OW  559   1.525   2.861   3.914
 1026SOL    HW1  560   1.462   2.785   3.927
 1026SOL    HW2  561   1.573   2.879   4.000
 1044SOL     OW  562   1.632   3.239   3.805
 1044SOL    HW1  563   1.600   3.333   3.795
 1044SOL    HW2  564   1.556   3.176   3.793
 1054SOL     OW  565   1.434   3.050   3.765
 1054SOL    HW1  566   1.466   2.974   3.822
 1054SOL    HW2  567   1.342   3.077   3.795
 1066SOL     OW  568   1.857   2.695   4.101
 1066SOL    HW1  569   1.899   2.631   4.165
 1066SOL    HW2  570   1.819   2.644   4.023
 1069SOL     OW  571   1.390   2.437   3.802
 1069SOL    HW1  572   1.336   2.416   3.883
 1069SOL    HW2  573   1.481   2.396   3.811
 1091SOL     OW  574   1.540   2.136   3.849
 1091SOL    HW1  575   1.479   2.061   3.872
 1091SOL    HW2  576   1.562   2.188   3.932
 1092SOL     OW  577   1.303   2.700   3.766
 1092SOL    HW1  578   1.337   2.607   3.781
 1092SOL    HW2  579   1.321   2.727   3.671
 1339SOL     OW  580   1.400   3.831   2.288
 1339SOL    HW1  581   1.376   3.794   2.198
 1339SOL    HW2  582   1.499   3.847   2.292
 1406SOL     OW  583   1.726   3.859   2.385
 1406SOL    HW1  584   1.799   3.842   2.318
 1406SOL    HW2  585   1.695   3.772   2.423
 1408SOL     OW  586   1.841   3.899   2.825
 1408SOL    HW1  587   1.880   3.814   2.789
 1408SOL    HW2  588   1.743   3.901   2.806
 1434SOL     OW  589   1.824   3.916   3.089
 1434SOL    HW1  590   1.820   3.826   3.133
 1434SOL    HW2  591   1.827   3.905   2.990
 1440SOL     OW  592   1.352   3.776   2.030
 1440SOL    HW1  593   1.387   3.735   1.946
 1440SOL    HW2  594   1.262   3.738   2.050
 1442SOL     OW  595   1.593   3.945   2.744
 1442SOL    HW1  596   1.509   3.944   2.798
 1442SOL    HW2  597   1.595   4.028   2.688
 1559SOL     OW  598   2.548   1.161   1.803
 1559SOL    HW1  599   2.608   1.240   1.817
 1559SOL    HW2  600   2.462   1.192   1.762
 1561SOL     OW  601   3.322   1.505   1.339
 1561SOL    HW1  602   3.346   1.599   1.365
 1561SOL    HW2  603   3.306   1.451   1.421
 1565SOL     OW  604   2.989   1.341   1.690
 1565SOL    HW1  605   3.036   1.341   1.778
 1565SOL    HW2  606   2.941   1.254   1.679
 1568SOL     OW  607   2.482   1.786   1.439
 1568SOL    HW1  608   2.390   1.769   1.474
 1568SOL    HW2  609   2.510   1.878   1.465
 1582SOL     OW  610   3.049   1.792   1.616
 1582SOL    HW1  611   3.073   1.852   1.540
 1582SOL    HW2  612   3.056   1.697   1.586
 1595SOL     OW  613   1.992   1.821   1.571
 1595SOL    HW1  614   1.982   1.806   1.670
 1595SOL    HW2  615   1.906   1.857   1.535
 1603SOL     OW  616   3.089   1.550   1.506
 1603SOL    HW1  617   3.095   1.473   1.570
 1603SOL    HW2  618   3.037   1.524   1.426
 1606SOL     OW  619   2.323   1.266   1.727
 1606SOL    HW1  620   2.273   1.267   1.641
 1606SOL    HW2  621   2.260   1.248   1.803
 1612SOL     OW  622   2.111   1.785   1.241
 1612SOL    HW1  623   2.168   1.720   1.291
 1612SOL    HW2  624   2.095   1.752   1.148
 1618SOL     OW  625   2.750   1.514   1.195
 1618SOL    HW1  626   2.727   1.489   1.101
 1618SOL    HW2  627   2.811   1.445   1.234
 1643SOL     OW  628   2.926   1.347   1.340
 1643SOL    HW1  629   2.846   1.324   1.395
 1643SOL    HW2  630   3.009   1.321   1.389
 1644SOL     OW  631   3.454   1.629   1.625
 1644SOL    HW1  632   3.481   1.663   1.535
 1644SOL    HW2  633   3.533   1.591   1.671
 1648SOL     OW  634   2.842   1.116   1.719
 1648SOL    HW1  635   2.743   1.122   1.729
 1648SOL    HW2  636   2.865   1.036   1.663
 1652SOL     OW  637   1.926   1.564   1.331
 1652SOL    HW1  638   1.880   1.646   1.297
 1652SOL    HW2  639   2.024   1.583   1.340
 1658SOL     OW  640   2.216   1.510   1.329
 1658SOL    HW1  641   2.195   1.466   1.242
 1658SOL    HW2  642   2.313   1.536   1.332
 1673SOL     OW  643   2.842   1.573   1.700
 1673SOL    HW1  644   2.822   1.617   1.612
 1673SOL    HW2  645   2.881   1.482   1.684
 1675SOL     OW  646   2.212   0.898   1.804
 1675SOL    HW1  647   2.288   0.942   1.852
 1675SOL    HW2  648   2.247   0.851   1.722
 1692SOL     OW  649   2.114   1.564   1.744
 1692SOL    HW1  650   2.084   1.621   1.820
 1692SOL    HW2  651   2.107   1.467   1.770
 1694SOL     OW  652   2.792   1.678   1.465
 1694SOL    HW1  653   2.768   1.660   1.370
 1694SOL    HW2  654   2.822   1.772   1.475
 1700SOL     OW  655   3.114   1.731   1.128
 1700SOL    HW1  656   3.198   1.736   1.074
 1700SOL    HW2  657   3.091   1.635   1.146
 1702SOL     OW  658   2.550   1.662   1.716
 1702SOL    HW1  659   2.494   1.743   1.725
 1702SOL    HW2  660   2.602   1.666   1.630
 1706SOL     OW  661   1.992   1.794   1.851
 1706SOL    HW1  662   1.951   1.720   1.904
 1706SOL    HW2  663   2.056   1.845   1.909
 1708SOL     OW  664   2.692   1.273   1.422
 1708SOL    HW1  665   2.687   1.306   1.517
 1708SOL    HW2  666   2.606   1.292   1.376
 1710SOL     OW  667   3.512   1.720   1.394
 1710SOL    HW1  668   3.565   1.730   1.310
 1710SOL    HW2  669   3.485   1.810   1.428
 1717SOL     OW  670   2.234   1.288   1.490
 1717SOL    HW1  671   2.221   1.381   1.456
 1717SOL    HW2  672   2.150   1.236   1.477
 1724SOL     OW  673   1.967   1.013   1.726
 1724SOL    HW1  674   1.890   0.980   1.780
 1724SOL    HW2  675   2.052   0.983   1.768
 1732SOL     OW  676   3.312   1.220   1.633
 1732SOL    HW1  677   3.303   1.210   1.732
 1732SOL    HW2  678   3.408   1.213   1.607
 1733SOL     OW  679   2.252   1.741   1.560
 1733SOL    HW1  680   2.161   1.782   1.558
 1733SOL    HW2  681   2.245   1.647   1.592
 1740SOL     OW  682   2.523   1.790   0.953
 1740SOL    HW1  683   2.477   1.878   0.940
 1740SOL    HW2  684   2.622   1.802   0.946
 1744SOL     OW  685   2.083   1.314   1.844
 1744SOL    HW1  686   2.018   1.241   1.823
 1744SOL    HW2  687   2.087   1.328   1.942
 1746SOL     OW  688   2.534   1.391   1.624
 1746SOL    HW1  689   2.456   1.341   1.662
 1746SOL    HW2  690   2.531   1.486   1.655
 1755SOL     OW  691   2.480   1.567   1.284
 1755SOL    HW1  692   2.475   1.649   1.341
 1755SOL    HW2  693   2.569   1.564   1.239
 1764SOL     OW  694   2.431   1.275   3.027
 1764SOL    HW1  695   2.338   1.268   2.990
 1764SOL    HW2  696   2.442   1.364   3.071
 1765SOL     OW  697   3.417   1.511   2.565
 1765SOL    HW1  698   3.360   1.495   2.646
 1765SOL    HW2  699   3.358   1.521   2.485
 1768SOL     OW  700   2.630   1.144   2.885
 1768SOL    HW1  701   2.552   1.161   2.945
 1768SOL    HW2  702   2.664   1.231   2.849
 1770SOL     OW  703   2.547   1.012   2.527
 1770SOL    HW1  704   2.616   0.996   2.597
 1770SOL    HW2  705   2.474   1.069   2.565
 1771SOL     OW  706   2.548   1.161   3.665
 1771SOL    HW1  707   2.608   1.240   3.679
 1771SOL    HW2  708   2.462   1.192   3.624
 1772SOL     OW  709   2.197   1.435   2.923
 1772SOL    HW1  710   2.119   1.404   2.870
 1772SOL    HW2  711   2.255   1.493   2.866
 1773SOL     OW  712   3.322   1.505   3.201
 1773SOL    HW1  713   3.346   1.599   3.227
 1773SOL    HW2  714   3.306   1.451   3.283
 1776SOL     OW  715   2.093   1.713   2.345
 1776SOL    HW1  716   2.127   1.790   2.399
 1776SOL    HW2  717   2.137   1.713   2.255
 1777SOL     OW  718   2.989   1.341   3.552
 1777SOL    HW1  719   3.036   1.341   3.640
 1777SOL    HW2  720   2.941   1.254   3.541
 1778SOL     OW  721   2.092   1.434   2.400
 1778SOL    HW1  722   2.066   1.530   2.400
 1778SOL    HW2  723   2.021   1.380   2.445
 1779SOL     OW  724   2.102   1.091   2.748
 1779SOL    HW1  725   2.116   1.007   2.800
 1779SOL    HW2  726   2.047   1.155   2.803
 1780SOL     OW  727   2.482   1.786   3.301
 1780SOL    HW1  728   2.390   1.769   3.336
 1780SOL    HW2  729   2.510   1.878   3.327
 1781SOL     OW  730   2.468   0.964   1.985
 1781SOL    HW1  731   2.475   1.048   1.931
 1781SOL    HW2  732   2.514   0.977   2.073
 1784SOL     OW  733   3.704   1.767   2.221
 1784SOL    HW1  734   3.758   1.738   2.301
 1784SOL    HW2  735   3.734   1.857   2.192
 1785SOL     OW  736   1.889   1.596   1.979
 1785SOL    HW1  737   1.870   1.500   2.000
 1785SOL    HW2  738   1.856   1.654   2.054
 1787SOL     OW  739   3.503   1.108   2.294
 1787SOL    HW1  740   3.589   1.110   2.242
 1787SOL    HW2  741   3.517   1.155   2.382
 1789SOL     OW  742   2.475   1.365   2.588
 1789SOL    HW1  743   2.426   1.278   2.597
 1789SOL    HW2  744   2.452   1.408   2.501
 1790SOL     OW  745   3.155   1.228   3.285
 1790SOL    HW1  746   3.192   1.155   3.227
 1790SOL    HW2  747   3.207   1.233   3.370
 1792SOL     OW  748   2.059   0.976   3.126
 1792SOL    HW1  749   2.148   0.931   3.112
 1792SOL    HW2  750   1.986   0.911   3.107
 1794SOL     OW  751   3.049   1.792   3.478
 1794SOL    HW1  752   3.073   1.852   3.402
 1794SOL    HW2  753   3.056   1.697   3.448
 1796SOL     OW  754   3.328   1.417   2.815
 1796SOL    HW1  755   3.269   1.423   2.895
 1796SOL    HW2  756   3.313   1.329   2.769
 1797SOL     OW  757   3.529   1.714   2.434
 1797SOL    HW1  758   3.488   1.691   2.346
 1797SOL    HW2  759   3.511   1.640   2.499
 1800SOL     OW  760   3.438   1.662   2.169
 1800SOL    HW1  761   3.527   1.708   2.172
 1800SOL    HW2  762   3.417   1.638   2.074
 1807SOL     OW  763   1.992   1.821   3.433
 1807SOL    HW1  764   1.982   1.806   3.532
 1807SOL    HW2  765   1.906   1.857   3.397
 1810SOL     OW  766   3.224   1.144   2.407
 1810SOL    HW1  767   3.307   1.115   2.359
 1810SOL    HW2  768   3.175   1.211   2.351
 1812SOL     OW  769   2.870   1.456   2.339
 1812SOL    HW1  770   2.824   1.528   2.287
 1812SOL    HW2  771   2.866   1.476   2.437
 1813SOL     OW  772   2.213   1.801   2.715
 1813SOL    HW1  773   2.263   1.715   2.721
 1813SOL    HW2  774   2.278   1.878   2.712
 1815SOL     OW  775   3.089   1.550   3.368
 1815SOL    HW1  776   3.095   1.473   3.432
 1815SOL    HW2  777   3.037   1.524   3.288
 1816SOL     OW  778   2.183   0.943   2.104
 1816SOL    HW1  779   2.265   0.982   2.062
 1816SOL    HW2  780   2.156   0.861   2.055
 1818SOL     OW  781   2.323   1.266   3.589
 1818SOL    HW1  782   2.273   1.267   3.503
 1818SOL    HW2  783   2.260   1.248   3.665
 1819SOL     OW  784   2.973   1.776   2.099
 1819SOL    HW1  785   2.913   1.714   2.149
 1819SOL    HW2  786   3.004   1.732   2.014
 1821SOL     OW  787   3.494   1.377   1.943
 1821SOL    HW1  788   3.462   1.471   1.933
 1821SOL    HW2  789   3.418   1.314   1.931
 1822SOL     OW  790   2.326   1.743   2.185
 1822SOL    HW1  791   2.359   1.782   2.271
 1822SOL    HW2  792   2.402   1.736   2.120
 1824SOL     OW  793   2.111   1.785   3.103
 1824SOL    HW1  794   2.168   1.720   3.153
 1824SOL    HW2  795   2.095   1.752   3.010
 1825SOL     OW  796   2.802   1.698   2.766
 1825SOL    HW1  797   2.882   1.641   2.787
 1825SOL    HW2  798   2.753   1.658   2.689
 1830SOL     OW  799   2.750   1.514   3.057
 1830SOL    HW1  800   2.727   1.489   2.963
 1830SOL    HW2  801   2.811   1.445   3.096
 1832SOL     OW  802   2.665   1.402   2.786
 1832SOL    HW1  803   2.755   1.416   2.744
 1832SOL    HW2  804   2.594   1.404   2.715
 1835SOL     OW  805   3.296   1.188   1.903
 1835SOL    HW1  806   3.328   1.112   1.960
 1835SOL    HW2  807   3.204   1.215   1.933
 1839SOL     OW  808   3.089   1.570   2.655
 1839SOL    HW1  809   3.110   1.644   2.590
 1839SOL    HW2  810   3.157   1.570   2.728
 1840SOL     OW  811   2.321   1.152   2.603
 1840SOL    HW1  812   2.250   1.125   2.668
 1840SOL    HW2  813   2.295   1.124   2.510
 1841SOL     OW  814   3.133   1.797   2.453
 1841SOL    HW1  815   3.177   1.861   2.389
 1841SOL    HW2  816   3.083   1.849   2.523
 1847SOL     OW  817   3.291   1.173   2.729
 1847SOL    HW1  818   3.236   1.089   2.722
 1847SOL    HW2  819   3.317   1.202   2.637
 1850SOL     OW  820   2.350   1.385   2.036
 1850SOL    HW1  821   2.263   1.370   2.083
 1850SOL    HW2  822   2.333   1.411   1.941
 1851SOL     OW  823   3.526   1.280   2.519
 1851SOL    HW1  824   3.625   1.288   2.533
 1851SOL    HW2  825   3.481   1.364   2.550
 1855SOL     OW  826   2.926   1.347   3.202
 1855SOL    HW1  827   2.846   1.324   3.257
 1855SOL    HW2  828   3.009   1.321   3.251
 1856SOL     OW  829   3.454   1.629   3.487
 1856SOL    HW1  830   3.481   1.663   3.397
 1856SOL    HW2  831   3.533   1.591   3.533
 1857SOL     OW  832   2.973   1.195   2.962
 1857SOL    HW1  833   2.933   1.239   3.043
 1857SOL    HW2  834   2.932   1.232   2.879
 1858SOL     OW  835   3.500   1.099   2.941
 1858SOL    HW1  836   3.505   1.180   3.000
 1858SOL    HW2  837   3.414   1.101   2.890
 1860SOL     OW  838   2.842   1.116   3.581
 1860SOL    HW1  839   2.743   1.122   3.591
 1860SOL    HW2  840   2.865   1.036   3.525
 1861SOL     OW  841   2.567   1.050   2.230
 1861SOL    HW1  842   2.553   1.057   2.329
 1861SOL    HW2  843   2.651   0.999   2.212
 1864SOL     OW  844   1.926   1.564   3.193
 1864SOL    HW1  845   1.880   1.646   3.159
 1864SOL    HW2  846   2.024   1.583   3.202
 1865SOL     OW  847   2.229   1.100   2.363
 1865SOL    HW1  848   2.222   1.183   2.307
 1865SOL    HW2  849   2.233   1.020   2.303
 1867SOL     OW  850   3.114   1.348   2.250
 1867SOL    HW1  851   3.164   1.425   2.290
 1867SOL    HW2  852   3.019   1.350   2.282
 1868SOL     OW  853   3.134   1.445   3.004
 1868SOL    HW1  854   3.181   1.458   3.091
 1868SOL    HW2  855   3.068   1.371   3.013
 1870SOL     OW  856   2.216   1.510   3.191
 1870SOL    HW1  857   2.195   1.466   3.104
 1870SOL    HW2  858   2.313   1.536   3.194
 1875SOL     OW  859   2.435   0.870   2.891
 1875SOL    HW1  860   2.479   0.959   2.882
 1875SOL    HW2  861   2.372   0.870   2.968
 1879SOL     OW  862   1.899   1.310   3.144
 1879SOL    HW1  863   1.952   1.261   3.212
 1879SOL    HW2  864   1.921   1.408   3.149
 1885SOL     OW  865   2.842   1.573   3.562
 1885SOL    HW1  866   2.822   1.617   3.474
 1885SOL    HW2  867   2.881   1.482   3.546
 1890SOL     OW  868   2.930   1.333   2.711
 1890SOL    HW1  869   2.937   1.249   2.656
 1890SOL    HW2  870   2.992   1.402   2.675
 1891SOL     OW  871   2.181   0.810   2.811
 1891SOL    HW1  872   2.274   0.846   2.816
 1891SOL    HW2  873   2.175   0.725   2.863
 1895SOL     OW  874   1.870   1.326   2.062
 1895SOL    HW1  875   1.777   1.347   2.031
 1895SOL    HW2  876   1.880   1.227   2.075
 1896SOL     OW  877   1.950   1.801   2.789
 1896SOL    HW1  878   1.908   1.715   2.762
 1896SOL    HW2  879   2.044   1.804   2.755
 1897SOL     OW  880   2.366   1.568   2.772
 1897SOL    HW1  881   2.432   1.642   2.781
 1897SOL    HW2  882   2.410   1.489   2.730
 1904SOL     OW  883   2.114   1.564   3.606
 1904SOL    HW1  884   2.084   1.621   3.682
 1904SOL    HW2  885   2.107   1.467   3.632
 1906SOL     OW  886   2.792   1.678   3.327
 1906SOL    HW1  887   2.768   1.660   3.232
 1906SOL    HW2  888   2.822   1.772   3.337
 1908SOL     OW  889   2.021   1.137   3.328
 1908SOL    HW1  890   2.043   1.076   3.404
 1908SOL    HW2  891   2.031   1.088   3.242
 1909SOL     OW  892   3.209   1.059   3.096
 1909SOL    HW1  893   3.233   0.996   3.022
 1909SOL    HW2  894   3.119   1.099   3.078
 1911SOL     OW  895   3.621   1.747   3.016
 1911SOL    HW1  896   3.682   1.777   2.943
 1911SOL    HW2  897   3.583   1.658   2.994
 1912SOL     OW  898   3.114   1.731   2.990
 1912SOL    HW1  899   3.198   1.736   2.936
 1912SOL    HW2  900   3.091   1.635   3.008
 1913SOL     OW  901   1.945   1.258   2.884
 1913SOL    HW1  902   1.940   1.257   2.984
 1913SOL    HW2  903   1.862   1.217   2.846
 1914SOL     OW  904   2.550   1.662   3.578
 1914SOL    HW1  905   2.494   1.743   3.587
 1914SOL    HW2  906   2.602   1.666   3.492
 1916SOL     OW  907   3.250   1.573   2.339
 1916SOL    HW1  908   3.317   1.585   2.265
 1916SOL    HW2  909   3.210   1.662   2.362
 1917SOL     OW  910   1.992   1.794   3.713
 1917SOL    HW1  911   1.951   1.720   3.766
 1917SOL    HW2  912   2.056   1.845   3.771
 1918SOL     OW  913   3.142   0.927   2.534
 1918SOL    HW1  914   3.202   0.846   2.536
 1918SOL    HW2  915   3.182   0.996   2.474
 1919SOL     OW  916   2.692   1.273   3.284
 1919SOL    HW1  917   2.687   1.306   3.379
 1919SOL    HW2  918   2.606   1.292   3.238
 1920SOL     OW  919   2.534   1.616   2.016
 1920SOL    HW1  920   2.543   1.626   1.917
 1920SOL    HW2  921   2.494   1.527   2.037
 1921SOL     OW  922   3.512   1.720   3.256
 1921SOL    HW1  923   3.565   1.730   3.172
 1921SOL    HW2  924   3.485   1.810   3.290
 1924SOL     OW  925   3.056   1.612   1.893
 1924SOL    HW1  926   3.062   1.519   1.930
 1924SOL    HW2  927   2.997   1.612   1.813
 1925SOL     OW  928   2.684   1.002   3.234
 1925SOL    HW1  929   2.724   1.001   3.142
 1925SOL    HW2  930   2.694   1.094   3.274
 1926SOL     OW  931   2.778   0.910   2.153
 1926SOL    HW1  932   2.841   0.948   2.085
 1926SOL    HW2  933   2.818   0.827   2.192
 1927SOL     OW  934   3.366   1.607   1.906
 1927SOL    HW1  935   3.274   1.644   1.913
 1927SOL    HW2  936   3.404   1.627   1.816
 1928SOL     OW  937   2.234   1.288   3.352
 1928SOL    HW1  938   2.221   1.381   3.318
 1928SOL    HW2  939   2.150   1.236   3.339
 1929SOL     OW  940   3.476   1.292   3.151
 1929SOL    HW1  941   3.536   1.295   3.231
 1929SOL    HW2  942   3.401   1.356   3.164
 1930SOL     OW  943   2.901   1.098   2.558
 1930SOL    HW1  944   2.831   1.051   2.612
 1930SOL    HW2  945   2.960   1.030   2.515
 1932SOL     OW  946   2.452   1.487   2.353
 1932SOL    HW1  947   2.494   1.429   2.283
 1932SOL    HW2  948   2.408   1.566   2.309
 1934SOL     OW  949   2.117   1.348   2.152
 1934SOL    HW1  950   2.021   1.349   2.125
 1934SOL    HW2  951   2.129   1.401   2.236
 1940SOL     OW  952   3.045   1.335   1.981
 1940SOL    HW1  953   2.946   1.324   1.983
 1940SOL    HW2  954   3.079   1.350   2.074
 1942SOL     OW  955   3.355   1.767   2.821
 1942SOL    HW1  956   3.388   1.831   2.752
 1942SOL    HW2  957   3.421   1.761   2.896
 1945SOL     OW  958   2.252   1.741   3.422
 1945SOL    HW1  959   2.161   1.782   3.420
 1945SOL    HW2  960   2.245   1.647   3.454
 1948SOL     OW  961   2.456   0.745   2.514
 1948SOL    HW1  962   2.506   0.830   2.495
 1948SOL    HW2  963   2.368   0.747   2.466
 1951SOL     OW  964   2.721   1.374   1.878
 1951SOL    HW1  965   2.675   1.389   1.966
 1951SOL    HW2  966   2.765   1.459   1.848
 1952SOL     OW  967   2.523   1.790   2.815
 1952SOL    HW1  968   2.477   1.878   2.802
 1952SOL    HW2  969   2.622   1.802   2.808
 1953SOL     OW  970   2.721   0.956   2.723
 1953SOL    HW1  971   2.775   0.887   2.771
 1953SOL    HW2  972   2.689   1.025   2.789
 1954SOL     OW  973   2.945   0.984   1.949
 1954SOL    HW1  974   2.922   1.037   1.867
 1954SOL    HW2  975   3.026   0.928   1.930
 1955SOL     OW  976   3.723   1.569   2.713
 1955SOL    HW1  977   3.652   1.557   2.643
 1955SOL    HW2  978   3.724   1.490   2.773
 1956SOL     OW  979   2.083   1.314   3.706
 1956SOL    HW1  980   2.018   1.241   3.685
 1956SOL    HW2  981   2.087   1.328   3.804
 1957SOL     OW  982   1.941   1.240   2.515
 1957SOL    HW1  983   1.940   1.193   2.603
 1957SOL    HW2  984   2.023   1.212   2.464
 1958SOL     OW  985   2.534   1.391   3.486
 1958SOL    HW1  986   2.456   1.341   3.524
 1958SOL    HW2  987   2.531   1.486   3.517
 1961SOL     OW  988   3.567   1.487   2.966
 1961SOL    HW1  989   3.474   1.462   2.939
 1961SOL    HW2  990   3.593   1.437   3.048
 1963SOL     OW  991   2.674   1.586   2.549
 1963SOL    HW1  992   2.706   1.596   2.455
 1963SOL    HW2  993   2.595   1.524   2.551
 1966SOL     OW  994   2.632   1.330   2.163
 1966SOL    HW1  995   2.586   1.243   2.180
 1966SOL    HW2  996   2.723   1.327   2.204
 1967SOL     OW  997   2.480   1.567   3.146
 1967SOL    HW1  998   2.475   1.649   3.203
 1967SOL    HW2  999   2.569   1.564   3.101
 1971SOL     OW 1000   1.901   1.077   2.162
 1971SOL    HW1 1001   2.000   1.066   2.153
 1971SOL    HW2 1002   1.861   0.991   2.194
 1972SOL     OW 1003   2.737   1.646   2.199
 1972SOL    HW1 1004   2.660   1.611   2.145
 1972SOL    HW2 1005   2.705   1.717   2.261
 1990SOL     OW 1006   1.889   1.596   3.841
 1990SOL    HW1 1007   1.870   1.500   3.862
 1990SOL    HW2 1008   1.856   1.654   3.916
 2012SOL     OW 1009   2.973   1.776   3.961
 2012SOL    HW1 1010   2.913   1.714   4.011
 2012SOL    HW2 1011   3.004   1.732   3.876
 2014SOL     OW 1012   2.326   1.743   4.047
 2014SOL    HW1 1013   2.359   1.782   4.133
 2014SOL    HW2 1014   2.402   1.736   3.982
 2036SOL     OW 1015   2.350   1.385   3.898
 2036SOL    HW1 1016   2.263   1.370   3.945
 2036SOL    HW2 1017   2.333   1.411   3.803
 2084SOL     OW 1018   2.534   1.616   3.878
 2084SOL    HW1 1019   2.543   1.626   3.779
 2084SOL    HW2 1020   2.494   1.527   3.899
 2088SOL     OW 1021   3.056   1.612   3.755
 2088SOL    HW1 1022   3.062   1.519   3.792
 2088SOL    HW2 1023   2.997   1.612   3.675
 2091SOL     OW 1024   3.366   1.607   3.768
 2091SOL    HW1 1025   3.274   1.644   3.775
 2091SOL    HW2 1026   3.404   1.627   3.678
 2105SOL     OW 1027   2.721   1.374   3.740
 2105SOL    HW1 1028   2.675   1.389   3.828
 2105SOL    HW2 1029   2.765   1.459   3.710
 2122SOL     OW 1030   2.737   1.646   4.061
 2122SOL    HW1 1031   2.660   1.611   4.007
 2122SOL    HW2 1032   2.705   1.717   4.123
 2124SOL     OW 1033   2.087   2.137   0.996
 2124SOL    HW1 1034   2.122   2.120   1.088
 2124SOL    HW2 1035   1.999   2.092   0.984
 2126SOL     OW 1036   2.431   3.137   1.165
 2126SOL    HW1 1037   2.338   3.130   1.128
 2126SOL    HW2 1038   2.442   3.226   1.209
 2130SOL     OW 1039   2.630   3.006   1.023
 2130SOL    HW1 1040   2.552   3.023   1.083
 2130SOL    HW2 1041   2.664   3.093   0.987
 2131SOL     OW 1042   2.712   2.660   1.823
 2131SOL    HW1 1043   2.708   2.736   1.888
 2131SOL    HW2 1044   2.734   2.696   1.732
 2133SOL     OW 1045   2.548   3.023   1.803
 2133SOL    HW1 1046   2.608   3.102   1.817
 2133SOL    HW2 1047   2.462   3.054   1.762
 2134SOL     OW 1048   2.197   3.297   1.061
 2134SOL    HW1 1049   2.119   3.266   1.008
 2134SOL    HW2 1050   2.255   3.355   1.004
 2135SOL     OW 1051   3.322   3.367   1.339
 2135SOL    HW1 1052   3.346   3.461   1.365
 2135SOL    HW2 1053   3.306   3.313   1.421
 2136SOL     OW 1054   2.300   2.254   1.499
 2136SOL    HW1 1055   2.382   2.198   1.508
 2136SOL    HW2 1056   2.219   2.196   1.503
 2139SOL     OW 1057   2.989   3.203   1.690
 2139SOL    HW1 1058   3.036   3.203   1.778
 2139SOL    HW2 1059   2.941   3.116   1.679
 2141SOL     OW 1060   2.102   2.953   0.886
 2141SOL    HW1 1061   2.116   2.869   0.938
 2141SOL    HW2 1062   2.047   3.017   0.941
 2142SOL     OW 1063   2.482   3.648   1.439
 2142SOL    HW1 1064   2.390   3.631   1.474
 2142SOL    HW2 1065   2.510   3.740   1.465
 2144SOL     OW 1066   3.456   1.976   1.480
 2144SOL    HW1 1067   3.438   2.043   1.408
 2144SOL    HW2 1068   3.453   2.022   1.569
 2150SOL     OW 1069   1.975   2.599   1.597
 2150SOL    HW1 1070   2.063   2.586   1.642
 2150SOL    HW2 1071   1.962   2.696   1.575
 2152SOL     OW 1072   3.155   3.090   1.423
 2152SOL    HW1 1073   3.192   3.017   1.365
 2152SOL    HW2 1074   3.207   3.095   1.508
 2154SOL     OW 1075   2.059   2.838   1.264
 2154SOL    HW1 1076   2.148   2.793   1.250
 2154SOL    HW2 1077   1.986   2.773   1.245
 2156SOL     OW 1078   3.049   3.654   1.616
 2156SOL    HW1 1079   3.073   3.714   1.540
 2156SOL    HW2 1080   3.056   3.559   1.586
 2157SOL     OW 1081   2.179   2.113   1.801
 2157SOL    HW1 1082   2.250   2.184   1.807
 2157SOL    HW2 1083   2.091   2.152   1.829
 2161SOL     OW 1084   3.143   2.207   0.944
 2161SOL    HW1 1085   3.057   2.157   0.931
 2161SOL    HW2 1086   3.205   2.153   1.000
 2163SOL     OW 1087   2.669   2.467   1.465
 2163SOL    HW1 1088   2.622   2.464   1.554
 2163SOL    HW2 1089   2.618   2.412   1.399
 2164SOL     OW 1090   3.256   2.331   1.674
 2164SOL    HW1 1091   3.236   2.374   1.762
 2164SOL    HW2 1092   3.334   2.269   1.683
 2165SOL     OW 1093   2.835   2.752   1.572
 2165SOL    HW1 1094   2.881   2.668   1.543
 2165SOL    HW2 1095   2.779   2.786   1.497
 2166SOL     OW 1096   2.853   2.272   1.242
 2166SOL    HW1 1097   2.776   2.306   1.296
 2166SOL    HW2 1098   2.819   2.221   1.163
 2169SOL     OW 1099   1.992   3.683   1.571
 2169SOL    HW1 1100   1.982   3.668   1.670
 2169SOL    HW2 1101   1.906   3.719   1.535
 2171SOL     OW 1102   3.581   2.447   1.831
 2171SOL    HW1 1103   3.555   2.536   1.795
 2171SOL    HW2 1104   3.579   2.379   1.758
 2173SOL     OW 1105   2.412   2.058   0.885
 2173SOL    HW1 1106   2.407   2.053   0.985
 2173SOL    HW2 1107   2.414   2.154   0.856
 2177SOL     OW 1108   3.089   3.412   1.506
 2177SOL    HW1 1109   3.095   3.335   1.570
 2177SOL    HW2 1110   3.037   3.386   1.426
 2180SOL     OW 1111   2.323   3.128   1.727
 2180SOL    HW1 1112   2.273   3.129   1.641
 2180SOL    HW2 1113   2.260   3.110   1.803
 2182SOL     OW 1114   2.064   2.147   1.498
 2182SOL    HW1 1115   1.984   2.207   1.485
 2182SOL    HW2 1116   2.054   2.098   1.584
 2186SOL     OW 1117   2.111   3.647   1.241
 2186SOL    HW1 1118   2.168   3.582   1.291
 2186SOL    HW2 1119   2.095   3.614   1.148
 2189SOL     OW 1120   3.409   2.084   1.729
 2189SOL    HW1 1121   3.404   2.121   1.821
 2189SOL    HW2 1122   3.337   2.015   1.717
 2191SOL     OW 1123   2.643   2.126   1.749
 2191SOL    HW1 1124   2.710   2.065   1.792
 2191SOL    HW2 1125   2.570   2.145   1.814
 2192SOL     OW 1126   2.750   3.376   1.195
 2192SOL    HW1 1127   2.727   3.351   1.101
 2192SOL    HW2 1128   2.811   3.307   1.234
 2193SOL     OW 1129   3.213   2.452   1.433
 2193SOL    HW1 1130   3.241   2.409   1.518
 2193SOL    HW2 1131   3.238   2.548   1.434
 2194SOL     OW 1132   2.665   3.264   0.924
 2194SOL    HW1 1133   2.755   3.278   0.882
 2194SOL    HW2 1134   2.594   3.266   0.853
 2195SOL     OW 1135   2.784   2.365   0.899
 2195SOL    HW1 1136   2.759   2.356   0.803
 2195SOL    HW2 1137   2.832   2.283   0.930
 2200SOL     OW 1138   2.938   2.545   1.464
 2200SOL    HW1 1139   2.858   2.484   1.467
 2200SOL    HW2 1140   3.019   2.492   1.440
 2205SOL     OW 1141   1.940   2.418   1.386
 2205SOL    HW1 1142   2.032   2.417   1.345
 2205SOL    HW2 1143   1.934   2.492   1.453
 2206SOL     OW 1144   2.423   2.084   1.147
 2206SOL    HW1 1145   2.461   2.000   1.184
 2206SOL    HW2 1146   2.335   2.103   1.191
 2210SOL     OW 1147   3.328   2.452   0.992
 2210SOL    HW1 1148   3.298   2.357   0.999
 2210SOL    HW2 1149   3.401   2.468   1.058
 2216SOL     OW 1150   3.616   3.085   1.588
 2216SOL    HW1 1151   3.707   3.046   1.575
 2216SOL    HW2 1152   3.624   3.181   1.612
 2217SOL     OW 1153   2.926   3.209   1.340
 2217SOL    HW1 1154   2.846   3.186   1.395
 2217SOL    HW2 1155   3.009   3.183   1.389
 2218SOL     OW 1156   3.454   3.491   1.625
 2218SOL    HW1 1157   3.481   3.525   1.535
 2218SOL    HW2 1158   3.533   3.453   1.671
 2219SOL     OW 1159   2.973   3.057   1.100
 2219SOL    HW1 1160   2.933   3.101   1.181
 2219SOL    HW2 1161   2.932   3.094   1.017
 2220SOL     OW 1162   3.500   2.961   1.079
 2220SOL    HW1 1163   3.505   3.042   1.138
 2220SOL    HW2 1164   3.414   2.963   1.028
 2221SOL     OW 1165   2.777   1.951   1.402
 2221SOL    HW1 1166   2.802   1.931   1.307
 2221SOL    HW2 1167   2.849   2.007   1.444
 2222SOL     OW 1168   2.842   2.978   1.719
 2222SOL    HW1 1169   2.743   2.984   1.729
 2222SOL    HW2 1170   2.865   2.898   1.663
 2224SOL     OW 1171   2.272   2.675   1.251
 2224SOL    HW1 1172   2.358   2.687   1.301
 2224SOL    HW2 1173   2.230   2.588   1.278
 2225SOL     OW 1174   3.136   2.248   1.262
 2225SOL    HW1 1175   3.157   2.322   1.326
 2225SOL    HW2 1176   3.047   2.265   1.219
 2226SOL     OW 1177   1.926   3.426   1.331
 2226SOL    HW1 1178   1.880   3.508   1.297
 2226SOL    HW2 1179   2.024   3.445   1.340
 2228SOL     OW 1180   2.428   2.399   0.865
 2228SOL    HW1 1181   2.440   2.465   0.791
 2228SOL    HW2 1182   2.474   2.433   0.948
 2230SOL     OW 1183   3.134   3.307   1.142
 2230SOL    HW1 1184   3.181   3.320   1.229
 2230SOL    HW2 1185   3.068   3.233   1.151
 2232SOL     OW 1186   2.216   3.372   1.329
 2232SOL    HW1 1187   2.195   3.328   1.242
 2232SOL    HW2 1188   2.313   3.398   1.332
 2233SOL     OW 1189   2.264   2.613   1.598
 2233SOL    HW1 1190   2.332   2.668   1.551
 2233SOL    HW2 1191   2.304   2.525   1.625
 2234SOL     OW 1192   3.449   2.641   1.670
 2234SOL    HW1 1193   3.357   2.679   1.665
 2234SOL    HW2 1194   3.509   2.688   1.605
 2235SOL     OW 1195   2.875   1.967   1.770
 2235SOL    HW1 1196   2.881   2.052   1.718
 2235SOL    HW2 1197   2.907   1.891   1.713
 2236SOL     OW 1198   2.366   1.912   1.740
 2236SOL    HW1 1199   2.324   1.855   1.670
 2236SOL    HW2 1200   2.300   1.981   1.772
 2237SOL     OW 1201   2.435   2.732   1.029
 2237SOL    HW1 1202   2.479   2.821   1.020
 2237SOL    HW2 1203   2.372   2.732   1.106
 2238SOL     OW 1204   3.222   2.724   1.045
 2238SOL    HW1 1205   3.147   2.724   0.979
 2238SOL    HW2 1206   3.259   2.632   1.054
 2240SOL     OW 1207   2.169   2.075   1.231
 2240SOL    HW1 1208   2.146   2.112   1.321
 2240SOL    HW2 1209   2.139   1.980   1.225
 2241SOL     OW 1210   1.899   3.172   1.282
 2241SOL    HW1 1211   1.952   3.123   1.350
 2241SOL    HW2 1212   1.921   3.270   1.287
 2242SOL     OW 1213   2.594   2.496   1.064
 2242SOL    HW1 1214   2.653   2.470   0.988
 2242SOL    HW2 1215   2.566   2.592   1.053
 2243SOL     OW 1216   3.590   2.797   1.854
 2243SOL    HW1 1217   3.544   2.790   1.765
 2243SOL    HW2 1218   3.528   2.841   1.920
 2246SOL     OW 1219   2.885   2.628   0.966
 2246SOL    HW1 1220   2.900   2.649   1.062
 2246SOL    HW2 1221   2.855   2.533   0.957
 2247SOL     OW 1222   2.842   3.435   1.700
 2247SOL    HW1 1223   2.822   3.479   1.612
 2247SOL    HW2 1224   2.881   3.344   1.684
 2248SOL     OW 1225   3.721   3.380   1.605
 2248SOL    HW1 1226   3.735   3.407   1.510
 2248SOL    HW2 1227   3.804   3.402   1.658
 2249SOL     OW 1228   2.212   2.760   1.804
 2249SOL    HW1 1229   2.288   2.804   1.852
 2249SOL    HW2 1230   2.247   2.713   1.722
 2253SOL     OW 1231   2.181   2.672   0.949
 2253SOL    HW1 1232   2.274   2.708   0.954
 2253SOL    HW2 1233   2.175   2.587   1.001
 2254SOL     OW 1234   2.201   2.371   1.006
 2254SOL    HW1 1235   2.149   2.288   0.989
 2254SOL    HW2 1236   2.278   2.376   0.942
 2255SOL     OW 1237   3.000   2.242   1.678
 2255SOL    HW1 1238   2.955   2.305   1.742
 2255SOL    HW2 1239   3.093   2.273   1.661
 2256SOL     OW 1240   3.022   2.069   1.477
 2256SOL    HW1 1241   3.022   2.133   1.554
 2256SOL    HW2 1242   3.050   2.117   1.394
 2260SOL     OW 1243   2.864   2.658   1.238
 2260SOL    HW1 1244   2.905   2.626   1.324
 2260SOL    HW2 1245   2.768   2.631   1.235
 2261SOL     OW 1246   1.902   2.406   1.114
 2261SOL    HW1 1247   1.987   2.373   1.073
 2261SOL    HW2 1248   1.915   2.421   1.212
 2262SOL     OW 1249   2.051   2.382   1.722
 2262SOL    HW1 1250   2.110   2.342   1.652
 2262SOL    HW2 1251   1.993   2.453   1.681
 2263SOL     OW 1252   3.231   2.812   1.660
 2263SOL    HW1 1253   3.270   2.901   1.680
 2263SOL    HW2 1254   3.241   2.792   1.563
 2265SOL     OW 1255   3.519   2.466   1.206
 2265SOL    HW1 1256   3.481   2.397   1.268
 2265SOL    HW2 1257   3.601   2.430   1.162
 2266SOL     OW 1258   2.114   3.426   1.744
 2266SOL    HW1 1259   2.084   3.483   1.820
 2266SOL    HW2 1260   2.107   3.329   1.770
 2267SOL     OW 1261   2.533   2.326   1.269
 2267SOL    HW1 1262   2.499   2.237   1.239
 2267SOL    HW2 1263   2.559   2.380   1.189
 2268SOL     OW 1264   2.792   3.540   1.465
 2268SOL    HW1 1265   2.768   3.522   1.370
 2268SOL    HW2 1266   2.822   3.634   1.475
 2270SOL     OW 1267   2.021   2.999   1.466
 2270SOL    HW1 1268   2.043   2.938   1.542
 2270SOL    HW2 1269   2.031   2.950   1.380
 2271SOL     OW 1270   3.209   2.921   1.234
 2271SOL    HW1 1271   3.233   2.858   1.160
 2271SOL    HW2 1272   3.119   2.961   1.216
 2275SOL     OW 1273   1.945   3.120   1.022
 2275SOL    HW1 1274   1.940   3.119   1.122
 2275SOL    HW2 1275   1.862   3.079   0.984
 2276SOL     OW 1276   2.550   3.524   1.716
 2276SOL    HW1 1277   2.494   3.605   1.725
 2276SOL    HW2 1278   2.602   3.528   1.630
 2280SOL     OW 1279   1.992   3.656   1.851
 2280SOL    HW1 1280   1.951   3.582   1.904
 2280SOL    HW2 1281   2.056   3.707   1.909
 2282SOL     OW 1282   2.692   3.135   1.422
 2282SOL    HW1 1283   2.687   3.168   1.517
 2282SOL    HW2 1284   2.606   3.154   1.376
 2288SOL     OW 1285   2.684   2.864   1.372
 2288SOL    HW1 1286   2.724   2.863   1.280
 2288SOL    HW2 1287   2.694   2.956   1.412
 2291SOL     OW 1288   2.234   3.150   1.490
 2291SOL    HW1 1289   2.221   3.243   1.456
 2291SOL    HW2 1290   2.150   3.098   1.477
 2292SOL     OW 1291   3.476   3.154   1.289
 2292SOL    HW1 1292   3.536   3.157   1.369
 2292SOL    HW2 1293   3.401   3.218   1.302
 2294SOL     OW 1294   2.876   2.098   0.971
 2294SOL    HW1 1295   2.868   2.062   0.878
 2294SOL    HW2 1296   2.874   2.022   1.036
 2296SOL     OW 1297   3.571   2.247   1.381
 2296SOL    HW1 1298   3.644   2.316   1.385
 2296SOL    HW2 1299   3.599   2.172   1.322
 2298SOL     OW 1300   1.967   2.875   1.726
 2298SOL    HW1 1301   1.890   2.842   1.780
 2298SOL    HW2 1302   2.052   2.845   1.768
 2299SOL     OW 1303   2.534   2.065   1.489
 2299SOL    HW1 1304   2.624   2.049   1.449
 2299SOL    HW2 1305   2.542   2.070   1.588
 2300SOL     OW 1306   3.302   2.718   1.398
 2300SOL    HW1 1307   3.245   2.770   1.335
 2300SOL    HW2 1308   3.398   2.730   1.374
 2303SOL     OW 1309   2.475   2.704   1.431
 2303SOL    HW1 1310   2.531   2.785   1.414
 2303SOL    HW2 1311   2.534   2.624   1.434
 2305SOL     OW 1312   2.578   2.427   1.708
 2305SOL    HW1 1313   2.597   2.492   1.782
 2305SOL    HW2 1314   2.638   2.347   1.717
 2306SOL     OW 1315   3.312   3.082   1.633
 2306SOL    HW1 1316   3.303   3.072   1.732
 2306SOL    HW2 1317   3.408   3.075   1.607
 2307SOL     OW 1318   2.252   3.603   1.560
 2307SOL    HW1 1319   2.161   3.644   1.558
 2307SOL    HW2 1320   2.245   3.509   1.592
 2308SOL     OW 1321   3.536   2.745   1.254
 2308SOL    HW1 1322   3.509   2.656   1.217
 2308SOL    HW2 1323   3.537   2.813   1.181
 2311SOL     OW 1324   3.639   2.204   1.642
 2311SOL    HW1 1325   3.622   2.235   1.548
 2311SOL    HW2 1326   3.555   2.167   1.680
 2312SOL     OW 1327   3.592   2.796   1.517
 2312SOL    HW1 1328   3.630   2.887   1.532
 2312SOL    HW2 1329   3.584   2.779   1.418
 2315SOL     OW 1330   2.721   2.818   0.861
 2315SOL    HW1 1331   2.775   2.749   0.909
 2315SOL    HW2 1332   2.689   2.887   0.927
 2318SOL     OW 1333   2.083   3.176   1.844
 2318SOL    HW1 1334   2.018   3.103   1.823
 2318SOL    HW2 1335   2.087   3.190   1.942
 2320SOL     OW 1336   2.534   3.253   1.624
 2320SOL    HW1 1337   2.456   3.203   1.662
 2320SOL    HW2 1338   2.531   3.348   1.655
 2324SOL     OW 1339   2.179   2.409   1.280
 2324SOL    HW1 1340   2.217   2.350   1.352
 2324SOL    HW2 1341   2.219   2.383   1.192
 2326SOL     OW 1342   3.286   2.076   1.112
 2326SOL    HW1 1343   3.338   2.011   1.167
 2326SOL    HW2 1344   3.237   2.139   1.173
 2327SOL     OW 1345   2.863   1.896   1.154
 2327SOL    HW1 1346   2.800   1.824   1.123
 2327SOL    HW2 1347   2.956   1.860   1.154
 2329SOL     OW 1348   2.480   3.429   1.284
 2329SOL    HW1 1349   2.475   3.511   1.341
 2329SOL    HW2 1350   2.569   3.426   1.239
 2335SOL     OW 1351   2.092   2.490   1.975
 2335SOL    HW1 1352   1.999   2.488   2.012
 2335SOL    HW2 1353   2.093   2.451   1.883
 2336SOL     OW 1354   2.087   2.137   2.858
 2336SOL    HW1 1355   2.122   2.120   2.950
 2336SOL    HW2 1356   1.999   2.092   2.846
 2337SOL     OW 1357   1.881   2.230   2.509
 2337SOL    HW1 1358   1.799   2.273   2.548
 2337SOL    HW2 1359   1.853   2.157   2.446
 2338SOL     OW 1360   2.431   3.137   3.027
 2338SOL    HW1 1361   2.338   3.130   2.990
 2338SOL    HW2 1362   2.442   3.226   3.071
 2339SOL     OW 1363   3.417   3.373   2.565
 2339SOL    HW1 1364   3.360   3.357   2.646
 2339SOL    HW2 1365   3.358   3.383   2.485
 2340SOL     OW 1366   2.997   2.565   2.579
 2340SOL    HW1 1367   3.054   2.643   2.554
 2340SOL    HW2 1368   2.937   2.591   2.655
 2341SOL     OW 1369   3.617   2.469   2.093
 2341SOL    HW1 1370   3.605   2.456   1.994
 2341SOL    HW2 1371   3.587   2.388   2.142
 2342SOL     OW 1372   2.630   3.006   2.885
 2342SOL    HW1 1373   2.552   3.023   2.945
 2342SOL    HW2 1374   2.664   3.093   2.849
 2343SOL     OW 1375   2.712   2.660   3.685
 2343SOL    HW1 1376   2.708   2.736   3.750
 2343SOL    HW2 1377   2.734   2.696   3.594
 2344SOL     OW 1378   2.547   2.874   2.527
 2344SOL    HW1 1379   2.616   2.858   2.597
 2344SOL    HW2 1380   2.474   2.931   2.565
 2345SOL     OW 1381   2.548   3.023   3.665
 2345SOL    HW1 1382   2.608   3.102   3.679
 2345SOL    HW2 1383   2.462   3.054   3.624
 2346SOL     OW 1384   2.197   3.297   2.923
 2346SOL    HW1 1385   2.119   3.266   2.870
 2346SOL    HW2 1386   2.255   3.355   2.866
 2347SOL     OW 1387   3.322   3.367   3.201
 2347SOL    HW1 1388   3.346   3.461   3.227
 2347SOL    HW2 1389   3.306   3.313   3.283
 2348SOL     OW 1390   2.300   2.254   3.361
 2348SOL    HW1 1391   2.382   2.198   3.370
 2348SOL    HW2 1392   2.219   2.196   3.365
 2349SOL     OW 1393   3.465   2.309   2.599
 2349SOL    HW1 1394   3.391   2.355   2.549
 2349SOL    HW2 1395   3.516   2.377   2.652
 2350SOL     OW 1396   2.093   3.575   2.345
 2350SOL    HW1 1397   2.127   3.652   2.399
 2350SOL    HW2 1398   2.137   3.575   2.255
 2351SOL     OW 1399   2.989   3.203   3.552
 2351SOL    HW1 1400   3.036   3.203   3.640
 2351SOL    HW2 1401   2.941   3.116   3.541
 2352SOL     OW 1402   2.092   3.296   2.400
 2352SOL    HW1 1403   2.066   3.392   2.400
 2352SOL    HW2 1404   2.021   3.242   2.445
 2353SOL     OW 1405   2.102   2.953   2.748
 2353SOL    HW1 1406   2.116   2.869   2.800
 2353SOL    HW2 1407   2.047   3.017   2.803
 2354SOL     OW 1408   2.482   3.648   3.301
 2354SOL    HW1 1409   2.390   3.631   3.336
 2354SOL    HW2 1410   2.510   3.740   3.327
 2355SOL     OW 1411   2.468   2.826   1.985
 2355SOL    HW1 1412   2.475   2.910   1.931
 2355SOL    HW2 1413   2.514   2.839   2.073
 2356SOL     OW 1414   3.456   1.976   3.342
 2356SOL    HW1 1415   3.438   2.043   3.270
 2356SOL    HW2 1416   3.453   2.022   3.431
 2357SOL     OW 1417   1.984   2.505   2.425
 2357SOL    HW1 1418   1.939   2.417   2.442
 2357SOL    HW2 1419   1.983   2.559   2.509
 2358SOL     OW 1420   3.704   3.629   2.221
 2358SOL    HW1 1421   3.758   3.600   2.301
 2358SOL    HW2 1422   3.734   3.719   2.192
 2359SOL     OW 1423   1.889   3.458   1.979
 2359SOL    HW1 1424   1.870   3.362   2.000
 2359SOL    HW2 1425   1.856   3.516   2.054
 2360SOL     OW 1426   3.551   2.784   2.474
 2360SOL    HW1 1427   3.646   2.755   2.482
 2360SOL    HW2 1428   3.543   2.849   2.399
 2361SOL     OW 1429   3.503   2.970   2.294
 2361SOL    HW1 1430   3.589   2.972   2.242
 2361SOL    HW2 1431   3.517   3.017   2.382
 2362SOL     OW 1432   1.975   2.599   3.459
 2362SOL    HW1 1433   2.063   2.586   3.504
 2362SOL    HW2 1434   1.962   2.696   3.437
 2363SOL     OW 1435   2.475   3.227   2.588
 2363SOL    HW1 1436   2.426   3.140   2.597
 2363SOL    HW2 1437   2.452   3.270   2.501
 2364SOL     OW 1438   3.155   3.090   3.285
 2364SOL    HW1 1439   3.192   3.017   3.227
 2364SOL    HW2 1440   3.207   3.095   3.370
 2365SOL     OW 1441   2.671   1.866   2.364
 2365SOL    HW1 1442   2.711   1.957   2.355
 2365SOL    HW2 1443   2.571   1.874   2.370
 2366SOL     OW 1444   2.059   2.838   3.126
 2366SOL    HW1 1445   2.148   2.793   3.112
 2366SOL    HW2 1446   1.986   2.773   3.107
 2367SOL     OW 1447   3.387   2.861   2.052
 2367SOL    HW1 1448   3.324   2.785   2.065
 2367SOL    HW2 1449   3.435   2.879   2.138
 2368SOL     OW 1450   3.049   3.654   3.478
 2368SOL    HW1 1451   3.073   3.714   3.402
 2368SOL    HW2 1452   3.056   3.559   3.448
 2369SOL     OW 1453   2.179   2.113   3.663
 2369SOL    HW1 1454   2.250   2.184   3.669
 2369SOL    HW2 1455   2.091   2.152   3.691
 2370SOL     OW 1456   3.328   3.279   2.815
 2370SOL    HW1 1457   3.269   3.285   2.895
 2370SOL    HW2 1458   3.313   3.191   2.769
 2371SOL     OW 1459   3.529   3.576   2.434
 2371SOL    HW1 1460   3.488   3.553   2.346
 2371SOL    HW2 1461   3.511   3.502   2.499
 2372SOL     OW 1462   2.460   2.591   2.132
 2372SOL    HW1 1463   2.484   2.660   2.064
 2372SOL    HW2 1464   2.382   2.624   2.186
 2373SOL     OW 1465   3.143   2.207   2.806
 2373SOL    HW1 1466   3.057   2.157   2.793
 2373SOL    HW2 1467   3.205   2.153   2.862
 2374SOL     OW 1468   3.438   3.524   2.169
 2374SOL    HW1 1469   3.527   3.570   2.172
 2374SOL    HW2 1470   3.417   3.500   2.074
 2375SOL     OW 1471   2.669   2.467   3.327
 2375SOL    HW1 1472   2.622   2.464   3.416
 2375SOL    HW2 1473   2.618   2.412   3.261
 2376SOL     OW 1474   3.256   2.331   3.536
 2376SOL    HW1 1475   3.236   2.374   3.624
 2376SOL    HW2 1476   3.334   2.269   3.545
 2377SOL     OW 1477   2.835   2.752   3.434
 2377SOL    HW1 1478   2.881   2.668   3.405
 2377SOL    HW2 1479   2.779   2.786   3.359
 2378SOL     OW 1480   2.853   2.272   3.104
 2378SOL    HW1 1481   2.776   2.306   3.158
 2378SOL    HW2 1482   2.819   2.221   3.025
 2379SOL     OW 1483   1.938   2.673   2.651
 2379SOL    HW1 1484   2.037   2.661   2.660
 2379SOL    HW2 1485   1.914   2.768   2.672
 2380SOL     OW 1486   1.992   3.683   3.433
 2380SOL    HW1 1487   1.982   3.668   3.532
 2380SOL    HW2 1488   1.906   3.719   3.397
 2381SOL     OW 1489   2.727   2.210   2.057
 2381SOL    HW1 1490   2.786   2.273   2.008
 2381SOL    HW2 1491   2.746   2.116   2.028
 2382SOL     OW 1492   3.581   2.447   3.693
 2382SOL    HW1 1493   3.555   2.536   3.657
 2382SOL    HW2 1494   3.579   2.379   3.620
 2383SOL     OW 1495   3.224   3.006   2.407
 2383SOL    HW1 1496   3.307   2.977   2.359
 2383SOL    HW2 1497   3.175   3.073   2.351
 2384SOL     OW 1498   2.870   3.318   2.339
 2384SOL    HW1 1499   2.824   3.390   2.287
 2384SOL    HW2 1500   2.866   3.338   2.437
 2385SOL     OW 1501   2.213   3.663   2.715
 2385SOL    HW1 1502   2.263   3.577   2.721
 2385SOL    HW2 1503   2.278   3.740   2.712
 2386SOL     OW 1504   3.657   2.928   2.735
 2386SOL    HW1 1505   3.595   2.913   2.659
 2386SOL    HW2 1506   3.605   2.939   2.820
 2387SOL     OW 1507   3.089   3.412   3.368
 2387SOL    HW1 1508   3.095   3.335   3.432
 2387SOL    HW2 1509   3.037   3.386   3.288
 2388SOL     OW 1510   2.183   2.805   2.104
 2388SOL    HW1 1511   2.265   2.844   2.062
 2388SOL    HW2 1512   2.156   2.723   2.055
 2389SOL     OW 1513   3.320   2.597   2.590
 2389SOL    HW1 1514   3.315   2.532   2.665
 2389SOL    HW2 1515   3.400   2.656   2.603
 2390SOL     OW 1516   2.323   3.128   3.589
 2390SOL    HW1 1517   2.273   3.129   3.503
 2390SOL    HW2 1518   2.260   3.110   3.665
 2391SOL     OW 1519   2.973   3.638   2.099
 2391SOL    HW1 1520   2.913   3.576   2.149
 2391SOL    HW2 1521   3.004   3.594   2.014
 2392SOL     OW 1522   2.064   2.147   3.360
 2392SOL    HW1 1523   1.984   2.207   3.347
 2392SOL    HW2 1524   2.054   2.098   3.446
 2393SOL     OW 1525   3.494   3.239   1.943
 2393SOL    HW1 1526   3.462   3.333   1.933
 2393SOL    HW2 1527   3.418   3.176   1.931
 2394SOL     OW 1528   2.326   3.605   2.185
 2394SOL    HW1 1529   2.359   3.644   2.271
 2394SOL    HW2 1530   2.402   3.598   2.120
 2395SOL     OW 1531   3.262   1.969   2.288
 2395SOL    HW1 1532   3.238   1.932   2.198
 2395SOL    HW2 1533   3.361   1.985   2.292
 2396SOL     OW 1534   2.111   3.647   3.103
 2396SOL    HW1 1535   2.168   3.582   3.153
 2396SOL    HW2 1536   2.095   3.614   3.010
 2397SOL     OW 1537   2.802   3.560   2.766
 2397SOL    HW1 1538   2.882   3.503   2.787
 2397SOL    HW2 1539   2.753   3.520   2.689
 2398SOL     OW 1540   2.244   2.562   2.342
 2398SOL    HW1 1541   2.289   2.472   2.339
 2398SOL    HW2 1542   2.150   2.551   2.375
 2399SOL     OW 1543   3.409   2.084   3.591
 2399SOL    HW1 1544   3.404   2.121   3.683
 2399SOL    HW2 1545   3.337   2.015   3.579
 2400SOL     OW 1546   2.476   1.984   1.979
 2400SOL    HW1 1547   2.574   1.962   1.986
 2400SOL    HW2 1548   2.445   1.967   1.886
 2401SOL     OW 1549   2.643   2.126   3.611
 2401SOL    HW1 1550   2.710   2.065   3.654
 2401SOL    HW2 1551   2.570   2.145   3.676
 2402SOL     OW 1552   2.750   3.376   3.057
 2402SOL    HW1 1553   2.727   3.351   2.963
 2402SOL    HW2 1554   2.811   3.307   3.096
 2403SOL     OW 1555   3.213   2.452   3.295
 2403SOL    HW1 1556   3.241   2.409   3.380
 2403SOL    HW2 1557   3.238   2.548   3.296
 2404SOL     OW 1558   2.665   3.264   2.786
 2404SOL    HW1 1559   2.755   3.278   2.744
 2404SOL    HW2 1560   2.594   3.266   2.715
 2405SOL     OW 1561   2.784   2.365   2.761
 2405SOL    HW1 1562   2.759   2.356   2.665
 2405SOL    HW2 1563   2.832   2.283   2.792
 2406SOL     OW 1564   2.401   1.926   2.374
 2406SOL    HW1 1565   2.320   1.927   2.432
 2406SOL    HW2 1566   2.404   2.009   2.319
 2407SOL     OW 1567   3.296   3.050   1.903
 2407SOL    HW1 1568   3.328   2.974   1.960
 2407SOL    HW2 1569   3.204   3.077   1.933
 2408SOL     OW 1570   2.159   1.897   2.033
 2408SOL    HW1 1571   2.208   1.981   2.012
 2408SOL    HW2 1572   2.221   1.832   2.078
 2409SOL     OW 1573   2.797   2.098   2.342
 2409SOL    HW1 1574   2.749   2.139   2.264
 2409SOL    HW2 1575   2.896   2.096   2.323
 2410SOL     OW 1576   2.938   2.545   3.326
 2410SOL    HW1 1577   2.858   2.484   3.329
 2410SOL    HW2 1578   3.019   2.492   3.302
 2411SOL     OW 1579   3.089   3.432   2.655
 2411SOL    HW1 1580   3.110   3.506   2.590
 2411SOL    HW2 1581   3.157   3.432   2.728
 2412SOL     OW 1582   2.321   3.014   2.603
 2412SOL    HW1 1583   2.250   2.987   2.668
 2412SOL    HW2 1584   2.295   2.986   2.510
 2413SOL     OW 1585   3.133   3.659   2.453
 2413SOL    HW1 1586   3.177   3.723   2.389
 2413SOL    HW2 1587   3.083   3.711   2.523
 2414SOL     OW 1588   2.894   2.411   1.878
 2414SOL    HW1 1589   2.853   2.493   1.839
 2414SOL    HW2 1590   2.958   2.437   1.951
 2415SOL     OW 1591   1.940   2.418   3.248
 2415SOL    HW1 1592   2.032   2.417   3.207
 2415SOL    HW2 1593   1.934   2.492   3.315
 2416SOL     OW 1594   2.423   2.084   3.009
 2416SOL    HW1 1595   2.461   2.000   3.046
 2416SOL    HW2 1596   2.335   2.103   3.053
 2417SOL     OW 1597   2.879   1.901   2.615
 2417SOL    HW1 1598   2.807   1.906   2.546
 2417SOL    HW2 1599   2.855   1.832   2.684
 2418SOL     OW 1600   3.291   3.035   2.729
 2418SOL    HW1 1601   3.236   2.951   2.722
 2418SOL    HW2 1602   3.317   3.064   2.637
 2419SOL     OW 1603   3.328   2.452   2.854
 2419SOL    HW1 1604   3.298   2.357   2.861
 2419SOL    HW2 1605   3.401   2.468   2.920
 2420SOL     OW 1606   3.719   2.695   2.239
 2420SOL    HW1 1607   3.761   2.631   2.303
 2420SOL    HW2 1608   3.681   2.644   2.161
 2421SOL     OW 1609   2.350   3.247   2.036
 2421SOL    HW1 1610   2.263   3.232   2.083
 2421SOL    HW2 1611   2.333   3.273   1.941
 2422SOL     OW 1612   3.526   3.142   2.519
 2422SOL    HW1 1613   3.625   3.150   2.533
 2422SOL    HW2 1614   3.481   3.226   2.550
 2423SOL     OW 1615   3.252   2.437   1.940
 2423SOL    HW1 1616   3.198   2.416   2.021
 2423SOL    HW2 1617   3.343   2.396   1.949
 2424SOL     OW 1618   2.389   2.118   2.190
 2424SOL    HW1 1619   2.416   2.059   2.115
 2424SOL    HW2 1620   2.389   2.213   2.159
 2425SOL     OW 1621   3.616   3.085   3.450
 2425SOL    HW1 1622   3.707   3.046   3.437
 2425SOL    HW2 1623   3.624   3.181   3.474
 2426SOL     OW 1624   2.926   3.209   3.202
 2426SOL    HW1 1625   2.846   3.186   3.257
 2426SOL    HW2 1626   3.009   3.183   3.251
 2427SOL     OW 1627   3.454   3.491   3.487
 2427SOL    HW1 1628   3.481   3.525   3.397
 2427SOL    HW2 1629   3.533   3.453   3.533
 2428SOL     OW 1630   2.973   3.057   2.962
 2428SOL    HW1 1631   2.933   3.101   3.043
 2428SOL    HW2 1632   2.932   3.094   2.879
 2429SOL     OW 1633   3.500   2.961   2.941
 2429SOL    HW1 1634   3.505   3.042   3.000
 2429SOL    HW2 1635   3.414   2.963   2.890
 2430SOL     OW 1636   2.777   1.951   3.264
 2430SOL    HW1 1637   2.802   1.931   3.169
 2430SOL    HW2 1638   2.849   2.007   3.306
 2431SOL     OW 1639   2.842   2.978   3.581
 2431SOL    HW1 1640   2.743   2.984   3.591
 2431SOL    HW2 1641   2.865   2.898   3.525
 2432SOL     OW 1642   2.272   2.675   3.113
 2432SOL    HW1 1643   2.358   2.687   3.163
 2432SOL    HW2 1644   2.230   2.588   3.140
 2433SOL     OW 1645   3.136   2.248   3.124
 2433SOL    HW1 1646   3.157   2.322   3.188
 2433SOL    HW2 1647   3.047   2.265   3.081
 2434SOL     OW 1648   1.926   3.426   3.193
 2434SOL    HW1 1649   1.880   3.508   3.159
 2434SOL    HW2 1650   2.024   3.445   3.202
 2435SOL     OW 1651   2.229   2.962   2.363
 2435SOL    HW1 1652   2.222   3.045   2.307
 2435SOL    HW2 1653   2.233   2.882   2.303
 2436SOL     OW 1654   3.114   3.210   2.250
 2436SOL    HW1 1655   3.164   3.287   2.290
 2436SOL    HW2 1656   3.019   3.212   2.282
 2437SOL     OW 1657   3.134   3.307   3.004
 2437SOL    HW1 1658   3.181   3.320   3.091
 2437SOL    HW2 1659   3.068   3.233   3.013
 2438SOL     OW 1660   3.444   2.501   2.334
 2438SOL    HW1 1661   3.413   2.562   2.407
 2438SOL    HW2 1662   3.494   2.553   2.265
 2439SOL     OW 1663   2.216   3.372   3.191
 2439SOL    HW1 1664   2.195   3.328   3.104
 2439SOL    HW2 1665   2.313   3.398   3.194
 2440SOL     OW 1666   2.264   2.613   3.460
 2440SOL    HW1 1667   2.332   2.668   3.413
 2440SOL    HW2 1668   2.304   2.525   3.487
 2441SOL     OW 1669   3.449   2.641   3.532
 2441SOL    HW1 1670   3.357   2.679   3.527
 2441SOL    HW2 1671   3.509   2.688   3.467
 2442SOL     OW 1672   2.875   1.967   3.632
 2442SOL    HW1 1673   2.881   2.052   3.580
 2442SOL    HW2 1674   2.907   1.891   3.575
 2443SOL     OW 1675   2.366   1.912   3.602
 2443SOL    HW1 1676   2.324   1.855   3.532
 2443SOL    HW2 1677   2.300   1.981   3.634
 2444SOL     OW 1678   2.435   2.732   2.891
 2444SOL    HW1 1679   2.479   2.821   2.882
 2444SOL    HW2 1680   2.372   2.732   2.968
 2445SOL     OW 1681   3.222   2.724   2.907
 2445SOL    HW1 1682   3.147   2.724   2.841
 2445SOL    HW2 1683   3.259   2.632   2.916
 2446SOL     OW 1684   3.071   2.387   2.137
 2446SOL    HW1 1685   3.084   2.303   2.191
 2446SOL    HW2 1686   3.042   2.461   2.197
 2447SOL     OW 1687   2.169   2.075   3.093
 2447SOL    HW1 1688   2.146   2.112   3.183
 2447SOL    HW2 1689   2.139   1.980   3.087
 2448SOL     OW 1690   1.899   3.172   3.144
 2448SOL    HW1 1691   1.952   3.123   3.212
 2448SOL    HW2 1692   1.921   3.270   3.149
 2449SOL     OW 1693   2.594   2.496   2.926
 2449SOL    HW1 1694   2.653   2.470   2.850
 2449SOL    HW2 1695   2.566   2.592   2.915
 2450SOL     OW 1696   3.590   2.797   3.716
 2450SOL    HW1 1697   3.544   2.790   3.627
 2450SOL    HW2 1698   3.528   2.841   3.782
 2451SOL     OW 1699   2.169   1.925   2.480
 2451SOL    HW1 1700   2.158   2.019   2.513
 2451SOL    HW2 1701   2.164   1.862   2.557
 2452SOL     OW 1702   3.484   2.229   2.236
 2452SOL    HW1 1703   3.486   2.153   2.300
 2452SOL    HW2 1704   3.436   2.306   2.276
 2453SOL     OW 1705   2.885   2.628   2.828
 2453SOL    HW1 1706   2.900   2.649   2.924
 2453SOL    HW2 1707   2.855   2.533   2.819
 2454SOL     OW 1708   2.842   3.435   3.562
 2454SOL    HW1 1709   2.822   3.479   3.474
 2454SOL    HW2 1710   2.881   3.344   3.546
 2455SOL     OW 1711   3.721   3.380   3.467
 2455SOL    HW1 1712   3.735   3.407   3.372
 2455SOL    HW2 1713   3.804   3.402   3.520
 2456SOL     OW 1714   2.212   2.760   3.666
 2456SOL    HW1 1715   2.288   2.804   3.714
 2456SOL    HW2 1716   2.247   2.713   3.584
 2457SOL     OW 1717   3.402   2.136   1.987
 2457SOL    HW1 1718   3.341   2.061   2.010
 2457SOL    HW2 1719   3.424   2.188   2.070
 2458SOL     OW 1720   3.165   2.700   1.904
 2458SOL    HW1 1721   3.199   2.607   1.919
 2458SOL    HW2 1722   3.183   2.727   1.809
 2459SOL     OW 1723   2.930   3.195   2.711
 2459SOL    HW1 1724   2.937   3.111   2.656
 2459SOL    HW2 1725   2.992   3.264   2.675
 2460SOL     OW 1726   2.181   2.672   2.811
 2460SOL    HW1 1727   2.274   2.708   2.816
 2460SOL    HW2 1728   2.175   2.587   2.863
 2461SOL     OW 1729   3.000   2.242   3.540
 2461SOL    HW1 1730   2.955   2.305   3.604
 2461SOL    HW2 1731   3.093   2.273   3.523
 2462SOL     OW 1732   3.022   2.069   3.339
 2462SOL    HW1 1733   3.022   2.133   3.416
 2462SOL    HW2 1734   3.050   2.117   3.256
 2463SOL     OW 1735   1.870   3.188   2.062
 2463SOL    HW1 1736   1.777   3.209   2.031
 2463SOL    HW2 1737   1.880   3.089   2.075
 2464SOL     OW 1738   1.950   3.663   2.789
 2464SOL    HW1 1739   1.908   3.577   2.762
 2464SOL    HW2 1740   2.044   3.666   2.755
 2465SOL     OW 1741   2.366   3.430   2.772
 2465SOL    HW1 1742   2.432   3.504   2.781
 2465SOL    HW2 1743   2.410   3.351   2.730
 2466SOL     OW 1744   2.864   2.658   3.100
 2466SOL    HW1 1745   2.905   2.626   3.186
 2466SOL    HW2 1746   2.768   2.631   3.097
 2467SOL     OW 1747   1.902   2.406   2.976
 2467SOL    HW1 1748   1.987   2.373   2.935
 2467SOL    HW2 1749   1.915   2.421   3.074
 2468SOL     OW 1750   2.051   2.382   3.584
 2468SOL    HW1 1751   2.110   2.342   3.514
 2468SOL    HW2 1752   1.993   2.453   3.543
 2469SOL     OW 1753   3.231   2.812   3.522
 2469SOL    HW1 1754   3.270   2.901   3.542
 2469SOL    HW2 1755   3.241   2.792   3.425
 2470SOL     OW 1756   3.519   2.466   3.068
 2470SOL    HW1 1757   3.481   2.397   3.130
 2470SOL    HW2 1758   3.601   2.430   3.024
 2471SOL     OW 1759   2.114   3.426   3.606
 2471SOL    HW1 1760   2.084   3.483   3.682
 2471SOL    HW2 1761   2.107   3.329   3.632
 2472SOL     OW 1762   2.533   2.326   3.131
 2472SOL    HW1 1763   2.499   2.237   3.101
 2472SOL    HW2 1764   2.559   2.380   3.051
 2473SOL     OW 1765   2.792   3.540   3.327
 2473SOL    HW1 1766   2.768   3.522   3.232
 2473SOL    HW2 1767   2.822   3.634   3.337
 2474SOL     OW 1768   2.335   2.362   2.053
 2474SOL    HW1 1769   2.396   2.442   2.057
 2474SOL    HW2 1770   2.240   2.393   2.060
 2475SOL     OW 1771   2.021   2.999   3.328
 2475SOL    HW1 1772   2.043   2.938   3.404
 2475SOL    HW2 1773   2.031   2.950   3.242
 2476SOL     OW 1774   3.209   2.921   3.096
 2476SOL    HW1 1775   3.233   2.858   3.022
 2476SOL    HW2 1776   3.119   2.961   3.078
 2477SOL     OW 1777   3.164   2.717   2.171
 2477SOL    HW1 1778   3.078   2.686   2.213
 2477SOL    HW2 1779   3.160   2.703   2.072
 2478SOL     OW 1780   3.621   3.609   3.016
 2478SOL    HW1 1781   3.682   3.639   2.943
 2478SOL    HW2 1782   3.583   3.520   2.994
 2479SOL     OW 1783   3.114   3.593   2.990
 2479SOL    HW1 1784   3.198   3.598   2.936
 2479SOL    HW2 1785   3.091   3.497   3.008
 2480SOL     OW 1786   1.945   3.120   2.884
 2480SOL    HW1 1787   1.940   3.119   2.984
 2480SOL    HW2 1788   1.862   3.079   2.846
 2481SOL     OW 1789   2.550   3.524   3.578
 2481SOL    HW1 1790   2.494   3.605   3.587
 2481SOL    HW2 1791   2.602   3.528   3.492
 2482SOL     OW 1792   3.588   1.997   2.385
 2482SOL    HW1 1793   3.661   1.980   2.318
 2482SOL    HW2 1794   3.557   1.910   2.423
 2483SOL     OW 1795   3.250   3.435   2.339
 2483SOL    HW1 1796   3.317   3.447   2.265
 2483SOL    HW2 1797   3.210   3.524   2.362
 2484SOL     OW 1798   1.992   3.656   3.713
 2484SOL    HW1 1799   1.951   3.582   3.766
 2484SOL    HW2 1800   2.056   3.707   3.771
 2485SOL     OW 1801   3.142   2.789   2.534
 2485SOL    HW1 1802   3.202   2.708   2.536
 2485SOL    HW2 1803   3.182   2.858   2.474
 2486SOL     OW 1804   2.692   3.135   3.284
 2486SOL    HW1 1805   2.687   3.168   3.379
 2486SOL    HW2 1806   2.606   3.154   3.238
 2487SOL     OW 1807   2.534   3.478   2.016
 2487SOL    HW1 1808   2.543   3.488   1.917
 2487SOL    HW2 1809   2.494   3.389   2.037
 2488SOL     OW 1810   3.512   3.582   3.256
 2488SOL    HW1 1811   3.565   3.592   3.172
 2488SOL    HW2 1812   3.485   3.672   3.290
 2489SOL     OW 1813   3.703   2.037   2.825
 2489SOL    HW1 1814   3.742   1.952   2.789
 2489SOL    HW2 1815   3.605   2.039   2.806
 2490SOL     OW 1816   2.125   2.188   2.582
 2490SOL    HW1 1817   2.046   2.239   2.548
 2490SOL    HW2 1818   2.116   2.173   2.680
 2491SOL     OW 1819   3.056   3.474   1.893
 2491SOL    HW1 1820   3.062   3.381   1.930
 2491SOL    HW2 1821   2.997   3.474   1.813
 2492SOL     OW 1822   2.684   2.864   3.234
 2492SOL    HW1 1823   2.724   2.863   3.142
 2492SOL    HW2 1824   2.694   2.956   3.274
 2493SOL     OW 1825   3.366   3.469   1.906
 2493SOL    HW1 1826   3.274   3.506   1.913
 2493SOL    HW2 1827   3.404   3.489   1.816
 2494SOL     OW 1828   2.234   3.150   3.352
 2494SOL    HW1 1829   2.221   3.243   3.318
 2494SOL    HW2 1830   2.150   3.098   3.339
 2495SOL     OW 1831   3.476   3.154   3.151
 2495SOL    HW1 1832   3.536   3.157   3.231
 2495SOL    HW2 1833   3.401   3.218   3.164
 2496SOL     OW 1834   2.901   2.960   2.558
 2496SOL    HW1 1835   2.831   2.913   2.612
 2496SOL    HW2 1836   2.960   2.892   2.515
 2497SOL     OW 1837   2.876   2.098   2.833
 2497SOL    HW1 1838   2.868   2.062   2.740
 2497SOL    HW2 1839   2.874   2.022   2.898
 2498SOL     OW 1840   2.452   3.349   2.353
 2498SOL    HW1 1841   2.494   3.291   2.283
 2498SOL    HW2 1842   2.408   3.428   2.309
 2499SOL     OW 1843   3.571   2.247   3.243
 2499SOL    HW1 1844   3.644   2.316   3.247
 2499SOL    HW2 1845   3.599   2.172   3.184
 2500SOL     OW 1846   2.117   3.210   2.152
 2500SOL    HW1 1847   2.021   3.211   2.125
 2500SOL    HW2 1848   2.129   3.263   2.236
 2501SOL     OW 1849   1.967   2.875   3.588
 2501SOL    HW1 1850   1.890   2.842   3.642
 2501SOL    HW2 1851   2.052   2.845   3.630
 2502SOL     OW 1852   2.534   2.065   3.351
 2502SOL    HW1 1853   2.624   2.049   3.311
 2502SOL    HW2 1854   2.542   2.070   3.450
 2503SOL     OW 1855   1.937   2.207   1.895
 2503SOL    HW1 1856   1.845   2.179   1.866
 2503SOL    HW2 1857   1.968   2.284   1.839
 2504SOL     OW 1858   3.302   2.718   3.260
 2504SOL    HW1 1859   3.245   2.770   3.197
 2504SOL    HW2 1860   3.398   2.730   3.236
 2505SOL     OW 1861   1.934   2.028   2.180
 2505SOL    HW1 1862   1.917   2.111   2.126
 2505SOL    HW2 1863   2.024   1.991   2.158
 2506SOL     OW 1864   3.045   3.197   1.981
 2506SOL    HW1 1865   2.946   3.186   1.983
 2506SOL    HW2 1866   3.079   3.212   2.074
 2507SOL     OW 1867   2.475   2.704   3.293
 2507SOL    HW1 1868   2.531   2.785   3.276
 2507SOL    HW2 1869   2.534   2.624   3.296
 2508SOL     OW 1870   3.355   3.629   2.821
 2508SOL    HW1 1871   3.388   3.693   2.752
 2508SOL    HW2 1872   3.421   3.623   2.896
 2509SOL     OW 1873   2.578   2.427   3.570
 2509SOL    HW1 1874   2.597   2.492   3.644
 2509SOL    HW2 1875   2.638   2.347   3.579
 2510SOL     OW 1876   3.312   3.082   3.495
 2510SOL    HW1 1877   3.303   3.072   3.594
 2510SOL    HW2 1878   3.408   3.075   3.469
 2511SOL     OW 1879   2.252   3.603   3.422
 2511SOL    HW1 1880   2.161   3.644   3.420
 2511SOL    HW2 1881   2.245   3.509   3.454
 2512SOL     OW 1882   3.536   2.745   3.116
 2512SOL    HW1 1883   3.509   2.656   3.079
 2512SOL    HW2 1884   3.537   2.813   3.043
 2513SOL     OW 1885   3.087   2.187   2.311
 2513SOL    HW1 1886   3.152   2.113   2.300
 2513SOL    HW2 1887   3.107   2.237   2.395
 2514SOL     OW 1888   3.639   2.204   3.504
 2514SOL    HW1 1889   3.622   2.235   3.410
 2514SOL    HW2 1890   3.555   2.167   3.542
 2515SOL     OW 1891   3.592   2.796   3.379
 2515SOL    HW1 1892   3.630   2.887   3.394
 2515SOL    HW2 1893   3.584   2.779   3.280
 2516SOL     OW 1894   2.721   3.236   1.878
 2516SOL    HW1 1895   2.675   3.251   1.966
 2516SOL    HW2 1896   2.765   3.321   1.848
 2517SOL     OW 1897   2.523   3.652   2.815
 2517SOL    HW1 1898   2.477   3.740   2.802
 2517SOL    HW2 1899   2.622   3.664   2.808
 2518SOL     OW 1900   2.721   2.818   2.723
 2518SOL    HW1 1901   2.775   2.749   2.771
 2518SOL    HW2 1902   2.689   2.887   2.789
 2519SOL     OW 1903   2.945   2.846   1.949
 2519SOL    HW1 1904   2.922   2.899   1.867
 2519SOL    HW2 1905   3.026   2.790   1.930
 2520SOL     OW 1906   3.723   3.431   2.713
 2520SOL    HW1 1907   3.652   3.419   2.643
 2520SOL    HW2 1908   3.724   3.352   2.773
 2521SOL     OW 1909   2.083   3.176   3.706
 2521SOL    HW1 1910   2.018   3.103   3.685
 2521SOL    HW2 1911   2.087   3.190   3.804
 2522SOL     OW 1912   1.941   3.102   2.515
 2522SOL    HW1 1913   1.940   3.055   2.603
 2522SOL    HW2 1914   2.023   3.074   2.464
 2523SOL     OW 1915   2.534   3.253   3.486
 2523SOL    HW1 1916   2.456   3.203   3.524
 2523SOL    HW2 1917   2.531   3.348   3.517
 2524SOL     OW 1918   3.686   2.054   3.089
 2524SOL    HW1 1919   3.682   1.964   3.133
 2524SOL    HW2 1920   3.689   2.043   2.990
 2525SOL     OW 1921   2.290   2.286   2.382
 2525SOL    HW1 1922   2.320   2.214   2.320
 2525SOL    HW2 1923   2.251   2.246   2.465
 2526SOL     OW 1924   3.567   3.349   2.966
 2526SOL    HW1 1925   3.474   3.324   2.939
 2526SOL    HW2 1926   3.593   3.299   3.048
 2527SOL     OW 1927   2.179   2.409   3.142
 2527SOL    HW1 1928   2.217   2.350   3.214
 2527SOL    HW2 1929   2.219   2.383   3.054
 2528SOL     OW 1930   2.674   3.448   2.549
 2528SOL    HW1 1931   2.706   3.458   2.455
 2528SOL    HW2 1932   2.595   3.386   2.551
 2529SOL     OW 1933   3.286   2.076   2.974
 2529SOL    HW1 1934   3.338   2.011   3.029
 2529SOL    HW2 1935   3.237   2.139   3.035
 2530SOL     OW 1936   2.863   1.896   3.016
 2530SOL    HW1 1937   2.800   1.824   2.985
 2530SOL    HW2 1938   2.956   1.860   3.016
 2531SOL     OW 1939   2.632   3.192   2.163
 2531SOL    HW1 1940   2.586   3.105   2.180
 2531SOL    HW2 1941   2.723   3.189   2.204
 2532SOL     OW 1942   2.480   3.429   3.146
 2532SOL    HW1 1943   2.475   3.511   3.203
 2532SOL    HW2 1944   2.569   3.426   3.101
 2533SOL     OW 1945   3.214   1.914   2.030
 2533SOL    HW1 1946   3.249   1.873   1.946
 2533SOL    HW2 1947   3.124   1.876   2.050
 2534SOL     OW 1948   3.162   2.315   2.553
 2534SOL    HW1 1949   3.103   2.395   2.557
 2534SOL    HW2 1950   3.177   2.280   2.646
 2535SOL     OW 1951   3.455   2.083   2.744
 2535SOL    HW1 1952   3.371   2.082   2.798
 2535SOL    HW2 1953   3.457   2.166   2.688
 2536SOL     OW 1954   1.901   2.939   2.162
 2536SOL    HW1 1955   2.000   2.928   2.153
 2536SOL    HW2 1956   1.861   2.853   2.194
 2537SOL     OW 1957   2.737   3.508   2.199
 2537SOL    HW1 1958   2.660   3.473   2.145
 2537SOL    HW2 1959   2.705   3.579   2.261
 2538SOL     OW 1960   2.092   2.490   3.837
 2538SOL    HW1 1961   1.999   2.488   3.874
 2538SOL    HW2 1962   2.093   2.451   3.745
 2552SOL     OW 1963   2.468   2.826   3.847
 2552SOL    HW1 1964   2.475   2.910   3.793
 2552SOL    HW2 1965   2.514   2.839   3.935
 2555SOL     OW 1966   1.889   3.458   3.841
 2555SOL    HW1 1967   1.870   3.362   3.862
 2555SOL    HW2 1968   1.856   3.516   3.916
 2561SOL     OW 1969   3.387   2.861   3.914
 2561SOL    HW1 1970   3.324   2.785   3.927
 2561SOL    HW2 1971   3.435   2.879   4.000
 2564SOL     OW 1972   2.460   2.591   3.994
 2564SOL    HW1 1973   2.484   2.660   3.926
 2564SOL    HW2 1974   2.382   2.624   4.048
 2567SOL     OW 1975   2.903   2.563   4.153
 2567SOL    HW1 1976   2.929   2.559   4.249
 2567SOL    HW2 1977   2.818   2.512   4.139
 2569SOL     OW 1978   2.727   2.210   3.919
 2569SOL    HW1 1979   2.786   2.273   3.870
 2569SOL    HW2 1980   2.746   2.116   3.890
 2575SOL     OW 1981   2.183   2.805   3.966
 2575SOL    HW1 1982   2.265   2.844   3.924
 2575SOL    HW2 1983   2.156   2.723   3.917
 2578SOL     OW 1984   3.494   3.239   3.805
 2578SOL    HW1 1985   3.462   3.333   3.795
 2578SOL    HW2 1986   3.418   3.176   3.793
 2583SOL     OW 1987   2.244   2.562   4.204
 2583SOL    HW1 1988   2.289   2.472   4.201
 2583SOL    HW2 1989   2.150   2.551   4.237
 2584SOL     OW 1990   2.476   1.984   3.841
 2584SOL    HW1 1991   2.574   1.962   3.848
 2584SOL    HW2 1992   2.445   1.967   3.748
 2588SOL     OW 1993   3.296   3.050   3.765
 2588SOL    HW1 1994   3.328   2.974   3.822
 2588SOL    HW2 1995   3.204   3.077   3.795
 2589SOL     OW 1996   2.159   1.897   3.895
 2589SOL    HW1 1997   2.208   1.981   3.874
 2589SOL    HW2 1998   2.221   1.832   3.940
 2590SOL     OW 1999   2.797   2.098   4.204
 2590SOL    HW1 2000   2.749   2.139   4.126
 2590SOL    HW2 2001   2.896   2.096   4.185
 2594SOL     OW 2002   2.894   2.411   3.740
 2594SOL    HW1 2003   2.853   2.493   3.701
 2594SOL    HW2 2004   2.958   2.437   3.813
 2601SOL     OW 2005   2.350   3.247   3.898
 2601SOL    HW1 2006   2.263   3.232   3.945
 2601SOL    HW2 2007   2.333   3.273   3.803
 2603SOL     OW 2008   3.252   2.437   3.802
 2603SOL    HW1 2009   3.198   2.416   3.883
 2603SOL    HW2 2010   3.343   2.396   3.811
 2604SOL     OW 2011   2.389   2.118   4.052
 2604SOL    HW1 2012   2.416   2.059   3.977
 2604SOL    HW2 2013   2.389   2.213   4.021
 2607SOL     OW 2014   2.567   2.912   4.092
 2607SOL    HW1 2015   2.553   2.919   4.191
 2607SOL    HW2 2016   2.651   2.861   4.074
 2610SOL     OW 2017   2.229   2.962   4.225
 2610SOL    HW1 2018   2.222   3.045   4.169
 2610SOL    HW2 2019   2.233   2.882   4.165
 2618SOL     OW 2020   3.071   2.387   3.999
 2618SOL    HW1 2021   3.084   2.303   4.053
 2618SOL    HW2 2022   3.042   2.461   4.059
 2625SOL     OW 2023   3.402   2.136   3.849
 2625SOL    HW1 2024   3.341   2.061   3.872
 2625SOL    HW2 2025   3.424   2.188   3.932
 2626SOL     OW 2026   3.165   2.700   3.766
 2626SOL    HW1 2027   3.199   2.607   3.781
 2626SOL    HW2 2028   3.183   2.727   3.671
 2631SOL     OW 2029   1.870   3.188   3.924
 2631SOL    HW1 2030   1.777   3.209   3.893
 2631SOL    HW2 2031   1.880   3.089   3.937
 2636SOL     OW 2032   2.677   2.434   4.049
 2636SOL    HW1 2033   2.684   2.345   4.003
 2636SOL    HW2 2034   2.583   2.468   4.041
 2640SOL     OW 2035   2.335   2.362   3.915
 2640SOL    HW1 2036   2.396   2.442   3.919
 2640SOL    HW2 2037   2.240   2.393   3.922
 2642SOL     OW 2038   3.164   2.717   4.033
 2642SOL    HW1 2039   3.078   2.686   4.075
 2642SOL    HW2 2040   3.160   2.703   3.934
 2649SOL     OW 2041   2.534   3.478   3.878
 2649SOL    HW1 2042   2.543   3.488   3.779
 2649SOL    HW2 2043   2.494   3.389   3.899
 2653SOL     OW 2044   3.056   3.474   3.755
 2653SOL    HW1 2045   3.062   3.381   3.792
 2653SOL    HW2 2046   2.997   3.474   3.675
 2655SOL     OW 2047   2.778   2.772   4.015
 2655SOL    HW1 2048   2.841   2.810   3.947
 2655SOL    HW2 2049   2.818   2.689   4.054
 2656SOL     OW 2050   3.366   3.469   3.768
 2656SOL    HW1 2051   3.274   3.506   3.775
 2656SOL    HW2 2052   3.404   3.489   3.678
 2661SOL     OW 2053   2.117   3.210   4.014
 2661SOL    HW1 2054   2.021   3.211   3.987
 2661SOL    HW2 2055   2.129   3.263   4.098
 2662SOL     OW 2056   1.937   2.207   3.757
 2662SOL    HW1 2057   1.845   2.179   3.728
 2662SOL    HW2 2058   1.968   2.284   3.701
 2663SOL     OW 2059   1.934   2.028   4.042
 2663SOL    HW1 2060   1.917   2.111   3.988
 2663SOL    HW2 2061   2.024   1.991   4.020
 2664SOL     OW 2062   3.045   3.197   3.843
 2664SOL    HW1 2063   2.946   3.186   3.845
 2664SOL    HW2 2064   3.079   3.212   3.936
 2667SOL     OW 2065   3.087   2.187   4.173
 2667SOL    HW1 2066   3.152   2.113   4.162
 2667SOL    HW2 2067   3.107   2.237   4.257
 2670SOL     OW 2068   2.721   3.236   3.740
 2670SOL    HW1 2069   2.675   3.251   3.828
 2670SOL    HW2 2070   2.765   3.321   3.710
 2673SOL     OW 2071   2.945   2.846   3.811
 2673SOL    HW1 2072   2.922   2.899   3.729
 2673SOL    HW2 2073   3.026   2.790   3.792
 2677SOL     OW 2074   2.290   2.286   4.244
 2677SOL    HW1 2075   2.320   2.214   4.182
 2677SOL    HW2 2076   2.251   2.246   4.327
 2682SOL     OW 2077   2.632   3.192   4.025
 2682SOL    HW1 2078   2.586   3.105   4.042
 2682SOL    HW2 2079   2.723   3.189   4.066
 2683SOL     OW 2080   3.214   1.914   3.892
 2683SOL    HW1 2081   3.249   1.873   3.808
 2683SOL    HW2 2082   3.124   1.876   3.912
 2686SOL     OW 2083   1.901   2.939   4.024
 2686SOL    HW1 2084   2.000   2.928   4.015
 2686SOL    HW2 2085   1.861   2.853   4.056
 2711SOL     OW 2086   2.179   3.975   1.801
 2711SOL    HW1 2087   2.250   4.046   1.807
 2711SOL    HW2 2088   2.091   4.014   1.829
 2732SOL     OW 2089   2.643   3.988   1.749
 2732SOL    HW1 2090   2.710   3.927   1.792
 2732SOL    HW2 2091   2.570   4.007   1.814
 2753SOL     OW 2092   2.777   3.813   1.402
 2753SOL    HW1 2093   2.802   3.793   1.307
 2753SOL    HW2 2094   2.849   3.869   1.444
 2763SOL     OW 2095   2.875   3.829   1.770
 2763SOL    HW1 2096   2.881   3.914   1.718
 2763SOL    HW2 2097   2.907   3.753   1.713
 2764SOL     OW 2098   2.366   3.774   1.740
 2764SOL    HW1 2099   2.324   3.717   1.670
 2764SOL    HW2 2100   2.300   3.843   1.772
 2807SOL     OW 2101   2.534   3.927   1.489
 2807SOL    HW1 2102   2.624   3.911   1.449
 2807SOL    HW2 2103   2.542   3.932   1.588
 2832SOL     OW 2104   2.087   3.999   2.858
 2832SOL    HW1 2105   2.122   3.982   2.950
 2832SOL    HW2 2106   1.999   3.954   2.846
 2833SOL     OW 2107   1.881   4.092   2.509
 2833SOL    HW1 2108   1.799   4.135   2.548
 2833SOL    HW2 2109   1.853   4.019   2.446
 2851SOL     OW 2110   2.671   3.728   2.364
 2851SOL    HW1 2111   2.711   3.819   2.355
 2851SOL    HW2 2112   2.571   3.736   2.370
 2856SOL     OW 2113   3.143   4.069   2.806
 2856SOL    HW1 2114   3.057   4.019   2.793
 2856SOL    HW2 2115   3.205   4.015   2.862
 2860SOL     OW 2116   2.853   4.134   3.104
 2860SOL    HW1 2117   2.776   4.168   3.158
 2860SOL    HW2 2118   2.819   4.083   3.025
 2863SOL     OW 2119   2.727   4.072   2.057
 2863SOL    HW1 2120   2.786   4.135   2.008
 2863SOL    HW2 2121   2.746   3.978   2.028
 2866SOL     OW 2122   2.412   3.920   2.747
 2866SOL    HW1 2123   2.407   3.915   2.847
 2866SOL    HW2 2124   2.414   4.016   2.718
 2870SOL     OW 2125   2.064   4.009   3.360
 2870SOL    HW1 2126   1.984   4.069   3.347
 2870SOL    HW2 2127   2.054   3.960   3.446
 2871SOL     OW 2128   3.262   3.831   2.288
 2871SOL    HW1 2129   3.238   3.794   2.198
 2871SOL    HW2 2130   3.361   3.847   2.292
 2874SOL     OW 2131   2.476   3.846   1.979
 2874SOL    HW1 2132   2.574   3.824   1.986
 2874SOL    HW2 2133   2.445   3.829   1.886
 2878SOL     OW 2134   2.784   4.227   2.761
 2878SOL    HW1 2135   2.759   4.218   2.665
 2878SOL    HW2 2136   2.832   4.145   2.792
 2879SOL     OW 2137   2.401   3.788   2.374
 2879SOL    HW1 2138   2.320   3.789   2.432
 2879SOL    HW2 2139   2.404   3.871   2.319
 2880SOL     OW 2140   2.159   3.759   2.033
 2880SOL    HW1 2141   2.208   3.843   2.012
 2880SOL    HW2 2142   2.221   3.694   2.078
 2881SOL     OW 2143   2.797   3.960   2.342
 2881SOL    HW1 2144   2.749   4.001   2.264
 2881SOL    HW2 2145   2.896   3.958   2.323
 2886SOL     OW 2146   2.423   3.946   3.009
 2886SOL    HW1 2147   2.461   3.862   3.046
 2886SOL    HW2 2148   2.335   3.965   3.053
 2887SOL     OW 2149   2.728   4.178   2.504
 2887SOL    HW1 2150   2.696   4.250   2.442
 2887SOL    HW2 2151   2.752   4.097   2.451
 2888SOL     OW 2152   2.879   3.763   2.615
 2888SOL    HW1 2153   2.807   3.768   2.546
 2888SOL    HW2 2154   2.855   3.694   2.684
 2893SOL     OW 2155   2.389   3.980   2.190
 2893SOL    HW1 2156   2.416   3.921   2.115
 2893SOL    HW2 2157   2.389   4.075   2.159
 2896SOL     OW 2158   2.777   3.813   3.264
 2896SOL    HW1 2159   2.802   3.793   3.169
 2896SOL    HW2 2160   2.849   3.869   3.306
 2902SOL     OW 2161   2.428   4.261   2.727
 2902SOL    HW1 2162   2.440   4.327   2.653
 2902SOL    HW2 2163   2.474   4.295   2.810
 2906SOL     OW 2164   2.875   3.829   3.632
 2906SOL    HW1 2165   2.881   3.914   3.580
 2906SOL    HW2 2166   2.907   3.753   3.575
 2907SOL     OW 2167   2.366   3.774   3.602
 2907SOL    HW1 2168   2.324   3.717   3.532
 2907SOL    HW2 2169   2.300   3.843   3.634
 2911SOL     OW 2170   2.169   3.937   3.093
 2911SOL    HW1 2171   2.146   3.974   3.183
 2911SOL    HW2 2172   2.139   3.842   3.087
 2914SOL     OW 2173   2.169   3.787   2.480
 2914SOL    HW1 2174   2.158   3.881   2.513
 2914SOL    HW2 2175   2.164   3.724   2.557
 2921SOL     OW 2176   2.201   4.233   2.868
 2921SOL    HW1 2177   2.149   4.150   2.851
 2921SOL    HW2 2178   2.278   4.238   2.804
 2923SOL     OW 2179   3.022   3.931   3.339
 2923SOL    HW1 2180   3.022   3.995   3.416
 2923SOL    HW2 2181   3.050   3.979   3.256
 2931SOL     OW 2182   2.533   4.188   3.131
 2931SOL    HW1 2183   2.499   4.099   3.101
 2931SOL    HW2 2184   2.559   4.242   3.051
 2932SOL     OW 2185   2.335   4.224   2.053
 2932SOL    HW1 2186   2.396   4.304   2.057
 2932SOL    HW2 2187   2.240   4.255   2.060
 2937SOL     OW 2188   3.588   3.859   2.385
 2937SOL    HW1 2189   3.661   3.842   2.318
 2937SOL    HW2 2190   3.557   3.772   2.423
 2940SOL     OW 2191   2.125   4.050   2.582
 2940SOL    HW1 2192   2.046   4.101   2.548
 2940SOL    HW2 2193   2.116   4.035   2.680
 2947SOL     OW 2194   2.876   3.960   2.833
 2947SOL    HW1 2195   2.868   3.924   2.740
 2947SOL    HW2 2196   2.874   3.884   2.898
 2950SOL     OW 2197   2.534   3.927   3.351
 2950SOL    HW1 2198   2.624   3.911   3.311
 2950SOL    HW2 2199   2.542   3.932   3.450
 2951SOL     OW 2200   1.937   4.069   1.895
 2951SOL    HW1 2201   1.845   4.041   1.866
 2951SOL    HW2 2202   1.968   4.146   1.839
 2953SOL     OW 2203   1.934   3.890   2.180
 2953SOL    HW1 2204   1.917   3.973   2.126
 2953SOL    HW2 2205   2.024   3.853   2.158
 2958SOL     OW 2206   3.087   4.049   2.311
 2958SOL    HW1 2207   3.152   3.975   2.300
 2958SOL    HW2 2208   3.107   4.099   2.395
 2966SOL     OW 2209   2.290   4.148   2.382
 2966SOL    HW1 2210   2.320   4.076   2.320
 2966SOL    HW2 2211   2.251   4.108   2.465
 2968SOL     OW 2212   3.286   3.938   2.974
 2968SOL    HW1 2213   3.338   3.873   3.029
 2968SOL    HW2 2214   3.237   4.001   3.035
 2969SOL     OW 2215   2.863   3.758   3.016
 2969SOL    HW1 2216   2.800   3.686   2.985
 2969SOL    HW2 2217   2.956   3.722   3.016
 2971SOL     OW 2218   3.214   3.776   2.030
 2971SOL    HW1 2219   3.249   3.735   1.946
 2971SOL    HW2 2220   3.124   3.738   2.050
 2972SOL     OW 2221   3.162   4.177   2.553
 2972SOL    HW1 2222   3.103   4.257   2.557
 2972SOL    HW2 2223   3.177   4.142   2.646
 2973SOL     OW 2224   3.455   3.945   2.744
 2973SOL    HW1 2225   3.371   3.944   2.798
 2973SOL    HW2 2226   3.457   4.028   2.688
 3110SOL     OW 2227   3.854   1.821   1.571
 3110SOL    HW1 2228   3.844   1.806   1.670
 3110SOL    HW2 2229   3.768   1.857   1.535
 3189SOL     OW 2230   3.854   1.794   1.851
 3189SOL    HW1 2231   3.813   1.720   1.904
 3189SOL    HW2 2232   3.918   1.845   1.909
 3233SOL     OW 2233   3.955   1.713   2.345
 3233SOL    HW1 2234   3.989   1.790   2.399
 3233SOL    HW2 2235   3.999   1.713   2.255
 3240SOL     OW 2236   3.751   1.596   1.979
 3240SOL    HW1 2237   3.732   1.500   2.000
 3240SOL    HW2 2238   3.718   1.654   2.054
 3253SOL     OW 2239   3.854   1.821   3.433
 3253SOL    HW1 2240   3.844   1.806   3.532
 3253SOL    HW2 2241   3.768   1.857   3.397
 3257SOL     OW 2242   4.075   1.801   2.715
 3257SOL    HW1 2243   4.125   1.715   2.721
 3257SOL    HW2 2244   4.140   1.878   2.712
 3264SOL     OW 2245   3.973   1.785   3.103
 3264SOL    HW1 2246   4.030   1.720   3.153
 3264SOL    HW2 2247   3.957   1.752   3.010
 3292SOL     OW 2248   3.788   1.564   3.193
 3292SOL    HW1 2249   3.742   1.646   3.159
 3292SOL    HW2 2250   3.886   1.583   3.202
 3316SOL     OW 2251   3.732   1.326   2.062
 3316SOL    HW1 2252   3.639   1.347   2.031
 3316SOL    HW2 2253   3.742   1.227   2.075
 3317SOL     OW 2254   3.812   1.801   2.789
 3317SOL    HW1 2255   3.770   1.715   2.762
 3317SOL    HW2 2256   3.906   1.804   2.755
 3485SOL     OW 2257   3.837   2.599   1.597
 3485SOL    HW1 2258   3.925   2.586   1.642
 3485SOL    HW2 2259   3.824   2.696   1.575
 3490SOL     OW 2260   4.041   2.113   1.801
 3490SOL    HW1 2261   4.112   2.184   1.807
 3490SOL    HW2 2262   3.953   2.152   1.829
 3506SOL     OW 2263   3.926   2.147   1.498
 3506SOL    HW1 2264   3.846   2.207   1.485
 3506SOL    HW2 2265   3.916   2.098   1.584
 3524SOL     OW 2266   3.802   2.418   1.386
 3524SOL    HW1 2267   3.894   2.417   1.345
 3524SOL    HW2 2268   3.796   2.492   1.453
 3553SOL     OW 2269   4.074   2.760   1.804
 3553SOL    HW1 2270   4.150   2.804   1.852
 3553SOL    HW2 2271   4.109   2.713   1.722
 3564SOL     OW 2272   3.913   2.382   1.722
 3564SOL    HW1 2273   3.972   2.342   1.652
 3564SOL    HW2 2274   3.855   2.453   1.681
 3570SOL     OW 2275   3.883   2.999   1.466
 3570SOL    HW1 2276   3.905   2.938   1.542
 3570SOL    HW2 2277   3.893   2.950   1.380
 3587SOL     OW 2278   3.829   2.875   1.726
 3587SOL    HW1 2279   3.752   2.842   1.780
 3587SOL    HW2 2280   3.914   2.845   1.768
 3598SOL     OW 2281   3.945   3.176   1.844
 3598SOL    HW1 2282   3.880   3.103   1.823
 3598SOL    HW2 2283   3.949   3.190   1.942
 3609SOL     OW 2284   3.954   2.490   1.975
 3609SOL    HW1 2285   3.861   2.488   2.012
 3609SOL    HW2 2286   3.955   2.451   1.883
 3610SOL     OW 2287   3.949   2.137   2.858
 3610SOL    HW1 2288   3.984   2.120   2.950
 3610SOL    HW2 2289   3.861   2.092   2.846
 3611SOL     OW 2290   3.743   2.230   2.509
 3611SOL    HW1 2291   3.661   2.273   2.548
 3611SOL    HW2 2292   3.715   2.157   2.446
 3618SOL     OW 2293   4.059   3.297   2.923
 3618SOL    HW1 2294   3.981   3.266   2.870
 3618SOL    HW2 2295   4.117   3.355   2.866
 3620SOL     OW 2296   3.955   3.575   2.345
 3620SOL    HW1 2297   3.989   3.652   2.399
 3620SOL    HW2 2298   3.999   3.575   2.255
 3622SOL     OW 2299   3.954   3.296   2.400
 3622SOL    HW1 2300   3.928   3.392   2.400
 3622SOL    HW2 2301   3.883   3.242   2.445
 3623SOL     OW 2302   3.964   2.953   2.748
 3623SOL    HW1 2303   3.978   2.869   2.800
 3623SOL    HW2 2304   3.909   3.017   2.803
 3626SOL     OW 2305   3.846   2.505   2.425
 3626SOL    HW1 2306   3.801   2.417   2.442
 3626SOL    HW2 2307   3.845   2.559   2.509
 3627SOL     OW 2308   3.751   3.458   1.979
 3627SOL    HW1 2309   3.732   3.362   2.000
 3627SOL    HW2 2310   3.718   3.516   2.054
 3628SOL     OW 2311   3.837   2.599   3.459
 3628SOL    HW1 2312   3.925   2.586   3.504
 3628SOL    HW2 2313   3.824   2.696   3.437
 3631SOL     OW 2314   3.921   2.838   3.126
 3631SOL    HW1 2315   4.010   2.793   3.112
 3631SOL    HW2 2316   3.848   2.773   3.107
 3639SOL     OW 2317   3.800   2.673   2.651
 3639SOL    HW1 2318   3.899   2.661   2.660
 3639SOL    HW2 2319   3.776   2.768   2.672
 3646SOL     OW 2320   4.045   2.805   2.104
 3646SOL    HW1 2321   4.127   2.844   2.062
 3646SOL    HW2 2322   4.018   2.723   2.055
 3649SOL     OW 2323   3.926   2.147   3.360
 3649SOL    HW1 2324   3.846   2.207   3.347
 3649SOL    HW2 2325   3.916   2.098   3.446
 3653SOL     OW 2326   4.106   2.562   2.342
 3653SOL    HW1 2327   4.151   2.472   2.339
 3653SOL    HW2 2328   4.012   2.551   2.375
 3660SOL     OW 2329   4.021   1.897   2.033
 3660SOL    HW1 2330   4.070   1.981   2.012
 3660SOL    HW2 2331   4.083   1.832   2.078
 3664SOL     OW 2332   4.183   3.014   2.603
 3664SOL    HW1 2333   4.112   2.987   2.668
 3664SOL    HW2 2334   4.157   2.986   2.510
 3667SOL     OW 2335   3.802   2.418   3.248
 3667SOL    HW1 2336   3.894   2.417   3.207
 3667SOL    HW2 2337   3.796   2.492   3.315
 3678SOL     OW 2338   4.134   2.675   3.113
 3678SOL    HW1 2339   4.220   2.687   3.163
 3678SOL    HW2 2340   4.092   2.588   3.140
 3679SOL     OW 2341   3.788   3.426   3.193
 3679SOL    HW1 2342   3.742   3.508   3.159
 3679SOL    HW2 2343   3.886   3.445   3.202
 3680SOL     OW 2344   4.091   2.962   2.363
 3680SOL    HW1 2345   4.084   3.045   2.307
 3680SOL    HW2 2346   4.095   2.882   2.303
 3681SOL     OW 2347   4.290   2.399   2.727
 3681SOL    HW1 2348   4.302   2.465   2.653
 3681SOL    HW2 2349   4.336   2.433   2.810
 3690SOL     OW 2350   4.031   2.075   3.093
 3690SOL    HW1 2351   4.008   2.112   3.183
 3690SOL    HW2 2352   4.001   1.980   3.087
 3691SOL     OW 2353   3.761   3.172   3.144
 3691SOL    HW1 2354   3.814   3.123   3.212
 3691SOL    HW2 2355   3.783   3.270   3.149
 3693SOL     OW 2356   4.031   1.925   2.480
 3693SOL    HW1 2357   4.020   2.019   2.513
 3693SOL    HW2 2358   4.026   1.862   2.557
 3699SOL     OW 2359   4.043   2.672   2.811
 3699SOL    HW1 2360   4.136   2.708   2.816
 3699SOL    HW2 2361   4.037   2.587   2.863
 3700SOL     OW 2362   4.063   2.371   2.868
 3700SOL    HW1 2363   4.011   2.288   2.851
 3700SOL    HW2 2364   4.140   2.376   2.804
 3703SOL     OW 2365   3.732   3.188   2.062
 3703SOL    HW1 2366   3.639   3.209   2.031
 3703SOL    HW2 2367   3.742   3.089   2.075
 3704SOL     OW 2368   3.812   3.663   2.789
 3704SOL    HW1 2369   3.770   3.577   2.762
 3704SOL    HW2 2370   3.906   3.666   2.755
 3707SOL     OW 2371   3.764   2.406   2.976
 3707SOL    HW1 2372   3.849   2.373   2.935
 3707SOL    HW2 2373   3.777   2.421   3.074
 3708SOL     OW 2374   3.913   2.382   3.584
 3708SOL    HW1 2375   3.972   2.342   3.514
 3708SOL    HW2 2376   3.855   2.453   3.543
 3713SOL     OW 2377   4.197   2.362   2.053
 3713SOL    HW1 2378   4.258   2.442   2.057
 3713SOL    HW2 2379   4.102   2.393   2.060
 3714SOL     OW 2380   3.883   2.999   3.328
 3714SOL    HW1 2381   3.905   2.938   3.404
 3714SOL    HW2 2382   3.893   2.950   3.242
 3717SOL     OW 2383   3.807   3.120   2.884
 3717SOL    HW1 2384   3.802   3.119   2.984
 3717SOL    HW2 2385   3.724   3.079   2.846
 3722SOL     OW 2386   3.987   2.188   2.582
 3722SOL    HW1 2387   3.908   2.239   2.548
 3722SOL    HW2 2388   3.978   2.173   2.680
 3729SOL     OW 2389   3.979   3.210   2.152
 3729SOL    HW1 2390   3.883   3.211   2.125
 3729SOL    HW2 2391   3.991   3.263   2.236
 3730SOL     OW 2392   3.829   2.875   3.588
 3730SOL    HW1 2393   3.752   2.842   3.642
 3730SOL    HW2 2394   3.914   2.845   3.630
 3732SOL     OW 2395   3.799   2.207   1.895
 3732SOL    HW1 2396   3.707   2.179   1.866
 3732SOL    HW2 2397   3.830   2.284   1.839
 3733SOL     OW 2398   3.796   2.028   2.180
 3733SOL    HW1 2399   3.779   2.111   2.126
 3733SOL    HW2 2400   3.886   1.991   2.158
 3743SOL     OW 2401   3.803   3.102   2.515
 3743SOL    HW1 2402   3.802   3.055   2.603
 3743SOL    HW2 2403   3.885   3.074   2.464
 3745SOL     OW 2404   4.152   2.286   2.382
 3745SOL    HW1 2405   4.182   2.214   2.320
 3745SOL    HW2 2406   4.113   2.246   2.465
 3746SOL     OW 2407   4.041   2.409   3.142
 3746SOL    HW1 2408   4.079   2.350   3.214
 3746SOL    HW2 2409   4.081   2.383   3.054
 3751SOL     OW 2410   3.763   2.939   2.162
 3751SOL    HW1 2411   3.862   2.928   2.153
 3751SOL    HW2 2412   3.723   2.853   2.194
   5.03669   5.03669   5.03669
