; mobley_9007496_GMX.itp created by acpype (v: 2023.10.27) on Thu May 21 00:07:58 2026

[ atomtypes ]
;name   bond_type     mass     charge   ptype   sigma         epsilon       Amb
 ca       ca          0.00000  0.00000   A     3.31521e-01   4.13379e-01 ; 1.86  0.0988
 c        c           0.00000  0.00000   A     3.31521e-01   4.13379e-01 ; 1.86  0.0988
 c3       c3          0.00000  0.00000   A     3.39771e-01   4.51035e-01 ; 1.91  0.1078
 ns       ns          0.00000  0.00000   A     3.26995e-01   4.91202e-01 ; 1.84  0.1174
 o        o           0.00000  0.00000   A     3.04812e-01   6.12119e-01 ; 1.71  0.1463
 os       os          0.00000  0.00000   A     3.15610e-01   3.03758e-01 ; 1.77  0.0726
 ha       ha          0.00000  0.00000   A     2.62548e-01   6.73624e-02 ; 1.47  0.0161
 h1       h1          0.00000  0.00000   A     2.42200e-01   8.70272e-02 ; 1.36  0.0208
 hn       hn          0.00000  0.00000   A     1.10650e-01   4.18400e-02 ; 0.62  0.0100

[ moleculetype ]
;name            nrexcl
 mobley_9007496   3

[ atoms ]
;   nr  type  resi  res  atom  cgnr     charge      mass       ; qtot   bond_type
     1   ca     1   MOL    C1    1    -0.123000     12.01000 ; qtot -0.123
     2   ca     1   MOL    C2    2    -0.131000     12.01000 ; qtot -0.254
     3   ca     1   MOL    C3    3    -0.114000     12.01000 ; qtot -0.368
     4   ca     1   MOL    C4    4    -0.120000     12.01000 ; qtot -0.488
     5   ca     1   MOL    C5    5    -0.104000     12.01000 ; qtot -0.592
     6   ca     1   MOL    C6    6    -0.125000     12.01000 ; qtot -0.717
     7   ca     1   MOL    C7    7    -0.129000     12.01000 ; qtot -0.846
     8   ca     1   MOL    C8    8    -0.029000     12.01000 ; qtot -0.875
     9   ca     1   MOL    C9    9    -0.036000     12.01000 ; qtot -0.911
    10   ca     1   MOL   C10   10     0.124100     12.01000 ; qtot -0.787
    11    c     1   MOL   C11   11     0.733099     12.01000 ; qtot -0.054
    12   c3     1   MOL   C12   12     0.076300     12.01000 ; qtot 0.022
    13   ns     1   MOL    N1   13    -0.531900     14.01000 ; qtot -0.509
    14    o     1   MOL    O1   14    -0.562000     16.00000 ; qtot -1.071
    15   os     1   MOL    O2   15    -0.375200     16.00000 ; qtot -1.447
    16   ha     1   MOL    H1   16     0.132000      1.00800 ; qtot -1.315
    17   ha     1   MOL    H2   17     0.133000      1.00800 ; qtot -1.182
    18   ha     1   MOL    H3   18     0.137000      1.00800 ; qtot -1.045
    19   ha     1   MOL    H4   19     0.134000      1.00800 ; qtot -0.911
    20   ha     1   MOL    H5   20     0.142000      1.00800 ; qtot -0.769
    21   ha     1   MOL    H6   21     0.135000      1.00800 ; qtot -0.634
    22   ha     1   MOL    H7   22     0.161000      1.00800 ; qtot -0.473
    23   h1     1   MOL    H8   23     0.050367      1.00800 ; qtot -0.422
    24   h1     1   MOL    H9   24     0.050367      1.00800 ; qtot -0.372
    25   h1     1   MOL   H10   25     0.050367      1.00800 ; qtot -0.322
    26   hn     1   MOL   H11   26     0.321500      1.00800 ; qtot -0.000

[ bonds ]
;   ai     aj funct   r             k
     1      2   1    1.3986e-01    2.9644e+05 ;     C1 - C2    
     1      4   1    1.3986e-01    2.9644e+05 ;     C1 - C4    
     1     16   1    1.0860e-01    3.0183e+05 ;     C1 - H1    
     2      5   1    1.3986e-01    2.9644e+05 ;     C2 - C5    
     2     17   1    1.0860e-01    3.0183e+05 ;     C2 - H2    
     3      6   1    1.3986e-01    2.9644e+05 ;     C3 - C6    
     3      7   1    1.3986e-01    2.9644e+05 ;     C3 - C7    
     3     18   1    1.0860e-01    3.0183e+05 ;     C3 - H3    
     4      8   1    1.3986e-01    2.9644e+05 ;     C4 - C8    
     4     19   1    1.0860e-01    3.0183e+05 ;     C4 - H4    
     5      9   1    1.3986e-01    2.9644e+05 ;     C5 - C9    
     5     20   1    1.0860e-01    3.0183e+05 ;     C5 - H5    
     6      8   1    1.3986e-01    2.9644e+05 ;     C6 - C8    
     6     21   1    1.0860e-01    3.0183e+05 ;     C6 - H6    
     7     10   1    1.3986e-01    2.9644e+05 ;     C7 - C10   
     7     22   1    1.0860e-01    3.0183e+05 ;     C7 - H7    
     8      9   1    1.3986e-01    2.9644e+05 ;     C8 - C9    
     9     10   1    1.3986e-01    2.9644e+05 ;     C9 - C10   
    10     15   1    1.3688e-01    2.8731e+05 ;    C10 - O2    
    11     13   1    1.3798e-01    2.8122e+05 ;    C11 - N1    
    11     14   1    1.2190e-01    4.9421e+05 ;    C11 - O1    
    11     15   1    1.3621e-01    2.9398e+05 ;    C11 - O2    
    12     13   1    1.4556e-01    2.1896e+05 ;    C12 - N1    
    12     23   1    1.0969e-01    2.8804e+05 ;    C12 - H8    
    12     24   1    1.0969e-01    2.8804e+05 ;    C12 - H9    
    12     25   1    1.0969e-01    2.8804e+05 ;    C12 - H10   
    13     26   1    1.0132e-01    3.9630e+05 ;     N1 - H11   

[ pairs ]
;   ai     aj    funct
     1      6      1 ;     C1 - C6    
     1      9      1 ;     C1 - C9    
     1     20      1 ;     C1 - H5    
     2      8      1 ;     C2 - C8    
     2     10      1 ;     C2 - C10   
     2     19      1 ;     C2 - H4    
     3      4      1 ;     C3 - C4    
     3      9      1 ;     C3 - C9    
     3     15      1 ;     C3 - O2    
     4      5      1 ;     C4 - C5    
     4     10      1 ;     C4 - C10   
     4     17      1 ;     C4 - H2    
     4     21      1 ;     C4 - H6    
     5      6      1 ;     C5 - C6    
     5      7      1 ;     C5 - C7    
     5     15      1 ;     C5 - O2    
     6     10      1 ;     C6 - C10   
     6     19      1 ;     C6 - H4    
     6     22      1 ;     C6 - H7    
     7      8      1 ;     C7 - C8    
     7     11      1 ;     C7 - C11   
     7     21      1 ;     C7 - H6    
     8     15      1 ;     C8 - O2    
     8     18      1 ;     C8 - H3    
     8     20      1 ;     C8 - H5    
     9     11      1 ;     C9 - C11   
     9     17      1 ;     C9 - H2    
     9     19      1 ;     C9 - H4    
     9     21      1 ;     C9 - H6    
     9     22      1 ;     C9 - H7    
    10     13      1 ;    C10 - N1    
    10     14      1 ;    C10 - O1    
    10     18      1 ;    C10 - H3    
    10     20      1 ;    C10 - H5    
    11     23      1 ;    C11 - H8    
    11     24      1 ;    C11 - H9    
    11     25      1 ;    C11 - H10   
    12     14      1 ;    C12 - O1    
    12     15      1 ;    C12 - O2    
    14     26      1 ;     O1 - H11   
    15     22      1 ;     O2 - H7    
    15     26      1 ;     O2 - H11   
    16      5      1 ;     H1 - C5    
    16      8      1 ;     H1 - C8    
    16     17      1 ;     H1 - H2    
    16     19      1 ;     H1 - H4    
    17     20      1 ;     H2 - H5    
    18     21      1 ;     H3 - H6    
    18     22      1 ;     H3 - H7    
    23     26      1 ;     H8 - H11   
    24     26      1 ;     H9 - H11   
    25     26      1 ;    H10 - H11   

[ angles ]
;   ai     aj     ak    funct   theta         cth
     1      2      5      1    1.2002e+02    5.3279e+02 ;     C1 - C2     - C5    
     1      2     17      1    1.1988e+02    3.7572e+02 ;     C1 - C2     - H2    
     1      4      8      1    1.2002e+02    5.3279e+02 ;     C1 - C4     - C8    
     1      4     19      1    1.1988e+02    3.7572e+02 ;     C1 - C4     - H4    
     2      1      4      1    1.2002e+02    5.3279e+02 ;     C2 - C1     - C4    
     2      1     16      1    1.1988e+02    3.7572e+02 ;     C2 - C1     - H1    
     2      5      9      1    1.2002e+02    5.3279e+02 ;     C2 - C5     - C9    
     2      5     20      1    1.1988e+02    3.7572e+02 ;     C2 - C5     - H5    
     3      6      8      1    1.2002e+02    5.3279e+02 ;     C3 - C6     - C8    
     3      6     21      1    1.1988e+02    3.7572e+02 ;     C3 - C6     - H6    
     3      7     10      1    1.2002e+02    5.3279e+02 ;     C3 - C7     - C10   
     3      7     22      1    1.1988e+02    3.7572e+02 ;     C3 - C7     - H7    
     4      1     16      1    1.1988e+02    3.7572e+02 ;     C4 - C1     - H1    
     4      8      6      1    1.2002e+02    5.3279e+02 ;     C4 - C8     - C6    
     4      8      9      1    1.2002e+02    5.3279e+02 ;     C4 - C8     - C9    
     5      2     17      1    1.1988e+02    3.7572e+02 ;     C5 - C2     - H2    
     5      9      8      1    1.2002e+02    5.3279e+02 ;     C5 - C9     - C8    
     5      9     10      1    1.2002e+02    5.3279e+02 ;     C5 - C9     - C10   
     6      3      7      1    1.2002e+02    5.3279e+02 ;     C6 - C3     - C7    
     6      3     18      1    1.1988e+02    3.7572e+02 ;     C6 - C3     - H3    
     6      8      9      1    1.2002e+02    5.3279e+02 ;     C6 - C8     - C9    
     7      3     18      1    1.1988e+02    3.7572e+02 ;     C7 - C3     - H3    
     7     10      9      1    1.2002e+02    5.3279e+02 ;     C7 - C10    - C9    
     7     10     15      1    1.1911e+02    6.6107e+02 ;     C7 - C10    - O2    
     8      4     19      1    1.1988e+02    3.7572e+02 ;     C8 - C4     - H4    
     8      6     21      1    1.1988e+02    3.7572e+02 ;     C8 - C6     - H6    
     8      9     10      1    1.2002e+02    5.3279e+02 ;     C8 - C9     - C10   
     9      5     20      1    1.1988e+02    3.7572e+02 ;     C9 - C5     - H5    
     9     10     15      1    1.1911e+02    6.6107e+02 ;     C9 - C10    - O2    
    10      7     22      1    1.1988e+02    3.7572e+02 ;    C10 - C7     - H7    
    10     15     11      1    1.2129e+02    7.4776e+02 ;    C10 - O2     - C11   
    11     13     12      1    1.2196e+02    6.4350e+02 ;    C11 - N1     - C12   
    11     13     26      1    1.1726e+02    4.8007e+02 ;    C11 - N1     - H11   
    12     13     26      1    1.1742e+02    4.5706e+02 ;    C12 - N1     - H11   
    13     11     14      1    1.2305e+02    7.2977e+02 ;     N1 - C11    - O1    
    13     11     15      1    1.0888e+02    7.4090e+02 ;     N1 - C11    - O2    
    13     12     23      1    1.0849e+02    4.0493e+02 ;     N1 - C12    - H8    
    13     12     24      1    1.0849e+02    4.0493e+02 ;     N1 - C12    - H9    
    13     12     25      1    1.0849e+02    4.0493e+02 ;     N1 - C12    - H10   
    14     11     15      1    1.2320e+02    8.4734e+02 ;     O1 - C11    - O2    
    23     12     24      1    1.0855e+02    2.9824e+02 ;     H8 - C12    - H9    
    23     12     25      1    1.0855e+02    2.9824e+02 ;     H8 - C12    - H10   
    24     12     25      1    1.0855e+02    2.9824e+02 ;     H9 - C12    - H10   

[ dihedrals ] ; propers
; for gromacs 4.5 or higher, using funct 9
;    i      j      k      l   func   phase     kd      pn
     1      2      5      9      9   180.00  15.16700   2 ;     C1-    C2-    C5-    C9
     1      2      5     20      9   180.00  15.16700   2 ;     C1-    C2-    C5-    H5
     1      4      8      6      9   180.00  15.16700   2 ;     C1-    C4-    C8-    C6
     1      4      8      9      9   180.00  15.16700   2 ;     C1-    C4-    C8-    C9
     2      1      4      8      9   180.00  15.16700   2 ;     C2-    C1-    C4-    C8
     2      1      4     19      9   180.00  15.16700   2 ;     C2-    C1-    C4-    H4
     2      5      9      8      9   180.00  15.16700   2 ;     C2-    C5-    C9-    C8
     2      5      9     10      9   180.00  15.16700   2 ;     C2-    C5-    C9-   C10
     3      6      8      4      9   180.00  15.16700   2 ;     C3-    C6-    C8-    C4
     3      6      8      9      9   180.00  15.16700   2 ;     C3-    C6-    C8-    C9
     3      7     10      9      9   180.00  15.16700   2 ;     C3-    C7-   C10-    C9
     3      7     10     15      9   180.00  15.16700   2 ;     C3-    C7-   C10-    O2
     4      1      2      5      9   180.00  15.16700   2 ;     C4-    C1-    C2-    C5
     4      1      2     17      9   180.00  15.16700   2 ;     C4-    C1-    C2-    H2
     4      8      6     21      9   180.00  15.16700   2 ;     C4-    C8-    C6-    H6
     4      8      9      5      9   180.00  15.16700   2 ;     C4-    C8-    C9-    C5
     4      8      9     10      9   180.00  15.16700   2 ;     C4-    C8-    C9-   C10
     5      9      8      6      9   180.00  15.16700   2 ;     C5-    C9-    C8-    C6
     5      9     10      7      9   180.00  15.16700   2 ;     C5-    C9-   C10-    C7
     5      9     10     15      9   180.00  15.16700   2 ;     C5-    C9-   C10-    O2
     6      3      7     10      9   180.00  15.16700   2 ;     C6-    C3-    C7-   C10
     6      3      7     22      9   180.00  15.16700   2 ;     C6-    C3-    C7-    H7
     6      8      4     19      9   180.00  15.16700   2 ;     C6-    C8-    C4-    H4
     6      8      9     10      9   180.00  15.16700   2 ;     C6-    C8-    C9-   C10
     7      3      6      8      9   180.00  15.16700   2 ;     C7-    C3-    C6-    C8
     7      3      6     21      9   180.00  15.16700   2 ;     C7-    C3-    C6-    H6
     7     10      9      8      9   180.00  15.16700   2 ;     C7-   C10-    C9-    C8
     7     10     15     11      9   180.00   4.10032   2 ;     C7-   C10-    O2-   C11
     8      6      3     18      9   180.00  15.16700   2 ;     C8-    C6-    C3-    H3
     8      9      5     20      9   180.00  15.16700   2 ;     C8-    C9-    C5-    H5
     8      9     10     15      9   180.00  15.16700   2 ;     C8-    C9-   C10-    O2
     9      5      2     17      9   180.00  15.16700   2 ;     C9-    C5-    C2-    H2
     9      8      4     19      9   180.00  15.16700   2 ;     C9-    C8-    C4-    H4
     9      8      6     21      9   180.00  15.16700   2 ;     C9-    C8-    C6-    H6
     9     10      7     22      9   180.00  15.16700   2 ;     C9-   C10-    C7-    H7
     9     10     15     11      9   180.00   4.10032   2 ;     C9-   C10-    O2-   C11
    10      7      3     18      9   180.00  15.16700   2 ;    C10-    C7-    C3-    H3
    10      9      5     20      9   180.00  15.16700   2 ;    C10-    C9-    C5-    H5
    10     15     11     13      9   180.00  11.29680   2 ;    C10-    O2-   C11-    N1
    10     15     11     14      9     0.00   0.33472   3 ;    C10-    O2-   C11-    O1
    10     15     11     14      9     0.00   7.23832   1 ;    C10-    O2-   C11-    O1
    10     15     11     14      9   180.00   8.99560   2 ;    C10-    O2-   C11-    O1
    11     13     12     23      9     0.00   0.00000   0 ;    C11-    N1-   C12-    H8
    11     13     12     24      9     0.00   0.00000   0 ;    C11-    N1-   C12-    H9
    11     13     12     25      9     0.00   0.00000   0 ;    C11-    N1-   C12-   H10
    12     13     11     14      9   180.00  10.46000   2 ;    C12-    N1-   C11-    O1
    12     13     11     15      9   180.00  10.46000   2 ;    C12-    N1-   C11-    O2
    14     11     13     26      9     0.00   8.36800   1 ;     O1-   C11-    N1-   H11
    14     11     13     26      9   180.00  10.46000   2 ;     O1-   C11-    N1-   H11
    15     10      7     22      9   180.00  15.16700   2 ;     O2-   C10-    C7-    H7
    15     11     13     26      9   180.00  10.46000   2 ;     O2-   C11-    N1-   H11
    16      1      2      5      9   180.00  15.16700   2 ;     H1-    C1-    C2-    C5
    16      1      2     17      9   180.00  15.16700   2 ;     H1-    C1-    C2-    H2
    16      1      4      8      9   180.00  15.16700   2 ;     H1-    C1-    C4-    C8
    16      1      4     19      9   180.00  15.16700   2 ;     H1-    C1-    C4-    H4
    17      2      5     20      9   180.00  15.16700   2 ;     H2-    C2-    C5-    H5
    18      3      6     21      9   180.00  15.16700   2 ;     H3-    C3-    C6-    H6
    18      3      7     22      9   180.00  15.16700   2 ;     H3-    C3-    C7-    H7
    23     12     13     26      9     0.00   0.00000   0 ;     H8-   C12-    N1-   H11
    24     12     13     26      9     0.00   0.00000   0 ;     H9-   C12-    N1-   H11
    25     12     13     26      9     0.00   0.00000   0 ;    H10-   C12-    N1-   H11

[ dihedrals ] ; impropers
; treated as propers in GROMACS to use correct AMBER analytical function
;    i      j      k      l   func   phase     kd      pn
     1      5      2     17      4   180.00   4.60240   2 ;     C1-    C5-    C2-    H2
     1      8      4     19      4   180.00   4.60240   2 ;     C1-    C8-    C4-    H4
     2      9      5     20      4   180.00   4.60240   2 ;     C2-    C9-    C5-    H5
     3      8      6     21      4   180.00   4.60240   2 ;     C3-    C8-    C6-    H6
     3     10      7     22      4   180.00   4.60240   2 ;     C3-   C10-    C7-    H7
     4      6      8      9      4   180.00   4.60240   2 ;     C4-    C6-    C8-    C9
     5      8      9     10      4   180.00   4.60240   2 ;     C5-    C8-    C9-   C10
     6      7      3     18      4   180.00   4.60240   2 ;     C6-    C7-    C3-    H3
     7      9     10     15      4   180.00   4.60240   2 ;     C7-    C9-   C10-    O2
    11     12     13     26      4   180.00   4.60240   2 ;    C11-   C12-    N1-   H11
    13     14     11     15      4   180.00   4.60240   2 ;     N1-    O1-   C11-    O2
    16      1      4      2      4   180.00   4.60240   2 ;     H1-    C1-    C4-    C2
