; mobley_2023925_GMX.itp created by acpype (v: 2023.10.27) on Thu May 21 00:09:09 2026

[ atomtypes ]
;name   bond_type     mass     charge   ptype   sigma         epsilon       Amb
 c3       c3          0.00000  0.00000   A     3.39771e-01   4.51035e-01 ; 1.91  0.1078
 os       os          0.00000  0.00000   A     3.15610e-01   3.03758e-01 ; 1.77  0.0726
 f        f           0.00000  0.00000   A     3.03422e-01   3.48109e-01 ; 1.70  0.0832
 cl       cl          0.00000  0.00000   A     3.46595e-01   1.10374e+00 ; 1.95  0.2638
 h2       h2          0.00000  0.00000   A     2.24382e-01   8.70272e-02 ; 1.26  0.0208
 h3       h3          0.00000  0.00000   A     2.06564e-01   8.70272e-02 ; 1.16  0.0208

[ moleculetype ]
;name            nrexcl
 mobley_2023925   3

[ atoms ]
;   nr  type  resi  res  atom  cgnr     charge      mass       ; qtot   bond_type
     1   c3     1   MOL    C1    1     0.204500     12.01000 ; qtot 0.204
     2   c3     1   MOL    C2    2     0.592700     12.01000 ; qtot 0.797
     3   c3     1   MOL    C3    3     0.646899     12.01000 ; qtot 1.444
     4   os     1   MOL    O1    4    -0.434600     16.00000 ; qtot 1.009
     5    f     1   MOL    F1    5    -0.220800     19.00000 ; qtot 0.789
     6    f     1   MOL    F2    6    -0.220800     19.00000 ; qtot 0.568
     7    f     1   MOL    F3    7    -0.215633     19.00000 ; qtot 0.352
     8    f     1   MOL    F4    8    -0.215633     19.00000 ; qtot 0.137
     9    f     1   MOL    F5    9    -0.215633     19.00000 ; qtot -0.079
    10   cl     1   MOL   CL1   10    -0.147400     35.45000 ; qtot -0.226
    11   h2     1   MOL    H1   11     0.113700      1.00800 ; qtot -0.113
    12   h3     1   MOL    H2   12     0.112700      1.00800 ; qtot 0.000

[ bonds ]
;   ai     aj funct   r             k
     1      3   1    1.5354e-01    1.9154e+05 ;     C1 - C3    
     1      4   1    1.4273e-01    2.3620e+05 ;     C1 - O1    
     1     10   1    1.8092e-01    1.3724e+05 ;     C1 - CL1   
     1     11   1    1.0950e-01    2.9039e+05 ;     C1 - H1    
     2      4   1    1.4273e-01    2.3620e+05 ;     C2 - O1    
     2      5   1    1.3512e-01    2.7973e+05 ;     C2 - F1    
     2      6   1    1.3512e-01    2.7973e+05 ;     C2 - F2    
     2     12   1    1.0938e-01    2.9188e+05 ;     C2 - H2    
     3      7   1    1.3512e-01    2.7973e+05 ;     C3 - F3    
     3      8   1    1.3512e-01    2.7973e+05 ;     C3 - F4    
     3      9   1    1.3512e-01    2.7973e+05 ;     C3 - F5    

[ pairs ]
;   ai     aj    funct
     1      5      1 ;     C1 - F1    
     1      6      1 ;     C1 - F2    
     1     12      1 ;     C1 - H2    
     3      2      1 ;     C3 - C2    
     4      7      1 ;     O1 - F3    
     4      8      1 ;     O1 - F4    
     4      9      1 ;     O1 - F5    
    10      2      1 ;    CL1 - C2    
    10      7      1 ;    CL1 - F3    
    10      8      1 ;    CL1 - F4    
    10      9      1 ;    CL1 - F5    
    11      2      1 ;     H1 - C2    
    11      7      1 ;     H1 - F3    
    11      8      1 ;     H1 - F4    
    11      9      1 ;     H1 - F5    

[ angles ]
;   ai     aj     ak    funct   theta         cth
     1      3      7      1    1.0948e+02    6.6408e+02 ;     C1 - C3     - F3    
     1      3      8      1    1.0948e+02    6.6408e+02 ;     C1 - C3     - F4    
     1      3      9      1    1.0948e+02    6.6408e+02 ;     C1 - C3     - F5    
     1      4      2      1    1.1360e+02    7.3915e+02 ;     C1 - O1     - C2    
     3      1      4      1    1.0762e+02    6.4802e+02 ;     C3 - C1     - O1    
     3      1     10      1    1.1039e+02    5.3254e+02 ;     C3 - C1     - CL1   
     3      1     11      1    1.1042e+02    3.6091e+02 ;     C3 - C1     - H1    
     4      1     10      1    1.1146e+02    6.6024e+02 ;     O1 - C1     - CL1   
     4      1     11      1    1.1103e+02    4.6894e+02 ;     O1 - C1     - H1    
     4      2      5      1    1.1134e+02    8.4232e+02 ;     O1 - C2     - F1    
     4      2      6      1    1.1134e+02    8.4232e+02 ;     O1 - C2     - F2    
     4      2     12      1    1.1181e+02    4.6744e+02 ;     O1 - C2     - H2    
     5      2      6      1    1.0737e+02    8.9437e+02 ;     F1 - C2     - F2    
     5      2     12      1    1.1013e+02    4.9806e+02 ;     F1 - C2     - H2    
     6      2     12      1    1.1013e+02    4.9806e+02 ;     F2 - C2     - H2    
     7      3      8      1    1.0737e+02    8.9437e+02 ;     F3 - C3     - F4    
     7      3      9      1    1.0737e+02    8.9437e+02 ;     F3 - C3     - F5    
     8      3      9      1    1.0737e+02    8.9437e+02 ;     F4 - C3     - F5    
    10      1     11      1    1.0706e+02    3.6133e+02 ;    CL1 - C1     - H1    

[ dihedrals ] ; propers
; for gromacs 4.5 or higher, using funct 9
;    i      j      k      l   func   phase     kd      pn
     1      4      2      5      9     0.00   1.60387   3 ;     C1-    O1-    C2-    F1
     1      4      2      6      9     0.00   1.60387   3 ;     C1-    O1-    C2-    F2
     1      4      2     12      9     0.00   1.60387   3 ;     C1-    O1-    C2-    H2
     3      1      4      2      9     0.00   0.33472   2 ;     C3-    C1-    O1-    C2
     3      1      4      2      9     0.00   3.13800   3 ;     C3-    C1-    O1-    C2
     3      1      4      2      9   180.00   3.68192   1 ;     C3-    C1-    O1-    C2
     4      1      3      7      9     0.00   0.65084   3 ;     O1-    C1-    C3-    F3
     4      1      3      8      9     0.00   0.65084   3 ;     O1-    C1-    C3-    F4
     4      1      3      9      9     0.00   0.65084   3 ;     O1-    C1-    C3-    F5
    10      1      3      7      9     0.00   0.65084   3 ;    CL1-    C1-    C3-    F3
    10      1      3      8      9     0.00   0.65084   3 ;    CL1-    C1-    C3-    F4
    10      1      3      9      9     0.00   0.65084   3 ;    CL1-    C1-    C3-    F5
    10      1      4      2      9     0.00   1.60387   3 ;    CL1-    C1-    O1-    C2
    11      1      3      7      9     0.00   0.65084   3 ;     H1-    C1-    C3-    F3
    11      1      3      8      9     0.00   0.65084   3 ;     H1-    C1-    C3-    F4
    11      1      3      9      9     0.00   0.65084   3 ;     H1-    C1-    C3-    F5
    11      1      4      2      9     0.00   1.60387   3 ;     H1-    C1-    O1-    C2
