; mobley_1875719_GMX.itp created by acpype (v: 2023.10.27) on Thu May 21 00:09:28 2026

[ atomtypes ]
;name   bond_type     mass     charge   ptype   sigma         epsilon       Amb
 c3       c3          0.00000  0.00000   A     3.39771e-01   4.51035e-01 ; 1.91  0.1078
 c        c           0.00000  0.00000   A     3.31521e-01   4.13379e-01 ; 1.86  0.0988
 o        o           0.00000  0.00000   A     3.04812e-01   6.12119e-01 ; 1.71  0.1463
 hc       hc          0.00000  0.00000   A     2.60018e-01   8.70272e-02 ; 1.46  0.0208

[ moleculetype ]
;name            nrexcl
 mobley_1875719   3

[ atoms ]
;   nr  type  resi  res  atom  cgnr     charge      mass       ; qtot   bond_type
     1   c3     1   MOL    C1    1    -0.088100     12.01000 ; qtot -0.088
     2   c3     1   MOL    C2    2    -0.183400     12.01000 ; qtot -0.272
     3    c     1   MOL    C3    3     0.562098     12.01000 ; qtot 0.291
     4    o     1   MOL    O1    4    -0.526100     16.00000 ; qtot -0.236
     5   c3     1   MOL    C4    5    -0.183400     12.01000 ; qtot -0.419
     6   c3     1   MOL    C5    6    -0.088100     12.01000 ; qtot -0.507
     7   hc     1   MOL    H1    7     0.043367      1.00800 ; qtot -0.464
     8   hc     1   MOL    H2    8     0.043367      1.00800 ; qtot -0.420
     9   hc     1   MOL    H3    9     0.043367      1.00800 ; qtot -0.377
    10   hc     1   MOL    H4   10     0.061700      1.00800 ; qtot -0.315
    11   hc     1   MOL    H5   11     0.061700      1.00800 ; qtot -0.254
    12   hc     1   MOL    H6   12     0.061700      1.00800 ; qtot -0.192
    13   hc     1   MOL    H7   13     0.061700      1.00800 ; qtot -0.130
    14   hc     1   MOL    H8   14     0.043367      1.00800 ; qtot -0.087
    15   hc     1   MOL    H9   15     0.043367      1.00800 ; qtot -0.043
    16   hc     1   MOL   H10   16     0.043367      1.00800 ; qtot -0.000

[ bonds ]
;   ai     aj funct   r             k
     1      2   1    1.5354e-01    1.9154e+05 ;     C1 - C2    
     1      7   1    1.0962e-01    2.8891e+05 ;     C1 - H1    
     1      8   1    1.0962e-01    2.8891e+05 ;     C1 - H2    
     1      9   1    1.0962e-01    2.8891e+05 ;     C1 - H3    
     2      3   1    1.5270e-01    1.9652e+05 ;     C2 - C3    
     2     10   1    1.0962e-01    2.8891e+05 ;     C2 - H4    
     2     11   1    1.0962e-01    2.8891e+05 ;     C2 - H5    
     3      4   1    1.2190e-01    4.9421e+05 ;     C3 - O1    
     3      5   1    1.5270e-01    1.9652e+05 ;     C3 - C4    
     5      6   1    1.5354e-01    1.9154e+05 ;     C4 - C5    
     5     12   1    1.0962e-01    2.8891e+05 ;     C4 - H6    
     5     13   1    1.0962e-01    2.8891e+05 ;     C4 - H7    
     6     14   1    1.0962e-01    2.8891e+05 ;     C5 - H8    
     6     15   1    1.0962e-01    2.8891e+05 ;     C5 - H9    
     6     16   1    1.0962e-01    2.8891e+05 ;     C5 - H10   

[ pairs ]
;   ai     aj    funct
     1      4      1 ;     C1 - O1    
     1      5      1 ;     C1 - C4    
     2      6      1 ;     C2 - C5    
     2     12      1 ;     C2 - H6    
     2     13      1 ;     C2 - H7    
     3     14      1 ;     C3 - H8    
     3     15      1 ;     C3 - H9    
     3     16      1 ;     C3 - H10   
     4      6      1 ;     O1 - C5    
     4     10      1 ;     O1 - H4    
     4     11      1 ;     O1 - H5    
     4     12      1 ;     O1 - H6    
     4     13      1 ;     O1 - H7    
     5     10      1 ;     C4 - H4    
     5     11      1 ;     C4 - H5    
     7      3      1 ;     H1 - C3    
     7     10      1 ;     H1 - H4    
     7     11      1 ;     H1 - H5    
     8      3      1 ;     H2 - C3    
     8     10      1 ;     H2 - H4    
     8     11      1 ;     H2 - H5    
     9      3      1 ;     H3 - C3    
     9     10      1 ;     H3 - H4    
     9     11      1 ;     H3 - H5    
    12     14      1 ;     H6 - H8    
    12     15      1 ;     H6 - H9    
    12     16      1 ;     H6 - H10   
    13     14      1 ;     H7 - H8    
    13     15      1 ;     H7 - H9    
    13     16      1 ;     H7 - H10   

[ angles ]
;   ai     aj     ak    funct   theta         cth
     1      2      3      1    1.1143e+02    5.0509e+02 ;     C1 - C2     - C3    
     1      2     10      1    1.0968e+02    3.6208e+02 ;     C1 - C2     - H4    
     1      2     11      1    1.0968e+02    3.6208e+02 ;     C1 - C2     - H5    
     2      1      7      1    1.0968e+02    3.6208e+02 ;     C2 - C1     - H1    
     2      1      8      1    1.0968e+02    3.6208e+02 ;     C2 - C1     - H2    
     2      1      9      1    1.0968e+02    3.6208e+02 ;     C2 - C1     - H3    
     2      3      4      1    1.2290e+02    6.3973e+02 ;     C2 - C3     - O1    
     2      3      5      1    1.1668e+02    4.9497e+02 ;     C2 - C3     - C4    
     3      2     10      1    1.0895e+02    3.6510e+02 ;     C3 - C2     - H4    
     3      2     11      1    1.0895e+02    3.6510e+02 ;     C3 - C2     - H5    
     3      5      6      1    1.1143e+02    5.0509e+02 ;     C3 - C4     - C5    
     3      5     12      1    1.0895e+02    3.6510e+02 ;     C3 - C4     - H6    
     3      5     13      1    1.0895e+02    3.6510e+02 ;     C3 - C4     - H7    
     4      3      5      1    1.2290e+02    6.3973e+02 ;     O1 - C3     - C4    
     5      6     14      1    1.0968e+02    3.6208e+02 ;     C4 - C5     - H8    
     5      6     15      1    1.0968e+02    3.6208e+02 ;     C4 - C5     - H9    
     5      6     16      1    1.0968e+02    3.6208e+02 ;     C4 - C5     - H10   
     6      5     12      1    1.0968e+02    3.6208e+02 ;     C5 - C4     - H6    
     6      5     13      1    1.0968e+02    3.6208e+02 ;     C5 - C4     - H7    
     7      1      8      1    1.0773e+02    2.9957e+02 ;     H1 - C1     - H2    
     7      1      9      1    1.0773e+02    2.9957e+02 ;     H1 - C1     - H3    
     8      1      9      1    1.0773e+02    2.9957e+02 ;     H2 - C1     - H3    
    10      2     11      1    1.0773e+02    2.9957e+02 ;     H4 - C2     - H5    
    12      5     13      1    1.0773e+02    2.9957e+02 ;     H6 - C4     - H7    
    14      6     15      1    1.0773e+02    2.9957e+02 ;     H8 - C5     - H9    
    14      6     16      1    1.0773e+02    2.9957e+02 ;     H8 - C5     - H10   
    15      6     16      1    1.0773e+02    2.9957e+02 ;     H9 - C5     - H10   

[ dihedrals ] ; propers
; for gromacs 4.5 or higher, using funct 9
;    i      j      k      l   func   phase     kd      pn
     1      2      3      4      9     0.00   2.84512   1 ;     C1-    C2-    C3-    O1
     1      2      3      4      9   180.00   0.83680   2 ;     C1-    C2-    C3-    O1
     1      2      3      4      9   180.00   1.84096   3 ;     C1-    C2-    C3-    O1
     1      2      3      5      9   180.00   1.09621   2 ;     C1-    C2-    C3-    C4
     2      3      5      6      9   180.00   1.09621   2 ;     C2-    C3-    C4-    C5
     2      3      5     12      9   180.00   0.00000   3 ;     C2-    C3-    C4-    H6
     2      3      5     13      9   180.00   0.00000   3 ;     C2-    C3-    C4-    H7
     3      5      6     14      9     0.00   0.65084   3 ;     C3-    C4-    C5-    H8
     3      5      6     15      9     0.00   0.65084   3 ;     C3-    C4-    C5-    H9
     3      5      6     16      9     0.00   0.65084   3 ;     C3-    C4-    C5-   H10
     4      3      2     10      9     0.00  16.86152   1 ;     O1-    C3-    C2-    H4
     4      3      2     10      9   180.00  15.31344   2 ;     O1-    C3-    C2-    H4
     4      3      2     11      9     0.00  16.86152   1 ;     O1-    C3-    C2-    H5
     4      3      2     11      9   180.00  15.31344   2 ;     O1-    C3-    C2-    H5
     4      3      5      6      9     0.00   2.84512   1 ;     O1-    C3-    C4-    C5
     4      3      5      6      9   180.00   0.83680   2 ;     O1-    C3-    C4-    C5
     4      3      5      6      9   180.00   1.84096   3 ;     O1-    C3-    C4-    C5
     4      3      5     12      9     0.00  16.86152   1 ;     O1-    C3-    C4-    H6
     4      3      5     12      9   180.00  15.31344   2 ;     O1-    C3-    C4-    H6
     4      3      5     13      9     0.00  16.86152   1 ;     O1-    C3-    C4-    H7
     4      3      5     13      9   180.00  15.31344   2 ;     O1-    C3-    C4-    H7
     5      3      2     10      9   180.00   0.00000   3 ;     C4-    C3-    C2-    H4
     5      3      2     11      9   180.00   0.00000   3 ;     C4-    C3-    C2-    H5
     7      1      2      3      9     0.00   0.65084   3 ;     H1-    C1-    C2-    C3
     7      1      2     10      9     0.00   0.50208   3 ;     H1-    C1-    C2-    H4
     7      1      2     11      9     0.00   0.50208   3 ;     H1-    C1-    C2-    H5
     8      1      2      3      9     0.00   0.65084   3 ;     H2-    C1-    C2-    C3
     8      1      2     10      9     0.00   0.50208   3 ;     H2-    C1-    C2-    H4
     8      1      2     11      9     0.00   0.50208   3 ;     H2-    C1-    C2-    H5
     9      1      2      3      9     0.00   0.65084   3 ;     H3-    C1-    C2-    C3
     9      1      2     10      9     0.00   0.50208   3 ;     H3-    C1-    C2-    H4
     9      1      2     11      9     0.00   0.50208   3 ;     H3-    C1-    C2-    H5
    12      5      6     14      9     0.00   0.50208   3 ;     H6-    C4-    C5-    H8
    12      5      6     15      9     0.00   0.50208   3 ;     H6-    C4-    C5-    H9
    12      5      6     16      9     0.00   0.50208   3 ;     H6-    C4-    C5-   H10
    13      5      6     14      9     0.00   0.50208   3 ;     H7-    C4-    C5-    H8
    13      5      6     15      9     0.00   0.50208   3 ;     H7-    C4-    C5-    H9
    13      5      6     16      9     0.00   0.50208   3 ;     H7-    C4-    C5-   H10

[ dihedrals ] ; impropers
; treated as propers in GROMACS to use correct AMBER analytical function
;    i      j      k      l   func   phase     kd      pn
     2      5      3      4      4   180.00   4.60240   2 ;     C2-    C4-    C3-    O1
