; mobley_5449201_GMX.itp created by acpype (v: 2023.10.27) on Thu May 21 00:05:58 2026

[ atomtypes ]
;name   bond_type     mass     charge   ptype   sigma         epsilon       Amb
 c3       c3          0.00000  0.00000   A     3.39771e-01   4.51035e-01 ; 1.91  0.1078
 hc       hc          0.00000  0.00000   A     2.60018e-01   8.70272e-02 ; 1.46  0.0208

[ moleculetype ]
;name            nrexcl
 mobley_5449201   3

[ atoms ]
;   nr  type  resi  res  atom  cgnr     charge      mass       ; qtot   bond_type
     1   c3     1   MOL    C1    1    -0.092101     12.01000 ; qtot -0.092
     2   c3     1   MOL    C2    2    -0.080400     12.01000 ; qtot -0.173
     3   c3     1   MOL    C3    3    -0.079400     12.01000 ; qtot -0.252
     4   c3     1   MOL    C4    4    -0.080400     12.01000 ; qtot -0.332
     5   c3     1   MOL    C5    5    -0.092101     12.01000 ; qtot -0.424
     6   hc     1   MOL    H1    6     0.032367      1.00800 ; qtot -0.392
     7   hc     1   MOL    H2    7     0.032367      1.00800 ; qtot -0.360
     8   hc     1   MOL    H3    8     0.032367      1.00800 ; qtot -0.327
     9   hc     1   MOL    H4    9     0.037700      1.00800 ; qtot -0.290
    10   hc     1   MOL    H5   10     0.037700      1.00800 ; qtot -0.252
    11   hc     1   MOL    H6   11     0.039700      1.00800 ; qtot -0.212
    12   hc     1   MOL    H7   12     0.039700      1.00800 ; qtot -0.173
    13   hc     1   MOL    H8   13     0.037700      1.00800 ; qtot -0.135
    14   hc     1   MOL    H9   14     0.037700      1.00800 ; qtot -0.097
    15   hc     1   MOL   H10   15     0.032367      1.00800 ; qtot -0.065
    16   hc     1   MOL   H11   16     0.032367      1.00800 ; qtot -0.032
    17   hc     1   MOL   H12   17     0.032367      1.00800 ; qtot 0.000

[ bonds ]
;   ai     aj funct   r             k
     1      2   1    1.5354e-01    1.9154e+05 ;     C1 - C2    
     1      6   1    1.0962e-01    2.8891e+05 ;     C1 - H1    
     1      7   1    1.0962e-01    2.8891e+05 ;     C1 - H2    
     1      8   1    1.0962e-01    2.8891e+05 ;     C1 - H3    
     2      3   1    1.5354e-01    1.9154e+05 ;     C2 - C3    
     2      9   1    1.0962e-01    2.8891e+05 ;     C2 - H4    
     2     10   1    1.0962e-01    2.8891e+05 ;     C2 - H5    
     3      4   1    1.5354e-01    1.9154e+05 ;     C3 - C4    
     3     11   1    1.0962e-01    2.8891e+05 ;     C3 - H6    
     3     12   1    1.0962e-01    2.8891e+05 ;     C3 - H7    
     4      5   1    1.5354e-01    1.9154e+05 ;     C4 - C5    
     4     13   1    1.0962e-01    2.8891e+05 ;     C4 - H8    
     4     14   1    1.0962e-01    2.8891e+05 ;     C4 - H9    
     5     15   1    1.0962e-01    2.8891e+05 ;     C5 - H10   
     5     16   1    1.0962e-01    2.8891e+05 ;     C5 - H11   
     5     17   1    1.0962e-01    2.8891e+05 ;     C5 - H12   

[ pairs ]
;   ai     aj    funct
     1      4      1 ;     C1 - C4    
     1     11      1 ;     C1 - H6    
     1     12      1 ;     C1 - H7    
     2      5      1 ;     C2 - C5    
     2     13      1 ;     C2 - H8    
     2     14      1 ;     C2 - H9    
     3     15      1 ;     C3 - H10   
     3     16      1 ;     C3 - H11   
     3     17      1 ;     C3 - H12   
     4      9      1 ;     C4 - H4    
     4     10      1 ;     C4 - H5    
     5     11      1 ;     C5 - H6    
     5     12      1 ;     C5 - H7    
     6      3      1 ;     H1 - C3    
     6      9      1 ;     H1 - H4    
     6     10      1 ;     H1 - H5    
     7      3      1 ;     H2 - C3    
     7      9      1 ;     H2 - H4    
     7     10      1 ;     H2 - H5    
     8      3      1 ;     H3 - C3    
     8      9      1 ;     H3 - H4    
     8     10      1 ;     H3 - H5    
     9     11      1 ;     H4 - H6    
     9     12      1 ;     H4 - H7    
    10     11      1 ;     H5 - H6    
    10     12      1 ;     H5 - H7    
    11     13      1 ;     H6 - H8    
    11     14      1 ;     H6 - H9    
    12     13      1 ;     H7 - H8    
    12     14      1 ;     H7 - H9    
    13     15      1 ;     H8 - H10   
    13     16      1 ;     H8 - H11   
    13     17      1 ;     H8 - H12   
    14     15      1 ;     H9 - H10   
    14     16      1 ;     H9 - H11   
    14     17      1 ;     H9 - H12   

[ angles ]
;   ai     aj     ak    funct   theta         cth
     1      2      3      1    1.1263e+02    5.0099e+02 ;     C1 - C2     - C3    
     1      2      9      1    1.0968e+02    3.6208e+02 ;     C1 - C2     - H4    
     1      2     10      1    1.0968e+02    3.6208e+02 ;     C1 - C2     - H5    
     2      1      6      1    1.0968e+02    3.6208e+02 ;     C2 - C1     - H1    
     2      1      7      1    1.0968e+02    3.6208e+02 ;     C2 - C1     - H2    
     2      1      8      1    1.0968e+02    3.6208e+02 ;     C2 - C1     - H3    
     2      3      4      1    1.1263e+02    5.0099e+02 ;     C2 - C3     - C4    
     2      3     11      1    1.0968e+02    3.6208e+02 ;     C2 - C3     - H6    
     2      3     12      1    1.0968e+02    3.6208e+02 ;     C2 - C3     - H7    
     3      2      9      1    1.0968e+02    3.6208e+02 ;     C3 - C2     - H4    
     3      2     10      1    1.0968e+02    3.6208e+02 ;     C3 - C2     - H5    
     3      4      5      1    1.1263e+02    5.0099e+02 ;     C3 - C4     - C5    
     3      4     13      1    1.0968e+02    3.6208e+02 ;     C3 - C4     - H8    
     3      4     14      1    1.0968e+02    3.6208e+02 ;     C3 - C4     - H9    
     4      3     11      1    1.0968e+02    3.6208e+02 ;     C4 - C3     - H6    
     4      3     12      1    1.0968e+02    3.6208e+02 ;     C4 - C3     - H7    
     4      5     15      1    1.0968e+02    3.6208e+02 ;     C4 - C5     - H10   
     4      5     16      1    1.0968e+02    3.6208e+02 ;     C4 - C5     - H11   
     4      5     17      1    1.0968e+02    3.6208e+02 ;     C4 - C5     - H12   
     5      4     13      1    1.0968e+02    3.6208e+02 ;     C5 - C4     - H8    
     5      4     14      1    1.0968e+02    3.6208e+02 ;     C5 - C4     - H9    
     6      1      7      1    1.0773e+02    2.9957e+02 ;     H1 - C1     - H2    
     6      1      8      1    1.0773e+02    2.9957e+02 ;     H1 - C1     - H3    
     7      1      8      1    1.0773e+02    2.9957e+02 ;     H2 - C1     - H3    
     9      2     10      1    1.0773e+02    2.9957e+02 ;     H4 - C2     - H5    
    11      3     12      1    1.0773e+02    2.9957e+02 ;     H6 - C3     - H7    
    13      4     14      1    1.0773e+02    2.9957e+02 ;     H8 - C4     - H9    
    15      5     16      1    1.0773e+02    2.9957e+02 ;    H10 - C5     - H11   
    15      5     17      1    1.0773e+02    2.9957e+02 ;    H10 - C5     - H12   
    16      5     17      1    1.0773e+02    2.9957e+02 ;    H11 - C5     - H12   

[ dihedrals ] ; propers
; for gromacs 4.5 or higher, using funct 9
;    i      j      k      l   func   phase     kd      pn
     1      2      3      4      9     0.00   2.17568   3 ;     C1-    C2-    C3-    C4
     1      2      3     11      9     0.00   0.54392   3 ;     C1-    C2-    C3-    H6
     1      2      3     12      9     0.00   0.54392   3 ;     C1-    C2-    C3-    H7
     2      3      4      5      9     0.00   2.17568   3 ;     C2-    C3-    C4-    C5
     2      3      4     13      9     0.00   0.54392   3 ;     C2-    C3-    C4-    H8
     2      3      4     14      9     0.00   0.54392   3 ;     C2-    C3-    C4-    H9
     3      4      5     15      9     0.00   0.54392   3 ;     C3-    C4-    C5-   H10
     3      4      5     16      9     0.00   0.54392   3 ;     C3-    C4-    C5-   H11
     3      4      5     17      9     0.00   0.54392   3 ;     C3-    C4-    C5-   H12
     4      3      2      9      9     0.00   0.54392   3 ;     C4-    C3-    C2-    H4
     4      3      2     10      9     0.00   0.54392   3 ;     C4-    C3-    C2-    H5
     5      4      3     11      9     0.00   0.54392   3 ;     C5-    C4-    C3-    H6
     5      4      3     12      9     0.00   0.54392   3 ;     C5-    C4-    C3-    H7
     6      1      2      3      9     0.00   0.54392   3 ;     H1-    C1-    C2-    C3
     6      1      2      9      9     0.00   0.50208   3 ;     H1-    C1-    C2-    H4
     6      1      2     10      9     0.00   0.50208   3 ;     H1-    C1-    C2-    H5
     7      1      2      3      9     0.00   0.54392   3 ;     H2-    C1-    C2-    C3
     7      1      2      9      9     0.00   0.50208   3 ;     H2-    C1-    C2-    H4
     7      1      2     10      9     0.00   0.50208   3 ;     H2-    C1-    C2-    H5
     8      1      2      3      9     0.00   0.54392   3 ;     H3-    C1-    C2-    C3
     8      1      2      9      9     0.00   0.50208   3 ;     H3-    C1-    C2-    H4
     8      1      2     10      9     0.00   0.50208   3 ;     H3-    C1-    C2-    H5
     9      2      3     11      9     0.00   0.50208   3 ;     H4-    C2-    C3-    H6
     9      2      3     12      9     0.00   0.50208   3 ;     H4-    C2-    C3-    H7
    10      2      3     11      9     0.00   0.50208   3 ;     H5-    C2-    C3-    H6
    10      2      3     12      9     0.00   0.50208   3 ;     H5-    C2-    C3-    H7
    11      3      4     13      9     0.00   0.50208   3 ;     H6-    C3-    C4-    H8
    11      3      4     14      9     0.00   0.50208   3 ;     H6-    C3-    C4-    H9
    12      3      4     13      9     0.00   0.50208   3 ;     H7-    C3-    C4-    H8
    12      3      4     14      9     0.00   0.50208   3 ;     H7-    C3-    C4-    H9
    13      4      5     15      9     0.00   0.50208   3 ;     H8-    C4-    C5-   H10
    13      4      5     16      9     0.00   0.50208   3 ;     H8-    C4-    C5-   H11
    13      4      5     17      9     0.00   0.50208   3 ;     H8-    C4-    C5-   H12
    14      4      5     15      9     0.00   0.50208   3 ;     H9-    C4-    C5-   H10
    14      4      5     16      9     0.00   0.50208   3 ;     H9-    C4-    C5-   H11
    14      4      5     17      9     0.00   0.50208   3 ;     H9-    C4-    C5-   H12
