; mobley_6232400_GMX.itp created by acpype (v: 2023.10.27) on Thu May 21 00:08:19 2026

[ atomtypes ]
;name   bond_type     mass     charge   ptype   sigma         epsilon       Amb
 ca       ca          0.00000  0.00000   A     3.31521e-01   4.13379e-01 ; 1.86  0.0988
 c        c           0.00000  0.00000   A     3.31521e-01   4.13379e-01 ; 1.86  0.0988
 nb       nb          0.00000  0.00000   A     3.38417e-01   3.93714e-01 ; 1.90  0.0941
 o        o           0.00000  0.00000   A     3.04812e-01   6.12119e-01 ; 1.71  0.1463
 ha       ha          0.00000  0.00000   A     2.62548e-01   6.73624e-02 ; 1.47  0.0161
 h4       h4          0.00000  0.00000   A     2.53639e-01   6.73624e-02 ; 1.42  0.0161

[ moleculetype ]
;name            nrexcl
 mobley_6232400   3

[ atoms ]
;   nr  type  resi  res  atom  cgnr     charge      mass       ; qtot   bond_type
     1   ca     1   MOL    C1    1    -0.261300     12.01000 ; qtot -0.261
     2   ca     1   MOL    C2    2    -0.051000     12.01000 ; qtot -0.312
     3   ca     1   MOL    C3    3     0.424200     12.01000 ; qtot 0.112
     4   ca     1   MOL    C4    4     0.454200     12.01000 ; qtot 0.566
     5   ca     1   MOL    C5    5    -0.315900     12.01000 ; qtot 0.250
     6    c     1   MOL    C6    6     0.580500     12.01000 ; qtot 0.831
     7   nb     1   MOL    N1    7    -0.671000     14.01000 ; qtot 0.160
     8    o     1   MOL    O1    8    -0.522100     16.00000 ; qtot -0.362
     9   ha     1   MOL    H1    9     0.149000      1.00800 ; qtot -0.213
    10   ha     1   MOL    H2   10     0.141000      1.00800 ; qtot -0.072
    11   h4     1   MOL    H3   11     0.027100      1.00800 ; qtot -0.045
    12   h4     1   MOL    H4   12     0.045100      1.00800 ; qtot -0.000
    13   h4     1   MOL    H5   13     0.000200      1.00800 ; qtot -0.000

[ bonds ]
;   ai     aj funct   r             k
     1      2   1    1.3986e-01    2.9644e+05 ;     C1 - C2    
     1      3   1    1.3986e-01    2.9644e+05 ;     C1 - C3    
     1      9   1    1.0860e-01    3.0183e+05 ;     C1 - H1    
     2      5   1    1.3986e-01    2.9644e+05 ;     C2 - C5    
     2     10   1    1.0860e-01    3.0183e+05 ;     C2 - H2    
     3      7   1    1.3392e-01    3.2341e+05 ;     C3 - N1    
     3     11   1    1.0885e-01    2.9859e+05 ;     C3 - H3    
     4      5   1    1.3986e-01    2.9644e+05 ;     C4 - C5    
     4      7   1    1.3392e-01    3.2341e+05 ;     C4 - N1    
     4     12   1    1.0885e-01    2.9859e+05 ;     C4 - H4    
     5      6   1    1.4907e-01    2.1994e+05 ;     C5 - C6    
     6      8   1    1.2190e-01    4.9421e+05 ;     C6 - O1    
     6     13   1    1.1123e-01    2.6984e+05 ;     C6 - H5    

[ pairs ]
;   ai     aj    funct
     1      4      1 ;     C1 - C4    
     1      6      1 ;     C1 - C6    
     2      7      1 ;     C2 - N1    
     2      8      1 ;     C2 - O1    
     2     11      1 ;     C2 - H3    
     2     12      1 ;     C2 - H4    
     2     13      1 ;     C2 - H5    
     3      5      1 ;     C3 - C5    
     3     10      1 ;     C3 - H2    
     3     12      1 ;     C3 - H4    
     4      8      1 ;     C4 - O1    
     4     10      1 ;     C4 - H2    
     4     11      1 ;     C4 - H3    
     4     13      1 ;     C4 - H5    
     6      7      1 ;     C6 - N1    
     6     10      1 ;     C6 - H2    
     6     12      1 ;     C6 - H4    
     9      5      1 ;     H1 - C5    
     9      7      1 ;     H1 - N1    
     9     10      1 ;     H1 - H2    
     9     11      1 ;     H1 - H3    

[ angles ]
;   ai     aj     ak    funct   theta         cth
     1      2      5      1    1.2002e+02    5.3279e+02 ;     C1 - C2     - C5    
     1      2     10      1    1.1988e+02    3.7572e+02 ;     C1 - C2     - H2    
     1      3      7      1    1.2294e+02    5.7045e+02 ;     C1 - C3     - N1    
     1      3     11      1    1.2032e+02    3.7489e+02 ;     C1 - C3     - H3    
     2      1      3      1    1.2002e+02    5.3279e+02 ;     C2 - C1     - C3    
     2      1      9      1    1.1988e+02    3.7572e+02 ;     C2 - C1     - H1    
     2      5      4      1    1.2002e+02    5.3279e+02 ;     C2 - C5     - C4    
     2      5      6      1    1.2033e+02    5.1413e+02 ;     C2 - C5     - C6    
     3      1      9      1    1.1988e+02    3.7572e+02 ;     C3 - C1     - H1    
     3      7      4      1    1.1724e+02    6.9580e+02 ;     C3 - N1     - C4    
     4      5      6      1    1.2033e+02    5.1413e+02 ;     C4 - C5     - C6    
     5      2     10      1    1.1988e+02    3.7572e+02 ;     C5 - C2     - H2    
     5      4      7      1    1.2294e+02    5.7045e+02 ;     C5 - C4     - N1    
     5      4     12      1    1.2032e+02    3.7489e+02 ;     C5 - C4     - H4    
     5      6      8      1    1.2260e+02    6.5237e+02 ;     C5 - C6     - O1    
     5      6     13      1    1.1514e+02    3.6208e+02 ;     C5 - C6     - H5    
     7      3     11      1    1.1602e+02    4.1924e+02 ;     N1 - C3     - H3    
     7      4     12      1    1.1602e+02    4.1924e+02 ;     N1 - C4     - H4    
     8      6     13      1    1.2062e+02    5.0191e+02 ;     O1 - C6     - H5    

[ dihedrals ] ; propers
; for gromacs 4.5 or higher, using funct 9
;    i      j      k      l   func   phase     kd      pn
     1      2      5      4      9   180.00  15.16700   2 ;     C1-    C2-    C5-    C4
     1      2      5      6      9   180.00  15.16700   2 ;     C1-    C2-    C5-    C6
     1      3      7      4      9   180.00  20.08320   2 ;     C1-    C3-    N1-    C4
     2      1      3      7      9   180.00  15.16700   2 ;     C2-    C1-    C3-    N1
     2      1      3     11      9   180.00  15.16700   2 ;     C2-    C1-    C3-    H3
     2      5      4      7      9   180.00  15.16700   2 ;     C2-    C5-    C4-    N1
     2      5      4     12      9   180.00  15.16700   2 ;     C2-    C5-    C4-    H4
     2      5      6      8      9   180.00   2.42672   2 ;     C2-    C5-    C6-    O1
     2      5      6     13      9   180.00   4.18400   2 ;     C2-    C5-    C6-    H5
     3      1      2      5      9   180.00  15.16700   2 ;     C3-    C1-    C2-    C5
     3      1      2     10      9   180.00  15.16700   2 ;     C3-    C1-    C2-    H2
     3      7      4      5      9   180.00  20.08320   2 ;     C3-    N1-    C4-    C5
     3      7      4     12      9   180.00  20.08320   2 ;     C3-    N1-    C4-    H4
     4      5      2     10      9   180.00  15.16700   2 ;     C4-    C5-    C2-    H2
     4      5      6      8      9   180.00   2.42672   2 ;     C4-    C5-    C6-    O1
     4      5      6     13      9   180.00   4.18400   2 ;     C4-    C5-    C6-    H5
     4      7      3     11      9   180.00  20.08320   2 ;     C4-    N1-    C3-    H3
     6      5      2     10      9   180.00  15.16700   2 ;     C6-    C5-    C2-    H2
     6      5      4      7      9   180.00  15.16700   2 ;     C6-    C5-    C4-    N1
     6      5      4     12      9   180.00  15.16700   2 ;     C6-    C5-    C4-    H4
     9      1      2      5      9   180.00  15.16700   2 ;     H1-    C1-    C2-    C5
     9      1      2     10      9   180.00  15.16700   2 ;     H1-    C1-    C2-    H2
     9      1      3      7      9   180.00  15.16700   2 ;     H1-    C1-    C3-    N1
     9      1      3     11      9   180.00  15.16700   2 ;     H1-    C1-    C3-    H3

[ dihedrals ] ; impropers
; treated as propers in GROMACS to use correct AMBER analytical function
;    i      j      k      l   func   phase     kd      pn
     1      5      2     10      4   180.00   4.60240   2 ;     C1-    C5-    C2-    H2
     1     11      3      7      4   180.00   4.60240   2 ;     C1-    H3-    C3-    N1
     5     12      4      7      4   180.00   4.60240   2 ;     C5-    H4-    C4-    N1
     5     13      6      8      4   180.00  43.93200   2 ;     C5-    H5-    C6-    O1
     6      2      5      4      4   180.00   4.60240   2 ;     C6-    C2-    C5-    C4
     9      1      3      2      4   180.00   4.60240   2 ;     H1-    C1-    C3-    C2
