; mobley_3269565_GMX.itp created by acpype (v: 2023.10.27) on Thu May 21 00:24:12 2026

[ atomtypes ]
;name   bond_type     mass     charge   ptype   sigma         epsilon       Amb
 c3       c3          0.00000  0.00000   A     3.39771e-01   4.51035e-01 ; 1.91  0.1078
 os       os          0.00000  0.00000   A     3.15610e-01   3.03758e-01 ; 1.77  0.0726
 hc       hc          0.00000  0.00000   A     2.60018e-01   8.70272e-02 ; 1.46  0.0208
 h1       h1          0.00000  0.00000   A     2.42200e-01   8.70272e-02 ; 1.36  0.0208

[ moleculetype ]
;name            nrexcl
 mobley_3269565   3

[ atoms ]
;   nr  type  resi  res  atom  cgnr     charge      mass       ; qtot   bond_type
     1   c3     1   MOL    C1    1    -0.108100     12.01000 ; qtot -0.108
     2   c3     1   MOL    C2    2    -0.108100     12.01000 ; qtot -0.216
     3   c3     1   MOL    C3    3     0.117700     12.01000 ; qtot -0.098
     4   c3     1   MOL    C4    4     0.137100     12.01000 ; qtot 0.039
     5   os     1   MOL    O1    5    -0.420603     16.00000 ; qtot -0.382
     6   hc     1   MOL    H1    6     0.042867      1.00800 ; qtot -0.339
     7   hc     1   MOL    H2    7     0.042867      1.00800 ; qtot -0.296
     8   hc     1   MOL    H3    8     0.042867      1.00800 ; qtot -0.253
     9   hc     1   MOL    H4    9     0.042867      1.00800 ; qtot -0.211
    10   hc     1   MOL    H5   10     0.042867      1.00800 ; qtot -0.168
    11   hc     1   MOL    H6   11     0.042867      1.00800 ; qtot -0.125
    12   h1     1   MOL    H7   12     0.030367      1.00800 ; qtot -0.094
    13   h1     1   MOL    H8   13     0.030367      1.00800 ; qtot -0.064
    14   h1     1   MOL    H9   14     0.030367      1.00800 ; qtot -0.034
    15   h1     1   MOL   H10   15     0.033700      1.00800 ; qtot -0.000

[ bonds ]
;   ai     aj funct   r             k
     1      4   1    1.5354e-01    1.9154e+05 ;     C1 - C4    
     1      6   1    1.0962e-01    2.8891e+05 ;     C1 - H1    
     1      7   1    1.0962e-01    2.8891e+05 ;     C1 - H2    
     1      8   1    1.0962e-01    2.8891e+05 ;     C1 - H3    
     2      4   1    1.5354e-01    1.9154e+05 ;     C2 - C4    
     2      9   1    1.0962e-01    2.8891e+05 ;     C2 - H4    
     2     10   1    1.0962e-01    2.8891e+05 ;     C2 - H5    
     2     11   1    1.0962e-01    2.8891e+05 ;     C2 - H6    
     3      5   1    1.4273e-01    2.3620e+05 ;     C3 - O1    
     3     12   1    1.0969e-01    2.8804e+05 ;     C3 - H7    
     3     13   1    1.0969e-01    2.8804e+05 ;     C3 - H8    
     3     14   1    1.0969e-01    2.8804e+05 ;     C3 - H9    
     4      5   1    1.4273e-01    2.3620e+05 ;     C4 - O1    
     4     15   1    1.0969e-01    2.8804e+05 ;     C4 - H10   

[ pairs ]
;   ai     aj    funct
     1      3      1 ;     C1 - C3    
     1      9      1 ;     C1 - H4    
     1     10      1 ;     C1 - H5    
     1     11      1 ;     C1 - H6    
     2      3      1 ;     C2 - C3    
     3     15      1 ;     C3 - H10   
     4     12      1 ;     C4 - H7    
     4     13      1 ;     C4 - H8    
     4     14      1 ;     C4 - H9    
     5      9      1 ;     O1 - H4    
     5     10      1 ;     O1 - H5    
     5     11      1 ;     O1 - H6    
     6      2      1 ;     H1 - C2    
     6      5      1 ;     H1 - O1    
     6     15      1 ;     H1 - H10   
     7      2      1 ;     H2 - C2    
     7      5      1 ;     H2 - O1    
     7     15      1 ;     H2 - H10   
     8      2      1 ;     H3 - C2    
     8      5      1 ;     H3 - O1    
     8     15      1 ;     H3 - H10   
     9     15      1 ;     H4 - H10   
    10     15      1 ;     H5 - H10   
    11     15      1 ;     H6 - H10   

[ angles ]
;   ai     aj     ak    funct   theta         cth
     1      4      2      1    1.1263e+02    5.0099e+02 ;     C1 - C4     - C2    
     1      4      5      1    1.0762e+02    6.4802e+02 ;     C1 - C4     - O1    
     1      4     15      1    1.0959e+02    3.6217e+02 ;     C1 - C4     - H10   
     2      4      5      1    1.0762e+02    6.4802e+02 ;     C2 - C4     - O1    
     2      4     15      1    1.0959e+02    3.6217e+02 ;     C2 - C4     - H10   
     3      5      4      1    1.1360e+02    7.3915e+02 ;     C3 - O1     - C4    
     4      1      6      1    1.0968e+02    3.6208e+02 ;     C4 - C1     - H1    
     4      1      7      1    1.0968e+02    3.6208e+02 ;     C4 - C1     - H2    
     4      1      8      1    1.0968e+02    3.6208e+02 ;     C4 - C1     - H3    
     4      2      9      1    1.0968e+02    3.6208e+02 ;     C4 - C2     - H4    
     4      2     10      1    1.0968e+02    3.6208e+02 ;     C4 - C2     - H5    
     4      2     11      1    1.0968e+02    3.6208e+02 ;     C4 - C2     - H6    
     5      3     12      1    1.1034e+02    4.7028e+02 ;     O1 - C3     - H7    
     5      3     13      1    1.1034e+02    4.7028e+02 ;     O1 - C3     - H8    
     5      3     14      1    1.1034e+02    4.7028e+02 ;     O1 - C3     - H9    
     5      4     15      1    1.1034e+02    4.7028e+02 ;     O1 - C4     - H10   
     6      1      7      1    1.0773e+02    2.9957e+02 ;     H1 - C1     - H2    
     6      1      8      1    1.0773e+02    2.9957e+02 ;     H1 - C1     - H3    
     7      1      8      1    1.0773e+02    2.9957e+02 ;     H2 - C1     - H3    
     9      2     10      1    1.0773e+02    2.9957e+02 ;     H4 - C2     - H5    
     9      2     11      1    1.0773e+02    2.9957e+02 ;     H4 - C2     - H6    
    10      2     11      1    1.0773e+02    2.9957e+02 ;     H5 - C2     - H6    
    12      3     13      1    1.0855e+02    2.9824e+02 ;     H7 - C3     - H8    
    12      3     14      1    1.0855e+02    2.9824e+02 ;     H7 - C3     - H9    
    13      3     14      1    1.0855e+02    2.9824e+02 ;     H8 - C3     - H9    

[ dihedrals ] ; propers
; for gromacs 4.5 or higher, using funct 9
;    i      j      k      l   func   phase     kd      pn
     1      4      2      9      9     0.00   0.54392   3 ;     C1-    C4-    C2-    H4
     1      4      2     10      9     0.00   0.54392   3 ;     C1-    C4-    C2-    H5
     1      4      2     11      9     0.00   0.54392   3 ;     C1-    C4-    C2-    H6
     1      4      5      3      9     0.00   0.33472   2 ;     C1-    C4-    O1-    C3
     1      4      5      3      9     0.00   3.13800   3 ;     C1-    C4-    O1-    C3
     1      4      5      3      9   180.00   3.68192   1 ;     C1-    C4-    O1-    C3
     2      4      5      3      9     0.00   0.33472   2 ;     C2-    C4-    O1-    C3
     2      4      5      3      9     0.00   3.13800   3 ;     C2-    C4-    O1-    C3
     2      4      5      3      9   180.00   3.68192   1 ;     C2-    C4-    O1-    C3
     3      5      4     15      9     0.00   1.41001   3 ;     C3-    O1-    C4-   H10
     4      5      3     12      9     0.00   1.41001   3 ;     C4-    O1-    C3-    H7
     4      5      3     13      9     0.00   1.41001   3 ;     C4-    O1-    C3-    H8
     4      5      3     14      9     0.00   1.41001   3 ;     C4-    O1-    C3-    H9
     5      4      2      9      9     0.00   0.00000   0 ;     O1-    C4-    C2-    H4
     5      4      2      9      9     0.00   1.04600   1 ;     O1-    C4-    C2-    H4
     5      4      2     10      9     0.00   0.00000   0 ;     O1-    C4-    C2-    H5
     5      4      2     10      9     0.00   1.04600   1 ;     O1-    C4-    C2-    H5
     5      4      2     11      9     0.00   0.00000   0 ;     O1-    C4-    C2-    H6
     5      4      2     11      9     0.00   1.04600   1 ;     O1-    C4-    C2-    H6
     6      1      4      2      9     0.00   0.54392   3 ;     H1-    C1-    C4-    C2
     6      1      4      5      9     0.00   0.00000   0 ;     H1-    C1-    C4-    O1
     6      1      4      5      9     0.00   1.04600   1 ;     H1-    C1-    C4-    O1
     6      1      4     15      9     0.00   0.65084   3 ;     H1-    C1-    C4-   H10
     7      1      4      2      9     0.00   0.54392   3 ;     H2-    C1-    C4-    C2
     7      1      4      5      9     0.00   0.00000   0 ;     H2-    C1-    C4-    O1
     7      1      4      5      9     0.00   1.04600   1 ;     H2-    C1-    C4-    O1
     7      1      4     15      9     0.00   0.65084   3 ;     H2-    C1-    C4-   H10
     8      1      4      2      9     0.00   0.54392   3 ;     H3-    C1-    C4-    C2
     8      1      4      5      9     0.00   0.00000   0 ;     H3-    C1-    C4-    O1
     8      1      4      5      9     0.00   1.04600   1 ;     H3-    C1-    C4-    O1
     8      1      4     15      9     0.00   0.65084   3 ;     H3-    C1-    C4-   H10
     9      2      4     15      9     0.00   0.65084   3 ;     H4-    C2-    C4-   H10
    10      2      4     15      9     0.00   0.65084   3 ;     H5-    C2-    C4-   H10
    11      2      4     15      9     0.00   0.65084   3 ;     H6-    C2-    C4-   H10
