; mobley_2402487_GMX.itp created by acpype (v: 2023.10.27) on Thu May 21 00:22:14 2026

[ atomtypes ]
;name   bond_type     mass     charge   ptype   sigma         epsilon       Amb
 c        c           0.00000  0.00000   A     3.31521e-01   4.13379e-01 ; 1.86  0.0988
 c3       c3          0.00000  0.00000   A     3.39771e-01   4.51035e-01 ; 1.91  0.1078
 o        o           0.00000  0.00000   A     3.04812e-01   6.12119e-01 ; 1.71  0.1463
 os       os          0.00000  0.00000   A     3.15610e-01   3.03758e-01 ; 1.77  0.0726
 hc       hc          0.00000  0.00000   A     2.60018e-01   8.70272e-02 ; 1.46  0.0208
 h1       h1          0.00000  0.00000   A     2.42200e-01   8.70272e-02 ; 1.36  0.0208

[ moleculetype ]
;name            nrexcl
 mobley_2402487   3

[ atoms ]
;   nr  type  resi  res  atom  cgnr     charge      mass       ; qtot   bond_type
     1    c     1   MOL    C1    1     0.642600     12.01000 ; qtot 0.643
     2    c     1   MOL    C2    2     0.642600     12.01000 ; qtot 1.285
     3   c3     1   MOL    C3    3    -0.101100     12.01000 ; qtot 1.184
     4   c3     1   MOL    C4    4    -0.101100     12.01000 ; qtot 1.083
     5   c3     1   MOL    C5    5    -0.184400     12.01000 ; qtot 0.899
     6   c3     1   MOL    C6    6     0.139400     12.01000 ; qtot 1.038
     7   c3     1   MOL    C7    7     0.139400     12.01000 ; qtot 1.177
     8    o     1   MOL    O1    8    -0.523000     16.00000 ; qtot 0.654
     9    o     1   MOL    O2    9    -0.523000     16.00000 ; qtot 0.131
    10   os     1   MOL    O3   10    -0.437900     16.00000 ; qtot -0.306
    11   os     1   MOL    O4   11    -0.437900     16.00000 ; qtot -0.744
    12   hc     1   MOL    H1   12     0.049700      1.00800 ; qtot -0.695
    13   hc     1   MOL    H2   13     0.049700      1.00800 ; qtot -0.645
    14   hc     1   MOL    H3   14     0.049700      1.00800 ; qtot -0.595
    15   hc     1   MOL    H4   15     0.049700      1.00800 ; qtot -0.546
    16   hc     1   MOL    H5   16     0.049700      1.00800 ; qtot -0.496
    17   hc     1   MOL    H6   17     0.049700      1.00800 ; qtot -0.446
    18   hc     1   MOL    H7   18     0.113700      1.00800 ; qtot -0.332
    19   hc     1   MOL    H8   19     0.113700      1.00800 ; qtot -0.219
    20   h1     1   MOL    H9   20     0.054700      1.00800 ; qtot -0.164
    21   h1     1   MOL   H10   21     0.054700      1.00800 ; qtot -0.109
    22   h1     1   MOL   H11   22     0.054700      1.00800 ; qtot -0.055
    23   h1     1   MOL   H12   23     0.054700      1.00800 ; qtot 0.000

[ bonds ]
;   ai     aj funct   r             k
     1      5   1    1.5270e-01    1.9652e+05 ;     C1 - C5    
     1      8   1    1.2190e-01    4.9421e+05 ;     C1 - O1    
     1     10   1    1.3621e-01    2.9398e+05 ;     C1 - O3    
     2      5   1    1.5270e-01    1.9652e+05 ;     C2 - C5    
     2      9   1    1.2190e-01    4.9421e+05 ;     C2 - O2    
     2     11   1    1.3621e-01    2.9398e+05 ;     C2 - O4    
     3      6   1    1.5354e-01    1.9154e+05 ;     C3 - C6    
     3     12   1    1.0962e-01    2.8891e+05 ;     C3 - H1    
     3     13   1    1.0962e-01    2.8891e+05 ;     C3 - H2    
     3     14   1    1.0962e-01    2.8891e+05 ;     C3 - H3    
     4      7   1    1.5354e-01    1.9154e+05 ;     C4 - C7    
     4     15   1    1.0962e-01    2.8891e+05 ;     C4 - H4    
     4     16   1    1.0962e-01    2.8891e+05 ;     C4 - H5    
     4     17   1    1.0962e-01    2.8891e+05 ;     C4 - H6    
     5     18   1    1.0962e-01    2.8891e+05 ;     C5 - H7    
     5     19   1    1.0962e-01    2.8891e+05 ;     C5 - H8    
     6     10   1    1.4273e-01    2.3620e+05 ;     C6 - O3    
     6     20   1    1.0969e-01    2.8804e+05 ;     C6 - H9    
     6     21   1    1.0969e-01    2.8804e+05 ;     C6 - H10   
     7     11   1    1.4273e-01    2.3620e+05 ;     C7 - O4    
     7     22   1    1.0969e-01    2.8804e+05 ;     C7 - H11   
     7     23   1    1.0969e-01    2.8804e+05 ;     C7 - H12   

[ pairs ]
;   ai     aj    funct
     1      3      1 ;     C1 - C3    
     1      9      1 ;     C1 - O2    
     1     11      1 ;     C1 - O4    
     1     20      1 ;     C1 - H9    
     1     21      1 ;     C1 - H10   
     2      4      1 ;     C2 - C4    
     2     22      1 ;     C2 - H11   
     2     23      1 ;     C2 - H12   
     5      6      1 ;     C5 - C6    
     5      7      1 ;     C5 - C7    
     7      9      1 ;     C7 - O2    
     8      2      1 ;     O1 - C2    
     8      6      1 ;     O1 - C6    
     8     18      1 ;     O1 - H7    
     8     19      1 ;     O1 - H8    
     9     18      1 ;     O2 - H7    
     9     19      1 ;     O2 - H8    
    10      2      1 ;     O3 - C2    
    10     12      1 ;     O3 - H1    
    10     13      1 ;     O3 - H2    
    10     14      1 ;     O3 - H3    
    10     18      1 ;     O3 - H7    
    10     19      1 ;     O3 - H8    
    11     15      1 ;     O4 - H4    
    11     16      1 ;     O4 - H5    
    11     17      1 ;     O4 - H6    
    11     18      1 ;     O4 - H7    
    11     19      1 ;     O4 - H8    
    12     20      1 ;     H1 - H9    
    12     21      1 ;     H1 - H10   
    13     20      1 ;     H2 - H9    
    13     21      1 ;     H2 - H10   
    14     20      1 ;     H3 - H9    
    14     21      1 ;     H3 - H10   
    15     22      1 ;     H4 - H11   
    15     23      1 ;     H4 - H12   
    16     22      1 ;     H5 - H11   
    16     23      1 ;     H5 - H12   
    17     22      1 ;     H6 - H11   
    17     23      1 ;     H6 - H12   

[ angles ]
;   ai     aj     ak    funct   theta         cth
     1      5      2      1    1.1130e+02    5.0677e+02 ;     C1 - C5     - C2    
     1      5     18      1    1.0895e+02    3.6510e+02 ;     C1 - C5     - H7    
     1      5     19      1    1.0895e+02    3.6510e+02 ;     C1 - C5     - H8    
     1     10      6      1    1.1582e+02    7.4835e+02 ;     C1 - O3     - C6    
     2      5     18      1    1.0895e+02    3.6510e+02 ;     C2 - C5     - H7    
     2      5     19      1    1.0895e+02    3.6510e+02 ;     C2 - C5     - H8    
     2     11      7      1    1.1582e+02    7.4835e+02 ;     C2 - O4     - C7    
     3      6     10      1    1.0762e+02    6.4802e+02 ;     C3 - C6     - O3    
     3      6     20      1    1.0959e+02    3.6217e+02 ;     C3 - C6     - H9    
     3      6     21      1    1.0959e+02    3.6217e+02 ;     C3 - C6     - H10   
     4      7     11      1    1.0762e+02    6.4802e+02 ;     C4 - C7     - O4    
     4      7     22      1    1.0959e+02    3.6217e+02 ;     C4 - C7     - H11   
     4      7     23      1    1.0959e+02    3.6217e+02 ;     C4 - C7     - H12   
     5      1      8      1    1.2290e+02    6.3973e+02 ;     C5 - C1     - O1    
     5      1     10      1    1.1080e+02    6.5245e+02 ;     C5 - C1     - O3    
     5      2      9      1    1.2290e+02    6.3973e+02 ;     C5 - C2     - O2    
     5      2     11      1    1.1080e+02    6.5245e+02 ;     C5 - C2     - O4    
     6      3     12      1    1.0968e+02    3.6208e+02 ;     C6 - C3     - H1    
     6      3     13      1    1.0968e+02    3.6208e+02 ;     C6 - C3     - H2    
     6      3     14      1    1.0968e+02    3.6208e+02 ;     C6 - C3     - H3    
     7      4     15      1    1.0968e+02    3.6208e+02 ;     C7 - C4     - H4    
     7      4     16      1    1.0968e+02    3.6208e+02 ;     C7 - C4     - H5    
     7      4     17      1    1.0968e+02    3.6208e+02 ;     C7 - C4     - H6    
     8      1     10      1    1.2320e+02    8.4734e+02 ;     O1 - C1     - O3    
     9      2     11      1    1.2320e+02    8.4734e+02 ;     O2 - C2     - O4    
    10      6     20      1    1.1034e+02    4.7028e+02 ;     O3 - C6     - H9    
    10      6     21      1    1.1034e+02    4.7028e+02 ;     O3 - C6     - H10   
    11      7     22      1    1.1034e+02    4.7028e+02 ;     O4 - C7     - H11   
    11      7     23      1    1.1034e+02    4.7028e+02 ;     O4 - C7     - H12   
    12      3     13      1    1.0773e+02    2.9957e+02 ;     H1 - C3     - H2    
    12      3     14      1    1.0773e+02    2.9957e+02 ;     H1 - C3     - H3    
    13      3     14      1    1.0773e+02    2.9957e+02 ;     H2 - C3     - H3    
    15      4     16      1    1.0773e+02    2.9957e+02 ;     H4 - C4     - H5    
    15      4     17      1    1.0773e+02    2.9957e+02 ;     H4 - C4     - H6    
    16      4     17      1    1.0773e+02    2.9957e+02 ;     H5 - C4     - H6    
    18      5     19      1    1.0773e+02    2.9957e+02 ;     H7 - C5     - H8    
    20      6     21      1    1.0855e+02    2.9824e+02 ;     H9 - C6     - H10   
    22      7     23      1    1.0855e+02    2.9824e+02 ;    H11 - C7     - H12   

[ dihedrals ] ; propers
; for gromacs 4.5 or higher, using funct 9
;    i      j      k      l   func   phase     kd      pn
     1      5      2      9      9     0.00   2.34304   1 ;     C1-    C5-    C2-    O2
     1      5      2      9      9   180.00   0.33472   3 ;     C1-    C5-    C2-    O2
     1      5      2     11      9   180.00   9.53952   2 ;     C1-    C5-    C2-    O4
     1     10      6      3      9     0.00   1.60247   3 ;     C1-    O3-    C6-    C3
     1     10      6      3      9   180.00   3.34720   1 ;     C1-    O3-    C6-    C3
     1     10      6     20      9     0.00   1.60387   3 ;     C1-    O3-    C6-    H9
     1     10      6     21      9     0.00   1.60387   3 ;     C1-    O3-    C6-   H10
     2     11      7      4      9     0.00   1.60247   3 ;     C2-    O4-    C7-    C4
     2     11      7      4      9   180.00   3.34720   1 ;     C2-    O4-    C7-    C4
     2     11      7     22      9     0.00   1.60387   3 ;     C2-    O4-    C7-   H11
     2     11      7     23      9     0.00   1.60387   3 ;     C2-    O4-    C7-   H12
     5      1     10      6      9     0.00   3.13800   3 ;     C5-    C1-    O3-    C6
     5      1     10      6      9   180.00   7.90776   1 ;     C5-    C1-    O3-    C6
     5      1     10      6      9   180.00  13.76536   2 ;     C5-    C1-    O3-    C6
     5      2     11      7      9     0.00   3.13800   3 ;     C5-    C2-    O4-    C7
     5      2     11      7      9   180.00   7.90776   1 ;     C5-    C2-    O4-    C7
     5      2     11      7      9   180.00  13.76536   2 ;     C5-    C2-    O4-    C7
     7     11      2      9      9   180.00   5.85760   1 ;     C7-    O4-    C2-    O2
     7     11      2      9      9   180.00  11.29680   2 ;     C7-    O4-    C2-    O2
     8      1      5      2      9     0.00   2.34304   1 ;     O1-    C1-    C5-    C2
     8      1      5      2      9   180.00   0.33472   3 ;     O1-    C1-    C5-    C2
     8      1      5     18      9     0.00  16.86152   1 ;     O1-    C1-    C5-    H7
     8      1      5     18      9   180.00  15.31344   2 ;     O1-    C1-    C5-    H7
     8      1      5     19      9     0.00  16.86152   1 ;     O1-    C1-    C5-    H8
     8      1      5     19      9   180.00  15.31344   2 ;     O1-    C1-    C5-    H8
     8      1     10      6      9   180.00   5.85760   1 ;     O1-    C1-    O3-    C6
     8      1     10      6      9   180.00  11.29680   2 ;     O1-    C1-    O3-    C6
     9      2      5     18      9     0.00  16.86152   1 ;     O2-    C2-    C5-    H7
     9      2      5     18      9   180.00  15.31344   2 ;     O2-    C2-    C5-    H7
     9      2      5     19      9     0.00  16.86152   1 ;     O2-    C2-    C5-    H8
     9      2      5     19      9   180.00  15.31344   2 ;     O2-    C2-    C5-    H8
    10      1      5      2      9   180.00   9.53952   2 ;     O3-    C1-    C5-    C2
    10      1      5     18      9   180.00   0.00000   2 ;     O3-    C1-    C5-    H7
    10      1      5     19      9   180.00   0.00000   2 ;     O3-    C1-    C5-    H8
    10      6      3     12      9     0.00   0.00000   0 ;     O3-    C6-    C3-    H1
    10      6      3     12      9     0.00   1.04600   1 ;     O3-    C6-    C3-    H1
    10      6      3     13      9     0.00   0.00000   0 ;     O3-    C6-    C3-    H2
    10      6      3     13      9     0.00   1.04600   1 ;     O3-    C6-    C3-    H2
    10      6      3     14      9     0.00   0.00000   0 ;     O3-    C6-    C3-    H3
    10      6      3     14      9     0.00   1.04600   1 ;     O3-    C6-    C3-    H3
    11      2      5     18      9   180.00   0.00000   2 ;     O4-    C2-    C5-    H7
    11      2      5     19      9   180.00   0.00000   2 ;     O4-    C2-    C5-    H8
    11      7      4     15      9     0.00   0.00000   0 ;     O4-    C7-    C4-    H4
    11      7      4     15      9     0.00   1.04600   1 ;     O4-    C7-    C4-    H4
    11      7      4     16      9     0.00   0.00000   0 ;     O4-    C7-    C4-    H5
    11      7      4     16      9     0.00   1.04600   1 ;     O4-    C7-    C4-    H5
    11      7      4     17      9     0.00   0.00000   0 ;     O4-    C7-    C4-    H6
    11      7      4     17      9     0.00   1.04600   1 ;     O4-    C7-    C4-    H6
    12      3      6     20      9     0.00   0.65084   3 ;     H1-    C3-    C6-    H9
    12      3      6     21      9     0.00   0.65084   3 ;     H1-    C3-    C6-   H10
    13      3      6     20      9     0.00   0.65084   3 ;     H2-    C3-    C6-    H9
    13      3      6     21      9     0.00   0.65084   3 ;     H2-    C3-    C6-   H10
    14      3      6     20      9     0.00   0.65084   3 ;     H3-    C3-    C6-    H9
    14      3      6     21      9     0.00   0.65084   3 ;     H3-    C3-    C6-   H10
    15      4      7     22      9     0.00   0.65084   3 ;     H4-    C4-    C7-   H11
    15      4      7     23      9     0.00   0.65084   3 ;     H4-    C4-    C7-   H12
    16      4      7     22      9     0.00   0.65084   3 ;     H5-    C4-    C7-   H11
    16      4      7     23      9     0.00   0.65084   3 ;     H5-    C4-    C7-   H12
    17      4      7     22      9     0.00   0.65084   3 ;     H6-    C4-    C7-   H11
    17      4      7     23      9     0.00   0.65084   3 ;     H6-    C4-    C7-   H12

[ dihedrals ] ; impropers
; treated as propers in GROMACS to use correct AMBER analytical function
;    i      j      k      l   func   phase     kd      pn
     5      9      2     11      4   180.00   4.60240   2 ;     C5-    O2-    C2-    O4
    10      1      8      5      4   180.00   4.60240   2 ;     O3-    C1-    O1-    C5
