; mobley_1659169_GMX.itp created by acpype (v: 2023.10.27) on Thu May 21 00:12:21 2026

[ atomtypes ]
;name   bond_type     mass     charge   ptype   sigma         epsilon       Amb
 c6       c6          0.00000  0.00000   A     3.39771e-01   4.51035e-01 ; 1.91  0.1078
 n7       n7          0.00000  0.00000   A     3.50765e-01   2.18405e-01 ; 1.97  0.0522
 os       os          0.00000  0.00000   A     3.15610e-01   3.03758e-01 ; 1.77  0.0726
 h1       h1          0.00000  0.00000   A     2.42200e-01   8.70272e-02 ; 1.36  0.0208
 hn       hn          0.00000  0.00000   A     1.10650e-01   4.18400e-02 ; 0.62  0.0100

[ moleculetype ]
;name            nrexcl
 mobley_1659169   3

[ atoms ]
;   nr  type  resi  res  atom  cgnr     charge      mass       ; qtot   bond_type
     1   c6     1   MOL    C1    1     0.125800     12.01000 ; qtot 0.126
     2   c6     1   MOL    C2    2     0.125800     12.01000 ; qtot 0.252
     3   c6     1   MOL    C3    3     0.126400     12.01000 ; qtot 0.378
     4   c6     1   MOL    C4    4     0.126400     12.01000 ; qtot 0.504
     5   n7     1   MOL    N1    5    -0.816200     14.01000 ; qtot -0.312
     6   os     1   MOL    O1    6    -0.416600     16.00000 ; qtot -0.728
     7   h1     1   MOL    H1    7     0.037700      1.00800 ; qtot -0.691
     8   h1     1   MOL    H2    8     0.037700      1.00800 ; qtot -0.653
     9   h1     1   MOL    H3    9     0.037700      1.00800 ; qtot -0.615
    10   h1     1   MOL    H4   10     0.037700      1.00800 ; qtot -0.578
    11   h1     1   MOL    H5   11     0.053200      1.00800 ; qtot -0.524
    12   h1     1   MOL    H6   12     0.053200      1.00800 ; qtot -0.471
    13   h1     1   MOL    H7   13     0.053200      1.00800 ; qtot -0.418
    14   h1     1   MOL    H8   14     0.053200      1.00800 ; qtot -0.365
    15   hn     1   MOL    H9   15     0.364800      1.00800 ; qtot -0.000

[ bonds ]
;   ai     aj funct   r             k
     1      3   1    1.5384e-01    1.8979e+05 ;     C1 - C3    
     1      5   1    1.4653e-01    2.1225e+05 ;     C1 - N1    
     1      7   1    1.0984e-01    2.8620e+05 ;     C1 - H1    
     1      8   1    1.0984e-01    2.8620e+05 ;     C1 - H2    
     2      4   1    1.5384e-01    1.8979e+05 ;     C2 - C4    
     2      5   1    1.4653e-01    2.1225e+05 ;     C2 - N1    
     2      9   1    1.0984e-01    2.8620e+05 ;     C2 - H3    
     2     10   1    1.0984e-01    2.8620e+05 ;     C2 - H4    
     3      6   1    1.4300e-01    2.3412e+05 ;     C3 - O1    
     3     11   1    1.0984e-01    2.8620e+05 ;     C3 - H5    
     3     12   1    1.0984e-01    2.8620e+05 ;     C3 - H6    
     4      6   1    1.4300e-01    2.3412e+05 ;     C4 - O1    
     4     13   1    1.0984e-01    2.8620e+05 ;     C4 - H7    
     4     14   1    1.0984e-01    2.8620e+05 ;     C4 - H8    
     5     15   1    1.0195e-01    3.8497e+05 ;     N1 - H9    

[ pairs ]
;   ai     aj    funct
     1      4      1 ;     C1 - C4    
     1      9      1 ;     C1 - H3    
     1     10      1 ;     C1 - H4    
     2      3      1 ;     C2 - C3    
     3     13      1 ;     C3 - H7    
     3     14      1 ;     C3 - H8    
     3     15      1 ;     C3 - H9    
     4     11      1 ;     C4 - H5    
     4     12      1 ;     C4 - H6    
     4     15      1 ;     C4 - H9    
     5      6      1 ;     N1 - O1    
     5     11      1 ;     N1 - H5    
     5     12      1 ;     N1 - H6    
     5     13      1 ;     N1 - H7    
     5     14      1 ;     N1 - H8    
     6      9      1 ;     O1 - H3    
     6     10      1 ;     O1 - H4    
     7      2      1 ;     H1 - C2    
     7      6      1 ;     H1 - O1    
     7     11      1 ;     H1 - H5    
     7     12      1 ;     H1 - H6    
     7     15      1 ;     H1 - H9    
     8      2      1 ;     H2 - C2    
     8      6      1 ;     H2 - O1    
     8     11      1 ;     H2 - H5    
     8     12      1 ;     H2 - H6    
     8     15      1 ;     H2 - H9    
     9     13      1 ;     H3 - H7    
     9     14      1 ;     H3 - H8    
     9     15      1 ;     H3 - H9    
    10     13      1 ;     H4 - H7    
    10     14      1 ;     H4 - H8    
    10     15      1 ;     H4 - H9    

[ angles ]
;   ai     aj     ak    funct   theta         cth
     1      3      6      1    1.1009e+02    6.3948e+02 ;     C1 - C3     - O1    
     1      3     11      1    1.0918e+02    3.6217e+02 ;     C1 - C3     - H5    
     1      3     12      1    1.0918e+02    3.6217e+02 ;     C1 - C3     - H6    
     1      5      2      1    1.1208e+02    6.5036e+02 ;     C1 - N1     - C2    
     1      5     15      1    1.0926e+02    4.7070e+02 ;     C1 - N1     - H9    
     2      4      6      1    1.1009e+02    6.3948e+02 ;     C2 - C4     - O1    
     2      4     13      1    1.0918e+02    3.6217e+02 ;     C2 - C4     - H7    
     2      4     14      1    1.0918e+02    3.6217e+02 ;     C2 - C4     - H8    
     2      5     15      1    1.0926e+02    4.7070e+02 ;     C2 - N1     - H9    
     3      1      5      1    1.1083e+02    5.4752e+02 ;     C3 - C1     - N1    
     3      1      7      1    1.0918e+02    3.6217e+02 ;     C3 - C1     - H1    
     3      1      8      1    1.0918e+02    3.6217e+02 ;     C3 - C1     - H2    
     3      6      4      1    1.1330e+02    7.3873e+02 ;     C3 - O1     - C4    
     4      2      5      1    1.1083e+02    5.4752e+02 ;     C4 - C2     - N1    
     4      2      9      1    1.0918e+02    3.6217e+02 ;     C4 - C2     - H3    
     4      2     10      1    1.0918e+02    3.6217e+02 ;     C4 - C2     - H4    
     5      1      7      1    1.0853e+02    4.0250e+02 ;     N1 - C1     - H1    
     5      1      8      1    1.0853e+02    4.0250e+02 ;     N1 - C1     - H2    
     5      2      9      1    1.0853e+02    4.0250e+02 ;     N1 - C2     - H3    
     5      2     10      1    1.0853e+02    4.0250e+02 ;     N1 - C2     - H4    
     6      3     11      1    1.0808e+02    4.7430e+02 ;     O1 - C3     - H5    
     6      3     12      1    1.0808e+02    4.7430e+02 ;     O1 - C3     - H6    
     6      4     13      1    1.0808e+02    4.7430e+02 ;     O1 - C4     - H7    
     6      4     14      1    1.0808e+02    4.7430e+02 ;     O1 - C4     - H8    
     7      1      8      1    1.0750e+02    2.9932e+02 ;     H1 - C1     - H2    
     9      2     10      1    1.0750e+02    2.9932e+02 ;     H3 - C2     - H4    
    11      3     12      1    1.0750e+02    2.9932e+02 ;     H5 - C3     - H6    
    13      4     14      1    1.0750e+02    2.9932e+02 ;     H7 - C4     - H8    

[ dihedrals ] ; propers
; for gromacs 4.5 or higher, using funct 9
;    i      j      k      l   func   phase     kd      pn
     1      3      6      4      9     0.00   4.85344   3 ;     C1-    C3-    O1-    C4
     1      3      6      4      9     0.00   5.77392   2 ;     C1-    C3-    O1-    C4
     1      3      6      4      9   180.00   1.46440   1 ;     C1-    C3-    O1-    C4
     1      5      2      4      9     0.00   0.58576   3 ;     C1-    N1-    C2-    C4
     1      5      2      9      9     0.00   0.89956   3 ;     C1-    N1-    C2-    H3
     1      5      2     10      9     0.00   0.89956   3 ;     C1-    N1-    C2-    H4
     2      4      6      3      9     0.00   4.85344   3 ;     C2-    C4-    O1-    C3
     2      4      6      3      9     0.00   5.77392   2 ;     C2-    C4-    O1-    C3
     2      4      6      3      9   180.00   1.46440   1 ;     C2-    C4-    O1-    C3
     3      1      5      2      9     0.00   0.58576   3 ;     C3-    C1-    N1-    C2
     3      1      5     15      9     0.00   0.90793   3 ;     C3-    C1-    N1-    H9
     3      6      4     13      9     0.00   1.41001   3 ;     C3-    O1-    C4-    H7
     3      6      4     14      9     0.00   1.41001   3 ;     C3-    O1-    C4-    H8
     4      2      5     15      9     0.00   0.90793   3 ;     C4-    C2-    N1-    H9
     4      6      3     11      9     0.00   1.41001   3 ;     C4-    O1-    C3-    H5
     4      6      3     12      9     0.00   1.41001   3 ;     C4-    O1-    C3-    H6
     5      1      3      6      9     0.00   0.65084   3 ;     N1-    C1-    C3-    O1
     5      1      3     11      9     0.00   0.65084   3 ;     N1-    C1-    C3-    H5
     5      1      3     12      9     0.00   0.65084   3 ;     N1-    C1-    C3-    H6
     5      2      4      6      9     0.00   0.65084   3 ;     N1-    C2-    C4-    O1
     5      2      4     13      9     0.00   0.65084   3 ;     N1-    C2-    C4-    H7
     5      2      4     14      9     0.00   0.65084   3 ;     N1-    C2-    C4-    H8
     6      4      2      9      9     0.00   0.00000   0 ;     O1-    C4-    C2-    H3
     6      4      2      9      9     0.00   1.04600   1 ;     O1-    C4-    C2-    H3
     6      4      2     10      9     0.00   0.00000   0 ;     O1-    C4-    C2-    H4
     6      4      2     10      9     0.00   1.04600   1 ;     O1-    C4-    C2-    H4
     7      1      3      6      9     0.00   0.00000   0 ;     H1-    C1-    C3-    O1
     7      1      3      6      9     0.00   1.04600   1 ;     H1-    C1-    C3-    O1
     7      1      3     11      9     0.00   0.65084   3 ;     H1-    C1-    C3-    H5
     7      1      3     12      9     0.00   0.65084   3 ;     H1-    C1-    C3-    H6
     7      1      5      2      9     0.00   0.89956   3 ;     H1-    C1-    N1-    C2
     7      1      5     15      9     0.00   1.25520   3 ;     H1-    C1-    N1-    H9
     8      1      3      6      9     0.00   0.00000   0 ;     H2-    C1-    C3-    O1
     8      1      3      6      9     0.00   1.04600   1 ;     H2-    C1-    C3-    O1
     8      1      3     11      9     0.00   0.65084   3 ;     H2-    C1-    C3-    H5
     8      1      3     12      9     0.00   0.65084   3 ;     H2-    C1-    C3-    H6
     8      1      5      2      9     0.00   0.89956   3 ;     H2-    C1-    N1-    C2
     8      1      5     15      9     0.00   1.25520   3 ;     H2-    C1-    N1-    H9
     9      2      4     13      9     0.00   0.65084   3 ;     H3-    C2-    C4-    H7
     9      2      4     14      9     0.00   0.65084   3 ;     H3-    C2-    C4-    H8
     9      2      5     15      9     0.00   1.25520   3 ;     H3-    C2-    N1-    H9
    10      2      4     13      9     0.00   0.65084   3 ;     H4-    C2-    C4-    H7
    10      2      4     14      9     0.00   0.65084   3 ;     H4-    C2-    C4-    H8
    10      2      5     15      9     0.00   1.25520   3 ;     H4-    C2-    N1-    H9
