; mobley_9185328_GMX.itp created by acpype (v: 2023.10.27) on Wed May 20 23:46:17 2026

[ atomtypes ]
;name   bond_type     mass     charge   ptype   sigma         epsilon       Amb
 c3       c3          0.00000  0.00000   A     3.39771e-01   4.51035e-01 ; 1.91  0.1078
 n8       n8          0.00000  0.00000   A     3.65019e-01   1.35143e-01 ; 2.05  0.0323
 hc       hc          0.00000  0.00000   A     2.60018e-01   8.70272e-02 ; 1.46  0.0208
 h1       h1          0.00000  0.00000   A     2.42200e-01   8.70272e-02 ; 1.36  0.0208
 hn       hn          0.00000  0.00000   A     1.10650e-01   4.18400e-02 ; 0.62  0.0100

[ moleculetype ]
;name            nrexcl
 mobley_9185328   3

[ atoms ]
;   nr  type  resi  res  atom  cgnr     charge      mass       ; qtot   bond_type
     1   c3     1   MOL    C1    1    -0.089100     12.01000 ; qtot -0.089
     2   c3     1   MOL    C2    2    -0.122400     12.01000 ; qtot -0.211
     3   c3     1   MOL    C3    3     0.149800     12.01000 ; qtot -0.062
     4   n8     1   MOL    N1    4    -0.907801     14.01000 ; qtot -0.970
     5   hc     1   MOL    H1    5     0.034367      1.00800 ; qtot -0.935
     6   hc     1   MOL    H2    6     0.034367      1.00800 ; qtot -0.901
     7   hc     1   MOL    H3    7     0.034367      1.00800 ; qtot -0.866
     8   hc     1   MOL    H4    8     0.037700      1.00800 ; qtot -0.829
     9   hc     1   MOL    H5    9     0.037700      1.00800 ; qtot -0.791
    10   h1     1   MOL    H6   10     0.051700      1.00800 ; qtot -0.739
    11   h1     1   MOL    H7   11     0.051700      1.00800 ; qtot -0.688
    12   hn     1   MOL    H8   12     0.343800      1.00800 ; qtot -0.344
    13   hn     1   MOL    H9   13     0.343800      1.00800 ; qtot 0.000

[ bonds ]
;   ai     aj funct   r             k
     1      2   1    1.5354e-01    1.9154e+05 ;     C1 - C2    
     1      5   1    1.0962e-01    2.8891e+05 ;     C1 - H1    
     1      6   1    1.0962e-01    2.8891e+05 ;     C1 - H2    
     1      7   1    1.0962e-01    2.8891e+05 ;     C1 - H3    
     2      3   1    1.5354e-01    1.9154e+05 ;     C2 - C3    
     2      8   1    1.0962e-01    2.8891e+05 ;     C2 - H4    
     2      9   1    1.0962e-01    2.8891e+05 ;     C2 - H5    
     3      4   1    1.4651e-01    2.1239e+05 ;     C3 - N1    
     3     10   1    1.0969e-01    2.8804e+05 ;     C3 - H6    
     3     11   1    1.0969e-01    2.8804e+05 ;     C3 - H7    
     4     12   1    1.0192e-01    3.8550e+05 ;     N1 - H8    
     4     13   1    1.0192e-01    3.8550e+05 ;     N1 - H9    

[ pairs ]
;   ai     aj    funct
     1      4      1 ;     C1 - N1    
     1     10      1 ;     C1 - H6    
     1     11      1 ;     C1 - H7    
     2     12      1 ;     C2 - H8    
     2     13      1 ;     C2 - H9    
     4      8      1 ;     N1 - H4    
     4      9      1 ;     N1 - H5    
     5      3      1 ;     H1 - C3    
     5      8      1 ;     H1 - H4    
     5      9      1 ;     H1 - H5    
     6      3      1 ;     H2 - C3    
     6      8      1 ;     H2 - H4    
     6      9      1 ;     H2 - H5    
     7      3      1 ;     H3 - C3    
     7      8      1 ;     H3 - H4    
     7      9      1 ;     H3 - H5    
     8     10      1 ;     H4 - H6    
     8     11      1 ;     H4 - H7    
     9     10      1 ;     H5 - H6    
     9     11      1 ;     H5 - H7    
    10     12      1 ;     H6 - H8    
    10     13      1 ;     H6 - H9    
    11     12      1 ;     H7 - H8    
    11     13      1 ;     H7 - H9    

[ angles ]
;   ai     aj     ak    funct   theta         cth
     1      2      3      1    1.1263e+02    5.0099e+02 ;     C1 - C2     - C3    
     1      2      8      1    1.0968e+02    3.6208e+02 ;     C1 - C2     - H4    
     1      2      9      1    1.0968e+02    3.6208e+02 ;     C1 - C2     - H5    
     2      1      5      1    1.0968e+02    3.6208e+02 ;     C2 - C1     - H1    
     2      1      6      1    1.0968e+02    3.6208e+02 ;     C2 - C1     - H2    
     2      1      7      1    1.0968e+02    3.6208e+02 ;     C2 - C1     - H3    
     2      3      4      1    1.1091e+02    5.4794e+02 ;     C2 - C3     - N1    
     2      3     10      1    1.0959e+02    3.6217e+02 ;     C2 - C3     - H6    
     2      3     11      1    1.0959e+02    3.6217e+02 ;     C2 - C3     - H7    
     3      2      8      1    1.0968e+02    3.6208e+02 ;     C3 - C2     - H4    
     3      2      9      1    1.0968e+02    3.6208e+02 ;     C3 - C2     - H5    
     3      4     12      1    1.0961e+02    4.7003e+02 ;     C3 - N1     - H8    
     3      4     13      1    1.0961e+02    4.7003e+02 ;     C3 - N1     - H9    
     4      3     10      1    1.0812e+02    4.0342e+02 ;     N1 - C3     - H6    
     4      3     11      1    1.0812e+02    4.0342e+02 ;     N1 - C3     - H7    
     5      1      6      1    1.0773e+02    2.9957e+02 ;     H1 - C1     - H2    
     5      1      7      1    1.0773e+02    2.9957e+02 ;     H1 - C1     - H3    
     6      1      7      1    1.0773e+02    2.9957e+02 ;     H2 - C1     - H3    
     8      2      9      1    1.0773e+02    2.9957e+02 ;     H4 - C2     - H5    
    10      3     11      1    1.0855e+02    2.9824e+02 ;     H6 - C3     - H7    
    12      4     13      1    1.0638e+02    4.0074e+02 ;     H8 - N1     - H9    

[ dihedrals ] ; propers
; for gromacs 4.5 or higher, using funct 9
;    i      j      k      l   func   phase     kd      pn
     1      2      3      4      9     0.00   2.17568   3 ;     C1-    C2-    C3-    N1
     1      2      3     10      9     0.00   0.65084   3 ;     C1-    C2-    C3-    H6
     1      2      3     11      9     0.00   0.65084   3 ;     C1-    C2-    C3-    H7
     2      3      4     12      9   180.00   0.12552   3 ;     C2-    C3-    N1-    H8
     2      3      4     13      9   180.00   0.12552   3 ;     C2-    C3-    N1-    H9
     4      3      2      8      9     0.00   0.20920   3 ;     N1-    C3-    C2-    H4
     4      3      2      9      9     0.00   0.20920   3 ;     N1-    C3-    C2-    H5
     5      1      2      3      9     0.00   0.54392   3 ;     H1-    C1-    C2-    C3
     5      1      2      8      9     0.00   0.50208   3 ;     H1-    C1-    C2-    H4
     5      1      2      9      9     0.00   0.50208   3 ;     H1-    C1-    C2-    H5
     6      1      2      3      9     0.00   0.54392   3 ;     H2-    C1-    C2-    C3
     6      1      2      8      9     0.00   0.50208   3 ;     H2-    C1-    C2-    H4
     6      1      2      9      9     0.00   0.50208   3 ;     H2-    C1-    C2-    H5
     7      1      2      3      9     0.00   0.54392   3 ;     H3-    C1-    C2-    C3
     7      1      2      8      9     0.00   0.50208   3 ;     H3-    C1-    C2-    H4
     7      1      2      9      9     0.00   0.50208   3 ;     H3-    C1-    C2-    H5
     8      2      3     10      9     0.00   0.65084   3 ;     H4-    C2-    C3-    H6
     8      2      3     11      9     0.00   0.65084   3 ;     H4-    C2-    C3-    H7
     9      2      3     10      9     0.00   0.65084   3 ;     H5-    C2-    C3-    H6
     9      2      3     11      9     0.00   0.65084   3 ;     H5-    C2-    C3-    H7
    10      3      4     12      9     0.00   1.25520   3 ;     H6-    C3-    N1-    H8
    10      3      4     13      9     0.00   1.25520   3 ;     H6-    C3-    N1-    H9
    11      3      4     12      9     0.00   1.25520   3 ;     H7-    C3-    N1-    H8
    11      3      4     13      9     0.00   1.25520   3 ;     H7-    C3-    N1-    H9
