mobley_5076071_GMX.gro created by acpype (v: 2023.10.27) on Tue May 19 12:48:43 2026
 2429
    1MOL     C1    1   2.309   2.596   2.327
    1MOL     C2    2   2.255   2.658   2.441
    1MOL     C3    3   2.418   2.507   2.340
    1MOL     C4    4   2.312   2.634   2.567
    1MOL     C5    5   2.475   2.472   2.463
    1MOL     C6    6   2.417   2.537   2.575
    1MOL     C7    7   2.827   2.369   2.445
    1MOL     C8    8   2.563   2.144   2.401
    1MOL     C9    9   2.709   2.435   2.516
    1MOL    C10   10   2.545   2.245   2.513
    1MOL    C11   11   2.135   2.748   2.422
    1MOL     N1   12   2.252   2.687   2.683
    1MOL     N2   13   2.581   2.380   2.466
    1MOL     N3   14   2.471   2.453   2.216
    1MOL     N4   15   2.467   2.505   2.707
    1MOL     O1   16   2.400   2.370   2.157
    1MOL     O2   17   2.579   2.499   2.176
    1MOL     O3   18   2.533   2.594   2.764
    1MOL     O4   19   2.438   2.395   2.756
    1MOL     F1   20   2.134   2.809   2.300
    1MOL     F2   21   2.017   2.681   2.431
    1MOL     F3   22   2.128   2.849   2.513
    1MOL     H1   23   2.267   2.616   2.229
    1MOL     H2   24   2.835   2.263   2.473
    1MOL     H3   25   2.817   2.376   2.337
    1MOL     H4   26   2.921   2.418   2.474
    1MOL     H5   27   2.496   2.165   2.317
    1MOL     H6   28   2.665   2.144   2.362
    1MOL     H7   29   2.541   2.043   2.437
    1MOL     H8   30   2.715   2.543   2.495
    1MOL     H9   31   2.719   2.421   2.624
    1MOL    H10   32   2.606   2.215   2.599
    1MOL    H11   33   2.440   2.240   2.546
    1MOL    H12   34   2.201   2.775   2.670
    1MOL    H13   35   2.313   2.695   2.765
   14SOL     OW   36   1.460   1.505   1.339
   14SOL    HW1   37   1.484   1.599   1.365
   14SOL    HW2   38   1.444   1.451   1.421
   35SOL     OW   39   1.187   1.792   1.616
   35SOL    HW1   40   1.211   1.852   1.540
   35SOL    HW2   41   1.194   1.697   1.586
   95SOL     OW   42   1.754   1.223   1.588
   95SOL    HW1   43   1.845   1.184   1.575
   95SOL    HW2   44   1.762   1.319   1.612
   97SOL     OW   45   1.592   1.629   1.625
   97SOL    HW1   46   1.619   1.663   1.535
   97SOL    HW2   47   1.671   1.591   1.671
  127SOL     OW   48   1.859   1.518   1.605
  127SOL    HW1   49   1.873   1.545   1.510
  127SOL    HW2   50   1.942   1.540   1.658
  152SOL     OW   51   1.759   1.747   1.154
  152SOL    HW1   52   1.820   1.777   1.081
  152SOL    HW2   53   1.721   1.658   1.132
  163SOL     OW   54   1.650   1.720   1.394
  163SOL    HW1   55   1.703   1.730   1.310
  163SOL    HW2   56   1.623   1.810   1.428
  219SOL     OW   57   1.555   1.511   2.565
  219SOL    HW1   58   1.498   1.495   2.646
  219SOL    HW2   59   1.496   1.521   2.485
  227SOL     OW   60   1.460   1.505   3.201
  227SOL    HW1   61   1.484   1.599   3.227
  227SOL    HW2   62   1.444   1.451   3.283
  238SOL     OW   63   1.842   1.767   2.221
  238SOL    HW1   64   1.896   1.738   2.301
  238SOL    HW2   65   1.872   1.857   2.192
  240SOL     OW   66   1.689   0.922   2.474
  240SOL    HW1   67   1.784   0.893   2.482
  240SOL    HW2   68   1.681   0.987   2.399
  241SOL     OW   69   1.641   1.108   2.294
  241SOL    HW1   70   1.727   1.110   2.242
  241SOL    HW2   71   1.655   1.155   2.382
  247SOL     OW   72   1.525   0.999   2.052
  247SOL    HW1   73   1.462   0.923   2.065
  247SOL    HW2   74   1.573   1.017   2.138
  248SOL     OW   75   1.187   1.792   3.478
  248SOL    HW1   76   1.211   1.852   3.402
  248SOL    HW2   77   1.194   1.697   3.448
  250SOL     OW   78   1.466   1.417   2.815
  250SOL    HW1   79   1.407   1.423   2.895
  250SOL    HW2   80   1.451   1.329   2.769
  251SOL     OW   81   1.667   1.714   2.434
  251SOL    HW1   82   1.626   1.691   2.346
  251SOL    HW2   83   1.649   1.640   2.499
  254SOL     OW   84   1.576   1.662   2.169
  254SOL    HW1   85   1.665   1.708   2.172
  254SOL    HW2   86   1.555   1.638   2.074
  264SOL     OW   87   1.362   1.144   2.407
  264SOL    HW1   88   1.445   1.115   2.359
  264SOL    HW2   89   1.313   1.211   2.351
  266SOL     OW   90   1.008   1.456   2.339
  266SOL    HW1   91   0.962   1.528   2.287
  266SOL    HW2   92   1.004   1.476   2.437
  268SOL     OW   93   1.795   1.066   2.735
  268SOL    HW1   94   1.733   1.051   2.659
  268SOL    HW2   95   1.743   1.077   2.820
  269SOL     OW   96   1.227   1.550   3.368
  269SOL    HW1   97   1.233   1.473   3.432
  269SOL    HW2   98   1.175   1.524   3.288
  273SOL     OW   99   1.111   1.776   2.099
  273SOL    HW1  100   1.051   1.714   2.149
  273SOL    HW2  101   1.142   1.732   2.014
  275SOL     OW  102   1.632   1.377   1.943
  275SOL    HW1  103   1.600   1.471   1.933
  275SOL    HW2  104   1.556   1.314   1.931
  279SOL     OW  105   0.940   1.698   2.766
  279SOL    HW1  106   1.020   1.641   2.787
  279SOL    HW2  107   0.891   1.658   2.689
  289SOL     OW  108   1.434   1.188   1.903
  289SOL    HW1  109   1.466   1.112   1.960
  289SOL    HW2  110   1.342   1.215   1.933
  293SOL     OW  111   1.227   1.570   2.655
  293SOL    HW1  112   1.248   1.644   2.590
  293SOL    HW2  113   1.295   1.570   2.728
  295SOL     OW  114   1.271   1.797   2.453
  295SOL    HW1  115   1.315   1.861   2.389
  295SOL    HW2  116   1.221   1.849   2.523
  301SOL     OW  117   1.429   1.173   2.729
  301SOL    HW1  118   1.374   1.089   2.722
  301SOL    HW2  119   1.455   1.202   2.637
  303SOL     OW  120   1.857   0.833   2.239
  303SOL    HW1  121   1.899   0.769   2.303
  303SOL    HW2  122   1.819   0.782   2.161
  305SOL     OW  123   1.664   1.280   2.519
  305SOL    HW1  124   1.763   1.288   2.533
  305SOL    HW2  125   1.619   1.364   2.550
  308SOL     OW  126   1.754   1.223   3.450
  308SOL    HW1  127   1.845   1.184   3.437
  308SOL    HW2  128   1.762   1.319   3.474
  310SOL     OW  129   1.592   1.629   3.487
  310SOL    HW1  130   1.619   1.663   3.397
  310SOL    HW2  131   1.671   1.591   3.533
  312SOL     OW  132   1.638   1.099   2.941
  312SOL    HW1  133   1.643   1.180   3.000
  312SOL    HW2  134   1.552   1.101   2.890
  321SOL     OW  135   1.252   1.348   2.250
  321SOL    HW1  136   1.302   1.425   2.290
  321SOL    HW2  137   1.157   1.350   2.282
  322SOL     OW  138   1.272   1.445   3.004
  322SOL    HW1  139   1.319   1.458   3.091
  322SOL    HW2  140   1.206   1.371   3.013
  340SOL     OW  141   1.859   1.518   3.467
  340SOL    HW1  142   1.873   1.545   3.372
  340SOL    HW2  143   1.942   1.540   3.520
  365SOL     OW  144   1.759   1.747   3.016
  365SOL    HW1  145   1.820   1.777   2.943
  365SOL    HW2  146   1.721   1.658   2.994
  366SOL     OW  147   1.252   1.731   2.990
  366SOL    HW1  148   1.336   1.736   2.936
  366SOL    HW2  149   1.229   1.635   3.008
  370SOL     OW  150   1.388   1.573   2.339
  370SOL    HW1  151   1.455   1.585   2.265
  370SOL    HW2  152   1.348   1.662   2.362
  375SOL     OW  153   1.650   1.720   3.256
  375SOL    HW1  154   1.703   1.730   3.172
  375SOL    HW2  155   1.623   1.810   3.290
  378SOL     OW  156   1.194   1.612   1.893
  378SOL    HW1  157   1.200   1.519   1.930
  378SOL    HW2  158   1.135   1.612   1.813
  381SOL     OW  159   1.504   1.607   1.906
  381SOL    HW1  160   1.412   1.644   1.913
  381SOL    HW2  161   1.542   1.627   1.816
  383SOL     OW  162   1.614   1.292   3.151
  383SOL    HW1  163   1.674   1.295   3.231
  383SOL    HW2  164   1.539   1.356   3.164
  394SOL     OW  165   1.183   1.335   1.981
  394SOL    HW1  166   1.084   1.324   1.983
  394SOL    HW2  167   1.217   1.350   2.074
  396SOL     OW  168   1.493   1.767   2.821
  396SOL    HW1  169   1.526   1.831   2.752
  396SOL    HW2  170   1.559   1.761   2.896
  409SOL     OW  171   1.861   1.569   2.713
  409SOL    HW1  172   1.790   1.557   2.643
  409SOL    HW2  173   1.862   1.490   2.773
  415SOL     OW  174   1.705   1.487   2.966
  415SOL    HW1  175   1.612   1.462   2.939
  415SOL    HW2  176   1.731   1.437   3.048
  573SOL     OW  177   0.850   2.660   1.823
  573SOL    HW1  178   0.846   2.736   1.888
  573SOL    HW2  179   0.872   2.696   1.732
  577SOL     OW  180   1.460   3.367   1.339
  577SOL    HW1  181   1.484   3.461   1.365
  577SOL    HW2  182   1.444   3.313   1.421
  581SOL     OW  183   1.127   3.203   1.690
  581SOL    HW1  184   1.174   3.203   1.778
  581SOL    HW2  185   1.079   3.116   1.679
  586SOL     OW  186   1.594   1.976   1.480
  586SOL    HW1  187   1.576   2.043   1.408
  586SOL    HW2  188   1.591   2.022   1.569
  594SOL     OW  189   1.293   3.090   1.423
  594SOL    HW1  190   1.330   3.017   1.365
  594SOL    HW2  191   1.345   3.095   1.508
  606SOL     OW  192   1.394   2.331   1.674
  606SOL    HW1  193   1.374   2.374   1.762
  606SOL    HW2  194   1.472   2.269   1.683
  607SOL     OW  195   0.973   2.752   1.572
  607SOL    HW1  196   1.019   2.668   1.543
  607SOL    HW2  197   0.917   2.786   1.497
  613SOL     OW  198   1.719   2.447   1.831
  613SOL    HW1  199   1.693   2.536   1.795
  613SOL    HW2  200   1.717   2.379   1.758
  618SOL     OW  201   1.795   2.928   0.873
  618SOL    HW1  202   1.733   2.913   0.797
  618SOL    HW2  203   1.743   2.939   0.958
  631SOL     OW  204   1.547   2.084   1.729
  631SOL    HW1  205   1.542   2.121   1.821
  631SOL    HW2  206   1.475   2.015   1.717
  635SOL     OW  207   1.351   2.452   1.433
  635SOL    HW1  208   1.379   2.409   1.518
  635SOL    HW2  209   1.376   2.548   1.434
  642SOL     OW  210   1.076   2.545   1.464
  642SOL    HW1  211   0.996   2.484   1.467
  642SOL    HW2  212   1.157   2.492   1.440
  652SOL     OW  213   1.466   2.452   0.992
  652SOL    HW1  214   1.436   2.357   0.999
  652SOL    HW2  215   1.539   2.468   1.058
  658SOL     OW  216   1.754   3.085   1.588
  658SOL    HW1  217   1.845   3.046   1.575
  658SOL    HW2  218   1.762   3.181   1.612
  660SOL     OW  219   1.592   3.491   1.625
  660SOL    HW1  220   1.619   3.525   1.535
  660SOL    HW2  221   1.671   3.453   1.671
  662SOL     OW  222   1.638   2.961   1.079
  662SOL    HW1  223   1.643   3.042   1.138
  662SOL    HW2  224   1.552   2.963   1.028
  664SOL     OW  225   0.980   2.978   1.719
  664SOL    HW1  226   0.881   2.984   1.729
  664SOL    HW2  227   1.003   2.898   1.663
  667SOL     OW  228   1.274   2.248   1.262
  667SOL    HW1  229   1.295   2.322   1.326
  667SOL    HW2  230   1.185   2.265   1.219
  676SOL     OW  231   1.587   2.641   1.670
  676SOL    HW1  232   1.495   2.679   1.665
  676SOL    HW2  233   1.647   2.688   1.605
  677SOL     OW  234   1.013   1.967   1.770
  677SOL    HW1  235   1.019   2.052   1.718
  677SOL    HW2  236   1.045   1.891   1.713
  685SOL     OW  237   1.728   2.797   1.854
  685SOL    HW1  238   1.682   2.790   1.765
  685SOL    HW2  239   1.666   2.841   1.920
  690SOL     OW  240   1.859   3.380   1.605
  690SOL    HW1  241   1.873   3.407   1.510
  690SOL    HW2  242   1.942   3.402   1.658
  697SOL     OW  243   1.138   2.242   1.678
  697SOL    HW1  244   1.093   2.305   1.742
  697SOL    HW2  245   1.231   2.273   1.661
  698SOL     OW  246   1.160   2.069   1.477
  698SOL    HW1  247   1.160   2.133   1.554
  698SOL    HW2  248   1.188   2.117   1.394
  705SOL     OW  249   1.369   2.812   1.660
  705SOL    HW1  250   1.408   2.901   1.680
  705SOL    HW2  251   1.379   2.792   1.563
  707SOL     OW  252   1.657   2.466   1.206
  707SOL    HW1  253   1.619   2.397   1.268
  707SOL    HW2  254   1.739   2.430   1.162
  713SOL     OW  255   1.347   2.921   1.234
  713SOL    HW1  256   1.371   2.858   1.160
  713SOL    HW2  257   1.257   2.961   1.216
  726SOL     OW  258   1.650   3.582   1.394
  726SOL    HW1  259   1.703   3.592   1.310
  726SOL    HW2  260   1.623   3.672   1.428
  727SOL     OW  261   1.841   2.037   0.963
  727SOL    HW1  262   1.880   1.952   0.927
  727SOL    HW2  263   1.743   2.039   0.944
  734SOL     OW  264   1.614   3.154   1.289
  734SOL    HW1  265   1.674   3.157   1.369
  734SOL    HW2  266   1.539   3.218   1.302
  738SOL     OW  267   1.709   2.247   1.381
  738SOL    HW1  268   1.782   2.316   1.385
  738SOL    HW2  269   1.737   2.172   1.322
  743SOL     OW  270   1.440   2.718   1.398
  743SOL    HW1  271   1.383   2.770   1.335
  743SOL    HW2  272   1.536   2.730   1.374
  749SOL     OW  273   1.450   3.082   1.633
  749SOL    HW1  274   1.441   3.072   1.732
  749SOL    HW2  275   1.546   3.075   1.607
  751SOL     OW  276   1.674   2.745   1.254
  751SOL    HW1  277   1.647   2.656   1.217
  751SOL    HW2  278   1.675   2.813   1.181
  754SOL     OW  279   1.777   2.204   1.642
  754SOL    HW1  280   1.760   2.235   1.548
  754SOL    HW2  281   1.693   2.167   1.680
  755SOL     OW  282   1.730   2.796   1.517
  755SOL    HW1  283   1.768   2.887   1.532
  755SOL    HW2  284   1.722   2.779   1.418
  764SOL     OW  285   1.824   2.054   1.227
  764SOL    HW1  286   1.820   1.964   1.271
  764SOL    HW2  287   1.827   2.043   1.128
  766SOL     OW  288   1.705   3.349   1.104
  766SOL    HW1  289   1.612   3.324   1.077
  766SOL    HW2  290   1.731   3.299   1.186
  769SOL     OW  291   1.424   2.076   1.112
  769SOL    HW1  292   1.476   2.011   1.167
  769SOL    HW2  293   1.375   2.139   1.173
  782SOL     OW  294   1.555   3.373   2.565
  782SOL    HW1  295   1.498   3.357   2.646
  782SOL    HW2  296   1.496   3.383   2.485
  783SOL     OW  297   1.135   2.565   2.579
  783SOL    HW1  298   1.192   2.643   2.554
  783SOL    HW2  299   1.075   2.591   2.655
  784SOL     OW  300   1.755   2.469   2.093
  784SOL    HW1  301   1.743   2.456   1.994
  784SOL    HW2  302   1.725   2.388   2.142
  790SOL     OW  303   1.460   3.367   3.201
  790SOL    HW1  304   1.484   3.461   3.227
  790SOL    HW2  305   1.444   3.313   3.283
  792SOL     OW  306   1.603   2.309   2.599
  792SOL    HW1  307   1.529   2.355   2.549
  792SOL    HW2  308   1.654   2.377   2.652
  799SOL     OW  309   1.594   1.976   3.342
  799SOL    HW1  310   1.576   2.043   3.270
  799SOL    HW2  311   1.591   2.022   3.431
  801SOL     OW  312   1.842   3.629   2.221
  801SOL    HW1  313   1.896   3.600   2.301
  801SOL    HW2  314   1.872   3.719   2.192
  803SOL     OW  315   1.689   2.784   2.474
  803SOL    HW1  316   1.784   2.755   2.482
  803SOL    HW2  317   1.681   2.849   2.399
  804SOL     OW  318   1.641   2.970   2.294
  804SOL    HW1  319   1.727   2.972   2.242
  804SOL    HW2  320   1.655   3.017   2.382
  807SOL     OW  321   1.293   3.090   3.285
  807SOL    HW1  322   1.330   3.017   3.227
  807SOL    HW2  323   1.345   3.095   3.370
  808SOL     OW  324   0.809   1.866   2.364
  808SOL    HW1  325   0.849   1.957   2.355
  808SOL    HW2  326   0.709   1.874   2.370
  810SOL     OW  327   1.525   2.861   2.052
  810SOL    HW1  328   1.462   2.785   2.065
  810SOL    HW2  329   1.573   2.879   2.138
  813SOL     OW  330   1.466   3.279   2.815
  813SOL    HW1  331   1.407   3.285   2.895
  813SOL    HW2  332   1.451   3.191   2.769
  814SOL     OW  333   1.667   3.576   2.434
  814SOL    HW1  334   1.626   3.553   2.346
  814SOL    HW2  335   1.649   3.502   2.499
  816SOL     OW  336   1.281   2.207   2.806
  816SOL    HW1  337   1.195   2.157   2.793
  816SOL    HW2  338   1.343   2.153   2.862
  817SOL     OW  339   1.576   3.524   2.169
  817SOL    HW1  340   1.665   3.570   2.172
  817SOL    HW2  341   1.555   3.500   2.074
  819SOL     OW  342   1.394   2.331   3.536
  819SOL    HW1  343   1.374   2.374   3.624
  819SOL    HW2  344   1.472   2.269   3.545
  821SOL     OW  345   0.991   2.272   3.104
  821SOL    HW1  346   0.914   2.306   3.158
  821SOL    HW2  347   0.957   2.221   3.025
  822SOL     OW  348   1.041   2.563   2.291
  822SOL    HW1  349   1.067   2.559   2.387
  822SOL    HW2  350   0.956   2.512   2.277
  825SOL     OW  351   0.865   2.210   2.057
  825SOL    HW1  352   0.924   2.273   2.008
  825SOL    HW2  353   0.884   2.116   2.028
  826SOL     OW  354   1.719   2.447   3.693
  826SOL    HW1  355   1.693   2.536   3.657
  826SOL    HW2  356   1.717   2.379   3.620
  827SOL     OW  357   1.362   3.006   2.407
  827SOL    HW1  358   1.445   2.977   2.359
  827SOL    HW2  359   1.313   3.073   2.351
  829SOL     OW  360   1.008   3.318   2.339
  829SOL    HW1  361   0.962   3.390   2.287
  829SOL    HW2  362   1.004   3.338   2.437
  831SOL     OW  363   1.795   2.928   2.735
  831SOL    HW1  364   1.733   2.913   2.659
  831SOL    HW2  365   1.743   2.939   2.820
  832SOL     OW  366   1.227   3.412   3.368
  832SOL    HW1  367   1.233   3.335   3.432
  832SOL    HW2  368   1.175   3.386   3.288
  834SOL     OW  369   1.458   2.597   2.590
  834SOL    HW1  370   1.453   2.532   2.665
  834SOL    HW2  371   1.538   2.656   2.603
  838SOL     OW  372   1.632   3.239   1.943
  838SOL    HW1  373   1.600   3.333   1.933
  838SOL    HW2  374   1.556   3.176   1.931
  840SOL     OW  375   1.400   1.969   2.288
  840SOL    HW1  376   1.376   1.932   2.198
  840SOL    HW2  377   1.499   1.985   2.292
  844SOL     OW  378   1.547   2.084   3.591
  844SOL    HW1  379   1.542   2.121   3.683
  844SOL    HW2  380   1.475   2.015   3.579
  848SOL     OW  381   1.351   2.452   3.295
  848SOL    HW1  382   1.379   2.409   3.380
  848SOL    HW2  383   1.376   2.548   3.296
  850SOL     OW  384   0.922   2.365   2.761
  850SOL    HW1  385   0.897   2.356   2.665
  850SOL    HW2  386   0.970   2.283   2.792
  852SOL     OW  387   1.434   3.050   1.903
  852SOL    HW1  388   1.466   2.974   1.960
  852SOL    HW2  389   1.342   3.077   1.933
  854SOL     OW  390   0.935   2.098   2.342
  854SOL    HW1  391   0.887   2.139   2.264
  854SOL    HW2  392   1.034   2.096   2.323
  855SOL     OW  393   1.076   2.545   3.326
  855SOL    HW1  394   0.996   2.484   3.329
  855SOL    HW2  395   1.157   2.492   3.302
  856SOL     OW  396   1.227   3.432   2.655
  856SOL    HW1  397   1.248   3.506   2.590
  856SOL    HW2  398   1.295   3.432   2.728
  858SOL     OW  399   1.271   3.659   2.453
  858SOL    HW1  400   1.315   3.723   2.389
  858SOL    HW2  401   1.221   3.711   2.523
  859SOL     OW  402   1.032   2.411   1.878
  859SOL    HW1  403   0.991   2.493   1.839
  859SOL    HW2  404   1.096   2.437   1.951
  862SOL     OW  405   0.866   2.316   2.504
  862SOL    HW1  406   0.834   2.388   2.442
  862SOL    HW2  407   0.890   2.235   2.451
  863SOL     OW  408   1.017   1.901   2.615
  863SOL    HW1  409   0.945   1.906   2.546
  863SOL    HW2  410   0.993   1.832   2.684
  864SOL     OW  411   1.429   3.035   2.729
  864SOL    HW1  412   1.374   2.951   2.722
  864SOL    HW2  413   1.455   3.064   2.637
  865SOL     OW  414   1.466   2.452   2.854
  865SOL    HW1  415   1.436   2.357   2.861
  865SOL    HW2  416   1.539   2.468   2.920
  866SOL     OW  417   1.857   2.695   2.239
  866SOL    HW1  418   1.899   2.631   2.303
  866SOL    HW2  419   1.819   2.644   2.161
  868SOL     OW  420   1.664   3.142   2.519
  868SOL    HW1  421   1.763   3.150   2.533
  868SOL    HW2  422   1.619   3.226   2.550
  869SOL     OW  423   1.390   2.437   1.940
  869SOL    HW1  424   1.336   2.416   2.021
  869SOL    HW2  425   1.481   2.396   1.949
  871SOL     OW  426   1.754   3.085   3.450
  871SOL    HW1  427   1.845   3.046   3.437
  871SOL    HW2  428   1.762   3.181   3.474
  872SOL     OW  429   1.064   3.209   3.202
  872SOL    HW1  430   0.984   3.186   3.257
  872SOL    HW2  431   1.147   3.183   3.251
  873SOL     OW  432   1.592   3.491   3.487
  873SOL    HW1  433   1.619   3.525   3.397
  873SOL    HW2  434   1.671   3.453   3.533
  874SOL     OW  435   1.111   3.057   2.962
  874SOL    HW1  436   1.071   3.101   3.043
  874SOL    HW2  437   1.070   3.094   2.879
  875SOL     OW  438   1.638   2.961   2.941
  875SOL    HW1  439   1.643   3.042   3.000
  875SOL    HW2  440   1.552   2.963   2.890
  880SOL     OW  441   1.274   2.248   3.124
  880SOL    HW1  442   1.295   2.322   3.188
  880SOL    HW2  443   1.185   2.265   3.081
  884SOL     OW  444   1.252   3.210   2.250
  884SOL    HW1  445   1.302   3.287   2.290
  884SOL    HW2  446   1.157   3.212   2.282
  885SOL     OW  447   1.272   3.307   3.004
  885SOL    HW1  448   1.319   3.320   3.091
  885SOL    HW2  449   1.206   3.233   3.013
  886SOL     OW  450   1.582   2.501   2.334
  886SOL    HW1  451   1.551   2.562   2.407
  886SOL    HW2  452   1.632   2.553   2.265
  889SOL     OW  453   1.587   2.641   3.532
  889SOL    HW1  454   1.495   2.679   3.527
  889SOL    HW2  455   1.647   2.688   3.467
  893SOL     OW  456   1.360   2.724   2.907
  893SOL    HW1  457   1.285   2.724   2.841
  893SOL    HW2  458   1.397   2.632   2.916
  894SOL     OW  459   1.209   2.387   2.137
  894SOL    HW1  460   1.222   2.303   2.191
  894SOL    HW2  461   1.180   2.461   2.197
  897SOL     OW  462   0.732   2.496   2.926
  897SOL    HW1  463   0.791   2.470   2.850
  897SOL    HW2  464   0.704   2.592   2.915
  898SOL     OW  465   1.728   2.797   3.716
  898SOL    HW1  466   1.682   2.790   3.627
  898SOL    HW2  467   1.666   2.841   3.782
  900SOL     OW  468   1.622   2.229   2.236
  900SOL    HW1  469   1.624   2.153   2.300
  900SOL    HW2  470   1.574   2.306   2.276
  901SOL     OW  471   1.023   2.628   2.828
  901SOL    HW1  472   1.038   2.649   2.924
  901SOL    HW2  473   0.993   2.533   2.819
  903SOL     OW  474   1.859   3.380   3.467
  903SOL    HW1  475   1.873   3.407   3.372
  903SOL    HW2  476   1.942   3.402   3.520
  905SOL     OW  477   1.540   2.136   1.987
  905SOL    HW1  478   1.479   2.061   2.010
  905SOL    HW2  479   1.562   2.188   2.070
  906SOL     OW  480   1.303   2.700   1.904
  906SOL    HW1  481   1.337   2.607   1.919
  906SOL    HW2  482   1.321   2.727   1.809
  907SOL     OW  483   1.068   3.195   2.711
  907SOL    HW1  484   1.075   3.111   2.656
  907SOL    HW2  485   1.130   3.264   2.675
  910SOL     OW  486   1.138   2.242   3.540
  910SOL    HW1  487   1.093   2.305   3.604
  910SOL    HW2  488   1.231   2.273   3.523
  911SOL     OW  489   1.160   2.069   3.339
  911SOL    HW1  490   1.160   2.133   3.416
  911SOL    HW2  491   1.188   2.117   3.256
  915SOL     OW  492   1.002   2.658   3.100
  915SOL    HW1  493   1.043   2.626   3.186
  915SOL    HW2  494   0.906   2.631   3.097
  918SOL     OW  495   1.369   2.812   3.522
  918SOL    HW1  496   1.408   2.901   3.542
  918SOL    HW2  497   1.379   2.792   3.425
  919SOL     OW  498   0.815   2.434   2.187
  919SOL    HW1  499   0.822   2.345   2.141
  919SOL    HW2  500   0.721   2.468   2.179
  920SOL     OW  501   1.657   2.466   3.068
  920SOL    HW1  502   1.619   2.397   3.130
  920SOL    HW2  503   1.739   2.430   3.024
  926SOL     OW  504   1.347   2.921   3.096
  926SOL    HW1  505   1.371   2.858   3.022
  926SOL    HW2  506   1.257   2.961   3.078
  927SOL     OW  507   1.302   2.717   2.171
  927SOL    HW1  508   1.216   2.686   2.213
  927SOL    HW2  509   1.298   2.703   2.072
  928SOL     OW  510   1.759   3.609   3.016
  928SOL    HW1  511   1.820   3.639   2.943
  928SOL    HW2  512   1.721   3.520   2.994
  929SOL     OW  513   1.252   3.593   2.990
  929SOL    HW1  514   1.336   3.598   2.936
  929SOL    HW2  515   1.229   3.497   3.008
  932SOL     OW  516   1.726   1.997   2.385
  932SOL    HW1  517   1.799   1.980   2.318
  932SOL    HW2  518   1.695   1.910   2.423
  933SOL     OW  519   1.388   3.435   2.339
  933SOL    HW1  520   1.455   3.447   2.265
  933SOL    HW2  521   1.348   3.524   2.362
  935SOL     OW  522   1.280   2.789   2.534
  935SOL    HW1  523   1.340   2.708   2.536
  935SOL    HW2  524   1.320   2.858   2.474
  938SOL     OW  525   1.650   3.582   3.256
  938SOL    HW1  526   1.703   3.592   3.172
  938SOL    HW2  527   1.623   3.672   3.290
  939SOL     OW  528   1.841   2.037   2.825
  939SOL    HW1  529   1.880   1.952   2.789
  939SOL    HW2  530   1.743   2.039   2.806
  941SOL     OW  531   1.194   3.474   1.893
  941SOL    HW1  532   1.200   3.381   1.930
  941SOL    HW2  533   1.135   3.474   1.813
  943SOL     OW  534   0.916   2.772   2.153
  943SOL    HW1  535   0.979   2.810   2.085
  943SOL    HW2  536   0.956   2.689   2.192
  944SOL     OW  537   1.504   3.469   1.906
  944SOL    HW1  538   1.412   3.506   1.913
  944SOL    HW2  539   1.542   3.489   1.816
  946SOL     OW  540   1.614   3.154   3.151
  946SOL    HW1  541   1.674   3.157   3.231
  946SOL    HW2  542   1.539   3.218   3.164
  947SOL     OW  543   1.039   2.960   2.558
  947SOL    HW1  544   0.969   2.913   2.612
  947SOL    HW2  545   1.098   2.892   2.515
  948SOL     OW  546   1.014   2.098   2.833
  948SOL    HW1  547   1.006   2.062   2.740
  948SOL    HW2  548   1.012   2.022   2.898
  950SOL     OW  549   1.709   2.247   3.243
  950SOL    HW1  550   1.782   2.316   3.247
  950SOL    HW2  551   1.737   2.172   3.184
  955SOL     OW  552   1.440   2.718   3.260
  955SOL    HW1  553   1.383   2.770   3.197
  955SOL    HW2  554   1.536   2.730   3.236
  957SOL     OW  555   1.183   3.197   1.981
  957SOL    HW1  556   1.084   3.186   1.983
  957SOL    HW2  557   1.217   3.212   2.074
  959SOL     OW  558   1.493   3.629   2.821
  959SOL    HW1  559   1.526   3.693   2.752
  959SOL    HW2  560   1.559   3.623   2.896
  961SOL     OW  561   1.450   3.082   3.495
  961SOL    HW1  562   1.441   3.072   3.594
  961SOL    HW2  563   1.546   3.075   3.469
  963SOL     OW  564   1.674   2.745   3.116
  963SOL    HW1  565   1.647   2.656   3.079
  963SOL    HW2  566   1.675   2.813   3.043
  964SOL     OW  567   1.225   2.187   2.311
  964SOL    HW1  568   1.290   2.113   2.300
  964SOL    HW2  569   1.245   2.237   2.395
  966SOL     OW  570   1.777   2.204   3.504
  966SOL    HW1  571   1.760   2.235   3.410
  966SOL    HW2  572   1.693   2.167   3.542
  967SOL     OW  573   1.730   2.796   3.379
  967SOL    HW1  574   1.768   2.887   3.394
  967SOL    HW2  575   1.722   2.779   3.280
  970SOL     OW  576   0.859   2.818   2.723
  970SOL    HW1  577   0.913   2.749   2.771
  970SOL    HW2  578   0.827   2.887   2.789
  971SOL     OW  579   1.083   2.846   1.949
  971SOL    HW1  580   1.060   2.899   1.867
  971SOL    HW2  581   1.164   2.790   1.930
  972SOL     OW  582   1.861   3.431   2.713
  972SOL    HW1  583   1.790   3.419   2.643
  972SOL    HW2  584   1.862   3.352   2.773
  976SOL     OW  585   1.824   2.054   3.089
  976SOL    HW1  586   1.820   1.964   3.133
  976SOL    HW2  587   1.827   2.043   2.990
  978SOL     OW  588   1.705   3.349   2.966
  978SOL    HW1  589   1.612   3.324   2.939
  978SOL    HW2  590   1.731   3.299   3.048
  981SOL     OW  591   1.424   2.076   2.974
  981SOL    HW1  592   1.476   2.011   3.029
  981SOL    HW2  593   1.375   2.139   3.035
  982SOL     OW  594   1.001   1.896   3.016
  982SOL    HW1  595   0.938   1.824   2.985
  982SOL    HW2  596   1.094   1.860   3.016
  985SOL     OW  597   1.352   1.914   2.030
  985SOL    HW1  598   1.387   1.873   1.946
  985SOL    HW2  599   1.262   1.876   2.050
  986SOL     OW  600   1.300   2.315   2.553
  986SOL    HW1  601   1.241   2.395   2.557
  986SOL    HW2  602   1.315   2.280   2.646
  987SOL     OW  603   1.593   2.083   2.744
  987SOL    HW1  604   1.509   2.082   2.798
  987SOL    HW2  605   1.595   2.166   2.688
  996SOL     OW  606   1.755   2.469   3.955
  996SOL    HW1  607   1.743   2.456   3.856
  996SOL    HW2  608   1.725   2.388   4.004
 1013SOL     OW  609   1.525   2.861   3.914
 1013SOL    HW1  610   1.462   2.785   3.927
 1013SOL    HW2  611   1.573   2.879   4.000
 1030SOL     OW  612   1.632   3.239   3.805
 1030SOL    HW1  613   1.600   3.333   3.795
 1030SOL    HW2  614   1.556   3.176   3.793
 1040SOL     OW  615   1.434   3.050   3.765
 1040SOL    HW1  616   1.466   2.974   3.822
 1040SOL    HW2  617   1.342   3.077   3.795
 1051SOL     OW  618   1.857   2.695   4.101
 1051SOL    HW1  619   1.899   2.631   4.165
 1051SOL    HW2  620   1.819   2.644   4.023
 1054SOL     OW  621   1.390   2.437   3.802
 1054SOL    HW1  622   1.336   2.416   3.883
 1054SOL    HW2  623   1.481   2.396   3.811
 1072SOL     OW  624   1.540   2.136   3.849
 1072SOL    HW1  625   1.479   2.061   3.872
 1072SOL    HW2  626   1.562   2.188   3.932
 1073SOL     OW  627   1.303   2.700   3.766
 1073SOL    HW1  628   1.337   2.607   3.781
 1073SOL    HW2  629   1.321   2.727   3.671
 1306SOL     OW  630   1.400   3.831   2.288
 1306SOL    HW1  631   1.376   3.794   2.198
 1306SOL    HW2  632   1.499   3.847   2.292
 1370SOL     OW  633   1.726   3.859   2.385
 1370SOL    HW1  634   1.799   3.842   2.318
 1370SOL    HW2  635   1.695   3.772   2.423
 1372SOL     OW  636   1.841   3.899   2.825
 1372SOL    HW1  637   1.880   3.814   2.789
 1372SOL    HW2  638   1.743   3.901   2.806
 1395SOL     OW  639   1.824   3.916   3.089
 1395SOL    HW1  640   1.820   3.826   3.133
 1395SOL    HW2  641   1.827   3.905   2.990
 1401SOL     OW  642   1.352   3.776   2.030
 1401SOL    HW1  643   1.387   3.735   1.946
 1401SOL    HW2  644   1.262   3.738   2.050
 1403SOL     OW  645   1.593   3.945   2.744
 1403SOL    HW1  646   1.509   3.944   2.798
 1403SOL    HW2  647   1.595   4.028   2.688
 1504SOL     OW  648   2.431   1.275   1.165
 1504SOL    HW1  649   2.338   1.268   1.128
 1504SOL    HW2  650   2.442   1.364   1.209
 1511SOL     OW  651   2.548   1.161   1.803
 1511SOL    HW1  652   2.608   1.240   1.817
 1511SOL    HW2  653   2.462   1.192   1.762
 1512SOL     OW  654   2.197   1.435   1.061
 1512SOL    HW1  655   2.119   1.404   1.008
 1512SOL    HW2  656   2.255   1.493   1.004
 1513SOL     OW  657   3.322   1.505   1.339
 1513SOL    HW1  658   3.346   1.599   1.365
 1513SOL    HW2  659   3.306   1.451   1.421
 1517SOL     OW  660   2.989   1.341   1.690
 1517SOL    HW1  661   3.036   1.341   1.778
 1517SOL    HW2  662   2.941   1.254   1.679
 1520SOL     OW  663   2.482   1.786   1.439
 1520SOL    HW1  664   2.390   1.769   1.474
 1520SOL    HW2  665   2.510   1.878   1.465
 1530SOL     OW  666   3.155   1.228   1.423
 1530SOL    HW1  667   3.192   1.155   1.365
 1530SOL    HW2  668   3.207   1.233   1.508
 1534SOL     OW  669   3.049   1.792   1.616
 1534SOL    HW1  670   3.073   1.852   1.540
 1534SOL    HW2  671   3.056   1.697   1.586
 1547SOL     OW  672   1.992   1.821   1.571
 1547SOL    HW1  673   1.982   1.806   1.670
 1547SOL    HW2  674   1.906   1.857   1.535
 1553SOL     OW  675   2.213   1.801   0.853
 1553SOL    HW1  676   2.263   1.715   0.859
 1553SOL    HW2  677   2.278   1.878   0.850
 1555SOL     OW  678   3.089   1.550   1.506
 1555SOL    HW1  679   3.095   1.473   1.570
 1555SOL    HW2  680   3.037   1.524   1.426
 1558SOL     OW  681   2.323   1.266   1.727
 1558SOL    HW1  682   2.273   1.267   1.641
 1558SOL    HW2  683   2.260   1.248   1.803
 1564SOL     OW  684   2.111   1.785   1.241
 1564SOL    HW1  685   2.168   1.720   1.291
 1564SOL    HW2  686   2.095   1.752   1.148
 1565SOL     OW  687   2.802   1.698   0.904
 1565SOL    HW1  688   2.882   1.641   0.925
 1565SOL    HW2  689   2.753   1.658   0.827
 1570SOL     OW  690   2.750   1.514   1.195
 1570SOL    HW1  691   2.727   1.489   1.101
 1570SOL    HW2  692   2.811   1.445   1.234
 1595SOL     OW  693   2.926   1.347   1.340
 1595SOL    HW1  694   2.846   1.324   1.395
 1595SOL    HW2  695   3.009   1.321   1.389
 1596SOL     OW  696   3.454   1.629   1.625
 1596SOL    HW1  697   3.481   1.663   1.535
 1596SOL    HW2  698   3.533   1.591   1.671
 1600SOL     OW  699   2.842   1.116   1.719
 1600SOL    HW1  700   2.743   1.122   1.729
 1600SOL    HW2  701   2.865   1.036   1.663
 1604SOL     OW  702   1.926   1.564   1.331
 1604SOL    HW1  703   1.880   1.646   1.297
 1604SOL    HW2  704   2.024   1.583   1.340
 1610SOL     OW  705   2.216   1.510   1.329
 1610SOL    HW1  706   2.195   1.466   1.242
 1610SOL    HW2  707   2.313   1.536   1.332
 1619SOL     OW  708   1.899   1.310   1.282
 1619SOL    HW1  709   1.952   1.261   1.350
 1619SOL    HW2  710   1.921   1.408   1.287
 1625SOL     OW  711   2.842   1.573   1.700
 1625SOL    HW1  712   2.822   1.617   1.612
 1625SOL    HW2  713   2.881   1.482   1.684
 1626SOL     OW  714   3.721   1.518   1.605
 1626SOL    HW1  715   3.735   1.545   1.510
 1626SOL    HW2  716   3.804   1.540   1.658
 1627SOL     OW  717   2.212   0.898   1.804
 1627SOL    HW1  718   2.288   0.942   1.852
 1627SOL    HW2  719   2.247   0.851   1.722
 1636SOL     OW  720   1.950   1.801   0.927
 1636SOL    HW1  721   1.908   1.715   0.900
 1636SOL    HW2  722   2.044   1.804   0.893
 1644SOL     OW  723   2.114   1.564   1.744
 1644SOL    HW1  724   2.084   1.621   1.820
 1644SOL    HW2  725   2.107   1.467   1.770
 1646SOL     OW  726   2.792   1.678   1.465
 1646SOL    HW1  727   2.768   1.660   1.370
 1646SOL    HW2  728   2.822   1.772   1.475
 1648SOL     OW  729   2.021   1.137   1.466
 1648SOL    HW1  730   2.043   1.076   1.542
 1648SOL    HW2  731   2.031   1.088   1.380
 1652SOL     OW  732   3.114   1.731   1.128
 1652SOL    HW1  733   3.198   1.736   1.074
 1652SOL    HW2  734   3.091   1.635   1.146
 1654SOL     OW  735   2.550   1.662   1.716
 1654SOL    HW1  736   2.494   1.743   1.725
 1654SOL    HW2  737   2.602   1.666   1.630
 1658SOL     OW  738   1.992   1.794   1.851
 1658SOL    HW1  739   1.951   1.720   1.904
 1658SOL    HW2  740   2.056   1.845   1.909
 1660SOL     OW  741   2.692   1.273   1.422
 1660SOL    HW1  742   2.687   1.306   1.517
 1660SOL    HW2  743   2.606   1.292   1.376
 1662SOL     OW  744   3.512   1.720   1.394
 1662SOL    HW1  745   3.565   1.730   1.310
 1662SOL    HW2  746   3.485   1.810   1.428
 1669SOL     OW  747   2.234   1.288   1.490
 1669SOL    HW1  748   2.221   1.381   1.456
 1669SOL    HW2  749   2.150   1.236   1.477
 1676SOL     OW  750   1.967   1.013   1.726
 1676SOL    HW1  751   1.890   0.980   1.780
 1676SOL    HW2  752   2.052   0.983   1.768
 1684SOL     OW  753   3.312   1.220   1.633
 1684SOL    HW1  754   3.303   1.210   1.732
 1684SOL    HW2  755   3.408   1.213   1.607
 1685SOL     OW  756   2.252   1.741   1.560
 1685SOL    HW1  757   2.161   1.782   1.558
 1685SOL    HW2  758   2.245   1.647   1.592
 1692SOL     OW  759   2.523   1.790   0.953
 1692SOL    HW1  760   2.477   1.878   0.940
 1692SOL    HW2  761   2.622   1.802   0.946
 1696SOL     OW  762   2.083   1.314   1.844
 1696SOL    HW1  763   2.018   1.241   1.823
 1696SOL    HW2  764   2.087   1.328   1.942
 1698SOL     OW  765   2.534   1.391   1.624
 1698SOL    HW1  766   2.456   1.341   1.662
 1698SOL    HW2  767   2.531   1.486   1.655
 1707SOL     OW  768   2.480   1.567   1.284
 1707SOL    HW1  769   2.475   1.649   1.341
 1707SOL    HW2  770   2.569   1.564   1.239
 1716SOL     OW  771   2.431   1.275   3.027
 1716SOL    HW1  772   2.338   1.268   2.990
 1716SOL    HW2  773   2.442   1.364   3.071
 1717SOL     OW  774   3.417   1.511   2.565
 1717SOL    HW1  775   3.360   1.495   2.646
 1717SOL    HW2  776   3.358   1.521   2.485
 1720SOL     OW  777   2.630   1.144   2.885
 1720SOL    HW1  778   2.552   1.161   2.945
 1720SOL    HW2  779   2.664   1.231   2.849
 1722SOL     OW  780   2.547   1.012   2.527
 1722SOL    HW1  781   2.616   0.996   2.597
 1722SOL    HW2  782   2.474   1.069   2.565
 1723SOL     OW  783   2.548   1.161   3.665
 1723SOL    HW1  784   2.608   1.240   3.679
 1723SOL    HW2  785   2.462   1.192   3.624
 1724SOL     OW  786   2.197   1.435   2.923
 1724SOL    HW1  787   2.119   1.404   2.870
 1724SOL    HW2  788   2.255   1.493   2.866
 1725SOL     OW  789   3.322   1.505   3.201
 1725SOL    HW1  790   3.346   1.599   3.227
 1725SOL    HW2  791   3.306   1.451   3.283
 1728SOL     OW  792   2.093   1.713   2.345
 1728SOL    HW1  793   2.127   1.790   2.399
 1728SOL    HW2  794   2.137   1.713   2.255
 1729SOL     OW  795   2.989   1.341   3.552
 1729SOL    HW1  796   3.036   1.341   3.640
 1729SOL    HW2  797   2.941   1.254   3.541
 1730SOL     OW  798   2.092   1.434   2.400
 1730SOL    HW1  799   2.066   1.530   2.400
 1730SOL    HW2  800   2.021   1.380   2.445
 1731SOL     OW  801   2.102   1.091   2.748
 1731SOL    HW1  802   2.116   1.007   2.800
 1731SOL    HW2  803   2.047   1.155   2.803
 1732SOL     OW  804   2.482   1.786   3.301
 1732SOL    HW1  805   2.390   1.769   3.336
 1732SOL    HW2  806   2.510   1.878   3.327
 1733SOL     OW  807   2.468   0.964   1.985
 1733SOL    HW1  808   2.475   1.048   1.931
 1733SOL    HW2  809   2.514   0.977   2.073
 1736SOL     OW  810   3.704   1.767   2.221
 1736SOL    HW1  811   3.758   1.738   2.301
 1736SOL    HW2  812   3.734   1.857   2.192
 1737SOL     OW  813   1.889   1.596   1.979
 1737SOL    HW1  814   1.870   1.500   2.000
 1737SOL    HW2  815   1.856   1.654   2.054
 1739SOL     OW  816   3.503   1.108   2.294
 1739SOL    HW1  817   3.589   1.110   2.242
 1739SOL    HW2  818   3.517   1.155   2.382
 1741SOL     OW  819   2.475   1.365   2.588
 1741SOL    HW1  820   2.426   1.278   2.597
 1741SOL    HW2  821   2.452   1.408   2.501
 1742SOL     OW  822   3.155   1.228   3.285
 1742SOL    HW1  823   3.192   1.155   3.227
 1742SOL    HW2  824   3.207   1.233   3.370
 1744SOL     OW  825   2.059   0.976   3.126
 1744SOL    HW1  826   2.148   0.931   3.112
 1744SOL    HW2  827   1.986   0.911   3.107
 1745SOL     OW  828   3.387   0.999   2.052
 1745SOL    HW1  829   3.324   0.923   2.065
 1745SOL    HW2  830   3.435   1.017   2.138
 1746SOL     OW  831   3.049   1.792   3.478
 1746SOL    HW1  832   3.073   1.852   3.402
 1746SOL    HW2  833   3.056   1.697   3.448
 1748SOL     OW  834   3.328   1.417   2.815
 1748SOL    HW1  835   3.269   1.423   2.895
 1748SOL    HW2  836   3.313   1.329   2.769
 1749SOL     OW  837   3.529   1.714   2.434
 1749SOL    HW1  838   3.488   1.691   2.346
 1749SOL    HW2  839   3.511   1.640   2.499
 1750SOL     OW  840   2.460   0.729   2.132
 1750SOL    HW1  841   2.484   0.798   2.064
 1750SOL    HW2  842   2.382   0.762   2.186
 1752SOL     OW  843   3.438   1.662   2.169
 1752SOL    HW1  844   3.527   1.708   2.172
 1752SOL    HW2  845   3.417   1.638   2.074
 1758SOL     OW  846   1.938   0.811   2.651
 1758SOL    HW1  847   2.037   0.799   2.660
 1758SOL    HW2  848   1.914   0.906   2.672
 1759SOL     OW  849   1.992   1.821   3.433
 1759SOL    HW1  850   1.982   1.806   3.532
 1759SOL    HW2  851   1.906   1.857   3.397
 1762SOL     OW  852   3.224   1.144   2.407
 1762SOL    HW1  853   3.307   1.115   2.359
 1762SOL    HW2  854   3.175   1.211   2.351
 1764SOL     OW  855   2.870   1.456   2.339
 1764SOL    HW1  856   2.824   1.528   2.287
 1764SOL    HW2  857   2.866   1.476   2.437
 1765SOL     OW  858   2.213   1.801   2.715
 1765SOL    HW1  859   2.263   1.715   2.721
 1765SOL    HW2  860   2.278   1.878   2.712
 1767SOL     OW  861   3.089   1.550   3.368
 1767SOL    HW1  862   3.095   1.473   3.432
 1767SOL    HW2  863   3.037   1.524   3.288
 1768SOL     OW  864   2.183   0.943   2.104
 1768SOL    HW1  865   2.265   0.982   2.062
 1768SOL    HW2  866   2.156   0.861   2.055
 1770SOL     OW  867   2.323   1.266   3.589
 1770SOL    HW1  868   2.273   1.267   3.503
 1770SOL    HW2  869   2.260   1.248   3.665
 1771SOL     OW  870   2.973   1.776   2.099
 1771SOL    HW1  871   2.913   1.714   2.149
 1771SOL    HW2  872   3.004   1.732   2.014
 1773SOL     OW  873   3.494   1.377   1.943
 1773SOL    HW1  874   3.462   1.471   1.933
 1773SOL    HW2  875   3.418   1.314   1.931
 1774SOL     OW  876   2.326   1.743   2.185
 1774SOL    HW1  877   2.359   1.782   2.271
 1774SOL    HW2  878   2.402   1.736   2.120
 1776SOL     OW  879   2.111   1.785   3.103
 1776SOL    HW1  880   2.168   1.720   3.153
 1776SOL    HW2  881   2.095   1.752   3.010
 1777SOL     OW  882   2.802   1.698   2.766
 1777SOL    HW1  883   2.882   1.641   2.787
 1777SOL    HW2  884   2.753   1.658   2.689
 1778SOL     OW  885   2.244   0.700   2.342
 1778SOL    HW1  886   2.289   0.610   2.339
 1778SOL    HW2  887   2.150   0.689   2.375
 1782SOL     OW  888   2.750   1.514   3.057
 1782SOL    HW1  889   2.727   1.489   2.963
 1782SOL    HW2  890   2.811   1.445   3.096
 1784SOL     OW  891   2.665   1.402   2.786
 1784SOL    HW1  892   2.755   1.416   2.744
 1784SOL    HW2  893   2.594   1.404   2.715
 1787SOL     OW  894   3.296   1.188   1.903
 1787SOL    HW1  895   3.328   1.112   1.960
 1787SOL    HW2  896   3.204   1.215   1.933
 1791SOL     OW  897   3.089   1.570   2.655
 1791SOL    HW1  898   3.110   1.644   2.590
 1791SOL    HW2  899   3.157   1.570   2.728
 1792SOL     OW  900   2.321   1.152   2.603
 1792SOL    HW1  901   2.250   1.125   2.668
 1792SOL    HW2  902   2.295   1.124   2.510
 1793SOL     OW  903   3.133   1.797   2.453
 1793SOL    HW1  904   3.177   1.861   2.389
 1793SOL    HW2  905   3.083   1.849   2.523
 1799SOL     OW  906   3.291   1.173   2.729
 1799SOL    HW1  907   3.236   1.089   2.722
 1799SOL    HW2  908   3.317   1.202   2.637
 1802SOL     OW  909   2.350   1.385   2.036
 1802SOL    HW1  910   2.263   1.370   2.083
 1802SOL    HW2  911   2.333   1.411   1.941
 1803SOL     OW  912   3.526   1.280   2.519
 1803SOL    HW1  913   3.625   1.288   2.533
 1803SOL    HW2  914   3.481   1.364   2.550
 1807SOL     OW  915   2.926   1.347   3.202
 1807SOL    HW1  916   2.846   1.324   3.257
 1807SOL    HW2  917   3.009   1.321   3.251
 1808SOL     OW  918   3.454   1.629   3.487
 1808SOL    HW1  919   3.481   1.663   3.397
 1808SOL    HW2  920   3.533   1.591   3.533
 1809SOL     OW  921   2.973   1.195   2.962
 1809SOL    HW1  922   2.933   1.239   3.043
 1809SOL    HW2  923   2.932   1.232   2.879
 1810SOL     OW  924   3.500   1.099   2.941
 1810SOL    HW1  925   3.505   1.180   3.000
 1810SOL    HW2  926   3.414   1.101   2.890
 1812SOL     OW  927   2.842   1.116   3.581
 1812SOL    HW1  928   2.743   1.122   3.591
 1812SOL    HW2  929   2.865   1.036   3.525
 1813SOL     OW  930   2.567   1.050   2.230
 1813SOL    HW1  931   2.553   1.057   2.329
 1813SOL    HW2  932   2.651   0.999   2.212
 1814SOL     OW  933   2.272   0.813   3.113
 1814SOL    HW1  934   2.358   0.825   3.163
 1814SOL    HW2  935   2.230   0.726   3.140
 1816SOL     OW  936   1.926   1.564   3.193
 1816SOL    HW1  937   1.880   1.646   3.159
 1816SOL    HW2  938   2.024   1.583   3.202
 1817SOL     OW  939   2.229   1.100   2.363
 1817SOL    HW1  940   2.222   1.183   2.307
 1817SOL    HW2  941   2.233   1.020   2.303
 1819SOL     OW  942   3.114   1.348   2.250
 1819SOL    HW1  943   3.164   1.425   2.290
 1819SOL    HW2  944   3.019   1.350   2.282
 1820SOL     OW  945   3.134   1.445   3.004
 1820SOL    HW1  946   3.181   1.458   3.091
 1820SOL    HW2  947   3.068   1.371   3.013
 1822SOL     OW  948   2.216   1.510   3.191
 1822SOL    HW1  949   2.195   1.466   3.104
 1822SOL    HW2  950   2.313   1.536   3.194
 1827SOL     OW  951   2.435   0.870   2.891
 1827SOL    HW1  952   2.479   0.959   2.882
 1827SOL    HW2  953   2.372   0.870   2.968
 1831SOL     OW  954   1.899   1.310   3.144
 1831SOL    HW1  955   1.952   1.261   3.212
 1831SOL    HW2  956   1.921   1.408   3.149
 1836SOL     OW  957   2.885   0.766   2.828
 1836SOL    HW1  958   2.900   0.787   2.924
 1836SOL    HW2  959   2.855   0.671   2.819
 1837SOL     OW  960   2.842   1.573   3.562
 1837SOL    HW1  961   2.822   1.617   3.474
 1837SOL    HW2  962   2.881   1.482   3.546
 1842SOL     OW  963   2.930   1.333   2.711
 1842SOL    HW1  964   2.937   1.249   2.656
 1842SOL    HW2  965   2.992   1.402   2.675
 1843SOL     OW  966   2.181   0.810   2.811
 1843SOL    HW1  967   2.274   0.846   2.816
 1843SOL    HW2  968   2.175   0.725   2.863
 1847SOL     OW  969   1.870   1.326   2.062
 1847SOL    HW1  970   1.777   1.347   2.031
 1847SOL    HW2  971   1.880   1.227   2.075
 1848SOL     OW  972   1.950   1.801   2.789
 1848SOL    HW1  973   1.908   1.715   2.762
 1848SOL    HW2  974   2.044   1.804   2.755
 1849SOL     OW  975   2.366   1.568   2.772
 1849SOL    HW1  976   2.432   1.642   2.781
 1849SOL    HW2  977   2.410   1.489   2.730
 1856SOL     OW  978   2.114   1.564   3.606
 1856SOL    HW1  979   2.084   1.621   3.682
 1856SOL    HW2  980   2.107   1.467   3.632
 1858SOL     OW  981   2.792   1.678   3.327
 1858SOL    HW1  982   2.768   1.660   3.232
 1858SOL    HW2  983   2.822   1.772   3.337
 1860SOL     OW  984   2.021   1.137   3.328
 1860SOL    HW1  985   2.043   1.076   3.404
 1860SOL    HW2  986   2.031   1.088   3.242
 1861SOL     OW  987   3.209   1.059   3.096
 1861SOL    HW1  988   3.233   0.996   3.022
 1861SOL    HW2  989   3.119   1.099   3.078
 1862SOL     OW  990   3.164   0.855   2.171
 1862SOL    HW1  991   3.078   0.824   2.213
 1862SOL    HW2  992   3.160   0.841   2.072
 1863SOL     OW  993   3.621   1.747   3.016
 1863SOL    HW1  994   3.682   1.777   2.943
 1863SOL    HW2  995   3.583   1.658   2.994
 1864SOL     OW  996   3.114   1.731   2.990
 1864SOL    HW1  997   3.198   1.736   2.936
 1864SOL    HW2  998   3.091   1.635   3.008
 1865SOL     OW  999   1.945   1.258   2.884
 1865SOL    HW1 1000   1.940   1.257   2.984
 1865SOL    HW2 1001   1.862   1.217   2.846
 1866SOL     OW 1002   2.550   1.662   3.578
 1866SOL    HW1 1003   2.494   1.743   3.587
 1866SOL    HW2 1004   2.602   1.666   3.492
 1868SOL     OW 1005   3.250   1.573   2.339
 1868SOL    HW1 1006   3.317   1.585   2.265
 1868SOL    HW2 1007   3.210   1.662   2.362
 1869SOL     OW 1008   1.992   1.794   3.713
 1869SOL    HW1 1009   1.951   1.720   3.766
 1869SOL    HW2 1010   2.056   1.845   3.771
 1870SOL     OW 1011   3.142   0.927   2.534
 1870SOL    HW1 1012   3.202   0.846   2.536
 1870SOL    HW2 1013   3.182   0.996   2.474
 1871SOL     OW 1014   2.692   1.273   3.284
 1871SOL    HW1 1015   2.687   1.306   3.379
 1871SOL    HW2 1016   2.606   1.292   3.238
 1872SOL     OW 1017   2.534   1.616   2.016
 1872SOL    HW1 1018   2.543   1.626   1.917
 1872SOL    HW2 1019   2.494   1.527   2.037
 1873SOL     OW 1020   3.512   1.720   3.256
 1873SOL    HW1 1021   3.565   1.730   3.172
 1873SOL    HW2 1022   3.485   1.810   3.290
 1876SOL     OW 1023   3.056   1.612   1.893
 1876SOL    HW1 1024   3.062   1.519   1.930
 1876SOL    HW2 1025   2.997   1.612   1.813
 1877SOL     OW 1026   2.684   1.002   3.234
 1877SOL    HW1 1027   2.724   1.001   3.142
 1877SOL    HW2 1028   2.694   1.094   3.274
 1878SOL     OW 1029   2.778   0.910   2.153
 1878SOL    HW1 1030   2.841   0.948   2.085
 1878SOL    HW2 1031   2.818   0.827   2.192
 1879SOL     OW 1032   3.366   1.607   1.906
 1879SOL    HW1 1033   3.274   1.644   1.913
 1879SOL    HW2 1034   3.404   1.627   1.816
 1880SOL     OW 1035   2.234   1.288   3.352
 1880SOL    HW1 1036   2.221   1.381   3.318
 1880SOL    HW2 1037   2.150   1.236   3.339
 1881SOL     OW 1038   3.476   1.292   3.151
 1881SOL    HW1 1039   3.536   1.295   3.231
 1881SOL    HW2 1040   3.401   1.356   3.164
 1882SOL     OW 1041   2.901   1.098   2.558
 1882SOL    HW1 1042   2.831   1.051   2.612
 1882SOL    HW2 1043   2.960   1.030   2.515
 1884SOL     OW 1044   2.452   1.487   2.353
 1884SOL    HW1 1045   2.494   1.429   2.283
 1884SOL    HW2 1046   2.408   1.566   2.309
 1886SOL     OW 1047   2.117   1.348   2.152
 1886SOL    HW1 1048   2.021   1.349   2.125
 1886SOL    HW2 1049   2.129   1.401   2.236
 1892SOL     OW 1050   3.045   1.335   1.981
 1892SOL    HW1 1051   2.946   1.324   1.983
 1892SOL    HW2 1052   3.079   1.350   2.074
 1894SOL     OW 1053   3.355   1.767   2.821
 1894SOL    HW1 1054   3.388   1.831   2.752
 1894SOL    HW2 1055   3.421   1.761   2.896
 1897SOL     OW 1056   2.252   1.741   3.422
 1897SOL    HW1 1057   2.161   1.782   3.420
 1897SOL    HW2 1058   2.245   1.647   3.454
 1900SOL     OW 1059   2.456   0.745   2.514
 1900SOL    HW1 1060   2.506   0.830   2.495
 1900SOL    HW2 1061   2.368   0.747   2.466
 1903SOL     OW 1062   2.721   1.374   1.878
 1903SOL    HW1 1063   2.675   1.389   1.966
 1903SOL    HW2 1064   2.765   1.459   1.848
 1904SOL     OW 1065   2.523   1.790   2.815
 1904SOL    HW1 1066   2.477   1.878   2.802
 1904SOL    HW2 1067   2.622   1.802   2.808
 1905SOL     OW 1068   2.721   0.956   2.723
 1905SOL    HW1 1069   2.775   0.887   2.771
 1905SOL    HW2 1070   2.689   1.025   2.789
 1906SOL     OW 1071   2.945   0.984   1.949
 1906SOL    HW1 1072   2.922   1.037   1.867
 1906SOL    HW2 1073   3.026   0.928   1.930
 1907SOL     OW 1074   3.723   1.569   2.713
 1907SOL    HW1 1075   3.652   1.557   2.643
 1907SOL    HW2 1076   3.724   1.490   2.773
 1908SOL     OW 1077   2.083   1.314   3.706
 1908SOL    HW1 1078   2.018   1.241   3.685
 1908SOL    HW2 1079   2.087   1.328   3.804
 1909SOL     OW 1080   1.941   1.240   2.515
 1909SOL    HW1 1081   1.940   1.193   2.603
 1909SOL    HW2 1082   2.023   1.212   2.464
 1910SOL     OW 1083   2.534   1.391   3.486
 1910SOL    HW1 1084   2.456   1.341   3.524
 1910SOL    HW2 1085   2.531   1.486   3.517
 1913SOL     OW 1086   3.567   1.487   2.966
 1913SOL    HW1 1087   3.474   1.462   2.939
 1913SOL    HW2 1088   3.593   1.437   3.048
 1915SOL     OW 1089   2.674   1.586   2.549
 1915SOL    HW1 1090   2.706   1.596   2.455
 1915SOL    HW2 1091   2.595   1.524   2.551
 1918SOL     OW 1092   2.632   1.330   2.163
 1918SOL    HW1 1093   2.586   1.243   2.180
 1918SOL    HW2 1094   2.723   1.327   2.204
 1919SOL     OW 1095   2.480   1.567   3.146
 1919SOL    HW1 1096   2.475   1.649   3.203
 1919SOL    HW2 1097   2.569   1.564   3.101
 1923SOL     OW 1098   1.901   1.077   2.162
 1923SOL    HW1 1099   2.000   1.066   2.153
 1923SOL    HW2 1100   1.861   0.991   2.194
 1924SOL     OW 1101   2.737   1.646   2.199
 1924SOL    HW1 1102   2.660   1.611   2.145
 1924SOL    HW2 1103   2.705   1.717   2.261
 1942SOL     OW 1104   1.889   1.596   3.841
 1942SOL    HW1 1105   1.870   1.500   3.862
 1942SOL    HW2 1106   1.856   1.654   3.916
 1964SOL     OW 1107   2.973   1.776   3.961
 1964SOL    HW1 1108   2.913   1.714   4.011
 1964SOL    HW2 1109   3.004   1.732   3.876
 1966SOL     OW 1110   2.326   1.743   4.047
 1966SOL    HW1 1111   2.359   1.782   4.133
 1966SOL    HW2 1112   2.402   1.736   3.982
 1987SOL     OW 1113   2.350   1.385   3.898
 1987SOL    HW1 1114   2.263   1.370   3.945
 1987SOL    HW2 1115   2.333   1.411   3.803
 2027SOL     OW 1116   2.534   1.616   3.878
 2027SOL    HW1 1117   2.543   1.626   3.779
 2027SOL    HW2 1118   2.494   1.527   3.899
 2030SOL     OW 1119   3.056   1.612   3.755
 2030SOL    HW1 1120   3.062   1.519   3.792
 2030SOL    HW2 1121   2.997   1.612   3.675
 2033SOL     OW 1122   3.366   1.607   3.768
 2033SOL    HW1 1123   3.274   1.644   3.775
 2033SOL    HW2 1124   3.404   1.627   3.678
 2046SOL     OW 1125   2.721   1.374   3.740
 2046SOL    HW1 1126   2.675   1.389   3.828
 2046SOL    HW2 1127   2.765   1.459   3.710
 2064SOL     OW 1128   2.087   2.137   0.996
 2064SOL    HW1 1129   2.122   2.120   1.088
 2064SOL    HW2 1130   1.999   2.092   0.984
 2066SOL     OW 1131   2.431   3.137   1.165
 2066SOL    HW1 1132   2.338   3.130   1.128
 2066SOL    HW2 1133   2.442   3.226   1.209
 2070SOL     OW 1134   2.630   3.006   1.023
 2070SOL    HW1 1135   2.552   3.023   1.083
 2070SOL    HW2 1136   2.664   3.093   0.987
 2071SOL     OW 1137   2.712   2.660   1.823
 2071SOL    HW1 1138   2.708   2.736   1.888
 2071SOL    HW2 1139   2.734   2.696   1.732
 2073SOL     OW 1140   2.548   3.023   1.803
 2073SOL    HW1 1141   2.608   3.102   1.817
 2073SOL    HW2 1142   2.462   3.054   1.762
 2074SOL     OW 1143   2.197   3.297   1.061
 2074SOL    HW1 1144   2.119   3.266   1.008
 2074SOL    HW2 1145   2.255   3.355   1.004
 2075SOL     OW 1146   3.322   3.367   1.339
 2075SOL    HW1 1147   3.346   3.461   1.365
 2075SOL    HW2 1148   3.306   3.313   1.421
 2076SOL     OW 1149   2.300   2.254   1.499
 2076SOL    HW1 1150   2.382   2.198   1.508
 2076SOL    HW2 1151   2.219   2.196   1.503
 2079SOL     OW 1152   2.989   3.203   1.690
 2079SOL    HW1 1153   3.036   3.203   1.778
 2079SOL    HW2 1154   2.941   3.116   1.679
 2081SOL     OW 1155   2.102   2.953   0.886
 2081SOL    HW1 1156   2.116   2.869   0.938
 2081SOL    HW2 1157   2.047   3.017   0.941
 2082SOL     OW 1158   2.482   3.648   1.439
 2082SOL    HW1 1159   2.390   3.631   1.474
 2082SOL    HW2 1160   2.510   3.740   1.465
 2084SOL     OW 1161   3.456   1.976   1.480
 2084SOL    HW1 1162   3.438   2.043   1.408
 2084SOL    HW2 1163   3.453   2.022   1.569
 2090SOL     OW 1164   1.975   2.599   1.597
 2090SOL    HW1 1165   2.063   2.586   1.642
 2090SOL    HW2 1166   1.962   2.696   1.575
 2092SOL     OW 1167   3.155   3.090   1.423
 2092SOL    HW1 1168   3.192   3.017   1.365
 2092SOL    HW2 1169   3.207   3.095   1.508
 2094SOL     OW 1170   2.059   2.838   1.264
 2094SOL    HW1 1171   2.148   2.793   1.250
 2094SOL    HW2 1172   1.986   2.773   1.245
 2096SOL     OW 1173   3.049   3.654   1.616
 2096SOL    HW1 1174   3.073   3.714   1.540
 2096SOL    HW2 1175   3.056   3.559   1.586
 2097SOL     OW 1176   2.179   2.113   1.801
 2097SOL    HW1 1177   2.250   2.184   1.807
 2097SOL    HW2 1178   2.091   2.152   1.829
 2101SOL     OW 1179   3.143   2.207   0.944
 2101SOL    HW1 1180   3.057   2.157   0.931
 2101SOL    HW2 1181   3.205   2.153   1.000
 2103SOL     OW 1182   2.669   2.467   1.465
 2103SOL    HW1 1183   2.622   2.464   1.554
 2103SOL    HW2 1184   2.618   2.412   1.399
 2104SOL     OW 1185   3.256   2.331   1.674
 2104SOL    HW1 1186   3.236   2.374   1.762
 2104SOL    HW2 1187   3.334   2.269   1.683
 2105SOL     OW 1188   2.835   2.752   1.572
 2105SOL    HW1 1189   2.881   2.668   1.543
 2105SOL    HW2 1190   2.779   2.786   1.497
 2106SOL     OW 1191   2.853   2.272   1.242
 2106SOL    HW1 1192   2.776   2.306   1.296
 2106SOL    HW2 1193   2.819   2.221   1.163
 2108SOL     OW 1194   1.938   2.673   0.789
 2108SOL    HW1 1195   2.037   2.661   0.798
 2108SOL    HW2 1196   1.914   2.768   0.810
 2109SOL     OW 1197   1.992   3.683   1.571
 2109SOL    HW1 1198   1.982   3.668   1.670
 2109SOL    HW2 1199   1.906   3.719   1.535
 2111SOL     OW 1200   3.581   2.447   1.831
 2111SOL    HW1 1201   3.555   2.536   1.795
 2111SOL    HW2 1202   3.579   2.379   1.758
 2113SOL     OW 1203   2.412   2.058   0.885
 2113SOL    HW1 1204   2.407   2.053   0.985
 2113SOL    HW2 1205   2.414   2.154   0.856
 2117SOL     OW 1206   3.089   3.412   1.506
 2117SOL    HW1 1207   3.095   3.335   1.570
 2117SOL    HW2 1208   3.037   3.386   1.426
 2120SOL     OW 1209   2.323   3.128   1.727
 2120SOL    HW1 1210   2.273   3.129   1.641
 2120SOL    HW2 1211   2.260   3.110   1.803
 2122SOL     OW 1212   2.064   2.147   1.498
 2122SOL    HW1 1213   1.984   2.207   1.485
 2122SOL    HW2 1214   2.054   2.098   1.584
 2126SOL     OW 1215   2.111   3.647   1.241
 2126SOL    HW1 1216   2.168   3.582   1.291
 2126SOL    HW2 1217   2.095   3.614   1.148
 2129SOL     OW 1218   3.409   2.084   1.729
 2129SOL    HW1 1219   3.404   2.121   1.821
 2129SOL    HW2 1220   3.337   2.015   1.717
 2131SOL     OW 1221   2.643   2.126   1.749
 2131SOL    HW1 1222   2.710   2.065   1.792
 2131SOL    HW2 1223   2.570   2.145   1.814
 2132SOL     OW 1224   2.750   3.376   1.195
 2132SOL    HW1 1225   2.727   3.351   1.101
 2132SOL    HW2 1226   2.811   3.307   1.234
 2133SOL     OW 1227   3.213   2.452   1.433
 2133SOL    HW1 1228   3.241   2.409   1.518
 2133SOL    HW2 1229   3.238   2.548   1.434
 2134SOL     OW 1230   2.665   3.264   0.924
 2134SOL    HW1 1231   2.755   3.278   0.882
 2134SOL    HW2 1232   2.594   3.266   0.853
 2135SOL     OW 1233   2.784   2.365   0.899
 2135SOL    HW1 1234   2.759   2.356   0.803
 2135SOL    HW2 1235   2.832   2.283   0.930
 2140SOL     OW 1236   2.938   2.545   1.464
 2140SOL    HW1 1237   2.858   2.484   1.467
 2140SOL    HW2 1238   3.019   2.492   1.440
 2145SOL     OW 1239   1.940   2.418   1.386
 2145SOL    HW1 1240   2.032   2.417   1.345
 2145SOL    HW2 1241   1.934   2.492   1.453
 2146SOL     OW 1242   2.423   2.084   1.147
 2146SOL    HW1 1243   2.461   2.000   1.184
 2146SOL    HW2 1244   2.335   2.103   1.191
 2150SOL     OW 1245   3.328   2.452   0.992
 2150SOL    HW1 1246   3.298   2.357   0.999
 2150SOL    HW2 1247   3.401   2.468   1.058
 2156SOL     OW 1248   3.616   3.085   1.588
 2156SOL    HW1 1249   3.707   3.046   1.575
 2156SOL    HW2 1250   3.624   3.181   1.612
 2157SOL     OW 1251   2.926   3.209   1.340
 2157SOL    HW1 1252   2.846   3.186   1.395
 2157SOL    HW2 1253   3.009   3.183   1.389
 2158SOL     OW 1254   3.454   3.491   1.625
 2158SOL    HW1 1255   3.481   3.525   1.535
 2158SOL    HW2 1256   3.533   3.453   1.671
 2159SOL     OW 1257   2.973   3.057   1.100
 2159SOL    HW1 1258   2.933   3.101   1.181
 2159SOL    HW2 1259   2.932   3.094   1.017
 2160SOL     OW 1260   3.500   2.961   1.079
 2160SOL    HW1 1261   3.505   3.042   1.138
 2160SOL    HW2 1262   3.414   2.963   1.028
 2161SOL     OW 1263   2.777   1.951   1.402
 2161SOL    HW1 1264   2.802   1.931   1.307
 2161SOL    HW2 1265   2.849   2.007   1.444
 2162SOL     OW 1266   2.842   2.978   1.719
 2162SOL    HW1 1267   2.743   2.984   1.729
 2162SOL    HW2 1268   2.865   2.898   1.663
 2164SOL     OW 1269   2.272   2.675   1.251
 2164SOL    HW1 1270   2.358   2.687   1.301
 2164SOL    HW2 1271   2.230   2.588   1.278
 2165SOL     OW 1272   3.136   2.248   1.262
 2165SOL    HW1 1273   3.157   2.322   1.326
 2165SOL    HW2 1274   3.047   2.265   1.219
 2166SOL     OW 1275   1.926   3.426   1.331
 2166SOL    HW1 1276   1.880   3.508   1.297
 2166SOL    HW2 1277   2.024   3.445   1.340
 2168SOL     OW 1278   2.428   2.399   0.865
 2168SOL    HW1 1279   2.440   2.465   0.791
 2168SOL    HW2 1280   2.474   2.433   0.948
 2170SOL     OW 1281   3.134   3.307   1.142
 2170SOL    HW1 1282   3.181   3.320   1.229
 2170SOL    HW2 1283   3.068   3.233   1.151
 2172SOL     OW 1284   2.216   3.372   1.329
 2172SOL    HW1 1285   2.195   3.328   1.242
 2172SOL    HW2 1286   2.313   3.398   1.332
 2173SOL     OW 1287   2.264   2.613   1.598
 2173SOL    HW1 1288   2.332   2.668   1.551
 2173SOL    HW2 1289   2.304   2.525   1.625
 2174SOL     OW 1290   3.449   2.641   1.670
 2174SOL    HW1 1291   3.357   2.679   1.665
 2174SOL    HW2 1292   3.509   2.688   1.605
 2175SOL     OW 1293   2.875   1.967   1.770
 2175SOL    HW1 1294   2.881   2.052   1.718
 2175SOL    HW2 1295   2.907   1.891   1.713
 2176SOL     OW 1296   2.366   1.912   1.740
 2176SOL    HW1 1297   2.324   1.855   1.670
 2176SOL    HW2 1298   2.300   1.981   1.772
 2177SOL     OW 1299   2.435   2.732   1.029
 2177SOL    HW1 1300   2.479   2.821   1.020
 2177SOL    HW2 1301   2.372   2.732   1.106
 2178SOL     OW 1302   3.222   2.724   1.045
 2178SOL    HW1 1303   3.147   2.724   0.979
 2178SOL    HW2 1304   3.259   2.632   1.054
 2180SOL     OW 1305   2.169   2.075   1.231
 2180SOL    HW1 1306   2.146   2.112   1.321
 2180SOL    HW2 1307   2.139   1.980   1.225
 2181SOL     OW 1308   1.899   3.172   1.282
 2181SOL    HW1 1309   1.952   3.123   1.350
 2181SOL    HW2 1310   1.921   3.270   1.287
 2182SOL     OW 1311   2.594   2.496   1.064
 2182SOL    HW1 1312   2.653   2.470   0.988
 2182SOL    HW2 1313   2.566   2.592   1.053
 2183SOL     OW 1314   3.590   2.797   1.854
 2183SOL    HW1 1315   3.544   2.790   1.765
 2183SOL    HW2 1316   3.528   2.841   1.920
 2186SOL     OW 1317   2.885   2.628   0.966
 2186SOL    HW1 1318   2.900   2.649   1.062
 2186SOL    HW2 1319   2.855   2.533   0.957
 2187SOL     OW 1320   2.842   3.435   1.700
 2187SOL    HW1 1321   2.822   3.479   1.612
 2187SOL    HW2 1322   2.881   3.344   1.684
 2188SOL     OW 1323   3.721   3.380   1.605
 2188SOL    HW1 1324   3.735   3.407   1.510
 2188SOL    HW2 1325   3.804   3.402   1.658
 2189SOL     OW 1326   2.212   2.760   1.804
 2189SOL    HW1 1327   2.288   2.804   1.852
 2189SOL    HW2 1328   2.247   2.713   1.722
 2193SOL     OW 1329   2.181   2.672   0.949
 2193SOL    HW1 1330   2.274   2.708   0.954
 2193SOL    HW2 1331   2.175   2.587   1.001
 2194SOL     OW 1332   2.201   2.371   1.006
 2194SOL    HW1 1333   2.149   2.288   0.989
 2194SOL    HW2 1334   2.278   2.376   0.942
 2195SOL     OW 1335   3.000   2.242   1.678
 2195SOL    HW1 1336   2.955   2.305   1.742
 2195SOL    HW2 1337   3.093   2.273   1.661
 2196SOL     OW 1338   3.022   2.069   1.477
 2196SOL    HW1 1339   3.022   2.133   1.554
 2196SOL    HW2 1340   3.050   2.117   1.394
 2200SOL     OW 1341   2.864   2.658   1.238
 2200SOL    HW1 1342   2.905   2.626   1.324
 2200SOL    HW2 1343   2.768   2.631   1.235
 2201SOL     OW 1344   1.902   2.406   1.114
 2201SOL    HW1 1345   1.987   2.373   1.073
 2201SOL    HW2 1346   1.915   2.421   1.212
 2202SOL     OW 1347   2.051   2.382   1.722
 2202SOL    HW1 1348   2.110   2.342   1.652
 2202SOL    HW2 1349   1.993   2.453   1.681
 2203SOL     OW 1350   3.231   2.812   1.660
 2203SOL    HW1 1351   3.270   2.901   1.680
 2203SOL    HW2 1352   3.241   2.792   1.563
 2205SOL     OW 1353   3.519   2.466   1.206
 2205SOL    HW1 1354   3.481   2.397   1.268
 2205SOL    HW2 1355   3.601   2.430   1.162
 2206SOL     OW 1356   2.114   3.426   1.744
 2206SOL    HW1 1357   2.084   3.483   1.820
 2206SOL    HW2 1358   2.107   3.329   1.770
 2207SOL     OW 1359   2.533   2.326   1.269
 2207SOL    HW1 1360   2.499   2.237   1.239
 2207SOL    HW2 1361   2.559   2.380   1.189
 2208SOL     OW 1362   2.792   3.540   1.465
 2208SOL    HW1 1363   2.768   3.522   1.370
 2208SOL    HW2 1364   2.822   3.634   1.475
 2210SOL     OW 1365   2.021   2.999   1.466
 2210SOL    HW1 1366   2.043   2.938   1.542
 2210SOL    HW2 1367   2.031   2.950   1.380
 2211SOL     OW 1368   3.209   2.921   1.234
 2211SOL    HW1 1369   3.233   2.858   1.160
 2211SOL    HW2 1370   3.119   2.961   1.216
 2215SOL     OW 1371   1.945   3.120   1.022
 2215SOL    HW1 1372   1.940   3.119   1.122
 2215SOL    HW2 1373   1.862   3.079   0.984
 2216SOL     OW 1374   2.550   3.524   1.716
 2216SOL    HW1 1375   2.494   3.605   1.725
 2216SOL    HW2 1376   2.602   3.528   1.630
 2220SOL     OW 1377   1.992   3.656   1.851
 2220SOL    HW1 1378   1.951   3.582   1.904
 2220SOL    HW2 1379   2.056   3.707   1.909
 2222SOL     OW 1380   2.692   3.135   1.422
 2222SOL    HW1 1381   2.687   3.168   1.517
 2222SOL    HW2 1382   2.606   3.154   1.376
 2228SOL     OW 1383   2.684   2.864   1.372
 2228SOL    HW1 1384   2.724   2.863   1.280
 2228SOL    HW2 1385   2.694   2.956   1.412
 2231SOL     OW 1386   2.234   3.150   1.490
 2231SOL    HW1 1387   2.221   3.243   1.456
 2231SOL    HW2 1388   2.150   3.098   1.477
 2232SOL     OW 1389   3.476   3.154   1.289
 2232SOL    HW1 1390   3.536   3.157   1.369
 2232SOL    HW2 1391   3.401   3.218   1.302
 2234SOL     OW 1392   2.876   2.098   0.971
 2234SOL    HW1 1393   2.868   2.062   0.878
 2234SOL    HW2 1394   2.874   2.022   1.036
 2236SOL     OW 1395   3.571   2.247   1.381
 2236SOL    HW1 1396   3.644   2.316   1.385
 2236SOL    HW2 1397   3.599   2.172   1.322
 2238SOL     OW 1398   1.967   2.875   1.726
 2238SOL    HW1 1399   1.890   2.842   1.780
 2238SOL    HW2 1400   2.052   2.845   1.768
 2239SOL     OW 1401   2.534   2.065   1.489
 2239SOL    HW1 1402   2.624   2.049   1.449
 2239SOL    HW2 1403   2.542   2.070   1.588
 2240SOL     OW 1404   3.302   2.718   1.398
 2240SOL    HW1 1405   3.245   2.770   1.335
 2240SOL    HW2 1406   3.398   2.730   1.374
 2243SOL     OW 1407   2.475   2.704   1.431
 2243SOL    HW1 1408   2.531   2.785   1.414
 2243SOL    HW2 1409   2.534   2.624   1.434
 2245SOL     OW 1410   2.578   2.427   1.708
 2245SOL    HW1 1411   2.597   2.492   1.782
 2245SOL    HW2 1412   2.638   2.347   1.717
 2246SOL     OW 1413   3.312   3.082   1.633
 2246SOL    HW1 1414   3.303   3.072   1.732
 2246SOL    HW2 1415   3.408   3.075   1.607
 2247SOL     OW 1416   2.252   3.603   1.560
 2247SOL    HW1 1417   2.161   3.644   1.558
 2247SOL    HW2 1418   2.245   3.509   1.592
 2248SOL     OW 1419   3.536   2.745   1.254
 2248SOL    HW1 1420   3.509   2.656   1.217
 2248SOL    HW2 1421   3.537   2.813   1.181
 2251SOL     OW 1422   3.639   2.204   1.642
 2251SOL    HW1 1423   3.622   2.235   1.548
 2251SOL    HW2 1424   3.555   2.167   1.680
 2252SOL     OW 1425   3.592   2.796   1.517
 2252SOL    HW1 1426   3.630   2.887   1.532
 2252SOL    HW2 1427   3.584   2.779   1.418
 2255SOL     OW 1428   2.721   2.818   0.861
 2255SOL    HW1 1429   2.775   2.749   0.909
 2255SOL    HW2 1430   2.689   2.887   0.927
 2258SOL     OW 1431   2.083   3.176   1.844
 2258SOL    HW1 1432   2.018   3.103   1.823
 2258SOL    HW2 1433   2.087   3.190   1.942
 2260SOL     OW 1434   2.534   3.253   1.624
 2260SOL    HW1 1435   2.456   3.203   1.662
 2260SOL    HW2 1436   2.531   3.348   1.655
 2261SOL     OW 1437   3.686   2.054   1.227
 2261SOL    HW1 1438   3.682   1.964   1.271
 2261SOL    HW2 1439   3.689   2.043   1.128
 2264SOL     OW 1440   2.179   2.409   1.280
 2264SOL    HW1 1441   2.217   2.350   1.352
 2264SOL    HW2 1442   2.219   2.383   1.192
 2266SOL     OW 1443   3.286   2.076   1.112
 2266SOL    HW1 1444   3.338   2.011   1.167
 2266SOL    HW2 1445   3.237   2.139   1.173
 2267SOL     OW 1446   2.863   1.896   1.154
 2267SOL    HW1 1447   2.800   1.824   1.123
 2267SOL    HW2 1448   2.956   1.860   1.154
 2269SOL     OW 1449   2.480   3.429   1.284
 2269SOL    HW1 1450   2.475   3.511   1.341
 2269SOL    HW2 1451   2.569   3.426   1.239
 2275SOL     OW 1452   2.092   2.490   1.975
 2275SOL    HW1 1453   1.999   2.488   2.012
 2275SOL    HW2 1454   2.093   2.451   1.883
 2276SOL     OW 1455   2.087   2.137   2.858
 2276SOL    HW1 1456   2.122   2.120   2.950
 2276SOL    HW2 1457   1.999   2.092   2.846
 2277SOL     OW 1458   1.881   2.230   2.509
 2277SOL    HW1 1459   1.799   2.273   2.548
 2277SOL    HW2 1460   1.853   2.157   2.446
 2278SOL     OW 1461   2.431   3.137   3.027
 2278SOL    HW1 1462   2.338   3.130   2.990
 2278SOL    HW2 1463   2.442   3.226   3.071
 2279SOL     OW 1464   3.417   3.373   2.565
 2279SOL    HW1 1465   3.360   3.357   2.646
 2279SOL    HW2 1466   3.358   3.383   2.485
 2280SOL     OW 1467   2.997   2.565   2.579
 2280SOL    HW1 1468   3.054   2.643   2.554
 2280SOL    HW2 1469   2.937   2.591   2.655
 2281SOL     OW 1470   3.617   2.469   2.093
 2281SOL    HW1 1471   3.605   2.456   1.994
 2281SOL    HW2 1472   3.587   2.388   2.142
 2282SOL     OW 1473   2.630   3.006   2.885
 2282SOL    HW1 1474   2.552   3.023   2.945
 2282SOL    HW2 1475   2.664   3.093   2.849
 2283SOL     OW 1476   2.712   2.660   3.685
 2283SOL    HW1 1477   2.708   2.736   3.750
 2283SOL    HW2 1478   2.734   2.696   3.594
 2284SOL     OW 1479   2.547   2.874   2.527
 2284SOL    HW1 1480   2.616   2.858   2.597
 2284SOL    HW2 1481   2.474   2.931   2.565
 2285SOL     OW 1482   2.548   3.023   3.665
 2285SOL    HW1 1483   2.608   3.102   3.679
 2285SOL    HW2 1484   2.462   3.054   3.624
 2286SOL     OW 1485   2.197   3.297   2.923
 2286SOL    HW1 1486   2.119   3.266   2.870
 2286SOL    HW2 1487   2.255   3.355   2.866
 2287SOL     OW 1488   3.322   3.367   3.201
 2287SOL    HW1 1489   3.346   3.461   3.227
 2287SOL    HW2 1490   3.306   3.313   3.283
 2288SOL     OW 1491   2.300   2.254   3.361
 2288SOL    HW1 1492   2.382   2.198   3.370
 2288SOL    HW2 1493   2.219   2.196   3.365
 2289SOL     OW 1494   3.465   2.309   2.599
 2289SOL    HW1 1495   3.391   2.355   2.549
 2289SOL    HW2 1496   3.516   2.377   2.652
 2290SOL     OW 1497   2.093   3.575   2.345
 2290SOL    HW1 1498   2.127   3.652   2.399
 2290SOL    HW2 1499   2.137   3.575   2.255
 2291SOL     OW 1500   2.989   3.203   3.552
 2291SOL    HW1 1501   3.036   3.203   3.640
 2291SOL    HW2 1502   2.941   3.116   3.541
 2292SOL     OW 1503   2.092   3.296   2.400
 2292SOL    HW1 1504   2.066   3.392   2.400
 2292SOL    HW2 1505   2.021   3.242   2.445
 2293SOL     OW 1506   2.102   2.953   2.748
 2293SOL    HW1 1507   2.116   2.869   2.800
 2293SOL    HW2 1508   2.047   3.017   2.803
 2294SOL     OW 1509   2.482   3.648   3.301
 2294SOL    HW1 1510   2.390   3.631   3.336
 2294SOL    HW2 1511   2.510   3.740   3.327
 2295SOL     OW 1512   2.468   2.826   1.985
 2295SOL    HW1 1513   2.475   2.910   1.931
 2295SOL    HW2 1514   2.514   2.839   2.073
 2296SOL     OW 1515   3.456   1.976   3.342
 2296SOL    HW1 1516   3.438   2.043   3.270
 2296SOL    HW2 1517   3.453   2.022   3.431
 2297SOL     OW 1518   3.704   3.629   2.221
 2297SOL    HW1 1519   3.758   3.600   2.301
 2297SOL    HW2 1520   3.734   3.719   2.192
 2298SOL     OW 1521   1.889   3.458   1.979
 2298SOL    HW1 1522   1.870   3.362   2.000
 2298SOL    HW2 1523   1.856   3.516   2.054
 2299SOL     OW 1524   3.551   2.784   2.474
 2299SOL    HW1 1525   3.646   2.755   2.482
 2299SOL    HW2 1526   3.543   2.849   2.399
 2300SOL     OW 1527   3.503   2.970   2.294
 2300SOL    HW1 1528   3.589   2.972   2.242
 2300SOL    HW2 1529   3.517   3.017   2.382
 2301SOL     OW 1530   1.975   2.599   3.459
 2301SOL    HW1 1531   2.063   2.586   3.504
 2301SOL    HW2 1532   1.962   2.696   3.437
 2302SOL     OW 1533   2.475   3.227   2.588
 2302SOL    HW1 1534   2.426   3.140   2.597
 2302SOL    HW2 1535   2.452   3.270   2.501
 2303SOL     OW 1536   3.155   3.090   3.285
 2303SOL    HW1 1537   3.192   3.017   3.227
 2303SOL    HW2 1538   3.207   3.095   3.370
 2304SOL     OW 1539   2.671   1.866   2.364
 2304SOL    HW1 1540   2.711   1.957   2.355
 2304SOL    HW2 1541   2.571   1.874   2.370
 2305SOL     OW 1542   2.059   2.838   3.126
 2305SOL    HW1 1543   2.148   2.793   3.112
 2305SOL    HW2 1544   1.986   2.773   3.107
 2306SOL     OW 1545   3.387   2.861   2.052
 2306SOL    HW1 1546   3.324   2.785   2.065
 2306SOL    HW2 1547   3.435   2.879   2.138
 2307SOL     OW 1548   3.049   3.654   3.478
 2307SOL    HW1 1549   3.073   3.714   3.402
 2307SOL    HW2 1550   3.056   3.559   3.448
 2308SOL     OW 1551   2.179   2.113   3.663
 2308SOL    HW1 1552   2.250   2.184   3.669
 2308SOL    HW2 1553   2.091   2.152   3.691
 2309SOL     OW 1554   3.328   3.279   2.815
 2309SOL    HW1 1555   3.269   3.285   2.895
 2309SOL    HW2 1556   3.313   3.191   2.769
 2310SOL     OW 1557   3.529   3.576   2.434
 2310SOL    HW1 1558   3.488   3.553   2.346
 2310SOL    HW2 1559   3.511   3.502   2.499
 2311SOL     OW 1560   3.143   2.207   2.806
 2311SOL    HW1 1561   3.057   2.157   2.793
 2311SOL    HW2 1562   3.205   2.153   2.862
 2312SOL     OW 1563   3.438   3.524   2.169
 2312SOL    HW1 1564   3.527   3.570   2.172
 2312SOL    HW2 1565   3.417   3.500   2.074
 2313SOL     OW 1566   2.669   2.467   3.327
 2313SOL    HW1 1567   2.622   2.464   3.416
 2313SOL    HW2 1568   2.618   2.412   3.261
 2314SOL     OW 1569   3.256   2.331   3.536
 2314SOL    HW1 1570   3.236   2.374   3.624
 2314SOL    HW2 1571   3.334   2.269   3.545
 2315SOL     OW 1572   2.835   2.752   3.434
 2315SOL    HW1 1573   2.881   2.668   3.405
 2315SOL    HW2 1574   2.779   2.786   3.359
 2316SOL     OW 1575   2.853   2.272   3.104
 2316SOL    HW1 1576   2.776   2.306   3.158
 2316SOL    HW2 1577   2.819   2.221   3.025
 2317SOL     OW 1578   2.903   2.563   2.291
 2317SOL    HW1 1579   2.929   2.559   2.387
 2317SOL    HW2 1580   2.818   2.512   2.277
 2318SOL     OW 1581   1.938   2.673   2.651
 2318SOL    HW1 1582   2.037   2.661   2.660
 2318SOL    HW2 1583   1.914   2.768   2.672
 2319SOL     OW 1584   1.992   3.683   3.433
 2319SOL    HW1 1585   1.982   3.668   3.532
 2319SOL    HW2 1586   1.906   3.719   3.397
 2320SOL     OW 1587   2.727   2.210   2.057
 2320SOL    HW1 1588   2.786   2.273   2.008
 2320SOL    HW2 1589   2.746   2.116   2.028
 2321SOL     OW 1590   3.581   2.447   3.693
 2321SOL    HW1 1591   3.555   2.536   3.657
 2321SOL    HW2 1592   3.579   2.379   3.620
 2322SOL     OW 1593   3.224   3.006   2.407
 2322SOL    HW1 1594   3.307   2.977   2.359
 2322SOL    HW2 1595   3.175   3.073   2.351
 2323SOL     OW 1596   2.412   2.058   2.747
 2323SOL    HW1 1597   2.407   2.053   2.847
 2323SOL    HW2 1598   2.414   2.154   2.718
 2324SOL     OW 1599   2.870   3.318   2.339
 2324SOL    HW1 1600   2.824   3.390   2.287
 2324SOL    HW2 1601   2.866   3.338   2.437
 2325SOL     OW 1602   2.213   3.663   2.715
 2325SOL    HW1 1603   2.263   3.577   2.721
 2325SOL    HW2 1604   2.278   3.740   2.712
 2326SOL     OW 1605   3.657   2.928   2.735
 2326SOL    HW1 1606   3.595   2.913   2.659
 2326SOL    HW2 1607   3.605   2.939   2.820
 2327SOL     OW 1608   3.089   3.412   3.368
 2327SOL    HW1 1609   3.095   3.335   3.432
 2327SOL    HW2 1610   3.037   3.386   3.288
 2328SOL     OW 1611   2.183   2.805   2.104
 2328SOL    HW1 1612   2.265   2.844   2.062
 2328SOL    HW2 1613   2.156   2.723   2.055
 2329SOL     OW 1614   3.320   2.597   2.590
 2329SOL    HW1 1615   3.315   2.532   2.665
 2329SOL    HW2 1616   3.400   2.656   2.603
 2330SOL     OW 1617   2.323   3.128   3.589
 2330SOL    HW1 1618   2.273   3.129   3.503
 2330SOL    HW2 1619   2.260   3.110   3.665
 2331SOL     OW 1620   2.973   3.638   2.099
 2331SOL    HW1 1621   2.913   3.576   2.149
 2331SOL    HW2 1622   3.004   3.594   2.014
 2332SOL     OW 1623   2.064   2.147   3.360
 2332SOL    HW1 1624   1.984   2.207   3.347
 2332SOL    HW2 1625   2.054   2.098   3.446
 2333SOL     OW 1626   3.494   3.239   1.943
 2333SOL    HW1 1627   3.462   3.333   1.933
 2333SOL    HW2 1628   3.418   3.176   1.931
 2334SOL     OW 1629   2.326   3.605   2.185
 2334SOL    HW1 1630   2.359   3.644   2.271
 2334SOL    HW2 1631   2.402   3.598   2.120
 2335SOL     OW 1632   3.262   1.969   2.288
 2335SOL    HW1 1633   3.238   1.932   2.198
 2335SOL    HW2 1634   3.361   1.985   2.292
 2336SOL     OW 1635   2.111   3.647   3.103
 2336SOL    HW1 1636   2.168   3.582   3.153
 2336SOL    HW2 1637   2.095   3.614   3.010
 2337SOL     OW 1638   2.802   3.560   2.766
 2337SOL    HW1 1639   2.882   3.503   2.787
 2337SOL    HW2 1640   2.753   3.520   2.689
 2338SOL     OW 1641   3.409   2.084   3.591
 2338SOL    HW1 1642   3.404   2.121   3.683
 2338SOL    HW2 1643   3.337   2.015   3.579
 2339SOL     OW 1644   2.476   1.984   1.979
 2339SOL    HW1 1645   2.574   1.962   1.986
 2339SOL    HW2 1646   2.445   1.967   1.886
 2340SOL     OW 1647   2.643   2.126   3.611
 2340SOL    HW1 1648   2.710   2.065   3.654
 2340SOL    HW2 1649   2.570   2.145   3.676
 2341SOL     OW 1650   2.750   3.376   3.057
 2341SOL    HW1 1651   2.727   3.351   2.963
 2341SOL    HW2 1652   2.811   3.307   3.096
 2342SOL     OW 1653   3.213   2.452   3.295
 2342SOL    HW1 1654   3.241   2.409   3.380
 2342SOL    HW2 1655   3.238   2.548   3.296
 2343SOL     OW 1656   2.665   3.264   2.786
 2343SOL    HW1 1657   2.755   3.278   2.744
 2343SOL    HW2 1658   2.594   3.266   2.715
 2344SOL     OW 1659   2.401   1.926   2.374
 2344SOL    HW1 1660   2.320   1.927   2.432
 2344SOL    HW2 1661   2.404   2.009   2.319
 2345SOL     OW 1662   3.296   3.050   1.903
 2345SOL    HW1 1663   3.328   2.974   1.960
 2345SOL    HW2 1664   3.204   3.077   1.933
 2346SOL     OW 1665   2.159   1.897   2.033
 2346SOL    HW1 1666   2.208   1.981   2.012
 2346SOL    HW2 1667   2.221   1.832   2.078
 2347SOL     OW 1668   2.938   2.545   3.326
 2347SOL    HW1 1669   2.858   2.484   3.329
 2347SOL    HW2 1670   3.019   2.492   3.302
 2348SOL     OW 1671   3.089   3.432   2.655
 2348SOL    HW1 1672   3.110   3.506   2.590
 2348SOL    HW2 1673   3.157   3.432   2.728
 2349SOL     OW 1674   2.321   3.014   2.603
 2349SOL    HW1 1675   2.250   2.987   2.668
 2349SOL    HW2 1676   2.295   2.986   2.510
 2350SOL     OW 1677   3.133   3.659   2.453
 2350SOL    HW1 1678   3.177   3.723   2.389
 2350SOL    HW2 1679   3.083   3.711   2.523
 2351SOL     OW 1680   2.894   2.411   1.878
 2351SOL    HW1 1681   2.853   2.493   1.839
 2351SOL    HW2 1682   2.958   2.437   1.951
 2352SOL     OW 1683   1.940   2.418   3.248
 2352SOL    HW1 1684   2.032   2.417   3.207
 2352SOL    HW2 1685   1.934   2.492   3.315
 2353SOL     OW 1686   2.423   2.084   3.009
 2353SOL    HW1 1687   2.461   2.000   3.046
 2353SOL    HW2 1688   2.335   2.103   3.053
 2354SOL     OW 1689   2.879   1.901   2.615
 2354SOL    HW1 1690   2.807   1.906   2.546
 2354SOL    HW2 1691   2.855   1.832   2.684
 2355SOL     OW 1692   3.291   3.035   2.729
 2355SOL    HW1 1693   3.236   2.951   2.722
 2355SOL    HW2 1694   3.317   3.064   2.637
 2356SOL     OW 1695   3.328   2.452   2.854
 2356SOL    HW1 1696   3.298   2.357   2.861
 2356SOL    HW2 1697   3.401   2.468   2.920
 2357SOL     OW 1698   3.719   2.695   2.239
 2357SOL    HW1 1699   3.761   2.631   2.303
 2357SOL    HW2 1700   3.681   2.644   2.161
 2358SOL     OW 1701   2.350   3.247   2.036
 2358SOL    HW1 1702   2.263   3.232   2.083
 2358SOL    HW2 1703   2.333   3.273   1.941
 2359SOL     OW 1704   3.526   3.142   2.519
 2359SOL    HW1 1705   3.625   3.150   2.533
 2359SOL    HW2 1706   3.481   3.226   2.550
 2360SOL     OW 1707   3.252   2.437   1.940
 2360SOL    HW1 1708   3.198   2.416   2.021
 2360SOL    HW2 1709   3.343   2.396   1.949
 2361SOL     OW 1710   2.389   2.118   2.190
 2361SOL    HW1 1711   2.416   2.059   2.115
 2361SOL    HW2 1712   2.389   2.213   2.159
 2362SOL     OW 1713   3.616   3.085   3.450
 2362SOL    HW1 1714   3.707   3.046   3.437
 2362SOL    HW2 1715   3.624   3.181   3.474
 2363SOL     OW 1716   2.926   3.209   3.202
 2363SOL    HW1 1717   2.846   3.186   3.257
 2363SOL    HW2 1718   3.009   3.183   3.251
 2364SOL     OW 1719   3.454   3.491   3.487
 2364SOL    HW1 1720   3.481   3.525   3.397
 2364SOL    HW2 1721   3.533   3.453   3.533
 2365SOL     OW 1722   2.973   3.057   2.962
 2365SOL    HW1 1723   2.933   3.101   3.043
 2365SOL    HW2 1724   2.932   3.094   2.879
 2366SOL     OW 1725   3.500   2.961   2.941
 2366SOL    HW1 1726   3.505   3.042   3.000
 2366SOL    HW2 1727   3.414   2.963   2.890
 2367SOL     OW 1728   2.777   1.951   3.264
 2367SOL    HW1 1729   2.802   1.931   3.169
 2367SOL    HW2 1730   2.849   2.007   3.306
 2368SOL     OW 1731   2.842   2.978   3.581
 2368SOL    HW1 1732   2.743   2.984   3.591
 2368SOL    HW2 1733   2.865   2.898   3.525
 2369SOL     OW 1734   2.567   2.912   2.230
 2369SOL    HW1 1735   2.553   2.919   2.329
 2369SOL    HW2 1736   2.651   2.861   2.212
 2370SOL     OW 1737   2.272   2.675   3.113
 2370SOL    HW1 1738   2.358   2.687   3.163
 2370SOL    HW2 1739   2.230   2.588   3.140
 2371SOL     OW 1740   3.136   2.248   3.124
 2371SOL    HW1 1741   3.157   2.322   3.188
 2371SOL    HW2 1742   3.047   2.265   3.081
 2372SOL     OW 1743   1.926   3.426   3.193
 2372SOL    HW1 1744   1.880   3.508   3.159
 2372SOL    HW2 1745   2.024   3.445   3.202
 2373SOL     OW 1746   3.114   3.210   2.250
 2373SOL    HW1 1747   3.164   3.287   2.290
 2373SOL    HW2 1748   3.019   3.212   2.282
 2374SOL     OW 1749   3.134   3.307   3.004
 2374SOL    HW1 1750   3.181   3.320   3.091
 2374SOL    HW2 1751   3.068   3.233   3.013
 2375SOL     OW 1752   3.444   2.501   2.334
 2375SOL    HW1 1753   3.413   2.562   2.407
 2375SOL    HW2 1754   3.494   2.553   2.265
 2376SOL     OW 1755   2.216   3.372   3.191
 2376SOL    HW1 1756   2.195   3.328   3.104
 2376SOL    HW2 1757   2.313   3.398   3.194
 2377SOL     OW 1758   2.264   2.613   3.460
 2377SOL    HW1 1759   2.332   2.668   3.413
 2377SOL    HW2 1760   2.304   2.525   3.487
 2378SOL     OW 1761   3.449   2.641   3.532
 2378SOL    HW1 1762   3.357   2.679   3.527
 2378SOL    HW2 1763   3.509   2.688   3.467
 2379SOL     OW 1764   2.875   1.967   3.632
 2379SOL    HW1 1765   2.881   2.052   3.580
 2379SOL    HW2 1766   2.907   1.891   3.575
 2380SOL     OW 1767   2.366   1.912   3.602
 2380SOL    HW1 1768   2.324   1.855   3.532
 2380SOL    HW2 1769   2.300   1.981   3.634
 2381SOL     OW 1770   2.435   2.732   2.891
 2381SOL    HW1 1771   2.479   2.821   2.882
 2381SOL    HW2 1772   2.372   2.732   2.968
 2382SOL     OW 1773   3.222   2.724   2.907
 2382SOL    HW1 1774   3.147   2.724   2.841
 2382SOL    HW2 1775   3.259   2.632   2.916
 2383SOL     OW 1776   3.071   2.387   2.137
 2383SOL    HW1 1777   3.084   2.303   2.191
 2383SOL    HW2 1778   3.042   2.461   2.197
 2384SOL     OW 1779   2.169   2.075   3.093
 2384SOL    HW1 1780   2.146   2.112   3.183
 2384SOL    HW2 1781   2.139   1.980   3.087
 2385SOL     OW 1782   1.899   3.172   3.144
 2385SOL    HW1 1783   1.952   3.123   3.212
 2385SOL    HW2 1784   1.921   3.270   3.149
 2386SOL     OW 1785   3.590   2.797   3.716
 2386SOL    HW1 1786   3.544   2.790   3.627
 2386SOL    HW2 1787   3.528   2.841   3.782
 2387SOL     OW 1788   2.169   1.925   2.480
 2387SOL    HW1 1789   2.158   2.019   2.513
 2387SOL    HW2 1790   2.164   1.862   2.557
 2388SOL     OW 1791   3.484   2.229   2.236
 2388SOL    HW1 1792   3.486   2.153   2.300
 2388SOL    HW2 1793   3.436   2.306   2.276
 2389SOL     OW 1794   2.885   2.628   2.828
 2389SOL    HW1 1795   2.900   2.649   2.924
 2389SOL    HW2 1796   2.855   2.533   2.819
 2390SOL     OW 1797   2.842   3.435   3.562
 2390SOL    HW1 1798   2.822   3.479   3.474
 2390SOL    HW2 1799   2.881   3.344   3.546
 2392SOL     OW 1800   2.212   2.760   3.666
 2392SOL    HW1 1801   2.288   2.804   3.714
 2392SOL    HW2 1802   2.247   2.713   3.584
 2393SOL     OW 1803   3.402   2.136   1.987
 2393SOL    HW1 1804   3.341   2.061   2.010
 2393SOL    HW2 1805   3.424   2.188   2.070
 2394SOL     OW 1806   3.165   2.700   1.904
 2394SOL    HW1 1807   3.199   2.607   1.919
 2394SOL    HW2 1808   3.183   2.727   1.809
 2395SOL     OW 1809   2.930   3.195   2.711
 2395SOL    HW1 1810   2.937   3.111   2.656
 2395SOL    HW2 1811   2.992   3.264   2.675
 2396SOL     OW 1812   2.201   2.371   2.868
 2396SOL    HW1 1813   2.149   2.288   2.851
 2396SOL    HW2 1814   2.278   2.376   2.804
 2397SOL     OW 1815   3.000   2.242   3.540
 2397SOL    HW1 1816   2.955   2.305   3.604
 2397SOL    HW2 1817   3.093   2.273   3.523
 2398SOL     OW 1818   3.022   2.069   3.339
 2398SOL    HW1 1819   3.022   2.133   3.416
 2398SOL    HW2 1820   3.050   2.117   3.256
 2399SOL     OW 1821   1.870   3.188   2.062
 2399SOL    HW1 1822   1.777   3.209   2.031
 2399SOL    HW2 1823   1.880   3.089   2.075
 2400SOL     OW 1824   1.950   3.663   2.789
 2400SOL    HW1 1825   1.908   3.577   2.762
 2400SOL    HW2 1826   2.044   3.666   2.755
 2401SOL     OW 1827   2.366   3.430   2.772
 2401SOL    HW1 1828   2.432   3.504   2.781
 2401SOL    HW2 1829   2.410   3.351   2.730
 2402SOL     OW 1830   2.864   2.658   3.100
 2402SOL    HW1 1831   2.905   2.626   3.186
 2402SOL    HW2 1832   2.768   2.631   3.097
 2403SOL     OW 1833   1.902   2.406   2.976
 2403SOL    HW1 1834   1.987   2.373   2.935
 2403SOL    HW2 1835   1.915   2.421   3.074
 2404SOL     OW 1836   2.051   2.382   3.584
 2404SOL    HW1 1837   2.110   2.342   3.514
 2404SOL    HW2 1838   1.993   2.453   3.543
 2405SOL     OW 1839   3.231   2.812   3.522
 2405SOL    HW1 1840   3.270   2.901   3.542
 2405SOL    HW2 1841   3.241   2.792   3.425
 2406SOL     OW 1842   3.519   2.466   3.068
 2406SOL    HW1 1843   3.481   2.397   3.130
 2406SOL    HW2 1844   3.601   2.430   3.024
 2407SOL     OW 1845   2.114   3.426   3.606
 2407SOL    HW1 1846   2.084   3.483   3.682
 2407SOL    HW2 1847   2.107   3.329   3.632
 2408SOL     OW 1848   2.533   2.326   3.131
 2408SOL    HW1 1849   2.499   2.237   3.101
 2408SOL    HW2 1850   2.559   2.380   3.051
 2409SOL     OW 1851   2.792   3.540   3.327
 2409SOL    HW1 1852   2.768   3.522   3.232
 2409SOL    HW2 1853   2.822   3.634   3.337
 2410SOL     OW 1854   2.021   2.999   3.328
 2410SOL    HW1 1855   2.043   2.938   3.404
 2410SOL    HW2 1856   2.031   2.950   3.242
 2411SOL     OW 1857   3.209   2.921   3.096
 2411SOL    HW1 1858   3.233   2.858   3.022
 2411SOL    HW2 1859   3.119   2.961   3.078
 2412SOL     OW 1860   3.164   2.717   2.171
 2412SOL    HW1 1861   3.078   2.686   2.213
 2412SOL    HW2 1862   3.160   2.703   2.072
 2413SOL     OW 1863   3.621   3.609   3.016
 2413SOL    HW1 1864   3.682   3.639   2.943
 2413SOL    HW2 1865   3.583   3.520   2.994
 2414SOL     OW 1866   3.114   3.593   2.990
 2414SOL    HW1 1867   3.198   3.598   2.936
 2414SOL    HW2 1868   3.091   3.497   3.008
 2415SOL     OW 1869   1.945   3.120   2.884
 2415SOL    HW1 1870   1.940   3.119   2.984
 2415SOL    HW2 1871   1.862   3.079   2.846
 2416SOL     OW 1872   2.550   3.524   3.578
 2416SOL    HW1 1873   2.494   3.605   3.587
 2416SOL    HW2 1874   2.602   3.528   3.492
 2417SOL     OW 1875   3.588   1.997   2.385
 2417SOL    HW1 1876   3.661   1.980   2.318
 2417SOL    HW2 1877   3.557   1.910   2.423
 2418SOL     OW 1878   3.250   3.435   2.339
 2418SOL    HW1 1879   3.317   3.447   2.265
 2418SOL    HW2 1880   3.210   3.524   2.362
 2419SOL     OW 1881   1.992   3.656   3.713
 2419SOL    HW1 1882   1.951   3.582   3.766
 2419SOL    HW2 1883   2.056   3.707   3.771
 2420SOL     OW 1884   3.142   2.789   2.534
 2420SOL    HW1 1885   3.202   2.708   2.536
 2420SOL    HW2 1886   3.182   2.858   2.474
 2421SOL     OW 1887   2.692   3.135   3.284
 2421SOL    HW1 1888   2.687   3.168   3.379
 2421SOL    HW2 1889   2.606   3.154   3.238
 2422SOL     OW 1890   2.534   3.478   2.016
 2422SOL    HW1 1891   2.543   3.488   1.917
 2422SOL    HW2 1892   2.494   3.389   2.037
 2423SOL     OW 1893   3.512   3.582   3.256
 2423SOL    HW1 1894   3.565   3.592   3.172
 2423SOL    HW2 1895   3.485   3.672   3.290
 2424SOL     OW 1896   3.703   2.037   2.825
 2424SOL    HW1 1897   3.742   1.952   2.789
 2424SOL    HW2 1898   3.605   2.039   2.806
 2425SOL     OW 1899   2.125   2.188   2.582
 2425SOL    HW1 1900   2.046   2.239   2.548
 2425SOL    HW2 1901   2.116   2.173   2.680
 2426SOL     OW 1902   3.056   3.474   1.893
 2426SOL    HW1 1903   3.062   3.381   1.930
 2426SOL    HW2 1904   2.997   3.474   1.813
 2427SOL     OW 1905   2.684   2.864   3.234
 2427SOL    HW1 1906   2.724   2.863   3.142
 2427SOL    HW2 1907   2.694   2.956   3.274
 2428SOL     OW 1908   2.778   2.772   2.153
 2428SOL    HW1 1909   2.841   2.810   2.085
 2428SOL    HW2 1910   2.818   2.689   2.192
 2429SOL     OW 1911   3.366   3.469   1.906
 2429SOL    HW1 1912   3.274   3.506   1.913
 2429SOL    HW2 1913   3.404   3.489   1.816
 2430SOL     OW 1914   2.234   3.150   3.352
 2430SOL    HW1 1915   2.221   3.243   3.318
 2430SOL    HW2 1916   2.150   3.098   3.339
 2431SOL     OW 1917   3.476   3.154   3.151
 2431SOL    HW1 1918   3.536   3.157   3.231
 2431SOL    HW2 1919   3.401   3.218   3.164
 2432SOL     OW 1920   2.901   2.960   2.558
 2432SOL    HW1 1921   2.831   2.913   2.612
 2432SOL    HW2 1922   2.960   2.892   2.515
 2433SOL     OW 1923   2.876   2.098   2.833
 2433SOL    HW1 1924   2.868   2.062   2.740
 2433SOL    HW2 1925   2.874   2.022   2.898
 2434SOL     OW 1926   2.452   3.349   2.353
 2434SOL    HW1 1927   2.494   3.291   2.283
 2434SOL    HW2 1928   2.408   3.428   2.309
 2435SOL     OW 1929   3.571   2.247   3.243
 2435SOL    HW1 1930   3.644   2.316   3.247
 2435SOL    HW2 1931   3.599   2.172   3.184
 2436SOL     OW 1932   2.117   3.210   2.152
 2436SOL    HW1 1933   2.021   3.211   2.125
 2436SOL    HW2 1934   2.129   3.263   2.236
 2437SOL     OW 1935   1.967   2.875   3.588
 2437SOL    HW1 1936   1.890   2.842   3.642
 2437SOL    HW2 1937   2.052   2.845   3.630
 2438SOL     OW 1938   2.534   2.065   3.351
 2438SOL    HW1 1939   2.624   2.049   3.311
 2438SOL    HW2 1940   2.542   2.070   3.450
 2439SOL     OW 1941   1.937   2.207   1.895
 2439SOL    HW1 1942   1.845   2.179   1.866
 2439SOL    HW2 1943   1.968   2.284   1.839
 2440SOL     OW 1944   3.302   2.718   3.260
 2440SOL    HW1 1945   3.245   2.770   3.197
 2440SOL    HW2 1946   3.398   2.730   3.236
 2441SOL     OW 1947   1.934   2.028   2.180
 2441SOL    HW1 1948   1.917   2.111   2.126
 2441SOL    HW2 1949   2.024   1.991   2.158
 2442SOL     OW 1950   3.045   3.197   1.981
 2442SOL    HW1 1951   2.946   3.186   1.983
 2442SOL    HW2 1952   3.079   3.212   2.074
 2443SOL     OW 1953   2.475   2.704   3.293
 2443SOL    HW1 1954   2.531   2.785   3.276
 2443SOL    HW2 1955   2.534   2.624   3.296
 2444SOL     OW 1956   3.355   3.629   2.821
 2444SOL    HW1 1957   3.388   3.693   2.752
 2444SOL    HW2 1958   3.421   3.623   2.896
 2445SOL     OW 1959   2.578   2.427   3.570
 2445SOL    HW1 1960   2.597   2.492   3.644
 2445SOL    HW2 1961   2.638   2.347   3.579
 2446SOL     OW 1962   3.312   3.082   3.495
 2446SOL    HW1 1963   3.303   3.072   3.594
 2446SOL    HW2 1964   3.408   3.075   3.469
 2447SOL     OW 1965   2.252   3.603   3.422
 2447SOL    HW1 1966   2.161   3.644   3.420
 2447SOL    HW2 1967   2.245   3.509   3.454
 2448SOL     OW 1968   3.536   2.745   3.116
 2448SOL    HW1 1969   3.509   2.656   3.079
 2448SOL    HW2 1970   3.537   2.813   3.043
 2449SOL     OW 1971   3.087   2.187   2.311
 2449SOL    HW1 1972   3.152   2.113   2.300
 2449SOL    HW2 1973   3.107   2.237   2.395
 2450SOL     OW 1974   3.639   2.204   3.504
 2450SOL    HW1 1975   3.622   2.235   3.410
 2450SOL    HW2 1976   3.555   2.167   3.542
 2451SOL     OW 1977   3.592   2.796   3.379
 2451SOL    HW1 1978   3.630   2.887   3.394
 2451SOL    HW2 1979   3.584   2.779   3.280
 2452SOL     OW 1980   2.721   3.236   1.878
 2452SOL    HW1 1981   2.675   3.251   1.966
 2452SOL    HW2 1982   2.765   3.321   1.848
 2453SOL     OW 1983   2.523   3.652   2.815
 2453SOL    HW1 1984   2.477   3.740   2.802
 2453SOL    HW2 1985   2.622   3.664   2.808
 2454SOL     OW 1986   2.721   2.818   2.723
 2454SOL    HW1 1987   2.775   2.749   2.771
 2454SOL    HW2 1988   2.689   2.887   2.789
 2455SOL     OW 1989   2.945   2.846   1.949
 2455SOL    HW1 1990   2.922   2.899   1.867
 2455SOL    HW2 1991   3.026   2.790   1.930
 2456SOL     OW 1992   3.723   3.431   2.713
 2456SOL    HW1 1993   3.652   3.419   2.643
 2456SOL    HW2 1994   3.724   3.352   2.773
 2457SOL     OW 1995   2.083   3.176   3.706
 2457SOL    HW1 1996   2.018   3.103   3.685
 2457SOL    HW2 1997   2.087   3.190   3.804
 2458SOL     OW 1998   1.941   3.102   2.515
 2458SOL    HW1 1999   1.940   3.055   2.603
 2458SOL    HW2 2000   2.023   3.074   2.464
 2459SOL     OW 2001   2.534   3.253   3.486
 2459SOL    HW1 2002   2.456   3.203   3.524
 2459SOL    HW2 2003   2.531   3.348   3.517
 2460SOL     OW 2004   3.686   2.054   3.089
 2460SOL    HW1 2005   3.682   1.964   3.133
 2460SOL    HW2 2006   3.689   2.043   2.990
 2461SOL     OW 2007   2.290   2.286   2.382
 2461SOL    HW1 2008   2.320   2.214   2.320
 2461SOL    HW2 2009   2.251   2.246   2.465
 2462SOL     OW 2010   3.567   3.349   2.966
 2462SOL    HW1 2011   3.474   3.324   2.939
 2462SOL    HW2 2012   3.593   3.299   3.048
 2463SOL     OW 2013   2.179   2.409   3.142
 2463SOL    HW1 2014   2.217   2.350   3.214
 2463SOL    HW2 2015   2.219   2.383   3.054
 2464SOL     OW 2016   2.674   3.448   2.549
 2464SOL    HW1 2017   2.706   3.458   2.455
 2464SOL    HW2 2018   2.595   3.386   2.551
 2465SOL     OW 2019   3.286   2.076   2.974
 2465SOL    HW1 2020   3.338   2.011   3.029
 2465SOL    HW2 2021   3.237   2.139   3.035
 2466SOL     OW 2022   2.863   1.896   3.016
 2466SOL    HW1 2023   2.800   1.824   2.985
 2466SOL    HW2 2024   2.956   1.860   3.016
 2467SOL     OW 2025   2.632   3.192   2.163
 2467SOL    HW1 2026   2.586   3.105   2.180
 2467SOL    HW2 2027   2.723   3.189   2.204
 2468SOL     OW 2028   2.480   3.429   3.146
 2468SOL    HW1 2029   2.475   3.511   3.203
 2468SOL    HW2 2030   2.569   3.426   3.101
 2469SOL     OW 2031   3.214   1.914   2.030
 2469SOL    HW1 2032   3.249   1.873   1.946
 2469SOL    HW2 2033   3.124   1.876   2.050
 2470SOL     OW 2034   3.162   2.315   2.553
 2470SOL    HW1 2035   3.103   2.395   2.557
 2470SOL    HW2 2036   3.177   2.280   2.646
 2471SOL     OW 2037   3.455   2.083   2.744
 2471SOL    HW1 2038   3.371   2.082   2.798
 2471SOL    HW2 2039   3.457   2.166   2.688
 2472SOL     OW 2040   1.901   2.939   2.162
 2472SOL    HW1 2041   2.000   2.928   2.153
 2472SOL    HW2 2042   1.861   2.853   2.194
 2473SOL     OW 2043   2.737   3.508   2.199
 2473SOL    HW1 2044   2.660   3.473   2.145
 2473SOL    HW2 2045   2.705   3.579   2.261
 2474SOL     OW 2046   2.092   2.490   3.837
 2474SOL    HW1 2047   1.999   2.488   3.874
 2474SOL    HW2 2048   2.093   2.451   3.745
 2488SOL     OW 2049   2.468   2.826   3.847
 2488SOL    HW1 2050   2.475   2.910   3.793
 2488SOL    HW2 2051   2.514   2.839   3.935
 2491SOL     OW 2052   1.889   3.458   3.841
 2491SOL    HW1 2053   1.870   3.362   3.862
 2491SOL    HW2 2054   1.856   3.516   3.916
 2497SOL     OW 2055   3.387   2.861   3.914
 2497SOL    HW1 2056   3.324   2.785   3.927
 2497SOL    HW2 2057   3.435   2.879   4.000
 2500SOL     OW 2058   2.460   2.591   3.994
 2500SOL    HW1 2059   2.484   2.660   3.926
 2500SOL    HW2 2060   2.382   2.624   4.048
 2503SOL     OW 2061   2.903   2.563   4.153
 2503SOL    HW1 2062   2.929   2.559   4.249
 2503SOL    HW2 2063   2.818   2.512   4.139
 2505SOL     OW 2064   2.727   2.210   3.919
 2505SOL    HW1 2065   2.786   2.273   3.870
 2505SOL    HW2 2066   2.746   2.116   3.890
 2511SOL     OW 2067   2.183   2.805   3.966
 2511SOL    HW1 2068   2.265   2.844   3.924
 2511SOL    HW2 2069   2.156   2.723   3.917
 2519SOL     OW 2070   2.244   2.562   4.204
 2519SOL    HW1 2071   2.289   2.472   4.201
 2519SOL    HW2 2072   2.150   2.551   4.237
 2520SOL     OW 2073   2.476   1.984   3.841
 2520SOL    HW1 2074   2.574   1.962   3.848
 2520SOL    HW2 2075   2.445   1.967   3.748
 2524SOL     OW 2076   3.296   3.050   3.765
 2524SOL    HW1 2077   3.328   2.974   3.822
 2524SOL    HW2 2078   3.204   3.077   3.795
 2525SOL     OW 2079   2.159   1.897   3.895
 2525SOL    HW1 2080   2.208   1.981   3.874
 2525SOL    HW2 2081   2.221   1.832   3.940
 2530SOL     OW 2082   2.894   2.411   3.740
 2530SOL    HW1 2083   2.853   2.493   3.701
 2530SOL    HW2 2084   2.958   2.437   3.813
 2536SOL     OW 2085   2.350   3.247   3.898
 2536SOL    HW1 2086   2.263   3.232   3.945
 2536SOL    HW2 2087   2.333   3.273   3.803
 2538SOL     OW 2088   3.252   2.437   3.802
 2538SOL    HW1 2089   3.198   2.416   3.883
 2538SOL    HW2 2090   3.343   2.396   3.811
 2539SOL     OW 2091   2.389   2.118   4.052
 2539SOL    HW1 2092   2.416   2.059   3.977
 2539SOL    HW2 2093   2.389   2.213   4.021
 2542SOL     OW 2094   2.567   2.912   4.092
 2542SOL    HW1 2095   2.553   2.919   4.191
 2542SOL    HW2 2096   2.651   2.861   4.074
 2550SOL     OW 2097   3.071   2.387   3.999
 2550SOL    HW1 2098   3.084   2.303   4.053
 2550SOL    HW2 2099   3.042   2.461   4.059
 2556SOL     OW 2100   3.402   2.136   3.849
 2556SOL    HW1 2101   3.341   2.061   3.872
 2556SOL    HW2 2102   3.424   2.188   3.932
 2557SOL     OW 2103   3.165   2.700   3.766
 2557SOL    HW1 2104   3.199   2.607   3.781
 2557SOL    HW2 2105   3.183   2.727   3.671
 2561SOL     OW 2106   1.870   3.188   3.924
 2561SOL    HW1 2107   1.777   3.209   3.893
 2561SOL    HW2 2108   1.880   3.089   3.937
 2566SOL     OW 2109   2.677   2.434   4.049
 2566SOL    HW1 2110   2.684   2.345   4.003
 2566SOL    HW2 2111   2.583   2.468   4.041
 2569SOL     OW 2112   2.335   2.362   3.915
 2569SOL    HW1 2113   2.396   2.442   3.919
 2569SOL    HW2 2114   2.240   2.393   3.922
 2570SOL     OW 2115   3.164   2.717   4.033
 2570SOL    HW1 2116   3.078   2.686   4.075
 2570SOL    HW2 2117   3.160   2.703   3.934
 2576SOL     OW 2118   2.534   3.478   3.878
 2576SOL    HW1 2119   2.543   3.488   3.779
 2576SOL    HW2 2120   2.494   3.389   3.899
 2579SOL     OW 2121   3.056   3.474   3.755
 2579SOL    HW1 2122   3.062   3.381   3.792
 2579SOL    HW2 2123   2.997   3.474   3.675
 2581SOL     OW 2124   2.778   2.772   4.015
 2581SOL    HW1 2125   2.841   2.810   3.947
 2581SOL    HW2 2126   2.818   2.689   4.054
 2587SOL     OW 2127   2.117   3.210   4.014
 2587SOL    HW1 2128   2.021   3.211   3.987
 2587SOL    HW2 2129   2.129   3.263   4.098
 2588SOL     OW 2130   1.937   2.207   3.757
 2588SOL    HW1 2131   1.845   2.179   3.728
 2588SOL    HW2 2132   1.968   2.284   3.701
 2589SOL     OW 2133   1.934   2.028   4.042
 2589SOL    HW1 2134   1.917   2.111   3.988
 2589SOL    HW2 2135   2.024   1.991   4.020
 2590SOL     OW 2136   3.045   3.197   3.843
 2590SOL    HW1 2137   2.946   3.186   3.845
 2590SOL    HW2 2138   3.079   3.212   3.936
 2595SOL     OW 2139   2.721   3.236   3.740
 2595SOL    HW1 2140   2.675   3.251   3.828
 2595SOL    HW2 2141   2.765   3.321   3.710
 2598SOL     OW 2142   2.945   2.846   3.811
 2598SOL    HW1 2143   2.922   2.899   3.729
 2598SOL    HW2 2144   3.026   2.790   3.792
 2602SOL     OW 2145   2.290   2.286   4.244
 2602SOL    HW1 2146   2.320   2.214   4.182
 2602SOL    HW2 2147   2.251   2.246   4.327
 2606SOL     OW 2148   2.632   3.192   4.025
 2606SOL    HW1 2149   2.586   3.105   4.042
 2606SOL    HW2 2150   2.723   3.189   4.066
 2607SOL     OW 2151   3.214   1.914   3.892
 2607SOL    HW1 2152   3.249   1.873   3.808
 2607SOL    HW2 2153   3.124   1.876   3.912
 2610SOL     OW 2154   1.901   2.939   4.024
 2610SOL    HW1 2155   2.000   2.928   4.015
 2610SOL    HW2 2156   1.861   2.853   4.056
 2634SOL     OW 2157   2.179   3.975   1.801
 2634SOL    HW1 2158   2.250   4.046   1.807
 2634SOL    HW2 2159   2.091   4.014   1.829
 2655SOL     OW 2160   2.643   3.988   1.749
 2655SOL    HW1 2161   2.710   3.927   1.792
 2655SOL    HW2 2162   2.570   4.007   1.814
 2675SOL     OW 2163   2.777   3.813   1.402
 2675SOL    HW1 2164   2.802   3.793   1.307
 2675SOL    HW2 2165   2.849   3.869   1.444
 2684SOL     OW 2166   2.875   3.829   1.770
 2684SOL    HW1 2167   2.881   3.914   1.718
 2684SOL    HW2 2168   2.907   3.753   1.713
 2685SOL     OW 2169   2.366   3.774   1.740
 2685SOL    HW1 2170   2.324   3.717   1.670
 2685SOL    HW2 2171   2.300   3.843   1.772
 2724SOL     OW 2172   2.534   3.927   1.489
 2724SOL    HW1 2173   2.624   3.911   1.449
 2724SOL    HW2 2174   2.542   3.932   1.588
 2748SOL     OW 2175   2.087   3.999   2.858
 2748SOL    HW1 2176   2.122   3.982   2.950
 2748SOL    HW2 2177   1.999   3.954   2.846
 2749SOL     OW 2178   1.881   4.092   2.509
 2749SOL    HW1 2179   1.799   4.135   2.548
 2749SOL    HW2 2180   1.853   4.019   2.446
 2766SOL     OW 2181   2.671   3.728   2.364
 2766SOL    HW1 2182   2.711   3.819   2.355
 2766SOL    HW2 2183   2.571   3.736   2.370
 2771SOL     OW 2184   3.143   4.069   2.806
 2771SOL    HW1 2185   3.057   4.019   2.793
 2771SOL    HW2 2186   3.205   4.015   2.862
 2778SOL     OW 2187   2.727   4.072   2.057
 2778SOL    HW1 2188   2.786   4.135   2.008
 2778SOL    HW2 2189   2.746   3.978   2.028
 2781SOL     OW 2190   2.412   3.920   2.747
 2781SOL    HW1 2191   2.407   3.915   2.847
 2781SOL    HW2 2192   2.414   4.016   2.718
 2786SOL     OW 2193   3.262   3.831   2.288
 2786SOL    HW1 2194   3.238   3.794   2.198
 2786SOL    HW2 2195   3.361   3.847   2.292
 2789SOL     OW 2196   2.476   3.846   1.979
 2789SOL    HW1 2197   2.574   3.824   1.986
 2789SOL    HW2 2198   2.445   3.829   1.886
 2793SOL     OW 2199   2.401   3.788   2.374
 2793SOL    HW1 2200   2.320   3.789   2.432
 2793SOL    HW2 2201   2.404   3.871   2.319
 2794SOL     OW 2202   2.159   3.759   2.033
 2794SOL    HW1 2203   2.208   3.843   2.012
 2794SOL    HW2 2204   2.221   3.694   2.078
 2795SOL     OW 2205   2.797   3.960   2.342
 2795SOL    HW1 2206   2.749   4.001   2.264
 2795SOL    HW2 2207   2.896   3.958   2.323
 2800SOL     OW 2208   2.423   3.946   3.009
 2800SOL    HW1 2209   2.461   3.862   3.046
 2800SOL    HW2 2210   2.335   3.965   3.053
 2801SOL     OW 2211   2.728   4.178   2.504
 2801SOL    HW1 2212   2.696   4.250   2.442
 2801SOL    HW2 2213   2.752   4.097   2.451
 2802SOL     OW 2214   2.879   3.763   2.615
 2802SOL    HW1 2215   2.807   3.768   2.546
 2802SOL    HW2 2216   2.855   3.694   2.684
 2807SOL     OW 2217   2.389   3.980   2.190
 2807SOL    HW1 2218   2.416   3.921   2.115
 2807SOL    HW2 2219   2.389   4.075   2.159
 2810SOL     OW 2220   2.777   3.813   3.264
 2810SOL    HW1 2221   2.802   3.793   3.169
 2810SOL    HW2 2222   2.849   3.869   3.306
 2820SOL     OW 2223   2.366   3.774   3.602
 2820SOL    HW1 2224   2.324   3.717   3.532
 2820SOL    HW2 2225   2.300   3.843   3.634
 2824SOL     OW 2226   2.169   3.937   3.093
 2824SOL    HW1 2227   2.146   3.974   3.183
 2824SOL    HW2 2228   2.139   3.842   3.087
 2827SOL     OW 2229   2.169   3.787   2.480
 2827SOL    HW1 2230   2.158   3.881   2.513
 2827SOL    HW2 2231   2.164   3.724   2.557
 2836SOL     OW 2232   3.022   3.931   3.339
 2836SOL    HW1 2233   3.022   3.995   3.416
 2836SOL    HW2 2234   3.050   3.979   3.256
 2848SOL     OW 2235   3.588   3.859   2.385
 2848SOL    HW1 2236   3.661   3.842   2.318
 2848SOL    HW2 2237   3.557   3.772   2.423
 2851SOL     OW 2238   2.125   4.050   2.582
 2851SOL    HW1 2239   2.046   4.101   2.548
 2851SOL    HW2 2240   2.116   4.035   2.680
 2855SOL     OW 2241   2.876   3.960   2.833
 2855SOL    HW1 2242   2.868   3.924   2.740
 2855SOL    HW2 2243   2.874   3.884   2.898
 2858SOL     OW 2244   2.534   3.927   3.351
 2858SOL    HW1 2245   2.624   3.911   3.311
 2858SOL    HW2 2246   2.542   3.932   3.450
 2859SOL     OW 2247   1.937   4.069   1.895
 2859SOL    HW1 2248   1.845   4.041   1.866
 2859SOL    HW2 2249   1.968   4.146   1.839
 2861SOL     OW 2250   1.934   3.890   2.180
 2861SOL    HW1 2251   1.917   3.973   2.126
 2861SOL    HW2 2252   2.024   3.853   2.158
 2866SOL     OW 2253   3.087   4.049   2.311
 2866SOL    HW1 2254   3.152   3.975   2.300
 2866SOL    HW2 2255   3.107   4.099   2.395
 2874SOL     OW 2256   2.290   4.148   2.382
 2874SOL    HW1 2257   2.320   4.076   2.320
 2874SOL    HW2 2258   2.251   4.108   2.465
 2876SOL     OW 2259   3.286   3.938   2.974
 2876SOL    HW1 2260   3.338   3.873   3.029
 2876SOL    HW2 2261   3.237   4.001   3.035
 2877SOL     OW 2262   2.863   3.758   3.016
 2877SOL    HW1 2263   2.800   3.686   2.985
 2877SOL    HW2 2264   2.956   3.722   3.016
 2879SOL     OW 2265   3.214   3.776   2.030
 2879SOL    HW1 2266   3.249   3.735   1.946
 2879SOL    HW2 2267   3.124   3.738   2.050
 2881SOL     OW 2268   3.455   3.945   2.744
 2881SOL    HW1 2269   3.371   3.944   2.798
 2881SOL    HW2 2270   3.457   4.028   2.688
 3007SOL     OW 2271   3.854   1.821   1.571
 3007SOL    HW1 2272   3.844   1.806   1.670
 3007SOL    HW2 2273   3.768   1.857   1.535
 3082SOL     OW 2274   3.854   1.794   1.851
 3082SOL    HW1 2275   3.813   1.720   1.904
 3082SOL    HW2 2276   3.918   1.845   1.909
 3125SOL     OW 2277   3.955   1.713   2.345
 3125SOL    HW1 2278   3.989   1.790   2.399
 3125SOL    HW2 2279   3.999   1.713   2.255
 3132SOL     OW 2280   3.751   1.596   1.979
 3132SOL    HW1 2281   3.732   1.500   2.000
 3132SOL    HW2 2282   3.718   1.654   2.054
 3148SOL     OW 2283   4.075   1.801   2.715
 3148SOL    HW1 2284   4.125   1.715   2.721
 3148SOL    HW2 2285   4.140   1.878   2.712
 3153SOL     OW 2286   3.973   1.785   3.103
 3153SOL    HW1 2287   4.030   1.720   3.153
 3153SOL    HW2 2288   3.957   1.752   3.010
 3179SOL     OW 2289   3.788   1.564   3.193
 3179SOL    HW1 2290   3.742   1.646   3.159
 3179SOL    HW2 2291   3.886   1.583   3.202
 3203SOL     OW 2292   3.732   1.326   2.062
 3203SOL    HW1 2293   3.639   1.347   2.031
 3203SOL    HW2 2294   3.742   1.227   2.075
 3204SOL     OW 2295   3.812   1.801   2.789
 3204SOL    HW1 2296   3.770   1.715   2.762
 3204SOL    HW2 2297   3.906   1.804   2.755
 3363SOL     OW 2298   3.837   2.599   1.597
 3363SOL    HW1 2299   3.925   2.586   1.642
 3363SOL    HW2 2300   3.824   2.696   1.575
 3367SOL     OW 2301   4.041   2.113   1.801
 3367SOL    HW1 2302   4.112   2.184   1.807
 3367SOL    HW2 2303   3.953   2.152   1.829
 3381SOL     OW 2304   3.926   2.147   1.498
 3381SOL    HW1 2305   3.846   2.207   1.485
 3381SOL    HW2 2306   3.916   2.098   1.584
 3398SOL     OW 2307   3.802   2.418   1.386
 3398SOL    HW1 2308   3.894   2.417   1.345
 3398SOL    HW2 2309   3.796   2.492   1.453
 3426SOL     OW 2310   4.074   2.760   1.804
 3426SOL    HW1 2311   4.150   2.804   1.852
 3426SOL    HW2 2312   4.109   2.713   1.722
 3437SOL     OW 2313   3.913   2.382   1.722
 3437SOL    HW1 2314   3.972   2.342   1.652
 3437SOL    HW2 2315   3.855   2.453   1.681
 3460SOL     OW 2316   3.829   2.875   1.726
 3460SOL    HW1 2317   3.752   2.842   1.780
 3460SOL    HW2 2318   3.914   2.845   1.768
 3471SOL     OW 2319   3.945   3.176   1.844
 3471SOL    HW1 2320   3.880   3.103   1.823
 3471SOL    HW2 2321   3.949   3.190   1.942
 3482SOL     OW 2322   3.954   2.490   1.975
 3482SOL    HW1 2323   3.861   2.488   2.012
 3482SOL    HW2 2324   3.955   2.451   1.883
 3483SOL     OW 2325   3.949   2.137   2.858
 3483SOL    HW1 2326   3.984   2.120   2.950
 3483SOL    HW2 2327   3.861   2.092   2.846
 3484SOL     OW 2328   3.743   2.230   2.509
 3484SOL    HW1 2329   3.661   2.273   2.548
 3484SOL    HW2 2330   3.715   2.157   2.446
 3494SOL     OW 2331   3.954   3.296   2.400
 3494SOL    HW1 2332   3.928   3.392   2.400
 3494SOL    HW2 2333   3.883   3.242   2.445
 3495SOL     OW 2334   3.964   2.953   2.748
 3495SOL    HW1 2335   3.978   2.869   2.800
 3495SOL    HW2 2336   3.909   3.017   2.803
 3498SOL     OW 2337   3.846   2.505   2.425
 3498SOL    HW1 2338   3.801   2.417   2.442
 3498SOL    HW2 2339   3.845   2.559   2.509
 3499SOL     OW 2340   3.751   3.458   1.979
 3499SOL    HW1 2341   3.732   3.362   2.000
 3499SOL    HW2 2342   3.718   3.516   2.054
 3500SOL     OW 2343   3.837   2.599   3.459
 3500SOL    HW1 2344   3.925   2.586   3.504
 3500SOL    HW2 2345   3.824   2.696   3.437
 3503SOL     OW 2346   3.921   2.838   3.126
 3503SOL    HW1 2347   4.010   2.793   3.112
 3503SOL    HW2 2348   3.848   2.773   3.107
 3510SOL     OW 2349   3.800   2.673   2.651
 3510SOL    HW1 2350   3.899   2.661   2.660
 3510SOL    HW2 2351   3.776   2.768   2.672
 3516SOL     OW 2352   4.045   2.805   2.104
 3516SOL    HW1 2353   4.127   2.844   2.062
 3516SOL    HW2 2354   4.018   2.723   2.055
 3518SOL     OW 2355   3.926   2.147   3.360
 3518SOL    HW1 2356   3.846   2.207   3.347
 3518SOL    HW2 2357   3.916   2.098   3.446
 3522SOL     OW 2358   4.106   2.562   2.342
 3522SOL    HW1 2359   4.151   2.472   2.339
 3522SOL    HW2 2360   4.012   2.551   2.375
 3529SOL     OW 2361   4.021   1.897   2.033
 3529SOL    HW1 2362   4.070   1.981   2.012
 3529SOL    HW2 2363   4.083   1.832   2.078
 3535SOL     OW 2364   3.802   2.418   3.248
 3535SOL    HW1 2365   3.894   2.417   3.207
 3535SOL    HW2 2366   3.796   2.492   3.315
 3545SOL     OW 2367   4.134   2.675   3.113
 3545SOL    HW1 2368   4.220   2.687   3.163
 3545SOL    HW2 2369   4.092   2.588   3.140
 3546SOL     OW 2370   3.788   3.426   3.193
 3546SOL    HW1 2371   3.742   3.508   3.159
 3546SOL    HW2 2372   3.886   3.445   3.202
 3547SOL     OW 2373   4.091   2.962   2.363
 3547SOL    HW1 2374   4.084   3.045   2.307
 3547SOL    HW2 2375   4.095   2.882   2.303
 3557SOL     OW 2376   4.031   2.075   3.093
 3557SOL    HW1 2377   4.008   2.112   3.183
 3557SOL    HW2 2378   4.001   1.980   3.087
 3558SOL     OW 2379   3.761   3.172   3.144
 3558SOL    HW1 2380   3.814   3.123   3.212
 3558SOL    HW2 2381   3.783   3.270   3.149
 3560SOL     OW 2382   4.031   1.925   2.480
 3560SOL    HW1 2383   4.020   2.019   2.513
 3560SOL    HW2 2384   4.026   1.862   2.557
 3566SOL     OW 2385   4.043   2.672   2.811
 3566SOL    HW1 2386   4.136   2.708   2.816
 3566SOL    HW2 2387   4.037   2.587   2.863
 3567SOL     OW 2388   4.063   2.371   2.868
 3567SOL    HW1 2389   4.011   2.288   2.851
 3567SOL    HW2 2390   4.140   2.376   2.804
 3570SOL     OW 2391   3.732   3.188   2.062
 3570SOL    HW1 2392   3.639   3.209   2.031
 3570SOL    HW2 2393   3.742   3.089   2.075
 3574SOL     OW 2394   3.764   2.406   2.976
 3574SOL    HW1 2395   3.849   2.373   2.935
 3574SOL    HW2 2396   3.777   2.421   3.074
 3580SOL     OW 2397   4.197   2.362   2.053
 3580SOL    HW1 2398   4.258   2.442   2.057
 3580SOL    HW2 2399   4.102   2.393   2.060
 3581SOL     OW 2400   3.883   2.999   3.328
 3581SOL    HW1 2401   3.905   2.938   3.404
 3581SOL    HW2 2402   3.893   2.950   3.242
 3584SOL     OW 2403   3.807   3.120   2.884
 3584SOL    HW1 2404   3.802   3.119   2.984
 3584SOL    HW2 2405   3.724   3.079   2.846
 3589SOL     OW 2406   3.987   2.188   2.582
 3589SOL    HW1 2407   3.908   2.239   2.548
 3589SOL    HW2 2408   3.978   2.173   2.680
 3596SOL     OW 2409   3.979   3.210   2.152
 3596SOL    HW1 2410   3.883   3.211   2.125
 3596SOL    HW2 2411   3.991   3.263   2.236
 3599SOL     OW 2412   3.799   2.207   1.895
 3599SOL    HW1 2413   3.707   2.179   1.866
 3599SOL    HW2 2414   3.830   2.284   1.839
 3600SOL     OW 2415   3.796   2.028   2.180
 3600SOL    HW1 2416   3.779   2.111   2.126
 3600SOL    HW2 2417   3.886   1.991   2.158
 3610SOL     OW 2418   3.803   3.102   2.515
 3610SOL    HW1 2419   3.802   3.055   2.603
 3610SOL    HW2 2420   3.885   3.074   2.464
 3612SOL     OW 2421   4.152   2.286   2.382
 3612SOL    HW1 2422   4.182   2.214   2.320
 3612SOL    HW2 2423   4.113   2.246   2.465
 3613SOL     OW 2424   4.041   2.409   3.142
 3613SOL    HW1 2425   4.079   2.350   3.214
 3613SOL    HW2 2426   4.081   2.383   3.054
 3618SOL     OW 2427   3.763   2.939   2.162
 3618SOL    HW1 2428   3.862   2.928   2.153
 3618SOL    HW2 2429   3.723   2.853   2.194
   4.94246   4.94246   4.94246
