; mobley_8011706_GMX.itp created by acpype (v: 2023.10.27) on Wed May 20 23:42:15 2026

[ atomtypes ]
;name   bond_type     mass     charge   ptype   sigma         epsilon       Amb
 c        c           0.00000  0.00000   A     3.31521e-01   4.13379e-01 ; 1.86  0.0988
 c3       c3          0.00000  0.00000   A     3.39771e-01   4.51035e-01 ; 1.91  0.1078
 n        n           0.00000  0.00000   A     3.18086e-01   6.84502e-01 ; 1.79  0.1636
 o        o           0.00000  0.00000   A     3.04812e-01   6.12119e-01 ; 1.71  0.1463
 h5       h5          0.00000  0.00000   A     2.44730e-01   6.73624e-02 ; 1.37  0.0161
 h1       h1          0.00000  0.00000   A     2.42200e-01   8.70272e-02 ; 1.36  0.0208

[ moleculetype ]
;name            nrexcl
 mobley_8011706   3

[ atoms ]
;   nr  type  resi  res  atom  cgnr     charge      mass       ; qtot   bond_type
     1    c     1   MOL    C1    1     0.661900     12.01000 ; qtot 0.662
     2   c3     1   MOL    C2    2     0.079300     12.01000 ; qtot 0.741
     3   c3     1   MOL    C3    3     0.079300     12.01000 ; qtot 0.820
     4    n     1   MOL    N1    4    -0.494800     14.01000 ; qtot 0.326
     5    o     1   MOL    O1    5    -0.604100     16.00000 ; qtot -0.278
     6   h5     1   MOL    H1    6     0.028200      1.00800 ; qtot -0.250
     7   h1     1   MOL    H2    7     0.041700      1.00800 ; qtot -0.208
     8   h1     1   MOL    H3    8     0.041700      1.00800 ; qtot -0.167
     9   h1     1   MOL    H4    9     0.041700      1.00800 ; qtot -0.125
    10   h1     1   MOL    H5   10     0.041700      1.00800 ; qtot -0.083
    11   h1     1   MOL    H6   11     0.041700      1.00800 ; qtot -0.042
    12   h1     1   MOL    H7   12     0.041700      1.00800 ; qtot 0.000

[ bonds ]
;   ai     aj funct   r             k
     1      4   1    1.3967e-01    2.6565e+05 ;     C1 - N1    
     1      5   1    1.2190e-01    4.9421e+05 ;     C1 - O1    
     1      6   1    1.1053e-01    2.7793e+05 ;     C1 - H1    
     2      4   1    1.4643e-01    2.1293e+05 ;     C2 - N1    
     2      7   1    1.0969e-01    2.8804e+05 ;     C2 - H2    
     2      8   1    1.0969e-01    2.8804e+05 ;     C2 - H3    
     2      9   1    1.0969e-01    2.8804e+05 ;     C2 - H4    
     3      4   1    1.4643e-01    2.1293e+05 ;     C3 - N1    
     3     10   1    1.0969e-01    2.8804e+05 ;     C3 - H5    
     3     11   1    1.0969e-01    2.8804e+05 ;     C3 - H6    
     3     12   1    1.0969e-01    2.8804e+05 ;     C3 - H7    

[ pairs ]
;   ai     aj    funct
     1      7      1 ;     C1 - H2    
     1      8      1 ;     C1 - H3    
     1      9      1 ;     C1 - H4    
     1     10      1 ;     C1 - H5    
     1     11      1 ;     C1 - H6    
     1     12      1 ;     C1 - H7    
     2     10      1 ;     C2 - H5    
     2     11      1 ;     C2 - H6    
     2     12      1 ;     C2 - H7    
     3      7      1 ;     C3 - H2    
     3      8      1 ;     C3 - H3    
     3      9      1 ;     C3 - H4    
     5      2      1 ;     O1 - C2    
     5      3      1 ;     O1 - C3    
     6      2      1 ;     H1 - C2    
     6      3      1 ;     H1 - C3    

[ angles ]
;   ai     aj     ak    funct   theta         cth
     1      4      2      1    1.1883e+02    6.4634e+02 ;     C1 - N1     - C2    
     1      4      3      1    1.1883e+02    6.4634e+02 ;     C1 - N1     - C3    
     2      4      3      1    1.1675e+02    6.3773e+02 ;     C2 - N1     - C3    
     4      1      5      1    1.2257e+02    7.2534e+02 ;     N1 - C1     - O1    
     4      1      6      1    1.1214e+02    4.1137e+02 ;     N1 - C1     - H1    
     4      2      7      1    1.0876e+02    4.0242e+02 ;     N1 - C2     - H2    
     4      2      8      1    1.0876e+02    4.0242e+02 ;     N1 - C2     - H3    
     4      2      9      1    1.0876e+02    4.0242e+02 ;     N1 - C2     - H4    
     4      3     10      1    1.0876e+02    4.0242e+02 ;     N1 - C3     - H5    
     4      3     11      1    1.0876e+02    4.0242e+02 ;     N1 - C3     - H6    
     4      3     12      1    1.0876e+02    4.0242e+02 ;     N1 - C3     - H7    
     5      1      6      1    1.2378e+02    4.9664e+02 ;     O1 - C1     - H1    
     7      2      8      1    1.0855e+02    2.9824e+02 ;     H2 - C2     - H3    
     7      2      9      1    1.0855e+02    2.9824e+02 ;     H2 - C2     - H4    
     8      2      9      1    1.0855e+02    2.9824e+02 ;     H3 - C2     - H4    
    10      3     11      1    1.0855e+02    2.9824e+02 ;     H5 - C3     - H6    
    10      3     12      1    1.0855e+02    2.9824e+02 ;     H5 - C3     - H7    
    11      3     12      1    1.0855e+02    2.9824e+02 ;     H6 - C3     - H7    

[ dihedrals ] ; propers
; for gromacs 4.5 or higher, using funct 9
;    i      j      k      l   func   phase     kd      pn
     1      4      2      7      9   180.00   0.00000   2 ;     C1-    N1-    C2-    H2
     1      4      2      8      9   180.00   0.00000   2 ;     C1-    N1-    C2-    H3
     1      4      2      9      9   180.00   0.00000   2 ;     C1-    N1-    C2-    H4
     1      4      3     10      9   180.00   0.00000   2 ;     C1-    N1-    C3-    H5
     1      4      3     11      9   180.00   0.00000   2 ;     C1-    N1-    C3-    H6
     1      4      3     12      9   180.00   0.00000   2 ;     C1-    N1-    C3-    H7
     2      4      3     10      9     0.00   0.00000   0 ;     C2-    N1-    C3-    H5
     2      4      3     11      9     0.00   0.00000   0 ;     C2-    N1-    C3-    H6
     2      4      3     12      9     0.00   0.00000   0 ;     C2-    N1-    C3-    H7
     3      4      2      7      9     0.00   0.00000   0 ;     C3-    N1-    C2-    H2
     3      4      2      8      9     0.00   0.00000   0 ;     C3-    N1-    C2-    H3
     3      4      2      9      9     0.00   0.00000   0 ;     C3-    N1-    C2-    H4
     5      1      4      2      9   180.00  10.46000   2 ;     O1-    C1-    N1-    C2
     5      1      4      3      9   180.00  10.46000   2 ;     O1-    C1-    N1-    C3
     6      1      4      2      9   180.00  10.46000   2 ;     H1-    C1-    N1-    C2
     6      1      4      3      9   180.00  10.46000   2 ;     H1-    C1-    N1-    C3

[ dihedrals ] ; impropers
; treated as propers in GROMACS to use correct AMBER analytical function
;    i      j      k      l   func   phase     kd      pn
     1      2      4      3      4   180.00   4.60240   2 ;     C1-    C2-    N1-    C3
     5      1      4      6      4   180.00  43.93200   2 ;     O1-    C1-    N1-    H1
