mobley_7754849_GMX.gro created by acpype (v: 2023.10.27) on Tue May 19 14:04:39 2026
 2393
    1MOL     C1    1   2.833   2.913   3.229
    1MOL     C2    2   3.249   2.620   2.754
    1MOL     C3    3   2.597   2.618   2.167
    1MOL     C4    4   2.106   2.796   2.482
    1MOL     C5    5   2.805   2.791   3.144
    1MOL     C6    6   3.114   2.570   2.801
    1MOL     C7    7   2.583   2.574   2.311
    1MOL     C8    8   2.210   2.686   2.492
    1MOL     C9    9   2.702   2.701   2.722
    1MOL     O1   10   2.923   2.756   3.074
    1MOL     O2   11   3.071   2.651   2.909
    1MOL     O3   12   2.475   2.645   2.370
    1MOL     O4   13   2.328   2.741   2.547
    1MOL     P1   14   2.912   2.667   2.938
    1MOL     P2   15   2.468   2.659   2.532
    1MOL     S1   16   2.824   2.495   2.968
    1MOL     S2   17   2.457   2.488   2.623
    1MOL     S3   18   2.840   2.796   2.789
    1MOL     S4   19   2.620   2.793   2.590
    1MOL     H1   20   2.915   2.893   3.299
    1MOL     H2   21   2.864   2.997   3.167
    1MOL     H3   22   2.744   2.942   3.286
    1MOL     H4   23   3.243   2.724   2.721
    1MOL     H5   24   3.322   2.617   2.836
    1MOL     H6   25   3.287   2.559   2.672
    1MOL     H7   26   2.505   2.600   2.112
    1MOL     H8   27   2.617   2.726   2.162
    1MOL     H9   28   2.679   2.564   2.118
    1MOL    H10   29   2.086   2.839   2.581
    1MOL    H11   30   2.142   2.878   2.419
    1MOL    H12   31   2.012   2.758   2.441
    1MOL    H13   32   2.723   2.812   3.074
    1MOL    H14   33   2.775   2.707   3.208
    1MOL    H15   34   3.123   2.467   2.836
    1MOL    H16   35   3.043   2.574   2.719
    1MOL    H17   36   2.676   2.593   2.366
    1MOL    H18   37   2.561   2.466   2.316
    1MOL    H19   38   2.229   2.644   2.393
    1MOL    H20   39   2.173   2.606   2.558
    1MOL    H21   40   2.630   2.680   2.801
    1MOL    H22   41   2.739   2.606   2.682
  127SOL     OW   42   1.859   1.518   1.605
  127SOL    HW1   43   1.873   1.545   1.510
  127SOL    HW2   44   1.942   1.540   1.658
  219SOL     OW   45   1.555   1.511   2.565
  219SOL    HW1   46   1.498   1.495   2.646
  219SOL    HW2   47   1.496   1.521   2.485
  227SOL     OW   48   1.460   1.505   3.201
  227SOL    HW1   49   1.484   1.599   3.227
  227SOL    HW2   50   1.444   1.451   3.283
  238SOL     OW   51   1.842   1.767   2.221
  238SOL    HW1   52   1.896   1.738   2.301
  238SOL    HW2   53   1.872   1.857   2.192
  250SOL     OW   54   1.466   1.417   2.815
  250SOL    HW1   55   1.407   1.423   2.895
  250SOL    HW2   56   1.451   1.329   2.769
  251SOL     OW   57   1.667   1.714   2.434
  251SOL    HW1   58   1.626   1.691   2.346
  251SOL    HW2   59   1.649   1.640   2.499
  254SOL     OW   60   1.576   1.662   2.169
  254SOL    HW1   61   1.665   1.708   2.172
  254SOL    HW2   62   1.555   1.638   2.074
  295SOL     OW   63   1.271   1.797   2.453
  295SOL    HW1   64   1.315   1.861   2.389
  295SOL    HW2   65   1.221   1.849   2.523
  305SOL     OW   66   1.664   1.280   2.519
  305SOL    HW1   67   1.763   1.288   2.533
  305SOL    HW2   68   1.619   1.364   2.550
  310SOL     OW   69   1.592   1.629   3.487
  310SOL    HW1   70   1.619   1.663   3.397
  310SOL    HW2   71   1.671   1.591   3.533
  340SOL     OW   72   1.859   1.518   3.467
  340SOL    HW1   73   1.873   1.545   3.372
  340SOL    HW2   74   1.942   1.540   3.520
  365SOL     OW   75   1.759   1.747   3.016
  365SOL    HW1   76   1.820   1.777   2.943
  365SOL    HW2   77   1.721   1.658   2.994
  366SOL     OW   78   1.252   1.731   2.990
  366SOL    HW1   79   1.336   1.736   2.936
  366SOL    HW2   80   1.229   1.635   3.008
  370SOL     OW   81   1.388   1.573   2.339
  370SOL    HW1   82   1.455   1.585   2.265
  370SOL    HW2   83   1.348   1.662   2.362
  375SOL     OW   84   1.650   1.720   3.256
  375SOL    HW1   85   1.703   1.730   3.172
  375SOL    HW2   86   1.623   1.810   3.290
  381SOL     OW   87   1.504   1.607   1.906
  381SOL    HW1   88   1.412   1.644   1.913
  381SOL    HW2   89   1.542   1.627   1.816
  396SOL     OW   90   1.493   1.767   2.821
  396SOL    HW1   91   1.526   1.831   2.752
  396SOL    HW2   92   1.559   1.761   2.896
  409SOL     OW   93   1.861   1.569   2.713
  409SOL    HW1   94   1.790   1.557   2.643
  409SOL    HW2   95   1.862   1.490   2.773
  415SOL     OW   96   1.705   1.487   2.966
  415SOL    HW1   97   1.612   1.462   2.939
  415SOL    HW2   98   1.731   1.437   3.048
  635SOL     OW   99   1.594   1.976   1.480
  635SOL    HW1  100   1.576   2.043   1.408
  635SOL    HW2  101   1.591   2.022   1.569
  655SOL     OW  102   1.394   2.331   1.674
  655SOL    HW1  103   1.374   2.374   1.762
  655SOL    HW2  104   1.472   2.269   1.683
  662SOL     OW  105   1.719   2.447   1.831
  662SOL    HW1  106   1.693   2.536   1.795
  662SOL    HW2  107   1.717   2.379   1.758
  680SOL     OW  108   1.547   2.084   1.729
  680SOL    HW1  109   1.542   2.121   1.821
  680SOL    HW2  110   1.475   2.015   1.717
  707SOL     OW  111   1.754   3.085   1.588
  707SOL    HW1  112   1.845   3.046   1.575
  707SOL    HW2  113   1.762   3.181   1.612
  709SOL     OW  114   1.592   3.491   1.625
  709SOL    HW1  115   1.619   3.525   1.535
  709SOL    HW2  116   1.671   3.453   1.671
  725SOL     OW  117   1.587   2.641   1.670
  725SOL    HW1  118   1.495   2.679   1.665
  725SOL    HW2  119   1.647   2.688   1.605
  734SOL     OW  120   1.728   2.797   1.854
  734SOL    HW1  121   1.682   2.790   1.765
  734SOL    HW2  122   1.666   2.841   1.920
  739SOL     OW  123   1.859   3.380   1.605
  739SOL    HW1  124   1.873   3.407   1.510
  739SOL    HW2  125   1.942   3.402   1.658
  754SOL     OW  126   1.369   2.812   1.660
  754SOL    HW1  127   1.408   2.901   1.680
  754SOL    HW2  128   1.379   2.792   1.563
  787SOL     OW  129   1.709   2.247   1.381
  787SOL    HW1  130   1.782   2.316   1.385
  787SOL    HW2  131   1.737   2.172   1.322
  792SOL     OW  132   1.440   2.718   1.398
  792SOL    HW1  133   1.383   2.770   1.335
  792SOL    HW2  134   1.536   2.730   1.374
  798SOL     OW  135   1.450   3.082   1.633
  798SOL    HW1  136   1.441   3.072   1.732
  798SOL    HW2  137   1.546   3.075   1.607
  800SOL     OW  138   1.674   2.745   1.254
  800SOL    HW1  139   1.647   2.656   1.217
  800SOL    HW2  140   1.675   2.813   1.181
  803SOL     OW  141   1.777   2.204   1.642
  803SOL    HW1  142   1.760   2.235   1.548
  803SOL    HW2  143   1.693   2.167   1.680
  804SOL     OW  144   1.730   2.796   1.517
  804SOL    HW1  145   1.768   2.887   1.532
  804SOL    HW2  146   1.722   2.779   1.418
  831SOL     OW  147   1.555   3.373   2.565
  831SOL    HW1  148   1.498   3.357   2.646
  831SOL    HW2  149   1.496   3.383   2.485
  832SOL     OW  150   1.135   2.565   2.579
  832SOL    HW1  151   1.192   2.643   2.554
  832SOL    HW2  152   1.075   2.591   2.655
  833SOL     OW  153   1.755   2.469   2.093
  833SOL    HW1  154   1.743   2.456   1.994
  833SOL    HW2  155   1.725   2.388   2.142
  839SOL     OW  156   1.460   3.367   3.201
  839SOL    HW1  157   1.484   3.461   3.227
  839SOL    HW2  158   1.444   3.313   3.283
  841SOL     OW  159   1.603   2.309   2.599
  841SOL    HW1  160   1.529   2.355   2.549
  841SOL    HW2  161   1.654   2.377   2.652
  848SOL     OW  162   1.594   1.976   3.342
  848SOL    HW1  163   1.576   2.043   3.270
  848SOL    HW2  164   1.591   2.022   3.431
  850SOL     OW  165   1.842   3.629   2.221
  850SOL    HW1  166   1.896   3.600   2.301
  850SOL    HW2  167   1.872   3.719   2.192
  852SOL     OW  168   1.689   2.784   2.474
  852SOL    HW1  169   1.784   2.755   2.482
  852SOL    HW2  170   1.681   2.849   2.399
  853SOL     OW  171   1.641   2.970   2.294
  853SOL    HW1  172   1.727   2.972   2.242
  853SOL    HW2  173   1.655   3.017   2.382
  856SOL     OW  174   1.293   3.090   3.285
  856SOL    HW1  175   1.330   3.017   3.227
  856SOL    HW2  176   1.345   3.095   3.370
  859SOL     OW  177   1.525   2.861   2.052
  859SOL    HW1  178   1.462   2.785   2.065
  859SOL    HW2  179   1.573   2.879   2.138
  862SOL     OW  180   1.466   3.279   2.815
  862SOL    HW1  181   1.407   3.285   2.895
  862SOL    HW2  182   1.451   3.191   2.769
  863SOL     OW  183   1.667   3.576   2.434
  863SOL    HW1  184   1.626   3.553   2.346
  863SOL    HW2  185   1.649   3.502   2.499
  865SOL     OW  186   1.281   2.207   2.806
  865SOL    HW1  187   1.195   2.157   2.793
  865SOL    HW2  188   1.343   2.153   2.862
  866SOL     OW  189   1.576   3.524   2.169
  866SOL    HW1  190   1.665   3.570   2.172
  866SOL    HW2  191   1.555   3.500   2.074
  868SOL     OW  192   1.394   2.331   3.536
  868SOL    HW1  193   1.374   2.374   3.624
  868SOL    HW2  194   1.472   2.269   3.545
  870SOL     OW  195   0.991   2.272   3.104
  870SOL    HW1  196   0.914   2.306   3.158
  870SOL    HW2  197   0.957   2.221   3.025
  871SOL     OW  198   1.041   2.563   2.291
  871SOL    HW1  199   1.067   2.559   2.387
  871SOL    HW2  200   0.956   2.512   2.277
  875SOL     OW  201   1.719   2.447   3.693
  875SOL    HW1  202   1.693   2.536   3.657
  875SOL    HW2  203   1.717   2.379   3.620
  876SOL     OW  204   1.362   3.006   2.407
  876SOL    HW1  205   1.445   2.977   2.359
  876SOL    HW2  206   1.313   3.073   2.351
  880SOL     OW  207   1.795   2.928   2.735
  880SOL    HW1  208   1.733   2.913   2.659
  880SOL    HW2  209   1.743   2.939   2.820
  881SOL     OW  210   1.227   3.412   3.368
  881SOL    HW1  211   1.233   3.335   3.432
  881SOL    HW2  212   1.175   3.386   3.288
  883SOL     OW  213   1.458   2.597   2.590
  883SOL    HW1  214   1.453   2.532   2.665
  883SOL    HW2  215   1.538   2.656   2.603
  887SOL     OW  216   1.632   3.239   1.943
  887SOL    HW1  217   1.600   3.333   1.933
  887SOL    HW2  218   1.556   3.176   1.931
  889SOL     OW  219   1.400   1.969   2.288
  889SOL    HW1  220   1.376   1.932   2.198
  889SOL    HW2  221   1.499   1.985   2.292
  893SOL     OW  222   1.547   2.084   3.591
  893SOL    HW1  223   1.542   2.121   3.683
  893SOL    HW2  224   1.475   2.015   3.579
  897SOL     OW  225   1.351   2.452   3.295
  897SOL    HW1  226   1.379   2.409   3.380
  897SOL    HW2  227   1.376   2.548   3.296
  899SOL     OW  228   0.922   2.365   2.761
  899SOL    HW1  229   0.897   2.356   2.665
  899SOL    HW2  230   0.970   2.283   2.792
  901SOL     OW  231   1.434   3.050   1.903
  901SOL    HW1  232   1.466   2.974   1.960
  901SOL    HW2  233   1.342   3.077   1.933
  904SOL     OW  234   1.076   2.545   3.326
  904SOL    HW1  235   0.996   2.484   3.329
  904SOL    HW2  236   1.157   2.492   3.302
  905SOL     OW  237   1.227   3.432   2.655
  905SOL    HW1  238   1.248   3.506   2.590
  905SOL    HW2  239   1.295   3.432   2.728
  907SOL     OW  240   1.271   3.659   2.453
  907SOL    HW1  241   1.315   3.723   2.389
  907SOL    HW2  242   1.221   3.711   2.523
  913SOL     OW  243   1.429   3.035   2.729
  913SOL    HW1  244   1.374   2.951   2.722
  913SOL    HW2  245   1.455   3.064   2.637
  914SOL     OW  246   1.466   2.452   2.854
  914SOL    HW1  247   1.436   2.357   2.861
  914SOL    HW2  248   1.539   2.468   2.920
  915SOL     OW  249   1.857   2.695   2.239
  915SOL    HW1  250   1.899   2.631   2.303
  915SOL    HW2  251   1.819   2.644   2.161
  917SOL     OW  252   1.664   3.142   2.519
  917SOL    HW1  253   1.763   3.150   2.533
  917SOL    HW2  254   1.619   3.226   2.550
  918SOL     OW  255   1.390   2.437   1.940
  918SOL    HW1  256   1.336   2.416   2.021
  918SOL    HW2  257   1.481   2.396   1.949
  920SOL     OW  258   1.754   3.085   3.450
  920SOL    HW1  259   1.845   3.046   3.437
  920SOL    HW2  260   1.762   3.181   3.474
  921SOL     OW  261   1.064   3.209   3.202
  921SOL    HW1  262   0.984   3.186   3.257
  921SOL    HW2  263   1.147   3.183   3.251
  922SOL     OW  264   1.592   3.491   3.487
  922SOL    HW1  265   1.619   3.525   3.397
  922SOL    HW2  266   1.671   3.453   3.533
  923SOL     OW  267   1.111   3.057   2.962
  923SOL    HW1  268   1.071   3.101   3.043
  923SOL    HW2  269   1.070   3.094   2.879
  924SOL     OW  270   1.638   2.961   2.941
  924SOL    HW1  271   1.643   3.042   3.000
  924SOL    HW2  272   1.552   2.963   2.890
  929SOL     OW  273   1.274   2.248   3.124
  929SOL    HW1  274   1.295   2.322   3.188
  929SOL    HW2  275   1.185   2.265   3.081
  933SOL     OW  276   1.252   3.210   2.250
  933SOL    HW1  277   1.302   3.287   2.290
  933SOL    HW2  278   1.157   3.212   2.282
  934SOL     OW  279   1.272   3.307   3.004
  934SOL    HW1  280   1.319   3.320   3.091
  934SOL    HW2  281   1.206   3.233   3.013
  935SOL     OW  282   1.582   2.501   2.334
  935SOL    HW1  283   1.551   2.562   2.407
  935SOL    HW2  284   1.632   2.553   2.265
  938SOL     OW  285   1.587   2.641   3.532
  938SOL    HW1  286   1.495   2.679   3.527
  938SOL    HW2  287   1.647   2.688   3.467
  942SOL     OW  288   1.360   2.724   2.907
  942SOL    HW1  289   1.285   2.724   2.841
  942SOL    HW2  290   1.397   2.632   2.916
  943SOL     OW  291   1.209   2.387   2.137
  943SOL    HW1  292   1.222   2.303   2.191
  943SOL    HW2  293   1.180   2.461   2.197
  947SOL     OW  294   1.728   2.797   3.716
  947SOL    HW1  295   1.682   2.790   3.627
  947SOL    HW2  296   1.666   2.841   3.782
  949SOL     OW  297   1.622   2.229   2.236
  949SOL    HW1  298   1.624   2.153   2.300
  949SOL    HW2  299   1.574   2.306   2.276
  950SOL     OW  300   1.023   2.628   2.828
  950SOL    HW1  301   1.038   2.649   2.924
  950SOL    HW2  302   0.993   2.533   2.819
  952SOL     OW  303   1.859   3.380   3.467
  952SOL    HW1  304   1.873   3.407   3.372
  952SOL    HW2  305   1.942   3.402   3.520
  954SOL     OW  306   1.540   2.136   1.987
  954SOL    HW1  307   1.479   2.061   2.010
  954SOL    HW2  308   1.562   2.188   2.070
  955SOL     OW  309   1.303   2.700   1.904
  955SOL    HW1  310   1.337   2.607   1.919
  955SOL    HW2  311   1.321   2.727   1.809
  956SOL     OW  312   1.068   3.195   2.711
  956SOL    HW1  313   1.075   3.111   2.656
  956SOL    HW2  314   1.130   3.264   2.675
  960SOL     OW  315   1.160   2.069   3.339
  960SOL    HW1  316   1.160   2.133   3.416
  960SOL    HW2  317   1.188   2.117   3.256
  964SOL     OW  318   1.002   2.658   3.100
  964SOL    HW1  319   1.043   2.626   3.186
  964SOL    HW2  320   0.906   2.631   3.097
  967SOL     OW  321   1.369   2.812   3.522
  967SOL    HW1  322   1.408   2.901   3.542
  967SOL    HW2  323   1.379   2.792   3.425
  969SOL     OW  324   1.657   2.466   3.068
  969SOL    HW1  325   1.619   2.397   3.130
  969SOL    HW2  326   1.739   2.430   3.024
  975SOL     OW  327   1.347   2.921   3.096
  975SOL    HW1  328   1.371   2.858   3.022
  975SOL    HW2  329   1.257   2.961   3.078
  976SOL     OW  330   1.302   2.717   2.171
  976SOL    HW1  331   1.216   2.686   2.213
  976SOL    HW2  332   1.298   2.703   2.072
  977SOL     OW  333   1.759   3.609   3.016
  977SOL    HW1  334   1.820   3.639   2.943
  977SOL    HW2  335   1.721   3.520   2.994
  978SOL     OW  336   1.252   3.593   2.990
  978SOL    HW1  337   1.336   3.598   2.936
  978SOL    HW2  338   1.229   3.497   3.008
  981SOL     OW  339   1.726   1.997   2.385
  981SOL    HW1  340   1.799   1.980   2.318
  981SOL    HW2  341   1.695   1.910   2.423
  982SOL     OW  342   1.388   3.435   2.339
  982SOL    HW1  343   1.455   3.447   2.265
  982SOL    HW2  344   1.348   3.524   2.362
  984SOL     OW  345   1.280   2.789   2.534
  984SOL    HW1  346   1.340   2.708   2.536
  984SOL    HW2  347   1.320   2.858   2.474
  987SOL     OW  348   1.650   3.582   3.256
  987SOL    HW1  349   1.703   3.592   3.172
  987SOL    HW2  350   1.623   3.672   3.290
  988SOL     OW  351   1.841   2.037   2.825
  988SOL    HW1  352   1.880   1.952   2.789
  988SOL    HW2  353   1.743   2.039   2.806
  993SOL     OW  354   1.504   3.469   1.906
  993SOL    HW1  355   1.412   3.506   1.913
  993SOL    HW2  356   1.542   3.489   1.816
  995SOL     OW  357   1.614   3.154   3.151
  995SOL    HW1  358   1.674   3.157   3.231
  995SOL    HW2  359   1.539   3.218   3.164
  996SOL     OW  360   1.039   2.960   2.558
  996SOL    HW1  361   0.969   2.913   2.612
  996SOL    HW2  362   1.098   2.892   2.515
  997SOL     OW  363   1.014   2.098   2.833
  997SOL    HW1  364   1.006   2.062   2.740
  997SOL    HW2  365   1.012   2.022   2.898
  999SOL     OW  366   1.709   2.247   3.243
  999SOL    HW1  367   1.782   2.316   3.247
  999SOL    HW2  368   1.737   2.172   3.184
 1004SOL     OW  369   1.440   2.718   3.260
 1004SOL    HW1  370   1.383   2.770   3.197
 1004SOL    HW2  371   1.536   2.730   3.236
 1006SOL     OW  372   1.183   3.197   1.981
 1006SOL    HW1  373   1.084   3.186   1.983
 1006SOL    HW2  374   1.217   3.212   2.074
 1008SOL     OW  375   1.493   3.629   2.821
 1008SOL    HW1  376   1.526   3.693   2.752
 1008SOL    HW2  377   1.559   3.623   2.896
 1010SOL     OW  378   1.450   3.082   3.495
 1010SOL    HW1  379   1.441   3.072   3.594
 1010SOL    HW2  380   1.546   3.075   3.469
 1012SOL     OW  381   1.674   2.745   3.116
 1012SOL    HW1  382   1.647   2.656   3.079
 1012SOL    HW2  383   1.675   2.813   3.043
 1013SOL     OW  384   1.225   2.187   2.311
 1013SOL    HW1  385   1.290   2.113   2.300
 1013SOL    HW2  386   1.245   2.237   2.395
 1015SOL     OW  387   1.777   2.204   3.504
 1015SOL    HW1  388   1.760   2.235   3.410
 1015SOL    HW2  389   1.693   2.167   3.542
 1016SOL     OW  390   1.730   2.796   3.379
 1016SOL    HW1  391   1.768   2.887   3.394
 1016SOL    HW2  392   1.722   2.779   3.280
 1020SOL     OW  393   1.083   2.846   1.949
 1020SOL    HW1  394   1.060   2.899   1.867
 1020SOL    HW2  395   1.164   2.790   1.930
 1021SOL     OW  396   1.861   3.431   2.713
 1021SOL    HW1  397   1.790   3.419   2.643
 1021SOL    HW2  398   1.862   3.352   2.773
 1025SOL     OW  399   1.824   2.054   3.089
 1025SOL    HW1  400   1.820   1.964   3.133
 1025SOL    HW2  401   1.827   2.043   2.990
 1027SOL     OW  402   1.705   3.349   2.966
 1027SOL    HW1  403   1.612   3.324   2.939
 1027SOL    HW2  404   1.731   3.299   3.048
 1030SOL     OW  405   1.424   2.076   2.974
 1030SOL    HW1  406   1.476   2.011   3.029
 1030SOL    HW2  407   1.375   2.139   3.035
 1034SOL     OW  408   1.352   1.914   2.030
 1034SOL    HW1  409   1.387   1.873   1.946
 1034SOL    HW2  410   1.262   1.876   2.050
 1035SOL     OW  411   1.300   2.315   2.553
 1035SOL    HW1  412   1.241   2.395   2.557
 1035SOL    HW2  413   1.315   2.280   2.646
 1036SOL     OW  414   1.593   2.083   2.744
 1036SOL    HW1  415   1.509   2.082   2.798
 1036SOL    HW2  416   1.595   2.166   2.688
 1045SOL     OW  417   1.755   2.469   3.955
 1045SOL    HW1  418   1.743   2.456   3.856
 1045SOL    HW2  419   1.725   2.388   4.004
 1069SOL     OW  420   1.525   2.861   3.914
 1069SOL    HW1  421   1.462   2.785   3.927
 1069SOL    HW2  422   1.573   2.879   4.000
 1091SOL     OW  423   1.632   3.239   3.805
 1091SOL    HW1  424   1.600   3.333   3.795
 1091SOL    HW2  425   1.556   3.176   3.793
 1103SOL     OW  426   1.434   3.050   3.765
 1103SOL    HW1  427   1.466   2.974   3.822
 1103SOL    HW2  428   1.342   3.077   3.795
 1117SOL     OW  429   1.857   2.695   4.101
 1117SOL    HW1  430   1.899   2.631   4.165
 1117SOL    HW2  431   1.819   2.644   4.023
 1120SOL     OW  432   1.390   2.437   3.802
 1120SOL    HW1  433   1.336   2.416   3.883
 1120SOL    HW2  434   1.481   2.396   3.811
 1148SOL     OW  435   1.540   2.136   3.849
 1148SOL    HW1  436   1.479   2.061   3.872
 1148SOL    HW2  437   1.562   2.188   3.932
 1149SOL     OW  438   1.303   2.700   3.766
 1149SOL    HW1  439   1.337   2.607   3.781
 1149SOL    HW2  440   1.321   2.727   3.671
 1182SOL     OW  441   1.504   3.469   3.768
 1182SOL    HW1  442   1.412   3.506   3.775
 1182SOL    HW2  443   1.542   3.489   3.678
 1428SOL     OW  444   1.594   3.838   3.342
 1428SOL    HW1  445   1.576   3.905   3.270
 1428SOL    HW2  446   1.591   3.884   3.431
 1463SOL     OW  447   1.400   3.831   2.288
 1463SOL    HW1  448   1.376   3.794   2.198
 1463SOL    HW2  449   1.499   3.847   2.292
 1544SOL     OW  450   1.726   3.859   2.385
 1544SOL    HW1  451   1.799   3.842   2.318
 1544SOL    HW2  452   1.695   3.772   2.423
 1547SOL     OW  453   1.841   3.899   2.825
 1547SOL    HW1  454   1.880   3.814   2.789
 1547SOL    HW2  455   1.743   3.901   2.806
 1580SOL     OW  456   1.824   3.916   3.089
 1580SOL    HW1  457   1.820   3.826   3.133
 1580SOL    HW2  458   1.827   3.905   2.990
 1590SOL     OW  459   1.593   3.945   2.744
 1590SOL    HW1  460   1.509   3.944   2.798
 1590SOL    HW2  461   1.595   4.028   2.688
 1765SOL     OW  462   2.548   1.161   1.803
 1765SOL    HW1  463   2.608   1.240   1.817
 1765SOL    HW2  464   2.462   1.192   1.762
 1771SOL     OW  465   2.989   1.341   1.690
 1771SOL    HW1  466   3.036   1.341   1.778
 1771SOL    HW2  467   2.941   1.254   1.679
 1774SOL     OW  468   2.482   1.786   1.439
 1774SOL    HW1  469   2.390   1.769   1.474
 1774SOL    HW2  470   2.510   1.878   1.465
 1788SOL     OW  471   3.049   1.792   1.616
 1788SOL    HW1  472   3.073   1.852   1.540
 1788SOL    HW2  473   3.056   1.697   1.586
 1801SOL     OW  474   1.992   1.821   1.571
 1801SOL    HW1  475   1.982   1.806   1.670
 1801SOL    HW2  476   1.906   1.857   1.535
 1809SOL     OW  477   3.089   1.550   1.506
 1809SOL    HW1  478   3.095   1.473   1.570
 1809SOL    HW2  479   3.037   1.524   1.426
 1812SOL     OW  480   2.323   1.266   1.727
 1812SOL    HW1  481   2.273   1.267   1.641
 1812SOL    HW2  482   2.260   1.248   1.803
 1850SOL     OW  483   3.454   1.629   1.625
 1850SOL    HW1  484   3.481   1.663   1.535
 1850SOL    HW2  485   3.533   1.591   1.671
 1879SOL     OW  486   2.842   1.573   1.700
 1879SOL    HW1  487   2.822   1.617   1.612
 1879SOL    HW2  488   2.881   1.482   1.684
 1898SOL     OW  489   2.114   1.564   1.744
 1898SOL    HW1  490   2.084   1.621   1.820
 1898SOL    HW2  491   2.107   1.467   1.770
 1900SOL     OW  492   2.792   1.678   1.465
 1900SOL    HW1  493   2.768   1.660   1.370
 1900SOL    HW2  494   2.822   1.772   1.475
 1908SOL     OW  495   2.550   1.662   1.716
 1908SOL    HW1  496   2.494   1.743   1.725
 1908SOL    HW2  497   2.602   1.666   1.630
 1912SOL     OW  498   1.992   1.794   1.851
 1912SOL    HW1  499   1.951   1.720   1.904
 1912SOL    HW2  500   2.056   1.845   1.909
 1939SOL     OW  501   2.252   1.741   1.560
 1939SOL    HW1  502   2.161   1.782   1.558
 1939SOL    HW2  503   2.245   1.647   1.592
 1950SOL     OW  504   2.083   1.314   1.844
 1950SOL    HW1  505   2.018   1.241   1.823
 1950SOL    HW2  506   2.087   1.328   1.942
 1952SOL     OW  507   2.534   1.391   1.624
 1952SOL    HW1  508   2.456   1.341   1.662
 1952SOL    HW2  509   2.531   1.486   1.655
 1970SOL     OW  510   2.431   1.275   3.027
 1970SOL    HW1  511   2.338   1.268   2.990
 1970SOL    HW2  512   2.442   1.364   3.071
 1971SOL     OW  513   3.417   1.511   2.565
 1971SOL    HW1  514   3.360   1.495   2.646
 1971SOL    HW2  515   3.358   1.521   2.485
 1974SOL     OW  516   2.630   1.144   2.885
 1974SOL    HW1  517   2.552   1.161   2.945
 1974SOL    HW2  518   2.664   1.231   2.849
 1976SOL     OW  519   2.547   1.012   2.527
 1976SOL    HW1  520   2.616   0.996   2.597
 1976SOL    HW2  521   2.474   1.069   2.565
 1978SOL     OW  522   2.197   1.435   2.923
 1978SOL    HW1  523   2.119   1.404   2.870
 1978SOL    HW2  524   2.255   1.493   2.866
 1979SOL     OW  525   3.322   1.505   3.201
 1979SOL    HW1  526   3.346   1.599   3.227
 1979SOL    HW2  527   3.306   1.451   3.283
 1982SOL     OW  528   2.093   1.713   2.345
 1982SOL    HW1  529   2.127   1.790   2.399
 1982SOL    HW2  530   2.137   1.713   2.255
 1983SOL     OW  531   2.989   1.341   3.552
 1983SOL    HW1  532   3.036   1.341   3.640
 1983SOL    HW2  533   2.941   1.254   3.541
 1984SOL     OW  534   2.092   1.434   2.400
 1984SOL    HW1  535   2.066   1.530   2.400
 1984SOL    HW2  536   2.021   1.380   2.445
 1985SOL     OW  537   2.102   1.091   2.748
 1985SOL    HW1  538   2.116   1.007   2.800
 1985SOL    HW2  539   2.047   1.155   2.803
 1986SOL     OW  540   2.482   1.786   3.301
 1986SOL    HW1  541   2.390   1.769   3.336
 1986SOL    HW2  542   2.510   1.878   3.327
 1990SOL     OW  543   3.704   1.767   2.221
 1990SOL    HW1  544   3.758   1.738   2.301
 1990SOL    HW2  545   3.734   1.857   2.192
 1991SOL     OW  546   1.889   1.596   1.979
 1991SOL    HW1  547   1.870   1.500   2.000
 1991SOL    HW2  548   1.856   1.654   2.054
 1995SOL     OW  549   2.475   1.365   2.588
 1995SOL    HW1  550   2.426   1.278   2.597
 1995SOL    HW2  551   2.452   1.408   2.501
 1996SOL     OW  552   3.155   1.228   3.285
 1996SOL    HW1  553   3.192   1.155   3.227
 1996SOL    HW2  554   3.207   1.233   3.370
 2000SOL     OW  555   3.049   1.792   3.478
 2000SOL    HW1  556   3.073   1.852   3.402
 2000SOL    HW2  557   3.056   1.697   3.448
 2002SOL     OW  558   3.328   1.417   2.815
 2002SOL    HW1  559   3.269   1.423   2.895
 2002SOL    HW2  560   3.313   1.329   2.769
 2003SOL     OW  561   3.529   1.714   2.434
 2003SOL    HW1  562   3.488   1.691   2.346
 2003SOL    HW2  563   3.511   1.640   2.499
 2006SOL     OW  564   3.438   1.662   2.169
 2006SOL    HW1  565   3.527   1.708   2.172
 2006SOL    HW2  566   3.417   1.638   2.074
 2013SOL     OW  567   1.992   1.821   3.433
 2013SOL    HW1  568   1.982   1.806   3.532
 2013SOL    HW2  569   1.906   1.857   3.397
 2016SOL     OW  570   3.224   1.144   2.407
 2016SOL    HW1  571   3.307   1.115   2.359
 2016SOL    HW2  572   3.175   1.211   2.351
 2018SOL     OW  573   2.870   1.456   2.339
 2018SOL    HW1  574   2.824   1.528   2.287
 2018SOL    HW2  575   2.866   1.476   2.437
 2019SOL     OW  576   2.213   1.801   2.715
 2019SOL    HW1  577   2.263   1.715   2.721
 2019SOL    HW2  578   2.278   1.878   2.712
 2021SOL     OW  579   3.089   1.550   3.368
 2021SOL    HW1  580   3.095   1.473   3.432
 2021SOL    HW2  581   3.037   1.524   3.288
 2024SOL     OW  582   2.323   1.266   3.589
 2024SOL    HW1  583   2.273   1.267   3.503
 2024SOL    HW2  584   2.260   1.248   3.665
 2025SOL     OW  585   2.973   1.776   2.099
 2025SOL    HW1  586   2.913   1.714   2.149
 2025SOL    HW2  587   3.004   1.732   2.014
 2027SOL     OW  588   3.494   1.377   1.943
 2027SOL    HW1  589   3.462   1.471   1.933
 2027SOL    HW2  590   3.418   1.314   1.931
 2028SOL     OW  591   2.326   1.743   2.185
 2028SOL    HW1  592   2.359   1.782   2.271
 2028SOL    HW2  593   2.402   1.736   2.120
 2030SOL     OW  594   2.111   1.785   3.103
 2030SOL    HW1  595   2.168   1.720   3.153
 2030SOL    HW2  596   2.095   1.752   3.010
 2031SOL     OW  597   2.802   1.698   2.766
 2031SOL    HW1  598   2.882   1.641   2.787
 2031SOL    HW2  599   2.753   1.658   2.689
 2036SOL     OW  600   2.750   1.514   3.057
 2036SOL    HW1  601   2.727   1.489   2.963
 2036SOL    HW2  602   2.811   1.445   3.096
 2038SOL     OW  603   2.665   1.402   2.786
 2038SOL    HW1  604   2.755   1.416   2.744
 2038SOL    HW2  605   2.594   1.404   2.715
 2041SOL     OW  606   3.296   1.188   1.903
 2041SOL    HW1  607   3.328   1.112   1.960
 2041SOL    HW2  608   3.204   1.215   1.933
 2045SOL     OW  609   3.089   1.570   2.655
 2045SOL    HW1  610   3.110   1.644   2.590
 2045SOL    HW2  611   3.157   1.570   2.728
 2046SOL     OW  612   2.321   1.152   2.603
 2046SOL    HW1  613   2.250   1.125   2.668
 2046SOL    HW2  614   2.295   1.124   2.510
 2047SOL     OW  615   3.133   1.797   2.453
 2047SOL    HW1  616   3.177   1.861   2.389
 2047SOL    HW2  617   3.083   1.849   2.523
 2053SOL     OW  618   3.291   1.173   2.729
 2053SOL    HW1  619   3.236   1.089   2.722
 2053SOL    HW2  620   3.317   1.202   2.637
 2056SOL     OW  621   2.350   1.385   2.036
 2056SOL    HW1  622   2.263   1.370   2.083
 2056SOL    HW2  623   2.333   1.411   1.941
 2057SOL     OW  624   3.526   1.280   2.519
 2057SOL    HW1  625   3.625   1.288   2.533
 2057SOL    HW2  626   3.481   1.364   2.550
 2061SOL     OW  627   2.926   1.347   3.202
 2061SOL    HW1  628   2.846   1.324   3.257
 2061SOL    HW2  629   3.009   1.321   3.251
 2062SOL     OW  630   3.454   1.629   3.487
 2062SOL    HW1  631   3.481   1.663   3.397
 2062SOL    HW2  632   3.533   1.591   3.533
 2063SOL     OW  633   2.973   1.195   2.962
 2063SOL    HW1  634   2.933   1.239   3.043
 2063SOL    HW2  635   2.932   1.232   2.879
 2067SOL     OW  636   2.567   1.050   2.230
 2067SOL    HW1  637   2.553   1.057   2.329
 2067SOL    HW2  638   2.651   0.999   2.212
 2070SOL     OW  639   1.926   1.564   3.193
 2070SOL    HW1  640   1.880   1.646   3.159
 2070SOL    HW2  641   2.024   1.583   3.202
 2071SOL     OW  642   2.229   1.100   2.363
 2071SOL    HW1  643   2.222   1.183   2.307
 2071SOL    HW2  644   2.233   1.020   2.303
 2073SOL     OW  645   3.114   1.348   2.250
 2073SOL    HW1  646   3.164   1.425   2.290
 2073SOL    HW2  647   3.019   1.350   2.282
 2074SOL     OW  648   3.134   1.445   3.004
 2074SOL    HW1  649   3.181   1.458   3.091
 2074SOL    HW2  650   3.068   1.371   3.013
 2076SOL     OW  651   2.216   1.510   3.191
 2076SOL    HW1  652   2.195   1.466   3.104
 2076SOL    HW2  653   2.313   1.536   3.194
 2085SOL     OW  654   1.899   1.310   3.144
 2085SOL    HW1  655   1.952   1.261   3.212
 2085SOL    HW2  656   1.921   1.408   3.149
 2091SOL     OW  657   2.842   1.573   3.562
 2091SOL    HW1  658   2.822   1.617   3.474
 2091SOL    HW2  659   2.881   1.482   3.546
 2092SOL     OW  660   3.721   1.518   3.467
 2092SOL    HW1  661   3.735   1.545   3.372
 2092SOL    HW2  662   3.804   1.540   3.520
 2096SOL     OW  663   2.930   1.333   2.711
 2096SOL    HW1  664   2.937   1.249   2.656
 2096SOL    HW2  665   2.992   1.402   2.675
 2101SOL     OW  666   1.870   1.326   2.062
 2101SOL    HW1  667   1.777   1.347   2.031
 2101SOL    HW2  668   1.880   1.227   2.075
 2102SOL     OW  669   1.950   1.801   2.789
 2102SOL    HW1  670   1.908   1.715   2.762
 2102SOL    HW2  671   2.044   1.804   2.755
 2103SOL     OW  672   2.366   1.568   2.772
 2103SOL    HW1  673   2.432   1.642   2.781
 2103SOL    HW2  674   2.410   1.489   2.730
 2110SOL     OW  675   2.114   1.564   3.606
 2110SOL    HW1  676   2.084   1.621   3.682
 2110SOL    HW2  677   2.107   1.467   3.632
 2112SOL     OW  678   2.792   1.678   3.327
 2112SOL    HW1  679   2.768   1.660   3.232
 2112SOL    HW2  680   2.822   1.772   3.337
 2115SOL     OW  681   3.209   1.059   3.096
 2115SOL    HW1  682   3.233   0.996   3.022
 2115SOL    HW2  683   3.119   1.099   3.078
 2117SOL     OW  684   3.621   1.747   3.016
 2117SOL    HW1  685   3.682   1.777   2.943
 2117SOL    HW2  686   3.583   1.658   2.994
 2118SOL     OW  687   3.114   1.731   2.990
 2118SOL    HW1  688   3.198   1.736   2.936
 2118SOL    HW2  689   3.091   1.635   3.008
 2119SOL     OW  690   1.945   1.258   2.884
 2119SOL    HW1  691   1.940   1.257   2.984
 2119SOL    HW2  692   1.862   1.217   2.846
 2120SOL     OW  693   2.550   1.662   3.578
 2120SOL    HW1  694   2.494   1.743   3.587
 2120SOL    HW2  695   2.602   1.666   3.492
 2122SOL     OW  696   3.250   1.573   2.339
 2122SOL    HW1  697   3.317   1.585   2.265
 2122SOL    HW2  698   3.210   1.662   2.362
 2123SOL     OW  699   1.992   1.794   3.713
 2123SOL    HW1  700   1.951   1.720   3.766
 2123SOL    HW2  701   2.056   1.845   3.771
 2125SOL     OW  702   2.692   1.273   3.284
 2125SOL    HW1  703   2.687   1.306   3.379
 2125SOL    HW2  704   2.606   1.292   3.238
 2126SOL     OW  705   2.534   1.616   2.016
 2126SOL    HW1  706   2.543   1.626   1.917
 2126SOL    HW2  707   2.494   1.527   2.037
 2127SOL     OW  708   3.512   1.720   3.256
 2127SOL    HW1  709   3.565   1.730   3.172
 2127SOL    HW2  710   3.485   1.810   3.290
 2130SOL     OW  711   3.056   1.612   1.893
 2130SOL    HW1  712   3.062   1.519   1.930
 2130SOL    HW2  713   2.997   1.612   1.813
 2131SOL     OW  714   2.684   1.002   3.234
 2131SOL    HW1  715   2.724   1.001   3.142
 2131SOL    HW2  716   2.694   1.094   3.274
 2133SOL     OW  717   3.366   1.607   1.906
 2133SOL    HW1  718   3.274   1.644   1.913
 2133SOL    HW2  719   3.404   1.627   1.816
 2134SOL     OW  720   2.234   1.288   3.352
 2134SOL    HW1  721   2.221   1.381   3.318
 2134SOL    HW2  722   2.150   1.236   3.339
 2135SOL     OW  723   3.476   1.292   3.151
 2135SOL    HW1  724   3.536   1.295   3.231
 2135SOL    HW2  725   3.401   1.356   3.164
 2136SOL     OW  726   2.901   1.098   2.558
 2136SOL    HW1  727   2.831   1.051   2.612
 2136SOL    HW2  728   2.960   1.030   2.515
 2138SOL     OW  729   2.452   1.487   2.353
 2138SOL    HW1  730   2.494   1.429   2.283
 2138SOL    HW2  731   2.408   1.566   2.309
 2140SOL     OW  732   2.117   1.348   2.152
 2140SOL    HW1  733   2.021   1.349   2.125
 2140SOL    HW2  734   2.129   1.401   2.236
 2146SOL     OW  735   3.045   1.335   1.981
 2146SOL    HW1  736   2.946   1.324   1.983
 2146SOL    HW2  737   3.079   1.350   2.074
 2148SOL     OW  738   3.355   1.767   2.821
 2148SOL    HW1  739   3.388   1.831   2.752
 2148SOL    HW2  740   3.421   1.761   2.896
 2150SOL     OW  741   3.312   1.220   3.495
 2150SOL    HW1  742   3.303   1.210   3.594
 2150SOL    HW2  743   3.408   1.213   3.469
 2151SOL     OW  744   2.252   1.741   3.422
 2151SOL    HW1  745   2.161   1.782   3.420
 2151SOL    HW2  746   2.245   1.647   3.454
 2157SOL     OW  747   2.721   1.374   1.878
 2157SOL    HW1  748   2.675   1.389   1.966
 2157SOL    HW2  749   2.765   1.459   1.848
 2158SOL     OW  750   2.523   1.790   2.815
 2158SOL    HW1  751   2.477   1.878   2.802
 2158SOL    HW2  752   2.622   1.802   2.808
 2159SOL     OW  753   2.721   0.956   2.723
 2159SOL    HW1  754   2.775   0.887   2.771
 2159SOL    HW2  755   2.689   1.025   2.789
 2161SOL     OW  756   3.723   1.569   2.713
 2161SOL    HW1  757   3.652   1.557   2.643
 2161SOL    HW2  758   3.724   1.490   2.773
 2163SOL     OW  759   1.941   1.240   2.515
 2163SOL    HW1  760   1.940   1.193   2.603
 2163SOL    HW2  761   2.023   1.212   2.464
 2164SOL     OW  762   2.534   1.391   3.486
 2164SOL    HW1  763   2.456   1.341   3.524
 2164SOL    HW2  764   2.531   1.486   3.517
 2167SOL     OW  765   3.567   1.487   2.966
 2167SOL    HW1  766   3.474   1.462   2.939
 2167SOL    HW2  767   3.593   1.437   3.048
 2169SOL     OW  768   2.674   1.586   2.549
 2169SOL    HW1  769   2.706   1.596   2.455
 2169SOL    HW2  770   2.595   1.524   2.551
 2172SOL     OW  771   2.632   1.330   2.163
 2172SOL    HW1  772   2.586   1.243   2.180
 2172SOL    HW2  773   2.723   1.327   2.204
 2173SOL     OW  774   2.480   1.567   3.146
 2173SOL    HW1  775   2.475   1.649   3.203
 2173SOL    HW2  776   2.569   1.564   3.101
 2178SOL     OW  777   2.737   1.646   2.199
 2178SOL    HW1  778   2.660   1.611   2.145
 2178SOL    HW2  779   2.705   1.717   2.261
 2201SOL     OW  780   1.889   1.596   3.841
 2201SOL    HW1  781   1.870   1.500   3.862
 2201SOL    HW2  782   1.856   1.654   3.916
 2229SOL     OW  783   2.973   1.776   3.961
 2229SOL    HW1  784   2.913   1.714   4.011
 2229SOL    HW2  785   3.004   1.732   3.876
 2232SOL     OW  786   2.326   1.743   4.047
 2232SOL    HW1  787   2.359   1.782   4.133
 2232SOL    HW2  788   2.402   1.736   3.982
 2315SOL     OW  789   2.534   1.616   3.878
 2315SOL    HW1  790   2.543   1.626   3.779
 2315SOL    HW2  791   2.494   1.527   3.899
 2319SOL     OW  792   3.056   1.612   3.755
 2319SOL    HW1  793   3.062   1.519   3.792
 2319SOL    HW2  794   2.997   1.612   3.675
 2322SOL     OW  795   3.366   1.607   3.768
 2322SOL    HW1  796   3.274   1.644   3.775
 2322SOL    HW2  797   3.404   1.627   3.678
 2345SOL     OW  798   2.721   1.374   3.740
 2345SOL    HW1  799   2.675   1.389   3.828
 2345SOL    HW2  800   2.765   1.459   3.710
 2365SOL     OW  801   2.737   1.646   4.061
 2365SOL    HW1  802   2.660   1.611   4.007
 2365SOL    HW2  803   2.705   1.717   4.123
 2369SOL     OW  804   2.431   3.137   1.165
 2369SOL    HW1  805   2.338   3.130   1.128
 2369SOL    HW2  806   2.442   3.226   1.209
 2373SOL     OW  807   2.630   3.006   1.023
 2373SOL    HW1  808   2.552   3.023   1.083
 2373SOL    HW2  809   2.664   3.093   0.987
 2374SOL     OW  810   2.712   2.660   1.823
 2374SOL    HW1  811   2.708   2.736   1.888
 2374SOL    HW2  812   2.734   2.696   1.732
 2376SOL     OW  813   2.548   3.023   1.803
 2376SOL    HW1  814   2.608   3.102   1.817
 2376SOL    HW2  815   2.462   3.054   1.762
 2378SOL     OW  816   3.322   3.367   1.339
 2378SOL    HW1  817   3.346   3.461   1.365
 2378SOL    HW2  818   3.306   3.313   1.421
 2379SOL     OW  819   2.300   2.254   1.499
 2379SOL    HW1  820   2.382   2.198   1.508
 2379SOL    HW2  821   2.219   2.196   1.503
 2382SOL     OW  822   2.989   3.203   1.690
 2382SOL    HW1  823   3.036   3.203   1.778
 2382SOL    HW2  824   2.941   3.116   1.679
 2385SOL     OW  825   2.482   3.648   1.439
 2385SOL    HW1  826   2.390   3.631   1.474
 2385SOL    HW2  827   2.510   3.740   1.465
 2387SOL     OW  828   3.456   1.976   1.480
 2387SOL    HW1  829   3.438   2.043   1.408
 2387SOL    HW2  830   3.453   2.022   1.569
 2393SOL     OW  831   1.975   2.599   1.597
 2393SOL    HW1  832   2.063   2.586   1.642
 2393SOL    HW2  833   1.962   2.696   1.575
 2395SOL     OW  834   3.155   3.090   1.423
 2395SOL    HW1  835   3.192   3.017   1.365
 2395SOL    HW2  836   3.207   3.095   1.508
 2397SOL     OW  837   2.059   2.838   1.264
 2397SOL    HW1  838   2.148   2.793   1.250
 2397SOL    HW2  839   1.986   2.773   1.245
 2399SOL     OW  840   3.049   3.654   1.616
 2399SOL    HW1  841   3.073   3.714   1.540
 2399SOL    HW2  842   3.056   3.559   1.586
 2400SOL     OW  843   2.179   2.113   1.801
 2400SOL    HW1  844   2.250   2.184   1.807
 2400SOL    HW2  845   2.091   2.152   1.829
 2406SOL     OW  846   2.669   2.467   1.465
 2406SOL    HW1  847   2.622   2.464   1.554
 2406SOL    HW2  848   2.618   2.412   1.399
 2407SOL     OW  849   3.256   2.331   1.674
 2407SOL    HW1  850   3.236   2.374   1.762
 2407SOL    HW2  851   3.334   2.269   1.683
 2408SOL     OW  852   2.835   2.752   1.572
 2408SOL    HW1  853   2.881   2.668   1.543
 2408SOL    HW2  854   2.779   2.786   1.497
 2409SOL     OW  855   2.853   2.272   1.242
 2409SOL    HW1  856   2.776   2.306   1.296
 2409SOL    HW2  857   2.819   2.221   1.163
 2412SOL     OW  858   1.992   3.683   1.571
 2412SOL    HW1  859   1.982   3.668   1.670
 2412SOL    HW2  860   1.906   3.719   1.535
 2414SOL     OW  861   3.581   2.447   1.831
 2414SOL    HW1  862   3.555   2.536   1.795
 2414SOL    HW2  863   3.579   2.379   1.758
 2420SOL     OW  864   3.089   3.412   1.506
 2420SOL    HW1  865   3.095   3.335   1.570
 2420SOL    HW2  866   3.037   3.386   1.426
 2423SOL     OW  867   2.323   3.128   1.727
 2423SOL    HW1  868   2.273   3.129   1.641
 2423SOL    HW2  869   2.260   3.110   1.803
 2425SOL     OW  870   2.064   2.147   1.498
 2425SOL    HW1  871   1.984   2.207   1.485
 2425SOL    HW2  872   2.054   2.098   1.584
 2432SOL     OW  873   3.409   2.084   1.729
 2432SOL    HW1  874   3.404   2.121   1.821
 2432SOL    HW2  875   3.337   2.015   1.717
 2434SOL     OW  876   2.643   2.126   1.749
 2434SOL    HW1  877   2.710   2.065   1.792
 2434SOL    HW2  878   2.570   2.145   1.814
 2435SOL     OW  879   2.750   3.376   1.195
 2435SOL    HW1  880   2.727   3.351   1.101
 2435SOL    HW2  881   2.811   3.307   1.234
 2436SOL     OW  882   3.213   2.452   1.433
 2436SOL    HW1  883   3.241   2.409   1.518
 2436SOL    HW2  884   3.238   2.548   1.434
 2443SOL     OW  885   2.938   2.545   1.464
 2443SOL    HW1  886   2.858   2.484   1.467
 2443SOL    HW2  887   3.019   2.492   1.440
 2448SOL     OW  888   1.940   2.418   1.386
 2448SOL    HW1  889   2.032   2.417   1.345
 2448SOL    HW2  890   1.934   2.492   1.453
 2449SOL     OW  891   2.423   2.084   1.147
 2449SOL    HW1  892   2.461   2.000   1.184
 2449SOL    HW2  893   2.335   2.103   1.191
 2459SOL     OW  894   3.616   3.085   1.588
 2459SOL    HW1  895   3.707   3.046   1.575
 2459SOL    HW2  896   3.624   3.181   1.612
 2460SOL     OW  897   2.926   3.209   1.340
 2460SOL    HW1  898   2.846   3.186   1.395
 2460SOL    HW2  899   3.009   3.183   1.389
 2461SOL     OW  900   3.454   3.491   1.625
 2461SOL    HW1  901   3.481   3.525   1.535
 2461SOL    HW2  902   3.533   3.453   1.671
 2462SOL     OW  903   2.973   3.057   1.100
 2462SOL    HW1  904   2.933   3.101   1.181
 2462SOL    HW2  905   2.932   3.094   1.017
 2464SOL     OW  906   2.777   1.951   1.402
 2464SOL    HW1  907   2.802   1.931   1.307
 2464SOL    HW2  908   2.849   2.007   1.444
 2465SOL     OW  909   2.842   2.978   1.719
 2465SOL    HW1  910   2.743   2.984   1.729
 2465SOL    HW2  911   2.865   2.898   1.663
 2467SOL     OW  912   2.272   2.675   1.251
 2467SOL    HW1  913   2.358   2.687   1.301
 2467SOL    HW2  914   2.230   2.588   1.278
 2468SOL     OW  915   3.136   2.248   1.262
 2468SOL    HW1  916   3.157   2.322   1.326
 2468SOL    HW2  917   3.047   2.265   1.219
 2469SOL     OW  918   1.926   3.426   1.331
 2469SOL    HW1  919   1.880   3.508   1.297
 2469SOL    HW2  920   2.024   3.445   1.340
 2473SOL     OW  921   3.134   3.307   1.142
 2473SOL    HW1  922   3.181   3.320   1.229
 2473SOL    HW2  923   3.068   3.233   1.151
 2475SOL     OW  924   2.216   3.372   1.329
 2475SOL    HW1  925   2.195   3.328   1.242
 2475SOL    HW2  926   2.313   3.398   1.332
 2476SOL     OW  927   2.264   2.613   1.598
 2476SOL    HW1  928   2.332   2.668   1.551
 2476SOL    HW2  929   2.304   2.525   1.625
 2477SOL     OW  930   3.449   2.641   1.670
 2477SOL    HW1  931   3.357   2.679   1.665
 2477SOL    HW2  932   3.509   2.688   1.605
 2478SOL     OW  933   2.875   1.967   1.770
 2478SOL    HW1  934   2.881   2.052   1.718
 2478SOL    HW2  935   2.907   1.891   1.713
 2479SOL     OW  936   2.366   1.912   1.740
 2479SOL    HW1  937   2.324   1.855   1.670
 2479SOL    HW2  938   2.300   1.981   1.772
 2480SOL     OW  939   2.435   2.732   1.029
 2480SOL    HW1  940   2.479   2.821   1.020
 2480SOL    HW2  941   2.372   2.732   1.106
 2481SOL     OW  942   3.222   2.724   1.045
 2481SOL    HW1  943   3.147   2.724   0.979
 2481SOL    HW2  944   3.259   2.632   1.054
 2483SOL     OW  945   2.169   2.075   1.231
 2483SOL    HW1  946   2.146   2.112   1.321
 2483SOL    HW2  947   2.139   1.980   1.225
 2484SOL     OW  948   1.899   3.172   1.282
 2484SOL    HW1  949   1.952   3.123   1.350
 2484SOL    HW2  950   1.921   3.270   1.287
 2485SOL     OW  951   2.594   2.496   1.064
 2485SOL    HW1  952   2.653   2.470   0.988
 2485SOL    HW2  953   2.566   2.592   1.053
 2486SOL     OW  954   3.590   2.797   1.854
 2486SOL    HW1  955   3.544   2.790   1.765
 2486SOL    HW2  956   3.528   2.841   1.920
 2489SOL     OW  957   2.885   2.628   0.966
 2489SOL    HW1  958   2.900   2.649   1.062
 2489SOL    HW2  959   2.855   2.533   0.957
 2490SOL     OW  960   2.842   3.435   1.700
 2490SOL    HW1  961   2.822   3.479   1.612
 2490SOL    HW2  962   2.881   3.344   1.684
 2491SOL     OW  963   3.721   3.380   1.605
 2491SOL    HW1  964   3.735   3.407   1.510
 2491SOL    HW2  965   3.804   3.402   1.658
 2492SOL     OW  966   2.212   2.760   1.804
 2492SOL    HW1  967   2.288   2.804   1.852
 2492SOL    HW2  968   2.247   2.713   1.722
 2497SOL     OW  969   2.201   2.371   1.006
 2497SOL    HW1  970   2.149   2.288   0.989
 2497SOL    HW2  971   2.278   2.376   0.942
 2498SOL     OW  972   3.000   2.242   1.678
 2498SOL    HW1  973   2.955   2.305   1.742
 2498SOL    HW2  974   3.093   2.273   1.661
 2499SOL     OW  975   3.022   2.069   1.477
 2499SOL    HW1  976   3.022   2.133   1.554
 2499SOL    HW2  977   3.050   2.117   1.394
 2503SOL     OW  978   2.864   2.658   1.238
 2503SOL    HW1  979   2.905   2.626   1.324
 2503SOL    HW2  980   2.768   2.631   1.235
 2504SOL     OW  981   1.902   2.406   1.114
 2504SOL    HW1  982   1.987   2.373   1.073
 2504SOL    HW2  983   1.915   2.421   1.212
 2505SOL     OW  984   2.051   2.382   1.722
 2505SOL    HW1  985   2.110   2.342   1.652
 2505SOL    HW2  986   1.993   2.453   1.681
 2506SOL     OW  987   3.231   2.812   1.660
 2506SOL    HW1  988   3.270   2.901   1.680
 2506SOL    HW2  989   3.241   2.792   1.563
 2508SOL     OW  990   3.519   2.466   1.206
 2508SOL    HW1  991   3.481   2.397   1.268
 2508SOL    HW2  992   3.601   2.430   1.162
 2509SOL     OW  993   2.114   3.426   1.744
 2509SOL    HW1  994   2.084   3.483   1.820
 2509SOL    HW2  995   2.107   3.329   1.770
 2510SOL     OW  996   2.533   2.326   1.269
 2510SOL    HW1  997   2.499   2.237   1.239
 2510SOL    HW2  998   2.559   2.380   1.189
 2511SOL     OW  999   2.792   3.540   1.465
 2511SOL    HW1 1000   2.768   3.522   1.370
 2511SOL    HW2 1001   2.822   3.634   1.475
 2513SOL     OW 1002   2.021   2.999   1.466
 2513SOL    HW1 1003   2.043   2.938   1.542
 2513SOL    HW2 1004   2.031   2.950   1.380
 2514SOL     OW 1005   3.209   2.921   1.234
 2514SOL    HW1 1006   3.233   2.858   1.160
 2514SOL    HW2 1007   3.119   2.961   1.216
 2519SOL     OW 1008   2.550   3.524   1.716
 2519SOL    HW1 1009   2.494   3.605   1.725
 2519SOL    HW2 1010   2.602   3.528   1.630
 2523SOL     OW 1011   1.992   3.656   1.851
 2523SOL    HW1 1012   1.951   3.582   1.904
 2523SOL    HW2 1013   2.056   3.707   1.909
 2525SOL     OW 1014   2.692   3.135   1.422
 2525SOL    HW1 1015   2.687   3.168   1.517
 2525SOL    HW2 1016   2.606   3.154   1.376
 2527SOL     OW 1017   3.512   3.582   1.394
 2527SOL    HW1 1018   3.565   3.592   1.310
 2527SOL    HW2 1019   3.485   3.672   1.428
 2531SOL     OW 1020   2.684   2.864   1.372
 2531SOL    HW1 1021   2.724   2.863   1.280
 2531SOL    HW2 1022   2.694   2.956   1.412
 2534SOL     OW 1023   2.234   3.150   1.490
 2534SOL    HW1 1024   2.221   3.243   1.456
 2534SOL    HW2 1025   2.150   3.098   1.477
 2535SOL     OW 1026   3.476   3.154   1.289
 2535SOL    HW1 1027   3.536   3.157   1.369
 2535SOL    HW2 1028   3.401   3.218   1.302
 2539SOL     OW 1029   3.571   2.247   1.381
 2539SOL    HW1 1030   3.644   2.316   1.385
 2539SOL    HW2 1031   3.599   2.172   1.322
 2541SOL     OW 1032   1.967   2.875   1.726
 2541SOL    HW1 1033   1.890   2.842   1.780
 2541SOL    HW2 1034   2.052   2.845   1.768
 2542SOL     OW 1035   2.534   2.065   1.489
 2542SOL    HW1 1036   2.624   2.049   1.449
 2542SOL    HW2 1037   2.542   2.070   1.588
 2543SOL     OW 1038   3.302   2.718   1.398
 2543SOL    HW1 1039   3.245   2.770   1.335
 2543SOL    HW2 1040   3.398   2.730   1.374
 2546SOL     OW 1041   2.475   2.704   1.431
 2546SOL    HW1 1042   2.531   2.785   1.414
 2546SOL    HW2 1043   2.534   2.624   1.434
 2548SOL     OW 1044   2.578   2.427   1.708
 2548SOL    HW1 1045   2.597   2.492   1.782
 2548SOL    HW2 1046   2.638   2.347   1.717
 2549SOL     OW 1047   3.312   3.082   1.633
 2549SOL    HW1 1048   3.303   3.072   1.732
 2549SOL    HW2 1049   3.408   3.075   1.607
 2550SOL     OW 1050   2.252   3.603   1.560
 2550SOL    HW1 1051   2.161   3.644   1.558
 2550SOL    HW2 1052   2.245   3.509   1.592
 2551SOL     OW 1053   3.536   2.745   1.254
 2551SOL    HW1 1054   3.509   2.656   1.217
 2551SOL    HW2 1055   3.537   2.813   1.181
 2554SOL     OW 1056   3.639   2.204   1.642
 2554SOL    HW1 1057   3.622   2.235   1.548
 2554SOL    HW2 1058   3.555   2.167   1.680
 2555SOL     OW 1059   3.592   2.796   1.517
 2555SOL    HW1 1060   3.630   2.887   1.532
 2555SOL    HW2 1061   3.584   2.779   1.418
 2561SOL     OW 1062   2.083   3.176   1.844
 2561SOL    HW1 1063   2.018   3.103   1.823
 2561SOL    HW2 1064   2.087   3.190   1.942
 2563SOL     OW 1065   2.534   3.253   1.624
 2563SOL    HW1 1066   2.456   3.203   1.662
 2563SOL    HW2 1067   2.531   3.348   1.655
 2567SOL     OW 1068   2.179   2.409   1.280
 2567SOL    HW1 1069   2.217   2.350   1.352
 2567SOL    HW2 1070   2.219   2.383   1.192
 2569SOL     OW 1071   3.286   2.076   1.112
 2569SOL    HW1 1072   3.338   2.011   1.167
 2569SOL    HW2 1073   3.237   2.139   1.173
 2570SOL     OW 1074   2.863   1.896   1.154
 2570SOL    HW1 1075   2.800   1.824   1.123
 2570SOL    HW2 1076   2.956   1.860   1.154
 2572SOL     OW 1077   2.480   3.429   1.284
 2572SOL    HW1 1078   2.475   3.511   1.341
 2572SOL    HW2 1079   2.569   3.426   1.239
 2578SOL     OW 1080   2.092   2.490   1.975
 2578SOL    HW1 1081   1.999   2.488   2.012
 2578SOL    HW2 1082   2.093   2.451   1.883
 2579SOL     OW 1083   2.087   2.137   2.858
 2579SOL    HW1 1084   2.122   2.120   2.950
 2579SOL    HW2 1085   1.999   2.092   2.846
 2580SOL     OW 1086   1.881   2.230   2.509
 2580SOL    HW1 1087   1.799   2.273   2.548
 2580SOL    HW2 1088   1.853   2.157   2.446
 2581SOL     OW 1089   2.431   3.137   3.027
 2581SOL    HW1 1090   2.338   3.130   2.990
 2581SOL    HW2 1091   2.442   3.226   3.071
 2582SOL     OW 1092   3.417   3.373   2.565
 2582SOL    HW1 1093   3.360   3.357   2.646
 2582SOL    HW2 1094   3.358   3.383   2.485
 2583SOL     OW 1095   3.617   2.469   2.093
 2583SOL    HW1 1096   3.605   2.456   1.994
 2583SOL    HW2 1097   3.587   2.388   2.142
 2584SOL     OW 1098   2.630   3.006   2.885
 2584SOL    HW1 1099   2.552   3.023   2.945
 2584SOL    HW2 1100   2.664   3.093   2.849
 2585SOL     OW 1101   2.712   2.660   3.685
 2585SOL    HW1 1102   2.708   2.736   3.750
 2585SOL    HW2 1103   2.734   2.696   3.594
 2586SOL     OW 1104   2.548   3.023   3.665
 2586SOL    HW1 1105   2.608   3.102   3.679
 2586SOL    HW2 1106   2.462   3.054   3.624
 2587SOL     OW 1107   2.197   3.297   2.923
 2587SOL    HW1 1108   2.119   3.266   2.870
 2587SOL    HW2 1109   2.255   3.355   2.866
 2588SOL     OW 1110   3.322   3.367   3.201
 2588SOL    HW1 1111   3.346   3.461   3.227
 2588SOL    HW2 1112   3.306   3.313   3.283
 2589SOL     OW 1113   2.300   2.254   3.361
 2589SOL    HW1 1114   2.382   2.198   3.370
 2589SOL    HW2 1115   2.219   2.196   3.365
 2590SOL     OW 1116   3.465   2.309   2.599
 2590SOL    HW1 1117   3.391   2.355   2.549
 2590SOL    HW2 1118   3.516   2.377   2.652
 2591SOL     OW 1119   2.093   3.575   2.345
 2591SOL    HW1 1120   2.127   3.652   2.399
 2591SOL    HW2 1121   2.137   3.575   2.255
 2592SOL     OW 1122   2.989   3.203   3.552
 2592SOL    HW1 1123   3.036   3.203   3.640
 2592SOL    HW2 1124   2.941   3.116   3.541
 2593SOL     OW 1125   2.092   3.296   2.400
 2593SOL    HW1 1126   2.066   3.392   2.400
 2593SOL    HW2 1127   2.021   3.242   2.445
 2594SOL     OW 1128   2.102   2.953   2.748
 2594SOL    HW1 1129   2.116   2.869   2.800
 2594SOL    HW2 1130   2.047   3.017   2.803
 2595SOL     OW 1131   2.482   3.648   3.301
 2595SOL    HW1 1132   2.390   3.631   3.336
 2595SOL    HW2 1133   2.510   3.740   3.327
 2596SOL     OW 1134   2.468   2.826   1.985
 2596SOL    HW1 1135   2.475   2.910   1.931
 2596SOL    HW2 1136   2.514   2.839   2.073
 2597SOL     OW 1137   3.456   1.976   3.342
 2597SOL    HW1 1138   3.438   2.043   3.270
 2597SOL    HW2 1139   3.453   2.022   3.431
 2598SOL     OW 1140   1.984   2.505   2.425
 2598SOL    HW1 1141   1.939   2.417   2.442
 2598SOL    HW2 1142   1.983   2.559   2.509
 2599SOL     OW 1143   3.704   3.629   2.221
 2599SOL    HW1 1144   3.758   3.600   2.301
 2599SOL    HW2 1145   3.734   3.719   2.192
 2600SOL     OW 1146   1.889   3.458   1.979
 2600SOL    HW1 1147   1.870   3.362   2.000
 2600SOL    HW2 1148   1.856   3.516   2.054
 2601SOL     OW 1149   3.551   2.784   2.474
 2601SOL    HW1 1150   3.646   2.755   2.482
 2601SOL    HW2 1151   3.543   2.849   2.399
 2602SOL     OW 1152   3.503   2.970   2.294
 2602SOL    HW1 1153   3.589   2.972   2.242
 2602SOL    HW2 1154   3.517   3.017   2.382
 2603SOL     OW 1155   1.975   2.599   3.459
 2603SOL    HW1 1156   2.063   2.586   3.504
 2603SOL    HW2 1157   1.962   2.696   3.437
 2604SOL     OW 1158   2.475   3.227   2.588
 2604SOL    HW1 1159   2.426   3.140   2.597
 2604SOL    HW2 1160   2.452   3.270   2.501
 2605SOL     OW 1161   3.155   3.090   3.285
 2605SOL    HW1 1162   3.192   3.017   3.227
 2605SOL    HW2 1163   3.207   3.095   3.370
 2606SOL     OW 1164   2.671   1.866   2.364
 2606SOL    HW1 1165   2.711   1.957   2.355
 2606SOL    HW2 1166   2.571   1.874   2.370
 2607SOL     OW 1167   2.059   2.838   3.126
 2607SOL    HW1 1168   2.148   2.793   3.112
 2607SOL    HW2 1169   1.986   2.773   3.107
 2608SOL     OW 1170   3.387   2.861   2.052
 2608SOL    HW1 1171   3.324   2.785   2.065
 2608SOL    HW2 1172   3.435   2.879   2.138
 2609SOL     OW 1173   3.049   3.654   3.478
 2609SOL    HW1 1174   3.073   3.714   3.402
 2609SOL    HW2 1175   3.056   3.559   3.448
 2610SOL     OW 1176   2.179   2.113   3.663
 2610SOL    HW1 1177   2.250   2.184   3.669
 2610SOL    HW2 1178   2.091   2.152   3.691
 2611SOL     OW 1179   3.328   3.279   2.815
 2611SOL    HW1 1180   3.269   3.285   2.895
 2611SOL    HW2 1181   3.313   3.191   2.769
 2612SOL     OW 1182   3.529   3.576   2.434
 2612SOL    HW1 1183   3.488   3.553   2.346
 2612SOL    HW2 1184   3.511   3.502   2.499
 2613SOL     OW 1185   3.143   2.207   2.806
 2613SOL    HW1 1186   3.057   2.157   2.793
 2613SOL    HW2 1187   3.205   2.153   2.862
 2614SOL     OW 1188   3.438   3.524   2.169
 2614SOL    HW1 1189   3.527   3.570   2.172
 2614SOL    HW2 1190   3.417   3.500   2.074
 2615SOL     OW 1191   2.669   2.467   3.327
 2615SOL    HW1 1192   2.622   2.464   3.416
 2615SOL    HW2 1193   2.618   2.412   3.261
 2616SOL     OW 1194   3.256   2.331   3.536
 2616SOL    HW1 1195   3.236   2.374   3.624
 2616SOL    HW2 1196   3.334   2.269   3.545
 2617SOL     OW 1197   2.835   2.752   3.434
 2617SOL    HW1 1198   2.881   2.668   3.405
 2617SOL    HW2 1199   2.779   2.786   3.359
 2618SOL     OW 1200   2.853   2.272   3.104
 2618SOL    HW1 1201   2.776   2.306   3.158
 2618SOL    HW2 1202   2.819   2.221   3.025
 2619SOL     OW 1203   2.903   2.563   2.291
 2619SOL    HW1 1204   2.929   2.559   2.387
 2619SOL    HW2 1205   2.818   2.512   2.277
 2620SOL     OW 1206   1.938   2.673   2.651
 2620SOL    HW1 1207   2.037   2.661   2.660
 2620SOL    HW2 1208   1.914   2.768   2.672
 2621SOL     OW 1209   1.992   3.683   3.433
 2621SOL    HW1 1210   1.982   3.668   3.532
 2621SOL    HW2 1211   1.906   3.719   3.397
 2622SOL     OW 1212   2.727   2.210   2.057
 2622SOL    HW1 1213   2.786   2.273   2.008
 2622SOL    HW2 1214   2.746   2.116   2.028
 2623SOL     OW 1215   3.581   2.447   3.693
 2623SOL    HW1 1216   3.555   2.536   3.657
 2623SOL    HW2 1217   3.579   2.379   3.620
 2624SOL     OW 1218   3.224   3.006   2.407
 2624SOL    HW1 1219   3.307   2.977   2.359
 2624SOL    HW2 1220   3.175   3.073   2.351
 2625SOL     OW 1221   2.412   2.058   2.747
 2625SOL    HW1 1222   2.407   2.053   2.847
 2625SOL    HW2 1223   2.414   2.154   2.718
 2626SOL     OW 1224   2.870   3.318   2.339
 2626SOL    HW1 1225   2.824   3.390   2.287
 2626SOL    HW2 1226   2.866   3.338   2.437
 2627SOL     OW 1227   2.213   3.663   2.715
 2627SOL    HW1 1228   2.263   3.577   2.721
 2627SOL    HW2 1229   2.278   3.740   2.712
 2628SOL     OW 1230   3.657   2.928   2.735
 2628SOL    HW1 1231   3.595   2.913   2.659
 2628SOL    HW2 1232   3.605   2.939   2.820
 2629SOL     OW 1233   3.089   3.412   3.368
 2629SOL    HW1 1234   3.095   3.335   3.432
 2629SOL    HW2 1235   3.037   3.386   3.288
 2630SOL     OW 1236   2.183   2.805   2.104
 2630SOL    HW1 1237   2.265   2.844   2.062
 2630SOL    HW2 1238   2.156   2.723   2.055
 2631SOL     OW 1239   2.323   3.128   3.589
 2631SOL    HW1 1240   2.273   3.129   3.503
 2631SOL    HW2 1241   2.260   3.110   3.665
 2632SOL     OW 1242   2.973   3.638   2.099
 2632SOL    HW1 1243   2.913   3.576   2.149
 2632SOL    HW2 1244   3.004   3.594   2.014
 2633SOL     OW 1245   2.064   2.147   3.360
 2633SOL    HW1 1246   1.984   2.207   3.347
 2633SOL    HW2 1247   2.054   2.098   3.446
 2634SOL     OW 1248   3.494   3.239   1.943
 2634SOL    HW1 1249   3.462   3.333   1.933
 2634SOL    HW2 1250   3.418   3.176   1.931
 2635SOL     OW 1251   2.326   3.605   2.185
 2635SOL    HW1 1252   2.359   3.644   2.271
 2635SOL    HW2 1253   2.402   3.598   2.120
 2636SOL     OW 1254   3.262   1.969   2.288
 2636SOL    HW1 1255   3.238   1.932   2.198
 2636SOL    HW2 1256   3.361   1.985   2.292
 2637SOL     OW 1257   2.111   3.647   3.103
 2637SOL    HW1 1258   2.168   3.582   3.153
 2637SOL    HW2 1259   2.095   3.614   3.010
 2638SOL     OW 1260   2.802   3.560   2.766
 2638SOL    HW1 1261   2.882   3.503   2.787
 2638SOL    HW2 1262   2.753   3.520   2.689
 2639SOL     OW 1263   3.409   2.084   3.591
 2639SOL    HW1 1264   3.404   2.121   3.683
 2639SOL    HW2 1265   3.337   2.015   3.579
 2640SOL     OW 1266   2.476   1.984   1.979
 2640SOL    HW1 1267   2.574   1.962   1.986
 2640SOL    HW2 1268   2.445   1.967   1.886
 2641SOL     OW 1269   2.643   2.126   3.611
 2641SOL    HW1 1270   2.710   2.065   3.654
 2641SOL    HW2 1271   2.570   2.145   3.676
 2642SOL     OW 1272   2.750   3.376   3.057
 2642SOL    HW1 1273   2.727   3.351   2.963
 2642SOL    HW2 1274   2.811   3.307   3.096
 2643SOL     OW 1275   3.213   2.452   3.295
 2643SOL    HW1 1276   3.241   2.409   3.380
 2643SOL    HW2 1277   3.238   2.548   3.296
 2644SOL     OW 1278   2.665   3.264   2.786
 2644SOL    HW1 1279   2.755   3.278   2.744
 2644SOL    HW2 1280   2.594   3.266   2.715
 2645SOL     OW 1281   2.784   2.365   2.761
 2645SOL    HW1 1282   2.759   2.356   2.665
 2645SOL    HW2 1283   2.832   2.283   2.792
 2646SOL     OW 1284   2.401   1.926   2.374
 2646SOL    HW1 1285   2.320   1.927   2.432
 2646SOL    HW2 1286   2.404   2.009   2.319
 2647SOL     OW 1287   3.296   3.050   1.903
 2647SOL    HW1 1288   3.328   2.974   1.960
 2647SOL    HW2 1289   3.204   3.077   1.933
 2648SOL     OW 1290   2.159   1.897   2.033
 2648SOL    HW1 1291   2.208   1.981   2.012
 2648SOL    HW2 1292   2.221   1.832   2.078
 2649SOL     OW 1293   2.797   2.098   2.342
 2649SOL    HW1 1294   2.749   2.139   2.264
 2649SOL    HW2 1295   2.896   2.096   2.323
 2650SOL     OW 1296   2.938   2.545   3.326
 2650SOL    HW1 1297   2.858   2.484   3.329
 2650SOL    HW2 1298   3.019   2.492   3.302
 2651SOL     OW 1299   3.089   3.432   2.655
 2651SOL    HW1 1300   3.110   3.506   2.590
 2651SOL    HW2 1301   3.157   3.432   2.728
 2652SOL     OW 1302   2.321   3.014   2.603
 2652SOL    HW1 1303   2.250   2.987   2.668
 2652SOL    HW2 1304   2.295   2.986   2.510
 2653SOL     OW 1305   3.133   3.659   2.453
 2653SOL    HW1 1306   3.177   3.723   2.389
 2653SOL    HW2 1307   3.083   3.711   2.523
 2654SOL     OW 1308   2.894   2.411   1.878
 2654SOL    HW1 1309   2.853   2.493   1.839
 2654SOL    HW2 1310   2.958   2.437   1.951
 2655SOL     OW 1311   1.940   2.418   3.248
 2655SOL    HW1 1312   2.032   2.417   3.207
 2655SOL    HW2 1313   1.934   2.492   3.315
 2656SOL     OW 1314   2.423   2.084   3.009
 2656SOL    HW1 1315   2.461   2.000   3.046
 2656SOL    HW2 1316   2.335   2.103   3.053
 2657SOL     OW 1317   2.728   2.316   2.504
 2657SOL    HW1 1318   2.696   2.388   2.442
 2657SOL    HW2 1319   2.752   2.235   2.451
 2658SOL     OW 1320   2.879   1.901   2.615
 2658SOL    HW1 1321   2.807   1.906   2.546
 2658SOL    HW2 1322   2.855   1.832   2.684
 2659SOL     OW 1323   3.291   3.035   2.729
 2659SOL    HW1 1324   3.236   2.951   2.722
 2659SOL    HW2 1325   3.317   3.064   2.637
 2660SOL     OW 1326   3.328   2.452   2.854
 2660SOL    HW1 1327   3.298   2.357   2.861
 2660SOL    HW2 1328   3.401   2.468   2.920
 2661SOL     OW 1329   3.719   2.695   2.239
 2661SOL    HW1 1330   3.761   2.631   2.303
 2661SOL    HW2 1331   3.681   2.644   2.161
 2662SOL     OW 1332   2.350   3.247   2.036
 2662SOL    HW1 1333   2.263   3.232   2.083
 2662SOL    HW2 1334   2.333   3.273   1.941
 2663SOL     OW 1335   3.526   3.142   2.519
 2663SOL    HW1 1336   3.625   3.150   2.533
 2663SOL    HW2 1337   3.481   3.226   2.550
 2664SOL     OW 1338   3.252   2.437   1.940
 2664SOL    HW1 1339   3.198   2.416   2.021
 2664SOL    HW2 1340   3.343   2.396   1.949
 2665SOL     OW 1341   2.389   2.118   2.190
 2665SOL    HW1 1342   2.416   2.059   2.115
 2665SOL    HW2 1343   2.389   2.213   2.159
 2666SOL     OW 1344   3.616   3.085   3.450
 2666SOL    HW1 1345   3.707   3.046   3.437
 2666SOL    HW2 1346   3.624   3.181   3.474
 2667SOL     OW 1347   2.926   3.209   3.202
 2667SOL    HW1 1348   2.846   3.186   3.257
 2667SOL    HW2 1349   3.009   3.183   3.251
 2668SOL     OW 1350   3.454   3.491   3.487
 2668SOL    HW1 1351   3.481   3.525   3.397
 2668SOL    HW2 1352   3.533   3.453   3.533
 2669SOL     OW 1353   2.973   3.057   2.962
 2669SOL    HW1 1354   2.933   3.101   3.043
 2669SOL    HW2 1355   2.932   3.094   2.879
 2670SOL     OW 1356   3.500   2.961   2.941
 2670SOL    HW1 1357   3.505   3.042   3.000
 2670SOL    HW2 1358   3.414   2.963   2.890
 2671SOL     OW 1359   2.777   1.951   3.264
 2671SOL    HW1 1360   2.802   1.931   3.169
 2671SOL    HW2 1361   2.849   2.007   3.306
 2672SOL     OW 1362   2.842   2.978   3.581
 2672SOL    HW1 1363   2.743   2.984   3.591
 2672SOL    HW2 1364   2.865   2.898   3.525
 2673SOL     OW 1365   2.567   2.912   2.230
 2673SOL    HW1 1366   2.553   2.919   2.329
 2673SOL    HW2 1367   2.651   2.861   2.212
 2674SOL     OW 1368   2.272   2.675   3.113
 2674SOL    HW1 1369   2.358   2.687   3.163
 2674SOL    HW2 1370   2.230   2.588   3.140
 2675SOL     OW 1371   3.136   2.248   3.124
 2675SOL    HW1 1372   3.157   2.322   3.188
 2675SOL    HW2 1373   3.047   2.265   3.081
 2676SOL     OW 1374   1.926   3.426   3.193
 2676SOL    HW1 1375   1.880   3.508   3.159
 2676SOL    HW2 1376   2.024   3.445   3.202
 2677SOL     OW 1377   3.114   3.210   2.250
 2677SOL    HW1 1378   3.164   3.287   2.290
 2677SOL    HW2 1379   3.019   3.212   2.282
 2678SOL     OW 1380   3.134   3.307   3.004
 2678SOL    HW1 1381   3.181   3.320   3.091
 2678SOL    HW2 1382   3.068   3.233   3.013
 2679SOL     OW 1383   3.444   2.501   2.334
 2679SOL    HW1 1384   3.413   2.562   2.407
 2679SOL    HW2 1385   3.494   2.553   2.265
 2680SOL     OW 1386   2.216   3.372   3.191
 2680SOL    HW1 1387   2.195   3.328   3.104
 2680SOL    HW2 1388   2.313   3.398   3.194
 2681SOL     OW 1389   2.264   2.613   3.460
 2681SOL    HW1 1390   2.332   2.668   3.413
 2681SOL    HW2 1391   2.304   2.525   3.487
 2682SOL     OW 1392   3.449   2.641   3.532
 2682SOL    HW1 1393   3.357   2.679   3.527
 2682SOL    HW2 1394   3.509   2.688   3.467
 2683SOL     OW 1395   2.875   1.967   3.632
 2683SOL    HW1 1396   2.881   2.052   3.580
 2683SOL    HW2 1397   2.907   1.891   3.575
 2684SOL     OW 1398   2.366   1.912   3.602
 2684SOL    HW1 1399   2.324   1.855   3.532
 2684SOL    HW2 1400   2.300   1.981   3.634
 2685SOL     OW 1401   2.435   2.732   2.891
 2685SOL    HW1 1402   2.479   2.821   2.882
 2685SOL    HW2 1403   2.372   2.732   2.968
 2686SOL     OW 1404   3.071   2.387   2.137
 2686SOL    HW1 1405   3.084   2.303   2.191
 2686SOL    HW2 1406   3.042   2.461   2.197
 2687SOL     OW 1407   2.169   2.075   3.093
 2687SOL    HW1 1408   2.146   2.112   3.183
 2687SOL    HW2 1409   2.139   1.980   3.087
 2688SOL     OW 1410   1.899   3.172   3.144
 2688SOL    HW1 1411   1.952   3.123   3.212
 2688SOL    HW2 1412   1.921   3.270   3.149
 2689SOL     OW 1413   2.594   2.496   2.926
 2689SOL    HW1 1414   2.653   2.470   2.850
 2689SOL    HW2 1415   2.566   2.592   2.915
 2690SOL     OW 1416   3.590   2.797   3.716
 2690SOL    HW1 1417   3.544   2.790   3.627
 2690SOL    HW2 1418   3.528   2.841   3.782
 2691SOL     OW 1419   2.169   1.925   2.480
 2691SOL    HW1 1420   2.158   2.019   2.513
 2691SOL    HW2 1421   2.164   1.862   2.557
 2692SOL     OW 1422   3.484   2.229   2.236
 2692SOL    HW1 1423   3.486   2.153   2.300
 2692SOL    HW2 1424   3.436   2.306   2.276
 2693SOL     OW 1425   2.842   3.435   3.562
 2693SOL    HW1 1426   2.822   3.479   3.474
 2693SOL    HW2 1427   2.881   3.344   3.546
 2694SOL     OW 1428   3.721   3.380   3.467
 2694SOL    HW1 1429   3.735   3.407   3.372
 2694SOL    HW2 1430   3.804   3.402   3.520
 2695SOL     OW 1431   2.212   2.760   3.666
 2695SOL    HW1 1432   2.288   2.804   3.714
 2695SOL    HW2 1433   2.247   2.713   3.584
 2696SOL     OW 1434   3.402   2.136   1.987
 2696SOL    HW1 1435   3.341   2.061   2.010
 2696SOL    HW2 1436   3.424   2.188   2.070
 2697SOL     OW 1437   3.165   2.700   1.904
 2697SOL    HW1 1438   3.199   2.607   1.919
 2697SOL    HW2 1439   3.183   2.727   1.809
 2698SOL     OW 1440   2.930   3.195   2.711
 2698SOL    HW1 1441   2.937   3.111   2.656
 2698SOL    HW2 1442   2.992   3.264   2.675
 2699SOL     OW 1443   2.181   2.672   2.811
 2699SOL    HW1 1444   2.274   2.708   2.816
 2699SOL    HW2 1445   2.175   2.587   2.863
 2700SOL     OW 1446   2.201   2.371   2.868
 2700SOL    HW1 1447   2.149   2.288   2.851
 2700SOL    HW2 1448   2.278   2.376   2.804
 2701SOL     OW 1449   3.000   2.242   3.540
 2701SOL    HW1 1450   2.955   2.305   3.604
 2701SOL    HW2 1451   3.093   2.273   3.523
 2702SOL     OW 1452   3.022   2.069   3.339
 2702SOL    HW1 1453   3.022   2.133   3.416
 2702SOL    HW2 1454   3.050   2.117   3.256
 2703SOL     OW 1455   1.870   3.188   2.062
 2703SOL    HW1 1456   1.777   3.209   2.031
 2703SOL    HW2 1457   1.880   3.089   2.075
 2704SOL     OW 1458   1.950   3.663   2.789
 2704SOL    HW1 1459   1.908   3.577   2.762
 2704SOL    HW2 1460   2.044   3.666   2.755
 2705SOL     OW 1461   2.366   3.430   2.772
 2705SOL    HW1 1462   2.432   3.504   2.781
 2705SOL    HW2 1463   2.410   3.351   2.730
 2706SOL     OW 1464   1.902   2.406   2.976
 2706SOL    HW1 1465   1.987   2.373   2.935
 2706SOL    HW2 1466   1.915   2.421   3.074
 2707SOL     OW 1467   2.051   2.382   3.584
 2707SOL    HW1 1468   2.110   2.342   3.514
 2707SOL    HW2 1469   1.993   2.453   3.543
 2708SOL     OW 1470   3.231   2.812   3.522
 2708SOL    HW1 1471   3.270   2.901   3.542
 2708SOL    HW2 1472   3.241   2.792   3.425
 2709SOL     OW 1473   3.519   2.466   3.068
 2709SOL    HW1 1474   3.481   2.397   3.130
 2709SOL    HW2 1475   3.601   2.430   3.024
 2710SOL     OW 1476   2.114   3.426   3.606
 2710SOL    HW1 1477   2.084   3.483   3.682
 2710SOL    HW2 1478   2.107   3.329   3.632
 2711SOL     OW 1479   2.533   2.326   3.131
 2711SOL    HW1 1480   2.499   2.237   3.101
 2711SOL    HW2 1481   2.559   2.380   3.051
 2712SOL     OW 1482   2.792   3.540   3.327
 2712SOL    HW1 1483   2.768   3.522   3.232
 2712SOL    HW2 1484   2.822   3.634   3.337
 2713SOL     OW 1485   2.335   2.362   2.053
 2713SOL    HW1 1486   2.396   2.442   2.057
 2713SOL    HW2 1487   2.240   2.393   2.060
 2714SOL     OW 1488   2.021   2.999   3.328
 2714SOL    HW1 1489   2.043   2.938   3.404
 2714SOL    HW2 1490   2.031   2.950   3.242
 2715SOL     OW 1491   3.209   2.921   3.096
 2715SOL    HW1 1492   3.233   2.858   3.022
 2715SOL    HW2 1493   3.119   2.961   3.078
 2716SOL     OW 1494   3.164   2.717   2.171
 2716SOL    HW1 1495   3.078   2.686   2.213
 2716SOL    HW2 1496   3.160   2.703   2.072
 2717SOL     OW 1497   3.621   3.609   3.016
 2717SOL    HW1 1498   3.682   3.639   2.943
 2717SOL    HW2 1499   3.583   3.520   2.994
 2718SOL     OW 1500   3.114   3.593   2.990
 2718SOL    HW1 1501   3.198   3.598   2.936
 2718SOL    HW2 1502   3.091   3.497   3.008
 2719SOL     OW 1503   1.945   3.120   2.884
 2719SOL    HW1 1504   1.940   3.119   2.984
 2719SOL    HW2 1505   1.862   3.079   2.846
 2720SOL     OW 1506   2.550   3.524   3.578
 2720SOL    HW1 1507   2.494   3.605   3.587
 2720SOL    HW2 1508   2.602   3.528   3.492
 2721SOL     OW 1509   3.588   1.997   2.385
 2721SOL    HW1 1510   3.661   1.980   2.318
 2721SOL    HW2 1511   3.557   1.910   2.423
 2722SOL     OW 1512   3.250   3.435   2.339
 2722SOL    HW1 1513   3.317   3.447   2.265
 2722SOL    HW2 1514   3.210   3.524   2.362
 2723SOL     OW 1515   1.992   3.656   3.713
 2723SOL    HW1 1516   1.951   3.582   3.766
 2723SOL    HW2 1517   2.056   3.707   3.771
 2724SOL     OW 1518   3.142   2.789   2.534
 2724SOL    HW1 1519   3.202   2.708   2.536
 2724SOL    HW2 1520   3.182   2.858   2.474
 2725SOL     OW 1521   2.692   3.135   3.284
 2725SOL    HW1 1522   2.687   3.168   3.379
 2725SOL    HW2 1523   2.606   3.154   3.238
 2726SOL     OW 1524   2.534   3.478   2.016
 2726SOL    HW1 1525   2.543   3.488   1.917
 2726SOL    HW2 1526   2.494   3.389   2.037
 2727SOL     OW 1527   3.512   3.582   3.256
 2727SOL    HW1 1528   3.565   3.592   3.172
 2727SOL    HW2 1529   3.485   3.672   3.290
 2728SOL     OW 1530   3.703   2.037   2.825
 2728SOL    HW1 1531   3.742   1.952   2.789
 2728SOL    HW2 1532   3.605   2.039   2.806
 2729SOL     OW 1533   2.125   2.188   2.582
 2729SOL    HW1 1534   2.046   2.239   2.548
 2729SOL    HW2 1535   2.116   2.173   2.680
 2730SOL     OW 1536   3.056   3.474   1.893
 2730SOL    HW1 1537   3.062   3.381   1.930
 2730SOL    HW2 1538   2.997   3.474   1.813
 2731SOL     OW 1539   2.778   2.772   2.153
 2731SOL    HW1 1540   2.841   2.810   2.085
 2731SOL    HW2 1541   2.818   2.689   2.192
 2732SOL     OW 1542   3.366   3.469   1.906
 2732SOL    HW1 1543   3.274   3.506   1.913
 2732SOL    HW2 1544   3.404   3.489   1.816
 2733SOL     OW 1545   2.234   3.150   3.352
 2733SOL    HW1 1546   2.221   3.243   3.318
 2733SOL    HW2 1547   2.150   3.098   3.339
 2734SOL     OW 1548   3.476   3.154   3.151
 2734SOL    HW1 1549   3.536   3.157   3.231
 2734SOL    HW2 1550   3.401   3.218   3.164
 2735SOL     OW 1551   2.901   2.960   2.558
 2735SOL    HW1 1552   2.831   2.913   2.612
 2735SOL    HW2 1553   2.960   2.892   2.515
 2736SOL     OW 1554   2.876   2.098   2.833
 2736SOL    HW1 1555   2.868   2.062   2.740
 2736SOL    HW2 1556   2.874   2.022   2.898
 2737SOL     OW 1557   2.452   3.349   2.353
 2737SOL    HW1 1558   2.494   3.291   2.283
 2737SOL    HW2 1559   2.408   3.428   2.309
 2738SOL     OW 1560   3.571   2.247   3.243
 2738SOL    HW1 1561   3.644   2.316   3.247
 2738SOL    HW2 1562   3.599   2.172   3.184
 2739SOL     OW 1563   2.117   3.210   2.152
 2739SOL    HW1 1564   2.021   3.211   2.125
 2739SOL    HW2 1565   2.129   3.263   2.236
 2740SOL     OW 1566   1.967   2.875   3.588
 2740SOL    HW1 1567   1.890   2.842   3.642
 2740SOL    HW2 1568   2.052   2.845   3.630
 2741SOL     OW 1569   2.534   2.065   3.351
 2741SOL    HW1 1570   2.624   2.049   3.311
 2741SOL    HW2 1571   2.542   2.070   3.450
 2742SOL     OW 1572   1.937   2.207   1.895
 2742SOL    HW1 1573   1.845   2.179   1.866
 2742SOL    HW2 1574   1.968   2.284   1.839
 2743SOL     OW 1575   3.302   2.718   3.260
 2743SOL    HW1 1576   3.245   2.770   3.197
 2743SOL    HW2 1577   3.398   2.730   3.236
 2744SOL     OW 1578   1.934   2.028   2.180
 2744SOL    HW1 1579   1.917   2.111   2.126
 2744SOL    HW2 1580   2.024   1.991   2.158
 2745SOL     OW 1581   3.045   3.197   1.981
 2745SOL    HW1 1582   2.946   3.186   1.983
 2745SOL    HW2 1583   3.079   3.212   2.074
 2746SOL     OW 1584   2.475   2.704   3.293
 2746SOL    HW1 1585   2.531   2.785   3.276
 2746SOL    HW2 1586   2.534   2.624   3.296
 2747SOL     OW 1587   3.355   3.629   2.821
 2747SOL    HW1 1588   3.388   3.693   2.752
 2747SOL    HW2 1589   3.421   3.623   2.896
 2748SOL     OW 1590   2.578   2.427   3.570
 2748SOL    HW1 1591   2.597   2.492   3.644
 2748SOL    HW2 1592   2.638   2.347   3.579
 2749SOL     OW 1593   3.312   3.082   3.495
 2749SOL    HW1 1594   3.303   3.072   3.594
 2749SOL    HW2 1595   3.408   3.075   3.469
 2750SOL     OW 1596   2.252   3.603   3.422
 2750SOL    HW1 1597   2.161   3.644   3.420
 2750SOL    HW2 1598   2.245   3.509   3.454
 2751SOL     OW 1599   3.536   2.745   3.116
 2751SOL    HW1 1600   3.509   2.656   3.079
 2751SOL    HW2 1601   3.537   2.813   3.043
 2752SOL     OW 1602   3.087   2.187   2.311
 2752SOL    HW1 1603   3.152   2.113   2.300
 2752SOL    HW2 1604   3.107   2.237   2.395
 2753SOL     OW 1605   3.639   2.204   3.504
 2753SOL    HW1 1606   3.622   2.235   3.410
 2753SOL    HW2 1607   3.555   2.167   3.542
 2754SOL     OW 1608   3.592   2.796   3.379
 2754SOL    HW1 1609   3.630   2.887   3.394
 2754SOL    HW2 1610   3.584   2.779   3.280
 2755SOL     OW 1611   2.721   3.236   1.878
 2755SOL    HW1 1612   2.675   3.251   1.966
 2755SOL    HW2 1613   2.765   3.321   1.848
 2756SOL     OW 1614   2.523   3.652   2.815
 2756SOL    HW1 1615   2.477   3.740   2.802
 2756SOL    HW2 1616   2.622   3.664   2.808
 2757SOL     OW 1617   2.945   2.846   1.949
 2757SOL    HW1 1618   2.922   2.899   1.867
 2757SOL    HW2 1619   3.026   2.790   1.930
 2758SOL     OW 1620   3.723   3.431   2.713
 2758SOL    HW1 1621   3.652   3.419   2.643
 2758SOL    HW2 1622   3.724   3.352   2.773
 2759SOL     OW 1623   2.083   3.176   3.706
 2759SOL    HW1 1624   2.018   3.103   3.685
 2759SOL    HW2 1625   2.087   3.190   3.804
 2760SOL     OW 1626   1.941   3.102   2.515
 2760SOL    HW1 1627   1.940   3.055   2.603
 2760SOL    HW2 1628   2.023   3.074   2.464
 2761SOL     OW 1629   2.534   3.253   3.486
 2761SOL    HW1 1630   2.456   3.203   3.524
 2761SOL    HW2 1631   2.531   3.348   3.517
 2762SOL     OW 1632   3.686   2.054   3.089
 2762SOL    HW1 1633   3.682   1.964   3.133
 2762SOL    HW2 1634   3.689   2.043   2.990
 2763SOL     OW 1635   2.290   2.286   2.382
 2763SOL    HW1 1636   2.320   2.214   2.320
 2763SOL    HW2 1637   2.251   2.246   2.465
 2764SOL     OW 1638   3.567   3.349   2.966
 2764SOL    HW1 1639   3.474   3.324   2.939
 2764SOL    HW2 1640   3.593   3.299   3.048
 2765SOL     OW 1641   2.179   2.409   3.142
 2765SOL    HW1 1642   2.217   2.350   3.214
 2765SOL    HW2 1643   2.219   2.383   3.054
 2766SOL     OW 1644   2.674   3.448   2.549
 2766SOL    HW1 1645   2.706   3.458   2.455
 2766SOL    HW2 1646   2.595   3.386   2.551
 2767SOL     OW 1647   3.286   2.076   2.974
 2767SOL    HW1 1648   3.338   2.011   3.029
 2767SOL    HW2 1649   3.237   2.139   3.035
 2768SOL     OW 1650   2.863   1.896   3.016
 2768SOL    HW1 1651   2.800   1.824   2.985
 2768SOL    HW2 1652   2.956   1.860   3.016
 2769SOL     OW 1653   2.632   3.192   2.163
 2769SOL    HW1 1654   2.586   3.105   2.180
 2769SOL    HW2 1655   2.723   3.189   2.204
 2770SOL     OW 1656   2.480   3.429   3.146
 2770SOL    HW1 1657   2.475   3.511   3.203
 2770SOL    HW2 1658   2.569   3.426   3.101
 2771SOL     OW 1659   3.214   1.914   2.030
 2771SOL    HW1 1660   3.249   1.873   1.946
 2771SOL    HW2 1661   3.124   1.876   2.050
 2772SOL     OW 1662   3.162   2.315   2.553
 2772SOL    HW1 1663   3.103   2.395   2.557
 2772SOL    HW2 1664   3.177   2.280   2.646
 2773SOL     OW 1665   3.455   2.083   2.744
 2773SOL    HW1 1666   3.371   2.082   2.798
 2773SOL    HW2 1667   3.457   2.166   2.688
 2774SOL     OW 1668   1.901   2.939   2.162
 2774SOL    HW1 1669   2.000   2.928   2.153
 2774SOL    HW2 1670   1.861   2.853   2.194
 2775SOL     OW 1671   2.737   3.508   2.199
 2775SOL    HW1 1672   2.660   3.473   2.145
 2775SOL    HW2 1673   2.705   3.579   2.261
 2776SOL     OW 1674   2.092   2.490   3.837
 2776SOL    HW1 1675   1.999   2.488   3.874
 2776SOL    HW2 1676   2.093   2.451   3.745
 2781SOL     OW 1677   2.997   2.565   4.441
 2781SOL    HW1 1678   3.054   2.643   4.416
 2781SOL    HW2 1679   2.937   2.591   4.517
 2782SOL     OW 1680   3.617   2.469   3.955
 2782SOL    HW1 1681   3.605   2.456   3.856
 2782SOL    HW2 1682   3.587   2.388   4.004
 2784SOL     OW 1683   2.547   2.874   4.389
 2784SOL    HW1 1684   2.616   2.858   4.459
 2784SOL    HW2 1685   2.474   2.931   4.427
 2791SOL     OW 1686   2.092   3.296   4.262
 2791SOL    HW1 1687   2.066   3.392   4.262
 2791SOL    HW2 1688   2.021   3.242   4.307
 2794SOL     OW 1689   2.468   2.826   3.847
 2794SOL    HW1 1690   2.475   2.910   3.793
 2794SOL    HW2 1691   2.514   2.839   3.935
 2796SOL     OW 1692   1.984   2.505   4.287
 2796SOL    HW1 1693   1.939   2.417   4.304
 2796SOL    HW2 1694   1.983   2.559   4.371
 2798SOL     OW 1695   1.889   3.458   3.841
 2798SOL    HW1 1696   1.870   3.362   3.862
 2798SOL    HW2 1697   1.856   3.516   3.916
 2800SOL     OW 1698   3.503   2.970   4.156
 2800SOL    HW1 1699   3.589   2.972   4.104
 2800SOL    HW2 1700   3.517   3.017   4.244
 2804SOL     OW 1701   2.671   1.866   4.226
 2804SOL    HW1 1702   2.711   1.957   4.217
 2804SOL    HW2 1703   2.571   1.874   4.232
 2806SOL     OW 1704   3.387   2.861   3.914
 2806SOL    HW1 1705   3.324   2.785   3.927
 2806SOL    HW2 1706   3.435   2.879   4.000
 2809SOL     OW 1707   2.460   2.591   3.994
 2809SOL    HW1 1708   2.484   2.660   3.926
 2809SOL    HW2 1709   2.382   2.624   4.048
 2811SOL     OW 1710   3.438   3.524   4.031
 2811SOL    HW1 1711   3.527   3.570   4.034
 2811SOL    HW2 1712   3.417   3.500   3.936
 2815SOL     OW 1713   2.903   2.563   4.153
 2815SOL    HW1 1714   2.929   2.559   4.249
 2815SOL    HW2 1715   2.818   2.512   4.139
 2818SOL     OW 1716   2.727   2.210   3.919
 2818SOL    HW1 1717   2.786   2.273   3.870
 2818SOL    HW2 1718   2.746   2.116   3.890
 2819SOL     OW 1719   3.224   3.006   4.269
 2819SOL    HW1 1720   3.307   2.977   4.221
 2819SOL    HW2 1721   3.175   3.073   4.213
 2821SOL     OW 1722   2.870   3.318   4.201
 2821SOL    HW1 1723   2.824   3.390   4.149
 2821SOL    HW2 1724   2.866   3.338   4.299
 2824SOL     OW 1725   2.183   2.805   3.966
 2824SOL    HW1 1726   2.265   2.844   3.924
 2824SOL    HW2 1727   2.156   2.723   3.917
 2826SOL     OW 1728   2.973   3.638   3.961
 2826SOL    HW1 1729   2.913   3.576   4.011
 2826SOL    HW2 1730   3.004   3.594   3.876
 2828SOL     OW 1731   3.494   3.239   3.805
 2828SOL    HW1 1732   3.462   3.333   3.795
 2828SOL    HW2 1733   3.418   3.176   3.793
 2829SOL     OW 1734   2.326   3.605   4.047
 2829SOL    HW1 1735   2.359   3.644   4.133
 2829SOL    HW2 1736   2.402   3.598   3.982
 2830SOL     OW 1737   3.262   1.969   4.150
 2830SOL    HW1 1738   3.238   1.932   4.060
 2830SOL    HW2 1739   3.361   1.985   4.154
 2833SOL     OW 1740   2.244   2.562   4.204
 2833SOL    HW1 1741   2.289   2.472   4.201
 2833SOL    HW2 1742   2.150   2.551   4.237
 2834SOL     OW 1743   2.476   1.984   3.841
 2834SOL    HW1 1744   2.574   1.962   3.848
 2834SOL    HW2 1745   2.445   1.967   3.748
 2839SOL     OW 1746   2.401   1.926   4.236
 2839SOL    HW1 1747   2.320   1.927   4.294
 2839SOL    HW2 1748   2.404   2.009   4.181
 2840SOL     OW 1749   3.296   3.050   3.765
 2840SOL    HW1 1750   3.328   2.974   3.822
 2840SOL    HW2 1751   3.204   3.077   3.795
 2841SOL     OW 1752   2.159   1.897   3.895
 2841SOL    HW1 1753   2.208   1.981   3.874
 2841SOL    HW2 1754   2.221   1.832   3.940
 2842SOL     OW 1755   2.797   2.098   4.204
 2842SOL    HW1 1756   2.749   2.139   4.126
 2842SOL    HW2 1757   2.896   2.096   4.185
 2847SOL     OW 1758   2.894   2.411   3.740
 2847SOL    HW1 1759   2.853   2.493   3.701
 2847SOL    HW2 1760   2.958   2.437   3.813
 2850SOL     OW 1761   2.728   2.316   4.366
 2850SOL    HW1 1762   2.696   2.388   4.304
 2850SOL    HW2 1763   2.752   2.235   4.313
 2854SOL     OW 1764   3.719   2.695   4.101
 2854SOL    HW1 1765   3.761   2.631   4.165
 2854SOL    HW2 1766   3.681   2.644   4.023
 2855SOL     OW 1767   2.350   3.247   3.898
 2855SOL    HW1 1768   2.263   3.232   3.945
 2855SOL    HW2 1769   2.333   3.273   3.803
 2857SOL     OW 1770   3.252   2.437   3.802
 2857SOL    HW1 1771   3.198   2.416   3.883
 2857SOL    HW2 1772   3.343   2.396   3.811
 2858SOL     OW 1773   2.389   2.118   4.052
 2858SOL    HW1 1774   2.416   2.059   3.977
 2858SOL    HW2 1775   2.389   2.213   4.021
 2864SOL     OW 1776   2.567   2.912   4.092
 2864SOL    HW1 1777   2.553   2.919   4.191
 2864SOL    HW2 1778   2.651   2.861   4.074
 2868SOL     OW 1779   2.229   2.962   4.225
 2868SOL    HW1 1780   2.222   3.045   4.169
 2868SOL    HW2 1781   2.233   2.882   4.165
 2870SOL     OW 1782   3.114   3.210   4.112
 2870SOL    HW1 1783   3.164   3.287   4.152
 2870SOL    HW2 1784   3.019   3.212   4.144
 2872SOL     OW 1785   3.444   2.501   4.196
 2872SOL    HW1 1786   3.413   2.562   4.269
 2872SOL    HW2 1787   3.494   2.553   4.127
 2878SOL     OW 1788   3.071   2.387   3.999
 2878SOL    HW1 1789   3.084   2.303   4.053
 2878SOL    HW2 1790   3.042   2.461   4.059
 2883SOL     OW 1791   3.484   2.229   4.098
 2883SOL    HW1 1792   3.486   2.153   4.162
 2883SOL    HW2 1793   3.436   2.306   4.138
 2885SOL     OW 1794   3.402   2.136   3.849
 2885SOL    HW1 1795   3.341   2.061   3.872
 2885SOL    HW2 1796   3.424   2.188   3.932
 2886SOL     OW 1797   3.165   2.700   3.766
 2886SOL    HW1 1798   3.199   2.607   3.781
 2886SOL    HW2 1799   3.183   2.727   3.671
 2891SOL     OW 1800   1.870   3.188   3.924
 2891SOL    HW1 1801   1.777   3.209   3.893
 2891SOL    HW2 1802   1.880   3.089   3.937
 2896SOL     OW 1803   2.677   2.434   4.049
 2896SOL    HW1 1804   2.684   2.345   4.003
 2896SOL    HW2 1805   2.583   2.468   4.041
 2901SOL     OW 1806   2.335   2.362   3.915
 2901SOL    HW1 1807   2.396   2.442   3.919
 2901SOL    HW2 1808   2.240   2.393   3.922
 2904SOL     OW 1809   3.164   2.717   4.033
 2904SOL    HW1 1810   3.078   2.686   4.075
 2904SOL    HW2 1811   3.160   2.703   3.934
 2909SOL     OW 1812   3.250   3.435   4.201
 2909SOL    HW1 1813   3.317   3.447   4.127
 2909SOL    HW2 1814   3.210   3.524   4.224
 2910SOL     OW 1815   3.142   2.789   4.396
 2910SOL    HW1 1816   3.202   2.708   4.398
 2910SOL    HW2 1817   3.182   2.858   4.336
 2912SOL     OW 1818   2.534   3.478   3.878
 2912SOL    HW1 1819   2.543   3.488   3.779
 2912SOL    HW2 1820   2.494   3.389   3.899
 2916SOL     OW 1821   3.056   3.474   3.755
 2916SOL    HW1 1822   3.062   3.381   3.792
 2916SOL    HW2 1823   2.997   3.474   3.675
 2918SOL     OW 1824   2.778   2.772   4.015
 2918SOL    HW1 1825   2.841   2.810   3.947
 2918SOL    HW2 1826   2.818   2.689   4.054
 2919SOL     OW 1827   3.366   3.469   3.768
 2919SOL    HW1 1828   3.274   3.506   3.775
 2919SOL    HW2 1829   3.404   3.489   3.678
 2922SOL     OW 1830   2.901   2.960   4.420
 2922SOL    HW1 1831   2.831   2.913   4.474
 2922SOL    HW2 1832   2.960   2.892   4.377
 2924SOL     OW 1833   2.452   3.349   4.215
 2924SOL    HW1 1834   2.494   3.291   4.145
 2924SOL    HW2 1835   2.408   3.428   4.171
 2926SOL     OW 1836   2.117   3.210   4.014
 2926SOL    HW1 1837   2.021   3.211   3.987
 2926SOL    HW2 1838   2.129   3.263   4.098
 2929SOL     OW 1839   1.937   2.207   3.757
 2929SOL    HW1 1840   1.845   2.179   3.728
 2929SOL    HW2 1841   1.968   2.284   3.701
 2931SOL     OW 1842   1.934   2.028   4.042
 2931SOL    HW1 1843   1.917   2.111   3.988
 2931SOL    HW2 1844   2.024   1.991   4.020
 2932SOL     OW 1845   3.045   3.197   3.843
 2932SOL    HW1 1846   2.946   3.186   3.845
 2932SOL    HW2 1847   3.079   3.212   3.936
 2938SOL     OW 1848   3.087   2.187   4.173
 2938SOL    HW1 1849   3.152   2.113   4.162
 2938SOL    HW2 1850   3.107   2.237   4.257
 2939SOL     OW 1851   2.456   2.607   4.376
 2939SOL    HW1 1852   2.506   2.692   4.357
 2939SOL    HW2 1853   2.368   2.609   4.328
 2942SOL     OW 1854   2.721   3.236   3.740
 2942SOL    HW1 1855   2.675   3.251   3.828
 2942SOL    HW2 1856   2.765   3.321   3.710
 2945SOL     OW 1857   2.945   2.846   3.811
 2945SOL    HW1 1858   2.922   2.899   3.729
 2945SOL    HW2 1859   3.026   2.790   3.792
 2950SOL     OW 1860   2.290   2.286   4.244
 2950SOL    HW1 1861   2.320   2.214   4.182
 2950SOL    HW2 1862   2.251   2.246   4.327
 2956SOL     OW 1863   2.632   3.192   4.025
 2956SOL    HW1 1864   2.586   3.105   4.042
 2956SOL    HW2 1865   2.723   3.189   4.066
 2958SOL     OW 1866   3.214   1.914   3.892
 2958SOL    HW1 1867   3.249   1.873   3.808
 2958SOL    HW2 1868   3.124   1.876   3.912
 2961SOL     OW 1869   1.901   2.939   4.024
 2961SOL    HW1 1870   2.000   2.928   4.015
 2961SOL    HW2 1871   1.861   2.853   4.056
 2962SOL     OW 1872   2.737   3.508   4.061
 2962SOL    HW1 1873   2.660   3.473   4.007
 2962SOL    HW2 1874   2.705   3.579   4.123
 2993SOL     OW 1875   2.179   3.975   1.801
 2993SOL    HW1 1876   2.250   4.046   1.807
 2993SOL    HW2 1877   2.091   4.014   1.829
 3018SOL     OW 1878   3.409   3.946   1.729
 3018SOL    HW1 1879   3.404   3.983   1.821
 3018SOL    HW2 1880   3.337   3.877   1.717
 3020SOL     OW 1881   2.643   3.988   1.749
 3020SOL    HW1 1882   2.710   3.927   1.792
 3020SOL    HW2 1883   2.570   4.007   1.814
 3047SOL     OW 1884   2.777   3.813   1.402
 3047SOL    HW1 1885   2.802   3.793   1.307
 3047SOL    HW2 1886   2.849   3.869   1.444
 3060SOL     OW 1887   2.875   3.829   1.770
 3060SOL    HW1 1888   2.881   3.914   1.718
 3060SOL    HW2 1889   2.907   3.753   1.713
 3061SOL     OW 1890   2.366   3.774   1.740
 3061SOL    HW1 1891   2.324   3.717   1.670
 3061SOL    HW2 1892   2.300   3.843   1.772
 3079SOL     OW 1893   3.000   4.104   1.678
 3079SOL    HW1 1894   2.955   4.167   1.742
 3079SOL    HW2 1895   3.093   4.135   1.661
 3080SOL     OW 1896   3.022   3.931   1.477
 3080SOL    HW1 1897   3.022   3.995   1.554
 3080SOL    HW2 1898   3.050   3.979   1.394
 3113SOL     OW 1899   2.534   3.927   1.489
 3113SOL    HW1 1900   2.624   3.911   1.449
 3113SOL    HW2 1901   2.542   3.932   1.588
 3145SOL     OW 1902   2.087   3.999   2.858
 3145SOL    HW1 1903   2.122   3.982   2.950
 3145SOL    HW2 1904   1.999   3.954   2.846
 3146SOL     OW 1905   1.881   4.092   2.509
 3146SOL    HW1 1906   1.799   4.135   2.548
 3146SOL    HW2 1907   1.853   4.019   2.446
 3149SOL     OW 1908   2.997   4.427   2.579
 3149SOL    HW1 1909   3.054   4.505   2.554
 3149SOL    HW2 1910   2.937   4.453   2.655
 3157SOL     OW 1911   2.300   4.116   3.361
 3157SOL    HW1 1912   2.382   4.060   3.370
 3157SOL    HW2 1913   2.219   4.058   3.365
 3158SOL     OW 1914   3.465   4.171   2.599
 3158SOL    HW1 1915   3.391   4.217   2.549
 3158SOL    HW2 1916   3.516   4.239   2.652
 3163SOL     OW 1917   3.456   3.838   3.342
 3163SOL    HW1 1918   3.438   3.905   3.270
 3163SOL    HW2 1919   3.453   3.884   3.431
 3171SOL     OW 1920   2.671   3.728   2.364
 3171SOL    HW1 1921   2.711   3.819   2.355
 3171SOL    HW2 1922   2.571   3.736   2.370
 3174SOL     OW 1923   2.179   3.975   3.663
 3174SOL    HW1 1924   2.250   4.046   3.669
 3174SOL    HW2 1925   2.091   4.014   3.691
 3177SOL     OW 1926   3.143   4.069   2.806
 3177SOL    HW1 1927   3.057   4.019   2.793
 3177SOL    HW2 1928   3.205   4.015   2.862
 3179SOL     OW 1929   2.669   4.329   3.327
 3179SOL    HW1 1930   2.622   4.326   3.416
 3179SOL    HW2 1931   2.618   4.274   3.261
 3182SOL     OW 1932   2.853   4.134   3.104
 3182SOL    HW1 1933   2.776   4.168   3.158
 3182SOL    HW2 1934   2.819   4.083   3.025
 3183SOL     OW 1935   2.903   4.425   2.291
 3183SOL    HW1 1936   2.929   4.421   2.387
 3183SOL    HW2 1937   2.818   4.374   2.277
 3185SOL     OW 1938   2.727   4.072   2.057
 3185SOL    HW1 1939   2.786   4.135   2.008
 3185SOL    HW2 1940   2.746   3.978   2.028
 3188SOL     OW 1941   2.412   3.920   2.747
 3188SOL    HW1 1942   2.407   3.915   2.847
 3188SOL    HW2 1943   2.414   4.016   2.718
 3196SOL     OW 1944   2.064   4.009   3.360
 3196SOL    HW1 1945   1.984   4.069   3.347
 3196SOL    HW2 1946   2.054   3.960   3.446
 3198SOL     OW 1947   3.262   3.831   2.288
 3198SOL    HW1 1948   3.238   3.794   2.198
 3198SOL    HW2 1949   3.361   3.847   2.292
 3200SOL     OW 1950   3.409   3.946   3.591
 3200SOL    HW1 1951   3.404   3.983   3.683
 3200SOL    HW2 1952   3.337   3.877   3.579
 3201SOL     OW 1953   2.476   3.846   1.979
 3201SOL    HW1 1954   2.574   3.824   1.986
 3201SOL    HW2 1955   2.445   3.829   1.886
 3202SOL     OW 1956   2.643   3.988   3.611
 3202SOL    HW1 1957   2.710   3.927   3.654
 3202SOL    HW2 1958   2.570   4.007   3.676
 3205SOL     OW 1959   2.784   4.227   2.761
 3205SOL    HW1 1960   2.759   4.218   2.665
 3205SOL    HW2 1961   2.832   4.145   2.792
 3206SOL     OW 1962   2.401   3.788   2.374
 3206SOL    HW1 1963   2.320   3.789   2.432
 3206SOL    HW2 1964   2.404   3.871   2.319
 3208SOL     OW 1965   2.159   3.759   2.033
 3208SOL    HW1 1966   2.208   3.843   2.012
 3208SOL    HW2 1967   2.221   3.694   2.078
 3209SOL     OW 1968   2.797   3.960   2.342
 3209SOL    HW1 1969   2.749   4.001   2.264
 3209SOL    HW2 1970   2.896   3.958   2.323
 3213SOL     OW 1971   2.894   4.273   1.878
 3213SOL    HW1 1972   2.853   4.355   1.839
 3213SOL    HW2 1973   2.958   4.299   1.951
 3215SOL     OW 1974   2.423   3.946   3.009
 3215SOL    HW1 1975   2.461   3.862   3.046
 3215SOL    HW2 1976   2.335   3.965   3.053
 3216SOL     OW 1977   2.728   4.178   2.504
 3216SOL    HW1 1978   2.696   4.250   2.442
 3216SOL    HW2 1979   2.752   4.097   2.451
 3217SOL     OW 1980   2.879   3.763   2.615
 3217SOL    HW1 1981   2.807   3.768   2.546
 3217SOL    HW2 1982   2.855   3.694   2.684
 3219SOL     OW 1983   3.328   4.314   2.854
 3219SOL    HW1 1984   3.298   4.219   2.861
 3219SOL    HW2 1985   3.401   4.330   2.920
 3224SOL     OW 1986   2.389   3.980   2.190
 3224SOL    HW1 1987   2.416   3.921   2.115
 3224SOL    HW2 1988   2.389   4.075   2.159
 3229SOL     OW 1989   2.777   3.813   3.264
 3229SOL    HW1 1990   2.802   3.793   3.169
 3229SOL    HW2 1991   2.849   3.869   3.306
 3233SOL     OW 1992   3.136   4.110   3.124
 3233SOL    HW1 1993   3.157   4.184   3.188
 3233SOL    HW2 1994   3.047   4.127   3.081
 3235SOL     OW 1995   2.428   4.261   2.727
 3235SOL    HW1 1996   2.440   4.327   2.653
 3235SOL    HW2 1997   2.474   4.295   2.810
 3242SOL     OW 1998   2.875   3.829   3.632
 3242SOL    HW1 1999   2.881   3.914   3.580
 3242SOL    HW2 2000   2.907   3.753   3.575
 3243SOL     OW 2001   2.366   3.774   3.602
 3243SOL    HW1 2002   2.324   3.717   3.532
 3243SOL    HW2 2003   2.300   3.843   3.634
 3246SOL     OW 2004   3.071   4.249   2.137
 3246SOL    HW1 2005   3.084   4.165   2.191
 3246SOL    HW2 2006   3.042   4.323   2.197
 3247SOL     OW 2007   2.169   3.937   3.093
 3247SOL    HW1 2008   2.146   3.974   3.183
 3247SOL    HW2 2009   2.139   3.842   3.087
 3249SOL     OW 2010   2.594   4.358   2.926
 3249SOL    HW1 2011   2.653   4.332   2.850
 3249SOL    HW2 2012   2.566   4.454   2.915
 3251SOL     OW 2013   2.169   3.787   2.480
 3251SOL    HW1 2014   2.158   3.881   2.513
 3251SOL    HW2 2015   2.164   3.724   2.557
 3252SOL     OW 2016   3.484   4.091   2.236
 3252SOL    HW1 2017   3.486   4.015   2.300
 3252SOL    HW2 2018   3.436   4.168   2.276
 3256SOL     OW 2019   3.402   3.998   1.987
 3256SOL    HW1 2020   3.341   3.923   2.010
 3256SOL    HW2 2021   3.424   4.050   2.070
 3260SOL     OW 2022   2.201   4.233   2.868
 3260SOL    HW1 2023   2.149   4.150   2.851
 3260SOL    HW2 2024   2.278   4.238   2.804
 3261SOL     OW 2025   3.000   4.104   3.540
 3261SOL    HW1 2026   2.955   4.167   3.604
 3261SOL    HW2 2027   3.093   4.135   3.523
 3262SOL     OW 2028   3.022   3.931   3.339
 3262SOL    HW1 2029   3.022   3.995   3.416
 3262SOL    HW2 2030   3.050   3.979   3.256
 3266SOL     OW 2031   1.902   4.268   2.976
 3266SOL    HW1 2032   1.987   4.235   2.935
 3266SOL    HW2 2033   1.915   4.283   3.074
 3269SOL     OW 2034   2.677   4.296   2.187
 3269SOL    HW1 2035   2.684   4.207   2.141
 3269SOL    HW2 2036   2.583   4.330   2.179
 3272SOL     OW 2037   2.533   4.188   3.131
 3272SOL    HW1 2038   2.499   4.099   3.101
 3272SOL    HW2 2039   2.559   4.242   3.051
 3273SOL     OW 2040   2.335   4.224   2.053
 3273SOL    HW1 2041   2.396   4.304   2.057
 3273SOL    HW2 2042   2.240   4.255   2.060
 3278SOL     OW 2043   3.588   3.859   2.385
 3278SOL    HW1 2044   3.661   3.842   2.318
 3278SOL    HW2 2045   3.557   3.772   2.423
 3281SOL     OW 2046   3.703   3.899   2.825
 3281SOL    HW1 2047   3.742   3.814   2.789
 3281SOL    HW2 2048   3.605   3.901   2.806
 3282SOL     OW 2049   2.125   4.050   2.582
 3282SOL    HW1 2050   2.046   4.101   2.548
 3282SOL    HW2 2051   2.116   4.035   2.680
 3289SOL     OW 2052   2.876   3.960   2.833
 3289SOL    HW1 2053   2.868   3.924   2.740
 3289SOL    HW2 2054   2.874   3.884   2.898
 3291SOL     OW 2055   3.571   4.109   3.243
 3291SOL    HW1 2056   3.644   4.178   3.247
 3291SOL    HW2 2057   3.599   4.034   3.184
 3294SOL     OW 2058   2.534   3.927   3.351
 3294SOL    HW1 2059   2.624   3.911   3.311
 3294SOL    HW2 2060   2.542   3.932   3.450
 3295SOL     OW 2061   1.937   4.069   1.895
 3295SOL    HW1 2062   1.845   4.041   1.866
 3295SOL    HW2 2063   1.968   4.146   1.839
 3297SOL     OW 2064   1.934   3.890   2.180
 3297SOL    HW1 2065   1.917   3.973   2.126
 3297SOL    HW2 2066   2.024   3.853   2.158
 3303SOL     OW 2067   3.087   4.049   2.311
 3303SOL    HW1 2068   3.152   3.975   2.300
 3303SOL    HW2 2069   3.107   4.099   2.395
 3314SOL     OW 2070   3.686   3.916   3.089
 3314SOL    HW1 2071   3.682   3.826   3.133
 3314SOL    HW2 2072   3.689   3.905   2.990
 3315SOL     OW 2073   2.290   4.148   2.382
 3315SOL    HW1 2074   2.320   4.076   2.320
 3315SOL    HW2 2075   2.251   4.108   2.465
 3317SOL     OW 2076   2.179   4.271   3.142
 3317SOL    HW1 2077   2.217   4.212   3.214
 3317SOL    HW2 2078   2.219   4.245   3.054
 3318SOL     OW 2079   3.286   3.938   2.974
 3318SOL    HW1 2080   3.338   3.873   3.029
 3318SOL    HW2 2081   3.237   4.001   3.035
 3319SOL     OW 2082   2.863   3.758   3.016
 3319SOL    HW1 2083   2.800   3.686   2.985
 3319SOL    HW2 2084   2.956   3.722   3.016
 3322SOL     OW 2085   3.214   3.776   2.030
 3322SOL    HW1 2086   3.249   3.735   1.946
 3322SOL    HW2 2087   3.124   3.738   2.050
 3323SOL     OW 2088   3.162   4.177   2.553
 3323SOL    HW1 2089   3.103   4.257   2.557
 3323SOL    HW2 2090   3.177   4.142   2.646
 3324SOL     OW 2091   3.455   3.945   2.744
 3324SOL    HW1 2092   3.371   3.944   2.798
 3324SOL    HW2 2093   3.457   4.028   2.688
 3375SOL     OW 2094   2.476   3.846   3.841
 3375SOL    HW1 2095   2.574   3.824   3.848
 3375SOL    HW2 2096   2.445   3.829   3.748
 3381SOL     OW 2097   2.159   3.759   3.895
 3381SOL    HW1 2098   2.208   3.843   3.874
 3381SOL    HW2 2099   2.221   3.694   3.940
 3484SOL     OW 2100   3.214   3.776   3.892
 3484SOL    HW1 2101   3.249   3.735   3.808
 3484SOL    HW2 2102   3.124   3.738   3.912
 3626SOL     OW 2103   3.854   1.794   1.851
 3626SOL    HW1 2104   3.813   1.720   1.904
 3626SOL    HW2 2105   3.918   1.845   1.909
 3685SOL     OW 2106   3.955   1.713   2.345
 3685SOL    HW1 2107   3.989   1.790   2.399
 3685SOL    HW2 2108   3.999   1.713   2.255
 3693SOL     OW 2109   3.751   1.596   1.979
 3693SOL    HW1 2110   3.732   1.500   2.000
 3693SOL    HW2 2111   3.718   1.654   2.054
 3712SOL     OW 2112   3.854   1.821   3.433
 3712SOL    HW1 2113   3.844   1.806   3.532
 3712SOL    HW2 2114   3.768   1.857   3.397
 3717SOL     OW 2115   4.075   1.801   2.715
 3717SOL    HW1 2116   4.125   1.715   2.721
 3717SOL    HW2 2117   4.140   1.878   2.712
 3726SOL     OW 2118   3.973   1.785   3.103
 3726SOL    HW1 2119   4.030   1.720   3.153
 3726SOL    HW2 2120   3.957   1.752   3.010
 3761SOL     OW 2121   3.788   1.564   3.193
 3761SOL    HW1 2122   3.742   1.646   3.159
 3761SOL    HW2 2123   3.886   1.583   3.202
 3790SOL     OW 2124   3.812   1.801   2.789
 3790SOL    HW1 2125   3.770   1.715   2.762
 3790SOL    HW2 2126   3.906   1.804   2.755
 3809SOL     OW 2127   3.854   1.794   3.713
 3809SOL    HW1 2128   3.813   1.720   3.766
 3809SOL    HW2 2129   3.918   1.845   3.771
 4042SOL     OW 2130   3.837   2.599   1.597
 4042SOL    HW1 2131   3.925   2.586   1.642
 4042SOL    HW2 2132   3.824   2.696   1.575
 4048SOL     OW 2133   4.041   2.113   1.801
 4048SOL    HW1 2134   4.112   2.184   1.807
 4048SOL    HW2 2135   3.953   2.152   1.829
 4091SOL     OW 2136   3.802   2.418   1.386
 4091SOL    HW1 2137   3.894   2.417   1.345
 4091SOL    HW2 2138   3.796   2.492   1.453
 4128SOL     OW 2139   4.074   2.760   1.804
 4128SOL    HW1 2140   4.150   2.804   1.852
 4128SOL    HW2 2141   4.109   2.713   1.722
 4141SOL     OW 2142   3.913   2.382   1.722
 4141SOL    HW1 2143   3.972   2.342   1.652
 4141SOL    HW2 2144   3.855   2.453   1.681
 4144SOL     OW 2145   3.976   3.426   1.744
 4144SOL    HW1 2146   3.946   3.483   1.820
 4144SOL    HW2 2147   3.969   3.329   1.770
 4148SOL     OW 2148   3.883   2.999   1.466
 4148SOL    HW1 2149   3.905   2.938   1.542
 4148SOL    HW2 2150   3.893   2.950   1.380
 4157SOL     OW 2151   3.854   3.656   1.851
 4157SOL    HW1 2152   3.813   3.582   1.904
 4157SOL    HW2 2153   3.918   3.707   1.909
 4171SOL     OW 2154   3.829   2.875   1.726
 4171SOL    HW1 2155   3.752   2.842   1.780
 4171SOL    HW2 2156   3.914   2.845   1.768
 4188SOL     OW 2157   3.945   3.176   1.844
 4188SOL    HW1 2158   3.880   3.103   1.823
 4188SOL    HW2 2159   3.949   3.190   1.942
 4203SOL     OW 2160   3.954   2.490   1.975
 4203SOL    HW1 2161   3.861   2.488   2.012
 4203SOL    HW2 2162   3.955   2.451   1.883
 4204SOL     OW 2163   3.949   2.137   2.858
 4204SOL    HW1 2164   3.984   2.120   2.950
 4204SOL    HW2 2165   3.861   2.092   2.846
 4205SOL     OW 2166   3.743   2.230   2.509
 4205SOL    HW1 2167   3.661   2.273   2.548
 4205SOL    HW2 2168   3.715   2.157   2.446
 4206SOL     OW 2169   4.293   3.137   3.027
 4206SOL    HW1 2170   4.200   3.130   2.990
 4206SOL    HW2 2171   4.304   3.226   3.071
 4211SOL     OW 2172   4.409   2.874   2.527
 4211SOL    HW1 2173   4.478   2.858   2.597
 4211SOL    HW2 2174   4.336   2.931   2.565
 4213SOL     OW 2175   4.059   3.297   2.923
 4213SOL    HW1 2176   3.981   3.266   2.870
 4213SOL    HW2 2177   4.117   3.355   2.866
 4215SOL     OW 2178   4.162   2.254   3.361
 4215SOL    HW1 2179   4.244   2.198   3.370
 4215SOL    HW2 2180   4.081   2.196   3.365
 4216SOL     OW 2181   3.955   3.575   2.345
 4216SOL    HW1 2182   3.989   3.652   2.399
 4216SOL    HW2 2183   3.999   3.575   2.255
 4218SOL     OW 2184   3.954   3.296   2.400
 4218SOL    HW1 2185   3.928   3.392   2.400
 4218SOL    HW2 2186   3.883   3.242   2.445
 4219SOL     OW 2187   3.964   2.953   2.748
 4219SOL    HW1 2188   3.978   2.869   2.800
 4219SOL    HW2 2189   3.909   3.017   2.803
 4221SOL     OW 2190   4.330   2.826   1.985
 4221SOL    HW1 2191   4.337   2.910   1.931
 4221SOL    HW2 2192   4.376   2.839   2.073
 4223SOL     OW 2193   3.846   2.505   2.425
 4223SOL    HW1 2194   3.801   2.417   2.442
 4223SOL    HW2 2195   3.845   2.559   2.509
 4224SOL     OW 2196   3.751   3.458   1.979
 4224SOL    HW1 2197   3.732   3.362   2.000
 4224SOL    HW2 2198   3.718   3.516   2.054
 4226SOL     OW 2199   3.837   2.599   3.459
 4226SOL    HW1 2200   3.925   2.586   3.504
 4226SOL    HW2 2201   3.824   2.696   3.437
 4227SOL     OW 2202   4.337   3.227   2.588
 4227SOL    HW1 2203   4.288   3.140   2.597
 4227SOL    HW2 2204   4.314   3.270   2.501
 4230SOL     OW 2205   3.921   2.838   3.126
 4230SOL    HW1 2206   4.010   2.793   3.112
 4230SOL    HW2 2207   3.848   2.773   3.107
 4232SOL     OW 2208   4.041   2.113   3.663
 4232SOL    HW1 2209   4.112   2.184   3.669
 4232SOL    HW2 2210   3.953   2.152   3.691
 4235SOL     OW 2211   4.322   2.591   2.132
 4235SOL    HW1 2212   4.346   2.660   2.064
 4235SOL    HW2 2213   4.244   2.624   2.186
 4242SOL     OW 2214   3.800   2.673   2.651
 4242SOL    HW1 2215   3.899   2.661   2.660
 4242SOL    HW2 2216   3.776   2.768   2.672
 4243SOL     OW 2217   3.854   3.683   3.433
 4243SOL    HW1 2218   3.844   3.668   3.532
 4243SOL    HW2 2219   3.768   3.719   3.397
 4246SOL     OW 2220   4.274   2.058   2.747
 4246SOL    HW1 2221   4.269   2.053   2.847
 4246SOL    HW2 2222   4.276   2.154   2.718
 4248SOL     OW 2223   4.075   3.663   2.715
 4248SOL    HW1 2224   4.125   3.577   2.721
 4248SOL    HW2 2225   4.140   3.740   2.712
 4250SOL     OW 2226   4.045   2.805   2.104
 4250SOL    HW1 2227   4.127   2.844   2.062
 4250SOL    HW2 2228   4.018   2.723   2.055
 4254SOL     OW 2229   3.926   2.147   3.360
 4254SOL    HW1 2230   3.846   2.207   3.347
 4254SOL    HW2 2231   3.916   2.098   3.446
 4257SOL     OW 2232   3.973   3.647   3.103
 4257SOL    HW1 2233   4.030   3.582   3.153
 4257SOL    HW2 2234   3.957   3.614   3.010
 4259SOL     OW 2235   4.106   2.562   2.342
 4259SOL    HW1 2236   4.151   2.472   2.339
 4259SOL    HW2 2237   4.012   2.551   2.375
 4266SOL     OW 2238   4.263   1.926   2.374
 4266SOL    HW1 2239   4.182   1.927   2.432
 4266SOL    HW2 2240   4.266   2.009   2.319
 4268SOL     OW 2241   4.021   1.897   2.033
 4268SOL    HW1 2242   4.070   1.981   2.012
 4268SOL    HW2 2243   4.083   1.832   2.078
 4272SOL     OW 2244   4.183   3.014   2.603
 4272SOL    HW1 2245   4.112   2.987   2.668
 4272SOL    HW2 2246   4.157   2.986   2.510
 4275SOL     OW 2247   3.802   2.418   3.248
 4275SOL    HW1 2248   3.894   2.417   3.207
 4275SOL    HW2 2249   3.796   2.492   3.315
 4276SOL     OW 2250   4.285   2.084   3.009
 4276SOL    HW1 2251   4.323   2.000   3.046
 4276SOL    HW2 2252   4.197   2.103   3.053
 4281SOL     OW 2253   4.212   3.247   2.036
 4281SOL    HW1 2254   4.125   3.232   2.083
 4281SOL    HW2 2255   4.195   3.273   1.941
 4283SOL     OW 2256   4.251   2.118   2.190
 4283SOL    HW1 2257   4.278   2.059   2.115
 4283SOL    HW2 2258   4.251   2.213   2.159
 4290SOL     OW 2259   4.134   2.675   3.113
 4290SOL    HW1 2260   4.220   2.687   3.163
 4290SOL    HW2 2261   4.092   2.588   3.140
 4292SOL     OW 2262   3.788   3.426   3.193
 4292SOL    HW1 2263   3.742   3.508   3.159
 4292SOL    HW2 2264   3.886   3.445   3.202
 4293SOL     OW 2265   4.091   2.962   2.363
 4293SOL    HW1 2266   4.084   3.045   2.307
 4293SOL    HW2 2267   4.095   2.882   2.303
 4294SOL     OW 2268   4.290   2.399   2.727
 4294SOL    HW1 2269   4.302   2.465   2.653
 4294SOL    HW2 2270   4.336   2.433   2.810
 4298SOL     OW 2271   4.078   3.372   3.191
 4298SOL    HW1 2272   4.057   3.328   3.104
 4298SOL    HW2 2273   4.175   3.398   3.194
 4299SOL     OW 2274   4.126   2.613   3.460
 4299SOL    HW1 2275   4.194   2.668   3.413
 4299SOL    HW2 2276   4.166   2.525   3.487
 4302SOL     OW 2277   4.297   2.732   2.891
 4302SOL    HW1 2278   4.341   2.821   2.882
 4302SOL    HW2 2279   4.234   2.732   2.968
 4305SOL     OW 2280   4.031   2.075   3.093
 4305SOL    HW1 2281   4.008   2.112   3.183
 4305SOL    HW2 2282   4.001   1.980   3.087
 4306SOL     OW 2283   3.761   3.172   3.144
 4306SOL    HW1 2284   3.814   3.123   3.212
 4306SOL    HW2 2285   3.783   3.270   3.149
 4307SOL     OW 2286   4.456   2.496   2.926
 4307SOL    HW1 2287   4.515   2.470   2.850
 4307SOL    HW2 2288   4.428   2.592   2.915
 4308SOL     OW 2289   4.031   1.925   2.480
 4308SOL    HW1 2290   4.020   2.019   2.513
 4308SOL    HW2 2291   4.026   1.862   2.557
 4312SOL     OW 2292   4.074   2.760   3.666
 4312SOL    HW1 2293   4.150   2.804   3.714
 4312SOL    HW2 2294   4.109   2.713   3.584
 4316SOL     OW 2295   4.043   2.672   2.811
 4316SOL    HW1 2296   4.136   2.708   2.816
 4316SOL    HW2 2297   4.037   2.587   2.863
 4317SOL     OW 2298   4.063   2.371   2.868
 4317SOL    HW1 2299   4.011   2.288   2.851
 4317SOL    HW2 2300   4.140   2.376   2.804
 4320SOL     OW 2301   3.732   3.188   2.062
 4320SOL    HW1 2302   3.639   3.209   2.031
 4320SOL    HW2 2303   3.742   3.089   2.075
 4321SOL     OW 2304   3.812   3.663   2.789
 4321SOL    HW1 2305   3.770   3.577   2.762
 4321SOL    HW2 2306   3.906   3.666   2.755
 4322SOL     OW 2307   4.228   3.430   2.772
 4322SOL    HW1 2308   4.294   3.504   2.781
 4322SOL    HW2 2309   4.272   3.351   2.730
 4324SOL     OW 2310   3.764   2.406   2.976
 4324SOL    HW1 2311   3.849   2.373   2.935
 4324SOL    HW2 2312   3.777   2.421   3.074
 4325SOL     OW 2313   3.913   2.382   3.584
 4325SOL    HW1 2314   3.972   2.342   3.514
 4325SOL    HW2 2315   3.855   2.453   3.543
 4328SOL     OW 2316   3.976   3.426   3.606
 4328SOL    HW1 2317   3.946   3.483   3.682
 4328SOL    HW2 2318   3.969   3.329   3.632
 4331SOL     OW 2319   4.197   2.362   2.053
 4331SOL    HW1 2320   4.258   2.442   2.057
 4331SOL    HW2 2321   4.102   2.393   2.060
 4332SOL     OW 2322   3.883   2.999   3.328
 4332SOL    HW1 2323   3.905   2.938   3.404
 4332SOL    HW2 2324   3.893   2.950   3.242
 4336SOL     OW 2325   3.807   3.120   2.884
 4336SOL    HW1 2326   3.802   3.119   2.984
 4336SOL    HW2 2327   3.724   3.079   2.846
 4344SOL     OW 2328   3.987   2.188   2.582
 4344SOL    HW1 2329   3.908   2.239   2.548
 4344SOL    HW2 2330   3.978   2.173   2.680
 4349SOL     OW 2331   4.096   3.150   3.352
 4349SOL    HW1 2332   4.083   3.243   3.318
 4349SOL    HW2 2333   4.012   3.098   3.339
 4352SOL     OW 2334   4.314   3.349   2.353
 4352SOL    HW1 2335   4.356   3.291   2.283
 4352SOL    HW2 2336   4.270   3.428   2.309
 4353SOL     OW 2337   3.979   3.210   2.152
 4353SOL    HW1 2338   3.883   3.211   2.125
 4353SOL    HW2 2339   3.991   3.263   2.236
 4354SOL     OW 2340   3.829   2.875   3.588
 4354SOL    HW1 2341   3.752   2.842   3.642
 4354SOL    HW2 2342   3.914   2.845   3.630
 4356SOL     OW 2343   3.799   2.207   1.895
 4356SOL    HW1 2344   3.707   2.179   1.866
 4356SOL    HW2 2345   3.830   2.284   1.839
 4358SOL     OW 2346   3.796   2.028   2.180
 4358SOL    HW1 2347   3.779   2.111   2.126
 4358SOL    HW2 2348   3.886   1.991   2.158
 4360SOL     OW 2349   4.337   2.704   3.293
 4360SOL    HW1 2350   4.393   2.785   3.276
 4360SOL    HW2 2351   4.396   2.624   3.296
 4366SOL     OW 2352   4.318   2.607   2.514
 4366SOL    HW1 2353   4.368   2.692   2.495
 4366SOL    HW2 2354   4.230   2.609   2.466
 4372SOL     OW 2355   3.945   3.176   3.706
 4372SOL    HW1 2356   3.880   3.103   3.685
 4372SOL    HW2 2357   3.949   3.190   3.804
 4373SOL     OW 2358   3.803   3.102   2.515
 4373SOL    HW1 2359   3.802   3.055   2.603
 4373SOL    HW2 2360   3.885   3.074   2.464
 4375SOL     OW 2361   4.152   2.286   2.382
 4375SOL    HW1 2362   4.182   2.214   2.320
 4375SOL    HW2 2363   4.113   2.246   2.465
 4376SOL     OW 2364   4.041   2.409   3.142
 4376SOL    HW1 2365   4.079   2.350   3.214
 4376SOL    HW2 2366   4.081   2.383   3.054
 4385SOL     OW 2367   3.763   2.939   2.162
 4385SOL    HW1 2368   3.862   2.928   2.153
 4385SOL    HW2 2369   3.723   2.853   2.194
 4387SOL     OW 2370   3.954   2.490   3.837
 4387SOL    HW1 2371   3.861   2.488   3.874
 4387SOL    HW2 2372   3.955   2.451   3.745
 4406SOL     OW 2373   3.751   3.458   3.841
 4406SOL    HW1 2374   3.732   3.362   3.862
 4406SOL    HW2 2375   3.718   3.516   3.916
 4489SOL     OW 2376   3.732   3.188   3.924
 4489SOL    HW1 2377   3.639   3.209   3.893
 4489SOL    HW2 2378   3.742   3.089   3.937
 4521SOL     OW 2379   3.799   2.207   3.757
 4521SOL    HW1 2380   3.707   2.179   3.728
 4521SOL    HW2 2381   3.830   2.284   3.701
 4548SOL     OW 2382   3.763   2.939   4.024
 4548SOL    HW1 2383   3.862   2.928   4.015
 4548SOL    HW2 2384   3.723   2.853   4.056
 4710SOL     OW 2385   3.743   4.092   2.509
 4710SOL    HW1 2386   3.661   4.135   2.548
 4710SOL    HW2 2387   3.715   4.019   2.446
 4800SOL     OW 2388   4.031   3.787   2.480
 4800SOL    HW1 2389   4.020   3.881   2.513
 4800SOL    HW2 2390   4.026   3.724   2.557
 4842SOL     OW 2391   3.796   3.890   2.180
 4842SOL    HW1 2392   3.779   3.973   2.126
 4842SOL    HW2 2393   3.886   3.853   2.158
   5.37550   5.37550   5.37550
