mobley_4375719_GMX.gro created by acpype (v: 2023.10.27) on Tue May 19 12:46:02 2026
 2417
    1MOL     C1    1   2.316   2.738   2.195
    1MOL     C2    2   2.915   2.417   2.945
    1MOL     C3    3   2.344   2.742   2.344
    1MOL     C4    4   2.796   2.504   2.908
    1MOL     C5    5   2.462   2.654   2.387
    1MOL     C6    6   2.766   2.497   2.759
    1MOL     C7    7   2.491   2.661   2.537
    1MOL     C8    8   2.644   2.582   2.723
    1MOL     C9    9   2.612   2.573   2.573
    1MOL     H1   10   2.301   2.635   2.160
    1MOL     H2   11   2.225   2.795   2.173
    1MOL     H3   12   2.397   2.783   2.138
    1MOL     H4   13   2.935   2.423   3.052
    1MOL     H5   14   3.005   2.450   2.892
    1MOL     H6   15   2.897   2.312   2.920
    1MOL     H7   16   2.362   2.846   2.375
    1MOL     H8   17   2.254   2.708   2.398
    1MOL     H9   18   2.816   2.607   2.938
    1MOL    H10   19   2.708   2.470   2.965
    1MOL    H11   20   2.438   2.550   2.359
    1MOL    H12   21   2.551   2.683   2.330
    1MOL    H13   22   2.853   2.533   2.702
    1MOL    H14   23   2.749   2.393   2.729
    1MOL    H15   24   2.403   2.627   2.593
    1MOL    H16   25   2.512   2.764   2.567
    1MOL    H17   26   2.662   2.687   2.750
    1MOL    H18   27   2.557   2.548   2.781
    1MOL    H19   28   2.591   2.469   2.546
    1MOL    H20   29   2.699   2.605   2.515
   97SOL     OW   30   1.592   1.629   1.625
   97SOL    HW1   31   1.619   1.663   1.535
   97SOL    HW2   32   1.671   1.591   1.671
  127SOL     OW   33   1.859   1.518   1.605
  127SOL    HW1   34   1.873   1.545   1.510
  127SOL    HW2   35   1.942   1.540   1.658
  163SOL     OW   36   1.650   1.720   1.394
  163SOL    HW1   37   1.703   1.730   1.310
  163SOL    HW2   38   1.623   1.810   1.428
  219SOL     OW   39   1.555   1.511   2.565
  219SOL    HW1   40   1.498   1.495   2.646
  219SOL    HW2   41   1.496   1.521   2.485
  227SOL     OW   42   1.460   1.505   3.201
  227SOL    HW1   43   1.484   1.599   3.227
  227SOL    HW2   44   1.444   1.451   3.283
  238SOL     OW   45   1.842   1.767   2.221
  238SOL    HW1   46   1.896   1.738   2.301
  238SOL    HW2   47   1.872   1.857   2.192
  241SOL     OW   48   1.641   1.108   2.294
  241SOL    HW1   49   1.727   1.110   2.242
  241SOL    HW2   50   1.655   1.155   2.382
  250SOL     OW   51   1.466   1.417   2.815
  250SOL    HW1   52   1.407   1.423   2.895
  250SOL    HW2   53   1.451   1.329   2.769
  251SOL     OW   54   1.667   1.714   2.434
  251SOL    HW1   55   1.626   1.691   2.346
  251SOL    HW2   56   1.649   1.640   2.499
  254SOL     OW   57   1.576   1.662   2.169
  254SOL    HW1   58   1.665   1.708   2.172
  254SOL    HW2   59   1.555   1.638   2.074
  268SOL     OW   60   1.795   1.066   2.735
  268SOL    HW1   61   1.733   1.051   2.659
  268SOL    HW2   62   1.743   1.077   2.820
  273SOL     OW   63   1.111   1.776   2.099
  273SOL    HW1   64   1.051   1.714   2.149
  273SOL    HW2   65   1.142   1.732   2.014
  275SOL     OW   66   1.632   1.377   1.943
  275SOL    HW1   67   1.600   1.471   1.933
  275SOL    HW2   68   1.556   1.314   1.931
  293SOL     OW   69   1.227   1.570   2.655
  293SOL    HW1   70   1.248   1.644   2.590
  293SOL    HW2   71   1.295   1.570   2.728
  295SOL     OW   72   1.271   1.797   2.453
  295SOL    HW1   73   1.315   1.861   2.389
  295SOL    HW2   74   1.221   1.849   2.523
  305SOL     OW   75   1.664   1.280   2.519
  305SOL    HW1   76   1.763   1.288   2.533
  305SOL    HW2   77   1.619   1.364   2.550
  310SOL     OW   78   1.592   1.629   3.487
  310SOL    HW1   79   1.619   1.663   3.397
  310SOL    HW2   80   1.671   1.591   3.533
  340SOL     OW   81   1.859   1.518   3.467
  340SOL    HW1   82   1.873   1.545   3.372
  340SOL    HW2   83   1.942   1.540   3.520
  365SOL     OW   84   1.759   1.747   3.016
  365SOL    HW1   85   1.820   1.777   2.943
  365SOL    HW2   86   1.721   1.658   2.994
  366SOL     OW   87   1.252   1.731   2.990
  366SOL    HW1   88   1.336   1.736   2.936
  366SOL    HW2   89   1.229   1.635   3.008
  370SOL     OW   90   1.388   1.573   2.339
  370SOL    HW1   91   1.455   1.585   2.265
  370SOL    HW2   92   1.348   1.662   2.362
  375SOL     OW   93   1.650   1.720   3.256
  375SOL    HW1   94   1.703   1.730   3.172
  375SOL    HW2   95   1.623   1.810   3.290
  381SOL     OW   96   1.504   1.607   1.906
  381SOL    HW1   97   1.412   1.644   1.913
  381SOL    HW2   98   1.542   1.627   1.816
  383SOL     OW   99   1.614   1.292   3.151
  383SOL    HW1  100   1.674   1.295   3.231
  383SOL    HW2  101   1.539   1.356   3.164
  396SOL     OW  102   1.493   1.767   2.821
  396SOL    HW1  103   1.526   1.831   2.752
  396SOL    HW2  104   1.559   1.761   2.896
  409SOL     OW  105   1.861   1.569   2.713
  409SOL    HW1  106   1.790   1.557   2.643
  409SOL    HW2  107   1.862   1.490   2.773
  415SOL     OW  108   1.705   1.487   2.966
  415SOL    HW1  109   1.612   1.462   2.939
  415SOL    HW2  110   1.731   1.437   3.048
  613SOL     OW  111   1.594   1.976   1.480
  613SOL    HW1  112   1.576   2.043   1.408
  613SOL    HW2  113   1.591   2.022   1.569
  633SOL     OW  114   1.394   2.331   1.674
  633SOL    HW1  115   1.374   2.374   1.762
  633SOL    HW2  116   1.472   2.269   1.683
  640SOL     OW  117   1.719   2.447   1.831
  640SOL    HW1  118   1.693   2.536   1.795
  640SOL    HW2  119   1.717   2.379   1.758
  658SOL     OW  120   1.547   2.084   1.729
  658SOL    HW1  121   1.542   2.121   1.821
  658SOL    HW2  122   1.475   2.015   1.717
  661SOL     OW  123   1.351   2.452   1.433
  661SOL    HW1  124   1.379   2.409   1.518
  661SOL    HW2  125   1.376   2.548   1.434
  683SOL     OW  126   1.754   3.085   1.588
  683SOL    HW1  127   1.845   3.046   1.575
  683SOL    HW2  128   1.762   3.181   1.612
  685SOL     OW  129   1.592   3.491   1.625
  685SOL    HW1  130   1.619   3.525   1.535
  685SOL    HW2  131   1.671   3.453   1.671
  701SOL     OW  132   1.587   2.641   1.670
  701SOL    HW1  133   1.495   2.679   1.665
  701SOL    HW2  134   1.647   2.688   1.605
  710SOL     OW  135   1.728   2.797   1.854
  710SOL    HW1  136   1.682   2.790   1.765
  710SOL    HW2  137   1.666   2.841   1.920
  715SOL     OW  138   1.859   3.380   1.605
  715SOL    HW1  139   1.873   3.407   1.510
  715SOL    HW2  140   1.942   3.402   1.658
  722SOL     OW  141   1.138   2.242   1.678
  722SOL    HW1  142   1.093   2.305   1.742
  722SOL    HW2  143   1.231   2.273   1.661
  730SOL     OW  144   1.369   2.812   1.660
  730SOL    HW1  145   1.408   2.901   1.680
  730SOL    HW2  146   1.379   2.792   1.563
  732SOL     OW  147   1.657   2.466   1.206
  732SOL    HW1  148   1.619   2.397   1.268
  732SOL    HW2  149   1.739   2.430   1.162
  759SOL     OW  150   1.614   3.154   1.289
  759SOL    HW1  151   1.674   3.157   1.369
  759SOL    HW2  152   1.539   3.218   1.302
  763SOL     OW  153   1.709   2.247   1.381
  763SOL    HW1  154   1.782   2.316   1.385
  763SOL    HW2  155   1.737   2.172   1.322
  768SOL     OW  156   1.440   2.718   1.398
  768SOL    HW1  157   1.383   2.770   1.335
  768SOL    HW2  158   1.536   2.730   1.374
  774SOL     OW  159   1.450   3.082   1.633
  774SOL    HW1  160   1.441   3.072   1.732
  774SOL    HW2  161   1.546   3.075   1.607
  776SOL     OW  162   1.674   2.745   1.254
  776SOL    HW1  163   1.647   2.656   1.217
  776SOL    HW2  164   1.675   2.813   1.181
  779SOL     OW  165   1.777   2.204   1.642
  779SOL    HW1  166   1.760   2.235   1.548
  779SOL    HW2  167   1.693   2.167   1.680
  780SOL     OW  168   1.730   2.796   1.517
  780SOL    HW1  169   1.768   2.887   1.532
  780SOL    HW2  170   1.722   2.779   1.418
  789SOL     OW  171   1.824   2.054   1.227
  789SOL    HW1  172   1.820   1.964   1.271
  789SOL    HW2  173   1.827   2.043   1.128
  807SOL     OW  174   1.555   3.373   2.565
  807SOL    HW1  175   1.498   3.357   2.646
  807SOL    HW2  176   1.496   3.383   2.485
  808SOL     OW  177   1.135   2.565   2.579
  808SOL    HW1  178   1.192   2.643   2.554
  808SOL    HW2  179   1.075   2.591   2.655
  809SOL     OW  180   1.755   2.469   2.093
  809SOL    HW1  181   1.743   2.456   1.994
  809SOL    HW2  182   1.725   2.388   2.142
  815SOL     OW  183   1.460   3.367   3.201
  815SOL    HW1  184   1.484   3.461   3.227
  815SOL    HW2  185   1.444   3.313   3.283
  817SOL     OW  186   1.603   2.309   2.599
  817SOL    HW1  187   1.529   2.355   2.549
  817SOL    HW2  188   1.654   2.377   2.652
  824SOL     OW  189   1.594   1.976   3.342
  824SOL    HW1  190   1.576   2.043   3.270
  824SOL    HW2  191   1.591   2.022   3.431
  826SOL     OW  192   1.842   3.629   2.221
  826SOL    HW1  193   1.896   3.600   2.301
  826SOL    HW2  194   1.872   3.719   2.192
  828SOL     OW  195   1.689   2.784   2.474
  828SOL    HW1  196   1.784   2.755   2.482
  828SOL    HW2  197   1.681   2.849   2.399
  829SOL     OW  198   1.641   2.970   2.294
  829SOL    HW1  199   1.727   2.972   2.242
  829SOL    HW2  200   1.655   3.017   2.382
  832SOL     OW  201   1.293   3.090   3.285
  832SOL    HW1  202   1.330   3.017   3.227
  832SOL    HW2  203   1.345   3.095   3.370
  835SOL     OW  204   1.525   2.861   2.052
  835SOL    HW1  205   1.462   2.785   2.065
  835SOL    HW2  206   1.573   2.879   2.138
  838SOL     OW  207   1.466   3.279   2.815
  838SOL    HW1  208   1.407   3.285   2.895
  838SOL    HW2  209   1.451   3.191   2.769
  839SOL     OW  210   1.667   3.576   2.434
  839SOL    HW1  211   1.626   3.553   2.346
  839SOL    HW2  212   1.649   3.502   2.499
  841SOL     OW  213   1.281   2.207   2.806
  841SOL    HW1  214   1.195   2.157   2.793
  841SOL    HW2  215   1.343   2.153   2.862
  842SOL     OW  216   1.576   3.524   2.169
  842SOL    HW1  217   1.665   3.570   2.172
  842SOL    HW2  218   1.555   3.500   2.074
  844SOL     OW  219   1.394   2.331   3.536
  844SOL    HW1  220   1.374   2.374   3.624
  844SOL    HW2  221   1.472   2.269   3.545
  846SOL     OW  222   0.991   2.272   3.104
  846SOL    HW1  223   0.914   2.306   3.158
  846SOL    HW2  224   0.957   2.221   3.025
  847SOL     OW  225   1.041   2.563   2.291
  847SOL    HW1  226   1.067   2.559   2.387
  847SOL    HW2  227   0.956   2.512   2.277
  851SOL     OW  228   1.719   2.447   3.693
  851SOL    HW1  229   1.693   2.536   3.657
  851SOL    HW2  230   1.717   2.379   3.620
  852SOL     OW  231   1.362   3.006   2.407
  852SOL    HW1  232   1.445   2.977   2.359
  852SOL    HW2  233   1.313   3.073   2.351
  854SOL     OW  234   1.008   3.318   2.339
  854SOL    HW1  235   0.962   3.390   2.287
  854SOL    HW2  236   1.004   3.338   2.437
  856SOL     OW  237   1.795   2.928   2.735
  856SOL    HW1  238   1.733   2.913   2.659
  856SOL    HW2  239   1.743   2.939   2.820
  857SOL     OW  240   1.227   3.412   3.368
  857SOL    HW1  241   1.233   3.335   3.432
  857SOL    HW2  242   1.175   3.386   3.288
  859SOL     OW  243   1.458   2.597   2.590
  859SOL    HW1  244   1.453   2.532   2.665
  859SOL    HW2  245   1.538   2.656   2.603
  863SOL     OW  246   1.632   3.239   1.943
  863SOL    HW1  247   1.600   3.333   1.933
  863SOL    HW2  248   1.556   3.176   1.931
  865SOL     OW  249   1.400   1.969   2.288
  865SOL    HW1  250   1.376   1.932   2.198
  865SOL    HW2  251   1.499   1.985   2.292
  869SOL     OW  252   1.547   2.084   3.591
  869SOL    HW1  253   1.542   2.121   3.683
  869SOL    HW2  254   1.475   2.015   3.579
  873SOL     OW  255   1.351   2.452   3.295
  873SOL    HW1  256   1.379   2.409   3.380
  873SOL    HW2  257   1.376   2.548   3.296
  875SOL     OW  258   0.922   2.365   2.761
  875SOL    HW1  259   0.897   2.356   2.665
  875SOL    HW2  260   0.970   2.283   2.792
  877SOL     OW  261   1.434   3.050   1.903
  877SOL    HW1  262   1.466   2.974   1.960
  877SOL    HW2  263   1.342   3.077   1.933
  879SOL     OW  264   0.935   2.098   2.342
  879SOL    HW1  265   0.887   2.139   2.264
  879SOL    HW2  266   1.034   2.096   2.323
  880SOL     OW  267   1.076   2.545   3.326
  880SOL    HW1  268   0.996   2.484   3.329
  880SOL    HW2  269   1.157   2.492   3.302
  881SOL     OW  270   1.227   3.432   2.655
  881SOL    HW1  271   1.248   3.506   2.590
  881SOL    HW2  272   1.295   3.432   2.728
  883SOL     OW  273   1.271   3.659   2.453
  883SOL    HW1  274   1.315   3.723   2.389
  883SOL    HW2  275   1.221   3.711   2.523
  884SOL     OW  276   1.032   2.411   1.878
  884SOL    HW1  277   0.991   2.493   1.839
  884SOL    HW2  278   1.096   2.437   1.951
  887SOL     OW  279   0.866   2.316   2.504
  887SOL    HW1  280   0.834   2.388   2.442
  887SOL    HW2  281   0.890   2.235   2.451
  888SOL     OW  282   1.017   1.901   2.615
  888SOL    HW1  283   0.945   1.906   2.546
  888SOL    HW2  284   0.993   1.832   2.684
  889SOL     OW  285   1.429   3.035   2.729
  889SOL    HW1  286   1.374   2.951   2.722
  889SOL    HW2  287   1.455   3.064   2.637
  890SOL     OW  288   1.466   2.452   2.854
  890SOL    HW1  289   1.436   2.357   2.861
  890SOL    HW2  290   1.539   2.468   2.920
  891SOL     OW  291   1.857   2.695   2.239
  891SOL    HW1  292   1.899   2.631   2.303
  891SOL    HW2  293   1.819   2.644   2.161
  893SOL     OW  294   1.664   3.142   2.519
  893SOL    HW1  295   1.763   3.150   2.533
  893SOL    HW2  296   1.619   3.226   2.550
  894SOL     OW  297   1.390   2.437   1.940
  894SOL    HW1  298   1.336   2.416   2.021
  894SOL    HW2  299   1.481   2.396   1.949
  896SOL     OW  300   1.754   3.085   3.450
  896SOL    HW1  301   1.845   3.046   3.437
  896SOL    HW2  302   1.762   3.181   3.474
  897SOL     OW  303   1.064   3.209   3.202
  897SOL    HW1  304   0.984   3.186   3.257
  897SOL    HW2  305   1.147   3.183   3.251
  898SOL     OW  306   1.592   3.491   3.487
  898SOL    HW1  307   1.619   3.525   3.397
  898SOL    HW2  308   1.671   3.453   3.533
  899SOL     OW  309   1.111   3.057   2.962
  899SOL    HW1  310   1.071   3.101   3.043
  899SOL    HW2  311   1.070   3.094   2.879
  900SOL     OW  312   1.638   2.961   2.941
  900SOL    HW1  313   1.643   3.042   3.000
  900SOL    HW2  314   1.552   2.963   2.890
  905SOL     OW  315   1.274   2.248   3.124
  905SOL    HW1  316   1.295   2.322   3.188
  905SOL    HW2  317   1.185   2.265   3.081
  909SOL     OW  318   1.252   3.210   2.250
  909SOL    HW1  319   1.302   3.287   2.290
  909SOL    HW2  320   1.157   3.212   2.282
  910SOL     OW  321   1.272   3.307   3.004
  910SOL    HW1  322   1.319   3.320   3.091
  910SOL    HW2  323   1.206   3.233   3.013
  911SOL     OW  324   1.582   2.501   2.334
  911SOL    HW1  325   1.551   2.562   2.407
  911SOL    HW2  326   1.632   2.553   2.265
  914SOL     OW  327   1.587   2.641   3.532
  914SOL    HW1  328   1.495   2.679   3.527
  914SOL    HW2  329   1.647   2.688   3.467
  918SOL     OW  330   1.360   2.724   2.907
  918SOL    HW1  331   1.285   2.724   2.841
  918SOL    HW2  332   1.397   2.632   2.916
  919SOL     OW  333   1.209   2.387   2.137
  919SOL    HW1  334   1.222   2.303   2.191
  919SOL    HW2  335   1.180   2.461   2.197
  923SOL     OW  336   1.728   2.797   3.716
  923SOL    HW1  337   1.682   2.790   3.627
  923SOL    HW2  338   1.666   2.841   3.782
  925SOL     OW  339   1.622   2.229   2.236
  925SOL    HW1  340   1.624   2.153   2.300
  925SOL    HW2  341   1.574   2.306   2.276
  926SOL     OW  342   1.023   2.628   2.828
  926SOL    HW1  343   1.038   2.649   2.924
  926SOL    HW2  344   0.993   2.533   2.819
  928SOL     OW  345   1.859   3.380   3.467
  928SOL    HW1  346   1.873   3.407   3.372
  928SOL    HW2  347   1.942   3.402   3.520
  930SOL     OW  348   1.540   2.136   1.987
  930SOL    HW1  349   1.479   2.061   2.010
  930SOL    HW2  350   1.562   2.188   2.070
  931SOL     OW  351   1.303   2.700   1.904
  931SOL    HW1  352   1.337   2.607   1.919
  931SOL    HW2  353   1.321   2.727   1.809
  932SOL     OW  354   1.068   3.195   2.711
  932SOL    HW1  355   1.075   3.111   2.656
  932SOL    HW2  356   1.130   3.264   2.675
  935SOL     OW  357   1.138   2.242   3.540
  935SOL    HW1  358   1.093   2.305   3.604
  935SOL    HW2  359   1.231   2.273   3.523
  936SOL     OW  360   1.160   2.069   3.339
  936SOL    HW1  361   1.160   2.133   3.416
  936SOL    HW2  362   1.188   2.117   3.256
  940SOL     OW  363   1.002   2.658   3.100
  940SOL    HW1  364   1.043   2.626   3.186
  940SOL    HW2  365   0.906   2.631   3.097
  943SOL     OW  366   1.369   2.812   3.522
  943SOL    HW1  367   1.408   2.901   3.542
  943SOL    HW2  368   1.379   2.792   3.425
  945SOL     OW  369   1.657   2.466   3.068
  945SOL    HW1  370   1.619   2.397   3.130
  945SOL    HW2  371   1.739   2.430   3.024
  951SOL     OW  372   1.347   2.921   3.096
  951SOL    HW1  373   1.371   2.858   3.022
  951SOL    HW2  374   1.257   2.961   3.078
  952SOL     OW  375   1.302   2.717   2.171
  952SOL    HW1  376   1.216   2.686   2.213
  952SOL    HW2  377   1.298   2.703   2.072
  953SOL     OW  378   1.759   3.609   3.016
  953SOL    HW1  379   1.820   3.639   2.943
  953SOL    HW2  380   1.721   3.520   2.994
  954SOL     OW  381   1.252   3.593   2.990
  954SOL    HW1  382   1.336   3.598   2.936
  954SOL    HW2  383   1.229   3.497   3.008
  957SOL     OW  384   1.726   1.997   2.385
  957SOL    HW1  385   1.799   1.980   2.318
  957SOL    HW2  386   1.695   1.910   2.423
  958SOL     OW  387   1.388   3.435   2.339
  958SOL    HW1  388   1.455   3.447   2.265
  958SOL    HW2  389   1.348   3.524   2.362
  960SOL     OW  390   1.280   2.789   2.534
  960SOL    HW1  391   1.340   2.708   2.536
  960SOL    HW2  392   1.320   2.858   2.474
  963SOL     OW  393   1.650   3.582   3.256
  963SOL    HW1  394   1.703   3.592   3.172
  963SOL    HW2  395   1.623   3.672   3.290
  964SOL     OW  396   1.841   2.037   2.825
  964SOL    HW1  397   1.880   1.952   2.789
  964SOL    HW2  398   1.743   2.039   2.806
  966SOL     OW  399   1.194   3.474   1.893
  966SOL    HW1  400   1.200   3.381   1.930
  966SOL    HW2  401   1.135   3.474   1.813
  968SOL     OW  402   0.916   2.772   2.153
  968SOL    HW1  403   0.979   2.810   2.085
  968SOL    HW2  404   0.956   2.689   2.192
  969SOL     OW  405   1.504   3.469   1.906
  969SOL    HW1  406   1.412   3.506   1.913
  969SOL    HW2  407   1.542   3.489   1.816
  971SOL     OW  408   1.614   3.154   3.151
  971SOL    HW1  409   1.674   3.157   3.231
  971SOL    HW2  410   1.539   3.218   3.164
  972SOL     OW  411   1.039   2.960   2.558
  972SOL    HW1  412   0.969   2.913   2.612
  972SOL    HW2  413   1.098   2.892   2.515
  973SOL     OW  414   1.014   2.098   2.833
  973SOL    HW1  415   1.006   2.062   2.740
  973SOL    HW2  416   1.012   2.022   2.898
  975SOL     OW  417   1.709   2.247   3.243
  975SOL    HW1  418   1.782   2.316   3.247
  975SOL    HW2  419   1.737   2.172   3.184
  980SOL     OW  420   1.440   2.718   3.260
  980SOL    HW1  421   1.383   2.770   3.197
  980SOL    HW2  422   1.536   2.730   3.236
  982SOL     OW  423   1.183   3.197   1.981
  982SOL    HW1  424   1.084   3.186   1.983
  982SOL    HW2  425   1.217   3.212   2.074
  984SOL     OW  426   1.493   3.629   2.821
  984SOL    HW1  427   1.526   3.693   2.752
  984SOL    HW2  428   1.559   3.623   2.896
  986SOL     OW  429   1.450   3.082   3.495
  986SOL    HW1  430   1.441   3.072   3.594
  986SOL    HW2  431   1.546   3.075   3.469
  988SOL     OW  432   1.674   2.745   3.116
  988SOL    HW1  433   1.647   2.656   3.079
  988SOL    HW2  434   1.675   2.813   3.043
  989SOL     OW  435   1.225   2.187   2.311
  989SOL    HW1  436   1.290   2.113   2.300
  989SOL    HW2  437   1.245   2.237   2.395
  991SOL     OW  438   1.777   2.204   3.504
  991SOL    HW1  439   1.760   2.235   3.410
  991SOL    HW2  440   1.693   2.167   3.542
  992SOL     OW  441   1.730   2.796   3.379
  992SOL    HW1  442   1.768   2.887   3.394
  992SOL    HW2  443   1.722   2.779   3.280
  995SOL     OW  444   0.859   2.818   2.723
  995SOL    HW1  445   0.913   2.749   2.771
  995SOL    HW2  446   0.827   2.887   2.789
  996SOL     OW  447   1.083   2.846   1.949
  996SOL    HW1  448   1.060   2.899   1.867
  996SOL    HW2  449   1.164   2.790   1.930
  997SOL     OW  450   1.861   3.431   2.713
  997SOL    HW1  451   1.790   3.419   2.643
  997SOL    HW2  452   1.862   3.352   2.773
 1001SOL     OW  453   1.824   2.054   3.089
 1001SOL    HW1  454   1.820   1.964   3.133
 1001SOL    HW2  455   1.827   2.043   2.990
 1003SOL     OW  456   1.705   3.349   2.966
 1003SOL    HW1  457   1.612   3.324   2.939
 1003SOL    HW2  458   1.731   3.299   3.048
 1006SOL     OW  459   1.424   2.076   2.974
 1006SOL    HW1  460   1.476   2.011   3.029
 1006SOL    HW2  461   1.375   2.139   3.035
 1007SOL     OW  462   1.001   1.896   3.016
 1007SOL    HW1  463   0.938   1.824   2.985
 1007SOL    HW2  464   1.094   1.860   3.016
 1010SOL     OW  465   1.352   1.914   2.030
 1010SOL    HW1  466   1.387   1.873   1.946
 1010SOL    HW2  467   1.262   1.876   2.050
 1011SOL     OW  468   1.300   2.315   2.553
 1011SOL    HW1  469   1.241   2.395   2.557
 1011SOL    HW2  470   1.315   2.280   2.646
 1012SOL     OW  471   1.593   2.083   2.744
 1012SOL    HW1  472   1.509   2.082   2.798
 1012SOL    HW2  473   1.595   2.166   2.688
 1021SOL     OW  474   1.755   2.469   3.955
 1021SOL    HW1  475   1.743   2.456   3.856
 1021SOL    HW2  476   1.725   2.388   4.004
 1040SOL     OW  477   1.525   2.861   3.914
 1040SOL    HW1  478   1.462   2.785   3.927
 1040SOL    HW2  479   1.573   2.879   4.000
 1060SOL     OW  480   1.632   3.239   3.805
 1060SOL    HW1  481   1.600   3.333   3.795
 1060SOL    HW2  482   1.556   3.176   3.793
 1071SOL     OW  483   1.434   3.050   3.765
 1071SOL    HW1  484   1.466   2.974   3.822
 1071SOL    HW2  485   1.342   3.077   3.795
 1083SOL     OW  486   1.857   2.695   4.101
 1083SOL    HW1  487   1.899   2.631   4.165
 1083SOL    HW2  488   1.819   2.644   4.023
 1086SOL     OW  489   1.390   2.437   3.802
 1086SOL    HW1  490   1.336   2.416   3.883
 1086SOL    HW2  491   1.481   2.396   3.811
 1112SOL     OW  492   1.540   2.136   3.849
 1112SOL    HW1  493   1.479   2.061   3.872
 1112SOL    HW2  494   1.562   2.188   3.932
 1113SOL     OW  495   1.303   2.700   3.766
 1113SOL    HW1  496   1.337   2.607   3.781
 1113SOL    HW2  497   1.321   2.727   3.671
 1364SOL     OW  498   1.594   3.838   3.342
 1364SOL    HW1  499   1.576   3.905   3.270
 1364SOL    HW2  500   1.591   3.884   3.431
 1395SOL     OW  501   1.400   3.831   2.288
 1395SOL    HW1  502   1.376   3.794   2.198
 1395SOL    HW2  503   1.499   3.847   2.292
 1470SOL     OW  504   1.726   3.859   2.385
 1470SOL    HW1  505   1.799   3.842   2.318
 1470SOL    HW2  506   1.695   3.772   2.423
 1473SOL     OW  507   1.841   3.899   2.825
 1473SOL    HW1  508   1.880   3.814   2.789
 1473SOL    HW2  509   1.743   3.901   2.806
 1502SOL     OW  510   1.824   3.916   3.089
 1502SOL    HW1  511   1.820   3.826   3.133
 1502SOL    HW2  512   1.827   3.905   2.990
 1511SOL     OW  513   1.593   3.945   2.744
 1511SOL    HW1  514   1.509   3.944   2.798
 1511SOL    HW2  515   1.595   4.028   2.688
 1656SOL     OW  516   2.548   1.161   1.803
 1656SOL    HW1  517   2.608   1.240   1.817
 1656SOL    HW2  518   2.462   1.192   1.762
 1662SOL     OW  519   2.989   1.341   1.690
 1662SOL    HW1  520   3.036   1.341   1.778
 1662SOL    HW2  521   2.941   1.254   1.679
 1665SOL     OW  522   2.482   1.786   1.439
 1665SOL    HW1  523   2.390   1.769   1.474
 1665SOL    HW2  524   2.510   1.878   1.465
 1679SOL     OW  525   3.049   1.792   1.616
 1679SOL    HW1  526   3.073   1.852   1.540
 1679SOL    HW2  527   3.056   1.697   1.586
 1692SOL     OW  528   1.992   1.821   1.571
 1692SOL    HW1  529   1.982   1.806   1.670
 1692SOL    HW2  530   1.906   1.857   1.535
 1700SOL     OW  531   3.089   1.550   1.506
 1700SOL    HW1  532   3.095   1.473   1.570
 1700SOL    HW2  533   3.037   1.524   1.426
 1703SOL     OW  534   2.323   1.266   1.727
 1703SOL    HW1  535   2.273   1.267   1.641
 1703SOL    HW2  536   2.260   1.248   1.803
 1709SOL     OW  537   2.111   1.785   1.241
 1709SOL    HW1  538   2.168   1.720   1.291
 1709SOL    HW2  539   2.095   1.752   1.148
 1715SOL     OW  540   2.750   1.514   1.195
 1715SOL    HW1  541   2.727   1.489   1.101
 1715SOL    HW2  542   2.811   1.445   1.234
 1741SOL     OW  543   3.454   1.629   1.625
 1741SOL    HW1  544   3.481   1.663   1.535
 1741SOL    HW2  545   3.533   1.591   1.671
 1745SOL     OW  546   2.842   1.116   1.719
 1745SOL    HW1  547   2.743   1.122   1.729
 1745SOL    HW2  548   2.865   1.036   1.663
 1749SOL     OW  549   1.926   1.564   1.331
 1749SOL    HW1  550   1.880   1.646   1.297
 1749SOL    HW2  551   2.024   1.583   1.340
 1755SOL     OW  552   2.216   1.510   1.329
 1755SOL    HW1  553   2.195   1.466   1.242
 1755SOL    HW2  554   2.313   1.536   1.332
 1770SOL     OW  555   2.842   1.573   1.700
 1770SOL    HW1  556   2.822   1.617   1.612
 1770SOL    HW2  557   2.881   1.482   1.684
 1788SOL     OW  558   2.114   1.564   1.744
 1788SOL    HW1  559   2.084   1.621   1.820
 1788SOL    HW2  560   2.107   1.467   1.770
 1790SOL     OW  561   2.792   1.678   1.465
 1790SOL    HW1  562   2.768   1.660   1.370
 1790SOL    HW2  563   2.822   1.772   1.475
 1796SOL     OW  564   3.114   1.731   1.128
 1796SOL    HW1  565   3.198   1.736   1.074
 1796SOL    HW2  566   3.091   1.635   1.146
 1798SOL     OW  567   2.550   1.662   1.716
 1798SOL    HW1  568   2.494   1.743   1.725
 1798SOL    HW2  569   2.602   1.666   1.630
 1802SOL     OW  570   1.992   1.794   1.851
 1802SOL    HW1  571   1.951   1.720   1.904
 1802SOL    HW2  572   2.056   1.845   1.909
 1804SOL     OW  573   2.692   1.273   1.422
 1804SOL    HW1  574   2.687   1.306   1.517
 1804SOL    HW2  575   2.606   1.292   1.376
 1806SOL     OW  576   3.512   1.720   1.394
 1806SOL    HW1  577   3.565   1.730   1.310
 1806SOL    HW2  578   3.485   1.810   1.428
 1813SOL     OW  579   2.234   1.288   1.490
 1813SOL    HW1  580   2.221   1.381   1.456
 1813SOL    HW2  581   2.150   1.236   1.477
 1830SOL     OW  582   2.252   1.741   1.560
 1830SOL    HW1  583   2.161   1.782   1.558
 1830SOL    HW2  584   2.245   1.647   1.592
 1841SOL     OW  585   2.083   1.314   1.844
 1841SOL    HW1  586   2.018   1.241   1.823
 1841SOL    HW2  587   2.087   1.328   1.942
 1843SOL     OW  588   2.534   1.391   1.624
 1843SOL    HW1  589   2.456   1.341   1.662
 1843SOL    HW2  590   2.531   1.486   1.655
 1852SOL     OW  591   2.480   1.567   1.284
 1852SOL    HW1  592   2.475   1.649   1.341
 1852SOL    HW2  593   2.569   1.564   1.239
 1861SOL     OW  594   2.431   1.275   3.027
 1861SOL    HW1  595   2.338   1.268   2.990
 1861SOL    HW2  596   2.442   1.364   3.071
 1862SOL     OW  597   3.417   1.511   2.565
 1862SOL    HW1  598   3.360   1.495   2.646
 1862SOL    HW2  599   3.358   1.521   2.485
 1865SOL     OW  600   2.630   1.144   2.885
 1865SOL    HW1  601   2.552   1.161   2.945
 1865SOL    HW2  602   2.664   1.231   2.849
 1867SOL     OW  603   2.547   1.012   2.527
 1867SOL    HW1  604   2.616   0.996   2.597
 1867SOL    HW2  605   2.474   1.069   2.565
 1868SOL     OW  606   2.548   1.161   3.665
 1868SOL    HW1  607   2.608   1.240   3.679
 1868SOL    HW2  608   2.462   1.192   3.624
 1869SOL     OW  609   2.197   1.435   2.923
 1869SOL    HW1  610   2.119   1.404   2.870
 1869SOL    HW2  611   2.255   1.493   2.866
 1870SOL     OW  612   3.322   1.505   3.201
 1870SOL    HW1  613   3.346   1.599   3.227
 1870SOL    HW2  614   3.306   1.451   3.283
 1873SOL     OW  615   2.093   1.713   2.345
 1873SOL    HW1  616   2.127   1.790   2.399
 1873SOL    HW2  617   2.137   1.713   2.255
 1874SOL     OW  618   2.989   1.341   3.552
 1874SOL    HW1  619   3.036   1.341   3.640
 1874SOL    HW2  620   2.941   1.254   3.541
 1875SOL     OW  621   2.092   1.434   2.400
 1875SOL    HW1  622   2.066   1.530   2.400
 1875SOL    HW2  623   2.021   1.380   2.445
 1876SOL     OW  624   2.102   1.091   2.748
 1876SOL    HW1  625   2.116   1.007   2.800
 1876SOL    HW2  626   2.047   1.155   2.803
 1877SOL     OW  627   2.482   1.786   3.301
 1877SOL    HW1  628   2.390   1.769   3.336
 1877SOL    HW2  629   2.510   1.878   3.327
 1878SOL     OW  630   2.468   0.964   1.985
 1878SOL    HW1  631   2.475   1.048   1.931
 1878SOL    HW2  632   2.514   0.977   2.073
 1881SOL     OW  633   3.704   1.767   2.221
 1881SOL    HW1  634   3.758   1.738   2.301
 1881SOL    HW2  635   3.734   1.857   2.192
 1882SOL     OW  636   1.889   1.596   1.979
 1882SOL    HW1  637   1.870   1.500   2.000
 1882SOL    HW2  638   1.856   1.654   2.054
 1884SOL     OW  639   3.503   1.108   2.294
 1884SOL    HW1  640   3.589   1.110   2.242
 1884SOL    HW2  641   3.517   1.155   2.382
 1886SOL     OW  642   2.475   1.365   2.588
 1886SOL    HW1  643   2.426   1.278   2.597
 1886SOL    HW2  644   2.452   1.408   2.501
 1887SOL     OW  645   3.155   1.228   3.285
 1887SOL    HW1  646   3.192   1.155   3.227
 1887SOL    HW2  647   3.207   1.233   3.370
 1889SOL     OW  648   2.059   0.976   3.126
 1889SOL    HW1  649   2.148   0.931   3.112
 1889SOL    HW2  650   1.986   0.911   3.107
 1891SOL     OW  651   3.049   1.792   3.478
 1891SOL    HW1  652   3.073   1.852   3.402
 1891SOL    HW2  653   3.056   1.697   3.448
 1893SOL     OW  654   3.328   1.417   2.815
 1893SOL    HW1  655   3.269   1.423   2.895
 1893SOL    HW2  656   3.313   1.329   2.769
 1894SOL     OW  657   3.529   1.714   2.434
 1894SOL    HW1  658   3.488   1.691   2.346
 1894SOL    HW2  659   3.511   1.640   2.499
 1897SOL     OW  660   3.438   1.662   2.169
 1897SOL    HW1  661   3.527   1.708   2.172
 1897SOL    HW2  662   3.417   1.638   2.074
 1904SOL     OW  663   1.992   1.821   3.433
 1904SOL    HW1  664   1.982   1.806   3.532
 1904SOL    HW2  665   1.906   1.857   3.397
 1907SOL     OW  666   3.224   1.144   2.407
 1907SOL    HW1  667   3.307   1.115   2.359
 1907SOL    HW2  668   3.175   1.211   2.351
 1909SOL     OW  669   2.870   1.456   2.339
 1909SOL    HW1  670   2.824   1.528   2.287
 1909SOL    HW2  671   2.866   1.476   2.437
 1910SOL     OW  672   2.213   1.801   2.715
 1910SOL    HW1  673   2.263   1.715   2.721
 1910SOL    HW2  674   2.278   1.878   2.712
 1912SOL     OW  675   3.089   1.550   3.368
 1912SOL    HW1  676   3.095   1.473   3.432
 1912SOL    HW2  677   3.037   1.524   3.288
 1913SOL     OW  678   2.183   0.943   2.104
 1913SOL    HW1  679   2.265   0.982   2.062
 1913SOL    HW2  680   2.156   0.861   2.055
 1915SOL     OW  681   2.323   1.266   3.589
 1915SOL    HW1  682   2.273   1.267   3.503
 1915SOL    HW2  683   2.260   1.248   3.665
 1916SOL     OW  684   2.973   1.776   2.099
 1916SOL    HW1  685   2.913   1.714   2.149
 1916SOL    HW2  686   3.004   1.732   2.014
 1918SOL     OW  687   3.494   1.377   1.943
 1918SOL    HW1  688   3.462   1.471   1.933
 1918SOL    HW2  689   3.418   1.314   1.931
 1919SOL     OW  690   2.326   1.743   2.185
 1919SOL    HW1  691   2.359   1.782   2.271
 1919SOL    HW2  692   2.402   1.736   2.120
 1921SOL     OW  693   2.111   1.785   3.103
 1921SOL    HW1  694   2.168   1.720   3.153
 1921SOL    HW2  695   2.095   1.752   3.010
 1922SOL     OW  696   2.802   1.698   2.766
 1922SOL    HW1  697   2.882   1.641   2.787
 1922SOL    HW2  698   2.753   1.658   2.689
 1927SOL     OW  699   2.750   1.514   3.057
 1927SOL    HW1  700   2.727   1.489   2.963
 1927SOL    HW2  701   2.811   1.445   3.096
 1929SOL     OW  702   2.665   1.402   2.786
 1929SOL    HW1  703   2.755   1.416   2.744
 1929SOL    HW2  704   2.594   1.404   2.715
 1932SOL     OW  705   3.296   1.188   1.903
 1932SOL    HW1  706   3.328   1.112   1.960
 1932SOL    HW2  707   3.204   1.215   1.933
 1936SOL     OW  708   3.089   1.570   2.655
 1936SOL    HW1  709   3.110   1.644   2.590
 1936SOL    HW2  710   3.157   1.570   2.728
 1937SOL     OW  711   2.321   1.152   2.603
 1937SOL    HW1  712   2.250   1.125   2.668
 1937SOL    HW2  713   2.295   1.124   2.510
 1938SOL     OW  714   3.133   1.797   2.453
 1938SOL    HW1  715   3.177   1.861   2.389
 1938SOL    HW2  716   3.083   1.849   2.523
 1944SOL     OW  717   3.291   1.173   2.729
 1944SOL    HW1  718   3.236   1.089   2.722
 1944SOL    HW2  719   3.317   1.202   2.637
 1947SOL     OW  720   2.350   1.385   2.036
 1947SOL    HW1  721   2.263   1.370   2.083
 1947SOL    HW2  722   2.333   1.411   1.941
 1948SOL     OW  723   3.526   1.280   2.519
 1948SOL    HW1  724   3.625   1.288   2.533
 1948SOL    HW2  725   3.481   1.364   2.550
 1952SOL     OW  726   2.926   1.347   3.202
 1952SOL    HW1  727   2.846   1.324   3.257
 1952SOL    HW2  728   3.009   1.321   3.251
 1953SOL     OW  729   3.454   1.629   3.487
 1953SOL    HW1  730   3.481   1.663   3.397
 1953SOL    HW2  731   3.533   1.591   3.533
 1954SOL     OW  732   2.973   1.195   2.962
 1954SOL    HW1  733   2.933   1.239   3.043
 1954SOL    HW2  734   2.932   1.232   2.879
 1955SOL     OW  735   3.500   1.099   2.941
 1955SOL    HW1  736   3.505   1.180   3.000
 1955SOL    HW2  737   3.414   1.101   2.890
 1957SOL     OW  738   2.842   1.116   3.581
 1957SOL    HW1  739   2.743   1.122   3.591
 1957SOL    HW2  740   2.865   1.036   3.525
 1958SOL     OW  741   2.567   1.050   2.230
 1958SOL    HW1  742   2.553   1.057   2.329
 1958SOL    HW2  743   2.651   0.999   2.212
 1961SOL     OW  744   1.926   1.564   3.193
 1961SOL    HW1  745   1.880   1.646   3.159
 1961SOL    HW2  746   2.024   1.583   3.202
 1962SOL     OW  747   2.229   1.100   2.363
 1962SOL    HW1  748   2.222   1.183   2.307
 1962SOL    HW2  749   2.233   1.020   2.303
 1964SOL     OW  750   3.114   1.348   2.250
 1964SOL    HW1  751   3.164   1.425   2.290
 1964SOL    HW2  752   3.019   1.350   2.282
 1965SOL     OW  753   3.134   1.445   3.004
 1965SOL    HW1  754   3.181   1.458   3.091
 1965SOL    HW2  755   3.068   1.371   3.013
 1967SOL     OW  756   2.216   1.510   3.191
 1967SOL    HW1  757   2.195   1.466   3.104
 1967SOL    HW2  758   2.313   1.536   3.194
 1972SOL     OW  759   2.435   0.870   2.891
 1972SOL    HW1  760   2.479   0.959   2.882
 1972SOL    HW2  761   2.372   0.870   2.968
 1976SOL     OW  762   1.899   1.310   3.144
 1976SOL    HW1  763   1.952   1.261   3.212
 1976SOL    HW2  764   1.921   1.408   3.149
 1982SOL     OW  765   2.842   1.573   3.562
 1982SOL    HW1  766   2.822   1.617   3.474
 1982SOL    HW2  767   2.881   1.482   3.546
 1983SOL     OW  768   3.721   1.518   3.467
 1983SOL    HW1  769   3.735   1.545   3.372
 1983SOL    HW2  770   3.804   1.540   3.520
 1987SOL     OW  771   2.930   1.333   2.711
 1987SOL    HW1  772   2.937   1.249   2.656
 1987SOL    HW2  773   2.992   1.402   2.675
 1992SOL     OW  774   1.870   1.326   2.062
 1992SOL    HW1  775   1.777   1.347   2.031
 1992SOL    HW2  776   1.880   1.227   2.075
 1993SOL     OW  777   1.950   1.801   2.789
 1993SOL    HW1  778   1.908   1.715   2.762
 1993SOL    HW2  779   2.044   1.804   2.755
 1994SOL     OW  780   2.366   1.568   2.772
 1994SOL    HW1  781   2.432   1.642   2.781
 1994SOL    HW2  782   2.410   1.489   2.730
 2001SOL     OW  783   2.114   1.564   3.606
 2001SOL    HW1  784   2.084   1.621   3.682
 2001SOL    HW2  785   2.107   1.467   3.632
 2003SOL     OW  786   2.792   1.678   3.327
 2003SOL    HW1  787   2.768   1.660   3.232
 2003SOL    HW2  788   2.822   1.772   3.337
 2005SOL     OW  789   2.021   1.137   3.328
 2005SOL    HW1  790   2.043   1.076   3.404
 2005SOL    HW2  791   2.031   1.088   3.242
 2006SOL     OW  792   3.209   1.059   3.096
 2006SOL    HW1  793   3.233   0.996   3.022
 2006SOL    HW2  794   3.119   1.099   3.078
 2008SOL     OW  795   3.621   1.747   3.016
 2008SOL    HW1  796   3.682   1.777   2.943
 2008SOL    HW2  797   3.583   1.658   2.994
 2009SOL     OW  798   3.114   1.731   2.990
 2009SOL    HW1  799   3.198   1.736   2.936
 2009SOL    HW2  800   3.091   1.635   3.008
 2010SOL     OW  801   1.945   1.258   2.884
 2010SOL    HW1  802   1.940   1.257   2.984
 2010SOL    HW2  803   1.862   1.217   2.846
 2011SOL     OW  804   2.550   1.662   3.578
 2011SOL    HW1  805   2.494   1.743   3.587
 2011SOL    HW2  806   2.602   1.666   3.492
 2013SOL     OW  807   3.250   1.573   2.339
 2013SOL    HW1  808   3.317   1.585   2.265
 2013SOL    HW2  809   3.210   1.662   2.362
 2014SOL     OW  810   1.992   1.794   3.713
 2014SOL    HW1  811   1.951   1.720   3.766
 2014SOL    HW2  812   2.056   1.845   3.771
 2015SOL     OW  813   3.142   0.927   2.534
 2015SOL    HW1  814   3.202   0.846   2.536
 2015SOL    HW2  815   3.182   0.996   2.474
 2016SOL     OW  816   2.692   1.273   3.284
 2016SOL    HW1  817   2.687   1.306   3.379
 2016SOL    HW2  818   2.606   1.292   3.238
 2017SOL     OW  819   2.534   1.616   2.016
 2017SOL    HW1  820   2.543   1.626   1.917
 2017SOL    HW2  821   2.494   1.527   2.037
 2018SOL     OW  822   3.512   1.720   3.256
 2018SOL    HW1  823   3.565   1.730   3.172
 2018SOL    HW2  824   3.485   1.810   3.290
 2021SOL     OW  825   3.056   1.612   1.893
 2021SOL    HW1  826   3.062   1.519   1.930
 2021SOL    HW2  827   2.997   1.612   1.813
 2022SOL     OW  828   2.684   1.002   3.234
 2022SOL    HW1  829   2.724   1.001   3.142
 2022SOL    HW2  830   2.694   1.094   3.274
 2023SOL     OW  831   2.778   0.910   2.153
 2023SOL    HW1  832   2.841   0.948   2.085
 2023SOL    HW2  833   2.818   0.827   2.192
 2024SOL     OW  834   3.366   1.607   1.906
 2024SOL    HW1  835   3.274   1.644   1.913
 2024SOL    HW2  836   3.404   1.627   1.816
 2025SOL     OW  837   2.234   1.288   3.352
 2025SOL    HW1  838   2.221   1.381   3.318
 2025SOL    HW2  839   2.150   1.236   3.339
 2026SOL     OW  840   3.476   1.292   3.151
 2026SOL    HW1  841   3.536   1.295   3.231
 2026SOL    HW2  842   3.401   1.356   3.164
 2027SOL     OW  843   2.901   1.098   2.558
 2027SOL    HW1  844   2.831   1.051   2.612
 2027SOL    HW2  845   2.960   1.030   2.515
 2029SOL     OW  846   2.452   1.487   2.353
 2029SOL    HW1  847   2.494   1.429   2.283
 2029SOL    HW2  848   2.408   1.566   2.309
 2031SOL     OW  849   2.117   1.348   2.152
 2031SOL    HW1  850   2.021   1.349   2.125
 2031SOL    HW2  851   2.129   1.401   2.236
 2037SOL     OW  852   3.045   1.335   1.981
 2037SOL    HW1  853   2.946   1.324   1.983
 2037SOL    HW2  854   3.079   1.350   2.074
 2039SOL     OW  855   3.355   1.767   2.821
 2039SOL    HW1  856   3.388   1.831   2.752
 2039SOL    HW2  857   3.421   1.761   2.896
 2041SOL     OW  858   3.312   1.220   3.495
 2041SOL    HW1  859   3.303   1.210   3.594
 2041SOL    HW2  860   3.408   1.213   3.469
 2042SOL     OW  861   2.252   1.741   3.422
 2042SOL    HW1  862   2.161   1.782   3.420
 2042SOL    HW2  863   2.245   1.647   3.454
 2048SOL     OW  864   2.721   1.374   1.878
 2048SOL    HW1  865   2.675   1.389   1.966
 2048SOL    HW2  866   2.765   1.459   1.848
 2049SOL     OW  867   2.523   1.790   2.815
 2049SOL    HW1  868   2.477   1.878   2.802
 2049SOL    HW2  869   2.622   1.802   2.808
 2050SOL     OW  870   2.721   0.956   2.723
 2050SOL    HW1  871   2.775   0.887   2.771
 2050SOL    HW2  872   2.689   1.025   2.789
 2051SOL     OW  873   2.945   0.984   1.949
 2051SOL    HW1  874   2.922   1.037   1.867
 2051SOL    HW2  875   3.026   0.928   1.930
 2052SOL     OW  876   3.723   1.569   2.713
 2052SOL    HW1  877   3.652   1.557   2.643
 2052SOL    HW2  878   3.724   1.490   2.773
 2053SOL     OW  879   2.083   1.314   3.706
 2053SOL    HW1  880   2.018   1.241   3.685
 2053SOL    HW2  881   2.087   1.328   3.804
 2054SOL     OW  882   1.941   1.240   2.515
 2054SOL    HW1  883   1.940   1.193   2.603
 2054SOL    HW2  884   2.023   1.212   2.464
 2055SOL     OW  885   2.534   1.391   3.486
 2055SOL    HW1  886   2.456   1.341   3.524
 2055SOL    HW2  887   2.531   1.486   3.517
 2058SOL     OW  888   3.567   1.487   2.966
 2058SOL    HW1  889   3.474   1.462   2.939
 2058SOL    HW2  890   3.593   1.437   3.048
 2060SOL     OW  891   2.674   1.586   2.549
 2060SOL    HW1  892   2.706   1.596   2.455
 2060SOL    HW2  893   2.595   1.524   2.551
 2063SOL     OW  894   2.632   1.330   2.163
 2063SOL    HW1  895   2.586   1.243   2.180
 2063SOL    HW2  896   2.723   1.327   2.204
 2064SOL     OW  897   2.480   1.567   3.146
 2064SOL    HW1  898   2.475   1.649   3.203
 2064SOL    HW2  899   2.569   1.564   3.101
 2068SOL     OW  900   1.901   1.077   2.162
 2068SOL    HW1  901   2.000   1.066   2.153
 2068SOL    HW2  902   1.861   0.991   2.194
 2069SOL     OW  903   2.737   1.646   2.199
 2069SOL    HW1  904   2.660   1.611   2.145
 2069SOL    HW2  905   2.705   1.717   2.261
 2089SOL     OW  906   1.889   1.596   3.841
 2089SOL    HW1  907   1.870   1.500   3.862
 2089SOL    HW2  908   1.856   1.654   3.916
 2114SOL     OW  909   2.973   1.776   3.961
 2114SOL    HW1  910   2.913   1.714   4.011
 2114SOL    HW2  911   3.004   1.732   3.876
 2116SOL     OW  912   2.326   1.743   4.047
 2116SOL    HW1  913   2.359   1.782   4.133
 2116SOL    HW2  914   2.402   1.736   3.982
 2139SOL     OW  915   2.350   1.385   3.898
 2139SOL    HW1  916   2.263   1.370   3.945
 2139SOL    HW2  917   2.333   1.411   3.803
 2191SOL     OW  918   2.534   1.616   3.878
 2191SOL    HW1  919   2.543   1.626   3.779
 2191SOL    HW2  920   2.494   1.527   3.899
 2194SOL     OW  921   3.056   1.612   3.755
 2194SOL    HW1  922   3.062   1.519   3.792
 2194SOL    HW2  923   2.997   1.612   3.675
 2197SOL     OW  924   3.366   1.607   3.768
 2197SOL    HW1  925   3.274   1.644   3.775
 2197SOL    HW2  926   3.404   1.627   3.678
 2215SOL     OW  927   2.721   1.374   3.740
 2215SOL    HW1  928   2.675   1.389   3.828
 2215SOL    HW2  929   2.765   1.459   3.710
 2234SOL     OW  930   2.737   1.646   4.061
 2234SOL    HW1  931   2.660   1.611   4.007
 2234SOL    HW2  932   2.705   1.717   4.123
 2236SOL     OW  933   2.087   2.137   0.996
 2236SOL    HW1  934   2.122   2.120   1.088
 2236SOL    HW2  935   1.999   2.092   0.984
 2238SOL     OW  936   2.431   3.137   1.165
 2238SOL    HW1  937   2.338   3.130   1.128
 2238SOL    HW2  938   2.442   3.226   1.209
 2242SOL     OW  939   2.630   3.006   1.023
 2242SOL    HW1  940   2.552   3.023   1.083
 2242SOL    HW2  941   2.664   3.093   0.987
 2243SOL     OW  942   2.712   2.660   1.823
 2243SOL    HW1  943   2.708   2.736   1.888
 2243SOL    HW2  944   2.734   2.696   1.732
 2245SOL     OW  945   2.548   3.023   1.803
 2245SOL    HW1  946   2.608   3.102   1.817
 2245SOL    HW2  947   2.462   3.054   1.762
 2246SOL     OW  948   2.197   3.297   1.061
 2246SOL    HW1  949   2.119   3.266   1.008
 2246SOL    HW2  950   2.255   3.355   1.004
 2247SOL     OW  951   3.322   3.367   1.339
 2247SOL    HW1  952   3.346   3.461   1.365
 2247SOL    HW2  953   3.306   3.313   1.421
 2248SOL     OW  954   2.300   2.254   1.499
 2248SOL    HW1  955   2.382   2.198   1.508
 2248SOL    HW2  956   2.219   2.196   1.503
 2251SOL     OW  957   2.989   3.203   1.690
 2251SOL    HW1  958   3.036   3.203   1.778
 2251SOL    HW2  959   2.941   3.116   1.679
 2254SOL     OW  960   2.482   3.648   1.439
 2254SOL    HW1  961   2.390   3.631   1.474
 2254SOL    HW2  962   2.510   3.740   1.465
 2256SOL     OW  963   3.456   1.976   1.480
 2256SOL    HW1  964   3.438   2.043   1.408
 2256SOL    HW2  965   3.453   2.022   1.569
 2262SOL     OW  966   1.975   2.599   1.597
 2262SOL    HW1  967   2.063   2.586   1.642
 2262SOL    HW2  968   1.962   2.696   1.575
 2264SOL     OW  969   3.155   3.090   1.423
 2264SOL    HW1  970   3.192   3.017   1.365
 2264SOL    HW2  971   3.207   3.095   1.508
 2266SOL     OW  972   2.059   2.838   1.264
 2266SOL    HW1  973   2.148   2.793   1.250
 2266SOL    HW2  974   1.986   2.773   1.245
 2268SOL     OW  975   3.049   3.654   1.616
 2268SOL    HW1  976   3.073   3.714   1.540
 2268SOL    HW2  977   3.056   3.559   1.586
 2269SOL     OW  978   2.179   2.113   1.801
 2269SOL    HW1  979   2.250   2.184   1.807
 2269SOL    HW2  980   2.091   2.152   1.829
 2273SOL     OW  981   3.143   2.207   0.944
 2273SOL    HW1  982   3.057   2.157   0.931
 2273SOL    HW2  983   3.205   2.153   1.000
 2275SOL     OW  984   2.669   2.467   1.465
 2275SOL    HW1  985   2.622   2.464   1.554
 2275SOL    HW2  986   2.618   2.412   1.399
 2276SOL     OW  987   3.256   2.331   1.674
 2276SOL    HW1  988   3.236   2.374   1.762
 2276SOL    HW2  989   3.334   2.269   1.683
 2277SOL     OW  990   2.835   2.752   1.572
 2277SOL    HW1  991   2.881   2.668   1.543
 2277SOL    HW2  992   2.779   2.786   1.497
 2278SOL     OW  993   2.853   2.272   1.242
 2278SOL    HW1  994   2.776   2.306   1.296
 2278SOL    HW2  995   2.819   2.221   1.163
 2281SOL     OW  996   1.992   3.683   1.571
 2281SOL    HW1  997   1.982   3.668   1.670
 2281SOL    HW2  998   1.906   3.719   1.535
 2283SOL     OW  999   3.581   2.447   1.831
 2283SOL    HW1 1000   3.555   2.536   1.795
 2283SOL    HW2 1001   3.579   2.379   1.758
 2289SOL     OW 1002   3.089   3.412   1.506
 2289SOL    HW1 1003   3.095   3.335   1.570
 2289SOL    HW2 1004   3.037   3.386   1.426
 2292SOL     OW 1005   2.323   3.128   1.727
 2292SOL    HW1 1006   2.273   3.129   1.641
 2292SOL    HW2 1007   2.260   3.110   1.803
 2294SOL     OW 1008   2.064   2.147   1.498
 2294SOL    HW1 1009   1.984   2.207   1.485
 2294SOL    HW2 1010   2.054   2.098   1.584
 2298SOL     OW 1011   2.111   3.647   1.241
 2298SOL    HW1 1012   2.168   3.582   1.291
 2298SOL    HW2 1013   2.095   3.614   1.148
 2301SOL     OW 1014   3.409   2.084   1.729
 2301SOL    HW1 1015   3.404   2.121   1.821
 2301SOL    HW2 1016   3.337   2.015   1.717
 2302SOL     OW 1017   2.643   2.126   1.749
 2302SOL    HW1 1018   2.710   2.065   1.792
 2302SOL    HW2 1019   2.570   2.145   1.814
 2303SOL     OW 1020   2.750   3.376   1.195
 2303SOL    HW1 1021   2.727   3.351   1.101
 2303SOL    HW2 1022   2.811   3.307   1.234
 2304SOL     OW 1023   3.213   2.452   1.433
 2304SOL    HW1 1024   3.241   2.409   1.518
 2304SOL    HW2 1025   3.238   2.548   1.434
 2306SOL     OW 1026   2.784   2.365   0.899
 2306SOL    HW1 1027   2.759   2.356   0.803
 2306SOL    HW2 1028   2.832   2.283   0.930
 2310SOL     OW 1029   2.938   2.545   1.464
 2310SOL    HW1 1030   2.858   2.484   1.467
 2310SOL    HW2 1031   3.019   2.492   1.440
 2315SOL     OW 1032   1.940   2.418   1.386
 2315SOL    HW1 1033   2.032   2.417   1.345
 2315SOL    HW2 1034   1.934   2.492   1.453
 2316SOL     OW 1035   2.423   2.084   1.147
 2316SOL    HW1 1036   2.461   2.000   1.184
 2316SOL    HW2 1037   2.335   2.103   1.191
 2320SOL     OW 1038   3.328   2.452   0.992
 2320SOL    HW1 1039   3.298   2.357   0.999
 2320SOL    HW2 1040   3.401   2.468   1.058
 2326SOL     OW 1041   3.616   3.085   1.588
 2326SOL    HW1 1042   3.707   3.046   1.575
 2326SOL    HW2 1043   3.624   3.181   1.612
 2327SOL     OW 1044   2.926   3.209   1.340
 2327SOL    HW1 1045   2.846   3.186   1.395
 2327SOL    HW2 1046   3.009   3.183   1.389
 2328SOL     OW 1047   3.454   3.491   1.625
 2328SOL    HW1 1048   3.481   3.525   1.535
 2328SOL    HW2 1049   3.533   3.453   1.671
 2329SOL     OW 1050   2.973   3.057   1.100
 2329SOL    HW1 1051   2.933   3.101   1.181
 2329SOL    HW2 1052   2.932   3.094   1.017
 2331SOL     OW 1053   2.777   1.951   1.402
 2331SOL    HW1 1054   2.802   1.931   1.307
 2331SOL    HW2 1055   2.849   2.007   1.444
 2332SOL     OW 1056   2.842   2.978   1.719
 2332SOL    HW1 1057   2.743   2.984   1.729
 2332SOL    HW2 1058   2.865   2.898   1.663
 2334SOL     OW 1059   2.272   2.675   1.251
 2334SOL    HW1 1060   2.358   2.687   1.301
 2334SOL    HW2 1061   2.230   2.588   1.278
 2335SOL     OW 1062   3.136   2.248   1.262
 2335SOL    HW1 1063   3.157   2.322   1.326
 2335SOL    HW2 1064   3.047   2.265   1.219
 2336SOL     OW 1065   1.926   3.426   1.331
 2336SOL    HW1 1066   1.880   3.508   1.297
 2336SOL    HW2 1067   2.024   3.445   1.340
 2338SOL     OW 1068   2.428   2.399   0.865
 2338SOL    HW1 1069   2.440   2.465   0.791
 2338SOL    HW2 1070   2.474   2.433   0.948
 2340SOL     OW 1071   3.134   3.307   1.142
 2340SOL    HW1 1072   3.181   3.320   1.229
 2340SOL    HW2 1073   3.068   3.233   1.151
 2342SOL     OW 1074   2.216   3.372   1.329
 2342SOL    HW1 1075   2.195   3.328   1.242
 2342SOL    HW2 1076   2.313   3.398   1.332
 2343SOL     OW 1077   2.264   2.613   1.598
 2343SOL    HW1 1078   2.332   2.668   1.551
 2343SOL    HW2 1079   2.304   2.525   1.625
 2344SOL     OW 1080   3.449   2.641   1.670
 2344SOL    HW1 1081   3.357   2.679   1.665
 2344SOL    HW2 1082   3.509   2.688   1.605
 2345SOL     OW 1083   2.875   1.967   1.770
 2345SOL    HW1 1084   2.881   2.052   1.718
 2345SOL    HW2 1085   2.907   1.891   1.713
 2346SOL     OW 1086   2.366   1.912   1.740
 2346SOL    HW1 1087   2.324   1.855   1.670
 2346SOL    HW2 1088   2.300   1.981   1.772
 2347SOL     OW 1089   2.435   2.732   1.029
 2347SOL    HW1 1090   2.479   2.821   1.020
 2347SOL    HW2 1091   2.372   2.732   1.106
 2348SOL     OW 1092   3.222   2.724   1.045
 2348SOL    HW1 1093   3.147   2.724   0.979
 2348SOL    HW2 1094   3.259   2.632   1.054
 2350SOL     OW 1095   2.169   2.075   1.231
 2350SOL    HW1 1096   2.146   2.112   1.321
 2350SOL    HW2 1097   2.139   1.980   1.225
 2351SOL     OW 1098   1.899   3.172   1.282
 2351SOL    HW1 1099   1.952   3.123   1.350
 2351SOL    HW2 1100   1.921   3.270   1.287
 2352SOL     OW 1101   2.594   2.496   1.064
 2352SOL    HW1 1102   2.653   2.470   0.988
 2352SOL    HW2 1103   2.566   2.592   1.053
 2353SOL     OW 1104   3.590   2.797   1.854
 2353SOL    HW1 1105   3.544   2.790   1.765
 2353SOL    HW2 1106   3.528   2.841   1.920
 2356SOL     OW 1107   2.885   2.628   0.966
 2356SOL    HW1 1108   2.900   2.649   1.062
 2356SOL    HW2 1109   2.855   2.533   0.957
 2357SOL     OW 1110   2.842   3.435   1.700
 2357SOL    HW1 1111   2.822   3.479   1.612
 2357SOL    HW2 1112   2.881   3.344   1.684
 2358SOL     OW 1113   3.721   3.380   1.605
 2358SOL    HW1 1114   3.735   3.407   1.510
 2358SOL    HW2 1115   3.804   3.402   1.658
 2359SOL     OW 1116   2.212   2.760   1.804
 2359SOL    HW1 1117   2.288   2.804   1.852
 2359SOL    HW2 1118   2.247   2.713   1.722
 2363SOL     OW 1119   2.181   2.672   0.949
 2363SOL    HW1 1120   2.274   2.708   0.954
 2363SOL    HW2 1121   2.175   2.587   1.001
 2364SOL     OW 1122   2.201   2.371   1.006
 2364SOL    HW1 1123   2.149   2.288   0.989
 2364SOL    HW2 1124   2.278   2.376   0.942
 2365SOL     OW 1125   3.000   2.242   1.678
 2365SOL    HW1 1126   2.955   2.305   1.742
 2365SOL    HW2 1127   3.093   2.273   1.661
 2366SOL     OW 1128   3.022   2.069   1.477
 2366SOL    HW1 1129   3.022   2.133   1.554
 2366SOL    HW2 1130   3.050   2.117   1.394
 2369SOL     OW 1131   2.864   2.658   1.238
 2369SOL    HW1 1132   2.905   2.626   1.324
 2369SOL    HW2 1133   2.768   2.631   1.235
 2370SOL     OW 1134   1.902   2.406   1.114
 2370SOL    HW1 1135   1.987   2.373   1.073
 2370SOL    HW2 1136   1.915   2.421   1.212
 2371SOL     OW 1137   2.051   2.382   1.722
 2371SOL    HW1 1138   2.110   2.342   1.652
 2371SOL    HW2 1139   1.993   2.453   1.681
 2372SOL     OW 1140   3.231   2.812   1.660
 2372SOL    HW1 1141   3.270   2.901   1.680
 2372SOL    HW2 1142   3.241   2.792   1.563
 2374SOL     OW 1143   3.519   2.466   1.206
 2374SOL    HW1 1144   3.481   2.397   1.268
 2374SOL    HW2 1145   3.601   2.430   1.162
 2375SOL     OW 1146   2.114   3.426   1.744
 2375SOL    HW1 1147   2.084   3.483   1.820
 2375SOL    HW2 1148   2.107   3.329   1.770
 2376SOL     OW 1149   2.533   2.326   1.269
 2376SOL    HW1 1150   2.499   2.237   1.239
 2376SOL    HW2 1151   2.559   2.380   1.189
 2377SOL     OW 1152   2.792   3.540   1.465
 2377SOL    HW1 1153   2.768   3.522   1.370
 2377SOL    HW2 1154   2.822   3.634   1.475
 2379SOL     OW 1155   2.021   2.999   1.466
 2379SOL    HW1 1156   2.043   2.938   1.542
 2379SOL    HW2 1157   2.031   2.950   1.380
 2380SOL     OW 1158   3.209   2.921   1.234
 2380SOL    HW1 1159   3.233   2.858   1.160
 2380SOL    HW2 1160   3.119   2.961   1.216
 2384SOL     OW 1161   1.945   3.120   1.022
 2384SOL    HW1 1162   1.940   3.119   1.122
 2384SOL    HW2 1163   1.862   3.079   0.984
 2385SOL     OW 1164   2.550   3.524   1.716
 2385SOL    HW1 1165   2.494   3.605   1.725
 2385SOL    HW2 1166   2.602   3.528   1.630
 2389SOL     OW 1167   1.992   3.656   1.851
 2389SOL    HW1 1168   1.951   3.582   1.904
 2389SOL    HW2 1169   2.056   3.707   1.909
 2391SOL     OW 1170   2.692   3.135   1.422
 2391SOL    HW1 1171   2.687   3.168   1.517
 2391SOL    HW2 1172   2.606   3.154   1.376
 2397SOL     OW 1173   2.684   2.864   1.372
 2397SOL    HW1 1174   2.724   2.863   1.280
 2397SOL    HW2 1175   2.694   2.956   1.412
 2400SOL     OW 1176   2.234   3.150   1.490
 2400SOL    HW1 1177   2.221   3.243   1.456
 2400SOL    HW2 1178   2.150   3.098   1.477
 2401SOL     OW 1179   3.476   3.154   1.289
 2401SOL    HW1 1180   3.536   3.157   1.369
 2401SOL    HW2 1181   3.401   3.218   1.302
 2403SOL     OW 1182   2.876   2.098   0.971
 2403SOL    HW1 1183   2.868   2.062   0.878
 2403SOL    HW2 1184   2.874   2.022   1.036
 2405SOL     OW 1185   3.571   2.247   1.381
 2405SOL    HW1 1186   3.644   2.316   1.385
 2405SOL    HW2 1187   3.599   2.172   1.322
 2407SOL     OW 1188   1.967   2.875   1.726
 2407SOL    HW1 1189   1.890   2.842   1.780
 2407SOL    HW2 1190   2.052   2.845   1.768
 2408SOL     OW 1191   2.534   2.065   1.489
 2408SOL    HW1 1192   2.624   2.049   1.449
 2408SOL    HW2 1193   2.542   2.070   1.588
 2410SOL     OW 1194   3.302   2.718   1.398
 2410SOL    HW1 1195   3.245   2.770   1.335
 2410SOL    HW2 1196   3.398   2.730   1.374
 2413SOL     OW 1197   2.475   2.704   1.431
 2413SOL    HW1 1198   2.531   2.785   1.414
 2413SOL    HW2 1199   2.534   2.624   1.434
 2415SOL     OW 1200   2.578   2.427   1.708
 2415SOL    HW1 1201   2.597   2.492   1.782
 2415SOL    HW2 1202   2.638   2.347   1.717
 2416SOL     OW 1203   3.312   3.082   1.633
 2416SOL    HW1 1204   3.303   3.072   1.732
 2416SOL    HW2 1205   3.408   3.075   1.607
 2417SOL     OW 1206   2.252   3.603   1.560
 2417SOL    HW1 1207   2.161   3.644   1.558
 2417SOL    HW2 1208   2.245   3.509   1.592
 2418SOL     OW 1209   3.536   2.745   1.254
 2418SOL    HW1 1210   3.509   2.656   1.217
 2418SOL    HW2 1211   3.537   2.813   1.181
 2421SOL     OW 1212   3.639   2.204   1.642
 2421SOL    HW1 1213   3.622   2.235   1.548
 2421SOL    HW2 1214   3.555   2.167   1.680
 2422SOL     OW 1215   3.592   2.796   1.517
 2422SOL    HW1 1216   3.630   2.887   1.532
 2422SOL    HW2 1217   3.584   2.779   1.418
 2425SOL     OW 1218   2.721   2.818   0.861
 2425SOL    HW1 1219   2.775   2.749   0.909
 2425SOL    HW2 1220   2.689   2.887   0.927
 2428SOL     OW 1221   2.083   3.176   1.844
 2428SOL    HW1 1222   2.018   3.103   1.823
 2428SOL    HW2 1223   2.087   3.190   1.942
 2430SOL     OW 1224   2.534   3.253   1.624
 2430SOL    HW1 1225   2.456   3.203   1.662
 2430SOL    HW2 1226   2.531   3.348   1.655
 2434SOL     OW 1227   2.179   2.409   1.280
 2434SOL    HW1 1228   2.217   2.350   1.352
 2434SOL    HW2 1229   2.219   2.383   1.192
 2436SOL     OW 1230   3.286   2.076   1.112
 2436SOL    HW1 1231   3.338   2.011   1.167
 2436SOL    HW2 1232   3.237   2.139   1.173
 2437SOL     OW 1233   2.863   1.896   1.154
 2437SOL    HW1 1234   2.800   1.824   1.123
 2437SOL    HW2 1235   2.956   1.860   1.154
 2439SOL     OW 1236   2.480   3.429   1.284
 2439SOL    HW1 1237   2.475   3.511   1.341
 2439SOL    HW2 1238   2.569   3.426   1.239
 2445SOL     OW 1239   2.092   2.490   1.975
 2445SOL    HW1 1240   1.999   2.488   2.012
 2445SOL    HW2 1241   2.093   2.451   1.883
 2446SOL     OW 1242   2.087   2.137   2.858
 2446SOL    HW1 1243   2.122   2.120   2.950
 2446SOL    HW2 1244   1.999   2.092   2.846
 2447SOL     OW 1245   1.881   2.230   2.509
 2447SOL    HW1 1246   1.799   2.273   2.548
 2447SOL    HW2 1247   1.853   2.157   2.446
 2448SOL     OW 1248   2.431   3.137   3.027
 2448SOL    HW1 1249   2.338   3.130   2.990
 2448SOL    HW2 1250   2.442   3.226   3.071
 2449SOL     OW 1251   3.417   3.373   2.565
 2449SOL    HW1 1252   3.360   3.357   2.646
 2449SOL    HW2 1253   3.358   3.383   2.485
 2450SOL     OW 1254   3.617   2.469   2.093
 2450SOL    HW1 1255   3.605   2.456   1.994
 2450SOL    HW2 1256   3.587   2.388   2.142
 2451SOL     OW 1257   2.630   3.006   2.885
 2451SOL    HW1 1258   2.552   3.023   2.945
 2451SOL    HW2 1259   2.664   3.093   2.849
 2452SOL     OW 1260   2.712   2.660   3.685
 2452SOL    HW1 1261   2.708   2.736   3.750
 2452SOL    HW2 1262   2.734   2.696   3.594
 2453SOL     OW 1263   2.548   3.023   3.665
 2453SOL    HW1 1264   2.608   3.102   3.679
 2453SOL    HW2 1265   2.462   3.054   3.624
 2454SOL     OW 1266   2.197   3.297   2.923
 2454SOL    HW1 1267   2.119   3.266   2.870
 2454SOL    HW2 1268   2.255   3.355   2.866
 2455SOL     OW 1269   3.322   3.367   3.201
 2455SOL    HW1 1270   3.346   3.461   3.227
 2455SOL    HW2 1271   3.306   3.313   3.283
 2456SOL     OW 1272   2.300   2.254   3.361
 2456SOL    HW1 1273   2.382   2.198   3.370
 2456SOL    HW2 1274   2.219   2.196   3.365
 2457SOL     OW 1275   3.465   2.309   2.599
 2457SOL    HW1 1276   3.391   2.355   2.549
 2457SOL    HW2 1277   3.516   2.377   2.652
 2458SOL     OW 1278   2.093   3.575   2.345
 2458SOL    HW1 1279   2.127   3.652   2.399
 2458SOL    HW2 1280   2.137   3.575   2.255
 2459SOL     OW 1281   2.989   3.203   3.552
 2459SOL    HW1 1282   3.036   3.203   3.640
 2459SOL    HW2 1283   2.941   3.116   3.541
 2460SOL     OW 1284   2.092   3.296   2.400
 2460SOL    HW1 1285   2.066   3.392   2.400
 2460SOL    HW2 1286   2.021   3.242   2.445
 2461SOL     OW 1287   2.102   2.953   2.748
 2461SOL    HW1 1288   2.116   2.869   2.800
 2461SOL    HW2 1289   2.047   3.017   2.803
 2462SOL     OW 1290   2.482   3.648   3.301
 2462SOL    HW1 1291   2.390   3.631   3.336
 2462SOL    HW2 1292   2.510   3.740   3.327
 2463SOL     OW 1293   2.468   2.826   1.985
 2463SOL    HW1 1294   2.475   2.910   1.931
 2463SOL    HW2 1295   2.514   2.839   2.073
 2464SOL     OW 1296   3.456   1.976   3.342
 2464SOL    HW1 1297   3.438   2.043   3.270
 2464SOL    HW2 1298   3.453   2.022   3.431
 2465SOL     OW 1299   1.984   2.505   2.425
 2465SOL    HW1 1300   1.939   2.417   2.442
 2465SOL    HW2 1301   1.983   2.559   2.509
 2466SOL     OW 1302   3.704   3.629   2.221
 2466SOL    HW1 1303   3.758   3.600   2.301
 2466SOL    HW2 1304   3.734   3.719   2.192
 2467SOL     OW 1305   1.889   3.458   1.979
 2467SOL    HW1 1306   1.870   3.362   2.000
 2467SOL    HW2 1307   1.856   3.516   2.054
 2468SOL     OW 1308   3.551   2.784   2.474
 2468SOL    HW1 1309   3.646   2.755   2.482
 2468SOL    HW2 1310   3.543   2.849   2.399
 2469SOL     OW 1311   3.503   2.970   2.294
 2469SOL    HW1 1312   3.589   2.972   2.242
 2469SOL    HW2 1313   3.517   3.017   2.382
 2470SOL     OW 1314   1.975   2.599   3.459
 2470SOL    HW1 1315   2.063   2.586   3.504
 2470SOL    HW2 1316   1.962   2.696   3.437
 2471SOL     OW 1317   2.475   3.227   2.588
 2471SOL    HW1 1318   2.426   3.140   2.597
 2471SOL    HW2 1319   2.452   3.270   2.501
 2472SOL     OW 1320   3.155   3.090   3.285
 2472SOL    HW1 1321   3.192   3.017   3.227
 2472SOL    HW2 1322   3.207   3.095   3.370
 2473SOL     OW 1323   2.671   1.866   2.364
 2473SOL    HW1 1324   2.711   1.957   2.355
 2473SOL    HW2 1325   2.571   1.874   2.370
 2474SOL     OW 1326   2.059   2.838   3.126
 2474SOL    HW1 1327   2.148   2.793   3.112
 2474SOL    HW2 1328   1.986   2.773   3.107
 2475SOL     OW 1329   3.387   2.861   2.052
 2475SOL    HW1 1330   3.324   2.785   2.065
 2475SOL    HW2 1331   3.435   2.879   2.138
 2476SOL     OW 1332   3.049   3.654   3.478
 2476SOL    HW1 1333   3.073   3.714   3.402
 2476SOL    HW2 1334   3.056   3.559   3.448
 2477SOL     OW 1335   2.179   2.113   3.663
 2477SOL    HW1 1336   2.250   2.184   3.669
 2477SOL    HW2 1337   2.091   2.152   3.691
 2478SOL     OW 1338   3.328   3.279   2.815
 2478SOL    HW1 1339   3.269   3.285   2.895
 2478SOL    HW2 1340   3.313   3.191   2.769
 2479SOL     OW 1341   3.529   3.576   2.434
 2479SOL    HW1 1342   3.488   3.553   2.346
 2479SOL    HW2 1343   3.511   3.502   2.499
 2480SOL     OW 1344   3.143   2.207   2.806
 2480SOL    HW1 1345   3.057   2.157   2.793
 2480SOL    HW2 1346   3.205   2.153   2.862
 2481SOL     OW 1347   3.438   3.524   2.169
 2481SOL    HW1 1348   3.527   3.570   2.172
 2481SOL    HW2 1349   3.417   3.500   2.074
 2482SOL     OW 1350   2.669   2.467   3.327
 2482SOL    HW1 1351   2.622   2.464   3.416
 2482SOL    HW2 1352   2.618   2.412   3.261
 2483SOL     OW 1353   3.256   2.331   3.536
 2483SOL    HW1 1354   3.236   2.374   3.624
 2483SOL    HW2 1355   3.334   2.269   3.545
 2484SOL     OW 1356   2.835   2.752   3.434
 2484SOL    HW1 1357   2.881   2.668   3.405
 2484SOL    HW2 1358   2.779   2.786   3.359
 2485SOL     OW 1359   2.853   2.272   3.104
 2485SOL    HW1 1360   2.776   2.306   3.158
 2485SOL    HW2 1361   2.819   2.221   3.025
 2486SOL     OW 1362   2.903   2.563   2.291
 2486SOL    HW1 1363   2.929   2.559   2.387
 2486SOL    HW2 1364   2.818   2.512   2.277
 2487SOL     OW 1365   1.938   2.673   2.651
 2487SOL    HW1 1366   2.037   2.661   2.660
 2487SOL    HW2 1367   1.914   2.768   2.672
 2488SOL     OW 1368   1.992   3.683   3.433
 2488SOL    HW1 1369   1.982   3.668   3.532
 2488SOL    HW2 1370   1.906   3.719   3.397
 2489SOL     OW 1371   2.727   2.210   2.057
 2489SOL    HW1 1372   2.786   2.273   2.008
 2489SOL    HW2 1373   2.746   2.116   2.028
 2490SOL     OW 1374   3.581   2.447   3.693
 2490SOL    HW1 1375   3.555   2.536   3.657
 2490SOL    HW2 1376   3.579   2.379   3.620
 2491SOL     OW 1377   3.224   3.006   2.407
 2491SOL    HW1 1378   3.307   2.977   2.359
 2491SOL    HW2 1379   3.175   3.073   2.351
 2492SOL     OW 1380   2.412   2.058   2.747
 2492SOL    HW1 1381   2.407   2.053   2.847
 2492SOL    HW2 1382   2.414   2.154   2.718
 2493SOL     OW 1383   2.870   3.318   2.339
 2493SOL    HW1 1384   2.824   3.390   2.287
 2493SOL    HW2 1385   2.866   3.338   2.437
 2494SOL     OW 1386   2.213   3.663   2.715
 2494SOL    HW1 1387   2.263   3.577   2.721
 2494SOL    HW2 1388   2.278   3.740   2.712
 2495SOL     OW 1389   3.657   2.928   2.735
 2495SOL    HW1 1390   3.595   2.913   2.659
 2495SOL    HW2 1391   3.605   2.939   2.820
 2496SOL     OW 1392   3.089   3.412   3.368
 2496SOL    HW1 1393   3.095   3.335   3.432
 2496SOL    HW2 1394   3.037   3.386   3.288
 2497SOL     OW 1395   3.320   2.597   2.590
 2497SOL    HW1 1396   3.315   2.532   2.665
 2497SOL    HW2 1397   3.400   2.656   2.603
 2498SOL     OW 1398   2.323   3.128   3.589
 2498SOL    HW1 1399   2.273   3.129   3.503
 2498SOL    HW2 1400   2.260   3.110   3.665
 2499SOL     OW 1401   2.973   3.638   2.099
 2499SOL    HW1 1402   2.913   3.576   2.149
 2499SOL    HW2 1403   3.004   3.594   2.014
 2500SOL     OW 1404   2.064   2.147   3.360
 2500SOL    HW1 1405   1.984   2.207   3.347
 2500SOL    HW2 1406   2.054   2.098   3.446
 2501SOL     OW 1407   3.494   3.239   1.943
 2501SOL    HW1 1408   3.462   3.333   1.933
 2501SOL    HW2 1409   3.418   3.176   1.931
 2502SOL     OW 1410   2.326   3.605   2.185
 2502SOL    HW1 1411   2.359   3.644   2.271
 2502SOL    HW2 1412   2.402   3.598   2.120
 2503SOL     OW 1413   3.262   1.969   2.288
 2503SOL    HW1 1414   3.238   1.932   2.198
 2503SOL    HW2 1415   3.361   1.985   2.292
 2504SOL     OW 1416   2.111   3.647   3.103
 2504SOL    HW1 1417   2.168   3.582   3.153
 2504SOL    HW2 1418   2.095   3.614   3.010
 2505SOL     OW 1419   2.802   3.560   2.766
 2505SOL    HW1 1420   2.882   3.503   2.787
 2505SOL    HW2 1421   2.753   3.520   2.689
 2506SOL     OW 1422   2.244   2.562   2.342
 2506SOL    HW1 1423   2.289   2.472   2.339
 2506SOL    HW2 1424   2.150   2.551   2.375
 2507SOL     OW 1425   3.409   2.084   3.591
 2507SOL    HW1 1426   3.404   2.121   3.683
 2507SOL    HW2 1427   3.337   2.015   3.579
 2508SOL     OW 1428   2.476   1.984   1.979
 2508SOL    HW1 1429   2.574   1.962   1.986
 2508SOL    HW2 1430   2.445   1.967   1.886
 2509SOL     OW 1431   2.643   2.126   3.611
 2509SOL    HW1 1432   2.710   2.065   3.654
 2509SOL    HW2 1433   2.570   2.145   3.676
 2510SOL     OW 1434   2.750   3.376   3.057
 2510SOL    HW1 1435   2.727   3.351   2.963
 2510SOL    HW2 1436   2.811   3.307   3.096
 2511SOL     OW 1437   3.213   2.452   3.295
 2511SOL    HW1 1438   3.241   2.409   3.380
 2511SOL    HW2 1439   3.238   2.548   3.296
 2512SOL     OW 1440   2.665   3.264   2.786
 2512SOL    HW1 1441   2.755   3.278   2.744
 2512SOL    HW2 1442   2.594   3.266   2.715
 2513SOL     OW 1443   2.401   1.926   2.374
 2513SOL    HW1 1444   2.320   1.927   2.432
 2513SOL    HW2 1445   2.404   2.009   2.319
 2514SOL     OW 1446   3.296   3.050   1.903
 2514SOL    HW1 1447   3.328   2.974   1.960
 2514SOL    HW2 1448   3.204   3.077   1.933
 2515SOL     OW 1449   2.159   1.897   2.033
 2515SOL    HW1 1450   2.208   1.981   2.012
 2515SOL    HW2 1451   2.221   1.832   2.078
 2516SOL     OW 1452   2.797   2.098   2.342
 2516SOL    HW1 1453   2.749   2.139   2.264
 2516SOL    HW2 1454   2.896   2.096   2.323
 2517SOL     OW 1455   2.938   2.545   3.326
 2517SOL    HW1 1456   2.858   2.484   3.329
 2517SOL    HW2 1457   3.019   2.492   3.302
 2518SOL     OW 1458   3.089   3.432   2.655
 2518SOL    HW1 1459   3.110   3.506   2.590
 2518SOL    HW2 1460   3.157   3.432   2.728
 2519SOL     OW 1461   2.321   3.014   2.603
 2519SOL    HW1 1462   2.250   2.987   2.668
 2519SOL    HW2 1463   2.295   2.986   2.510
 2520SOL     OW 1464   3.133   3.659   2.453
 2520SOL    HW1 1465   3.177   3.723   2.389
 2520SOL    HW2 1466   3.083   3.711   2.523
 2521SOL     OW 1467   2.894   2.411   1.878
 2521SOL    HW1 1468   2.853   2.493   1.839
 2521SOL    HW2 1469   2.958   2.437   1.951
 2522SOL     OW 1470   1.940   2.418   3.248
 2522SOL    HW1 1471   2.032   2.417   3.207
 2522SOL    HW2 1472   1.934   2.492   3.315
 2523SOL     OW 1473   2.423   2.084   3.009
 2523SOL    HW1 1474   2.461   2.000   3.046
 2523SOL    HW2 1475   2.335   2.103   3.053
 2524SOL     OW 1476   2.728   2.316   2.504
 2524SOL    HW1 1477   2.696   2.388   2.442
 2524SOL    HW2 1478   2.752   2.235   2.451
 2525SOL     OW 1479   2.879   1.901   2.615
 2525SOL    HW1 1480   2.807   1.906   2.546
 2525SOL    HW2 1481   2.855   1.832   2.684
 2526SOL     OW 1482   3.291   3.035   2.729
 2526SOL    HW1 1483   3.236   2.951   2.722
 2526SOL    HW2 1484   3.317   3.064   2.637
 2527SOL     OW 1485   3.328   2.452   2.854
 2527SOL    HW1 1486   3.298   2.357   2.861
 2527SOL    HW2 1487   3.401   2.468   2.920
 2528SOL     OW 1488   3.719   2.695   2.239
 2528SOL    HW1 1489   3.761   2.631   2.303
 2528SOL    HW2 1490   3.681   2.644   2.161
 2529SOL     OW 1491   2.350   3.247   2.036
 2529SOL    HW1 1492   2.263   3.232   2.083
 2529SOL    HW2 1493   2.333   3.273   1.941
 2530SOL     OW 1494   3.526   3.142   2.519
 2530SOL    HW1 1495   3.625   3.150   2.533
 2530SOL    HW2 1496   3.481   3.226   2.550
 2531SOL     OW 1497   3.252   2.437   1.940
 2531SOL    HW1 1498   3.198   2.416   2.021
 2531SOL    HW2 1499   3.343   2.396   1.949
 2532SOL     OW 1500   2.389   2.118   2.190
 2532SOL    HW1 1501   2.416   2.059   2.115
 2532SOL    HW2 1502   2.389   2.213   2.159
 2533SOL     OW 1503   3.616   3.085   3.450
 2533SOL    HW1 1504   3.707   3.046   3.437
 2533SOL    HW2 1505   3.624   3.181   3.474
 2534SOL     OW 1506   2.926   3.209   3.202
 2534SOL    HW1 1507   2.846   3.186   3.257
 2534SOL    HW2 1508   3.009   3.183   3.251
 2535SOL     OW 1509   3.454   3.491   3.487
 2535SOL    HW1 1510   3.481   3.525   3.397
 2535SOL    HW2 1511   3.533   3.453   3.533
 2536SOL     OW 1512   2.973   3.057   2.962
 2536SOL    HW1 1513   2.933   3.101   3.043
 2536SOL    HW2 1514   2.932   3.094   2.879
 2537SOL     OW 1515   3.500   2.961   2.941
 2537SOL    HW1 1516   3.505   3.042   3.000
 2537SOL    HW2 1517   3.414   2.963   2.890
 2538SOL     OW 1518   2.777   1.951   3.264
 2538SOL    HW1 1519   2.802   1.931   3.169
 2538SOL    HW2 1520   2.849   2.007   3.306
 2539SOL     OW 1521   2.842   2.978   3.581
 2539SOL    HW1 1522   2.743   2.984   3.591
 2539SOL    HW2 1523   2.865   2.898   3.525
 2540SOL     OW 1524   2.567   2.912   2.230
 2540SOL    HW1 1525   2.553   2.919   2.329
 2540SOL    HW2 1526   2.651   2.861   2.212
 2541SOL     OW 1527   2.272   2.675   3.113
 2541SOL    HW1 1528   2.358   2.687   3.163
 2541SOL    HW2 1529   2.230   2.588   3.140
 2542SOL     OW 1530   3.136   2.248   3.124
 2542SOL    HW1 1531   3.157   2.322   3.188
 2542SOL    HW2 1532   3.047   2.265   3.081
 2543SOL     OW 1533   1.926   3.426   3.193
 2543SOL    HW1 1534   1.880   3.508   3.159
 2543SOL    HW2 1535   2.024   3.445   3.202
 2544SOL     OW 1536   2.229   2.962   2.363
 2544SOL    HW1 1537   2.222   3.045   2.307
 2544SOL    HW2 1538   2.233   2.882   2.303
 2545SOL     OW 1539   2.428   2.399   2.727
 2545SOL    HW1 1540   2.440   2.465   2.653
 2545SOL    HW2 1541   2.474   2.433   2.810
 2546SOL     OW 1542   3.114   3.210   2.250
 2546SOL    HW1 1543   3.164   3.287   2.290
 2546SOL    HW2 1544   3.019   3.212   2.282
 2547SOL     OW 1545   3.134   3.307   3.004
 2547SOL    HW1 1546   3.181   3.320   3.091
 2547SOL    HW2 1547   3.068   3.233   3.013
 2548SOL     OW 1548   3.444   2.501   2.334
 2548SOL    HW1 1549   3.413   2.562   2.407
 2548SOL    HW2 1550   3.494   2.553   2.265
 2549SOL     OW 1551   2.216   3.372   3.191
 2549SOL    HW1 1552   2.195   3.328   3.104
 2549SOL    HW2 1553   2.313   3.398   3.194
 2550SOL     OW 1554   2.264   2.613   3.460
 2550SOL    HW1 1555   2.332   2.668   3.413
 2550SOL    HW2 1556   2.304   2.525   3.487
 2551SOL     OW 1557   3.449   2.641   3.532
 2551SOL    HW1 1558   3.357   2.679   3.527
 2551SOL    HW2 1559   3.509   2.688   3.467
 2552SOL     OW 1560   2.875   1.967   3.632
 2552SOL    HW1 1561   2.881   2.052   3.580
 2552SOL    HW2 1562   2.907   1.891   3.575
 2553SOL     OW 1563   2.366   1.912   3.602
 2553SOL    HW1 1564   2.324   1.855   3.532
 2553SOL    HW2 1565   2.300   1.981   3.634
 2554SOL     OW 1566   2.435   2.732   2.891
 2554SOL    HW1 1567   2.479   2.821   2.882
 2554SOL    HW2 1568   2.372   2.732   2.968
 2555SOL     OW 1569   3.222   2.724   2.907
 2555SOL    HW1 1570   3.147   2.724   2.841
 2555SOL    HW2 1571   3.259   2.632   2.916
 2556SOL     OW 1572   3.071   2.387   2.137
 2556SOL    HW1 1573   3.084   2.303   2.191
 2556SOL    HW2 1574   3.042   2.461   2.197
 2557SOL     OW 1575   2.169   2.075   3.093
 2557SOL    HW1 1576   2.146   2.112   3.183
 2557SOL    HW2 1577   2.139   1.980   3.087
 2558SOL     OW 1578   1.899   3.172   3.144
 2558SOL    HW1 1579   1.952   3.123   3.212
 2558SOL    HW2 1580   1.921   3.270   3.149
 2559SOL     OW 1581   3.590   2.797   3.716
 2559SOL    HW1 1582   3.544   2.790   3.627
 2559SOL    HW2 1583   3.528   2.841   3.782
 2560SOL     OW 1584   2.169   1.925   2.480
 2560SOL    HW1 1585   2.158   2.019   2.513
 2560SOL    HW2 1586   2.164   1.862   2.557
 2561SOL     OW 1587   3.484   2.229   2.236
 2561SOL    HW1 1588   3.486   2.153   2.300
 2561SOL    HW2 1589   3.436   2.306   2.276
 2562SOL     OW 1590   2.842   3.435   3.562
 2562SOL    HW1 1591   2.822   3.479   3.474
 2562SOL    HW2 1592   2.881   3.344   3.546
 2563SOL     OW 1593   3.721   3.380   3.467
 2563SOL    HW1 1594   3.735   3.407   3.372
 2563SOL    HW2 1595   3.804   3.402   3.520
 2564SOL     OW 1596   2.212   2.760   3.666
 2564SOL    HW1 1597   2.288   2.804   3.714
 2564SOL    HW2 1598   2.247   2.713   3.584
 2565SOL     OW 1599   3.402   2.136   1.987
 2565SOL    HW1 1600   3.341   2.061   2.010
 2565SOL    HW2 1601   3.424   2.188   2.070
 2566SOL     OW 1602   3.165   2.700   1.904
 2566SOL    HW1 1603   3.199   2.607   1.919
 2566SOL    HW2 1604   3.183   2.727   1.809
 2567SOL     OW 1605   2.930   3.195   2.711
 2567SOL    HW1 1606   2.937   3.111   2.656
 2567SOL    HW2 1607   2.992   3.264   2.675
 2568SOL     OW 1608   2.181   2.672   2.811
 2568SOL    HW1 1609   2.274   2.708   2.816
 2568SOL    HW2 1610   2.175   2.587   2.863
 2569SOL     OW 1611   2.201   2.371   2.868
 2569SOL    HW1 1612   2.149   2.288   2.851
 2569SOL    HW2 1613   2.278   2.376   2.804
 2570SOL     OW 1614   3.000   2.242   3.540
 2570SOL    HW1 1615   2.955   2.305   3.604
 2570SOL    HW2 1616   3.093   2.273   3.523
 2571SOL     OW 1617   3.022   2.069   3.339
 2571SOL    HW1 1618   3.022   2.133   3.416
 2571SOL    HW2 1619   3.050   2.117   3.256
 2572SOL     OW 1620   1.870   3.188   2.062
 2572SOL    HW1 1621   1.777   3.209   2.031
 2572SOL    HW2 1622   1.880   3.089   2.075
 2573SOL     OW 1623   1.950   3.663   2.789
 2573SOL    HW1 1624   1.908   3.577   2.762
 2573SOL    HW2 1625   2.044   3.666   2.755
 2574SOL     OW 1626   2.366   3.430   2.772
 2574SOL    HW1 1627   2.432   3.504   2.781
 2574SOL    HW2 1628   2.410   3.351   2.730
 2575SOL     OW 1629   2.864   2.658   3.100
 2575SOL    HW1 1630   2.905   2.626   3.186
 2575SOL    HW2 1631   2.768   2.631   3.097
 2576SOL     OW 1632   1.902   2.406   2.976
 2576SOL    HW1 1633   1.987   2.373   2.935
 2576SOL    HW2 1634   1.915   2.421   3.074
 2577SOL     OW 1635   2.051   2.382   3.584
 2577SOL    HW1 1636   2.110   2.342   3.514
 2577SOL    HW2 1637   1.993   2.453   3.543
 2578SOL     OW 1638   3.231   2.812   3.522
 2578SOL    HW1 1639   3.270   2.901   3.542
 2578SOL    HW2 1640   3.241   2.792   3.425
 2579SOL     OW 1641   2.677   2.434   2.187
 2579SOL    HW1 1642   2.684   2.345   2.141
 2579SOL    HW2 1643   2.583   2.468   2.179
 2580SOL     OW 1644   3.519   2.466   3.068
 2580SOL    HW1 1645   3.481   2.397   3.130
 2580SOL    HW2 1646   3.601   2.430   3.024
 2581SOL     OW 1647   2.114   3.426   3.606
 2581SOL    HW1 1648   2.084   3.483   3.682
 2581SOL    HW2 1649   2.107   3.329   3.632
 2582SOL     OW 1650   2.533   2.326   3.131
 2582SOL    HW1 1651   2.499   2.237   3.101
 2582SOL    HW2 1652   2.559   2.380   3.051
 2583SOL     OW 1653   2.792   3.540   3.327
 2583SOL    HW1 1654   2.768   3.522   3.232
 2583SOL    HW2 1655   2.822   3.634   3.337
 2584SOL     OW 1656   2.335   2.362   2.053
 2584SOL    HW1 1657   2.396   2.442   2.057
 2584SOL    HW2 1658   2.240   2.393   2.060
 2585SOL     OW 1659   2.021   2.999   3.328
 2585SOL    HW1 1660   2.043   2.938   3.404
 2585SOL    HW2 1661   2.031   2.950   3.242
 2586SOL     OW 1662   3.209   2.921   3.096
 2586SOL    HW1 1663   3.233   2.858   3.022
 2586SOL    HW2 1664   3.119   2.961   3.078
 2587SOL     OW 1665   3.164   2.717   2.171
 2587SOL    HW1 1666   3.078   2.686   2.213
 2587SOL    HW2 1667   3.160   2.703   2.072
 2588SOL     OW 1668   3.621   3.609   3.016
 2588SOL    HW1 1669   3.682   3.639   2.943
 2588SOL    HW2 1670   3.583   3.520   2.994
 2589SOL     OW 1671   3.114   3.593   2.990
 2589SOL    HW1 1672   3.198   3.598   2.936
 2589SOL    HW2 1673   3.091   3.497   3.008
 2590SOL     OW 1674   1.945   3.120   2.884
 2590SOL    HW1 1675   1.940   3.119   2.984
 2590SOL    HW2 1676   1.862   3.079   2.846
 2591SOL     OW 1677   2.550   3.524   3.578
 2591SOL    HW1 1678   2.494   3.605   3.587
 2591SOL    HW2 1679   2.602   3.528   3.492
 2592SOL     OW 1680   3.588   1.997   2.385
 2592SOL    HW1 1681   3.661   1.980   2.318
 2592SOL    HW2 1682   3.557   1.910   2.423
 2593SOL     OW 1683   3.250   3.435   2.339
 2593SOL    HW1 1684   3.317   3.447   2.265
 2593SOL    HW2 1685   3.210   3.524   2.362
 2594SOL     OW 1686   1.992   3.656   3.713
 2594SOL    HW1 1687   1.951   3.582   3.766
 2594SOL    HW2 1688   2.056   3.707   3.771
 2595SOL     OW 1689   3.142   2.789   2.534
 2595SOL    HW1 1690   3.202   2.708   2.536
 2595SOL    HW2 1691   3.182   2.858   2.474
 2596SOL     OW 1692   2.692   3.135   3.284
 2596SOL    HW1 1693   2.687   3.168   3.379
 2596SOL    HW2 1694   2.606   3.154   3.238
 2597SOL     OW 1695   2.534   3.478   2.016
 2597SOL    HW1 1696   2.543   3.488   1.917
 2597SOL    HW2 1697   2.494   3.389   2.037
 2598SOL     OW 1698   3.512   3.582   3.256
 2598SOL    HW1 1699   3.565   3.592   3.172
 2598SOL    HW2 1700   3.485   3.672   3.290
 2599SOL     OW 1701   3.703   2.037   2.825
 2599SOL    HW1 1702   3.742   1.952   2.789
 2599SOL    HW2 1703   3.605   2.039   2.806
 2600SOL     OW 1704   2.125   2.188   2.582
 2600SOL    HW1 1705   2.046   2.239   2.548
 2600SOL    HW2 1706   2.116   2.173   2.680
 2601SOL     OW 1707   3.056   3.474   1.893
 2601SOL    HW1 1708   3.062   3.381   1.930
 2601SOL    HW2 1709   2.997   3.474   1.813
 2602SOL     OW 1710   2.684   2.864   3.234
 2602SOL    HW1 1711   2.724   2.863   3.142
 2602SOL    HW2 1712   2.694   2.956   3.274
 2603SOL     OW 1713   2.778   2.772   2.153
 2603SOL    HW1 1714   2.841   2.810   2.085
 2603SOL    HW2 1715   2.818   2.689   2.192
 2604SOL     OW 1716   3.366   3.469   1.906
 2604SOL    HW1 1717   3.274   3.506   1.913
 2604SOL    HW2 1718   3.404   3.489   1.816
 2605SOL     OW 1719   2.234   3.150   3.352
 2605SOL    HW1 1720   2.221   3.243   3.318
 2605SOL    HW2 1721   2.150   3.098   3.339
 2606SOL     OW 1722   3.476   3.154   3.151
 2606SOL    HW1 1723   3.536   3.157   3.231
 2606SOL    HW2 1724   3.401   3.218   3.164
 2607SOL     OW 1725   2.901   2.960   2.558
 2607SOL    HW1 1726   2.831   2.913   2.612
 2607SOL    HW2 1727   2.960   2.892   2.515
 2608SOL     OW 1728   2.876   2.098   2.833
 2608SOL    HW1 1729   2.868   2.062   2.740
 2608SOL    HW2 1730   2.874   2.022   2.898
 2609SOL     OW 1731   2.452   3.349   2.353
 2609SOL    HW1 1732   2.494   3.291   2.283
 2609SOL    HW2 1733   2.408   3.428   2.309
 2610SOL     OW 1734   3.571   2.247   3.243
 2610SOL    HW1 1735   3.644   2.316   3.247
 2610SOL    HW2 1736   3.599   2.172   3.184
 2611SOL     OW 1737   2.117   3.210   2.152
 2611SOL    HW1 1738   2.021   3.211   2.125
 2611SOL    HW2 1739   2.129   3.263   2.236
 2612SOL     OW 1740   1.967   2.875   3.588
 2612SOL    HW1 1741   1.890   2.842   3.642
 2612SOL    HW2 1742   2.052   2.845   3.630
 2613SOL     OW 1743   2.534   2.065   3.351
 2613SOL    HW1 1744   2.624   2.049   3.311
 2613SOL    HW2 1745   2.542   2.070   3.450
 2614SOL     OW 1746   1.937   2.207   1.895
 2614SOL    HW1 1747   1.845   2.179   1.866
 2614SOL    HW2 1748   1.968   2.284   1.839
 2615SOL     OW 1749   3.302   2.718   3.260
 2615SOL    HW1 1750   3.245   2.770   3.197
 2615SOL    HW2 1751   3.398   2.730   3.236
 2616SOL     OW 1752   1.934   2.028   2.180
 2616SOL    HW1 1753   1.917   2.111   2.126
 2616SOL    HW2 1754   2.024   1.991   2.158
 2617SOL     OW 1755   3.045   3.197   1.981
 2617SOL    HW1 1756   2.946   3.186   1.983
 2617SOL    HW2 1757   3.079   3.212   2.074
 2618SOL     OW 1758   2.475   2.704   3.293
 2618SOL    HW1 1759   2.531   2.785   3.276
 2618SOL    HW2 1760   2.534   2.624   3.296
 2619SOL     OW 1761   3.355   3.629   2.821
 2619SOL    HW1 1762   3.388   3.693   2.752
 2619SOL    HW2 1763   3.421   3.623   2.896
 2620SOL     OW 1764   2.578   2.427   3.570
 2620SOL    HW1 1765   2.597   2.492   3.644
 2620SOL    HW2 1766   2.638   2.347   3.579
 2621SOL     OW 1767   3.312   3.082   3.495
 2621SOL    HW1 1768   3.303   3.072   3.594
 2621SOL    HW2 1769   3.408   3.075   3.469
 2622SOL     OW 1770   2.252   3.603   3.422
 2622SOL    HW1 1771   2.161   3.644   3.420
 2622SOL    HW2 1772   2.245   3.509   3.454
 2623SOL     OW 1773   3.536   2.745   3.116
 2623SOL    HW1 1774   3.509   2.656   3.079
 2623SOL    HW2 1775   3.537   2.813   3.043
 2624SOL     OW 1776   3.087   2.187   2.311
 2624SOL    HW1 1777   3.152   2.113   2.300
 2624SOL    HW2 1778   3.107   2.237   2.395
 2625SOL     OW 1779   3.639   2.204   3.504
 2625SOL    HW1 1780   3.622   2.235   3.410
 2625SOL    HW2 1781   3.555   2.167   3.542
 2626SOL     OW 1782   3.592   2.796   3.379
 2626SOL    HW1 1783   3.630   2.887   3.394
 2626SOL    HW2 1784   3.584   2.779   3.280
 2627SOL     OW 1785   2.721   3.236   1.878
 2627SOL    HW1 1786   2.675   3.251   1.966
 2627SOL    HW2 1787   2.765   3.321   1.848
 2628SOL     OW 1788   2.523   3.652   2.815
 2628SOL    HW1 1789   2.477   3.740   2.802
 2628SOL    HW2 1790   2.622   3.664   2.808
 2629SOL     OW 1791   2.945   2.846   1.949
 2629SOL    HW1 1792   2.922   2.899   1.867
 2629SOL    HW2 1793   3.026   2.790   1.930
 2630SOL     OW 1794   3.723   3.431   2.713
 2630SOL    HW1 1795   3.652   3.419   2.643
 2630SOL    HW2 1796   3.724   3.352   2.773
 2631SOL     OW 1797   2.083   3.176   3.706
 2631SOL    HW1 1798   2.018   3.103   3.685
 2631SOL    HW2 1799   2.087   3.190   3.804
 2632SOL     OW 1800   1.941   3.102   2.515
 2632SOL    HW1 1801   1.940   3.055   2.603
 2632SOL    HW2 1802   2.023   3.074   2.464
 2633SOL     OW 1803   2.534   3.253   3.486
 2633SOL    HW1 1804   2.456   3.203   3.524
 2633SOL    HW2 1805   2.531   3.348   3.517
 2634SOL     OW 1806   3.686   2.054   3.089
 2634SOL    HW1 1807   3.682   1.964   3.133
 2634SOL    HW2 1808   3.689   2.043   2.990
 2635SOL     OW 1809   2.290   2.286   2.382
 2635SOL    HW1 1810   2.320   2.214   2.320
 2635SOL    HW2 1811   2.251   2.246   2.465
 2636SOL     OW 1812   3.567   3.349   2.966
 2636SOL    HW1 1813   3.474   3.324   2.939
 2636SOL    HW2 1814   3.593   3.299   3.048
 2637SOL     OW 1815   2.179   2.409   3.142
 2637SOL    HW1 1816   2.217   2.350   3.214
 2637SOL    HW2 1817   2.219   2.383   3.054
 2638SOL     OW 1818   2.674   3.448   2.549
 2638SOL    HW1 1819   2.706   3.458   2.455
 2638SOL    HW2 1820   2.595   3.386   2.551
 2639SOL     OW 1821   3.286   2.076   2.974
 2639SOL    HW1 1822   3.338   2.011   3.029
 2639SOL    HW2 1823   3.237   2.139   3.035
 2640SOL     OW 1824   2.863   1.896   3.016
 2640SOL    HW1 1825   2.800   1.824   2.985
 2640SOL    HW2 1826   2.956   1.860   3.016
 2641SOL     OW 1827   2.632   3.192   2.163
 2641SOL    HW1 1828   2.586   3.105   2.180
 2641SOL    HW2 1829   2.723   3.189   2.204
 2642SOL     OW 1830   2.480   3.429   3.146
 2642SOL    HW1 1831   2.475   3.511   3.203
 2642SOL    HW2 1832   2.569   3.426   3.101
 2643SOL     OW 1833   3.214   1.914   2.030
 2643SOL    HW1 1834   3.249   1.873   1.946
 2643SOL    HW2 1835   3.124   1.876   2.050
 2644SOL     OW 1836   3.162   2.315   2.553
 2644SOL    HW1 1837   3.103   2.395   2.557
 2644SOL    HW2 1838   3.177   2.280   2.646
 2645SOL     OW 1839   3.455   2.083   2.744
 2645SOL    HW1 1840   3.371   2.082   2.798
 2645SOL    HW2 1841   3.457   2.166   2.688
 2646SOL     OW 1842   1.901   2.939   2.162
 2646SOL    HW1 1843   2.000   2.928   2.153
 2646SOL    HW2 1844   1.861   2.853   2.194
 2647SOL     OW 1845   2.737   3.508   2.199
 2647SOL    HW1 1846   2.660   3.473   2.145
 2647SOL    HW2 1847   2.705   3.579   2.261
 2648SOL     OW 1848   2.092   2.490   3.837
 2648SOL    HW1 1849   1.999   2.488   3.874
 2648SOL    HW2 1850   2.093   2.451   3.745
 2654SOL     OW 1851   3.617   2.469   3.955
 2654SOL    HW1 1852   3.605   2.456   3.856
 2654SOL    HW2 1853   3.587   2.388   4.004
 2664SOL     OW 1854   2.468   2.826   3.847
 2664SOL    HW1 1855   2.475   2.910   3.793
 2664SOL    HW2 1856   2.514   2.839   3.935
 2667SOL     OW 1857   1.889   3.458   3.841
 2667SOL    HW1 1858   1.870   3.362   3.862
 2667SOL    HW2 1859   1.856   3.516   3.916
 2671SOL     OW 1860   2.671   1.866   4.226
 2671SOL    HW1 1861   2.711   1.957   4.217
 2671SOL    HW2 1862   2.571   1.874   4.232
 2673SOL     OW 1863   3.387   2.861   3.914
 2673SOL    HW1 1864   3.324   2.785   3.927
 2673SOL    HW2 1865   3.435   2.879   4.000
 2676SOL     OW 1866   2.460   2.591   3.994
 2676SOL    HW1 1867   2.484   2.660   3.926
 2676SOL    HW2 1868   2.382   2.624   4.048
 2681SOL     OW 1869   2.903   2.563   4.153
 2681SOL    HW1 1870   2.929   2.559   4.249
 2681SOL    HW2 1871   2.818   2.512   4.139
 2684SOL     OW 1872   2.727   2.210   3.919
 2684SOL    HW1 1873   2.786   2.273   3.870
 2684SOL    HW2 1874   2.746   2.116   3.890
 2687SOL     OW 1875   2.870   3.318   4.201
 2687SOL    HW1 1876   2.824   3.390   4.149
 2687SOL    HW2 1877   2.866   3.338   4.299
 2690SOL     OW 1878   2.183   2.805   3.966
 2690SOL    HW1 1879   2.265   2.844   3.924
 2690SOL    HW2 1880   2.156   2.723   3.917
 2692SOL     OW 1881   2.973   3.638   3.961
 2692SOL    HW1 1882   2.913   3.576   4.011
 2692SOL    HW2 1883   3.004   3.594   3.876
 2693SOL     OW 1884   3.494   3.239   3.805
 2693SOL    HW1 1885   3.462   3.333   3.795
 2693SOL    HW2 1886   3.418   3.176   3.793
 2694SOL     OW 1887   2.326   3.605   4.047
 2694SOL    HW1 1888   2.359   3.644   4.133
 2694SOL    HW2 1889   2.402   3.598   3.982
 2698SOL     OW 1890   2.244   2.562   4.204
 2698SOL    HW1 1891   2.289   2.472   4.201
 2698SOL    HW2 1892   2.150   2.551   4.237
 2699SOL     OW 1893   2.476   1.984   3.841
 2699SOL    HW1 1894   2.574   1.962   3.848
 2699SOL    HW2 1895   2.445   1.967   3.748
 2703SOL     OW 1896   2.401   1.926   4.236
 2703SOL    HW1 1897   2.320   1.927   4.294
 2703SOL    HW2 1898   2.404   2.009   4.181
 2704SOL     OW 1899   3.296   3.050   3.765
 2704SOL    HW1 1900   3.328   2.974   3.822
 2704SOL    HW2 1901   3.204   3.077   3.795
 2705SOL     OW 1902   2.159   1.897   3.895
 2705SOL    HW1 1903   2.208   1.981   3.874
 2705SOL    HW2 1904   2.221   1.832   3.940
 2706SOL     OW 1905   2.797   2.098   4.204
 2706SOL    HW1 1906   2.749   2.139   4.126
 2706SOL    HW2 1907   2.896   2.096   4.185
 2710SOL     OW 1908   2.894   2.411   3.740
 2710SOL    HW1 1909   2.853   2.493   3.701
 2710SOL    HW2 1910   2.958   2.437   3.813
 2712SOL     OW 1911   2.728   2.316   4.366
 2712SOL    HW1 1912   2.696   2.388   4.304
 2712SOL    HW2 1913   2.752   2.235   4.313
 2717SOL     OW 1914   2.350   3.247   3.898
 2717SOL    HW1 1915   2.263   3.232   3.945
 2717SOL    HW2 1916   2.333   3.273   3.803
 2719SOL     OW 1917   3.252   2.437   3.802
 2719SOL    HW1 1918   3.198   2.416   3.883
 2719SOL    HW2 1919   3.343   2.396   3.811
 2720SOL     OW 1920   2.389   2.118   4.052
 2720SOL    HW1 1921   2.416   2.059   3.977
 2720SOL    HW2 1922   2.389   2.213   4.021
 2725SOL     OW 1923   2.567   2.912   4.092
 2725SOL    HW1 1924   2.553   2.919   4.191
 2725SOL    HW2 1925   2.651   2.861   4.074
 2729SOL     OW 1926   2.229   2.962   4.225
 2729SOL    HW1 1927   2.222   3.045   4.169
 2729SOL    HW2 1928   2.233   2.882   4.165
 2731SOL     OW 1929   3.114   3.210   4.112
 2731SOL    HW1 1930   3.164   3.287   4.152
 2731SOL    HW2 1931   3.019   3.212   4.144
 2738SOL     OW 1932   3.071   2.387   3.999
 2738SOL    HW1 1933   3.084   2.303   4.053
 2738SOL    HW2 1934   3.042   2.461   4.059
 2743SOL     OW 1935   3.484   2.229   4.098
 2743SOL    HW1 1936   3.486   2.153   4.162
 2743SOL    HW2 1937   3.436   2.306   4.138
 2745SOL     OW 1938   3.402   2.136   3.849
 2745SOL    HW1 1939   3.341   2.061   3.872
 2745SOL    HW2 1940   3.424   2.188   3.932
 2746SOL     OW 1941   3.165   2.700   3.766
 2746SOL    HW1 1942   3.199   2.607   3.781
 2746SOL    HW2 1943   3.183   2.727   3.671
 2751SOL     OW 1944   1.870   3.188   3.924
 2751SOL    HW1 1945   1.777   3.209   3.893
 2751SOL    HW2 1946   1.880   3.089   3.937
 2756SOL     OW 1947   2.677   2.434   4.049
 2756SOL    HW1 1948   2.684   2.345   4.003
 2756SOL    HW2 1949   2.583   2.468   4.041
 2760SOL     OW 1950   2.335   2.362   3.915
 2760SOL    HW1 1951   2.396   2.442   3.919
 2760SOL    HW2 1952   2.240   2.393   3.922
 2763SOL     OW 1953   3.164   2.717   4.033
 2763SOL    HW1 1954   3.078   2.686   4.075
 2763SOL    HW2 1955   3.160   2.703   3.934
 2770SOL     OW 1956   2.534   3.478   3.878
 2770SOL    HW1 1957   2.543   3.488   3.779
 2770SOL    HW2 1958   2.494   3.389   3.899
 2773SOL     OW 1959   3.056   3.474   3.755
 2773SOL    HW1 1960   3.062   3.381   3.792
 2773SOL    HW2 1961   2.997   3.474   3.675
 2775SOL     OW 1962   2.778   2.772   4.015
 2775SOL    HW1 1963   2.841   2.810   3.947
 2775SOL    HW2 1964   2.818   2.689   4.054
 2776SOL     OW 1965   3.366   3.469   3.768
 2776SOL    HW1 1966   3.274   3.506   3.775
 2776SOL    HW2 1967   3.404   3.489   3.678
 2781SOL     OW 1968   2.452   3.349   4.215
 2781SOL    HW1 1969   2.494   3.291   4.145
 2781SOL    HW2 1970   2.408   3.428   4.171
 2783SOL     OW 1971   2.117   3.210   4.014
 2783SOL    HW1 1972   2.021   3.211   3.987
 2783SOL    HW2 1973   2.129   3.263   4.098
 2785SOL     OW 1974   1.937   2.207   3.757
 2785SOL    HW1 1975   1.845   2.179   3.728
 2785SOL    HW2 1976   1.968   2.284   3.701
 2786SOL     OW 1977   1.934   2.028   4.042
 2786SOL    HW1 1978   1.917   2.111   3.988
 2786SOL    HW2 1979   2.024   1.991   4.020
 2787SOL     OW 1980   3.045   3.197   3.843
 2787SOL    HW1 1981   2.946   3.186   3.845
 2787SOL    HW2 1982   3.079   3.212   3.936
 2792SOL     OW 1983   3.087   2.187   4.173
 2792SOL    HW1 1984   3.152   2.113   4.162
 2792SOL    HW2 1985   3.107   2.237   4.257
 2793SOL     OW 1986   2.456   2.607   4.376
 2793SOL    HW1 1987   2.506   2.692   4.357
 2793SOL    HW2 1988   2.368   2.609   4.328
 2795SOL     OW 1989   2.721   3.236   3.740
 2795SOL    HW1 1990   2.675   3.251   3.828
 2795SOL    HW2 1991   2.765   3.321   3.710
 2798SOL     OW 1992   2.945   2.846   3.811
 2798SOL    HW1 1993   2.922   2.899   3.729
 2798SOL    HW2 1994   3.026   2.790   3.792
 2802SOL     OW 1995   2.290   2.286   4.244
 2802SOL    HW1 1996   2.320   2.214   4.182
 2802SOL    HW2 1997   2.251   2.246   4.327
 2808SOL     OW 1998   2.632   3.192   4.025
 2808SOL    HW1 1999   2.586   3.105   4.042
 2808SOL    HW2 2000   2.723   3.189   4.066
 2810SOL     OW 2001   3.214   1.914   3.892
 2810SOL    HW1 2002   3.249   1.873   3.808
 2810SOL    HW2 2003   3.124   1.876   3.912
 2813SOL     OW 2004   1.901   2.939   4.024
 2813SOL    HW1 2005   2.000   2.928   4.015
 2813SOL    HW2 2006   1.861   2.853   4.056
 2814SOL     OW 2007   2.737   3.508   4.061
 2814SOL    HW1 2008   2.660   3.473   4.007
 2814SOL    HW2 2009   2.705   3.579   4.123
 2843SOL     OW 2010   2.179   3.975   1.801
 2843SOL    HW1 2011   2.250   4.046   1.807
 2843SOL    HW2 2012   2.091   4.014   1.829
 2865SOL     OW 2013   3.409   3.946   1.729
 2865SOL    HW1 2014   3.404   3.983   1.821
 2865SOL    HW2 2015   3.337   3.877   1.717
 2866SOL     OW 2016   2.643   3.988   1.749
 2866SOL    HW1 2017   2.710   3.927   1.792
 2866SOL    HW2 2018   2.570   4.007   1.814
 2890SOL     OW 2019   2.777   3.813   1.402
 2890SOL    HW1 2020   2.802   3.793   1.307
 2890SOL    HW2 2021   2.849   3.869   1.444
 2902SOL     OW 2022   2.875   3.829   1.770
 2902SOL    HW1 2023   2.881   3.914   1.718
 2902SOL    HW2 2024   2.907   3.753   1.713
 2903SOL     OW 2025   2.366   3.774   1.740
 2903SOL    HW1 2026   2.324   3.717   1.670
 2903SOL    HW2 2027   2.300   3.843   1.772
 2921SOL     OW 2028   3.022   3.931   1.477
 2921SOL    HW1 2029   3.022   3.995   1.554
 2921SOL    HW2 2030   3.050   3.979   1.394
 2948SOL     OW 2031   2.534   3.927   1.489
 2948SOL    HW1 2032   2.624   3.911   1.449
 2948SOL    HW2 2033   2.542   3.932   1.588
 2978SOL     OW 2034   2.087   3.999   2.858
 2978SOL    HW1 2035   2.122   3.982   2.950
 2978SOL    HW2 2036   1.999   3.954   2.846
 2979SOL     OW 2037   1.881   4.092   2.509
 2979SOL    HW1 2038   1.799   4.135   2.548
 2979SOL    HW2 2039   1.853   4.019   2.446
 2989SOL     OW 2040   2.300   4.116   3.361
 2989SOL    HW1 2041   2.382   4.060   3.370
 2989SOL    HW2 2042   2.219   4.058   3.365
 2995SOL     OW 2043   3.456   3.838   3.342
 2995SOL    HW1 2044   3.438   3.905   3.270
 2995SOL    HW2 2045   3.453   3.884   3.431
 3002SOL     OW 2046   2.671   3.728   2.364
 3002SOL    HW1 2047   2.711   3.819   2.355
 3002SOL    HW2 2048   2.571   3.736   2.370
 3005SOL     OW 2049   2.179   3.975   3.663
 3005SOL    HW1 2050   2.250   4.046   3.669
 3005SOL    HW2 2051   2.091   4.014   3.691
 3008SOL     OW 2052   3.143   4.069   2.806
 3008SOL    HW1 2053   3.057   4.019   2.793
 3008SOL    HW2 2054   3.205   4.015   2.862
 3012SOL     OW 2055   2.853   4.134   3.104
 3012SOL    HW1 2056   2.776   4.168   3.158
 3012SOL    HW2 2057   2.819   4.083   3.025
 3015SOL     OW 2058   2.727   4.072   2.057
 3015SOL    HW1 2059   2.786   4.135   2.008
 3015SOL    HW2 2060   2.746   3.978   2.028
 3018SOL     OW 2061   2.412   3.920   2.747
 3018SOL    HW1 2062   2.407   3.915   2.847
 3018SOL    HW2 2063   2.414   4.016   2.718
 3024SOL     OW 2064   2.064   4.009   3.360
 3024SOL    HW1 2065   1.984   4.069   3.347
 3024SOL    HW2 2066   2.054   3.960   3.446
 3026SOL     OW 2067   3.262   3.831   2.288
 3026SOL    HW1 2068   3.238   3.794   2.198
 3026SOL    HW2 2069   3.361   3.847   2.292
 3029SOL     OW 2070   2.476   3.846   1.979
 3029SOL    HW1 2071   2.574   3.824   1.986
 3029SOL    HW2 2072   2.445   3.829   1.886
 3030SOL     OW 2073   2.643   3.988   3.611
 3030SOL    HW1 2074   2.710   3.927   3.654
 3030SOL    HW2 2075   2.570   4.007   3.676
 3032SOL     OW 2076   2.784   4.227   2.761
 3032SOL    HW1 2077   2.759   4.218   2.665
 3032SOL    HW2 2078   2.832   4.145   2.792
 3033SOL     OW 2079   2.401   3.788   2.374
 3033SOL    HW1 2080   2.320   3.789   2.432
 3033SOL    HW2 2081   2.404   3.871   2.319
 3035SOL     OW 2082   2.159   3.759   2.033
 3035SOL    HW1 2083   2.208   3.843   2.012
 3035SOL    HW2 2084   2.221   3.694   2.078
 3036SOL     OW 2085   2.797   3.960   2.342
 3036SOL    HW1 2086   2.749   4.001   2.264
 3036SOL    HW2 2087   2.896   3.958   2.323
 3042SOL     OW 2088   2.423   3.946   3.009
 3042SOL    HW1 2089   2.461   3.862   3.046
 3042SOL    HW2 2090   2.335   3.965   3.053
 3043SOL     OW 2091   2.728   4.178   2.504
 3043SOL    HW1 2092   2.696   4.250   2.442
 3043SOL    HW2 2093   2.752   4.097   2.451
 3044SOL     OW 2094   2.879   3.763   2.615
 3044SOL    HW1 2095   2.807   3.768   2.546
 3044SOL    HW2 2096   2.855   3.694   2.684
 3050SOL     OW 2097   2.389   3.980   2.190
 3050SOL    HW1 2098   2.416   3.921   2.115
 3050SOL    HW2 2099   2.389   4.075   2.159
 3055SOL     OW 2100   2.777   3.813   3.264
 3055SOL    HW1 2101   2.802   3.793   3.169
 3055SOL    HW2 2102   2.849   3.869   3.306
 3059SOL     OW 2103   3.136   4.110   3.124
 3059SOL    HW1 2104   3.157   4.184   3.188
 3059SOL    HW2 2105   3.047   4.127   3.081
 3061SOL     OW 2106   2.428   4.261   2.727
 3061SOL    HW1 2107   2.440   4.327   2.653
 3061SOL    HW2 2108   2.474   4.295   2.810
 3067SOL     OW 2109   2.875   3.829   3.632
 3067SOL    HW1 2110   2.881   3.914   3.580
 3067SOL    HW2 2111   2.907   3.753   3.575
 3068SOL     OW 2112   2.366   3.774   3.602
 3068SOL    HW1 2113   2.324   3.717   3.532
 3068SOL    HW2 2114   2.300   3.843   3.634
 3071SOL     OW 2115   3.071   4.249   2.137
 3071SOL    HW1 2116   3.084   4.165   2.191
 3071SOL    HW2 2117   3.042   4.323   2.197
 3072SOL     OW 2118   2.169   3.937   3.093
 3072SOL    HW1 2119   2.146   3.974   3.183
 3072SOL    HW2 2120   2.139   3.842   3.087
 3074SOL     OW 2121   2.594   4.358   2.926
 3074SOL    HW1 2122   2.653   4.332   2.850
 3074SOL    HW2 2123   2.566   4.454   2.915
 3076SOL     OW 2124   2.169   3.787   2.480
 3076SOL    HW1 2125   2.158   3.881   2.513
 3076SOL    HW2 2126   2.164   3.724   2.557
 3077SOL     OW 2127   3.484   4.091   2.236
 3077SOL    HW1 2128   3.486   4.015   2.300
 3077SOL    HW2 2129   3.436   4.168   2.276
 3081SOL     OW 2130   3.402   3.998   1.987
 3081SOL    HW1 2131   3.341   3.923   2.010
 3081SOL    HW2 2132   3.424   4.050   2.070
 3084SOL     OW 2133   2.201   4.233   2.868
 3084SOL    HW1 2134   2.149   4.150   2.851
 3084SOL    HW2 2135   2.278   4.238   2.804
 3086SOL     OW 2136   3.022   3.931   3.339
 3086SOL    HW1 2137   3.022   3.995   3.416
 3086SOL    HW2 2138   3.050   3.979   3.256
 3092SOL     OW 2139   2.677   4.296   2.187
 3092SOL    HW1 2140   2.684   4.207   2.141
 3092SOL    HW2 2141   2.583   4.330   2.179
 3094SOL     OW 2142   2.533   4.188   3.131
 3094SOL    HW1 2143   2.499   4.099   3.101
 3094SOL    HW2 2144   2.559   4.242   3.051
 3095SOL     OW 2145   2.335   4.224   2.053
 3095SOL    HW1 2146   2.396   4.304   2.057
 3095SOL    HW2 2147   2.240   4.255   2.060
 3100SOL     OW 2148   3.588   3.859   2.385
 3100SOL    HW1 2149   3.661   3.842   2.318
 3100SOL    HW2 2150   3.557   3.772   2.423
 3103SOL     OW 2151   3.703   3.899   2.825
 3103SOL    HW1 2152   3.742   3.814   2.789
 3103SOL    HW2 2153   3.605   3.901   2.806
 3104SOL     OW 2154   2.125   4.050   2.582
 3104SOL    HW1 2155   2.046   4.101   2.548
 3104SOL    HW2 2156   2.116   4.035   2.680
 3110SOL     OW 2157   2.876   3.960   2.833
 3110SOL    HW1 2158   2.868   3.924   2.740
 3110SOL    HW2 2159   2.874   3.884   2.898
 3113SOL     OW 2160   2.534   3.927   3.351
 3113SOL    HW1 2161   2.624   3.911   3.311
 3113SOL    HW2 2162   2.542   3.932   3.450
 3114SOL     OW 2163   1.937   4.069   1.895
 3114SOL    HW1 2164   1.845   4.041   1.866
 3114SOL    HW2 2165   1.968   4.146   1.839
 3116SOL     OW 2166   1.934   3.890   2.180
 3116SOL    HW1 2167   1.917   3.973   2.126
 3116SOL    HW2 2168   2.024   3.853   2.158
 3122SOL     OW 2169   3.087   4.049   2.311
 3122SOL    HW1 2170   3.152   3.975   2.300
 3122SOL    HW2 2171   3.107   4.099   2.395
 3132SOL     OW 2172   3.686   3.916   3.089
 3132SOL    HW1 2173   3.682   3.826   3.133
 3132SOL    HW2 2174   3.689   3.905   2.990
 3133SOL     OW 2175   2.290   4.148   2.382
 3133SOL    HW1 2176   2.320   4.076   2.320
 3133SOL    HW2 2177   2.251   4.108   2.465
 3136SOL     OW 2178   3.286   3.938   2.974
 3136SOL    HW1 2179   3.338   3.873   3.029
 3136SOL    HW2 2180   3.237   4.001   3.035
 3137SOL     OW 2181   2.863   3.758   3.016
 3137SOL    HW1 2182   2.800   3.686   2.985
 3137SOL    HW2 2183   2.956   3.722   3.016
 3139SOL     OW 2184   3.214   3.776   2.030
 3139SOL    HW1 2185   3.249   3.735   1.946
 3139SOL    HW2 2186   3.124   3.738   2.050
 3140SOL     OW 2187   3.162   4.177   2.553
 3140SOL    HW1 2188   3.103   4.257   2.557
 3140SOL    HW2 2189   3.177   4.142   2.646
 3141SOL     OW 2190   3.455   3.945   2.744
 3141SOL    HW1 2191   3.371   3.944   2.798
 3141SOL    HW2 2192   3.457   4.028   2.688
 3183SOL     OW 2193   2.476   3.846   3.841
 3183SOL    HW1 2194   2.574   3.824   3.848
 3183SOL    HW2 2195   2.445   3.829   3.748
 3187SOL     OW 2196   2.159   3.759   3.895
 3187SOL    HW1 2197   2.208   3.843   3.874
 3187SOL    HW2 2198   2.221   3.694   3.940
 3311SOL     OW 2199   3.854   1.821   1.571
 3311SOL    HW1 2200   3.844   1.806   1.670
 3311SOL    HW2 2201   3.768   1.857   1.535
 3400SOL     OW 2202   3.854   1.794   1.851
 3400SOL    HW1 2203   3.813   1.720   1.904
 3400SOL    HW2 2204   3.918   1.845   1.909
 3453SOL     OW 2205   3.955   1.713   2.345
 3453SOL    HW1 2206   3.989   1.790   2.399
 3453SOL    HW2 2207   3.999   1.713   2.255
 3455SOL     OW 2208   3.954   1.434   2.400
 3455SOL    HW1 2209   3.928   1.530   2.400
 3455SOL    HW2 2210   3.883   1.380   2.445
 3460SOL     OW 2211   3.751   1.596   1.979
 3460SOL    HW1 2212   3.732   1.500   2.000
 3460SOL    HW2 2213   3.718   1.654   2.054
 3477SOL     OW 2214   3.854   1.821   3.433
 3477SOL    HW1 2215   3.844   1.806   3.532
 3477SOL    HW2 2216   3.768   1.857   3.397
 3482SOL     OW 2217   4.075   1.801   2.715
 3482SOL    HW1 2218   4.125   1.715   2.721
 3482SOL    HW2 2219   4.140   1.878   2.712
 3489SOL     OW 2220   3.973   1.785   3.103
 3489SOL    HW1 2221   4.030   1.720   3.153
 3489SOL    HW2 2222   3.957   1.752   3.010
 3521SOL     OW 2223   3.788   1.564   3.193
 3521SOL    HW1 2224   3.742   1.646   3.159
 3521SOL    HW2 2225   3.886   1.583   3.202
 3546SOL     OW 2226   3.732   1.326   2.062
 3546SOL    HW1 2227   3.639   1.347   2.031
 3546SOL    HW2 2228   3.742   1.227   2.075
 3547SOL     OW 2229   3.812   1.801   2.789
 3547SOL    HW1 2230   3.770   1.715   2.762
 3547SOL    HW2 2231   3.906   1.804   2.755
 3755SOL     OW 2232   3.837   2.599   1.597
 3755SOL    HW1 2233   3.925   2.586   1.642
 3755SOL    HW2 2234   3.824   2.696   1.575
 3761SOL     OW 2235   4.041   2.113   1.801
 3761SOL    HW1 2236   4.112   2.184   1.807
 3761SOL    HW2 2237   3.953   2.152   1.829
 3780SOL     OW 2238   3.926   2.147   1.498
 3780SOL    HW1 2239   3.846   2.207   1.485
 3780SOL    HW2 2240   3.916   2.098   1.584
 3799SOL     OW 2241   3.802   2.418   1.386
 3799SOL    HW1 2242   3.894   2.417   1.345
 3799SOL    HW2 2243   3.796   2.492   1.453
 3832SOL     OW 2244   4.074   2.760   1.804
 3832SOL    HW1 2245   4.150   2.804   1.852
 3832SOL    HW2 2246   4.109   2.713   1.722
 3843SOL     OW 2247   3.913   2.382   1.722
 3843SOL    HW1 2248   3.972   2.342   1.652
 3843SOL    HW2 2249   3.855   2.453   1.681
 3850SOL     OW 2250   3.883   2.999   1.466
 3850SOL    HW1 2251   3.905   2.938   1.542
 3850SOL    HW2 2252   3.893   2.950   1.380
 3871SOL     OW 2253   3.829   2.875   1.726
 3871SOL    HW1 2254   3.752   2.842   1.780
 3871SOL    HW2 2255   3.914   2.845   1.768
 3887SOL     OW 2256   3.945   3.176   1.844
 3887SOL    HW1 2257   3.880   3.103   1.823
 3887SOL    HW2 2258   3.949   3.190   1.942
 3899SOL     OW 2259   3.954   2.490   1.975
 3899SOL    HW1 2260   3.861   2.488   2.012
 3899SOL    HW2 2261   3.955   2.451   1.883
 3900SOL     OW 2262   3.949   2.137   2.858
 3900SOL    HW1 2263   3.984   2.120   2.950
 3900SOL    HW2 2264   3.861   2.092   2.846
 3901SOL     OW 2265   3.743   2.230   2.509
 3901SOL    HW1 2266   3.661   2.273   2.548
 3901SOL    HW2 2267   3.715   2.157   2.446
 3909SOL     OW 2268   4.059   3.297   2.923
 3909SOL    HW1 2269   3.981   3.266   2.870
 3909SOL    HW2 2270   4.117   3.355   2.866
 3910SOL     OW 2271   4.162   2.254   3.361
 3910SOL    HW1 2272   4.244   2.198   3.370
 3910SOL    HW2 2273   4.081   2.196   3.365
 3911SOL     OW 2274   3.955   3.575   2.345
 3911SOL    HW1 2275   3.989   3.652   2.399
 3911SOL    HW2 2276   3.999   3.575   2.255
 3913SOL     OW 2277   3.954   3.296   2.400
 3913SOL    HW1 2278   3.928   3.392   2.400
 3913SOL    HW2 2279   3.883   3.242   2.445
 3914SOL     OW 2280   3.964   2.953   2.748
 3914SOL    HW1 2281   3.978   2.869   2.800
 3914SOL    HW2 2282   3.909   3.017   2.803
 3917SOL     OW 2283   3.846   2.505   2.425
 3917SOL    HW1 2284   3.801   2.417   2.442
 3917SOL    HW2 2285   3.845   2.559   2.509
 3918SOL     OW 2286   3.751   3.458   1.979
 3918SOL    HW1 2287   3.732   3.362   2.000
 3918SOL    HW2 2288   3.718   3.516   2.054
 3920SOL     OW 2289   3.837   2.599   3.459
 3920SOL    HW1 2290   3.925   2.586   3.504
 3920SOL    HW2 2291   3.824   2.696   3.437
 3924SOL     OW 2292   3.921   2.838   3.126
 3924SOL    HW1 2293   4.010   2.793   3.112
 3924SOL    HW2 2294   3.848   2.773   3.107
 3927SOL     OW 2295   4.322   2.591   2.132
 3927SOL    HW1 2296   4.346   2.660   2.064
 3927SOL    HW2 2297   4.244   2.624   2.186
 3934SOL     OW 2298   3.800   2.673   2.651
 3934SOL    HW1 2299   3.899   2.661   2.660
 3934SOL    HW2 2300   3.776   2.768   2.672
 3938SOL     OW 2301   4.274   2.058   2.747
 3938SOL    HW1 2302   4.269   2.053   2.847
 3938SOL    HW2 2303   4.276   2.154   2.718
 3942SOL     OW 2304   4.045   2.805   2.104
 3942SOL    HW1 2305   4.127   2.844   2.062
 3942SOL    HW2 2306   4.018   2.723   2.055
 3945SOL     OW 2307   3.926   2.147   3.360
 3945SOL    HW1 2308   3.846   2.207   3.347
 3945SOL    HW2 2309   3.916   2.098   3.446
 3949SOL     OW 2310   4.106   2.562   2.342
 3949SOL    HW1 2311   4.151   2.472   2.339
 3949SOL    HW2 2312   4.012   2.551   2.375
 3958SOL     OW 2313   4.021   1.897   2.033
 3958SOL    HW1 2314   4.070   1.981   2.012
 3958SOL    HW2 2315   4.083   1.832   2.078
 3962SOL     OW 2316   4.183   3.014   2.603
 3962SOL    HW1 2317   4.112   2.987   2.668
 3962SOL    HW2 2318   4.157   2.986   2.510
 3965SOL     OW 2319   3.802   2.418   3.248
 3965SOL    HW1 2320   3.894   2.417   3.207
 3965SOL    HW2 2321   3.796   2.492   3.315
 3971SOL     OW 2322   4.251   2.118   2.190
 3971SOL    HW1 2323   4.278   2.059   2.115
 3971SOL    HW2 2324   4.251   2.213   2.159
 3977SOL     OW 2325   4.134   2.675   3.113
 3977SOL    HW1 2326   4.220   2.687   3.163
 3977SOL    HW2 2327   4.092   2.588   3.140
 3979SOL     OW 2328   3.788   3.426   3.193
 3979SOL    HW1 2329   3.742   3.508   3.159
 3979SOL    HW2 2330   3.886   3.445   3.202
 3980SOL     OW 2331   4.091   2.962   2.363
 3980SOL    HW1 2332   4.084   3.045   2.307
 3980SOL    HW2 2333   4.095   2.882   2.303
 3981SOL     OW 2334   4.290   2.399   2.727
 3981SOL    HW1 2335   4.302   2.465   2.653
 3981SOL    HW2 2336   4.336   2.433   2.810
 3984SOL     OW 2337   4.078   3.372   3.191
 3984SOL    HW1 2338   4.057   3.328   3.104
 3984SOL    HW2 2339   4.175   3.398   3.194
 3985SOL     OW 2340   4.126   2.613   3.460
 3985SOL    HW1 2341   4.194   2.668   3.413
 3985SOL    HW2 2342   4.166   2.525   3.487
 3988SOL     OW 2343   4.297   2.732   2.891
 3988SOL    HW1 2344   4.341   2.821   2.882
 3988SOL    HW2 2345   4.234   2.732   2.968
 3991SOL     OW 2346   4.031   2.075   3.093
 3991SOL    HW1 2347   4.008   2.112   3.183
 3991SOL    HW2 2348   4.001   1.980   3.087
 3992SOL     OW 2349   3.761   3.172   3.144
 3992SOL    HW1 2350   3.814   3.123   3.212
 3992SOL    HW2 2351   3.783   3.270   3.149
 3994SOL     OW 2352   4.031   1.925   2.480
 3994SOL    HW1 2353   4.020   2.019   2.513
 3994SOL    HW2 2354   4.026   1.862   2.557
 4001SOL     OW 2355   4.043   2.672   2.811
 4001SOL    HW1 2356   4.136   2.708   2.816
 4001SOL    HW2 2357   4.037   2.587   2.863
 4002SOL     OW 2358   4.063   2.371   2.868
 4002SOL    HW1 2359   4.011   2.288   2.851
 4002SOL    HW2 2360   4.140   2.376   2.804
 4005SOL     OW 2361   3.732   3.188   2.062
 4005SOL    HW1 2362   3.639   3.209   2.031
 4005SOL    HW2 2363   3.742   3.089   2.075
 4006SOL     OW 2364   3.812   3.663   2.789
 4006SOL    HW1 2365   3.770   3.577   2.762
 4006SOL    HW2 2366   3.906   3.666   2.755
 4009SOL     OW 2367   3.764   2.406   2.976
 4009SOL    HW1 2368   3.849   2.373   2.935
 4009SOL    HW2 2369   3.777   2.421   3.074
 4010SOL     OW 2370   3.913   2.382   3.584
 4010SOL    HW1 2371   3.972   2.342   3.514
 4010SOL    HW2 2372   3.855   2.453   3.543
 4016SOL     OW 2373   4.197   2.362   2.053
 4016SOL    HW1 2374   4.258   2.442   2.057
 4016SOL    HW2 2375   4.102   2.393   2.060
 4017SOL     OW 2376   3.883   2.999   3.328
 4017SOL    HW1 2377   3.905   2.938   3.404
 4017SOL    HW2 2378   3.893   2.950   3.242
 4021SOL     OW 2379   3.807   3.120   2.884
 4021SOL    HW1 2380   3.802   3.119   2.984
 4021SOL    HW2 2381   3.724   3.079   2.846
 4028SOL     OW 2382   3.987   2.188   2.582
 4028SOL    HW1 2383   3.908   2.239   2.548
 4028SOL    HW2 2384   3.978   2.173   2.680
 4032SOL     OW 2385   4.096   3.150   3.352
 4032SOL    HW1 2386   4.083   3.243   3.318
 4032SOL    HW2 2387   4.012   3.098   3.339
 4036SOL     OW 2388   3.979   3.210   2.152
 4036SOL    HW1 2389   3.883   3.211   2.125
 4036SOL    HW2 2390   3.991   3.263   2.236
 4037SOL     OW 2391   3.829   2.875   3.588
 4037SOL    HW1 2392   3.752   2.842   3.642
 4037SOL    HW2 2393   3.914   2.845   3.630
 4039SOL     OW 2394   3.799   2.207   1.895
 4039SOL    HW1 2395   3.707   2.179   1.866
 4039SOL    HW2 2396   3.830   2.284   1.839
 4041SOL     OW 2397   3.796   2.028   2.180
 4041SOL    HW1 2398   3.779   2.111   2.126
 4041SOL    HW2 2399   3.886   1.991   2.158
 4048SOL     OW 2400   4.318   2.607   2.514
 4048SOL    HW1 2401   4.368   2.692   2.495
 4048SOL    HW2 2402   4.230   2.609   2.466
 4054SOL     OW 2403   3.803   3.102   2.515
 4054SOL    HW1 2404   3.802   3.055   2.603
 4054SOL    HW2 2405   3.885   3.074   2.464
 4056SOL     OW 2406   4.152   2.286   2.382
 4056SOL    HW1 2407   4.182   2.214   2.320
 4056SOL    HW2 2408   4.113   2.246   2.465
 4057SOL     OW 2409   4.041   2.409   3.142
 4057SOL    HW1 2410   4.079   2.350   3.214
 4057SOL    HW2 2411   4.081   2.383   3.054
 4064SOL     OW 2412   3.763   2.939   2.162
 4064SOL    HW1 2413   3.862   2.928   2.153
 4064SOL    HW2 2414   3.723   2.853   2.194
 4177SOL     OW 2415   3.799   2.207   3.757
 4177SOL    HW1 2416   3.707   2.179   3.728
 4177SOL    HW2 2417   3.830   2.284   3.701
   5.18959   5.18959   5.18959
