mobley_7176248_GMX.gro created by acpype (v: 2023.10.27) on Tue May 19 14:01:49 2026
 2388
    1MOL     C1    1   2.698   2.290   2.588
    1MOL     C2    2   2.481   2.234   2.503
    1MOL     C3    3   2.604   2.192   2.554
    1MOL     C4    4   2.669   2.427   2.571
    1MOL     C5    5   2.455   2.372   2.487
    1MOL     C6    6   2.546   2.474   2.521
    1MOL     C7    7   2.392   2.736   2.847
    1MOL     C8    8   2.521   2.818   2.185
    1MOL     C9    9   2.402   2.643   2.727
    1MOL    C10   10   2.464   2.756   2.311
    1MOL    C11   11   2.504   2.694   2.625
    1MOL    C12   12   2.569   2.672   2.384
    1MOL    C13   13   2.633   2.045   2.575
    1MOL     N1   14   2.509   2.608   2.504
    1MOL     N2   15   2.776   2.518   2.605
    1MOL     N3   16   2.325   2.406   2.432
    1MOL     O1   17   2.838   2.570   2.511
    1MOL     O2   18   2.800   2.533   2.725
    1MOL     O3   19   2.230   2.410   2.511
    1MOL     O4   20   2.319   2.421   2.309
    1MOL     F1   21   2.765   2.015   2.558
    1MOL     F2   22   2.601   2.004   2.701
    1MOL     F3   23   2.565   1.965   2.490
    1MOL     H1   24   2.795   2.259   2.629
    1MOL     H2   25   2.405   2.161   2.476
    1MOL     H3   26   2.489   2.744   2.898
    1MOL     H4   27   2.360   2.836   2.816
    1MOL     H5   28   2.319   2.698   2.918
    1MOL     H6   29   2.605   2.884   2.208
    1MOL     H7   30   2.556   2.741   2.115
    1MOL     H8   31   2.444   2.877   2.134
    1MOL     H9   32   2.304   2.634   2.680
    1MOL    H10   33   2.430   2.543   2.762
    1MOL    H11   34   2.378   2.693   2.284
    1MOL    H12   35   2.426   2.835   2.376
    1MOL    H13   36   2.474   2.795   2.595
    1MOL    H14   37   2.603   2.704   2.670
    1MOL    H15   38   2.607   2.596   2.315
    1MOL    H16   39   2.653   2.735   2.414
   35SOL     OW   40   1.187   1.792   1.616
   35SOL    HW1   41   1.211   1.852   1.540
   35SOL    HW2   42   1.194   1.697   1.586
   95SOL     OW   43   1.754   1.223   1.588
   95SOL    HW1   44   1.845   1.184   1.575
   95SOL    HW2   45   1.762   1.319   1.612
   97SOL     OW   46   1.592   1.629   1.625
   97SOL    HW1   47   1.619   1.663   1.535
   97SOL    HW2   48   1.671   1.591   1.671
  127SOL     OW   49   1.859   1.518   1.605
  127SOL    HW1   50   1.873   1.545   1.510
  127SOL    HW2   51   1.942   1.540   1.658
  152SOL     OW   52   1.759   1.747   1.154
  152SOL    HW1   53   1.820   1.777   1.081
  152SOL    HW2   54   1.721   1.658   1.132
  163SOL     OW   55   1.650   1.720   1.394
  163SOL    HW1   56   1.703   1.730   1.310
  163SOL    HW2   57   1.623   1.810   1.428
  219SOL     OW   58   1.555   1.511   2.565
  219SOL    HW1   59   1.498   1.495   2.646
  219SOL    HW2   60   1.496   1.521   2.485
  227SOL     OW   61   1.460   1.505   3.201
  227SOL    HW1   62   1.484   1.599   3.227
  227SOL    HW2   63   1.444   1.451   3.283
  238SOL     OW   64   1.842   1.767   2.221
  238SOL    HW1   65   1.896   1.738   2.301
  238SOL    HW2   66   1.872   1.857   2.192
  241SOL     OW   67   1.641   1.108   2.294
  241SOL    HW1   68   1.727   1.110   2.242
  241SOL    HW2   69   1.655   1.155   2.382
  248SOL     OW   70   1.187   1.792   3.478
  248SOL    HW1   71   1.211   1.852   3.402
  248SOL    HW2   72   1.194   1.697   3.448
  250SOL     OW   73   1.466   1.417   2.815
  250SOL    HW1   74   1.407   1.423   2.895
  250SOL    HW2   75   1.451   1.329   2.769
  251SOL     OW   76   1.667   1.714   2.434
  251SOL    HW1   77   1.626   1.691   2.346
  251SOL    HW2   78   1.649   1.640   2.499
  254SOL     OW   79   1.576   1.662   2.169
  254SOL    HW1   80   1.665   1.708   2.172
  254SOL    HW2   81   1.555   1.638   2.074
  268SOL     OW   82   1.795   1.066   2.735
  268SOL    HW1   83   1.733   1.051   2.659
  268SOL    HW2   84   1.743   1.077   2.820
  273SOL     OW   85   1.111   1.776   2.099
  273SOL    HW1   86   1.051   1.714   2.149
  273SOL    HW2   87   1.142   1.732   2.014
  275SOL     OW   88   1.632   1.377   1.943
  275SOL    HW1   89   1.600   1.471   1.933
  275SOL    HW2   90   1.556   1.314   1.931
  293SOL     OW   91   1.227   1.570   2.655
  293SOL    HW1   92   1.248   1.644   2.590
  293SOL    HW2   93   1.295   1.570   2.728
  295SOL     OW   94   1.271   1.797   2.453
  295SOL    HW1   95   1.315   1.861   2.389
  295SOL    HW2   96   1.221   1.849   2.523
  301SOL     OW   97   1.429   1.173   2.729
  301SOL    HW1   98   1.374   1.089   2.722
  301SOL    HW2   99   1.455   1.202   2.637
  305SOL     OW  100   1.664   1.280   2.519
  305SOL    HW1  101   1.763   1.288   2.533
  305SOL    HW2  102   1.619   1.364   2.550
  308SOL     OW  103   1.754   1.223   3.450
  308SOL    HW1  104   1.845   1.184   3.437
  308SOL    HW2  105   1.762   1.319   3.474
  310SOL     OW  106   1.592   1.629   3.487
  310SOL    HW1  107   1.619   1.663   3.397
  310SOL    HW2  108   1.671   1.591   3.533
  312SOL     OW  109   1.638   1.099   2.941
  312SOL    HW1  110   1.643   1.180   3.000
  312SOL    HW2  111   1.552   1.101   2.890
  321SOL     OW  112   1.252   1.348   2.250
  321SOL    HW1  113   1.302   1.425   2.290
  321SOL    HW2  114   1.157   1.350   2.282
  322SOL     OW  115   1.272   1.445   3.004
  322SOL    HW1  116   1.319   1.458   3.091
  322SOL    HW2  117   1.206   1.371   3.013
  340SOL     OW  118   1.859   1.518   3.467
  340SOL    HW1  119   1.873   1.545   3.372
  340SOL    HW2  120   1.942   1.540   3.520
  365SOL     OW  121   1.759   1.747   3.016
  365SOL    HW1  122   1.820   1.777   2.943
  365SOL    HW2  123   1.721   1.658   2.994
  366SOL     OW  124   1.252   1.731   2.990
  366SOL    HW1  125   1.336   1.736   2.936
  366SOL    HW2  126   1.229   1.635   3.008
  370SOL     OW  127   1.388   1.573   2.339
  370SOL    HW1  128   1.455   1.585   2.265
  370SOL    HW2  129   1.348   1.662   2.362
  375SOL     OW  130   1.650   1.720   3.256
  375SOL    HW1  131   1.703   1.730   3.172
  375SOL    HW2  132   1.623   1.810   3.290
  378SOL     OW  133   1.194   1.612   1.893
  378SOL    HW1  134   1.200   1.519   1.930
  378SOL    HW2  135   1.135   1.612   1.813
  381SOL     OW  136   1.504   1.607   1.906
  381SOL    HW1  137   1.412   1.644   1.913
  381SOL    HW2  138   1.542   1.627   1.816
  383SOL     OW  139   1.614   1.292   3.151
  383SOL    HW1  140   1.674   1.295   3.231
  383SOL    HW2  141   1.539   1.356   3.164
  396SOL     OW  142   1.493   1.767   2.821
  396SOL    HW1  143   1.526   1.831   2.752
  396SOL    HW2  144   1.559   1.761   2.896
  409SOL     OW  145   1.861   1.569   2.713
  409SOL    HW1  146   1.790   1.557   2.643
  409SOL    HW2  147   1.862   1.490   2.773
  415SOL     OW  148   1.705   1.487   2.966
  415SOL    HW1  149   1.612   1.462   2.939
  415SOL    HW2  150   1.731   1.437   3.048
  596SOL     OW  151   1.127   3.203   1.690
  596SOL    HW1  152   1.174   3.203   1.778
  596SOL    HW2  153   1.079   3.116   1.679
  601SOL     OW  154   1.594   1.976   1.480
  601SOL    HW1  155   1.576   2.043   1.408
  601SOL    HW2  156   1.591   2.022   1.569
  609SOL     OW  157   1.293   3.090   1.423
  609SOL    HW1  158   1.330   3.017   1.365
  609SOL    HW2  159   1.345   3.095   1.508
  621SOL     OW  160   1.394   2.331   1.674
  621SOL    HW1  161   1.374   2.374   1.762
  621SOL    HW2  162   1.472   2.269   1.683
  628SOL     OW  163   1.719   2.447   1.831
  628SOL    HW1  164   1.693   2.536   1.795
  628SOL    HW2  165   1.717   2.379   1.758
  646SOL     OW  166   1.547   2.084   1.729
  646SOL    HW1  167   1.542   2.121   1.821
  646SOL    HW2  168   1.475   2.015   1.717
  650SOL     OW  169   1.351   2.452   1.433
  650SOL    HW1  170   1.379   2.409   1.518
  650SOL    HW2  171   1.376   2.548   1.434
  657SOL     OW  172   1.076   2.545   1.464
  657SOL    HW1  173   0.996   2.484   1.467
  657SOL    HW2  174   1.157   2.492   1.440
  673SOL     OW  175   1.754   3.085   1.588
  673SOL    HW1  176   1.845   3.046   1.575
  673SOL    HW2  177   1.762   3.181   1.612
  675SOL     OW  178   1.592   3.491   1.625
  675SOL    HW1  179   1.619   3.525   1.535
  675SOL    HW2  180   1.671   3.453   1.671
  677SOL     OW  181   1.638   2.961   1.079
  677SOL    HW1  182   1.643   3.042   1.138
  677SOL    HW2  183   1.552   2.963   1.028
  691SOL     OW  184   1.587   2.641   1.670
  691SOL    HW1  185   1.495   2.679   1.665
  691SOL    HW2  186   1.647   2.688   1.605
  692SOL     OW  187   1.013   1.967   1.770
  692SOL    HW1  188   1.019   2.052   1.718
  692SOL    HW2  189   1.045   1.891   1.713
  700SOL     OW  190   1.728   2.797   1.854
  700SOL    HW1  191   1.682   2.790   1.765
  700SOL    HW2  192   1.666   2.841   1.920
  705SOL     OW  193   1.859   3.380   1.605
  705SOL    HW1  194   1.873   3.407   1.510
  705SOL    HW2  195   1.942   3.402   1.658
  712SOL     OW  196   1.138   2.242   1.678
  712SOL    HW1  197   1.093   2.305   1.742
  712SOL    HW2  198   1.231   2.273   1.661
  713SOL     OW  199   1.160   2.069   1.477
  713SOL    HW1  200   1.160   2.133   1.554
  713SOL    HW2  201   1.188   2.117   1.394
  720SOL     OW  202   1.369   2.812   1.660
  720SOL    HW1  203   1.408   2.901   1.680
  720SOL    HW2  204   1.379   2.792   1.563
  722SOL     OW  205   1.657   2.466   1.206
  722SOL    HW1  206   1.619   2.397   1.268
  722SOL    HW2  207   1.739   2.430   1.162
  728SOL     OW  208   1.347   2.921   1.234
  728SOL    HW1  209   1.371   2.858   1.160
  728SOL    HW2  210   1.257   2.961   1.216
  741SOL     OW  211   1.650   3.582   1.394
  741SOL    HW1  212   1.703   3.592   1.310
  741SOL    HW2  213   1.623   3.672   1.428
  742SOL     OW  214   1.841   2.037   0.963
  742SOL    HW1  215   1.880   1.952   0.927
  742SOL    HW2  216   1.743   2.039   0.944
  749SOL     OW  217   1.614   3.154   1.289
  749SOL    HW1  218   1.674   3.157   1.369
  749SOL    HW2  219   1.539   3.218   1.302
  753SOL     OW  220   1.709   2.247   1.381
  753SOL    HW1  221   1.782   2.316   1.385
  753SOL    HW2  222   1.737   2.172   1.322
  758SOL     OW  223   1.440   2.718   1.398
  758SOL    HW1  224   1.383   2.770   1.335
  758SOL    HW2  225   1.536   2.730   1.374
  764SOL     OW  226   1.450   3.082   1.633
  764SOL    HW1  227   1.441   3.072   1.732
  764SOL    HW2  228   1.546   3.075   1.607
  766SOL     OW  229   1.674   2.745   1.254
  766SOL    HW1  230   1.647   2.656   1.217
  766SOL    HW2  231   1.675   2.813   1.181
  769SOL     OW  232   1.777   2.204   1.642
  769SOL    HW1  233   1.760   2.235   1.548
  769SOL    HW2  234   1.693   2.167   1.680
  770SOL     OW  235   1.730   2.796   1.517
  770SOL    HW1  236   1.768   2.887   1.532
  770SOL    HW2  237   1.722   2.779   1.418
  779SOL     OW  238   1.824   2.054   1.227
  779SOL    HW1  239   1.820   1.964   1.271
  779SOL    HW2  240   1.827   2.043   1.128
  797SOL     OW  241   1.555   3.373   2.565
  797SOL    HW1  242   1.498   3.357   2.646
  797SOL    HW2  243   1.496   3.383   2.485
  798SOL     OW  244   1.135   2.565   2.579
  798SOL    HW1  245   1.192   2.643   2.554
  798SOL    HW2  246   1.075   2.591   2.655
  799SOL     OW  247   1.755   2.469   2.093
  799SOL    HW1  248   1.743   2.456   1.994
  799SOL    HW2  249   1.725   2.388   2.142
  805SOL     OW  250   1.460   3.367   3.201
  805SOL    HW1  251   1.484   3.461   3.227
  805SOL    HW2  252   1.444   3.313   3.283
  807SOL     OW  253   1.603   2.309   2.599
  807SOL    HW1  254   1.529   2.355   2.549
  807SOL    HW2  255   1.654   2.377   2.652
  814SOL     OW  256   1.594   1.976   3.342
  814SOL    HW1  257   1.576   2.043   3.270
  814SOL    HW2  258   1.591   2.022   3.431
  816SOL     OW  259   1.842   3.629   2.221
  816SOL    HW1  260   1.896   3.600   2.301
  816SOL    HW2  261   1.872   3.719   2.192
  818SOL     OW  262   1.689   2.784   2.474
  818SOL    HW1  263   1.784   2.755   2.482
  818SOL    HW2  264   1.681   2.849   2.399
  819SOL     OW  265   1.641   2.970   2.294
  819SOL    HW1  266   1.727   2.972   2.242
  819SOL    HW2  267   1.655   3.017   2.382
  822SOL     OW  268   1.293   3.090   3.285
  822SOL    HW1  269   1.330   3.017   3.227
  822SOL    HW2  270   1.345   3.095   3.370
  825SOL     OW  271   1.525   2.861   2.052
  825SOL    HW1  272   1.462   2.785   2.065
  825SOL    HW2  273   1.573   2.879   2.138
  828SOL     OW  274   1.466   3.279   2.815
  828SOL    HW1  275   1.407   3.285   2.895
  828SOL    HW2  276   1.451   3.191   2.769
  829SOL     OW  277   1.667   3.576   2.434
  829SOL    HW1  278   1.626   3.553   2.346
  829SOL    HW2  279   1.649   3.502   2.499
  831SOL     OW  280   1.281   2.207   2.806
  831SOL    HW1  281   1.195   2.157   2.793
  831SOL    HW2  282   1.343   2.153   2.862
  832SOL     OW  283   1.576   3.524   2.169
  832SOL    HW1  284   1.665   3.570   2.172
  832SOL    HW2  285   1.555   3.500   2.074
  834SOL     OW  286   1.394   2.331   3.536
  834SOL    HW1  287   1.374   2.374   3.624
  834SOL    HW2  288   1.472   2.269   3.545
  836SOL     OW  289   0.991   2.272   3.104
  836SOL    HW1  290   0.914   2.306   3.158
  836SOL    HW2  291   0.957   2.221   3.025
  837SOL     OW  292   1.041   2.563   2.291
  837SOL    HW1  293   1.067   2.559   2.387
  837SOL    HW2  294   0.956   2.512   2.277
  840SOL     OW  295   0.865   2.210   2.057
  840SOL    HW1  296   0.924   2.273   2.008
  840SOL    HW2  297   0.884   2.116   2.028
  841SOL     OW  298   1.719   2.447   3.693
  841SOL    HW1  299   1.693   2.536   3.657
  841SOL    HW2  300   1.717   2.379   3.620
  842SOL     OW  301   1.362   3.006   2.407
  842SOL    HW1  302   1.445   2.977   2.359
  842SOL    HW2  303   1.313   3.073   2.351
  844SOL     OW  304   1.008   3.318   2.339
  844SOL    HW1  305   0.962   3.390   2.287
  844SOL    HW2  306   1.004   3.338   2.437
  846SOL     OW  307   1.795   2.928   2.735
  846SOL    HW1  308   1.733   2.913   2.659
  846SOL    HW2  309   1.743   2.939   2.820
  847SOL     OW  310   1.227   3.412   3.368
  847SOL    HW1  311   1.233   3.335   3.432
  847SOL    HW2  312   1.175   3.386   3.288
  849SOL     OW  313   1.458   2.597   2.590
  849SOL    HW1  314   1.453   2.532   2.665
  849SOL    HW2  315   1.538   2.656   2.603
  853SOL     OW  316   1.632   3.239   1.943
  853SOL    HW1  317   1.600   3.333   1.933
  853SOL    HW2  318   1.556   3.176   1.931
  855SOL     OW  319   1.400   1.969   2.288
  855SOL    HW1  320   1.376   1.932   2.198
  855SOL    HW2  321   1.499   1.985   2.292
  859SOL     OW  322   1.547   2.084   3.591
  859SOL    HW1  323   1.542   2.121   3.683
  859SOL    HW2  324   1.475   2.015   3.579
  863SOL     OW  325   1.351   2.452   3.295
  863SOL    HW1  326   1.379   2.409   3.380
  863SOL    HW2  327   1.376   2.548   3.296
  865SOL     OW  328   0.922   2.365   2.761
  865SOL    HW1  329   0.897   2.356   2.665
  865SOL    HW2  330   0.970   2.283   2.792
  867SOL     OW  331   1.434   3.050   1.903
  867SOL    HW1  332   1.466   2.974   1.960
  867SOL    HW2  333   1.342   3.077   1.933
  869SOL     OW  334   0.935   2.098   2.342
  869SOL    HW1  335   0.887   2.139   2.264
  869SOL    HW2  336   1.034   2.096   2.323
  870SOL     OW  337   1.076   2.545   3.326
  870SOL    HW1  338   0.996   2.484   3.329
  870SOL    HW2  339   1.157   2.492   3.302
  871SOL     OW  340   1.227   3.432   2.655
  871SOL    HW1  341   1.248   3.506   2.590
  871SOL    HW2  342   1.295   3.432   2.728
  873SOL     OW  343   1.271   3.659   2.453
  873SOL    HW1  344   1.315   3.723   2.389
  873SOL    HW2  345   1.221   3.711   2.523
  874SOL     OW  346   1.032   2.411   1.878
  874SOL    HW1  347   0.991   2.493   1.839
  874SOL    HW2  348   1.096   2.437   1.951
  877SOL     OW  349   0.866   2.316   2.504
  877SOL    HW1  350   0.834   2.388   2.442
  877SOL    HW2  351   0.890   2.235   2.451
  878SOL     OW  352   1.017   1.901   2.615
  878SOL    HW1  353   0.945   1.906   2.546
  878SOL    HW2  354   0.993   1.832   2.684
  879SOL     OW  355   1.429   3.035   2.729
  879SOL    HW1  356   1.374   2.951   2.722
  879SOL    HW2  357   1.455   3.064   2.637
  880SOL     OW  358   1.466   2.452   2.854
  880SOL    HW1  359   1.436   2.357   2.861
  880SOL    HW2  360   1.539   2.468   2.920
  881SOL     OW  361   1.857   2.695   2.239
  881SOL    HW1  362   1.899   2.631   2.303
  881SOL    HW2  363   1.819   2.644   2.161
  883SOL     OW  364   1.664   3.142   2.519
  883SOL    HW1  365   1.763   3.150   2.533
  883SOL    HW2  366   1.619   3.226   2.550
  884SOL     OW  367   1.390   2.437   1.940
  884SOL    HW1  368   1.336   2.416   2.021
  884SOL    HW2  369   1.481   2.396   1.949
  886SOL     OW  370   1.754   3.085   3.450
  886SOL    HW1  371   1.845   3.046   3.437
  886SOL    HW2  372   1.762   3.181   3.474
  887SOL     OW  373   1.064   3.209   3.202
  887SOL    HW1  374   0.984   3.186   3.257
  887SOL    HW2  375   1.147   3.183   3.251
  888SOL     OW  376   1.592   3.491   3.487
  888SOL    HW1  377   1.619   3.525   3.397
  888SOL    HW2  378   1.671   3.453   3.533
  889SOL     OW  379   1.111   3.057   2.962
  889SOL    HW1  380   1.071   3.101   3.043
  889SOL    HW2  381   1.070   3.094   2.879
  890SOL     OW  382   1.638   2.961   2.941
  890SOL    HW1  383   1.643   3.042   3.000
  890SOL    HW2  384   1.552   2.963   2.890
  895SOL     OW  385   1.274   2.248   3.124
  895SOL    HW1  386   1.295   2.322   3.188
  895SOL    HW2  387   1.185   2.265   3.081
  899SOL     OW  388   1.252   3.210   2.250
  899SOL    HW1  389   1.302   3.287   2.290
  899SOL    HW2  390   1.157   3.212   2.282
  900SOL     OW  391   1.272   3.307   3.004
  900SOL    HW1  392   1.319   3.320   3.091
  900SOL    HW2  393   1.206   3.233   3.013
  901SOL     OW  394   1.582   2.501   2.334
  901SOL    HW1  395   1.551   2.562   2.407
  901SOL    HW2  396   1.632   2.553   2.265
  904SOL     OW  397   1.587   2.641   3.532
  904SOL    HW1  398   1.495   2.679   3.527
  904SOL    HW2  399   1.647   2.688   3.467
  908SOL     OW  400   1.360   2.724   2.907
  908SOL    HW1  401   1.285   2.724   2.841
  908SOL    HW2  402   1.397   2.632   2.916
  909SOL     OW  403   1.209   2.387   2.137
  909SOL    HW1  404   1.222   2.303   2.191
  909SOL    HW2  405   1.180   2.461   2.197
  913SOL     OW  406   1.728   2.797   3.716
  913SOL    HW1  407   1.682   2.790   3.627
  913SOL    HW2  408   1.666   2.841   3.782
  915SOL     OW  409   1.622   2.229   2.236
  915SOL    HW1  410   1.624   2.153   2.300
  915SOL    HW2  411   1.574   2.306   2.276
  916SOL     OW  412   1.023   2.628   2.828
  916SOL    HW1  413   1.038   2.649   2.924
  916SOL    HW2  414   0.993   2.533   2.819
  918SOL     OW  415   1.859   3.380   3.467
  918SOL    HW1  416   1.873   3.407   3.372
  918SOL    HW2  417   1.942   3.402   3.520
  920SOL     OW  418   1.540   2.136   1.987
  920SOL    HW1  419   1.479   2.061   2.010
  920SOL    HW2  420   1.562   2.188   2.070
  921SOL     OW  421   1.303   2.700   1.904
  921SOL    HW1  422   1.337   2.607   1.919
  921SOL    HW2  423   1.321   2.727   1.809
  922SOL     OW  424   1.068   3.195   2.711
  922SOL    HW1  425   1.075   3.111   2.656
  922SOL    HW2  426   1.130   3.264   2.675
  925SOL     OW  427   1.138   2.242   3.540
  925SOL    HW1  428   1.093   2.305   3.604
  925SOL    HW2  429   1.231   2.273   3.523
  926SOL     OW  430   1.160   2.069   3.339
  926SOL    HW1  431   1.160   2.133   3.416
  926SOL    HW2  432   1.188   2.117   3.256
  930SOL     OW  433   1.002   2.658   3.100
  930SOL    HW1  434   1.043   2.626   3.186
  930SOL    HW2  435   0.906   2.631   3.097
  933SOL     OW  436   1.369   2.812   3.522
  933SOL    HW1  437   1.408   2.901   3.542
  933SOL    HW2  438   1.379   2.792   3.425
  934SOL     OW  439   0.815   2.434   2.187
  934SOL    HW1  440   0.822   2.345   2.141
  934SOL    HW2  441   0.721   2.468   2.179
  935SOL     OW  442   1.657   2.466   3.068
  935SOL    HW1  443   1.619   2.397   3.130
  935SOL    HW2  444   1.739   2.430   3.024
  941SOL     OW  445   1.347   2.921   3.096
  941SOL    HW1  446   1.371   2.858   3.022
  941SOL    HW2  447   1.257   2.961   3.078
  942SOL     OW  448   1.302   2.717   2.171
  942SOL    HW1  449   1.216   2.686   2.213
  942SOL    HW2  450   1.298   2.703   2.072
  943SOL     OW  451   1.759   3.609   3.016
  943SOL    HW1  452   1.820   3.639   2.943
  943SOL    HW2  453   1.721   3.520   2.994
  944SOL     OW  454   1.252   3.593   2.990
  944SOL    HW1  455   1.336   3.598   2.936
  944SOL    HW2  456   1.229   3.497   3.008
  947SOL     OW  457   1.726   1.997   2.385
  947SOL    HW1  458   1.799   1.980   2.318
  947SOL    HW2  459   1.695   1.910   2.423
  948SOL     OW  460   1.388   3.435   2.339
  948SOL    HW1  461   1.455   3.447   2.265
  948SOL    HW2  462   1.348   3.524   2.362
  950SOL     OW  463   1.280   2.789   2.534
  950SOL    HW1  464   1.340   2.708   2.536
  950SOL    HW2  465   1.320   2.858   2.474
  953SOL     OW  466   1.650   3.582   3.256
  953SOL    HW1  467   1.703   3.592   3.172
  953SOL    HW2  468   1.623   3.672   3.290
  954SOL     OW  469   1.841   2.037   2.825
  954SOL    HW1  470   1.880   1.952   2.789
  954SOL    HW2  471   1.743   2.039   2.806
  956SOL     OW  472   1.194   3.474   1.893
  956SOL    HW1  473   1.200   3.381   1.930
  956SOL    HW2  474   1.135   3.474   1.813
  958SOL     OW  475   0.916   2.772   2.153
  958SOL    HW1  476   0.979   2.810   2.085
  958SOL    HW2  477   0.956   2.689   2.192
  959SOL     OW  478   1.504   3.469   1.906
  959SOL    HW1  479   1.412   3.506   1.913
  959SOL    HW2  480   1.542   3.489   1.816
  961SOL     OW  481   1.614   3.154   3.151
  961SOL    HW1  482   1.674   3.157   3.231
  961SOL    HW2  483   1.539   3.218   3.164
  962SOL     OW  484   1.039   2.960   2.558
  962SOL    HW1  485   0.969   2.913   2.612
  962SOL    HW2  486   1.098   2.892   2.515
  963SOL     OW  487   1.014   2.098   2.833
  963SOL    HW1  488   1.006   2.062   2.740
  963SOL    HW2  489   1.012   2.022   2.898
  965SOL     OW  490   1.709   2.247   3.243
  965SOL    HW1  491   1.782   2.316   3.247
  965SOL    HW2  492   1.737   2.172   3.184
  970SOL     OW  493   1.440   2.718   3.260
  970SOL    HW1  494   1.383   2.770   3.197
  970SOL    HW2  495   1.536   2.730   3.236
  972SOL     OW  496   1.183   3.197   1.981
  972SOL    HW1  497   1.084   3.186   1.983
  972SOL    HW2  498   1.217   3.212   2.074
  974SOL     OW  499   1.493   3.629   2.821
  974SOL    HW1  500   1.526   3.693   2.752
  974SOL    HW2  501   1.559   3.623   2.896
  976SOL     OW  502   1.450   3.082   3.495
  976SOL    HW1  503   1.441   3.072   3.594
  976SOL    HW2  504   1.546   3.075   3.469
  978SOL     OW  505   1.674   2.745   3.116
  978SOL    HW1  506   1.647   2.656   3.079
  978SOL    HW2  507   1.675   2.813   3.043
  979SOL     OW  508   1.225   2.187   2.311
  979SOL    HW1  509   1.290   2.113   2.300
  979SOL    HW2  510   1.245   2.237   2.395
  981SOL     OW  511   1.777   2.204   3.504
  981SOL    HW1  512   1.760   2.235   3.410
  981SOL    HW2  513   1.693   2.167   3.542
  982SOL     OW  514   1.730   2.796   3.379
  982SOL    HW1  515   1.768   2.887   3.394
  982SOL    HW2  516   1.722   2.779   3.280
  985SOL     OW  517   0.859   2.818   2.723
  985SOL    HW1  518   0.913   2.749   2.771
  985SOL    HW2  519   0.827   2.887   2.789
  986SOL     OW  520   1.083   2.846   1.949
  986SOL    HW1  521   1.060   2.899   1.867
  986SOL    HW2  522   1.164   2.790   1.930
  987SOL     OW  523   1.861   3.431   2.713
  987SOL    HW1  524   1.790   3.419   2.643
  987SOL    HW2  525   1.862   3.352   2.773
  991SOL     OW  526   1.824   2.054   3.089
  991SOL    HW1  527   1.820   1.964   3.133
  991SOL    HW2  528   1.827   2.043   2.990
  993SOL     OW  529   1.705   3.349   2.966
  993SOL    HW1  530   1.612   3.324   2.939
  993SOL    HW2  531   1.731   3.299   3.048
  996SOL     OW  532   1.424   2.076   2.974
  996SOL    HW1  533   1.476   2.011   3.029
  996SOL    HW2  534   1.375   2.139   3.035
  997SOL     OW  535   1.001   1.896   3.016
  997SOL    HW1  536   0.938   1.824   2.985
  997SOL    HW2  537   1.094   1.860   3.016
 1000SOL     OW  538   1.352   1.914   2.030
 1000SOL    HW1  539   1.387   1.873   1.946
 1000SOL    HW2  540   1.262   1.876   2.050
 1001SOL     OW  541   1.300   2.315   2.553
 1001SOL    HW1  542   1.241   2.395   2.557
 1001SOL    HW2  543   1.315   2.280   2.646
 1002SOL     OW  544   1.593   2.083   2.744
 1002SOL    HW1  545   1.509   2.082   2.798
 1002SOL    HW2  546   1.595   2.166   2.688
 1011SOL     OW  547   1.755   2.469   3.955
 1011SOL    HW1  548   1.743   2.456   3.856
 1011SOL    HW2  549   1.725   2.388   4.004
 1029SOL     OW  550   1.525   2.861   3.914
 1029SOL    HW1  551   1.462   2.785   3.927
 1029SOL    HW2  552   1.573   2.879   4.000
 1048SOL     OW  553   1.632   3.239   3.805
 1048SOL    HW1  554   1.600   3.333   3.795
 1048SOL    HW2  555   1.556   3.176   3.793
 1058SOL     OW  556   1.434   3.050   3.765
 1058SOL    HW1  557   1.466   2.974   3.822
 1058SOL    HW2  558   1.342   3.077   3.795
 1070SOL     OW  559   1.857   2.695   4.101
 1070SOL    HW1  560   1.899   2.631   4.165
 1070SOL    HW2  561   1.819   2.644   4.023
 1073SOL     OW  562   1.390   2.437   3.802
 1073SOL    HW1  563   1.336   2.416   3.883
 1073SOL    HW2  564   1.481   2.396   3.811
 1095SOL     OW  565   1.540   2.136   3.849
 1095SOL    HW1  566   1.479   2.061   3.872
 1095SOL    HW2  567   1.562   2.188   3.932
 1096SOL     OW  568   1.303   2.700   3.766
 1096SOL    HW1  569   1.337   2.607   3.781
 1096SOL    HW2  570   1.321   2.727   3.671
 1344SOL     OW  571   1.400   3.831   2.288
 1344SOL    HW1  572   1.376   3.794   2.198
 1344SOL    HW2  573   1.499   3.847   2.292
 1412SOL     OW  574   1.726   3.859   2.385
 1412SOL    HW1  575   1.799   3.842   2.318
 1412SOL    HW2  576   1.695   3.772   2.423
 1414SOL     OW  577   1.841   3.899   2.825
 1414SOL    HW1  578   1.880   3.814   2.789
 1414SOL    HW2  579   1.743   3.901   2.806
 1440SOL     OW  580   1.824   3.916   3.089
 1440SOL    HW1  581   1.820   3.826   3.133
 1440SOL    HW2  582   1.827   3.905   2.990
 1446SOL     OW  583   1.352   3.776   2.030
 1446SOL    HW1  584   1.387   3.735   1.946
 1446SOL    HW2  585   1.262   3.738   2.050
 1448SOL     OW  586   1.593   3.945   2.744
 1448SOL    HW1  587   1.509   3.944   2.798
 1448SOL    HW2  588   1.595   4.028   2.688
 1567SOL     OW  589   2.548   1.161   1.803
 1567SOL    HW1  590   2.608   1.240   1.817
 1567SOL    HW2  591   2.462   1.192   1.762
 1569SOL     OW  592   3.322   1.505   1.339
 1569SOL    HW1  593   3.346   1.599   1.365
 1569SOL    HW2  594   3.306   1.451   1.421
 1573SOL     OW  595   2.989   1.341   1.690
 1573SOL    HW1  596   3.036   1.341   1.778
 1573SOL    HW2  597   2.941   1.254   1.679
 1576SOL     OW  598   2.482   1.786   1.439
 1576SOL    HW1  599   2.390   1.769   1.474
 1576SOL    HW2  600   2.510   1.878   1.465
 1590SOL     OW  601   3.049   1.792   1.616
 1590SOL    HW1  602   3.073   1.852   1.540
 1590SOL    HW2  603   3.056   1.697   1.586
 1603SOL     OW  604   1.992   1.821   1.571
 1603SOL    HW1  605   1.982   1.806   1.670
 1603SOL    HW2  606   1.906   1.857   1.535
 1611SOL     OW  607   3.089   1.550   1.506
 1611SOL    HW1  608   3.095   1.473   1.570
 1611SOL    HW2  609   3.037   1.524   1.426
 1614SOL     OW  610   2.323   1.266   1.727
 1614SOL    HW1  611   2.273   1.267   1.641
 1614SOL    HW2  612   2.260   1.248   1.803
 1619SOL     OW  613   2.111   1.785   1.241
 1619SOL    HW1  614   2.168   1.720   1.291
 1619SOL    HW2  615   2.095   1.752   1.148
 1625SOL     OW  616   2.750   1.514   1.195
 1625SOL    HW1  617   2.727   1.489   1.101
 1625SOL    HW2  618   2.811   1.445   1.234
 1650SOL     OW  619   2.926   1.347   1.340
 1650SOL    HW1  620   2.846   1.324   1.395
 1650SOL    HW2  621   3.009   1.321   1.389
 1651SOL     OW  622   3.454   1.629   1.625
 1651SOL    HW1  623   3.481   1.663   1.535
 1651SOL    HW2  624   3.533   1.591   1.671
 1655SOL     OW  625   2.842   1.116   1.719
 1655SOL    HW1  626   2.743   1.122   1.729
 1655SOL    HW2  627   2.865   1.036   1.663
 1659SOL     OW  628   1.926   1.564   1.331
 1659SOL    HW1  629   1.880   1.646   1.297
 1659SOL    HW2  630   2.024   1.583   1.340
 1665SOL     OW  631   2.216   1.510   1.329
 1665SOL    HW1  632   2.195   1.466   1.242
 1665SOL    HW2  633   2.313   1.536   1.332
 1680SOL     OW  634   2.842   1.573   1.700
 1680SOL    HW1  635   2.822   1.617   1.612
 1680SOL    HW2  636   2.881   1.482   1.684
 1698SOL     OW  637   2.114   1.564   1.744
 1698SOL    HW1  638   2.084   1.621   1.820
 1698SOL    HW2  639   2.107   1.467   1.770
 1700SOL     OW  640   2.792   1.678   1.465
 1700SOL    HW1  641   2.768   1.660   1.370
 1700SOL    HW2  642   2.822   1.772   1.475
 1706SOL     OW  643   3.114   1.731   1.128
 1706SOL    HW1  644   3.198   1.736   1.074
 1706SOL    HW2  645   3.091   1.635   1.146
 1708SOL     OW  646   2.550   1.662   1.716
 1708SOL    HW1  647   2.494   1.743   1.725
 1708SOL    HW2  648   2.602   1.666   1.630
 1712SOL     OW  649   1.992   1.794   1.851
 1712SOL    HW1  650   1.951   1.720   1.904
 1712SOL    HW2  651   2.056   1.845   1.909
 1714SOL     OW  652   2.692   1.273   1.422
 1714SOL    HW1  653   2.687   1.306   1.517
 1714SOL    HW2  654   2.606   1.292   1.376
 1716SOL     OW  655   3.512   1.720   1.394
 1716SOL    HW1  656   3.565   1.730   1.310
 1716SOL    HW2  657   3.485   1.810   1.428
 1723SOL     OW  658   2.234   1.288   1.490
 1723SOL    HW1  659   2.221   1.381   1.456
 1723SOL    HW2  660   2.150   1.236   1.477
 1738SOL     OW  661   3.312   1.220   1.633
 1738SOL    HW1  662   3.303   1.210   1.732
 1738SOL    HW2  663   3.408   1.213   1.607
 1739SOL     OW  664   2.252   1.741   1.560
 1739SOL    HW1  665   2.161   1.782   1.558
 1739SOL    HW2  666   2.245   1.647   1.592
 1746SOL     OW  667   2.523   1.790   0.953
 1746SOL    HW1  668   2.477   1.878   0.940
 1746SOL    HW2  669   2.622   1.802   0.946
 1750SOL     OW  670   2.083   1.314   1.844
 1750SOL    HW1  671   2.018   1.241   1.823
 1750SOL    HW2  672   2.087   1.328   1.942
 1752SOL     OW  673   2.534   1.391   1.624
 1752SOL    HW1  674   2.456   1.341   1.662
 1752SOL    HW2  675   2.531   1.486   1.655
 1761SOL     OW  676   2.480   1.567   1.284
 1761SOL    HW1  677   2.475   1.649   1.341
 1761SOL    HW2  678   2.569   1.564   1.239
 1770SOL     OW  679   2.431   1.275   3.027
 1770SOL    HW1  680   2.338   1.268   2.990
 1770SOL    HW2  681   2.442   1.364   3.071
 1771SOL     OW  682   3.417   1.511   2.565
 1771SOL    HW1  683   3.360   1.495   2.646
 1771SOL    HW2  684   3.358   1.521   2.485
 1774SOL     OW  685   2.630   1.144   2.885
 1774SOL    HW1  686   2.552   1.161   2.945
 1774SOL    HW2  687   2.664   1.231   2.849
 1776SOL     OW  688   2.547   1.012   2.527
 1776SOL    HW1  689   2.616   0.996   2.597
 1776SOL    HW2  690   2.474   1.069   2.565
 1777SOL     OW  691   2.548   1.161   3.665
 1777SOL    HW1  692   2.608   1.240   3.679
 1777SOL    HW2  693   2.462   1.192   3.624
 1778SOL     OW  694   2.197   1.435   2.923
 1778SOL    HW1  695   2.119   1.404   2.870
 1778SOL    HW2  696   2.255   1.493   2.866
 1779SOL     OW  697   3.322   1.505   3.201
 1779SOL    HW1  698   3.346   1.599   3.227
 1779SOL    HW2  699   3.306   1.451   3.283
 1782SOL     OW  700   2.093   1.713   2.345
 1782SOL    HW1  701   2.127   1.790   2.399
 1782SOL    HW2  702   2.137   1.713   2.255
 1783SOL     OW  703   2.989   1.341   3.552
 1783SOL    HW1  704   3.036   1.341   3.640
 1783SOL    HW2  705   2.941   1.254   3.541
 1784SOL     OW  706   2.092   1.434   2.400
 1784SOL    HW1  707   2.066   1.530   2.400
 1784SOL    HW2  708   2.021   1.380   2.445
 1785SOL     OW  709   2.102   1.091   2.748
 1785SOL    HW1  710   2.116   1.007   2.800
 1785SOL    HW2  711   2.047   1.155   2.803
 1786SOL     OW  712   2.482   1.786   3.301
 1786SOL    HW1  713   2.390   1.769   3.336
 1786SOL    HW2  714   2.510   1.878   3.327
 1787SOL     OW  715   2.468   0.964   1.985
 1787SOL    HW1  716   2.475   1.048   1.931
 1787SOL    HW2  717   2.514   0.977   2.073
 1790SOL     OW  718   3.704   1.767   2.221
 1790SOL    HW1  719   3.758   1.738   2.301
 1790SOL    HW2  720   3.734   1.857   2.192
 1791SOL     OW  721   1.889   1.596   1.979
 1791SOL    HW1  722   1.870   1.500   2.000
 1791SOL    HW2  723   1.856   1.654   2.054
 1793SOL     OW  724   3.503   1.108   2.294
 1793SOL    HW1  725   3.589   1.110   2.242
 1793SOL    HW2  726   3.517   1.155   2.382
 1795SOL     OW  727   2.475   1.365   2.588
 1795SOL    HW1  728   2.426   1.278   2.597
 1795SOL    HW2  729   2.452   1.408   2.501
 1796SOL     OW  730   3.155   1.228   3.285
 1796SOL    HW1  731   3.192   1.155   3.227
 1796SOL    HW2  732   3.207   1.233   3.370
 1798SOL     OW  733   2.059   0.976   3.126
 1798SOL    HW1  734   2.148   0.931   3.112
 1798SOL    HW2  735   1.986   0.911   3.107
 1800SOL     OW  736   3.049   1.792   3.478
 1800SOL    HW1  737   3.073   1.852   3.402
 1800SOL    HW2  738   3.056   1.697   3.448
 1802SOL     OW  739   3.328   1.417   2.815
 1802SOL    HW1  740   3.269   1.423   2.895
 1802SOL    HW2  741   3.313   1.329   2.769
 1803SOL     OW  742   3.529   1.714   2.434
 1803SOL    HW1  743   3.488   1.691   2.346
 1803SOL    HW2  744   3.511   1.640   2.499
 1806SOL     OW  745   3.438   1.662   2.169
 1806SOL    HW1  746   3.527   1.708   2.172
 1806SOL    HW2  747   3.417   1.638   2.074
 1813SOL     OW  748   1.992   1.821   3.433
 1813SOL    HW1  749   1.982   1.806   3.532
 1813SOL    HW2  750   1.906   1.857   3.397
 1816SOL     OW  751   3.224   1.144   2.407
 1816SOL    HW1  752   3.307   1.115   2.359
 1816SOL    HW2  753   3.175   1.211   2.351
 1818SOL     OW  754   2.870   1.456   2.339
 1818SOL    HW1  755   2.824   1.528   2.287
 1818SOL    HW2  756   2.866   1.476   2.437
 1819SOL     OW  757   2.213   1.801   2.715
 1819SOL    HW1  758   2.263   1.715   2.721
 1819SOL    HW2  759   2.278   1.878   2.712
 1821SOL     OW  760   3.089   1.550   3.368
 1821SOL    HW1  761   3.095   1.473   3.432
 1821SOL    HW2  762   3.037   1.524   3.288
 1822SOL     OW  763   2.183   0.943   2.104
 1822SOL    HW1  764   2.265   0.982   2.062
 1822SOL    HW2  765   2.156   0.861   2.055
 1824SOL     OW  766   2.323   1.266   3.589
 1824SOL    HW1  767   2.273   1.267   3.503
 1824SOL    HW2  768   2.260   1.248   3.665
 1825SOL     OW  769   2.973   1.776   2.099
 1825SOL    HW1  770   2.913   1.714   2.149
 1825SOL    HW2  771   3.004   1.732   2.014
 1826SOL     OW  772   3.494   1.377   1.943
 1826SOL    HW1  773   3.462   1.471   1.933
 1826SOL    HW2  774   3.418   1.314   1.931
 1827SOL     OW  775   2.326   1.743   2.185
 1827SOL    HW1  776   2.359   1.782   2.271
 1827SOL    HW2  777   2.402   1.736   2.120
 1829SOL     OW  778   2.111   1.785   3.103
 1829SOL    HW1  779   2.168   1.720   3.153
 1829SOL    HW2  780   2.095   1.752   3.010
 1830SOL     OW  781   2.802   1.698   2.766
 1830SOL    HW1  782   2.882   1.641   2.787
 1830SOL    HW2  783   2.753   1.658   2.689
 1835SOL     OW  784   2.750   1.514   3.057
 1835SOL    HW1  785   2.727   1.489   2.963
 1835SOL    HW2  786   2.811   1.445   3.096
 1837SOL     OW  787   2.665   1.402   2.786
 1837SOL    HW1  788   2.755   1.416   2.744
 1837SOL    HW2  789   2.594   1.404   2.715
 1840SOL     OW  790   3.296   1.188   1.903
 1840SOL    HW1  791   3.328   1.112   1.960
 1840SOL    HW2  792   3.204   1.215   1.933
 1844SOL     OW  793   3.089   1.570   2.655
 1844SOL    HW1  794   3.110   1.644   2.590
 1844SOL    HW2  795   3.157   1.570   2.728
 1845SOL     OW  796   2.321   1.152   2.603
 1845SOL    HW1  797   2.250   1.125   2.668
 1845SOL    HW2  798   2.295   1.124   2.510
 1846SOL     OW  799   3.133   1.797   2.453
 1846SOL    HW1  800   3.177   1.861   2.389
 1846SOL    HW2  801   3.083   1.849   2.523
 1852SOL     OW  802   3.291   1.173   2.729
 1852SOL    HW1  803   3.236   1.089   2.722
 1852SOL    HW2  804   3.317   1.202   2.637
 1855SOL     OW  805   2.350   1.385   2.036
 1855SOL    HW1  806   2.263   1.370   2.083
 1855SOL    HW2  807   2.333   1.411   1.941
 1856SOL     OW  808   3.526   1.280   2.519
 1856SOL    HW1  809   3.625   1.288   2.533
 1856SOL    HW2  810   3.481   1.364   2.550
 1860SOL     OW  811   2.926   1.347   3.202
 1860SOL    HW1  812   2.846   1.324   3.257
 1860SOL    HW2  813   3.009   1.321   3.251
 1861SOL     OW  814   3.454   1.629   3.487
 1861SOL    HW1  815   3.481   1.663   3.397
 1861SOL    HW2  816   3.533   1.591   3.533
 1862SOL     OW  817   2.973   1.195   2.962
 1862SOL    HW1  818   2.933   1.239   3.043
 1862SOL    HW2  819   2.932   1.232   2.879
 1863SOL     OW  820   3.500   1.099   2.941
 1863SOL    HW1  821   3.505   1.180   3.000
 1863SOL    HW2  822   3.414   1.101   2.890
 1865SOL     OW  823   2.842   1.116   3.581
 1865SOL    HW1  824   2.743   1.122   3.591
 1865SOL    HW2  825   2.865   1.036   3.525
 1866SOL     OW  826   2.567   1.050   2.230
 1866SOL    HW1  827   2.553   1.057   2.329
 1866SOL    HW2  828   2.651   0.999   2.212
 1869SOL     OW  829   1.926   1.564   3.193
 1869SOL    HW1  830   1.880   1.646   3.159
 1869SOL    HW2  831   2.024   1.583   3.202
 1870SOL     OW  832   2.229   1.100   2.363
 1870SOL    HW1  833   2.222   1.183   2.307
 1870SOL    HW2  834   2.233   1.020   2.303
 1872SOL     OW  835   3.114   1.348   2.250
 1872SOL    HW1  836   3.164   1.425   2.290
 1872SOL    HW2  837   3.019   1.350   2.282
 1873SOL     OW  838   3.134   1.445   3.004
 1873SOL    HW1  839   3.181   1.458   3.091
 1873SOL    HW2  840   3.068   1.371   3.013
 1875SOL     OW  841   2.216   1.510   3.191
 1875SOL    HW1  842   2.195   1.466   3.104
 1875SOL    HW2  843   2.313   1.536   3.194
 1880SOL     OW  844   2.435   0.870   2.891
 1880SOL    HW1  845   2.479   0.959   2.882
 1880SOL    HW2  846   2.372   0.870   2.968
 1884SOL     OW  847   1.899   1.310   3.144
 1884SOL    HW1  848   1.952   1.261   3.212
 1884SOL    HW2  849   1.921   1.408   3.149
 1890SOL     OW  850   2.842   1.573   3.562
 1890SOL    HW1  851   2.822   1.617   3.474
 1890SOL    HW2  852   2.881   1.482   3.546
 1895SOL     OW  853   2.930   1.333   2.711
 1895SOL    HW1  854   2.937   1.249   2.656
 1895SOL    HW2  855   2.992   1.402   2.675
 1896SOL     OW  856   2.181   0.810   2.811
 1896SOL    HW1  857   2.274   0.846   2.816
 1896SOL    HW2  858   2.175   0.725   2.863
 1900SOL     OW  859   1.870   1.326   2.062
 1900SOL    HW1  860   1.777   1.347   2.031
 1900SOL    HW2  861   1.880   1.227   2.075
 1901SOL     OW  862   1.950   1.801   2.789
 1901SOL    HW1  863   1.908   1.715   2.762
 1901SOL    HW2  864   2.044   1.804   2.755
 1902SOL     OW  865   2.366   1.568   2.772
 1902SOL    HW1  866   2.432   1.642   2.781
 1902SOL    HW2  867   2.410   1.489   2.730
 1909SOL     OW  868   2.114   1.564   3.606
 1909SOL    HW1  869   2.084   1.621   3.682
 1909SOL    HW2  870   2.107   1.467   3.632
 1911SOL     OW  871   2.792   1.678   3.327
 1911SOL    HW1  872   2.768   1.660   3.232
 1911SOL    HW2  873   2.822   1.772   3.337
 1913SOL     OW  874   2.021   1.137   3.328
 1913SOL    HW1  875   2.043   1.076   3.404
 1913SOL    HW2  876   2.031   1.088   3.242
 1914SOL     OW  877   3.209   1.059   3.096
 1914SOL    HW1  878   3.233   0.996   3.022
 1914SOL    HW2  879   3.119   1.099   3.078
 1916SOL     OW  880   3.621   1.747   3.016
 1916SOL    HW1  881   3.682   1.777   2.943
 1916SOL    HW2  882   3.583   1.658   2.994
 1917SOL     OW  883   3.114   1.731   2.990
 1917SOL    HW1  884   3.198   1.736   2.936
 1917SOL    HW2  885   3.091   1.635   3.008
 1918SOL     OW  886   1.945   1.258   2.884
 1918SOL    HW1  887   1.940   1.257   2.984
 1918SOL    HW2  888   1.862   1.217   2.846
 1919SOL     OW  889   2.550   1.662   3.578
 1919SOL    HW1  890   2.494   1.743   3.587
 1919SOL    HW2  891   2.602   1.666   3.492
 1921SOL     OW  892   3.250   1.573   2.339
 1921SOL    HW1  893   3.317   1.585   2.265
 1921SOL    HW2  894   3.210   1.662   2.362
 1922SOL     OW  895   1.992   1.794   3.713
 1922SOL    HW1  896   1.951   1.720   3.766
 1922SOL    HW2  897   2.056   1.845   3.771
 1923SOL     OW  898   3.142   0.927   2.534
 1923SOL    HW1  899   3.202   0.846   2.536
 1923SOL    HW2  900   3.182   0.996   2.474
 1924SOL     OW  901   2.692   1.273   3.284
 1924SOL    HW1  902   2.687   1.306   3.379
 1924SOL    HW2  903   2.606   1.292   3.238
 1925SOL     OW  904   2.534   1.616   2.016
 1925SOL    HW1  905   2.543   1.626   1.917
 1925SOL    HW2  906   2.494   1.527   2.037
 1926SOL     OW  907   3.512   1.720   3.256
 1926SOL    HW1  908   3.565   1.730   3.172
 1926SOL    HW2  909   3.485   1.810   3.290
 1929SOL     OW  910   3.056   1.612   1.893
 1929SOL    HW1  911   3.062   1.519   1.930
 1929SOL    HW2  912   2.997   1.612   1.813
 1930SOL     OW  913   2.684   1.002   3.234
 1930SOL    HW1  914   2.724   1.001   3.142
 1930SOL    HW2  915   2.694   1.094   3.274
 1931SOL     OW  916   2.778   0.910   2.153
 1931SOL    HW1  917   2.841   0.948   2.085
 1931SOL    HW2  918   2.818   0.827   2.192
 1932SOL     OW  919   3.366   1.607   1.906
 1932SOL    HW1  920   3.274   1.644   1.913
 1932SOL    HW2  921   3.404   1.627   1.816
 1933SOL     OW  922   2.234   1.288   3.352
 1933SOL    HW1  923   2.221   1.381   3.318
 1933SOL    HW2  924   2.150   1.236   3.339
 1934SOL     OW  925   3.476   1.292   3.151
 1934SOL    HW1  926   3.536   1.295   3.231
 1934SOL    HW2  927   3.401   1.356   3.164
 1935SOL     OW  928   2.901   1.098   2.558
 1935SOL    HW1  929   2.831   1.051   2.612
 1935SOL    HW2  930   2.960   1.030   2.515
 1937SOL     OW  931   2.452   1.487   2.353
 1937SOL    HW1  932   2.494   1.429   2.283
 1937SOL    HW2  933   2.408   1.566   2.309
 1939SOL     OW  934   2.117   1.348   2.152
 1939SOL    HW1  935   2.021   1.349   2.125
 1939SOL    HW2  936   2.129   1.401   2.236
 1945SOL     OW  937   3.045   1.335   1.981
 1945SOL    HW1  938   2.946   1.324   1.983
 1945SOL    HW2  939   3.079   1.350   2.074
 1947SOL     OW  940   3.355   1.767   2.821
 1947SOL    HW1  941   3.388   1.831   2.752
 1947SOL    HW2  942   3.421   1.761   2.896
 1950SOL     OW  943   2.252   1.741   3.422
 1950SOL    HW1  944   2.161   1.782   3.420
 1950SOL    HW2  945   2.245   1.647   3.454
 1953SOL     OW  946   2.456   0.745   2.514
 1953SOL    HW1  947   2.506   0.830   2.495
 1953SOL    HW2  948   2.368   0.747   2.466
 1956SOL     OW  949   2.721   1.374   1.878
 1956SOL    HW1  950   2.675   1.389   1.966
 1956SOL    HW2  951   2.765   1.459   1.848
 1957SOL     OW  952   2.523   1.790   2.815
 1957SOL    HW1  953   2.477   1.878   2.802
 1957SOL    HW2  954   2.622   1.802   2.808
 1958SOL     OW  955   2.721   0.956   2.723
 1958SOL    HW1  956   2.775   0.887   2.771
 1958SOL    HW2  957   2.689   1.025   2.789
 1959SOL     OW  958   2.945   0.984   1.949
 1959SOL    HW1  959   2.922   1.037   1.867
 1959SOL    HW2  960   3.026   0.928   1.930
 1960SOL     OW  961   3.723   1.569   2.713
 1960SOL    HW1  962   3.652   1.557   2.643
 1960SOL    HW2  963   3.724   1.490   2.773
 1961SOL     OW  964   2.083   1.314   3.706
 1961SOL    HW1  965   2.018   1.241   3.685
 1961SOL    HW2  966   2.087   1.328   3.804
 1962SOL     OW  967   1.941   1.240   2.515
 1962SOL    HW1  968   1.940   1.193   2.603
 1962SOL    HW2  969   2.023   1.212   2.464
 1963SOL     OW  970   2.534   1.391   3.486
 1963SOL    HW1  971   2.456   1.341   3.524
 1963SOL    HW2  972   2.531   1.486   3.517
 1966SOL     OW  973   3.567   1.487   2.966
 1966SOL    HW1  974   3.474   1.462   2.939
 1966SOL    HW2  975   3.593   1.437   3.048
 1968SOL     OW  976   2.674   1.586   2.549
 1968SOL    HW1  977   2.706   1.596   2.455
 1968SOL    HW2  978   2.595   1.524   2.551
 1971SOL     OW  979   2.632   1.330   2.163
 1971SOL    HW1  980   2.586   1.243   2.180
 1971SOL    HW2  981   2.723   1.327   2.204
 1972SOL     OW  982   2.480   1.567   3.146
 1972SOL    HW1  983   2.475   1.649   3.203
 1972SOL    HW2  984   2.569   1.564   3.101
 1976SOL     OW  985   1.901   1.077   2.162
 1976SOL    HW1  986   2.000   1.066   2.153
 1976SOL    HW2  987   1.861   0.991   2.194
 1977SOL     OW  988   2.737   1.646   2.199
 1977SOL    HW1  989   2.660   1.611   2.145
 1977SOL    HW2  990   2.705   1.717   2.261
 1995SOL     OW  991   1.889   1.596   3.841
 1995SOL    HW1  992   1.870   1.500   3.862
 1995SOL    HW2  993   1.856   1.654   3.916
 2019SOL     OW  994   2.973   1.776   3.961
 2019SOL    HW1  995   2.913   1.714   4.011
 2019SOL    HW2  996   3.004   1.732   3.876
 2021SOL     OW  997   2.326   1.743   4.047
 2021SOL    HW1  998   2.359   1.782   4.133
 2021SOL    HW2  999   2.402   1.736   3.982
 2043SOL     OW 1000   2.350   1.385   3.898
 2043SOL    HW1 1001   2.263   1.370   3.945
 2043SOL    HW2 1002   2.333   1.411   3.803
 2091SOL     OW 1003   2.534   1.616   3.878
 2091SOL    HW1 1004   2.543   1.626   3.779
 2091SOL    HW2 1005   2.494   1.527   3.899
 2095SOL     OW 1006   3.056   1.612   3.755
 2095SOL    HW1 1007   3.062   1.519   3.792
 2095SOL    HW2 1008   2.997   1.612   3.675
 2098SOL     OW 1009   3.366   1.607   3.768
 2098SOL    HW1 1010   3.274   1.644   3.775
 2098SOL    HW2 1011   3.404   1.627   3.678
 2112SOL     OW 1012   2.721   1.374   3.740
 2112SOL    HW1 1013   2.675   1.389   3.828
 2112SOL    HW2 1014   2.765   1.459   3.710
 2129SOL     OW 1015   2.737   1.646   4.061
 2129SOL    HW1 1016   2.660   1.611   4.007
 2129SOL    HW2 1017   2.705   1.717   4.123
 2131SOL     OW 1018   2.087   2.137   0.996
 2131SOL    HW1 1019   2.122   2.120   1.088
 2131SOL    HW2 1020   1.999   2.092   0.984
 2133SOL     OW 1021   2.431   3.137   1.165
 2133SOL    HW1 1022   2.338   3.130   1.128
 2133SOL    HW2 1023   2.442   3.226   1.209
 2137SOL     OW 1024   2.630   3.006   1.023
 2137SOL    HW1 1025   2.552   3.023   1.083
 2137SOL    HW2 1026   2.664   3.093   0.987
 2138SOL     OW 1027   2.712   2.660   1.823
 2138SOL    HW1 1028   2.708   2.736   1.888
 2138SOL    HW2 1029   2.734   2.696   1.732
 2140SOL     OW 1030   2.548   3.023   1.803
 2140SOL    HW1 1031   2.608   3.102   1.817
 2140SOL    HW2 1032   2.462   3.054   1.762
 2141SOL     OW 1033   2.197   3.297   1.061
 2141SOL    HW1 1034   2.119   3.266   1.008
 2141SOL    HW2 1035   2.255   3.355   1.004
 2142SOL     OW 1036   3.322   3.367   1.339
 2142SOL    HW1 1037   3.346   3.461   1.365
 2142SOL    HW2 1038   3.306   3.313   1.421
 2143SOL     OW 1039   2.300   2.254   1.499
 2143SOL    HW1 1040   2.382   2.198   1.508
 2143SOL    HW2 1041   2.219   2.196   1.503
 2146SOL     OW 1042   2.989   3.203   1.690
 2146SOL    HW1 1043   3.036   3.203   1.778
 2146SOL    HW2 1044   2.941   3.116   1.679
 2148SOL     OW 1045   2.102   2.953   0.886
 2148SOL    HW1 1046   2.116   2.869   0.938
 2148SOL    HW2 1047   2.047   3.017   0.941
 2149SOL     OW 1048   2.482   3.648   1.439
 2149SOL    HW1 1049   2.390   3.631   1.474
 2149SOL    HW2 1050   2.510   3.740   1.465
 2151SOL     OW 1051   3.456   1.976   1.480
 2151SOL    HW1 1052   3.438   2.043   1.408
 2151SOL    HW2 1053   3.453   2.022   1.569
 2157SOL     OW 1054   1.975   2.599   1.597
 2157SOL    HW1 1055   2.063   2.586   1.642
 2157SOL    HW2 1056   1.962   2.696   1.575
 2159SOL     OW 1057   3.155   3.090   1.423
 2159SOL    HW1 1058   3.192   3.017   1.365
 2159SOL    HW2 1059   3.207   3.095   1.508
 2161SOL     OW 1060   2.059   2.838   1.264
 2161SOL    HW1 1061   2.148   2.793   1.250
 2161SOL    HW2 1062   1.986   2.773   1.245
 2163SOL     OW 1063   3.049   3.654   1.616
 2163SOL    HW1 1064   3.073   3.714   1.540
 2163SOL    HW2 1065   3.056   3.559   1.586
 2164SOL     OW 1066   2.179   2.113   1.801
 2164SOL    HW1 1067   2.250   2.184   1.807
 2164SOL    HW2 1068   2.091   2.152   1.829
 2168SOL     OW 1069   3.143   2.207   0.944
 2168SOL    HW1 1070   3.057   2.157   0.931
 2168SOL    HW2 1071   3.205   2.153   1.000
 2170SOL     OW 1072   2.669   2.467   1.465
 2170SOL    HW1 1073   2.622   2.464   1.554
 2170SOL    HW2 1074   2.618   2.412   1.399
 2171SOL     OW 1075   3.256   2.331   1.674
 2171SOL    HW1 1076   3.236   2.374   1.762
 2171SOL    HW2 1077   3.334   2.269   1.683
 2172SOL     OW 1078   2.835   2.752   1.572
 2172SOL    HW1 1079   2.881   2.668   1.543
 2172SOL    HW2 1080   2.779   2.786   1.497
 2173SOL     OW 1081   2.853   2.272   1.242
 2173SOL    HW1 1082   2.776   2.306   1.296
 2173SOL    HW2 1083   2.819   2.221   1.163
 2176SOL     OW 1084   1.992   3.683   1.571
 2176SOL    HW1 1085   1.982   3.668   1.670
 2176SOL    HW2 1086   1.906   3.719   1.535
 2178SOL     OW 1087   3.581   2.447   1.831
 2178SOL    HW1 1088   3.555   2.536   1.795
 2178SOL    HW2 1089   3.579   2.379   1.758
 2180SOL     OW 1090   2.412   2.058   0.885
 2180SOL    HW1 1091   2.407   2.053   0.985
 2180SOL    HW2 1092   2.414   2.154   0.856
 2184SOL     OW 1093   3.089   3.412   1.506
 2184SOL    HW1 1094   3.095   3.335   1.570
 2184SOL    HW2 1095   3.037   3.386   1.426
 2187SOL     OW 1096   2.323   3.128   1.727
 2187SOL    HW1 1097   2.273   3.129   1.641
 2187SOL    HW2 1098   2.260   3.110   1.803
 2189SOL     OW 1099   2.064   2.147   1.498
 2189SOL    HW1 1100   1.984   2.207   1.485
 2189SOL    HW2 1101   2.054   2.098   1.584
 2193SOL     OW 1102   2.111   3.647   1.241
 2193SOL    HW1 1103   2.168   3.582   1.291
 2193SOL    HW2 1104   2.095   3.614   1.148
 2196SOL     OW 1105   3.409   2.084   1.729
 2196SOL    HW1 1106   3.404   2.121   1.821
 2196SOL    HW2 1107   3.337   2.015   1.717
 2198SOL     OW 1108   2.643   2.126   1.749
 2198SOL    HW1 1109   2.710   2.065   1.792
 2198SOL    HW2 1110   2.570   2.145   1.814
 2199SOL     OW 1111   2.750   3.376   1.195
 2199SOL    HW1 1112   2.727   3.351   1.101
 2199SOL    HW2 1113   2.811   3.307   1.234
 2200SOL     OW 1114   3.213   2.452   1.433
 2200SOL    HW1 1115   3.241   2.409   1.518
 2200SOL    HW2 1116   3.238   2.548   1.434
 2201SOL     OW 1117   2.665   3.264   0.924
 2201SOL    HW1 1118   2.755   3.278   0.882
 2201SOL    HW2 1119   2.594   3.266   0.853
 2202SOL     OW 1120   2.784   2.365   0.899
 2202SOL    HW1 1121   2.759   2.356   0.803
 2202SOL    HW2 1122   2.832   2.283   0.930
 2207SOL     OW 1123   2.938   2.545   1.464
 2207SOL    HW1 1124   2.858   2.484   1.467
 2207SOL    HW2 1125   3.019   2.492   1.440
 2212SOL     OW 1126   1.940   2.418   1.386
 2212SOL    HW1 1127   2.032   2.417   1.345
 2212SOL    HW2 1128   1.934   2.492   1.453
 2213SOL     OW 1129   2.423   2.084   1.147
 2213SOL    HW1 1130   2.461   2.000   1.184
 2213SOL    HW2 1131   2.335   2.103   1.191
 2217SOL     OW 1132   3.328   2.452   0.992
 2217SOL    HW1 1133   3.298   2.357   0.999
 2217SOL    HW2 1134   3.401   2.468   1.058
 2223SOL     OW 1135   3.616   3.085   1.588
 2223SOL    HW1 1136   3.707   3.046   1.575
 2223SOL    HW2 1137   3.624   3.181   1.612
 2224SOL     OW 1138   2.926   3.209   1.340
 2224SOL    HW1 1139   2.846   3.186   1.395
 2224SOL    HW2 1140   3.009   3.183   1.389
 2225SOL     OW 1141   3.454   3.491   1.625
 2225SOL    HW1 1142   3.481   3.525   1.535
 2225SOL    HW2 1143   3.533   3.453   1.671
 2226SOL     OW 1144   2.973   3.057   1.100
 2226SOL    HW1 1145   2.933   3.101   1.181
 2226SOL    HW2 1146   2.932   3.094   1.017
 2227SOL     OW 1147   3.500   2.961   1.079
 2227SOL    HW1 1148   3.505   3.042   1.138
 2227SOL    HW2 1149   3.414   2.963   1.028
 2228SOL     OW 1150   2.777   1.951   1.402
 2228SOL    HW1 1151   2.802   1.931   1.307
 2228SOL    HW2 1152   2.849   2.007   1.444
 2229SOL     OW 1153   2.842   2.978   1.719
 2229SOL    HW1 1154   2.743   2.984   1.729
 2229SOL    HW2 1155   2.865   2.898   1.663
 2231SOL     OW 1156   2.272   2.675   1.251
 2231SOL    HW1 1157   2.358   2.687   1.301
 2231SOL    HW2 1158   2.230   2.588   1.278
 2232SOL     OW 1159   3.136   2.248   1.262
 2232SOL    HW1 1160   3.157   2.322   1.326
 2232SOL    HW2 1161   3.047   2.265   1.219
 2233SOL     OW 1162   1.926   3.426   1.331
 2233SOL    HW1 1163   1.880   3.508   1.297
 2233SOL    HW2 1164   2.024   3.445   1.340
 2235SOL     OW 1165   2.428   2.399   0.865
 2235SOL    HW1 1166   2.440   2.465   0.791
 2235SOL    HW2 1167   2.474   2.433   0.948
 2237SOL     OW 1168   3.134   3.307   1.142
 2237SOL    HW1 1169   3.181   3.320   1.229
 2237SOL    HW2 1170   3.068   3.233   1.151
 2239SOL     OW 1171   2.216   3.372   1.329
 2239SOL    HW1 1172   2.195   3.328   1.242
 2239SOL    HW2 1173   2.313   3.398   1.332
 2240SOL     OW 1174   2.264   2.613   1.598
 2240SOL    HW1 1175   2.332   2.668   1.551
 2240SOL    HW2 1176   2.304   2.525   1.625
 2241SOL     OW 1177   3.449   2.641   1.670
 2241SOL    HW1 1178   3.357   2.679   1.665
 2241SOL    HW2 1179   3.509   2.688   1.605
 2242SOL     OW 1180   2.875   1.967   1.770
 2242SOL    HW1 1181   2.881   2.052   1.718
 2242SOL    HW2 1182   2.907   1.891   1.713
 2243SOL     OW 1183   2.366   1.912   1.740
 2243SOL    HW1 1184   2.324   1.855   1.670
 2243SOL    HW2 1185   2.300   1.981   1.772
 2244SOL     OW 1186   2.435   2.732   1.029
 2244SOL    HW1 1187   2.479   2.821   1.020
 2244SOL    HW2 1188   2.372   2.732   1.106
 2245SOL     OW 1189   3.222   2.724   1.045
 2245SOL    HW1 1190   3.147   2.724   0.979
 2245SOL    HW2 1191   3.259   2.632   1.054
 2247SOL     OW 1192   2.169   2.075   1.231
 2247SOL    HW1 1193   2.146   2.112   1.321
 2247SOL    HW2 1194   2.139   1.980   1.225
 2248SOL     OW 1195   1.899   3.172   1.282
 2248SOL    HW1 1196   1.952   3.123   1.350
 2248SOL    HW2 1197   1.921   3.270   1.287
 2249SOL     OW 1198   2.594   2.496   1.064
 2249SOL    HW1 1199   2.653   2.470   0.988
 2249SOL    HW2 1200   2.566   2.592   1.053
 2250SOL     OW 1201   3.590   2.797   1.854
 2250SOL    HW1 1202   3.544   2.790   1.765
 2250SOL    HW2 1203   3.528   2.841   1.920
 2253SOL     OW 1204   2.885   2.628   0.966
 2253SOL    HW1 1205   2.900   2.649   1.062
 2253SOL    HW2 1206   2.855   2.533   0.957
 2254SOL     OW 1207   2.842   3.435   1.700
 2254SOL    HW1 1208   2.822   3.479   1.612
 2254SOL    HW2 1209   2.881   3.344   1.684
 2255SOL     OW 1210   3.721   3.380   1.605
 2255SOL    HW1 1211   3.735   3.407   1.510
 2255SOL    HW2 1212   3.804   3.402   1.658
 2256SOL     OW 1213   2.212   2.760   1.804
 2256SOL    HW1 1214   2.288   2.804   1.852
 2256SOL    HW2 1215   2.247   2.713   1.722
 2260SOL     OW 1216   2.181   2.672   0.949
 2260SOL    HW1 1217   2.274   2.708   0.954
 2260SOL    HW2 1218   2.175   2.587   1.001
 2261SOL     OW 1219   2.201   2.371   1.006
 2261SOL    HW1 1220   2.149   2.288   0.989
 2261SOL    HW2 1221   2.278   2.376   0.942
 2262SOL     OW 1222   3.000   2.242   1.678
 2262SOL    HW1 1223   2.955   2.305   1.742
 2262SOL    HW2 1224   3.093   2.273   1.661
 2263SOL     OW 1225   3.022   2.069   1.477
 2263SOL    HW1 1226   3.022   2.133   1.554
 2263SOL    HW2 1227   3.050   2.117   1.394
 2266SOL     OW 1228   2.864   2.658   1.238
 2266SOL    HW1 1229   2.905   2.626   1.324
 2266SOL    HW2 1230   2.768   2.631   1.235
 2267SOL     OW 1231   1.902   2.406   1.114
 2267SOL    HW1 1232   1.987   2.373   1.073
 2267SOL    HW2 1233   1.915   2.421   1.212
 2268SOL     OW 1234   2.051   2.382   1.722
 2268SOL    HW1 1235   2.110   2.342   1.652
 2268SOL    HW2 1236   1.993   2.453   1.681
 2269SOL     OW 1237   3.231   2.812   1.660
 2269SOL    HW1 1238   3.270   2.901   1.680
 2269SOL    HW2 1239   3.241   2.792   1.563
 2271SOL     OW 1240   3.519   2.466   1.206
 2271SOL    HW1 1241   3.481   2.397   1.268
 2271SOL    HW2 1242   3.601   2.430   1.162
 2272SOL     OW 1243   2.114   3.426   1.744
 2272SOL    HW1 1244   2.084   3.483   1.820
 2272SOL    HW2 1245   2.107   3.329   1.770
 2273SOL     OW 1246   2.533   2.326   1.269
 2273SOL    HW1 1247   2.499   2.237   1.239
 2273SOL    HW2 1248   2.559   2.380   1.189
 2274SOL     OW 1249   2.792   3.540   1.465
 2274SOL    HW1 1250   2.768   3.522   1.370
 2274SOL    HW2 1251   2.822   3.634   1.475
 2276SOL     OW 1252   2.021   2.999   1.466
 2276SOL    HW1 1253   2.043   2.938   1.542
 2276SOL    HW2 1254   2.031   2.950   1.380
 2277SOL     OW 1255   3.209   2.921   1.234
 2277SOL    HW1 1256   3.233   2.858   1.160
 2277SOL    HW2 1257   3.119   2.961   1.216
 2281SOL     OW 1258   1.945   3.120   1.022
 2281SOL    HW1 1259   1.940   3.119   1.122
 2281SOL    HW2 1260   1.862   3.079   0.984
 2282SOL     OW 1261   2.550   3.524   1.716
 2282SOL    HW1 1262   2.494   3.605   1.725
 2282SOL    HW2 1263   2.602   3.528   1.630
 2286SOL     OW 1264   1.992   3.656   1.851
 2286SOL    HW1 1265   1.951   3.582   1.904
 2286SOL    HW2 1266   2.056   3.707   1.909
 2288SOL     OW 1267   2.692   3.135   1.422
 2288SOL    HW1 1268   2.687   3.168   1.517
 2288SOL    HW2 1269   2.606   3.154   1.376
 2294SOL     OW 1270   2.684   2.864   1.372
 2294SOL    HW1 1271   2.724   2.863   1.280
 2294SOL    HW2 1272   2.694   2.956   1.412
 2297SOL     OW 1273   2.234   3.150   1.490
 2297SOL    HW1 1274   2.221   3.243   1.456
 2297SOL    HW2 1275   2.150   3.098   1.477
 2298SOL     OW 1276   3.476   3.154   1.289
 2298SOL    HW1 1277   3.536   3.157   1.369
 2298SOL    HW2 1278   3.401   3.218   1.302
 2300SOL     OW 1279   2.876   2.098   0.971
 2300SOL    HW1 1280   2.868   2.062   0.878
 2300SOL    HW2 1281   2.874   2.022   1.036
 2302SOL     OW 1282   3.571   2.247   1.381
 2302SOL    HW1 1283   3.644   2.316   1.385
 2302SOL    HW2 1284   3.599   2.172   1.322
 2304SOL     OW 1285   1.967   2.875   1.726
 2304SOL    HW1 1286   1.890   2.842   1.780
 2304SOL    HW2 1287   2.052   2.845   1.768
 2305SOL     OW 1288   2.534   2.065   1.489
 2305SOL    HW1 1289   2.624   2.049   1.449
 2305SOL    HW2 1290   2.542   2.070   1.588
 2306SOL     OW 1291   3.302   2.718   1.398
 2306SOL    HW1 1292   3.245   2.770   1.335
 2306SOL    HW2 1293   3.398   2.730   1.374
 2309SOL     OW 1294   2.475   2.704   1.431
 2309SOL    HW1 1295   2.531   2.785   1.414
 2309SOL    HW2 1296   2.534   2.624   1.434
 2311SOL     OW 1297   2.578   2.427   1.708
 2311SOL    HW1 1298   2.597   2.492   1.782
 2311SOL    HW2 1299   2.638   2.347   1.717
 2312SOL     OW 1300   3.312   3.082   1.633
 2312SOL    HW1 1301   3.303   3.072   1.732
 2312SOL    HW2 1302   3.408   3.075   1.607
 2313SOL     OW 1303   2.252   3.603   1.560
 2313SOL    HW1 1304   2.161   3.644   1.558
 2313SOL    HW2 1305   2.245   3.509   1.592
 2314SOL     OW 1306   3.536   2.745   1.254
 2314SOL    HW1 1307   3.509   2.656   1.217
 2314SOL    HW2 1308   3.537   2.813   1.181
 2317SOL     OW 1309   3.639   2.204   1.642
 2317SOL    HW1 1310   3.622   2.235   1.548
 2317SOL    HW2 1311   3.555   2.167   1.680
 2318SOL     OW 1312   3.592   2.796   1.517
 2318SOL    HW1 1313   3.630   2.887   1.532
 2318SOL    HW2 1314   3.584   2.779   1.418
 2321SOL     OW 1315   2.721   2.818   0.861
 2321SOL    HW1 1316   2.775   2.749   0.909
 2321SOL    HW2 1317   2.689   2.887   0.927
 2324SOL     OW 1318   2.083   3.176   1.844
 2324SOL    HW1 1319   2.018   3.103   1.823
 2324SOL    HW2 1320   2.087   3.190   1.942
 2326SOL     OW 1321   2.534   3.253   1.624
 2326SOL    HW1 1322   2.456   3.203   1.662
 2326SOL    HW2 1323   2.531   3.348   1.655
 2330SOL     OW 1324   2.179   2.409   1.280
 2330SOL    HW1 1325   2.217   2.350   1.352
 2330SOL    HW2 1326   2.219   2.383   1.192
 2332SOL     OW 1327   3.286   2.076   1.112
 2332SOL    HW1 1328   3.338   2.011   1.167
 2332SOL    HW2 1329   3.237   2.139   1.173
 2333SOL     OW 1330   2.863   1.896   1.154
 2333SOL    HW1 1331   2.800   1.824   1.123
 2333SOL    HW2 1332   2.956   1.860   1.154
 2335SOL     OW 1333   2.480   3.429   1.284
 2335SOL    HW1 1334   2.475   3.511   1.341
 2335SOL    HW2 1335   2.569   3.426   1.239
 2341SOL     OW 1336   2.092   2.490   1.975
 2341SOL    HW1 1337   1.999   2.488   2.012
 2341SOL    HW2 1338   2.093   2.451   1.883
 2342SOL     OW 1339   2.087   2.137   2.858
 2342SOL    HW1 1340   2.122   2.120   2.950
 2342SOL    HW2 1341   1.999   2.092   2.846
 2343SOL     OW 1342   1.881   2.230   2.509
 2343SOL    HW1 1343   1.799   2.273   2.548
 2343SOL    HW2 1344   1.853   2.157   2.446
 2344SOL     OW 1345   2.431   3.137   3.027
 2344SOL    HW1 1346   2.338   3.130   2.990
 2344SOL    HW2 1347   2.442   3.226   3.071
 2345SOL     OW 1348   3.417   3.373   2.565
 2345SOL    HW1 1349   3.360   3.357   2.646
 2345SOL    HW2 1350   3.358   3.383   2.485
 2346SOL     OW 1351   3.617   2.469   2.093
 2346SOL    HW1 1352   3.605   2.456   1.994
 2346SOL    HW2 1353   3.587   2.388   2.142
 2347SOL     OW 1354   2.630   3.006   2.885
 2347SOL    HW1 1355   2.552   3.023   2.945
 2347SOL    HW2 1356   2.664   3.093   2.849
 2348SOL     OW 1357   2.712   2.660   3.685
 2348SOL    HW1 1358   2.708   2.736   3.750
 2348SOL    HW2 1359   2.734   2.696   3.594
 2349SOL     OW 1360   2.548   3.023   3.665
 2349SOL    HW1 1361   2.608   3.102   3.679
 2349SOL    HW2 1362   2.462   3.054   3.624
 2350SOL     OW 1363   2.197   3.297   2.923
 2350SOL    HW1 1364   2.119   3.266   2.870
 2350SOL    HW2 1365   2.255   3.355   2.866
 2351SOL     OW 1366   3.322   3.367   3.201
 2351SOL    HW1 1367   3.346   3.461   3.227
 2351SOL    HW2 1368   3.306   3.313   3.283
 2352SOL     OW 1369   2.300   2.254   3.361
 2352SOL    HW1 1370   2.382   2.198   3.370
 2352SOL    HW2 1371   2.219   2.196   3.365
 2353SOL     OW 1372   3.465   2.309   2.599
 2353SOL    HW1 1373   3.391   2.355   2.549
 2353SOL    HW2 1374   3.516   2.377   2.652
 2354SOL     OW 1375   2.093   3.575   2.345
 2354SOL    HW1 1376   2.127   3.652   2.399
 2354SOL    HW2 1377   2.137   3.575   2.255
 2355SOL     OW 1378   2.989   3.203   3.552
 2355SOL    HW1 1379   3.036   3.203   3.640
 2355SOL    HW2 1380   2.941   3.116   3.541
 2356SOL     OW 1381   2.092   3.296   2.400
 2356SOL    HW1 1382   2.066   3.392   2.400
 2356SOL    HW2 1383   2.021   3.242   2.445
 2357SOL     OW 1384   2.102   2.953   2.748
 2357SOL    HW1 1385   2.116   2.869   2.800
 2357SOL    HW2 1386   2.047   3.017   2.803
 2358SOL     OW 1387   2.482   3.648   3.301
 2358SOL    HW1 1388   2.390   3.631   3.336
 2358SOL    HW2 1389   2.510   3.740   3.327
 2359SOL     OW 1390   3.456   1.976   3.342
 2359SOL    HW1 1391   3.438   2.043   3.270
 2359SOL    HW2 1392   3.453   2.022   3.431
 2360SOL     OW 1393   1.984   2.505   2.425
 2360SOL    HW1 1394   1.939   2.417   2.442
 2360SOL    HW2 1395   1.983   2.559   2.509
 2361SOL     OW 1396   3.704   3.629   2.221
 2361SOL    HW1 1397   3.758   3.600   2.301
 2361SOL    HW2 1398   3.734   3.719   2.192
 2362SOL     OW 1399   1.889   3.458   1.979
 2362SOL    HW1 1400   1.870   3.362   2.000
 2362SOL    HW2 1401   1.856   3.516   2.054
 2363SOL     OW 1402   3.551   2.784   2.474
 2363SOL    HW1 1403   3.646   2.755   2.482
 2363SOL    HW2 1404   3.543   2.849   2.399
 2364SOL     OW 1405   3.503   2.970   2.294
 2364SOL    HW1 1406   3.589   2.972   2.242
 2364SOL    HW2 1407   3.517   3.017   2.382
 2365SOL     OW 1408   1.975   2.599   3.459
 2365SOL    HW1 1409   2.063   2.586   3.504
 2365SOL    HW2 1410   1.962   2.696   3.437
 2366SOL     OW 1411   2.475   3.227   2.588
 2366SOL    HW1 1412   2.426   3.140   2.597
 2366SOL    HW2 1413   2.452   3.270   2.501
 2367SOL     OW 1414   3.155   3.090   3.285
 2367SOL    HW1 1415   3.192   3.017   3.227
 2367SOL    HW2 1416   3.207   3.095   3.370
 2368SOL     OW 1417   2.059   2.838   3.126
 2368SOL    HW1 1418   2.148   2.793   3.112
 2368SOL    HW2 1419   1.986   2.773   3.107
 2369SOL     OW 1420   3.387   2.861   2.052
 2369SOL    HW1 1421   3.324   2.785   2.065
 2369SOL    HW2 1422   3.435   2.879   2.138
 2370SOL     OW 1423   3.049   3.654   3.478
 2370SOL    HW1 1424   3.073   3.714   3.402
 2370SOL    HW2 1425   3.056   3.559   3.448
 2371SOL     OW 1426   2.179   2.113   3.663
 2371SOL    HW1 1427   2.250   2.184   3.669
 2371SOL    HW2 1428   2.091   2.152   3.691
 2372SOL     OW 1429   3.328   3.279   2.815
 2372SOL    HW1 1430   3.269   3.285   2.895
 2372SOL    HW2 1431   3.313   3.191   2.769
 2373SOL     OW 1432   3.529   3.576   2.434
 2373SOL    HW1 1433   3.488   3.553   2.346
 2373SOL    HW2 1434   3.511   3.502   2.499
 2374SOL     OW 1435   3.143   2.207   2.806
 2374SOL    HW1 1436   3.057   2.157   2.793
 2374SOL    HW2 1437   3.205   2.153   2.862
 2375SOL     OW 1438   3.438   3.524   2.169
 2375SOL    HW1 1439   3.527   3.570   2.172
 2375SOL    HW2 1440   3.417   3.500   2.074
 2376SOL     OW 1441   2.669   2.467   3.327
 2376SOL    HW1 1442   2.622   2.464   3.416
 2376SOL    HW2 1443   2.618   2.412   3.261
 2377SOL     OW 1444   3.256   2.331   3.536
 2377SOL    HW1 1445   3.236   2.374   3.624
 2377SOL    HW2 1446   3.334   2.269   3.545
 2378SOL     OW 1447   2.835   2.752   3.434
 2378SOL    HW1 1448   2.881   2.668   3.405
 2378SOL    HW2 1449   2.779   2.786   3.359
 2379SOL     OW 1450   2.853   2.272   3.104
 2379SOL    HW1 1451   2.776   2.306   3.158
 2379SOL    HW2 1452   2.819   2.221   3.025
 2380SOL     OW 1453   1.938   2.673   2.651
 2380SOL    HW1 1454   2.037   2.661   2.660
 2380SOL    HW2 1455   1.914   2.768   2.672
 2381SOL     OW 1456   1.992   3.683   3.433
 2381SOL    HW1 1457   1.982   3.668   3.532
 2381SOL    HW2 1458   1.906   3.719   3.397
 2382SOL     OW 1459   2.727   2.210   2.057
 2382SOL    HW1 1460   2.786   2.273   2.008
 2382SOL    HW2 1461   2.746   2.116   2.028
 2383SOL     OW 1462   3.581   2.447   3.693
 2383SOL    HW1 1463   3.555   2.536   3.657
 2383SOL    HW2 1464   3.579   2.379   3.620
 2384SOL     OW 1465   3.224   3.006   2.407
 2384SOL    HW1 1466   3.307   2.977   2.359
 2384SOL    HW2 1467   3.175   3.073   2.351
 2385SOL     OW 1468   2.412   2.058   2.747
 2385SOL    HW1 1469   2.407   2.053   2.847
 2385SOL    HW2 1470   2.414   2.154   2.718
 2386SOL     OW 1471   2.870   3.318   2.339
 2386SOL    HW1 1472   2.824   3.390   2.287
 2386SOL    HW2 1473   2.866   3.338   2.437
 2387SOL     OW 1474   2.213   3.663   2.715
 2387SOL    HW1 1475   2.263   3.577   2.721
 2387SOL    HW2 1476   2.278   3.740   2.712
 2388SOL     OW 1477   3.657   2.928   2.735
 2388SOL    HW1 1478   3.595   2.913   2.659
 2388SOL    HW2 1479   3.605   2.939   2.820
 2389SOL     OW 1480   3.089   3.412   3.368
 2389SOL    HW1 1481   3.095   3.335   3.432
 2389SOL    HW2 1482   3.037   3.386   3.288
 2390SOL     OW 1483   2.183   2.805   2.104
 2390SOL    HW1 1484   2.265   2.844   2.062
 2390SOL    HW2 1485   2.156   2.723   2.055
 2391SOL     OW 1486   3.320   2.597   2.590
 2391SOL    HW1 1487   3.315   2.532   2.665
 2391SOL    HW2 1488   3.400   2.656   2.603
 2392SOL     OW 1489   2.323   3.128   3.589
 2392SOL    HW1 1490   2.273   3.129   3.503
 2392SOL    HW2 1491   2.260   3.110   3.665
 2393SOL     OW 1492   2.973   3.638   2.099
 2393SOL    HW1 1493   2.913   3.576   2.149
 2393SOL    HW2 1494   3.004   3.594   2.014
 2394SOL     OW 1495   2.064   2.147   3.360
 2394SOL    HW1 1496   1.984   2.207   3.347
 2394SOL    HW2 1497   2.054   2.098   3.446
 2395SOL     OW 1498   3.494   3.239   1.943
 2395SOL    HW1 1499   3.462   3.333   1.933
 2395SOL    HW2 1500   3.418   3.176   1.931
 2396SOL     OW 1501   2.326   3.605   2.185
 2396SOL    HW1 1502   2.359   3.644   2.271
 2396SOL    HW2 1503   2.402   3.598   2.120
 2397SOL     OW 1504   3.262   1.969   2.288
 2397SOL    HW1 1505   3.238   1.932   2.198
 2397SOL    HW2 1506   3.361   1.985   2.292
 2398SOL     OW 1507   2.111   3.647   3.103
 2398SOL    HW1 1508   2.168   3.582   3.153
 2398SOL    HW2 1509   2.095   3.614   3.010
 2399SOL     OW 1510   2.802   3.560   2.766
 2399SOL    HW1 1511   2.882   3.503   2.787
 2399SOL    HW2 1512   2.753   3.520   2.689
 2400SOL     OW 1513   3.409   2.084   3.591
 2400SOL    HW1 1514   3.404   2.121   3.683
 2400SOL    HW2 1515   3.337   2.015   3.579
 2401SOL     OW 1516   2.476   1.984   1.979
 2401SOL    HW1 1517   2.574   1.962   1.986
 2401SOL    HW2 1518   2.445   1.967   1.886
 2402SOL     OW 1519   2.643   2.126   3.611
 2402SOL    HW1 1520   2.710   2.065   3.654
 2402SOL    HW2 1521   2.570   2.145   3.676
 2403SOL     OW 1522   2.750   3.376   3.057
 2403SOL    HW1 1523   2.727   3.351   2.963
 2403SOL    HW2 1524   2.811   3.307   3.096
 2404SOL     OW 1525   3.213   2.452   3.295
 2404SOL    HW1 1526   3.241   2.409   3.380
 2404SOL    HW2 1527   3.238   2.548   3.296
 2405SOL     OW 1528   2.665   3.264   2.786
 2405SOL    HW1 1529   2.755   3.278   2.744
 2405SOL    HW2 1530   2.594   3.266   2.715
 2406SOL     OW 1531   2.401   1.926   2.374
 2406SOL    HW1 1532   2.320   1.927   2.432
 2406SOL    HW2 1533   2.404   2.009   2.319
 2407SOL     OW 1534   3.296   3.050   1.903
 2407SOL    HW1 1535   3.328   2.974   1.960
 2407SOL    HW2 1536   3.204   3.077   1.933
 2408SOL     OW 1537   2.159   1.897   2.033
 2408SOL    HW1 1538   2.208   1.981   2.012
 2408SOL    HW2 1539   2.221   1.832   2.078
 2409SOL     OW 1540   2.797   2.098   2.342
 2409SOL    HW1 1541   2.749   2.139   2.264
 2409SOL    HW2 1542   2.896   2.096   2.323
 2410SOL     OW 1543   2.938   2.545   3.326
 2410SOL    HW1 1544   2.858   2.484   3.329
 2410SOL    HW2 1545   3.019   2.492   3.302
 2411SOL     OW 1546   3.089   3.432   2.655
 2411SOL    HW1 1547   3.110   3.506   2.590
 2411SOL    HW2 1548   3.157   3.432   2.728
 2412SOL     OW 1549   2.321   3.014   2.603
 2412SOL    HW1 1550   2.250   2.987   2.668
 2412SOL    HW2 1551   2.295   2.986   2.510
 2413SOL     OW 1552   3.133   3.659   2.453
 2413SOL    HW1 1553   3.177   3.723   2.389
 2413SOL    HW2 1554   3.083   3.711   2.523
 2414SOL     OW 1555   2.894   2.411   1.878
 2414SOL    HW1 1556   2.853   2.493   1.839
 2414SOL    HW2 1557   2.958   2.437   1.951
 2415SOL     OW 1558   1.940   2.418   3.248
 2415SOL    HW1 1559   2.032   2.417   3.207
 2415SOL    HW2 1560   1.934   2.492   3.315
 2416SOL     OW 1561   2.423   2.084   3.009
 2416SOL    HW1 1562   2.461   2.000   3.046
 2416SOL    HW2 1563   2.335   2.103   3.053
 2417SOL     OW 1564   3.291   3.035   2.729
 2417SOL    HW1 1565   3.236   2.951   2.722
 2417SOL    HW2 1566   3.317   3.064   2.637
 2418SOL     OW 1567   3.328   2.452   2.854
 2418SOL    HW1 1568   3.298   2.357   2.861
 2418SOL    HW2 1569   3.401   2.468   2.920
 2419SOL     OW 1570   3.719   2.695   2.239
 2419SOL    HW1 1571   3.761   2.631   2.303
 2419SOL    HW2 1572   3.681   2.644   2.161
 2420SOL     OW 1573   2.350   3.247   2.036
 2420SOL    HW1 1574   2.263   3.232   2.083
 2420SOL    HW2 1575   2.333   3.273   1.941
 2421SOL     OW 1576   3.526   3.142   2.519
 2421SOL    HW1 1577   3.625   3.150   2.533
 2421SOL    HW2 1578   3.481   3.226   2.550
 2422SOL     OW 1579   3.252   2.437   1.940
 2422SOL    HW1 1580   3.198   2.416   2.021
 2422SOL    HW2 1581   3.343   2.396   1.949
 2423SOL     OW 1582   2.389   2.118   2.190
 2423SOL    HW1 1583   2.416   2.059   2.115
 2423SOL    HW2 1584   2.389   2.213   2.159
 2424SOL     OW 1585   3.616   3.085   3.450
 2424SOL    HW1 1586   3.707   3.046   3.437
 2424SOL    HW2 1587   3.624   3.181   3.474
 2425SOL     OW 1588   2.926   3.209   3.202
 2425SOL    HW1 1589   2.846   3.186   3.257
 2425SOL    HW2 1590   3.009   3.183   3.251
 2426SOL     OW 1591   3.454   3.491   3.487
 2426SOL    HW1 1592   3.481   3.525   3.397
 2426SOL    HW2 1593   3.533   3.453   3.533
 2427SOL     OW 1594   2.973   3.057   2.962
 2427SOL    HW1 1595   2.933   3.101   3.043
 2427SOL    HW2 1596   2.932   3.094   2.879
 2428SOL     OW 1597   3.500   2.961   2.941
 2428SOL    HW1 1598   3.505   3.042   3.000
 2428SOL    HW2 1599   3.414   2.963   2.890
 2429SOL     OW 1600   2.777   1.951   3.264
 2429SOL    HW1 1601   2.802   1.931   3.169
 2429SOL    HW2 1602   2.849   2.007   3.306
 2430SOL     OW 1603   2.842   2.978   3.581
 2430SOL    HW1 1604   2.743   2.984   3.591
 2430SOL    HW2 1605   2.865   2.898   3.525
 2431SOL     OW 1606   2.272   2.675   3.113
 2431SOL    HW1 1607   2.358   2.687   3.163
 2431SOL    HW2 1608   2.230   2.588   3.140
 2432SOL     OW 1609   3.136   2.248   3.124
 2432SOL    HW1 1610   3.157   2.322   3.188
 2432SOL    HW2 1611   3.047   2.265   3.081
 2433SOL     OW 1612   1.926   3.426   3.193
 2433SOL    HW1 1613   1.880   3.508   3.159
 2433SOL    HW2 1614   2.024   3.445   3.202
 2434SOL     OW 1615   2.229   2.962   2.363
 2434SOL    HW1 1616   2.222   3.045   2.307
 2434SOL    HW2 1617   2.233   2.882   2.303
 2435SOL     OW 1618   3.114   3.210   2.250
 2435SOL    HW1 1619   3.164   3.287   2.290
 2435SOL    HW2 1620   3.019   3.212   2.282
 2436SOL     OW 1621   3.134   3.307   3.004
 2436SOL    HW1 1622   3.181   3.320   3.091
 2436SOL    HW2 1623   3.068   3.233   3.013
 2437SOL     OW 1624   3.444   2.501   2.334
 2437SOL    HW1 1625   3.413   2.562   2.407
 2437SOL    HW2 1626   3.494   2.553   2.265
 2438SOL     OW 1627   2.216   3.372   3.191
 2438SOL    HW1 1628   2.195   3.328   3.104
 2438SOL    HW2 1629   2.313   3.398   3.194
 2439SOL     OW 1630   2.264   2.613   3.460
 2439SOL    HW1 1631   2.332   2.668   3.413
 2439SOL    HW2 1632   2.304   2.525   3.487
 2440SOL     OW 1633   3.449   2.641   3.532
 2440SOL    HW1 1634   3.357   2.679   3.527
 2440SOL    HW2 1635   3.509   2.688   3.467
 2441SOL     OW 1636   2.875   1.967   3.632
 2441SOL    HW1 1637   2.881   2.052   3.580
 2441SOL    HW2 1638   2.907   1.891   3.575
 2442SOL     OW 1639   2.366   1.912   3.602
 2442SOL    HW1 1640   2.324   1.855   3.532
 2442SOL    HW2 1641   2.300   1.981   3.634
 2443SOL     OW 1642   3.222   2.724   2.907
 2443SOL    HW1 1643   3.147   2.724   2.841
 2443SOL    HW2 1644   3.259   2.632   2.916
 2444SOL     OW 1645   3.071   2.387   2.137
 2444SOL    HW1 1646   3.084   2.303   2.191
 2444SOL    HW2 1647   3.042   2.461   2.197
 2445SOL     OW 1648   2.169   2.075   3.093
 2445SOL    HW1 1649   2.146   2.112   3.183
 2445SOL    HW2 1650   2.139   1.980   3.087
 2446SOL     OW 1651   1.899   3.172   3.144
 2446SOL    HW1 1652   1.952   3.123   3.212
 2446SOL    HW2 1653   1.921   3.270   3.149
 2447SOL     OW 1654   2.594   2.496   2.926
 2447SOL    HW1 1655   2.653   2.470   2.850
 2447SOL    HW2 1656   2.566   2.592   2.915
 2448SOL     OW 1657   3.590   2.797   3.716
 2448SOL    HW1 1658   3.544   2.790   3.627
 2448SOL    HW2 1659   3.528   2.841   3.782
 2449SOL     OW 1660   2.169   1.925   2.480
 2449SOL    HW1 1661   2.158   2.019   2.513
 2449SOL    HW2 1662   2.164   1.862   2.557
 2450SOL     OW 1663   3.484   2.229   2.236
 2450SOL    HW1 1664   3.486   2.153   2.300
 2450SOL    HW2 1665   3.436   2.306   2.276
 2451SOL     OW 1666   2.842   3.435   3.562
 2451SOL    HW1 1667   2.822   3.479   3.474
 2451SOL    HW2 1668   2.881   3.344   3.546
 2452SOL     OW 1669   3.721   3.380   3.467
 2452SOL    HW1 1670   3.735   3.407   3.372
 2452SOL    HW2 1671   3.804   3.402   3.520
 2453SOL     OW 1672   2.212   2.760   3.666
 2453SOL    HW1 1673   2.288   2.804   3.714
 2453SOL    HW2 1674   2.247   2.713   3.584
 2454SOL     OW 1675   3.402   2.136   1.987
 2454SOL    HW1 1676   3.341   2.061   2.010
 2454SOL    HW2 1677   3.424   2.188   2.070
 2455SOL     OW 1678   3.165   2.700   1.904
 2455SOL    HW1 1679   3.199   2.607   1.919
 2455SOL    HW2 1680   3.183   2.727   1.809
 2456SOL     OW 1681   2.930   3.195   2.711
 2456SOL    HW1 1682   2.937   3.111   2.656
 2456SOL    HW2 1683   2.992   3.264   2.675
 2457SOL     OW 1684   2.201   2.371   2.868
 2457SOL    HW1 1685   2.149   2.288   2.851
 2457SOL    HW2 1686   2.278   2.376   2.804
 2458SOL     OW 1687   3.000   2.242   3.540
 2458SOL    HW1 1688   2.955   2.305   3.604
 2458SOL    HW2 1689   3.093   2.273   3.523
 2459SOL     OW 1690   3.022   2.069   3.339
 2459SOL    HW1 1691   3.022   2.133   3.416
 2459SOL    HW2 1692   3.050   2.117   3.256
 2460SOL     OW 1693   1.870   3.188   2.062
 2460SOL    HW1 1694   1.777   3.209   2.031
 2460SOL    HW2 1695   1.880   3.089   2.075
 2461SOL     OW 1696   1.950   3.663   2.789
 2461SOL    HW1 1697   1.908   3.577   2.762
 2461SOL    HW2 1698   2.044   3.666   2.755
 2462SOL     OW 1699   2.366   3.430   2.772
 2462SOL    HW1 1700   2.432   3.504   2.781
 2462SOL    HW2 1701   2.410   3.351   2.730
 2463SOL     OW 1702   2.864   2.658   3.100
 2463SOL    HW1 1703   2.905   2.626   3.186
 2463SOL    HW2 1704   2.768   2.631   3.097
 2464SOL     OW 1705   1.902   2.406   2.976
 2464SOL    HW1 1706   1.987   2.373   2.935
 2464SOL    HW2 1707   1.915   2.421   3.074
 2465SOL     OW 1708   2.051   2.382   3.584
 2465SOL    HW1 1709   2.110   2.342   3.514
 2465SOL    HW2 1710   1.993   2.453   3.543
 2466SOL     OW 1711   3.231   2.812   3.522
 2466SOL    HW1 1712   3.270   2.901   3.542
 2466SOL    HW2 1713   3.241   2.792   3.425
 2467SOL     OW 1714   2.677   2.434   2.187
 2467SOL    HW1 1715   2.684   2.345   2.141
 2467SOL    HW2 1716   2.583   2.468   2.179
 2468SOL     OW 1717   3.519   2.466   3.068
 2468SOL    HW1 1718   3.481   2.397   3.130
 2468SOL    HW2 1719   3.601   2.430   3.024
 2469SOL     OW 1720   2.114   3.426   3.606
 2469SOL    HW1 1721   2.084   3.483   3.682
 2469SOL    HW2 1722   2.107   3.329   3.632
 2470SOL     OW 1723   2.533   2.326   3.131
 2470SOL    HW1 1724   2.499   2.237   3.101
 2470SOL    HW2 1725   2.559   2.380   3.051
 2471SOL     OW 1726   2.792   3.540   3.327
 2471SOL    HW1 1727   2.768   3.522   3.232
 2471SOL    HW2 1728   2.822   3.634   3.337
 2472SOL     OW 1729   2.335   2.362   2.053
 2472SOL    HW1 1730   2.396   2.442   2.057
 2472SOL    HW2 1731   2.240   2.393   2.060
 2473SOL     OW 1732   2.021   2.999   3.328
 2473SOL    HW1 1733   2.043   2.938   3.404
 2473SOL    HW2 1734   2.031   2.950   3.242
 2474SOL     OW 1735   3.209   2.921   3.096
 2474SOL    HW1 1736   3.233   2.858   3.022
 2474SOL    HW2 1737   3.119   2.961   3.078
 2475SOL     OW 1738   3.164   2.717   2.171
 2475SOL    HW1 1739   3.078   2.686   2.213
 2475SOL    HW2 1740   3.160   2.703   2.072
 2476SOL     OW 1741   3.621   3.609   3.016
 2476SOL    HW1 1742   3.682   3.639   2.943
 2476SOL    HW2 1743   3.583   3.520   2.994
 2477SOL     OW 1744   3.114   3.593   2.990
 2477SOL    HW1 1745   3.198   3.598   2.936
 2477SOL    HW2 1746   3.091   3.497   3.008
 2478SOL     OW 1747   1.945   3.120   2.884
 2478SOL    HW1 1748   1.940   3.119   2.984
 2478SOL    HW2 1749   1.862   3.079   2.846
 2479SOL     OW 1750   2.550   3.524   3.578
 2479SOL    HW1 1751   2.494   3.605   3.587
 2479SOL    HW2 1752   2.602   3.528   3.492
 2480SOL     OW 1753   3.588   1.997   2.385
 2480SOL    HW1 1754   3.661   1.980   2.318
 2480SOL    HW2 1755   3.557   1.910   2.423
 2481SOL     OW 1756   3.250   3.435   2.339
 2481SOL    HW1 1757   3.317   3.447   2.265
 2481SOL    HW2 1758   3.210   3.524   2.362
 2482SOL     OW 1759   1.992   3.656   3.713
 2482SOL    HW1 1760   1.951   3.582   3.766
 2482SOL    HW2 1761   2.056   3.707   3.771
 2483SOL     OW 1762   3.142   2.789   2.534
 2483SOL    HW1 1763   3.202   2.708   2.536
 2483SOL    HW2 1764   3.182   2.858   2.474
 2484SOL     OW 1765   2.692   3.135   3.284
 2484SOL    HW1 1766   2.687   3.168   3.379
 2484SOL    HW2 1767   2.606   3.154   3.238
 2485SOL     OW 1768   2.534   3.478   2.016
 2485SOL    HW1 1769   2.543   3.488   1.917
 2485SOL    HW2 1770   2.494   3.389   2.037
 2486SOL     OW 1771   3.512   3.582   3.256
 2486SOL    HW1 1772   3.565   3.592   3.172
 2486SOL    HW2 1773   3.485   3.672   3.290
 2487SOL     OW 1774   3.703   2.037   2.825
 2487SOL    HW1 1775   3.742   1.952   2.789
 2487SOL    HW2 1776   3.605   2.039   2.806
 2488SOL     OW 1777   2.125   2.188   2.582
 2488SOL    HW1 1778   2.046   2.239   2.548
 2488SOL    HW2 1779   2.116   2.173   2.680
 2489SOL     OW 1780   3.056   3.474   1.893
 2489SOL    HW1 1781   3.062   3.381   1.930
 2489SOL    HW2 1782   2.997   3.474   1.813
 2490SOL     OW 1783   2.684   2.864   3.234
 2490SOL    HW1 1784   2.724   2.863   3.142
 2490SOL    HW2 1785   2.694   2.956   3.274
 2491SOL     OW 1786   2.778   2.772   2.153
 2491SOL    HW1 1787   2.841   2.810   2.085
 2491SOL    HW2 1788   2.818   2.689   2.192
 2492SOL     OW 1789   3.366   3.469   1.906
 2492SOL    HW1 1790   3.274   3.506   1.913
 2492SOL    HW2 1791   3.404   3.489   1.816
 2493SOL     OW 1792   2.234   3.150   3.352
 2493SOL    HW1 1793   2.221   3.243   3.318
 2493SOL    HW2 1794   2.150   3.098   3.339
 2494SOL     OW 1795   3.476   3.154   3.151
 2494SOL    HW1 1796   3.536   3.157   3.231
 2494SOL    HW2 1797   3.401   3.218   3.164
 2495SOL     OW 1798   2.901   2.960   2.558
 2495SOL    HW1 1799   2.831   2.913   2.612
 2495SOL    HW2 1800   2.960   2.892   2.515
 2496SOL     OW 1801   2.876   2.098   2.833
 2496SOL    HW1 1802   2.868   2.062   2.740
 2496SOL    HW2 1803   2.874   2.022   2.898
 2497SOL     OW 1804   2.452   3.349   2.353
 2497SOL    HW1 1805   2.494   3.291   2.283
 2497SOL    HW2 1806   2.408   3.428   2.309
 2498SOL     OW 1807   3.571   2.247   3.243
 2498SOL    HW1 1808   3.644   2.316   3.247
 2498SOL    HW2 1809   3.599   2.172   3.184
 2499SOL     OW 1810   2.117   3.210   2.152
 2499SOL    HW1 1811   2.021   3.211   2.125
 2499SOL    HW2 1812   2.129   3.263   2.236
 2500SOL     OW 1813   1.967   2.875   3.588
 2500SOL    HW1 1814   1.890   2.842   3.642
 2500SOL    HW2 1815   2.052   2.845   3.630
 2501SOL     OW 1816   2.534   2.065   3.351
 2501SOL    HW1 1817   2.624   2.049   3.311
 2501SOL    HW2 1818   2.542   2.070   3.450
 2502SOL     OW 1819   1.937   2.207   1.895
 2502SOL    HW1 1820   1.845   2.179   1.866
 2502SOL    HW2 1821   1.968   2.284   1.839
 2503SOL     OW 1822   3.302   2.718   3.260
 2503SOL    HW1 1823   3.245   2.770   3.197
 2503SOL    HW2 1824   3.398   2.730   3.236
 2504SOL     OW 1825   1.934   2.028   2.180
 2504SOL    HW1 1826   1.917   2.111   2.126
 2504SOL    HW2 1827   2.024   1.991   2.158
 2505SOL     OW 1828   3.045   3.197   1.981
 2505SOL    HW1 1829   2.946   3.186   1.983
 2505SOL    HW2 1830   3.079   3.212   2.074
 2506SOL     OW 1831   2.475   2.704   3.293
 2506SOL    HW1 1832   2.531   2.785   3.276
 2506SOL    HW2 1833   2.534   2.624   3.296
 2507SOL     OW 1834   3.355   3.629   2.821
 2507SOL    HW1 1835   3.388   3.693   2.752
 2507SOL    HW2 1836   3.421   3.623   2.896
 2508SOL     OW 1837   2.578   2.427   3.570
 2508SOL    HW1 1838   2.597   2.492   3.644
 2508SOL    HW2 1839   2.638   2.347   3.579
 2509SOL     OW 1840   3.312   3.082   3.495
 2509SOL    HW1 1841   3.303   3.072   3.594
 2509SOL    HW2 1842   3.408   3.075   3.469
 2510SOL     OW 1843   2.252   3.603   3.422
 2510SOL    HW1 1844   2.161   3.644   3.420
 2510SOL    HW2 1845   2.245   3.509   3.454
 2511SOL     OW 1846   3.536   2.745   3.116
 2511SOL    HW1 1847   3.509   2.656   3.079
 2511SOL    HW2 1848   3.537   2.813   3.043
 2512SOL     OW 1849   3.087   2.187   2.311
 2512SOL    HW1 1850   3.152   2.113   2.300
 2512SOL    HW2 1851   3.107   2.237   2.395
 2513SOL     OW 1852   3.639   2.204   3.504
 2513SOL    HW1 1853   3.622   2.235   3.410
 2513SOL    HW2 1854   3.555   2.167   3.542
 2514SOL     OW 1855   3.592   2.796   3.379
 2514SOL    HW1 1856   3.630   2.887   3.394
 2514SOL    HW2 1857   3.584   2.779   3.280
 2515SOL     OW 1858   2.721   3.236   1.878
 2515SOL    HW1 1859   2.675   3.251   1.966
 2515SOL    HW2 1860   2.765   3.321   1.848
 2516SOL     OW 1861   2.523   3.652   2.815
 2516SOL    HW1 1862   2.477   3.740   2.802
 2516SOL    HW2 1863   2.622   3.664   2.808
 2517SOL     OW 1864   2.721   2.818   2.723
 2517SOL    HW1 1865   2.775   2.749   2.771
 2517SOL    HW2 1866   2.689   2.887   2.789
 2518SOL     OW 1867   2.945   2.846   1.949
 2518SOL    HW1 1868   2.922   2.899   1.867
 2518SOL    HW2 1869   3.026   2.790   1.930
 2519SOL     OW 1870   3.723   3.431   2.713
 2519SOL    HW1 1871   3.652   3.419   2.643
 2519SOL    HW2 1872   3.724   3.352   2.773
 2520SOL     OW 1873   2.083   3.176   3.706
 2520SOL    HW1 1874   2.018   3.103   3.685
 2520SOL    HW2 1875   2.087   3.190   3.804
 2521SOL     OW 1876   1.941   3.102   2.515
 2521SOL    HW1 1877   1.940   3.055   2.603
 2521SOL    HW2 1878   2.023   3.074   2.464
 2522SOL     OW 1879   2.534   3.253   3.486
 2522SOL    HW1 1880   2.456   3.203   3.524
 2522SOL    HW2 1881   2.531   3.348   3.517
 2523SOL     OW 1882   3.686   2.054   3.089
 2523SOL    HW1 1883   3.682   1.964   3.133
 2523SOL    HW2 1884   3.689   2.043   2.990
 2524SOL     OW 1885   3.567   3.349   2.966
 2524SOL    HW1 1886   3.474   3.324   2.939
 2524SOL    HW2 1887   3.593   3.299   3.048
 2525SOL     OW 1888   2.179   2.409   3.142
 2525SOL    HW1 1889   2.217   2.350   3.214
 2525SOL    HW2 1890   2.219   2.383   3.054
 2526SOL     OW 1891   2.674   3.448   2.549
 2526SOL    HW1 1892   2.706   3.458   2.455
 2526SOL    HW2 1893   2.595   3.386   2.551
 2527SOL     OW 1894   3.286   2.076   2.974
 2527SOL    HW1 1895   3.338   2.011   3.029
 2527SOL    HW2 1896   3.237   2.139   3.035
 2528SOL     OW 1897   2.863   1.896   3.016
 2528SOL    HW1 1898   2.800   1.824   2.985
 2528SOL    HW2 1899   2.956   1.860   3.016
 2529SOL     OW 1900   2.632   3.192   2.163
 2529SOL    HW1 1901   2.586   3.105   2.180
 2529SOL    HW2 1902   2.723   3.189   2.204
 2530SOL     OW 1903   2.480   3.429   3.146
 2530SOL    HW1 1904   2.475   3.511   3.203
 2530SOL    HW2 1905   2.569   3.426   3.101
 2531SOL     OW 1906   3.214   1.914   2.030
 2531SOL    HW1 1907   3.249   1.873   1.946
 2531SOL    HW2 1908   3.124   1.876   2.050
 2532SOL     OW 1909   3.162   2.315   2.553
 2532SOL    HW1 1910   3.103   2.395   2.557
 2532SOL    HW2 1911   3.177   2.280   2.646
 2533SOL     OW 1912   3.455   2.083   2.744
 2533SOL    HW1 1913   3.371   2.082   2.798
 2533SOL    HW2 1914   3.457   2.166   2.688
 2534SOL     OW 1915   1.901   2.939   2.162
 2534SOL    HW1 1916   2.000   2.928   2.153
 2534SOL    HW2 1917   1.861   2.853   2.194
 2535SOL     OW 1918   2.737   3.508   2.199
 2535SOL    HW1 1919   2.660   3.473   2.145
 2535SOL    HW2 1920   2.705   3.579   2.261
 2536SOL     OW 1921   2.092   2.490   3.837
 2536SOL    HW1 1922   1.999   2.488   3.874
 2536SOL    HW2 1923   2.093   2.451   3.745
 2542SOL     OW 1924   3.617   2.469   3.955
 2542SOL    HW1 1925   3.605   2.456   3.856
 2542SOL    HW2 1926   3.587   2.388   4.004
 2550SOL     OW 1927   2.468   2.826   3.847
 2550SOL    HW1 1928   2.475   2.910   3.793
 2550SOL    HW2 1929   2.514   2.839   3.935
 2553SOL     OW 1930   1.889   3.458   3.841
 2553SOL    HW1 1931   1.870   3.362   3.862
 2553SOL    HW2 1932   1.856   3.516   3.916
 2560SOL     OW 1933   3.387   2.861   3.914
 2560SOL    HW1 1934   3.324   2.785   3.927
 2560SOL    HW2 1935   3.435   2.879   4.000
 2563SOL     OW 1936   2.460   2.591   3.994
 2563SOL    HW1 1937   2.484   2.660   3.926
 2563SOL    HW2 1938   2.382   2.624   4.048
 2567SOL     OW 1939   2.903   2.563   4.153
 2567SOL    HW1 1940   2.929   2.559   4.249
 2567SOL    HW2 1941   2.818   2.512   4.139
 2569SOL     OW 1942   2.727   2.210   3.919
 2569SOL    HW1 1943   2.786   2.273   3.870
 2569SOL    HW2 1944   2.746   2.116   3.890
 2575SOL     OW 1945   2.183   2.805   3.966
 2575SOL    HW1 1946   2.265   2.844   3.924
 2575SOL    HW2 1947   2.156   2.723   3.917
 2578SOL     OW 1948   3.494   3.239   3.805
 2578SOL    HW1 1949   3.462   3.333   3.795
 2578SOL    HW2 1950   3.418   3.176   3.793
 2583SOL     OW 1951   2.244   2.562   4.204
 2583SOL    HW1 1952   2.289   2.472   4.201
 2583SOL    HW2 1953   2.150   2.551   4.237
 2584SOL     OW 1954   2.476   1.984   3.841
 2584SOL    HW1 1955   2.574   1.962   3.848
 2584SOL    HW2 1956   2.445   1.967   3.748
 2588SOL     OW 1957   3.296   3.050   3.765
 2588SOL    HW1 1958   3.328   2.974   3.822
 2588SOL    HW2 1959   3.204   3.077   3.795
 2589SOL     OW 1960   2.159   1.897   3.895
 2589SOL    HW1 1961   2.208   1.981   3.874
 2589SOL    HW2 1962   2.221   1.832   3.940
 2590SOL     OW 1963   2.797   2.098   4.204
 2590SOL    HW1 1964   2.749   2.139   4.126
 2590SOL    HW2 1965   2.896   2.096   4.185
 2594SOL     OW 1966   2.894   2.411   3.740
 2594SOL    HW1 1967   2.853   2.493   3.701
 2594SOL    HW2 1968   2.958   2.437   3.813
 2601SOL     OW 1969   2.350   3.247   3.898
 2601SOL    HW1 1970   2.263   3.232   3.945
 2601SOL    HW2 1971   2.333   3.273   3.803
 2603SOL     OW 1972   3.252   2.437   3.802
 2603SOL    HW1 1973   3.198   2.416   3.883
 2603SOL    HW2 1974   3.343   2.396   3.811
 2604SOL     OW 1975   2.389   2.118   4.052
 2604SOL    HW1 1976   2.416   2.059   3.977
 2604SOL    HW2 1977   2.389   2.213   4.021
 2607SOL     OW 1978   2.567   2.912   4.092
 2607SOL    HW1 1979   2.553   2.919   4.191
 2607SOL    HW2 1980   2.651   2.861   4.074
 2610SOL     OW 1981   2.229   2.962   4.225
 2610SOL    HW1 1982   2.222   3.045   4.169
 2610SOL    HW2 1983   2.233   2.882   4.165
 2618SOL     OW 1984   3.071   2.387   3.999
 2618SOL    HW1 1985   3.084   2.303   4.053
 2618SOL    HW2 1986   3.042   2.461   4.059
 2625SOL     OW 1987   3.402   2.136   3.849
 2625SOL    HW1 1988   3.341   2.061   3.872
 2625SOL    HW2 1989   3.424   2.188   3.932
 2626SOL     OW 1990   3.165   2.700   3.766
 2626SOL    HW1 1991   3.199   2.607   3.781
 2626SOL    HW2 1992   3.183   2.727   3.671
 2631SOL     OW 1993   1.870   3.188   3.924
 2631SOL    HW1 1994   1.777   3.209   3.893
 2631SOL    HW2 1995   1.880   3.089   3.937
 2636SOL     OW 1996   2.677   2.434   4.049
 2636SOL    HW1 1997   2.684   2.345   4.003
 2636SOL    HW2 1998   2.583   2.468   4.041
 2640SOL     OW 1999   2.335   2.362   3.915
 2640SOL    HW1 2000   2.396   2.442   3.919
 2640SOL    HW2 2001   2.240   2.393   3.922
 2642SOL     OW 2002   3.164   2.717   4.033
 2642SOL    HW1 2003   3.078   2.686   4.075
 2642SOL    HW2 2004   3.160   2.703   3.934
 2649SOL     OW 2005   2.534   3.478   3.878
 2649SOL    HW1 2006   2.543   3.488   3.779
 2649SOL    HW2 2007   2.494   3.389   3.899
 2653SOL     OW 2008   3.056   3.474   3.755
 2653SOL    HW1 2009   3.062   3.381   3.792
 2653SOL    HW2 2010   2.997   3.474   3.675
 2655SOL     OW 2011   2.778   2.772   4.015
 2655SOL    HW1 2012   2.841   2.810   3.947
 2655SOL    HW2 2013   2.818   2.689   4.054
 2656SOL     OW 2014   3.366   3.469   3.768
 2656SOL    HW1 2015   3.274   3.506   3.775
 2656SOL    HW2 2016   3.404   3.489   3.678
 2661SOL     OW 2017   2.117   3.210   4.014
 2661SOL    HW1 2018   2.021   3.211   3.987
 2661SOL    HW2 2019   2.129   3.263   4.098
 2662SOL     OW 2020   1.937   2.207   3.757
 2662SOL    HW1 2021   1.845   2.179   3.728
 2662SOL    HW2 2022   1.968   2.284   3.701
 2663SOL     OW 2023   1.934   2.028   4.042
 2663SOL    HW1 2024   1.917   2.111   3.988
 2663SOL    HW2 2025   2.024   1.991   4.020
 2664SOL     OW 2026   3.045   3.197   3.843
 2664SOL    HW1 2027   2.946   3.186   3.845
 2664SOL    HW2 2028   3.079   3.212   3.936
 2667SOL     OW 2029   3.087   2.187   4.173
 2667SOL    HW1 2030   3.152   2.113   4.162
 2667SOL    HW2 2031   3.107   2.237   4.257
 2670SOL     OW 2032   2.721   3.236   3.740
 2670SOL    HW1 2033   2.675   3.251   3.828
 2670SOL    HW2 2034   2.765   3.321   3.710
 2673SOL     OW 2035   2.945   2.846   3.811
 2673SOL    HW1 2036   2.922   2.899   3.729
 2673SOL    HW2 2037   3.026   2.790   3.792
 2677SOL     OW 2038   2.290   2.286   4.244
 2677SOL    HW1 2039   2.320   2.214   4.182
 2677SOL    HW2 2040   2.251   2.246   4.327
 2682SOL     OW 2041   2.632   3.192   4.025
 2682SOL    HW1 2042   2.586   3.105   4.042
 2682SOL    HW2 2043   2.723   3.189   4.066
 2683SOL     OW 2044   3.214   1.914   3.892
 2683SOL    HW1 2045   3.249   1.873   3.808
 2683SOL    HW2 2046   3.124   1.876   3.912
 2686SOL     OW 2047   1.901   2.939   4.024
 2686SOL    HW1 2048   2.000   2.928   4.015
 2686SOL    HW2 2049   1.861   2.853   4.056
 2711SOL     OW 2050   2.179   3.975   1.801
 2711SOL    HW1 2051   2.250   4.046   1.807
 2711SOL    HW2 2052   2.091   4.014   1.829
 2732SOL     OW 2053   2.643   3.988   1.749
 2732SOL    HW1 2054   2.710   3.927   1.792
 2732SOL    HW2 2055   2.570   4.007   1.814
 2753SOL     OW 2056   2.777   3.813   1.402
 2753SOL    HW1 2057   2.802   3.793   1.307
 2753SOL    HW2 2058   2.849   3.869   1.444
 2763SOL     OW 2059   2.875   3.829   1.770
 2763SOL    HW1 2060   2.881   3.914   1.718
 2763SOL    HW2 2061   2.907   3.753   1.713
 2764SOL     OW 2062   2.366   3.774   1.740
 2764SOL    HW1 2063   2.324   3.717   1.670
 2764SOL    HW2 2064   2.300   3.843   1.772
 2807SOL     OW 2065   2.534   3.927   1.489
 2807SOL    HW1 2066   2.624   3.911   1.449
 2807SOL    HW2 2067   2.542   3.932   1.588
 2832SOL     OW 2068   2.087   3.999   2.858
 2832SOL    HW1 2069   2.122   3.982   2.950
 2832SOL    HW2 2070   1.999   3.954   2.846
 2833SOL     OW 2071   1.881   4.092   2.509
 2833SOL    HW1 2072   1.799   4.135   2.548
 2833SOL    HW2 2073   1.853   4.019   2.446
 2851SOL     OW 2074   2.671   3.728   2.364
 2851SOL    HW1 2075   2.711   3.819   2.355
 2851SOL    HW2 2076   2.571   3.736   2.370
 2856SOL     OW 2077   3.143   4.069   2.806
 2856SOL    HW1 2078   3.057   4.019   2.793
 2856SOL    HW2 2079   3.205   4.015   2.862
 2860SOL     OW 2080   2.853   4.134   3.104
 2860SOL    HW1 2081   2.776   4.168   3.158
 2860SOL    HW2 2082   2.819   4.083   3.025
 2863SOL     OW 2083   2.727   4.072   2.057
 2863SOL    HW1 2084   2.786   4.135   2.008
 2863SOL    HW2 2085   2.746   3.978   2.028
 2866SOL     OW 2086   2.412   3.920   2.747
 2866SOL    HW1 2087   2.407   3.915   2.847
 2866SOL    HW2 2088   2.414   4.016   2.718
 2870SOL     OW 2089   2.064   4.009   3.360
 2870SOL    HW1 2090   1.984   4.069   3.347
 2870SOL    HW2 2091   2.054   3.960   3.446
 2871SOL     OW 2092   3.262   3.831   2.288
 2871SOL    HW1 2093   3.238   3.794   2.198
 2871SOL    HW2 2094   3.361   3.847   2.292
 2874SOL     OW 2095   2.476   3.846   1.979
 2874SOL    HW1 2096   2.574   3.824   1.986
 2874SOL    HW2 2097   2.445   3.829   1.886
 2878SOL     OW 2098   2.784   4.227   2.761
 2878SOL    HW1 2099   2.759   4.218   2.665
 2878SOL    HW2 2100   2.832   4.145   2.792
 2879SOL     OW 2101   2.401   3.788   2.374
 2879SOL    HW1 2102   2.320   3.789   2.432
 2879SOL    HW2 2103   2.404   3.871   2.319
 2880SOL     OW 2104   2.159   3.759   2.033
 2880SOL    HW1 2105   2.208   3.843   2.012
 2880SOL    HW2 2106   2.221   3.694   2.078
 2881SOL     OW 2107   2.797   3.960   2.342
 2881SOL    HW1 2108   2.749   4.001   2.264
 2881SOL    HW2 2109   2.896   3.958   2.323
 2886SOL     OW 2110   2.423   3.946   3.009
 2886SOL    HW1 2111   2.461   3.862   3.046
 2886SOL    HW2 2112   2.335   3.965   3.053
 2887SOL     OW 2113   2.728   4.178   2.504
 2887SOL    HW1 2114   2.696   4.250   2.442
 2887SOL    HW2 2115   2.752   4.097   2.451
 2888SOL     OW 2116   2.879   3.763   2.615
 2888SOL    HW1 2117   2.807   3.768   2.546
 2888SOL    HW2 2118   2.855   3.694   2.684
 2893SOL     OW 2119   2.389   3.980   2.190
 2893SOL    HW1 2120   2.416   3.921   2.115
 2893SOL    HW2 2121   2.389   4.075   2.159
 2896SOL     OW 2122   2.777   3.813   3.264
 2896SOL    HW1 2123   2.802   3.793   3.169
 2896SOL    HW2 2124   2.849   3.869   3.306
 2900SOL     OW 2125   3.136   4.110   3.124
 2900SOL    HW1 2126   3.157   4.184   3.188
 2900SOL    HW2 2127   3.047   4.127   3.081
 2902SOL     OW 2128   2.428   4.261   2.727
 2902SOL    HW1 2129   2.440   4.327   2.653
 2902SOL    HW2 2130   2.474   4.295   2.810
 2906SOL     OW 2131   2.875   3.829   3.632
 2906SOL    HW1 2132   2.881   3.914   3.580
 2906SOL    HW2 2133   2.907   3.753   3.575
 2907SOL     OW 2134   2.366   3.774   3.602
 2907SOL    HW1 2135   2.324   3.717   3.532
 2907SOL    HW2 2136   2.300   3.843   3.634
 2911SOL     OW 2137   2.169   3.937   3.093
 2911SOL    HW1 2138   2.146   3.974   3.183
 2911SOL    HW2 2139   2.139   3.842   3.087
 2914SOL     OW 2140   2.169   3.787   2.480
 2914SOL    HW1 2141   2.158   3.881   2.513
 2914SOL    HW2 2142   2.164   3.724   2.557
 2919SOL     OW 2143   3.402   3.998   1.987
 2919SOL    HW1 2144   3.341   3.923   2.010
 2919SOL    HW2 2145   3.424   4.050   2.070
 2922SOL     OW 2146   2.201   4.233   2.868
 2922SOL    HW1 2147   2.149   4.150   2.851
 2922SOL    HW2 2148   2.278   4.238   2.804
 2924SOL     OW 2149   3.022   3.931   3.339
 2924SOL    HW1 2150   3.022   3.995   3.416
 2924SOL    HW2 2151   3.050   3.979   3.256
 2932SOL     OW 2152   2.533   4.188   3.131
 2932SOL    HW1 2153   2.499   4.099   3.101
 2932SOL    HW2 2154   2.559   4.242   3.051
 2933SOL     OW 2155   2.335   4.224   2.053
 2933SOL    HW1 2156   2.396   4.304   2.057
 2933SOL    HW2 2157   2.240   4.255   2.060
 2938SOL     OW 2158   3.588   3.859   2.385
 2938SOL    HW1 2159   3.661   3.842   2.318
 2938SOL    HW2 2160   3.557   3.772   2.423
 2941SOL     OW 2161   2.125   4.050   2.582
 2941SOL    HW1 2162   2.046   4.101   2.548
 2941SOL    HW2 2163   2.116   4.035   2.680
 2948SOL     OW 2164   2.876   3.960   2.833
 2948SOL    HW1 2165   2.868   3.924   2.740
 2948SOL    HW2 2166   2.874   3.884   2.898
 2951SOL     OW 2167   2.534   3.927   3.351
 2951SOL    HW1 2168   2.624   3.911   3.311
 2951SOL    HW2 2169   2.542   3.932   3.450
 2952SOL     OW 2170   1.937   4.069   1.895
 2952SOL    HW1 2171   1.845   4.041   1.866
 2952SOL    HW2 2172   1.968   4.146   1.839
 2954SOL     OW 2173   1.934   3.890   2.180
 2954SOL    HW1 2174   1.917   3.973   2.126
 2954SOL    HW2 2175   2.024   3.853   2.158
 2959SOL     OW 2176   3.087   4.049   2.311
 2959SOL    HW1 2177   3.152   3.975   2.300
 2959SOL    HW2 2178   3.107   4.099   2.395
 2967SOL     OW 2179   2.290   4.148   2.382
 2967SOL    HW1 2180   2.320   4.076   2.320
 2967SOL    HW2 2181   2.251   4.108   2.465
 2969SOL     OW 2182   3.286   3.938   2.974
 2969SOL    HW1 2183   3.338   3.873   3.029
 2969SOL    HW2 2184   3.237   4.001   3.035
 2970SOL     OW 2185   2.863   3.758   3.016
 2970SOL    HW1 2186   2.800   3.686   2.985
 2970SOL    HW2 2187   2.956   3.722   3.016
 2972SOL     OW 2188   3.214   3.776   2.030
 2972SOL    HW1 2189   3.249   3.735   1.946
 2972SOL    HW2 2190   3.124   3.738   2.050
 2973SOL     OW 2191   3.162   4.177   2.553
 2973SOL    HW1 2192   3.103   4.257   2.557
 2973SOL    HW2 2193   3.177   4.142   2.646
 2974SOL     OW 2194   3.455   3.945   2.744
 2974SOL    HW1 2195   3.371   3.944   2.798
 2974SOL    HW2 2196   3.457   4.028   2.688
 3114SOL     OW 2197   3.854   1.821   1.571
 3114SOL    HW1 2198   3.844   1.806   1.670
 3114SOL    HW2 2199   3.768   1.857   1.535
 3195SOL     OW 2200   3.854   1.794   1.851
 3195SOL    HW1 2201   3.813   1.720   1.904
 3195SOL    HW2 2202   3.918   1.845   1.909
 3240SOL     OW 2203   3.955   1.713   2.345
 3240SOL    HW1 2204   3.989   1.790   2.399
 3240SOL    HW2 2205   3.999   1.713   2.255
 3247SOL     OW 2206   3.751   1.596   1.979
 3247SOL    HW1 2207   3.732   1.500   2.000
 3247SOL    HW2 2208   3.718   1.654   2.054
 3261SOL     OW 2209   3.854   1.821   3.433
 3261SOL    HW1 2210   3.844   1.806   3.532
 3261SOL    HW2 2211   3.768   1.857   3.397
 3265SOL     OW 2212   4.075   1.801   2.715
 3265SOL    HW1 2213   4.125   1.715   2.721
 3265SOL    HW2 2214   4.140   1.878   2.712
 3271SOL     OW 2215   3.973   1.785   3.103
 3271SOL    HW1 2216   4.030   1.720   3.153
 3271SOL    HW2 2217   3.957   1.752   3.010
 3300SOL     OW 2218   3.788   1.564   3.193
 3300SOL    HW1 2219   3.742   1.646   3.159
 3300SOL    HW2 2220   3.886   1.583   3.202
 3325SOL     OW 2221   3.732   1.326   2.062
 3325SOL    HW1 2222   3.639   1.347   2.031
 3325SOL    HW2 2223   3.742   1.227   2.075
 3326SOL     OW 2224   3.812   1.801   2.789
 3326SOL    HW1 2225   3.770   1.715   2.762
 3326SOL    HW2 2226   3.906   1.804   2.755
 3502SOL     OW 2227   3.837   2.599   1.597
 3502SOL    HW1 2228   3.925   2.586   1.642
 3502SOL    HW2 2229   3.824   2.696   1.575
 3507SOL     OW 2230   4.041   2.113   1.801
 3507SOL    HW1 2231   4.112   2.184   1.807
 3507SOL    HW2 2232   3.953   2.152   1.829
 3524SOL     OW 2233   3.926   2.147   1.498
 3524SOL    HW1 2234   3.846   2.207   1.485
 3524SOL    HW2 2235   3.916   2.098   1.584
 3542SOL     OW 2236   3.802   2.418   1.386
 3542SOL    HW1 2237   3.894   2.417   1.345
 3542SOL    HW2 2238   3.796   2.492   1.453
 3573SOL     OW 2239   4.074   2.760   1.804
 3573SOL    HW1 2240   4.150   2.804   1.852
 3573SOL    HW2 2241   4.109   2.713   1.722
 3584SOL     OW 2242   3.913   2.382   1.722
 3584SOL    HW1 2243   3.972   2.342   1.652
 3584SOL    HW2 2244   3.855   2.453   1.681
 3590SOL     OW 2245   3.883   2.999   1.466
 3590SOL    HW1 2246   3.905   2.938   1.542
 3590SOL    HW2 2247   3.893   2.950   1.380
 3609SOL     OW 2248   3.829   2.875   1.726
 3609SOL    HW1 2249   3.752   2.842   1.780
 3609SOL    HW2 2250   3.914   2.845   1.768
 3620SOL     OW 2251   3.945   3.176   1.844
 3620SOL    HW1 2252   3.880   3.103   1.823
 3620SOL    HW2 2253   3.949   3.190   1.942
 3631SOL     OW 2254   3.954   2.490   1.975
 3631SOL    HW1 2255   3.861   2.488   2.012
 3631SOL    HW2 2256   3.955   2.451   1.883
 3632SOL     OW 2257   3.949   2.137   2.858
 3632SOL    HW1 2258   3.984   2.120   2.950
 3632SOL    HW2 2259   3.861   2.092   2.846
 3633SOL     OW 2260   3.743   2.230   2.509
 3633SOL    HW1 2261   3.661   2.273   2.548
 3633SOL    HW2 2262   3.715   2.157   2.446
 3640SOL     OW 2263   4.059   3.297   2.923
 3640SOL    HW1 2264   3.981   3.266   2.870
 3640SOL    HW2 2265   4.117   3.355   2.866
 3642SOL     OW 2266   3.955   3.575   2.345
 3642SOL    HW1 2267   3.989   3.652   2.399
 3642SOL    HW2 2268   3.999   3.575   2.255
 3644SOL     OW 2269   3.954   3.296   2.400
 3644SOL    HW1 2270   3.928   3.392   2.400
 3644SOL    HW2 2271   3.883   3.242   2.445
 3645SOL     OW 2272   3.964   2.953   2.748
 3645SOL    HW1 2273   3.978   2.869   2.800
 3645SOL    HW2 2274   3.909   3.017   2.803
 3648SOL     OW 2275   3.846   2.505   2.425
 3648SOL    HW1 2276   3.801   2.417   2.442
 3648SOL    HW2 2277   3.845   2.559   2.509
 3649SOL     OW 2278   3.751   3.458   1.979
 3649SOL    HW1 2279   3.732   3.362   2.000
 3649SOL    HW2 2280   3.718   3.516   2.054
 3650SOL     OW 2281   3.837   2.599   3.459
 3650SOL    HW1 2282   3.925   2.586   3.504
 3650SOL    HW2 2283   3.824   2.696   3.437
 3653SOL     OW 2284   3.921   2.838   3.126
 3653SOL    HW1 2285   4.010   2.793   3.112
 3653SOL    HW2 2286   3.848   2.773   3.107
 3662SOL     OW 2287   3.800   2.673   2.651
 3662SOL    HW1 2288   3.899   2.661   2.660
 3662SOL    HW2 2289   3.776   2.768   2.672
 3669SOL     OW 2290   4.045   2.805   2.104
 3669SOL    HW1 2291   4.127   2.844   2.062
 3669SOL    HW2 2292   4.018   2.723   2.055
 3672SOL     OW 2293   3.926   2.147   3.360
 3672SOL    HW1 2294   3.846   2.207   3.347
 3672SOL    HW2 2295   3.916   2.098   3.446
 3676SOL     OW 2296   4.106   2.562   2.342
 3676SOL    HW1 2297   4.151   2.472   2.339
 3676SOL    HW2 2298   4.012   2.551   2.375
 3683SOL     OW 2299   4.021   1.897   2.033
 3683SOL    HW1 2300   4.070   1.981   2.012
 3683SOL    HW2 2301   4.083   1.832   2.078
 3687SOL     OW 2302   4.183   3.014   2.603
 3687SOL    HW1 2303   4.112   2.987   2.668
 3687SOL    HW2 2304   4.157   2.986   2.510
 3690SOL     OW 2305   3.802   2.418   3.248
 3690SOL    HW1 2306   3.894   2.417   3.207
 3690SOL    HW2 2307   3.796   2.492   3.315
 3701SOL     OW 2308   4.134   2.675   3.113
 3701SOL    HW1 2309   4.220   2.687   3.163
 3701SOL    HW2 2310   4.092   2.588   3.140
 3703SOL     OW 2311   3.788   3.426   3.193
 3703SOL    HW1 2312   3.742   3.508   3.159
 3703SOL    HW2 2313   3.886   3.445   3.202
 3704SOL     OW 2314   4.091   2.962   2.363
 3704SOL    HW1 2315   4.084   3.045   2.307
 3704SOL    HW2 2316   4.095   2.882   2.303
 3705SOL     OW 2317   4.290   2.399   2.727
 3705SOL    HW1 2318   4.302   2.465   2.653
 3705SOL    HW2 2319   4.336   2.433   2.810
 3714SOL     OW 2320   4.031   2.075   3.093
 3714SOL    HW1 2321   4.008   2.112   3.183
 3714SOL    HW2 2322   4.001   1.980   3.087
 3715SOL     OW 2323   3.761   3.172   3.144
 3715SOL    HW1 2324   3.814   3.123   3.212
 3715SOL    HW2 2325   3.783   3.270   3.149
 3717SOL     OW 2326   4.031   1.925   2.480
 3717SOL    HW1 2327   4.020   2.019   2.513
 3717SOL    HW2 2328   4.026   1.862   2.557
 3724SOL     OW 2329   4.043   2.672   2.811
 3724SOL    HW1 2330   4.136   2.708   2.816
 3724SOL    HW2 2331   4.037   2.587   2.863
 3725SOL     OW 2332   4.063   2.371   2.868
 3725SOL    HW1 2333   4.011   2.288   2.851
 3725SOL    HW2 2334   4.140   2.376   2.804
 3728SOL     OW 2335   3.732   3.188   2.062
 3728SOL    HW1 2336   3.639   3.209   2.031
 3728SOL    HW2 2337   3.742   3.089   2.075
 3729SOL     OW 2338   3.812   3.663   2.789
 3729SOL    HW1 2339   3.770   3.577   2.762
 3729SOL    HW2 2340   3.906   3.666   2.755
 3732SOL     OW 2341   3.764   2.406   2.976
 3732SOL    HW1 2342   3.849   2.373   2.935
 3732SOL    HW2 2343   3.777   2.421   3.074
 3733SOL     OW 2344   3.913   2.382   3.584
 3733SOL    HW1 2345   3.972   2.342   3.514
 3733SOL    HW2 2346   3.855   2.453   3.543
 3738SOL     OW 2347   4.197   2.362   2.053
 3738SOL    HW1 2348   4.258   2.442   2.057
 3738SOL    HW2 2349   4.102   2.393   2.060
 3739SOL     OW 2350   3.883   2.999   3.328
 3739SOL    HW1 2351   3.905   2.938   3.404
 3739SOL    HW2 2352   3.893   2.950   3.242
 3742SOL     OW 2353   3.807   3.120   2.884
 3742SOL    HW1 2354   3.802   3.119   2.984
 3742SOL    HW2 2355   3.724   3.079   2.846
 3748SOL     OW 2356   3.987   2.188   2.582
 3748SOL    HW1 2357   3.908   2.239   2.548
 3748SOL    HW2 2358   3.978   2.173   2.680
 3756SOL     OW 2359   3.979   3.210   2.152
 3756SOL    HW1 2360   3.883   3.211   2.125
 3756SOL    HW2 2361   3.991   3.263   2.236
 3757SOL     OW 2362   3.829   2.875   3.588
 3757SOL    HW1 2363   3.752   2.842   3.642
 3757SOL    HW2 2364   3.914   2.845   3.630
 3759SOL     OW 2365   3.799   2.207   1.895
 3759SOL    HW1 2366   3.707   2.179   1.866
 3759SOL    HW2 2367   3.830   2.284   1.839
 3760SOL     OW 2368   3.796   2.028   2.180
 3760SOL    HW1 2369   3.779   2.111   2.126
 3760SOL    HW2 2370   3.886   1.991   2.158
 3764SOL     OW 2371   4.318   2.607   2.514
 3764SOL    HW1 2372   4.368   2.692   2.495
 3764SOL    HW2 2373   4.230   2.609   2.466
 3770SOL     OW 2374   3.803   3.102   2.515
 3770SOL    HW1 2375   3.802   3.055   2.603
 3770SOL    HW2 2376   3.885   3.074   2.464
 3772SOL     OW 2377   4.152   2.286   2.382
 3772SOL    HW1 2378   4.182   2.214   2.320
 3772SOL    HW2 2379   4.113   2.246   2.465
 3773SOL     OW 2380   4.041   2.409   3.142
 3773SOL    HW1 2381   4.079   2.350   3.214
 3773SOL    HW2 2382   4.081   2.383   3.054
 3778SOL     OW 2383   3.763   2.939   2.162
 3778SOL    HW1 2384   3.862   2.928   2.153
 3778SOL    HW2 2385   3.723   2.853   2.194
 3872SOL     OW 2386   3.799   2.207   3.757
 3872SOL    HW1 2387   3.707   2.179   3.728
 3872SOL    HW2 2388   3.830   2.284   3.701
   5.05274   5.05274   5.05274
