mobley_1952272_GMX.gro created by acpype (v: 2023.10.27) on Thu May 21 00:18:43 2026
 2422
    1MOL     C1    1   2.198   2.183   2.204
    1MOL     N1    2   2.108   2.129   2.102
    1MOL     O1    3   2.097   2.191   1.994
    1MOL     O2    4   2.047   2.023   2.128
    1MOL     H1    5   2.156   2.157   2.302
    1MOL     H2    6   2.203   2.291   2.190
    1MOL     H3    7   2.295   2.136   2.189
    6SOL     OW    8   1.555   1.511   0.703
    6SOL    HW1    9   1.498   1.495   0.784
    6SOL    HW2   10   1.496   1.521   0.623
   14SOL     OW   11   1.460   1.505   1.339
   14SOL    HW1   12   1.484   1.599   1.365
   14SOL    HW2   13   1.444   1.451   1.421
   18SOL     OW   14   1.127   1.341   1.690
   18SOL    HW1   15   1.174   1.341   1.778
   18SOL    HW2   16   1.079   1.254   1.679
   21SOL     OW   17   0.620   1.786   1.439
   21SOL    HW1   18   0.528   1.769   1.474
   21SOL    HW2   19   0.648   1.878   1.465
   31SOL     OW   20   1.293   1.228   1.423
   31SOL    HW1   21   1.330   1.155   1.365
   31SOL    HW2   22   1.345   1.233   1.508
   35SOL     OW   23   1.187   1.792   1.616
   35SOL    HW1   24   1.211   1.852   1.540
   35SOL    HW2   25   1.194   1.697   1.586
   37SOL     OW   26   1.466   1.417   0.953
   37SOL    HW1   27   1.407   1.423   1.033
   37SOL    HW2   28   1.451   1.329   0.907
   38SOL     OW   29   1.667   1.714   0.572
   38SOL    HW1   30   1.626   1.691   0.484
   38SOL    HW2   31   1.649   1.640   0.637
   50SOL     OW   32   1.719   0.585   1.831
   50SOL    HW1   33   1.693   0.674   1.795
   50SOL    HW2   34   1.717   0.517   1.758
   55SOL     OW   35   1.795   1.066   0.873
   55SOL    HW1   36   1.733   1.051   0.797
   55SOL    HW2   37   1.743   1.077   0.958
   56SOL     OW   38   1.227   1.550   1.506
   56SOL    HW1   39   1.233   1.473   1.570
   56SOL    HW2   40   1.175   1.524   1.426
   71SOL     OW   41   0.888   1.514   1.195
   71SOL    HW1   42   0.865   1.489   1.101
   71SOL    HW2   43   0.949   1.445   1.234
   80SOL     OW   44   1.227   1.570   0.793
   80SOL    HW1   45   1.248   1.644   0.728
   80SOL    HW2   46   1.295   1.570   0.866
   88SOL     OW   47   1.429   1.173   0.867
   88SOL    HW1   48   1.374   1.089   0.860
   88SOL    HW2   49   1.455   1.202   0.775
   95SOL     OW   50   1.754   1.223   1.588
   95SOL    HW1   51   1.845   1.184   1.575
   95SOL    HW2   52   1.762   1.319   1.612
   96SOL     OW   53   1.064   1.347   1.340
   96SOL    HW1   54   0.984   1.324   1.395
   96SOL    HW2   55   1.147   1.321   1.389
   97SOL     OW   56   1.592   1.629   1.625
   97SOL    HW1   57   1.619   1.663   1.535
   97SOL    HW2   58   1.671   1.591   1.671
   98SOL     OW   59   1.111   1.195   1.100
   98SOL    HW1   60   1.071   1.239   1.181
   98SOL    HW2   61   1.070   1.232   1.017
   99SOL     OW   62   1.638   1.099   1.079
   99SOL    HW1   63   1.643   1.180   1.138
   99SOL    HW2   64   1.552   1.101   1.028
  101SOL     OW   65   0.980   1.116   1.719
  101SOL    HW1   66   0.881   1.122   1.729
  101SOL    HW2   67   1.003   1.036   1.663
  109SOL     OW   68   1.272   1.445   1.142
  109SOL    HW1   69   1.319   1.458   1.229
  109SOL    HW2   70   1.206   1.371   1.151
  113SOL     OW   71   1.587   0.779   1.670
  113SOL    HW1   72   1.495   0.817   1.665
  113SOL    HW2   73   1.647   0.826   1.605
  122SOL     OW   74   1.728   0.935   1.854
  122SOL    HW1   75   1.682   0.928   1.765
  122SOL    HW2   76   1.666   0.979   1.920
  126SOL     OW   77   0.980   1.573   1.700
  126SOL    HW1   78   0.960   1.617   1.612
  126SOL    HW2   79   1.019   1.482   1.684
  127SOL     OW   80   1.859   1.518   1.605
  127SOL    HW1   81   1.873   1.545   1.510
  127SOL    HW2   82   1.942   1.540   1.658
  142SOL     OW   83   1.369   0.950   1.660
  142SOL    HW1   84   1.408   1.039   1.680
  142SOL    HW2   85   1.379   0.930   1.563
  147SOL     OW   86   0.930   1.678   1.465
  147SOL    HW1   87   0.906   1.660   1.370
  147SOL    HW2   88   0.960   1.772   1.475
  150SOL     OW   89   1.347   1.059   1.234
  150SOL    HW1   90   1.371   0.996   1.160
  150SOL    HW2   91   1.257   1.099   1.216
  152SOL     OW   92   1.759   1.747   1.154
  152SOL    HW1   93   1.820   1.777   1.081
  152SOL    HW2   94   1.721   1.658   1.132
  153SOL     OW   95   1.252   1.731   1.128
  153SOL    HW1   96   1.336   1.736   1.074
  153SOL    HW2   97   1.229   1.635   1.146
  155SOL     OW   98   0.688   1.662   1.716
  155SOL    HW1   99   0.632   1.743   1.725
  155SOL    HW2  100   0.740   1.666   1.630
  161SOL     OW  101   0.830   1.273   1.422
  161SOL    HW1  102   0.825   1.306   1.517
  161SOL    HW2  103   0.744   1.292   1.376
  163SOL     OW  104   1.650   1.720   1.394
  163SOL    HW1  105   1.703   1.730   1.310
  163SOL    HW2  106   1.623   1.810   1.428
  171SOL     OW  107   1.614   1.292   1.289
  171SOL    HW1  108   1.674   1.295   1.369
  171SOL    HW2  109   1.539   1.356   1.302
  180SOL     OW  110   1.440   0.856   1.398
  180SOL    HW1  111   1.383   0.908   1.335
  180SOL    HW2  112   1.536   0.868   1.374
  184SOL     OW  113   1.493   1.767   0.959
  184SOL    HW1  114   1.526   1.831   0.890
  184SOL    HW2  115   1.559   1.761   1.034
  186SOL     OW  116   1.450   1.220   1.633
  186SOL    HW1  117   1.441   1.210   1.732
  186SOL    HW2  118   1.546   1.213   1.607
  188SOL     OW  119   1.674   0.883   1.254
  188SOL    HW1  120   1.647   0.794   1.217
  188SOL    HW2  121   1.675   0.951   1.181
  192SOL     OW  122   1.730   0.934   1.517
  192SOL    HW1  123   1.768   1.025   1.532
  192SOL    HW2  124   1.722   0.917   1.418
  197SOL     OW  125   1.861   1.569   0.851
  197SOL    HW1  126   1.790   1.557   0.781
  197SOL    HW2  127   1.862   1.490   0.911
  200SOL     OW  128   0.672   1.391   1.624
  200SOL    HW1  129   0.594   1.341   1.662
  200SOL    HW2  130   0.669   1.486   1.655
  203SOL     OW  131   1.705   1.487   1.104
  203SOL    HW1  132   1.612   1.462   1.077
  203SOL    HW2  133   1.731   1.437   1.186
  219SOL     OW  134   1.555   1.511   2.565
  219SOL    HW1  135   1.498   1.495   2.646
  219SOL    HW2  136   1.496   1.521   2.485
  221SOL     OW  137   1.755   0.607   2.093
  221SOL    HW1  138   1.743   0.594   1.994
  221SOL    HW2  139   1.725   0.526   2.142
  227SOL     OW  140   1.460   1.505   3.201
  227SOL    HW1  141   1.484   1.599   3.227
  227SOL    HW2  142   1.444   1.451   3.283
  238SOL     OW  143   1.842   1.767   2.221
  238SOL    HW1  144   1.896   1.738   2.301
  238SOL    HW2  145   1.872   1.857   2.192
  240SOL     OW  146   1.689   0.922   2.474
  240SOL    HW1  147   1.784   0.893   2.482
  240SOL    HW2  148   1.681   0.987   2.399
  241SOL     OW  149   1.641   1.108   2.294
  241SOL    HW1  150   1.727   1.110   2.242
  241SOL    HW2  151   1.655   1.155   2.382
  243SOL     OW  152   0.613   1.365   2.588
  243SOL    HW1  153   0.564   1.278   2.597
  243SOL    HW2  154   0.590   1.408   2.501
  244SOL     OW  155   1.293   1.228   3.285
  244SOL    HW1  156   1.330   1.155   3.227
  244SOL    HW2  157   1.345   1.233   3.370
  247SOL     OW  158   1.525   0.999   2.052
  247SOL    HW1  159   1.462   0.923   2.065
  247SOL    HW2  160   1.573   1.017   2.138
  248SOL     OW  161   1.187   1.792   3.478
  248SOL    HW1  162   1.211   1.852   3.402
  248SOL    HW2  163   1.194   1.697   3.448
  250SOL     OW  164   1.466   1.417   2.815
  250SOL    HW1  165   1.407   1.423   2.895
  250SOL    HW2  166   1.451   1.329   2.769
  251SOL     OW  167   1.667   1.714   2.434
  251SOL    HW1  168   1.626   1.691   2.346
  251SOL    HW2  169   1.649   1.640   2.499
  254SOL     OW  170   1.576   1.662   2.169
  254SOL    HW1  171   1.665   1.708   2.172
  254SOL    HW2  172   1.555   1.638   2.074
  264SOL     OW  173   1.362   1.144   2.407
  264SOL    HW1  174   1.445   1.115   2.359
  264SOL    HW2  175   1.313   1.211   2.351
  266SOL     OW  176   1.008   1.456   2.339
  266SOL    HW1  177   0.962   1.528   2.287
  266SOL    HW2  178   1.004   1.476   2.437
  268SOL     OW  179   1.795   1.066   2.735
  268SOL    HW1  180   1.733   1.051   2.659
  268SOL    HW2  181   1.743   1.077   2.820
  269SOL     OW  182   1.227   1.550   3.368
  269SOL    HW1  183   1.233   1.473   3.432
  269SOL    HW2  184   1.175   1.524   3.288
  271SOL     OW  185   1.458   0.735   2.590
  271SOL    HW1  186   1.453   0.670   2.665
  271SOL    HW2  187   1.538   0.794   2.603
  273SOL     OW  188   1.111   1.776   2.099
  273SOL    HW1  189   1.051   1.714   2.149
  273SOL    HW2  190   1.142   1.732   2.014
  275SOL     OW  191   1.632   1.377   1.943
  275SOL    HW1  192   1.600   1.471   1.933
  275SOL    HW2  193   1.556   1.314   1.931
  276SOL     OW  194   0.464   1.743   2.185
  276SOL    HW1  195   0.497   1.782   2.271
  276SOL    HW2  196   0.540   1.736   2.120
  279SOL     OW  197   0.940   1.698   2.766
  279SOL    HW1  198   1.020   1.641   2.787
  279SOL    HW2  199   0.891   1.658   2.689
  284SOL     OW  200   0.888   1.514   3.057
  284SOL    HW1  201   0.865   1.489   2.963
  284SOL    HW2  202   0.949   1.445   3.096
  286SOL     OW  203   0.803   1.402   2.786
  286SOL    HW1  204   0.893   1.416   2.744
  286SOL    HW2  205   0.732   1.404   2.715
  289SOL     OW  206   1.434   1.188   1.903
  289SOL    HW1  207   1.466   1.112   1.960
  289SOL    HW2  208   1.342   1.215   1.933
  293SOL     OW  209   1.227   1.570   2.655
  293SOL    HW1  210   1.248   1.644   2.590
  293SOL    HW2  211   1.295   1.570   2.728
  295SOL     OW  212   1.271   1.797   2.453
  295SOL    HW1  213   1.315   1.861   2.389
  295SOL    HW2  214   1.221   1.849   2.523
  301SOL     OW  215   1.429   1.173   2.729
  301SOL    HW1  216   1.374   1.089   2.722
  301SOL    HW2  217   1.455   1.202   2.637
  303SOL     OW  218   1.857   0.833   2.239
  303SOL    HW1  219   1.899   0.769   2.303
  303SOL    HW2  220   1.819   0.782   2.161
  305SOL     OW  221   1.664   1.280   2.519
  305SOL    HW1  222   1.763   1.288   2.533
  305SOL    HW2  223   1.619   1.364   2.550
  306SOL     OW  224   1.390   0.575   1.940
  306SOL    HW1  225   1.336   0.554   2.021
  306SOL    HW2  226   1.481   0.534   1.949
  308SOL     OW  227   1.754   1.223   3.450
  308SOL    HW1  228   1.845   1.184   3.437
  308SOL    HW2  229   1.762   1.319   3.474
  309SOL     OW  230   1.064   1.347   3.202
  309SOL    HW1  231   0.984   1.324   3.257
  309SOL    HW2  232   1.147   1.321   3.251
  310SOL     OW  233   1.592   1.629   3.487
  310SOL    HW1  234   1.619   1.663   3.397
  310SOL    HW2  235   1.671   1.591   3.533
  311SOL     OW  236   1.111   1.195   2.962
  311SOL    HW1  237   1.071   1.239   3.043
  311SOL    HW2  238   1.070   1.232   2.879
  312SOL     OW  239   1.638   1.099   2.941
  312SOL    HW1  240   1.643   1.180   3.000
  312SOL    HW2  241   1.552   1.101   2.890
  321SOL     OW  242   1.252   1.348   2.250
  321SOL    HW1  243   1.302   1.425   2.290
  321SOL    HW2  244   1.157   1.350   2.282
  322SOL     OW  245   1.272   1.445   3.004
  322SOL    HW1  246   1.319   1.458   3.091
  322SOL    HW2  247   1.206   1.371   3.013
  323SOL     OW  248   1.582   0.639   2.334
  323SOL    HW1  249   1.551   0.700   2.407
  323SOL    HW2  250   1.632   0.691   2.265
  330SOL     OW  251   1.360   0.862   2.907
  330SOL    HW1  252   1.285   0.862   2.841
  330SOL    HW2  253   1.397   0.770   2.916
  340SOL     OW  254   1.859   1.518   3.467
  340SOL    HW1  255   1.873   1.545   3.372
  340SOL    HW2  256   1.942   1.540   3.520
  343SOL     OW  257   1.303   0.838   1.904
  343SOL    HW1  258   1.337   0.745   1.919
  343SOL    HW2  259   1.321   0.865   1.809
  344SOL     OW  260   1.068   1.333   2.711
  344SOL    HW1  261   1.075   1.249   2.656
  344SOL    HW2  262   1.130   1.402   2.675
  360SOL     OW  263   0.930   1.678   3.327
  360SOL    HW1  264   0.906   1.660   3.232
  360SOL    HW2  265   0.960   1.772   3.337
  363SOL     OW  266   1.347   1.059   3.096
  363SOL    HW1  267   1.371   0.996   3.022
  363SOL    HW2  268   1.257   1.099   3.078
  364SOL     OW  269   1.302   0.855   2.171
  364SOL    HW1  270   1.216   0.824   2.213
  364SOL    HW2  271   1.298   0.841   2.072
  365SOL     OW  272   1.759   1.747   3.016
  365SOL    HW1  273   1.820   1.777   2.943
  365SOL    HW2  274   1.721   1.658   2.994
  366SOL     OW  275   1.252   1.731   2.990
  366SOL    HW1  276   1.336   1.736   2.936
  366SOL    HW2  277   1.229   1.635   3.008
  370SOL     OW  278   1.388   1.573   2.339
  370SOL    HW1  279   1.455   1.585   2.265
  370SOL    HW2  280   1.348   1.662   2.362
  372SOL     OW  281   1.280   0.927   2.534
  372SOL    HW1  282   1.340   0.846   2.536
  372SOL    HW2  283   1.320   0.996   2.474
  374SOL     OW  284   0.672   1.616   2.016
  374SOL    HW1  285   0.681   1.626   1.917
  374SOL    HW2  286   0.632   1.527   2.037
  375SOL     OW  287   1.650   1.720   3.256
  375SOL    HW1  288   1.703   1.730   3.172
  375SOL    HW2  289   1.623   1.810   3.290
  378SOL     OW  290   1.194   1.612   1.893
  378SOL    HW1  291   1.200   1.519   1.930
  378SOL    HW2  292   1.135   1.612   1.813
  380SOL     OW  293   0.916   0.910   2.153
  380SOL    HW1  294   0.979   0.948   2.085
  380SOL    HW2  295   0.956   0.827   2.192
  381SOL     OW  296   1.504   1.607   1.906
  381SOL    HW1  297   1.412   1.644   1.913
  381SOL    HW2  298   1.542   1.627   1.816
  383SOL     OW  299   1.614   1.292   3.151
  383SOL    HW1  300   1.674   1.295   3.231
  383SOL    HW2  301   1.539   1.356   3.164
  384SOL     OW  302   1.039   1.098   2.558
  384SOL    HW1  303   0.969   1.051   2.612
  384SOL    HW2  304   1.098   1.030   2.515
  386SOL     OW  305   0.590   1.487   2.353
  386SOL    HW1  306   0.632   1.429   2.283
  386SOL    HW2  307   0.546   1.566   2.309
  394SOL     OW  308   1.183   1.335   1.981
  394SOL    HW1  309   1.084   1.324   1.983
  394SOL    HW2  310   1.217   1.350   2.074
  396SOL     OW  311   1.493   1.767   2.821
  396SOL    HW1  312   1.526   1.831   2.752
  396SOL    HW2  313   1.559   1.761   2.896
  398SOL     OW  314   1.450   1.220   3.495
  398SOL    HW1  315   1.441   1.210   3.594
  398SOL    HW2  316   1.546   1.213   3.469
  400SOL     OW  317   1.674   0.883   3.116
  400SOL    HW1  318   1.647   0.794   3.079
  400SOL    HW2  319   1.675   0.951   3.043
  404SOL     OW  320   1.730   0.934   3.379
  404SOL    HW1  321   1.768   1.025   3.394
  404SOL    HW2  322   1.722   0.917   3.280
  405SOL     OW  323   0.859   1.374   1.878
  405SOL    HW1  324   0.813   1.389   1.966
  405SOL    HW2  325   0.903   1.459   1.848
  406SOL     OW  326   0.661   1.790   2.815
  406SOL    HW1  327   0.615   1.878   2.802
  406SOL    HW2  328   0.760   1.802   2.808
  408SOL     OW  329   1.083   0.984   1.949
  408SOL    HW1  330   1.060   1.037   1.867
  408SOL    HW2  331   1.164   0.928   1.930
  409SOL     OW  332   1.861   1.569   2.713
  409SOL    HW1  333   1.790   1.557   2.643
  409SOL    HW2  334   1.862   1.490   2.773
  415SOL     OW  335   1.705   1.487   2.966
  415SOL    HW1  336   1.612   1.462   2.939
  415SOL    HW2  337   1.731   1.437   3.048
  417SOL     OW  338   0.812   1.586   2.549
  417SOL    HW1  339   0.844   1.596   2.455
  417SOL    HW2  340   0.733   1.524   2.551
  420SOL     OW  341   0.770   1.330   2.163
  420SOL    HW1  342   0.724   1.243   2.180
  420SOL    HW2  343   0.861   1.327   2.204
  426SOL     OW  344   0.875   1.646   2.199
  426SOL    HW1  345   0.798   1.611   2.145
  426SOL    HW2  346   0.843   1.717   2.261
  496SOL     OW  347   0.850   2.660   1.823
  496SOL    HW1  348   0.846   2.736   1.888
  496SOL    HW2  349   0.872   2.696   1.732
  498SOL     OW  350   0.686   3.023   1.803
  498SOL    HW1  351   0.746   3.102   1.817
  498SOL    HW2  352   0.600   3.054   1.762
  500SOL     OW  353   1.460   3.367   1.339
  500SOL    HW1  354   1.484   3.461   1.365
  500SOL    HW2  355   1.444   3.313   1.421
  502SOL     OW  356   1.603   2.309   0.737
  502SOL    HW1  357   1.529   2.355   0.687
  502SOL    HW2  358   1.654   2.377   0.790
  504SOL     OW  359   1.127   3.203   1.690
  504SOL    HW1  360   1.174   3.203   1.778
  504SOL    HW2  361   1.079   3.116   1.679
  509SOL     OW  362   1.594   1.976   1.480
  509SOL    HW1  363   1.576   2.043   1.408
  509SOL    HW2  364   1.591   2.022   1.569
  513SOL     OW  365   1.689   2.784   0.612
  513SOL    HW1  366   1.784   2.755   0.620
  513SOL    HW2  367   1.681   2.849   0.537
  517SOL     OW  368   1.293   3.090   1.423
  517SOL    HW1  369   1.330   3.017   1.365
  517SOL    HW2  370   1.345   3.095   1.508
  523SOL     OW  371   1.466   3.279   0.953
  523SOL    HW1  372   1.407   3.285   1.033
  523SOL    HW2  373   1.451   3.191   0.907
  526SOL     OW  374   1.281   2.207   0.944
  526SOL    HW1  375   1.195   2.157   0.931
  526SOL    HW2  376   1.343   2.153   1.000
  528SOL     OW  377   0.807   2.467   1.465
  528SOL    HW1  378   0.760   2.464   1.554
  528SOL    HW2  379   0.756   2.412   1.399
  529SOL     OW  380   1.394   2.331   1.674
  529SOL    HW1  381   1.374   2.374   1.762
  529SOL    HW2  382   1.472   2.269   1.683
  530SOL     OW  383   0.973   2.752   1.572
  530SOL    HW1  384   1.019   2.668   1.543
  530SOL    HW2  385   0.917   2.786   1.497
  531SOL     OW  386   0.991   2.272   1.242
  531SOL    HW1  387   0.914   2.306   1.296
  531SOL    HW2  388   0.957   2.221   1.163
  536SOL     OW  389   1.719   2.447   1.831
  536SOL    HW1  390   1.693   2.536   1.795
  536SOL    HW2  391   1.717   2.379   1.758
  541SOL     OW  392   1.795   2.928   0.873
  541SOL    HW1  393   1.733   2.913   0.797
  541SOL    HW2  394   1.743   2.939   0.958
  542SOL     OW  395   1.227   3.412   1.506
  542SOL    HW1  396   1.233   3.335   1.570
  542SOL    HW2  397   1.175   3.386   1.426
  544SOL     OW  398   1.458   2.597   0.728
  544SOL    HW1  399   1.453   2.532   0.803
  544SOL    HW2  400   1.538   2.656   0.741
  554SOL     OW  401   1.547   2.084   1.729
  554SOL    HW1  402   1.542   2.121   1.821
  554SOL    HW2  403   1.475   2.015   1.717
  556SOL     OW  404   0.781   2.126   1.749
  556SOL    HW1  405   0.848   2.065   1.792
  556SOL    HW2  406   0.708   2.145   1.814
  558SOL     OW  407   1.351   2.452   1.433
  558SOL    HW1  408   1.379   2.409   1.518
  558SOL    HW2  409   1.376   2.548   1.434
  560SOL     OW  410   0.922   2.365   0.899
  560SOL    HW1  411   0.897   2.356   0.803
  560SOL    HW2  412   0.970   2.283   0.930
  565SOL     OW  413   1.076   2.545   1.464
  565SOL    HW1  414   0.996   2.484   1.467
  565SOL    HW2  415   1.157   2.492   1.440
  574SOL     OW  416   1.429   3.035   0.867
  574SOL    HW1  417   1.374   2.951   0.860
  574SOL    HW2  418   1.455   3.064   0.775
  575SOL     OW  419   1.466   2.452   0.992
  575SOL    HW1  420   1.436   2.357   0.999
  575SOL    HW2  421   1.539   2.468   1.058
  581SOL     OW  422   1.754   3.085   1.588
  581SOL    HW1  423   1.845   3.046   1.575
  581SOL    HW2  424   1.762   3.181   1.612
  582SOL     OW  425   1.064   3.209   1.340
  582SOL    HW1  426   0.984   3.186   1.395
  582SOL    HW2  427   1.147   3.183   1.389
  583SOL     OW  428   1.592   3.491   1.625
  583SOL    HW1  429   1.619   3.525   1.535
  583SOL    HW2  430   1.671   3.453   1.671
  584SOL     OW  431   1.111   3.057   1.100
  584SOL    HW1  432   1.071   3.101   1.181
  584SOL    HW2  433   1.070   3.094   1.017
  585SOL     OW  434   1.638   2.961   1.079
  585SOL    HW1  435   1.643   3.042   1.138
  585SOL    HW2  436   1.552   2.963   1.028
  586SOL     OW  437   0.915   1.951   1.402
  586SOL    HW1  438   0.940   1.931   1.307
  586SOL    HW2  439   0.987   2.007   1.444
  587SOL     OW  440   0.980   2.978   1.719
  587SOL    HW1  441   0.881   2.984   1.729
  587SOL    HW2  442   1.003   2.898   1.663
  590SOL     OW  443   1.274   2.248   1.262
  590SOL    HW1  444   1.295   2.322   1.326
  590SOL    HW2  445   1.185   2.265   1.219
  595SOL     OW  446   1.272   3.307   1.142
  595SOL    HW1  447   1.319   3.320   1.229
  595SOL    HW2  448   1.206   3.233   1.151
  599SOL     OW  449   1.587   2.641   1.670
  599SOL    HW1  450   1.495   2.679   1.665
  599SOL    HW2  451   1.647   2.688   1.605
  600SOL     OW  452   1.013   1.967   1.770
  600SOL    HW1  453   1.019   2.052   1.718
  600SOL    HW2  454   1.045   1.891   1.713
  601SOL     OW  455   0.504   1.912   1.740
  601SOL    HW1  456   0.462   1.855   1.670
  601SOL    HW2  457   0.438   1.981   1.772
  603SOL     OW  458   1.360   2.724   1.045
  603SOL    HW1  459   1.285   2.724   0.979
  603SOL    HW2  460   1.397   2.632   1.054
  608SOL     OW  461   1.728   2.797   1.854
  608SOL    HW1  462   1.682   2.790   1.765
  608SOL    HW2  463   1.666   2.841   1.920
  611SOL     OW  464   1.023   2.628   0.966
  611SOL    HW1  465   1.038   2.649   1.062
  611SOL    HW2  466   0.993   2.533   0.957
  612SOL     OW  467   0.980   3.435   1.700
  612SOL    HW1  468   0.960   3.479   1.612
  612SOL    HW2  469   1.019   3.344   1.684
  613SOL     OW  470   1.859   3.380   1.605
  613SOL    HW1  471   1.873   3.407   1.510
  613SOL    HW2  472   1.942   3.402   1.658
  620SOL     OW  473   1.138   2.242   1.678
  620SOL    HW1  474   1.093   2.305   1.742
  620SOL    HW2  475   1.231   2.273   1.661
  621SOL     OW  476   1.160   2.069   1.477
  621SOL    HW1  477   1.160   2.133   1.554
  621SOL    HW2  478   1.188   2.117   1.394
  625SOL     OW  479   1.002   2.658   1.238
  625SOL    HW1  480   1.043   2.626   1.324
  625SOL    HW2  481   0.906   2.631   1.235
  628SOL     OW  482   1.369   2.812   1.660
  628SOL    HW1  483   1.408   2.901   1.680
  628SOL    HW2  484   1.379   2.792   1.563
  630SOL     OW  485   1.657   2.466   1.206
  630SOL    HW1  486   1.619   2.397   1.268
  630SOL    HW2  487   1.739   2.430   1.162
  632SOL     OW  488   0.671   2.326   1.269
  632SOL    HW1  489   0.637   2.237   1.239
  632SOL    HW2  490   0.697   2.380   1.189
  636SOL     OW  491   1.347   2.921   1.234
  636SOL    HW1  492   1.371   2.858   1.160
  636SOL    HW2  493   1.257   2.961   1.216
  643SOL     OW  494   1.726   1.997   0.523
  643SOL    HW1  495   1.799   1.980   0.456
  643SOL    HW2  496   1.695   1.910   0.561
  649SOL     OW  497   1.650   3.582   1.394
  649SOL    HW1  498   1.703   3.592   1.310
  649SOL    HW2  499   1.623   3.672   1.428
  650SOL     OW  500   1.841   2.037   0.963
  650SOL    HW1  501   1.880   1.952   0.927
  650SOL    HW2  502   1.743   2.039   0.944
  653SOL     OW  503   0.822   2.864   1.372
  653SOL    HW1  504   0.862   2.863   1.280
  653SOL    HW2  505   0.832   2.956   1.412
  657SOL     OW  506   1.614   3.154   1.289
  657SOL    HW1  507   1.674   3.157   1.369
  657SOL    HW2  508   1.539   3.218   1.302
  659SOL     OW  509   1.014   2.098   0.971
  659SOL    HW1  510   1.006   2.062   0.878
  659SOL    HW2  511   1.012   2.022   1.036
  661SOL     OW  512   1.709   2.247   1.381
  661SOL    HW1  513   1.782   2.316   1.385
  661SOL    HW2  514   1.737   2.172   1.322
  664SOL     OW  515   0.672   2.065   1.489
  664SOL    HW1  516   0.762   2.049   1.449
  664SOL    HW2  517   0.680   2.070   1.588
  666SOL     OW  518   1.440   2.718   1.398
  666SOL    HW1  519   1.383   2.770   1.335
  666SOL    HW2  520   1.536   2.730   1.374
  669SOL     OW  521   0.613   2.704   1.431
  669SOL    HW1  522   0.669   2.785   1.414
  669SOL    HW2  523   0.672   2.624   1.434
  671SOL     OW  524   0.716   2.427   1.708
  671SOL    HW1  525   0.735   2.492   1.782
  671SOL    HW2  526   0.776   2.347   1.717
  672SOL     OW  527   1.450   3.082   1.633
  672SOL    HW1  528   1.441   3.072   1.732
  672SOL    HW2  529   1.546   3.075   1.607
  674SOL     OW  530   1.674   2.745   1.254
  674SOL    HW1  531   1.647   2.656   1.217
  674SOL    HW2  532   1.675   2.813   1.181
  677SOL     OW  533   1.777   2.204   1.642
  677SOL    HW1  534   1.760   2.235   1.548
  677SOL    HW2  535   1.693   2.167   1.680
  678SOL     OW  536   1.730   2.796   1.517
  678SOL    HW1  537   1.768   2.887   1.532
  678SOL    HW2  538   1.722   2.779   1.418
  687SOL     OW  539   1.824   2.054   1.227
  687SOL    HW1  540   1.820   1.964   1.271
  687SOL    HW2  541   1.827   2.043   1.128
  689SOL     OW  542   1.705   3.349   1.104
  689SOL    HW1  543   1.612   3.324   1.077
  689SOL    HW2  544   1.731   3.299   1.186
  692SOL     OW  545   1.424   2.076   1.112
  692SOL    HW1  546   1.476   2.011   1.167
  692SOL    HW2  547   1.375   2.139   1.173
  693SOL     OW  548   1.001   1.896   1.154
  693SOL    HW1  549   0.938   1.824   1.123
  693SOL    HW2  550   1.094   1.860   1.154
  697SOL     OW  551   1.300   2.315   0.691
  697SOL    HW1  552   1.241   2.395   0.695
  697SOL    HW2  553   1.315   2.280   0.784
  698SOL     OW  554   1.593   2.083   0.882
  698SOL    HW1  555   1.509   2.082   0.936
  698SOL    HW2  556   1.595   2.166   0.826
  705SOL     OW  557   1.555   3.373   2.565
  705SOL    HW1  558   1.498   3.357   2.646
  705SOL    HW2  559   1.496   3.383   2.485
  706SOL     OW  560   1.135   2.565   2.579
  706SOL    HW1  561   1.192   2.643   2.554
  706SOL    HW2  562   1.075   2.591   2.655
  707SOL     OW  563   1.755   2.469   2.093
  707SOL    HW1  564   1.743   2.456   1.994
  707SOL    HW2  565   1.725   2.388   2.142
  708SOL     OW  566   0.768   3.006   2.885
  708SOL    HW1  567   0.690   3.023   2.945
  708SOL    HW2  568   0.802   3.093   2.849
  710SOL     OW  569   0.685   2.874   2.527
  710SOL    HW1  570   0.754   2.858   2.597
  710SOL    HW2  571   0.612   2.931   2.565
  713SOL     OW  572   1.460   3.367   3.201
  713SOL    HW1  573   1.484   3.461   3.227
  713SOL    HW2  574   1.444   3.313   3.283
  715SOL     OW  575   1.603   2.309   2.599
  715SOL    HW1  576   1.529   2.355   2.549
  715SOL    HW2  577   1.654   2.377   2.652
  721SOL     OW  578   0.606   2.826   1.985
  721SOL    HW1  579   0.613   2.910   1.931
  721SOL    HW2  580   0.652   2.839   2.073
  722SOL     OW  581   1.594   1.976   3.342
  722SOL    HW1  582   1.576   2.043   3.270
  722SOL    HW2  583   1.591   2.022   3.431
  724SOL     OW  584   1.842   3.629   2.221
  724SOL    HW1  585   1.896   3.600   2.301
  724SOL    HW2  586   1.872   3.719   2.192
  726SOL     OW  587   1.689   2.784   2.474
  726SOL    HW1  588   1.784   2.755   2.482
  726SOL    HW2  589   1.681   2.849   2.399
  727SOL     OW  590   1.641   2.970   2.294
  727SOL    HW1  591   1.727   2.972   2.242
  727SOL    HW2  592   1.655   3.017   2.382
  730SOL     OW  593   1.293   3.090   3.285
  730SOL    HW1  594   1.330   3.017   3.227
  730SOL    HW2  595   1.345   3.095   3.370
  731SOL     OW  596   0.809   1.866   2.364
  731SOL    HW1  597   0.849   1.957   2.355
  731SOL    HW2  598   0.709   1.874   2.370
  733SOL     OW  599   1.525   2.861   2.052
  733SOL    HW1  600   1.462   2.785   2.065
  733SOL    HW2  601   1.573   2.879   2.138
  736SOL     OW  602   1.466   3.279   2.815
  736SOL    HW1  603   1.407   3.285   2.895
  736SOL    HW2  604   1.451   3.191   2.769
  737SOL     OW  605   1.667   3.576   2.434
  737SOL    HW1  606   1.626   3.553   2.346
  737SOL    HW2  607   1.649   3.502   2.499
  738SOL     OW  608   0.598   2.591   2.132
  738SOL    HW1  609   0.622   2.660   2.064
  738SOL    HW2  610   0.520   2.624   2.186
  739SOL     OW  611   1.281   2.207   2.806
  739SOL    HW1  612   1.195   2.157   2.793
  739SOL    HW2  613   1.343   2.153   2.862
  740SOL     OW  614   1.576   3.524   2.169
  740SOL    HW1  615   1.665   3.570   2.172
  740SOL    HW2  616   1.555   3.500   2.074
  742SOL     OW  617   1.394   2.331   3.536
  742SOL    HW1  618   1.374   2.374   3.624
  742SOL    HW2  619   1.472   2.269   3.545
  744SOL     OW  620   0.991   2.272   3.104
  744SOL    HW1  621   0.914   2.306   3.158
  744SOL    HW2  622   0.957   2.221   3.025
  745SOL     OW  623   1.041   2.563   2.291
  745SOL    HW1  624   1.067   2.559   2.387
  745SOL    HW2  625   0.956   2.512   2.277
  748SOL     OW  626   0.865   2.210   2.057
  748SOL    HW1  627   0.924   2.273   2.008
  748SOL    HW2  628   0.884   2.116   2.028
  749SOL     OW  629   1.719   2.447   3.693
  749SOL    HW1  630   1.693   2.536   3.657
  749SOL    HW2  631   1.717   2.379   3.620
  750SOL     OW  632   1.362   3.006   2.407
  750SOL    HW1  633   1.445   2.977   2.359
  750SOL    HW2  634   1.313   3.073   2.351
  751SOL     OW  635   0.550   2.058   2.747
  751SOL    HW1  636   0.545   2.053   2.847
  751SOL    HW2  637   0.552   2.154   2.718
  752SOL     OW  638   1.008   3.318   2.339
  752SOL    HW1  639   0.962   3.390   2.287
  752SOL    HW2  640   1.004   3.338   2.437
  754SOL     OW  641   1.795   2.928   2.735
  754SOL    HW1  642   1.733   2.913   2.659
  754SOL    HW2  643   1.743   2.939   2.820
  757SOL     OW  644   1.458   2.597   2.590
  757SOL    HW1  645   1.453   2.532   2.665
  757SOL    HW2  646   1.538   2.656   2.603
  761SOL     OW  647   1.632   3.239   1.943
  761SOL    HW1  648   1.600   3.333   1.933
  761SOL    HW2  649   1.556   3.176   1.931
  763SOL     OW  650   1.400   1.969   2.288
  763SOL    HW1  651   1.376   1.932   2.198
  763SOL    HW2  652   1.499   1.985   2.292
  767SOL     OW  653   1.547   2.084   3.591
  767SOL    HW1  654   1.542   2.121   3.683
  767SOL    HW2  655   1.475   2.015   3.579
  768SOL     OW  656   0.614   1.984   1.979
  768SOL    HW1  657   0.712   1.962   1.986
  768SOL    HW2  658   0.583   1.967   1.886
  771SOL     OW  659   1.351   2.452   3.295
  771SOL    HW1  660   1.379   2.409   3.380
  771SOL    HW2  661   1.376   2.548   3.296
  773SOL     OW  662   0.922   2.365   2.761
  773SOL    HW1  663   0.897   2.356   2.665
  773SOL    HW2  664   0.970   2.283   2.792
  774SOL     OW  665   0.539   1.926   2.374
  774SOL    HW1  666   0.458   1.927   2.432
  774SOL    HW2  667   0.542   2.009   2.319
  775SOL     OW  668   1.434   3.050   1.903
  775SOL    HW1  669   1.466   2.974   1.960
  775SOL    HW2  670   1.342   3.077   1.933
  777SOL     OW  671   0.935   2.098   2.342
  777SOL    HW1  672   0.887   2.139   2.264
  777SOL    HW2  673   1.034   2.096   2.323
  778SOL     OW  674   1.076   2.545   3.326
  778SOL    HW1  675   0.996   2.484   3.329
  778SOL    HW2  676   1.157   2.492   3.302
  779SOL     OW  677   1.227   3.432   2.655
  779SOL    HW1  678   1.248   3.506   2.590
  779SOL    HW2  679   1.295   3.432   2.728
  781SOL     OW  680   1.271   3.659   2.453
  781SOL    HW1  681   1.315   3.723   2.389
  781SOL    HW2  682   1.221   3.711   2.523
  782SOL     OW  683   1.032   2.411   1.878
  782SOL    HW1  684   0.991   2.493   1.839
  782SOL    HW2  685   1.096   2.437   1.951
  785SOL     OW  686   0.866   2.316   2.504
  785SOL    HW1  687   0.834   2.388   2.442
  785SOL    HW2  688   0.890   2.235   2.451
  786SOL     OW  689   1.017   1.901   2.615
  786SOL    HW1  690   0.945   1.906   2.546
  786SOL    HW2  691   0.993   1.832   2.684
  787SOL     OW  692   1.429   3.035   2.729
  787SOL    HW1  693   1.374   2.951   2.722
  787SOL    HW2  694   1.455   3.064   2.637
  788SOL     OW  695   1.466   2.452   2.854
  788SOL    HW1  696   1.436   2.357   2.861
  788SOL    HW2  697   1.539   2.468   2.920
  789SOL     OW  698   1.857   2.695   2.239
  789SOL    HW1  699   1.899   2.631   2.303
  789SOL    HW2  700   1.819   2.644   2.161
  791SOL     OW  701   1.664   3.142   2.519
  791SOL    HW1  702   1.763   3.150   2.533
  791SOL    HW2  703   1.619   3.226   2.550
  792SOL     OW  704   1.390   2.437   1.940
  792SOL    HW1  705   1.336   2.416   2.021
  792SOL    HW2  706   1.481   2.396   1.949
  793SOL     OW  707   0.527   2.118   2.190
  793SOL    HW1  708   0.554   2.059   2.115
  793SOL    HW2  709   0.527   2.213   2.159
  794SOL     OW  710   1.754   3.085   3.450
  794SOL    HW1  711   1.845   3.046   3.437
  794SOL    HW2  712   1.762   3.181   3.474
  797SOL     OW  713   1.111   3.057   2.962
  797SOL    HW1  714   1.071   3.101   3.043
  797SOL    HW2  715   1.070   3.094   2.879
  798SOL     OW  716   1.638   2.961   2.941
  798SOL    HW1  717   1.643   3.042   3.000
  798SOL    HW2  718   1.552   2.963   2.890
  799SOL     OW  719   0.915   1.951   3.264
  799SOL    HW1  720   0.940   1.931   3.169
  799SOL    HW2  721   0.987   2.007   3.306
  801SOL     OW  722   0.705   2.912   2.230
  801SOL    HW1  723   0.691   2.919   2.329
  801SOL    HW2  724   0.789   2.861   2.212
  803SOL     OW  725   1.274   2.248   3.124
  803SOL    HW1  726   1.295   2.322   3.188
  803SOL    HW2  727   1.185   2.265   3.081
  806SOL     OW  728   0.566   2.399   2.727
  806SOL    HW1  729   0.578   2.465   2.653
  806SOL    HW2  730   0.612   2.433   2.810
  807SOL     OW  731   1.252   3.210   2.250
  807SOL    HW1  732   1.302   3.287   2.290
  807SOL    HW2  733   1.157   3.212   2.282
  808SOL     OW  734   1.272   3.307   3.004
  808SOL    HW1  735   1.319   3.320   3.091
  808SOL    HW2  736   1.206   3.233   3.013
  809SOL     OW  737   1.582   2.501   2.334
  809SOL    HW1  738   1.551   2.562   2.407
  809SOL    HW2  739   1.632   2.553   2.265
  812SOL     OW  740   1.587   2.641   3.532
  812SOL    HW1  741   1.495   2.679   3.527
  812SOL    HW2  742   1.647   2.688   3.467
  816SOL     OW  743   1.360   2.724   2.907
  816SOL    HW1  744   1.285   2.724   2.841
  816SOL    HW2  745   1.397   2.632   2.916
  817SOL     OW  746   1.209   2.387   2.137
  817SOL    HW1  747   1.222   2.303   2.191
  817SOL    HW2  748   1.180   2.461   2.197
  820SOL     OW  749   0.732   2.496   2.926
  820SOL    HW1  750   0.791   2.470   2.850
  820SOL    HW2  751   0.704   2.592   2.915
  821SOL     OW  752   1.728   2.797   3.716
  821SOL    HW1  753   1.682   2.790   3.627
  821SOL    HW2  754   1.666   2.841   3.782
  823SOL     OW  755   1.622   2.229   2.236
  823SOL    HW1  756   1.624   2.153   2.300
  823SOL    HW2  757   1.574   2.306   2.276
  824SOL     OW  758   1.023   2.628   2.828
  824SOL    HW1  759   1.038   2.649   2.924
  824SOL    HW2  760   0.993   2.533   2.819
  828SOL     OW  761   1.540   2.136   1.987
  828SOL    HW1  762   1.479   2.061   2.010
  828SOL    HW2  763   1.562   2.188   2.070
  829SOL     OW  764   1.303   2.700   1.904
  829SOL    HW1  765   1.337   2.607   1.919
  829SOL    HW2  766   1.321   2.727   1.809
  830SOL     OW  767   1.068   3.195   2.711
  830SOL    HW1  768   1.075   3.111   2.656
  830SOL    HW2  769   1.130   3.264   2.675
  833SOL     OW  770   1.138   2.242   3.540
  833SOL    HW1  771   1.093   2.305   3.604
  833SOL    HW2  772   1.231   2.273   3.523
  834SOL     OW  773   1.160   2.069   3.339
  834SOL    HW1  774   1.160   2.133   3.416
  834SOL    HW2  775   1.188   2.117   3.256
  838SOL     OW  776   1.002   2.658   3.100
  838SOL    HW1  777   1.043   2.626   3.186
  838SOL    HW2  778   0.906   2.631   3.097
  841SOL     OW  779   1.369   2.812   3.522
  841SOL    HW1  780   1.408   2.901   3.542
  841SOL    HW2  781   1.379   2.792   3.425
  842SOL     OW  782   0.815   2.434   2.187
  842SOL    HW1  783   0.822   2.345   2.141
  842SOL    HW2  784   0.721   2.468   2.179
  843SOL     OW  785   1.657   2.466   3.068
  843SOL    HW1  786   1.619   2.397   3.130
  843SOL    HW2  787   1.739   2.430   3.024
  845SOL     OW  788   0.671   2.326   3.131
  845SOL    HW1  789   0.637   2.237   3.101
  845SOL    HW2  790   0.697   2.380   3.051
  847SOL     OW  791   0.473   2.362   2.053
  847SOL    HW1  792   0.534   2.442   2.057
  847SOL    HW2  793   0.378   2.393   2.060
  849SOL     OW  794   1.347   2.921   3.096
  849SOL    HW1  795   1.371   2.858   3.022
  849SOL    HW2  796   1.257   2.961   3.078
  850SOL     OW  797   1.302   2.717   2.171
  850SOL    HW1  798   1.216   2.686   2.213
  850SOL    HW2  799   1.298   2.703   2.072
  851SOL     OW  800   1.759   3.609   3.016
  851SOL    HW1  801   1.820   3.639   2.943
  851SOL    HW2  802   1.721   3.520   2.994
  855SOL     OW  803   1.726   1.997   2.385
  855SOL    HW1  804   1.799   1.980   2.318
  855SOL    HW2  805   1.695   1.910   2.423
  856SOL     OW  806   1.388   3.435   2.339
  856SOL    HW1  807   1.455   3.447   2.265
  856SOL    HW2  808   1.348   3.524   2.362
  858SOL     OW  809   1.280   2.789   2.534
  858SOL    HW1  810   1.340   2.708   2.536
  858SOL    HW2  811   1.320   2.858   2.474
  862SOL     OW  812   1.841   2.037   2.825
  862SOL    HW1  813   1.880   1.952   2.789
  862SOL    HW2  814   1.743   2.039   2.806
  864SOL     OW  815   1.194   3.474   1.893
  864SOL    HW1  816   1.200   3.381   1.930
  864SOL    HW2  817   1.135   3.474   1.813
  866SOL     OW  818   0.916   2.772   2.153
  866SOL    HW1  819   0.979   2.810   2.085
  866SOL    HW2  820   0.956   2.689   2.192
  867SOL     OW  821   1.504   3.469   1.906
  867SOL    HW1  822   1.412   3.506   1.913
  867SOL    HW2  823   1.542   3.489   1.816
  869SOL     OW  824   1.614   3.154   3.151
  869SOL    HW1  825   1.674   3.157   3.231
  869SOL    HW2  826   1.539   3.218   3.164
  870SOL     OW  827   1.039   2.960   2.558
  870SOL    HW1  828   0.969   2.913   2.612
  870SOL    HW2  829   1.098   2.892   2.515
  871SOL     OW  830   1.014   2.098   2.833
  871SOL    HW1  831   1.006   2.062   2.740
  871SOL    HW2  832   1.012   2.022   2.898
  873SOL     OW  833   1.709   2.247   3.243
  873SOL    HW1  834   1.782   2.316   3.247
  873SOL    HW2  835   1.737   2.172   3.184
  878SOL     OW  836   1.440   2.718   3.260
  878SOL    HW1  837   1.383   2.770   3.197
  878SOL    HW2  838   1.536   2.730   3.236
  880SOL     OW  839   1.183   3.197   1.981
  880SOL    HW1  840   1.084   3.186   1.983
  880SOL    HW2  841   1.217   3.212   2.074
  882SOL     OW  842   1.493   3.629   2.821
  882SOL    HW1  843   1.526   3.693   2.752
  882SOL    HW2  844   1.559   3.623   2.896
  884SOL     OW  845   1.450   3.082   3.495
  884SOL    HW1  846   1.441   3.072   3.594
  884SOL    HW2  847   1.546   3.075   3.469
  886SOL     OW  848   1.674   2.745   3.116
  886SOL    HW1  849   1.647   2.656   3.079
  886SOL    HW2  850   1.675   2.813   3.043
  887SOL     OW  851   1.225   2.187   2.311
  887SOL    HW1  852   1.290   2.113   2.300
  887SOL    HW2  853   1.245   2.237   2.395
  888SOL     OW  854   0.594   2.607   2.514
  888SOL    HW1  855   0.644   2.692   2.495
  888SOL    HW2  856   0.506   2.609   2.466
  889SOL     OW  857   1.777   2.204   3.504
  889SOL    HW1  858   1.760   2.235   3.410
  889SOL    HW2  859   1.693   2.167   3.542
  890SOL     OW  860   1.730   2.796   3.379
  890SOL    HW1  861   1.768   2.887   3.394
  890SOL    HW2  862   1.722   2.779   3.280
  891SOL     OW  863   0.859   3.236   1.878
  891SOL    HW1  864   0.813   3.251   1.966
  891SOL    HW2  865   0.903   3.321   1.848
  893SOL     OW  866   0.859   2.818   2.723
  893SOL    HW1  867   0.913   2.749   2.771
  893SOL    HW2  868   0.827   2.887   2.789
  894SOL     OW  869   1.083   2.846   1.949
  894SOL    HW1  870   1.060   2.899   1.867
  894SOL    HW2  871   1.164   2.790   1.930
  895SOL     OW  872   1.861   3.431   2.713
  895SOL    HW1  873   1.790   3.419   2.643
  895SOL    HW2  874   1.862   3.352   2.773
  899SOL     OW  875   1.824   2.054   3.089
  899SOL    HW1  876   1.820   1.964   3.133
  899SOL    HW2  877   1.827   2.043   2.990
  900SOL     OW  878   0.428   2.286   2.382
  900SOL    HW1  879   0.458   2.214   2.320
  900SOL    HW2  880   0.389   2.246   2.465
  901SOL     OW  881   1.705   3.349   2.966
  901SOL    HW1  882   1.612   3.324   2.939
  901SOL    HW2  883   1.731   3.299   3.048
  904SOL     OW  884   1.424   2.076   2.974
  904SOL    HW1  885   1.476   2.011   3.029
  904SOL    HW2  886   1.375   2.139   3.035
  905SOL     OW  887   1.001   1.896   3.016
  905SOL    HW1  888   0.938   1.824   2.985
  905SOL    HW2  889   1.094   1.860   3.016
  906SOL     OW  890   0.770   3.192   2.163
  906SOL    HW1  891   0.724   3.105   2.180
  906SOL    HW2  892   0.861   3.189   2.204
  908SOL     OW  893   1.352   1.914   2.030
  908SOL    HW1  894   1.387   1.873   1.946
  908SOL    HW2  895   1.262   1.876   2.050
  909SOL     OW  896   1.300   2.315   2.553
  909SOL    HW1  897   1.241   2.395   2.557
  909SOL    HW2  898   1.315   2.280   2.646
  910SOL     OW  899   1.593   2.083   2.744
  910SOL    HW1  900   1.509   2.082   2.798
  910SOL    HW2  901   1.595   2.166   2.688
 1088SOL     OW  902   1.726   3.859   2.385
 1088SOL    HW1  903   1.799   3.842   2.318
 1088SOL    HW2  904   1.695   3.772   2.423
 1129SOL     OW  905   2.431   1.275   1.165
 1129SOL    HW1  906   2.338   1.268   1.128
 1129SOL    HW2  907   2.442   1.364   1.209
 1133SOL     OW  908   2.630   1.144   1.023
 1133SOL    HW1  909   2.552   1.161   1.083
 1133SOL    HW2  910   2.664   1.231   0.987
 1134SOL     OW  911   2.712   0.798   1.823
 1134SOL    HW1  912   2.708   0.874   1.888
 1134SOL    HW2  913   2.734   0.834   1.732
 1136SOL     OW  914   2.548   1.161   1.803
 1136SOL    HW1  915   2.608   1.240   1.817
 1136SOL    HW2  916   2.462   1.192   1.762
 1137SOL     OW  917   2.197   1.435   1.061
 1137SOL    HW1  918   2.119   1.404   1.008
 1137SOL    HW2  919   2.255   1.493   1.004
 1138SOL     OW  920   3.322   1.505   1.339
 1138SOL    HW1  921   3.346   1.599   1.365
 1138SOL    HW2  922   3.306   1.451   1.421
 1141SOL     OW  923   2.093   1.713   0.483
 1141SOL    HW1  924   2.127   1.790   0.537
 1141SOL    HW2  925   2.137   1.713   0.393
 1142SOL     OW  926   2.989   1.341   1.690
 1142SOL    HW1  927   3.036   1.341   1.778
 1142SOL    HW2  928   2.941   1.254   1.679
 1143SOL     OW  929   2.092   1.434   0.538
 1143SOL    HW1  930   2.066   1.530   0.538
 1143SOL    HW2  931   2.021   1.380   0.583
 1144SOL     OW  932   2.102   1.091   0.886
 1144SOL    HW1  933   2.116   1.007   0.938
 1144SOL    HW2  934   2.047   1.155   0.941
 1145SOL     OW  935   2.482   1.786   1.439
 1145SOL    HW1  936   2.390   1.769   1.474
 1145SOL    HW2  937   2.510   1.878   1.465
 1153SOL     OW  938   1.975   0.737   1.597
 1153SOL    HW1  939   2.063   0.724   1.642
 1153SOL    HW2  940   1.962   0.834   1.575
 1154SOL     OW  941   2.475   1.365   0.726
 1154SOL    HW1  942   2.426   1.278   0.735
 1154SOL    HW2  943   2.452   1.408   0.639
 1155SOL     OW  944   3.155   1.228   1.423
 1155SOL    HW1  945   3.192   1.155   1.365
 1155SOL    HW2  946   3.207   1.233   1.508
 1157SOL     OW  947   2.059   0.976   1.264
 1157SOL    HW1  948   2.148   0.931   1.250
 1157SOL    HW2  949   1.986   0.911   1.245
 1159SOL     OW  950   3.049   1.792   1.616
 1159SOL    HW1  951   3.073   1.852   1.540
 1159SOL    HW2  952   3.056   1.697   1.586
 1166SOL     OW  953   2.669   0.605   1.465
 1166SOL    HW1  954   2.622   0.602   1.554
 1166SOL    HW2  955   2.618   0.550   1.399
 1168SOL     OW  956   2.835   0.890   1.572
 1168SOL    HW1  957   2.881   0.806   1.543
 1168SOL    HW2  958   2.779   0.924   1.497
 1172SOL     OW  959   1.992   1.821   1.571
 1172SOL    HW1  960   1.982   1.806   1.670
 1172SOL    HW2  961   1.906   1.857   1.535
 1178SOL     OW  962   2.213   1.801   0.853
 1178SOL    HW1  963   2.263   1.715   0.859
 1178SOL    HW2  964   2.278   1.878   0.850
 1180SOL     OW  965   3.089   1.550   1.506
 1180SOL    HW1  966   3.095   1.473   1.570
 1180SOL    HW2  967   3.037   1.524   1.426
 1183SOL     OW  968   2.323   1.266   1.727
 1183SOL    HW1  969   2.273   1.267   1.641
 1183SOL    HW2  970   2.260   1.248   1.803
 1189SOL     OW  971   2.111   1.785   1.241
 1189SOL    HW1  972   2.168   1.720   1.291
 1189SOL    HW2  973   2.095   1.752   1.148
 1190SOL     OW  974   2.802   1.698   0.904
 1190SOL    HW1  975   2.882   1.641   0.925
 1190SOL    HW2  976   2.753   1.658   0.827
 1195SOL     OW  977   2.750   1.514   1.195
 1195SOL    HW1  978   2.727   1.489   1.101
 1195SOL    HW2  979   2.811   1.445   1.234
 1197SOL     OW  980   2.665   1.402   0.924
 1197SOL    HW1  981   2.755   1.416   0.882
 1197SOL    HW2  982   2.594   1.404   0.853
 1204SOL     OW  983   3.089   1.570   0.793
 1204SOL    HW1  984   3.110   1.644   0.728
 1204SOL    HW2  985   3.157   1.570   0.866
 1205SOL     OW  986   2.321   1.152   0.741
 1205SOL    HW1  987   2.250   1.125   0.806
 1205SOL    HW2  988   2.295   1.124   0.648
 1208SOL     OW  989   1.940   0.556   1.386
 1208SOL    HW1  990   2.032   0.555   1.345
 1208SOL    HW2  991   1.934   0.630   1.453
 1220SOL     OW  992   2.926   1.347   1.340
 1220SOL    HW1  993   2.846   1.324   1.395
 1220SOL    HW2  994   3.009   1.321   1.389
 1221SOL     OW  995   3.454   1.629   1.625
 1221SOL    HW1  996   3.481   1.663   1.535
 1221SOL    HW2  997   3.533   1.591   1.671
 1222SOL     OW  998   2.973   1.195   1.100
 1222SOL    HW1  999   2.933   1.239   1.181
 1222SOL    HW2 1000   2.932   1.232   1.017
 1225SOL     OW 1001   2.842   1.116   1.719
 1225SOL    HW1 1002   2.743   1.122   1.729
 1225SOL    HW2 1003   2.865   1.036   1.663
 1227SOL     OW 1004   2.272   0.813   1.251
 1227SOL    HW1 1005   2.358   0.825   1.301
 1227SOL    HW2 1006   2.230   0.726   1.278
 1229SOL     OW 1007   1.926   1.564   1.331
 1229SOL    HW1 1008   1.880   1.646   1.297
 1229SOL    HW2 1009   2.024   1.583   1.340
 1233SOL     OW 1010   3.134   1.445   1.142
 1233SOL    HW1 1011   3.181   1.458   1.229
 1233SOL    HW2 1012   3.068   1.371   1.151
 1235SOL     OW 1013   2.216   1.510   1.329
 1235SOL    HW1 1014   2.195   1.466   1.242
 1235SOL    HW2 1015   2.313   1.536   1.332
 1236SOL     OW 1016   2.264   0.751   1.598
 1236SOL    HW1 1017   2.332   0.806   1.551
 1236SOL    HW2 1018   2.304   0.663   1.625
 1240SOL     OW 1019   2.435   0.870   1.029
 1240SOL    HW1 1020   2.479   0.959   1.020
 1240SOL    HW2 1021   2.372   0.870   1.106
 1244SOL     OW 1022   1.899   1.310   1.282
 1244SOL    HW1 1023   1.952   1.261   1.350
 1244SOL    HW2 1024   1.921   1.408   1.287
 1250SOL     OW 1025   2.842   1.573   1.700
 1250SOL    HW1 1026   2.822   1.617   1.612
 1250SOL    HW2 1027   2.881   1.482   1.684
 1251SOL     OW 1028   3.721   1.518   1.605
 1251SOL    HW1 1029   3.735   1.545   1.510
 1251SOL    HW2 1030   3.804   1.540   1.658
 1252SOL     OW 1031   2.212   0.898   1.804
 1252SOL    HW1 1032   2.288   0.942   1.852
 1252SOL    HW2 1033   2.247   0.851   1.722
 1255SOL     OW 1034   2.930   1.333   0.849
 1255SOL    HW1 1035   2.937   1.249   0.794
 1255SOL    HW2 1036   2.992   1.402   0.813
 1261SOL     OW 1037   1.950   1.801   0.927
 1261SOL    HW1 1038   1.908   1.715   0.900
 1261SOL    HW2 1039   2.044   1.804   0.893
 1262SOL     OW 1040   2.366   1.568   0.910
 1262SOL    HW1 1041   2.432   1.642   0.919
 1262SOL    HW2 1042   2.410   1.489   0.868
 1263SOL     OW 1043   2.864   0.796   1.238
 1263SOL    HW1 1044   2.905   0.764   1.324
 1263SOL    HW2 1045   2.768   0.769   1.235
 1265SOL     OW 1046   2.051   0.520   1.722
 1265SOL    HW1 1047   2.110   0.480   1.652
 1265SOL    HW2 1048   1.993   0.591   1.681
 1266SOL     OW 1049   3.231   0.950   1.660
 1266SOL    HW1 1050   3.270   1.039   1.680
 1266SOL    HW2 1051   3.241   0.930   1.563
 1269SOL     OW 1052   2.114   1.564   1.744
 1269SOL    HW1 1053   2.084   1.621   1.820
 1269SOL    HW2 1054   2.107   1.467   1.770
 1271SOL     OW 1055   2.792   1.678   1.465
 1271SOL    HW1 1056   2.768   1.660   1.370
 1271SOL    HW2 1057   2.822   1.772   1.475
 1273SOL     OW 1058   2.021   1.137   1.466
 1273SOL    HW1 1059   2.043   1.076   1.542
 1273SOL    HW2 1060   2.031   1.088   1.380
 1274SOL     OW 1061   3.209   1.059   1.234
 1274SOL    HW1 1062   3.233   0.996   1.160
 1274SOL    HW2 1063   3.119   1.099   1.216
 1277SOL     OW 1064   3.114   1.731   1.128
 1277SOL    HW1 1065   3.198   1.736   1.074
 1277SOL    HW2 1066   3.091   1.635   1.146
 1278SOL     OW 1067   1.945   1.258   1.022
 1278SOL    HW1 1068   1.940   1.257   1.122
 1278SOL    HW2 1069   1.862   1.217   0.984
 1279SOL     OW 1070   2.550   1.662   1.716
 1279SOL    HW1 1071   2.494   1.743   1.725
 1279SOL    HW2 1072   2.602   1.666   1.630
 1283SOL     OW 1073   1.992   1.794   1.851
 1283SOL    HW1 1074   1.951   1.720   1.904
 1283SOL    HW2 1075   2.056   1.845   1.909
 1285SOL     OW 1076   2.692   1.273   1.422
 1285SOL    HW1 1077   2.687   1.306   1.517
 1285SOL    HW2 1078   2.606   1.292   1.376
 1287SOL     OW 1079   3.512   1.720   1.394
 1287SOL    HW1 1080   3.565   1.730   1.310
 1287SOL    HW2 1081   3.485   1.810   1.428
 1291SOL     OW 1082   2.684   1.002   1.372
 1291SOL    HW1 1083   2.724   1.001   1.280
 1291SOL    HW2 1084   2.694   1.094   1.412
 1294SOL     OW 1085   2.234   1.288   1.490
 1294SOL    HW1 1086   2.221   1.381   1.456
 1294SOL    HW2 1087   2.150   1.236   1.477
 1301SOL     OW 1088   1.967   1.013   1.726
 1301SOL    HW1 1089   1.890   0.980   1.780
 1301SOL    HW2 1090   2.052   0.983   1.768
 1307SOL     OW 1091   2.475   0.842   1.431
 1307SOL    HW1 1092   2.531   0.923   1.414
 1307SOL    HW2 1093   2.534   0.762   1.434
 1308SOL     OW 1094   3.355   1.767   0.959
 1308SOL    HW1 1095   3.388   1.831   0.890
 1308SOL    HW2 1096   3.421   1.761   1.034
 1309SOL     OW 1097   2.578   0.565   1.708
 1309SOL    HW1 1098   2.597   0.630   1.782
 1309SOL    HW2 1099   2.638   0.485   1.717
 1310SOL     OW 1100   3.312   1.220   1.633
 1310SOL    HW1 1101   3.303   1.210   1.732
 1310SOL    HW2 1102   3.408   1.213   1.607
 1311SOL     OW 1103   2.252   1.741   1.560
 1311SOL    HW1 1104   2.161   1.782   1.558
 1311SOL    HW2 1105   2.245   1.647   1.592
 1318SOL     OW 1106   2.523   1.790   0.953
 1318SOL    HW1 1107   2.477   1.878   0.940
 1318SOL    HW2 1108   2.622   1.802   0.946
 1322SOL     OW 1109   2.083   1.314   1.844
 1322SOL    HW1 1110   2.018   1.241   1.823
 1322SOL    HW2 1111   2.087   1.328   1.942
 1323SOL     OW 1112   1.941   1.240   0.653
 1323SOL    HW1 1113   1.940   1.193   0.741
 1323SOL    HW2 1114   2.023   1.212   0.602
 1324SOL     OW 1115   2.534   1.391   1.624
 1324SOL    HW1 1116   2.456   1.341   1.662
 1324SOL    HW2 1117   2.531   1.486   1.655
 1329SOL     OW 1118   2.674   1.586   0.687
 1329SOL    HW1 1119   2.706   1.596   0.593
 1329SOL    HW2 1120   2.595   1.524   0.689
 1333SOL     OW 1121   2.480   1.567   1.284
 1333SOL    HW1 1122   2.475   1.649   1.341
 1333SOL    HW2 1123   2.569   1.564   1.239
 1339SOL     OW 1124   2.092   0.628   1.975
 1339SOL    HW1 1125   1.999   0.626   2.012
 1339SOL    HW2 1126   2.093   0.589   1.883
 1342SOL     OW 1127   2.431   1.275   3.027
 1342SOL    HW1 1128   2.338   1.268   2.990
 1342SOL    HW2 1129   2.442   1.364   3.071
 1343SOL     OW 1130   3.417   1.511   2.565
 1343SOL    HW1 1131   3.360   1.495   2.646
 1343SOL    HW2 1132   3.358   1.521   2.485
 1344SOL     OW 1133   2.997   0.703   2.579
 1344SOL    HW1 1134   3.054   0.781   2.554
 1344SOL    HW2 1135   2.937   0.729   2.655
 1346SOL     OW 1136   2.630   1.144   2.885
 1346SOL    HW1 1137   2.552   1.161   2.945
 1346SOL    HW2 1138   2.664   1.231   2.849
 1348SOL     OW 1139   2.547   1.012   2.527
 1348SOL    HW1 1140   2.616   0.996   2.597
 1348SOL    HW2 1141   2.474   1.069   2.565
 1350SOL     OW 1142   2.197   1.435   2.923
 1350SOL    HW1 1143   2.119   1.404   2.870
 1350SOL    HW2 1144   2.255   1.493   2.866
 1351SOL     OW 1145   3.322   1.505   3.201
 1351SOL    HW1 1146   3.346   1.599   3.227
 1351SOL    HW2 1147   3.306   1.451   3.283
 1354SOL     OW 1148   2.093   1.713   2.345
 1354SOL    HW1 1149   2.127   1.790   2.399
 1354SOL    HW2 1150   2.137   1.713   2.255
 1356SOL     OW 1151   2.092   1.434   2.400
 1356SOL    HW1 1152   2.066   1.530   2.400
 1356SOL    HW2 1153   2.021   1.380   2.445
 1357SOL     OW 1154   2.102   1.091   2.748
 1357SOL    HW1 1155   2.116   1.007   2.800
 1357SOL    HW2 1156   2.047   1.155   2.803
 1358SOL     OW 1157   2.482   1.786   3.301
 1358SOL    HW1 1158   2.390   1.769   3.336
 1358SOL    HW2 1159   2.510   1.878   3.327
 1359SOL     OW 1160   2.468   0.964   1.985
 1359SOL    HW1 1161   2.475   1.048   1.931
 1359SOL    HW2 1162   2.514   0.977   2.073
 1361SOL     OW 1163   1.984   0.643   2.425
 1361SOL    HW1 1164   1.939   0.555   2.442
 1361SOL    HW2 1165   1.983   0.697   2.509
 1362SOL     OW 1166   3.704   1.767   2.221
 1362SOL    HW1 1167   3.758   1.738   2.301
 1362SOL    HW2 1168   3.734   1.857   2.192
 1363SOL     OW 1169   1.889   1.596   1.979
 1363SOL    HW1 1170   1.870   1.500   2.000
 1363SOL    HW2 1171   1.856   1.654   2.054
 1365SOL     OW 1172   3.503   1.108   2.294
 1365SOL    HW1 1173   3.589   1.110   2.242
 1365SOL    HW2 1174   3.517   1.155   2.382
 1367SOL     OW 1175   2.475   1.365   2.588
 1367SOL    HW1 1176   2.426   1.278   2.597
 1367SOL    HW2 1177   2.452   1.408   2.501
 1368SOL     OW 1178   3.155   1.228   3.285
 1368SOL    HW1 1179   3.192   1.155   3.227
 1368SOL    HW2 1180   3.207   1.233   3.370
 1370SOL     OW 1181   2.059   0.976   3.126
 1370SOL    HW1 1182   2.148   0.931   3.112
 1370SOL    HW2 1183   1.986   0.911   3.107
 1371SOL     OW 1184   3.387   0.999   2.052
 1371SOL    HW1 1185   3.324   0.923   2.065
 1371SOL    HW2 1186   3.435   1.017   2.138
 1372SOL     OW 1187   3.049   1.792   3.478
 1372SOL    HW1 1188   3.073   1.852   3.402
 1372SOL    HW2 1189   3.056   1.697   3.448
 1374SOL     OW 1190   3.328   1.417   2.815
 1374SOL    HW1 1191   3.269   1.423   2.895
 1374SOL    HW2 1192   3.313   1.329   2.769
 1375SOL     OW 1193   3.529   1.714   2.434
 1375SOL    HW1 1194   3.488   1.691   2.346
 1375SOL    HW2 1195   3.511   1.640   2.499
 1376SOL     OW 1196   2.460   0.729   2.132
 1376SOL    HW1 1197   2.484   0.798   2.064
 1376SOL    HW2 1198   2.382   0.762   2.186
 1378SOL     OW 1199   3.438   1.662   2.169
 1378SOL    HW1 1200   3.527   1.708   2.172
 1378SOL    HW2 1201   3.417   1.638   2.074
 1383SOL     OW 1202   2.903   0.701   2.291
 1383SOL    HW1 1203   2.929   0.697   2.387
 1383SOL    HW2 1204   2.818   0.650   2.277
 1384SOL     OW 1205   1.938   0.811   2.651
 1384SOL    HW1 1206   2.037   0.799   2.660
 1384SOL    HW2 1207   1.914   0.906   2.672
 1385SOL     OW 1208   1.992   1.821   3.433
 1385SOL    HW1 1209   1.982   1.806   3.532
 1385SOL    HW2 1210   1.906   1.857   3.397
 1388SOL     OW 1211   3.224   1.144   2.407
 1388SOL    HW1 1212   3.307   1.115   2.359
 1388SOL    HW2 1213   3.175   1.211   2.351
 1390SOL     OW 1214   2.870   1.456   2.339
 1390SOL    HW1 1215   2.824   1.528   2.287
 1390SOL    HW2 1216   2.866   1.476   2.437
 1391SOL     OW 1217   2.213   1.801   2.715
 1391SOL    HW1 1218   2.263   1.715   2.721
 1391SOL    HW2 1219   2.278   1.878   2.712
 1393SOL     OW 1220   3.089   1.550   3.368
 1393SOL    HW1 1221   3.095   1.473   3.432
 1393SOL    HW2 1222   3.037   1.524   3.288
 1394SOL     OW 1223   2.183   0.943   2.104
 1394SOL    HW1 1224   2.265   0.982   2.062
 1394SOL    HW2 1225   2.156   0.861   2.055
 1396SOL     OW 1226   2.323   1.266   3.589
 1396SOL    HW1 1227   2.273   1.267   3.503
 1396SOL    HW2 1228   2.260   1.248   3.665
 1397SOL     OW 1229   2.973   1.776   2.099
 1397SOL    HW1 1230   2.913   1.714   2.149
 1397SOL    HW2 1231   3.004   1.732   2.014
 1399SOL     OW 1232   3.494   1.377   1.943
 1399SOL    HW1 1233   3.462   1.471   1.933
 1399SOL    HW2 1234   3.418   1.314   1.931
 1400SOL     OW 1235   2.326   1.743   2.185
 1400SOL    HW1 1236   2.359   1.782   2.271
 1400SOL    HW2 1237   2.402   1.736   2.120
 1402SOL     OW 1238   2.111   1.785   3.103
 1402SOL    HW1 1239   2.168   1.720   3.153
 1402SOL    HW2 1240   2.095   1.752   3.010
 1403SOL     OW 1241   2.802   1.698   2.766
 1403SOL    HW1 1242   2.882   1.641   2.787
 1403SOL    HW2 1243   2.753   1.658   2.689
 1404SOL     OW 1244   2.244   0.700   2.342
 1404SOL    HW1 1245   2.289   0.610   2.339
 1404SOL    HW2 1246   2.150   0.689   2.375
 1408SOL     OW 1247   2.750   1.514   3.057
 1408SOL    HW1 1248   2.727   1.489   2.963
 1408SOL    HW2 1249   2.811   1.445   3.096
 1410SOL     OW 1250   2.665   1.402   2.786
 1410SOL    HW1 1251   2.755   1.416   2.744
 1410SOL    HW2 1252   2.594   1.404   2.715
 1413SOL     OW 1253   3.296   1.188   1.903
 1413SOL    HW1 1254   3.328   1.112   1.960
 1413SOL    HW2 1255   3.204   1.215   1.933
 1417SOL     OW 1256   3.089   1.570   2.655
 1417SOL    HW1 1257   3.110   1.644   2.590
 1417SOL    HW2 1258   3.157   1.570   2.728
 1418SOL     OW 1259   2.321   1.152   2.603
 1418SOL    HW1 1260   2.250   1.125   2.668
 1418SOL    HW2 1261   2.295   1.124   2.510
 1419SOL     OW 1262   3.133   1.797   2.453
 1419SOL    HW1 1263   3.177   1.861   2.389
 1419SOL    HW2 1264   3.083   1.849   2.523
 1420SOL     OW 1265   2.894   0.549   1.878
 1420SOL    HW1 1266   2.853   0.631   1.839
 1420SOL    HW2 1267   2.958   0.575   1.951
 1425SOL     OW 1268   3.291   1.173   2.729
 1425SOL    HW1 1269   3.236   1.089   2.722
 1425SOL    HW2 1270   3.317   1.202   2.637
 1428SOL     OW 1271   2.350   1.385   2.036
 1428SOL    HW1 1272   2.263   1.370   2.083
 1428SOL    HW2 1273   2.333   1.411   1.941
 1429SOL     OW 1274   3.526   1.280   2.519
 1429SOL    HW1 1275   3.625   1.288   2.533
 1429SOL    HW2 1276   3.481   1.364   2.550
 1433SOL     OW 1277   2.926   1.347   3.202
 1433SOL    HW1 1278   2.846   1.324   3.257
 1433SOL    HW2 1279   3.009   1.321   3.251
 1435SOL     OW 1280   2.973   1.195   2.962
 1435SOL    HW1 1281   2.933   1.239   3.043
 1435SOL    HW2 1282   2.932   1.232   2.879
 1439SOL     OW 1283   2.567   1.050   2.230
 1439SOL    HW1 1284   2.553   1.057   2.329
 1439SOL    HW2 1285   2.651   0.999   2.212
 1440SOL     OW 1286   2.272   0.813   3.113
 1440SOL    HW1 1287   2.358   0.825   3.163
 1440SOL    HW2 1288   2.230   0.726   3.140
 1442SOL     OW 1289   1.926   1.564   3.193
 1442SOL    HW1 1290   1.880   1.646   3.159
 1442SOL    HW2 1291   2.024   1.583   3.202
 1443SOL     OW 1292   2.229   1.100   2.363
 1443SOL    HW1 1293   2.222   1.183   2.307
 1443SOL    HW2 1294   2.233   1.020   2.303
 1444SOL     OW 1295   2.428   0.537   2.727
 1444SOL    HW1 1296   2.440   0.603   2.653
 1444SOL    HW2 1297   2.474   0.571   2.810
 1445SOL     OW 1298   3.114   1.348   2.250
 1445SOL    HW1 1299   3.164   1.425   2.290
 1445SOL    HW2 1300   3.019   1.350   2.282
 1446SOL     OW 1301   3.134   1.445   3.004
 1446SOL    HW1 1302   3.181   1.458   3.091
 1446SOL    HW2 1303   3.068   1.371   3.013
 1448SOL     OW 1304   2.216   1.510   3.191
 1448SOL    HW1 1305   2.195   1.466   3.104
 1448SOL    HW2 1306   2.313   1.536   3.194
 1453SOL     OW 1307   2.435   0.870   2.891
 1453SOL    HW1 1308   2.479   0.959   2.882
 1453SOL    HW2 1309   2.372   0.870   2.968
 1457SOL     OW 1310   1.899   1.310   3.144
 1457SOL    HW1 1311   1.952   1.261   3.212
 1457SOL    HW2 1312   1.921   1.408   3.149
 1458SOL     OW 1313   2.594   0.634   2.926
 1458SOL    HW1 1314   2.653   0.608   2.850
 1458SOL    HW2 1315   2.566   0.730   2.915
 1462SOL     OW 1316   2.885   0.766   2.828
 1462SOL    HW1 1317   2.900   0.787   2.924
 1462SOL    HW2 1318   2.855   0.671   2.819
 1463SOL     OW 1319   2.842   1.573   3.562
 1463SOL    HW1 1320   2.822   1.617   3.474
 1463SOL    HW2 1321   2.881   1.482   3.546
 1467SOL     OW 1322   3.165   0.838   1.904
 1467SOL    HW1 1323   3.199   0.745   1.919
 1467SOL    HW2 1324   3.183   0.865   1.809
 1468SOL     OW 1325   2.930   1.333   2.711
 1468SOL    HW1 1326   2.937   1.249   2.656
 1468SOL    HW2 1327   2.992   1.402   2.675
 1469SOL     OW 1328   2.181   0.810   2.811
 1469SOL    HW1 1329   2.274   0.846   2.816
 1469SOL    HW2 1330   2.175   0.725   2.863
 1470SOL     OW 1331   2.201   0.509   2.868
 1470SOL    HW1 1332   2.149   0.426   2.851
 1470SOL    HW2 1333   2.278   0.514   2.804
 1473SOL     OW 1334   1.870   1.326   2.062
 1473SOL    HW1 1335   1.777   1.347   2.031
 1473SOL    HW2 1336   1.880   1.227   2.075
 1474SOL     OW 1337   1.950   1.801   2.789
 1474SOL    HW1 1338   1.908   1.715   2.762
 1474SOL    HW2 1339   2.044   1.804   2.755
 1475SOL     OW 1340   2.366   1.568   2.772
 1475SOL    HW1 1341   2.432   1.642   2.781
 1475SOL    HW2 1342   2.410   1.489   2.730
 1480SOL     OW 1343   2.677   0.572   2.187
 1480SOL    HW1 1344   2.684   0.483   2.141
 1480SOL    HW2 1345   2.583   0.606   2.179
 1482SOL     OW 1346   2.114   1.564   3.606
 1482SOL    HW1 1347   2.084   1.621   3.682
 1482SOL    HW2 1348   2.107   1.467   3.632
 1484SOL     OW 1349   2.792   1.678   3.327
 1484SOL    HW1 1350   2.768   1.660   3.232
 1484SOL    HW2 1351   2.822   1.772   3.337
 1485SOL     OW 1352   2.335   0.500   2.053
 1485SOL    HW1 1353   2.396   0.580   2.057
 1485SOL    HW2 1354   2.240   0.531   2.060
 1486SOL     OW 1355   2.021   1.137   3.328
 1486SOL    HW1 1356   2.043   1.076   3.404
 1486SOL    HW2 1357   2.031   1.088   3.242
 1487SOL     OW 1358   3.209   1.059   3.096
 1487SOL    HW1 1359   3.233   0.996   3.022
 1487SOL    HW2 1360   3.119   1.099   3.078
 1488SOL     OW 1361   3.164   0.855   2.171
 1488SOL    HW1 1362   3.078   0.824   2.213
 1488SOL    HW2 1363   3.160   0.841   2.072
 1489SOL     OW 1364   3.621   1.747   3.016
 1489SOL    HW1 1365   3.682   1.777   2.943
 1489SOL    HW2 1366   3.583   1.658   2.994
 1490SOL     OW 1367   3.114   1.731   2.990
 1490SOL    HW1 1368   3.198   1.736   2.936
 1490SOL    HW2 1369   3.091   1.635   3.008
 1491SOL     OW 1370   1.945   1.258   2.884
 1491SOL    HW1 1371   1.940   1.257   2.984
 1491SOL    HW2 1372   1.862   1.217   2.846
 1492SOL     OW 1373   2.550   1.662   3.578
 1492SOL    HW1 1374   2.494   1.743   3.587
 1492SOL    HW2 1375   2.602   1.666   3.492
 1494SOL     OW 1376   3.250   1.573   2.339
 1494SOL    HW1 1377   3.317   1.585   2.265
 1494SOL    HW2 1378   3.210   1.662   2.362
 1495SOL     OW 1379   1.992   1.794   3.713
 1495SOL    HW1 1380   1.951   1.720   3.766
 1495SOL    HW2 1381   2.056   1.845   3.771
 1496SOL     OW 1382   3.142   0.927   2.534
 1496SOL    HW1 1383   3.202   0.846   2.536
 1496SOL    HW2 1384   3.182   0.996   2.474
 1497SOL     OW 1385   2.692   1.273   3.284
 1497SOL    HW1 1386   2.687   1.306   3.379
 1497SOL    HW2 1387   2.606   1.292   3.238
 1498SOL     OW 1388   2.534   1.616   2.016
 1498SOL    HW1 1389   2.543   1.626   1.917
 1498SOL    HW2 1390   2.494   1.527   2.037
 1499SOL     OW 1391   3.512   1.720   3.256
 1499SOL    HW1 1392   3.565   1.730   3.172
 1499SOL    HW2 1393   3.485   1.810   3.290
 1502SOL     OW 1394   3.056   1.612   1.893
 1502SOL    HW1 1395   3.062   1.519   1.930
 1502SOL    HW2 1396   2.997   1.612   1.813
 1503SOL     OW 1397   2.684   1.002   3.234
 1503SOL    HW1 1398   2.724   1.001   3.142
 1503SOL    HW2 1399   2.694   1.094   3.274
 1504SOL     OW 1400   2.778   0.910   2.153
 1504SOL    HW1 1401   2.841   0.948   2.085
 1504SOL    HW2 1402   2.818   0.827   2.192
 1505SOL     OW 1403   3.366   1.607   1.906
 1505SOL    HW1 1404   3.274   1.644   1.913
 1505SOL    HW2 1405   3.404   1.627   1.816
 1506SOL     OW 1406   2.234   1.288   3.352
 1506SOL    HW1 1407   2.221   1.381   3.318
 1506SOL    HW2 1408   2.150   1.236   3.339
 1508SOL     OW 1409   2.901   1.098   2.558
 1508SOL    HW1 1410   2.831   1.051   2.612
 1508SOL    HW2 1411   2.960   1.030   2.515
 1510SOL     OW 1412   2.452   1.487   2.353
 1510SOL    HW1 1413   2.494   1.429   2.283
 1510SOL    HW2 1414   2.408   1.566   2.309
 1512SOL     OW 1415   2.117   1.348   2.152
 1512SOL    HW1 1416   2.021   1.349   2.125
 1512SOL    HW2 1417   2.129   1.401   2.236
 1518SOL     OW 1418   3.045   1.335   1.981
 1518SOL    HW1 1419   2.946   1.324   1.983
 1518SOL    HW2 1420   3.079   1.350   2.074
 1519SOL     OW 1421   2.475   0.842   3.293
 1519SOL    HW1 1422   2.531   0.923   3.276
 1519SOL    HW2 1423   2.534   0.762   3.296
 1520SOL     OW 1424   3.355   1.767   2.821
 1520SOL    HW1 1425   3.388   1.831   2.752
 1520SOL    HW2 1426   3.421   1.761   2.896
 1523SOL     OW 1427   2.252   1.741   3.422
 1523SOL    HW1 1428   2.161   1.782   3.420
 1523SOL    HW2 1429   2.245   1.647   3.454
 1526SOL     OW 1430   2.456   0.745   2.514
 1526SOL    HW1 1431   2.506   0.830   2.495
 1526SOL    HW2 1432   2.368   0.747   2.466
 1529SOL     OW 1433   2.721   1.374   1.878
 1529SOL    HW1 1434   2.675   1.389   1.966
 1529SOL    HW2 1435   2.765   1.459   1.848
 1530SOL     OW 1436   2.523   1.790   2.815
 1530SOL    HW1 1437   2.477   1.878   2.802
 1530SOL    HW2 1438   2.622   1.802   2.808
 1531SOL     OW 1439   2.721   0.956   2.723
 1531SOL    HW1 1440   2.775   0.887   2.771
 1531SOL    HW2 1441   2.689   1.025   2.789
 1532SOL     OW 1442   2.945   0.984   1.949
 1532SOL    HW1 1443   2.922   1.037   1.867
 1532SOL    HW2 1444   3.026   0.928   1.930
 1533SOL     OW 1445   3.723   1.569   2.713
 1533SOL    HW1 1446   3.652   1.557   2.643
 1533SOL    HW2 1447   3.724   1.490   2.773
 1534SOL     OW 1448   2.083   1.314   3.706
 1534SOL    HW1 1449   2.018   1.241   3.685
 1534SOL    HW2 1450   2.087   1.328   3.804
 1535SOL     OW 1451   1.941   1.240   2.515
 1535SOL    HW1 1452   1.940   1.193   2.603
 1535SOL    HW2 1453   2.023   1.212   2.464
 1536SOL     OW 1454   2.534   1.391   3.486
 1536SOL    HW1 1455   2.456   1.341   3.524
 1536SOL    HW2 1456   2.531   1.486   3.517
 1538SOL     OW 1457   2.290   0.424   2.382
 1538SOL    HW1 1458   2.320   0.352   2.320
 1538SOL    HW2 1459   2.251   0.384   2.465
 1539SOL     OW 1460   3.567   1.487   2.966
 1539SOL    HW1 1461   3.474   1.462   2.939
 1539SOL    HW2 1462   3.593   1.437   3.048
 1541SOL     OW 1463   2.674   1.586   2.549
 1541SOL    HW1 1464   2.706   1.596   2.455
 1541SOL    HW2 1465   2.595   1.524   2.551
 1544SOL     OW 1466   2.632   1.330   2.163
 1544SOL    HW1 1467   2.586   1.243   2.180
 1544SOL    HW2 1468   2.723   1.327   2.204
 1545SOL     OW 1469   2.480   1.567   3.146
 1545SOL    HW1 1470   2.475   1.649   3.203
 1545SOL    HW2 1471   2.569   1.564   3.101
 1549SOL     OW 1472   1.901   1.077   2.162
 1549SOL    HW1 1473   2.000   1.066   2.153
 1549SOL    HW2 1474   1.861   0.991   2.194
 1550SOL     OW 1475   2.737   1.646   2.199
 1550SOL    HW1 1476   2.660   1.611   2.145
 1550SOL    HW2 1477   2.705   1.717   2.261
 1557SOL     OW 1478   1.889   1.596   3.841
 1557SOL    HW1 1479   1.870   1.500   3.862
 1557SOL    HW2 1480   1.856   1.654   3.916
 1613SOL     OW 1481   2.087   2.137   0.996
 1613SOL    HW1 1482   2.122   2.120   1.088
 1613SOL    HW2 1483   1.999   2.092   0.984
 1614SOL     OW 1484   1.881   2.230   0.647
 1614SOL    HW1 1485   1.799   2.273   0.686
 1614SOL    HW2 1486   1.853   2.157   0.584
 1615SOL     OW 1487   2.431   3.137   1.165
 1615SOL    HW1 1488   2.338   3.130   1.128
 1615SOL    HW2 1489   2.442   3.226   1.209
 1617SOL     OW 1490   2.997   2.565   0.717
 1617SOL    HW1 1491   3.054   2.643   0.692
 1617SOL    HW2 1492   2.937   2.591   0.793
 1619SOL     OW 1493   2.630   3.006   1.023
 1619SOL    HW1 1494   2.552   3.023   1.083
 1619SOL    HW2 1495   2.664   3.093   0.987
 1620SOL     OW 1496   2.712   2.660   1.823
 1620SOL    HW1 1497   2.708   2.736   1.888
 1620SOL    HW2 1498   2.734   2.696   1.732
 1621SOL     OW 1499   2.547   2.874   0.665
 1621SOL    HW1 1500   2.616   2.858   0.735
 1621SOL    HW2 1501   2.474   2.931   0.703
 1622SOL     OW 1502   2.548   3.023   1.803
 1622SOL    HW1 1503   2.608   3.102   1.817
 1622SOL    HW2 1504   2.462   3.054   1.762
 1623SOL     OW 1505   2.197   3.297   1.061
 1623SOL    HW1 1506   2.119   3.266   1.008
 1623SOL    HW2 1507   2.255   3.355   1.004
 1625SOL     OW 1508   2.300   2.254   1.499
 1625SOL    HW1 1509   2.382   2.198   1.508
 1625SOL    HW2 1510   2.219   2.196   1.503
 1628SOL     OW 1511   2.989   3.203   1.690
 1628SOL    HW1 1512   3.036   3.203   1.778
 1628SOL    HW2 1513   2.941   3.116   1.679
 1630SOL     OW 1514   2.102   2.953   0.886
 1630SOL    HW1 1515   2.116   2.869   0.938
 1630SOL    HW2 1516   2.047   3.017   0.941
 1631SOL     OW 1517   2.482   3.648   1.439
 1631SOL    HW1 1518   2.390   3.631   1.474
 1631SOL    HW2 1519   2.510   3.740   1.465
 1633SOL     OW 1520   3.456   1.976   1.480
 1633SOL    HW1 1521   3.438   2.043   1.408
 1633SOL    HW2 1522   3.453   2.022   1.569
 1634SOL     OW 1523   1.984   2.505   0.563
 1634SOL    HW1 1524   1.939   2.417   0.580
 1634SOL    HW2 1525   1.983   2.559   0.647
 1639SOL     OW 1526   1.975   2.599   1.597
 1639SOL    HW1 1527   2.063   2.586   1.642
 1639SOL    HW2 1528   1.962   2.696   1.575
 1641SOL     OW 1529   3.155   3.090   1.423
 1641SOL    HW1 1530   3.192   3.017   1.365
 1641SOL    HW2 1531   3.207   3.095   1.508
 1642SOL     OW 1532   2.671   1.866   0.502
 1642SOL    HW1 1533   2.711   1.957   0.493
 1642SOL    HW2 1534   2.571   1.874   0.508
 1643SOL     OW 1535   2.059   2.838   1.264
 1643SOL    HW1 1536   2.148   2.793   1.250
 1643SOL    HW2 1537   1.986   2.773   1.245
 1646SOL     OW 1538   2.179   2.113   1.801
 1646SOL    HW1 1539   2.250   2.184   1.807
 1646SOL    HW2 1540   2.091   2.152   1.829
 1650SOL     OW 1541   3.143   2.207   0.944
 1650SOL    HW1 1542   3.057   2.157   0.931
 1650SOL    HW2 1543   3.205   2.153   1.000
 1652SOL     OW 1544   2.669   2.467   1.465
 1652SOL    HW1 1545   2.622   2.464   1.554
 1652SOL    HW2 1546   2.618   2.412   1.399
 1653SOL     OW 1547   3.256   2.331   1.674
 1653SOL    HW1 1548   3.236   2.374   1.762
 1653SOL    HW2 1549   3.334   2.269   1.683
 1654SOL     OW 1550   2.835   2.752   1.572
 1654SOL    HW1 1551   2.881   2.668   1.543
 1654SOL    HW2 1552   2.779   2.786   1.497
 1655SOL     OW 1553   2.853   2.272   1.242
 1655SOL    HW1 1554   2.776   2.306   1.296
 1655SOL    HW2 1555   2.819   2.221   1.163
 1657SOL     OW 1556   1.938   2.673   0.789
 1657SOL    HW1 1557   2.037   2.661   0.798
 1657SOL    HW2 1558   1.914   2.768   0.810
 1658SOL     OW 1559   1.992   3.683   1.571
 1658SOL    HW1 1560   1.982   3.668   1.670
 1658SOL    HW2 1561   1.906   3.719   1.535
 1660SOL     OW 1562   3.581   2.447   1.831
 1660SOL    HW1 1563   3.555   2.536   1.795
 1660SOL    HW2 1564   3.579   2.379   1.758
 1662SOL     OW 1565   2.412   2.058   0.885
 1662SOL    HW1 1566   2.407   2.053   0.985
 1662SOL    HW2 1567   2.414   2.154   0.856
 1666SOL     OW 1568   3.089   3.412   1.506
 1666SOL    HW1 1569   3.095   3.335   1.570
 1666SOL    HW2 1570   3.037   3.386   1.426
 1669SOL     OW 1571   2.323   3.128   1.727
 1669SOL    HW1 1572   2.273   3.129   1.641
 1669SOL    HW2 1573   2.260   3.110   1.803
 1671SOL     OW 1574   2.064   2.147   1.498
 1671SOL    HW1 1575   1.984   2.207   1.485
 1671SOL    HW2 1576   2.054   2.098   1.584
 1675SOL     OW 1577   2.111   3.647   1.241
 1675SOL    HW1 1578   2.168   3.582   1.291
 1675SOL    HW2 1579   2.095   3.614   1.148
 1677SOL     OW 1580   2.244   2.562   0.480
 1677SOL    HW1 1581   2.289   2.472   0.477
 1677SOL    HW2 1582   2.150   2.551   0.513
 1678SOL     OW 1583   3.409   2.084   1.729
 1678SOL    HW1 1584   3.404   2.121   1.821
 1678SOL    HW2 1585   3.337   2.015   1.717
 1680SOL     OW 1586   2.643   2.126   1.749
 1680SOL    HW1 1587   2.710   2.065   1.792
 1680SOL    HW2 1588   2.570   2.145   1.814
 1681SOL     OW 1589   2.750   3.376   1.195
 1681SOL    HW1 1590   2.727   3.351   1.101
 1681SOL    HW2 1591   2.811   3.307   1.234
 1682SOL     OW 1592   3.213   2.452   1.433
 1682SOL    HW1 1593   3.241   2.409   1.518
 1682SOL    HW2 1594   3.238   2.548   1.434
 1683SOL     OW 1595   2.665   3.264   0.924
 1683SOL    HW1 1596   2.755   3.278   0.882
 1683SOL    HW2 1597   2.594   3.266   0.853
 1684SOL     OW 1598   2.784   2.365   0.899
 1684SOL    HW1 1599   2.759   2.356   0.803
 1684SOL    HW2 1600   2.832   2.283   0.930
 1685SOL     OW 1601   2.401   1.926   0.512
 1685SOL    HW1 1602   2.320   1.927   0.570
 1685SOL    HW2 1603   2.404   2.009   0.457
 1688SOL     OW 1604   2.797   2.098   0.480
 1688SOL    HW1 1605   2.749   2.139   0.402
 1688SOL    HW2 1606   2.896   2.096   0.461
 1689SOL     OW 1607   2.938   2.545   1.464
 1689SOL    HW1 1608   2.858   2.484   1.467
 1689SOL    HW2 1609   3.019   2.492   1.440
 1691SOL     OW 1610   2.321   3.014   0.741
 1691SOL    HW1 1611   2.250   2.987   0.806
 1691SOL    HW2 1612   2.295   2.986   0.648
 1694SOL     OW 1613   1.940   2.418   1.386
 1694SOL    HW1 1614   2.032   2.417   1.345
 1694SOL    HW2 1615   1.934   2.492   1.453
 1695SOL     OW 1616   2.423   2.084   1.147
 1695SOL    HW1 1617   2.461   2.000   1.184
 1695SOL    HW2 1618   2.335   2.103   1.191
 1696SOL     OW 1619   2.728   2.316   0.642
 1696SOL    HW1 1620   2.696   2.388   0.580
 1696SOL    HW2 1621   2.752   2.235   0.589
 1697SOL     OW 1622   2.879   1.901   0.753
 1697SOL    HW1 1623   2.807   1.906   0.684
 1697SOL    HW2 1624   2.855   1.832   0.822
 1699SOL     OW 1625   3.328   2.452   0.992
 1699SOL    HW1 1626   3.298   2.357   0.999
 1699SOL    HW2 1627   3.401   2.468   1.058
 1706SOL     OW 1628   2.926   3.209   1.340
 1706SOL    HW1 1629   2.846   3.186   1.395
 1706SOL    HW2 1630   3.009   3.183   1.389
 1708SOL     OW 1631   2.973   3.057   1.100
 1708SOL    HW1 1632   2.933   3.101   1.181
 1708SOL    HW2 1633   2.932   3.094   1.017
 1710SOL     OW 1634   2.777   1.951   1.402
 1710SOL    HW1 1635   2.802   1.931   1.307
 1710SOL    HW2 1636   2.849   2.007   1.444
 1711SOL     OW 1637   2.842   2.978   1.719
 1711SOL    HW1 1638   2.743   2.984   1.729
 1711SOL    HW2 1639   2.865   2.898   1.663
 1713SOL     OW 1640   2.272   2.675   1.251
 1713SOL    HW1 1641   2.358   2.687   1.301
 1713SOL    HW2 1642   2.230   2.588   1.278
 1714SOL     OW 1643   3.136   2.248   1.262
 1714SOL    HW1 1644   3.157   2.322   1.326
 1714SOL    HW2 1645   3.047   2.265   1.219
 1715SOL     OW 1646   1.926   3.426   1.331
 1715SOL    HW1 1647   1.880   3.508   1.297
 1715SOL    HW2 1648   2.024   3.445   1.340
 1717SOL     OW 1649   2.428   2.399   0.865
 1717SOL    HW1 1650   2.440   2.465   0.791
 1717SOL    HW2 1651   2.474   2.433   0.948
 1721SOL     OW 1652   2.216   3.372   1.329
 1721SOL    HW1 1653   2.195   3.328   1.242
 1721SOL    HW2 1654   2.313   3.398   1.332
 1722SOL     OW 1655   2.264   2.613   1.598
 1722SOL    HW1 1656   2.332   2.668   1.551
 1722SOL    HW2 1657   2.304   2.525   1.625
 1723SOL     OW 1658   3.449   2.641   1.670
 1723SOL    HW1 1659   3.357   2.679   1.665
 1723SOL    HW2 1660   3.509   2.688   1.605
 1724SOL     OW 1661   2.875   1.967   1.770
 1724SOL    HW1 1662   2.881   2.052   1.718
 1724SOL    HW2 1663   2.907   1.891   1.713
 1725SOL     OW 1664   2.366   1.912   1.740
 1725SOL    HW1 1665   2.324   1.855   1.670
 1725SOL    HW2 1666   2.300   1.981   1.772
 1726SOL     OW 1667   2.435   2.732   1.029
 1726SOL    HW1 1668   2.479   2.821   1.020
 1726SOL    HW2 1669   2.372   2.732   1.106
 1727SOL     OW 1670   3.222   2.724   1.045
 1727SOL    HW1 1671   3.147   2.724   0.979
 1727SOL    HW2 1672   3.259   2.632   1.054
 1729SOL     OW 1673   2.169   2.075   1.231
 1729SOL    HW1 1674   2.146   2.112   1.321
 1729SOL    HW2 1675   2.139   1.980   1.225
 1730SOL     OW 1676   1.899   3.172   1.282
 1730SOL    HW1 1677   1.952   3.123   1.350
 1730SOL    HW2 1678   1.921   3.270   1.287
 1731SOL     OW 1679   2.594   2.496   1.064
 1731SOL    HW1 1680   2.653   2.470   0.988
 1731SOL    HW2 1681   2.566   2.592   1.053
 1732SOL     OW 1682   3.590   2.797   1.854
 1732SOL    HW1 1683   3.544   2.790   1.765
 1732SOL    HW2 1684   3.528   2.841   1.920
 1733SOL     OW 1685   2.169   1.925   0.618
 1733SOL    HW1 1686   2.158   2.019   0.651
 1733SOL    HW2 1687   2.164   1.862   0.695
 1735SOL     OW 1688   2.885   2.628   0.966
 1735SOL    HW1 1689   2.900   2.649   1.062
 1735SOL    HW2 1690   2.855   2.533   0.957
 1736SOL     OW 1691   2.842   3.435   1.700
 1736SOL    HW1 1692   2.822   3.479   1.612
 1736SOL    HW2 1693   2.881   3.344   1.684
 1738SOL     OW 1694   2.212   2.760   1.804
 1738SOL    HW1 1695   2.288   2.804   1.852
 1738SOL    HW2 1696   2.247   2.713   1.722
 1742SOL     OW 1697   2.181   2.672   0.949
 1742SOL    HW1 1698   2.274   2.708   0.954
 1742SOL    HW2 1699   2.175   2.587   1.001
 1743SOL     OW 1700   2.201   2.371   1.006
 1743SOL    HW1 1701   2.149   2.288   0.989
 1743SOL    HW2 1702   2.278   2.376   0.942
 1744SOL     OW 1703   3.000   2.242   1.678
 1744SOL    HW1 1704   2.955   2.305   1.742
 1744SOL    HW2 1705   3.093   2.273   1.661
 1745SOL     OW 1706   3.022   2.069   1.477
 1745SOL    HW1 1707   3.022   2.133   1.554
 1745SOL    HW2 1708   3.050   2.117   1.394
 1748SOL     OW 1709   2.366   3.430   0.910
 1748SOL    HW1 1710   2.432   3.504   0.919
 1748SOL    HW2 1711   2.410   3.351   0.868
 1749SOL     OW 1712   2.864   2.658   1.238
 1749SOL    HW1 1713   2.905   2.626   1.324
 1749SOL    HW2 1714   2.768   2.631   1.235
 1750SOL     OW 1715   1.902   2.406   1.114
 1750SOL    HW1 1716   1.987   2.373   1.073
 1750SOL    HW2 1717   1.915   2.421   1.212
 1751SOL     OW 1718   2.051   2.382   1.722
 1751SOL    HW1 1719   2.110   2.342   1.652
 1751SOL    HW2 1720   1.993   2.453   1.681
 1752SOL     OW 1721   3.231   2.812   1.660
 1752SOL    HW1 1722   3.270   2.901   1.680
 1752SOL    HW2 1723   3.241   2.792   1.563
 1754SOL     OW 1724   3.519   2.466   1.206
 1754SOL    HW1 1725   3.481   2.397   1.268
 1754SOL    HW2 1726   3.601   2.430   1.162
 1755SOL     OW 1727   2.114   3.426   1.744
 1755SOL    HW1 1728   2.084   3.483   1.820
 1755SOL    HW2 1729   2.107   3.329   1.770
 1756SOL     OW 1730   2.533   2.326   1.269
 1756SOL    HW1 1731   2.499   2.237   1.239
 1756SOL    HW2 1732   2.559   2.380   1.189
 1757SOL     OW 1733   2.792   3.540   1.465
 1757SOL    HW1 1734   2.768   3.522   1.370
 1757SOL    HW2 1735   2.822   3.634   1.475
 1759SOL     OW 1736   2.021   2.999   1.466
 1759SOL    HW1 1737   2.043   2.938   1.542
 1759SOL    HW2 1738   2.031   2.950   1.380
 1760SOL     OW 1739   3.209   2.921   1.234
 1760SOL    HW1 1740   3.233   2.858   1.160
 1760SOL    HW2 1741   3.119   2.961   1.216
 1764SOL     OW 1742   1.945   3.120   1.022
 1764SOL    HW1 1743   1.940   3.119   1.122
 1764SOL    HW2 1744   1.862   3.079   0.984
 1765SOL     OW 1745   2.550   3.524   1.716
 1765SOL    HW1 1746   2.494   3.605   1.725
 1765SOL    HW2 1747   2.602   3.528   1.630
 1769SOL     OW 1748   1.992   3.656   1.851
 1769SOL    HW1 1749   1.951   3.582   1.904
 1769SOL    HW2 1750   2.056   3.707   1.909
 1771SOL     OW 1751   2.692   3.135   1.422
 1771SOL    HW1 1752   2.687   3.168   1.517
 1771SOL    HW2 1753   2.606   3.154   1.376
 1775SOL     OW 1754   2.125   2.188   0.720
 1775SOL    HW1 1755   2.046   2.239   0.686
 1775SOL    HW2 1756   2.116   2.173   0.818
 1777SOL     OW 1757   2.684   2.864   1.372
 1777SOL    HW1 1758   2.724   2.863   1.280
 1777SOL    HW2 1759   2.694   2.956   1.412
 1780SOL     OW 1760   2.234   3.150   1.490
 1780SOL    HW1 1761   2.221   3.243   1.456
 1780SOL    HW2 1762   2.150   3.098   1.477
 1783SOL     OW 1763   2.876   2.098   0.971
 1783SOL    HW1 1764   2.868   2.062   0.878
 1783SOL    HW2 1765   2.874   2.022   1.036
 1785SOL     OW 1766   3.571   2.247   1.381
 1785SOL    HW1 1767   3.644   2.316   1.385
 1785SOL    HW2 1768   3.599   2.172   1.322
 1787SOL     OW 1769   1.967   2.875   1.726
 1787SOL    HW1 1770   1.890   2.842   1.780
 1787SOL    HW2 1771   2.052   2.845   1.768
 1788SOL     OW 1772   2.534   2.065   1.489
 1788SOL    HW1 1773   2.624   2.049   1.449
 1788SOL    HW2 1774   2.542   2.070   1.588
 1790SOL     OW 1775   3.302   2.718   1.398
 1790SOL    HW1 1776   3.245   2.770   1.335
 1790SOL    HW2 1777   3.398   2.730   1.374
 1793SOL     OW 1778   2.475   2.704   1.431
 1793SOL    HW1 1779   2.531   2.785   1.414
 1793SOL    HW2 1780   2.534   2.624   1.434
 1795SOL     OW 1781   2.578   2.427   1.708
 1795SOL    HW1 1782   2.597   2.492   1.782
 1795SOL    HW2 1783   2.638   2.347   1.717
 1796SOL     OW 1784   3.312   3.082   1.633
 1796SOL    HW1 1785   3.303   3.072   1.732
 1796SOL    HW2 1786   3.408   3.075   1.607
 1797SOL     OW 1787   2.252   3.603   1.560
 1797SOL    HW1 1788   2.161   3.644   1.558
 1797SOL    HW2 1789   2.245   3.509   1.592
 1798SOL     OW 1790   3.536   2.745   1.254
 1798SOL    HW1 1791   3.509   2.656   1.217
 1798SOL    HW2 1792   3.537   2.813   1.181
 1800SOL     OW 1793   2.456   2.607   0.652
 1800SOL    HW1 1794   2.506   2.692   0.633
 1800SOL    HW2 1795   2.368   2.609   0.604
 1801SOL     OW 1796   3.639   2.204   1.642
 1801SOL    HW1 1797   3.622   2.235   1.548
 1801SOL    HW2 1798   3.555   2.167   1.680
 1802SOL     OW 1799   3.592   2.796   1.517
 1802SOL    HW1 1800   3.630   2.887   1.532
 1802SOL    HW2 1801   3.584   2.779   1.418
 1805SOL     OW 1802   2.721   2.818   0.861
 1805SOL    HW1 1803   2.775   2.749   0.909
 1805SOL    HW2 1804   2.689   2.887   0.927
 1808SOL     OW 1805   2.083   3.176   1.844
 1808SOL    HW1 1806   2.018   3.103   1.823
 1808SOL    HW2 1807   2.087   3.190   1.942
 1809SOL     OW 1808   1.941   3.102   0.653
 1809SOL    HW1 1809   1.940   3.055   0.741
 1809SOL    HW2 1810   2.023   3.074   0.602
 1810SOL     OW 1811   2.534   3.253   1.624
 1810SOL    HW1 1812   2.456   3.203   1.662
 1810SOL    HW2 1813   2.531   3.348   1.655
 1811SOL     OW 1814   3.686   2.054   1.227
 1811SOL    HW1 1815   3.682   1.964   1.271
 1811SOL    HW2 1816   3.689   2.043   1.128
 1812SOL     OW 1817   2.290   2.286   0.520
 1812SOL    HW1 1818   2.320   2.214   0.458
 1812SOL    HW2 1819   2.251   2.246   0.603
 1814SOL     OW 1820   2.179   2.409   1.280
 1814SOL    HW1 1821   2.217   2.350   1.352
 1814SOL    HW2 1822   2.219   2.383   1.192
 1816SOL     OW 1823   3.286   2.076   1.112
 1816SOL    HW1 1824   3.338   2.011   1.167
 1816SOL    HW2 1825   3.237   2.139   1.173
 1817SOL     OW 1826   2.863   1.896   1.154
 1817SOL    HW1 1827   2.800   1.824   1.123
 1817SOL    HW2 1828   2.956   1.860   1.154
 1819SOL     OW 1829   2.480   3.429   1.284
 1819SOL    HW1 1830   2.475   3.511   1.341
 1819SOL    HW2 1831   2.569   3.426   1.239
 1821SOL     OW 1832   3.162   2.315   0.691
 1821SOL    HW1 1833   3.103   2.395   0.695
 1821SOL    HW2 1834   3.177   2.280   0.784
 1825SOL     OW 1835   2.092   2.490   1.975
 1825SOL    HW1 1836   1.999   2.488   2.012
 1825SOL    HW2 1837   2.093   2.451   1.883
 1826SOL     OW 1838   2.087   2.137   2.858
 1826SOL    HW1 1839   2.122   2.120   2.950
 1826SOL    HW2 1840   1.999   2.092   2.846
 1827SOL     OW 1841   1.881   2.230   2.509
 1827SOL    HW1 1842   1.799   2.273   2.548
 1827SOL    HW2 1843   1.853   2.157   2.446
 1828SOL     OW 1844   2.431   3.137   3.027
 1828SOL    HW1 1845   2.338   3.130   2.990
 1828SOL    HW2 1846   2.442   3.226   3.071
 1829SOL     OW 1847   3.417   3.373   2.565
 1829SOL    HW1 1848   3.360   3.357   2.646
 1829SOL    HW2 1849   3.358   3.383   2.485
 1830SOL     OW 1850   2.997   2.565   2.579
 1830SOL    HW1 1851   3.054   2.643   2.554
 1830SOL    HW2 1852   2.937   2.591   2.655
 1831SOL     OW 1853   3.617   2.469   2.093
 1831SOL    HW1 1854   3.605   2.456   1.994
 1831SOL    HW2 1855   3.587   2.388   2.142
 1832SOL     OW 1856   2.630   3.006   2.885
 1832SOL    HW1 1857   2.552   3.023   2.945
 1832SOL    HW2 1858   2.664   3.093   2.849
 1833SOL     OW 1859   2.712   2.660   3.685
 1833SOL    HW1 1860   2.708   2.736   3.750
 1833SOL    HW2 1861   2.734   2.696   3.594
 1834SOL     OW 1862   2.547   2.874   2.527
 1834SOL    HW1 1863   2.616   2.858   2.597
 1834SOL    HW2 1864   2.474   2.931   2.565
 1835SOL     OW 1865   2.548   3.023   3.665
 1835SOL    HW1 1866   2.608   3.102   3.679
 1835SOL    HW2 1867   2.462   3.054   3.624
 1836SOL     OW 1868   2.197   3.297   2.923
 1836SOL    HW1 1869   2.119   3.266   2.870
 1836SOL    HW2 1870   2.255   3.355   2.866
 1838SOL     OW 1871   2.300   2.254   3.361
 1838SOL    HW1 1872   2.382   2.198   3.370
 1838SOL    HW2 1873   2.219   2.196   3.365
 1839SOL     OW 1874   3.465   2.309   2.599
 1839SOL    HW1 1875   3.391   2.355   2.549
 1839SOL    HW2 1876   3.516   2.377   2.652
 1840SOL     OW 1877   2.093   3.575   2.345
 1840SOL    HW1 1878   2.127   3.652   2.399
 1840SOL    HW2 1879   2.137   3.575   2.255
 1842SOL     OW 1880   2.092   3.296   2.400
 1842SOL    HW1 1881   2.066   3.392   2.400
 1842SOL    HW2 1882   2.021   3.242   2.445
 1843SOL     OW 1883   2.102   2.953   2.748
 1843SOL    HW1 1884   2.116   2.869   2.800
 1843SOL    HW2 1885   2.047   3.017   2.803
 1845SOL     OW 1886   2.468   2.826   1.985
 1845SOL    HW1 1887   2.475   2.910   1.931
 1845SOL    HW2 1888   2.514   2.839   2.073
 1846SOL     OW 1889   3.456   1.976   3.342
 1846SOL    HW1 1890   3.438   2.043   3.270
 1846SOL    HW2 1891   3.453   2.022   3.431
 1847SOL     OW 1892   1.984   2.505   2.425
 1847SOL    HW1 1893   1.939   2.417   2.442
 1847SOL    HW2 1894   1.983   2.559   2.509
 1849SOL     OW 1895   1.889   3.458   1.979
 1849SOL    HW1 1896   1.870   3.362   2.000
 1849SOL    HW2 1897   1.856   3.516   2.054
 1850SOL     OW 1898   3.551   2.784   2.474
 1850SOL    HW1 1899   3.646   2.755   2.482
 1850SOL    HW2 1900   3.543   2.849   2.399
 1851SOL     OW 1901   3.503   2.970   2.294
 1851SOL    HW1 1902   3.589   2.972   2.242
 1851SOL    HW2 1903   3.517   3.017   2.382
 1852SOL     OW 1904   1.975   2.599   3.459
 1852SOL    HW1 1905   2.063   2.586   3.504
 1852SOL    HW2 1906   1.962   2.696   3.437
 1853SOL     OW 1907   2.475   3.227   2.588
 1853SOL    HW1 1908   2.426   3.140   2.597
 1853SOL    HW2 1909   2.452   3.270   2.501
 1854SOL     OW 1910   3.155   3.090   3.285
 1854SOL    HW1 1911   3.192   3.017   3.227
 1854SOL    HW2 1912   3.207   3.095   3.370
 1855SOL     OW 1913   2.671   1.866   2.364
 1855SOL    HW1 1914   2.711   1.957   2.355
 1855SOL    HW2 1915   2.571   1.874   2.370
 1856SOL     OW 1916   2.059   2.838   3.126
 1856SOL    HW1 1917   2.148   2.793   3.112
 1856SOL    HW2 1918   1.986   2.773   3.107
 1857SOL     OW 1919   3.387   2.861   2.052
 1857SOL    HW1 1920   3.324   2.785   2.065
 1857SOL    HW2 1921   3.435   2.879   2.138
 1859SOL     OW 1922   2.179   2.113   3.663
 1859SOL    HW1 1923   2.250   2.184   3.669
 1859SOL    HW2 1924   2.091   2.152   3.691
 1860SOL     OW 1925   3.328   3.279   2.815
 1860SOL    HW1 1926   3.269   3.285   2.895
 1860SOL    HW2 1927   3.313   3.191   2.769
 1862SOL     OW 1928   2.460   2.591   2.132
 1862SOL    HW1 1929   2.484   2.660   2.064
 1862SOL    HW2 1930   2.382   2.624   2.186
 1863SOL     OW 1931   3.143   2.207   2.806
 1863SOL    HW1 1932   3.057   2.157   2.793
 1863SOL    HW2 1933   3.205   2.153   2.862
 1865SOL     OW 1934   2.669   2.467   3.327
 1865SOL    HW1 1935   2.622   2.464   3.416
 1865SOL    HW2 1936   2.618   2.412   3.261
 1866SOL     OW 1937   3.256   2.331   3.536
 1866SOL    HW1 1938   3.236   2.374   3.624
 1866SOL    HW2 1939   3.334   2.269   3.545
 1867SOL     OW 1940   2.835   2.752   3.434
 1867SOL    HW1 1941   2.881   2.668   3.405
 1867SOL    HW2 1942   2.779   2.786   3.359
 1868SOL     OW 1943   2.853   2.272   3.104
 1868SOL    HW1 1944   2.776   2.306   3.158
 1868SOL    HW2 1945   2.819   2.221   3.025
 1869SOL     OW 1946   2.903   2.563   2.291
 1869SOL    HW1 1947   2.929   2.559   2.387
 1869SOL    HW2 1948   2.818   2.512   2.277
 1870SOL     OW 1949   1.938   2.673   2.651
 1870SOL    HW1 1950   2.037   2.661   2.660
 1870SOL    HW2 1951   1.914   2.768   2.672
 1872SOL     OW 1952   2.727   2.210   2.057
 1872SOL    HW1 1953   2.786   2.273   2.008
 1872SOL    HW2 1954   2.746   2.116   2.028
 1874SOL     OW 1955   3.224   3.006   2.407
 1874SOL    HW1 1956   3.307   2.977   2.359
 1874SOL    HW2 1957   3.175   3.073   2.351
 1875SOL     OW 1958   2.412   2.058   2.747
 1875SOL    HW1 1959   2.407   2.053   2.847
 1875SOL    HW2 1960   2.414   2.154   2.718
 1876SOL     OW 1961   2.870   3.318   2.339
 1876SOL    HW1 1962   2.824   3.390   2.287
 1876SOL    HW2 1963   2.866   3.338   2.437
 1877SOL     OW 1964   2.213   3.663   2.715
 1877SOL    HW1 1965   2.263   3.577   2.721
 1877SOL    HW2 1966   2.278   3.740   2.712
 1878SOL     OW 1967   3.657   2.928   2.735
 1878SOL    HW1 1968   3.595   2.913   2.659
 1878SOL    HW2 1969   3.605   2.939   2.820
 1880SOL     OW 1970   2.183   2.805   2.104
 1880SOL    HW1 1971   2.265   2.844   2.062
 1880SOL    HW2 1972   2.156   2.723   2.055
 1881SOL     OW 1973   3.320   2.597   2.590
 1881SOL    HW1 1974   3.315   2.532   2.665
 1881SOL    HW2 1975   3.400   2.656   2.603
 1882SOL     OW 1976   2.323   3.128   3.589
 1882SOL    HW1 1977   2.273   3.129   3.503
 1882SOL    HW2 1978   2.260   3.110   3.665
 1883SOL     OW 1979   2.973   3.638   2.099
 1883SOL    HW1 1980   2.913   3.576   2.149
 1883SOL    HW2 1981   3.004   3.594   2.014
 1884SOL     OW 1982   2.064   2.147   3.360
 1884SOL    HW1 1983   1.984   2.207   3.347
 1884SOL    HW2 1984   2.054   2.098   3.446
 1885SOL     OW 1985   3.494   3.239   1.943
 1885SOL    HW1 1986   3.462   3.333   1.933
 1885SOL    HW2 1987   3.418   3.176   1.931
 1886SOL     OW 1988   2.326   3.605   2.185
 1886SOL    HW1 1989   2.359   3.644   2.271
 1886SOL    HW2 1990   2.402   3.598   2.120
 1887SOL     OW 1991   3.262   1.969   2.288
 1887SOL    HW1 1992   3.238   1.932   2.198
 1887SOL    HW2 1993   3.361   1.985   2.292
 1888SOL     OW 1994   2.111   3.647   3.103
 1888SOL    HW1 1995   2.168   3.582   3.153
 1888SOL    HW2 1996   2.095   3.614   3.010
 1889SOL     OW 1997   2.802   3.560   2.766
 1889SOL    HW1 1998   2.882   3.503   2.787
 1889SOL    HW2 1999   2.753   3.520   2.689
 1890SOL     OW 2000   2.244   2.562   2.342
 1890SOL    HW1 2001   2.289   2.472   2.339
 1890SOL    HW2 2002   2.150   2.551   2.375
 1892SOL     OW 2003   2.476   1.984   1.979
 1892SOL    HW1 2004   2.574   1.962   1.986
 1892SOL    HW2 2005   2.445   1.967   1.886
 1893SOL     OW 2006   2.643   2.126   3.611
 1893SOL    HW1 2007   2.710   2.065   3.654
 1893SOL    HW2 2008   2.570   2.145   3.676
 1894SOL     OW 2009   2.750   3.376   3.057
 1894SOL    HW1 2010   2.727   3.351   2.963
 1894SOL    HW2 2011   2.811   3.307   3.096
 1895SOL     OW 2012   3.213   2.452   3.295
 1895SOL    HW1 2013   3.241   2.409   3.380
 1895SOL    HW2 2014   3.238   2.548   3.296
 1896SOL     OW 2015   2.665   3.264   2.786
 1896SOL    HW1 2016   2.755   3.278   2.744
 1896SOL    HW2 2017   2.594   3.266   2.715
 1897SOL     OW 2018   2.784   2.365   2.761
 1897SOL    HW1 2019   2.759   2.356   2.665
 1897SOL    HW2 2020   2.832   2.283   2.792
 1898SOL     OW 2021   2.401   1.926   2.374
 1898SOL    HW1 2022   2.320   1.927   2.432
 1898SOL    HW2 2023   2.404   2.009   2.319
 1899SOL     OW 2024   3.296   3.050   1.903
 1899SOL    HW1 2025   3.328   2.974   1.960
 1899SOL    HW2 2026   3.204   3.077   1.933
 1900SOL     OW 2027   2.159   1.897   2.033
 1900SOL    HW1 2028   2.208   1.981   2.012
 1900SOL    HW2 2029   2.221   1.832   2.078
 1901SOL     OW 2030   2.797   2.098   2.342
 1901SOL    HW1 2031   2.749   2.139   2.264
 1901SOL    HW2 2032   2.896   2.096   2.323
 1902SOL     OW 2033   2.938   2.545   3.326
 1902SOL    HW1 2034   2.858   2.484   3.329
 1902SOL    HW2 2035   3.019   2.492   3.302
 1903SOL     OW 2036   3.089   3.432   2.655
 1903SOL    HW1 2037   3.110   3.506   2.590
 1903SOL    HW2 2038   3.157   3.432   2.728
 1904SOL     OW 2039   2.321   3.014   2.603
 1904SOL    HW1 2040   2.250   2.987   2.668
 1904SOL    HW2 2041   2.295   2.986   2.510
 1906SOL     OW 2042   2.894   2.411   1.878
 1906SOL    HW1 2043   2.853   2.493   1.839
 1906SOL    HW2 2044   2.958   2.437   1.951
 1907SOL     OW 2045   1.940   2.418   3.248
 1907SOL    HW1 2046   2.032   2.417   3.207
 1907SOL    HW2 2047   1.934   2.492   3.315
 1908SOL     OW 2048   2.423   2.084   3.009
 1908SOL    HW1 2049   2.461   2.000   3.046
 1908SOL    HW2 2050   2.335   2.103   3.053
 1909SOL     OW 2051   2.728   2.316   2.504
 1909SOL    HW1 2052   2.696   2.388   2.442
 1909SOL    HW2 2053   2.752   2.235   2.451
 1910SOL     OW 2054   2.879   1.901   2.615
 1910SOL    HW1 2055   2.807   1.906   2.546
 1910SOL    HW2 2056   2.855   1.832   2.684
 1911SOL     OW 2057   3.291   3.035   2.729
 1911SOL    HW1 2058   3.236   2.951   2.722
 1911SOL    HW2 2059   3.317   3.064   2.637
 1912SOL     OW 2060   3.328   2.452   2.854
 1912SOL    HW1 2061   3.298   2.357   2.861
 1912SOL    HW2 2062   3.401   2.468   2.920
 1913SOL     OW 2063   3.719   2.695   2.239
 1913SOL    HW1 2064   3.761   2.631   2.303
 1913SOL    HW2 2065   3.681   2.644   2.161
 1914SOL     OW 2066   2.350   3.247   2.036
 1914SOL    HW1 2067   2.263   3.232   2.083
 1914SOL    HW2 2068   2.333   3.273   1.941
 1915SOL     OW 2069   3.526   3.142   2.519
 1915SOL    HW1 2070   3.625   3.150   2.533
 1915SOL    HW2 2071   3.481   3.226   2.550
 1916SOL     OW 2072   3.252   2.437   1.940
 1916SOL    HW1 2073   3.198   2.416   2.021
 1916SOL    HW2 2074   3.343   2.396   1.949
 1918SOL     OW 2075   2.926   3.209   3.202
 1918SOL    HW1 2076   2.846   3.186   3.257
 1918SOL    HW2 2077   3.009   3.183   3.251
 1920SOL     OW 2078   2.973   3.057   2.962
 1920SOL    HW1 2079   2.933   3.101   3.043
 1920SOL    HW2 2080   2.932   3.094   2.879
 1921SOL     OW 2081   3.500   2.961   2.941
 1921SOL    HW1 2082   3.505   3.042   3.000
 1921SOL    HW2 2083   3.414   2.963   2.890
 1922SOL     OW 2084   2.777   1.951   3.264
 1922SOL    HW1 2085   2.802   1.931   3.169
 1922SOL    HW2 2086   2.849   2.007   3.306
 1923SOL     OW 2087   2.842   2.978   3.581
 1923SOL    HW1 2088   2.743   2.984   3.591
 1923SOL    HW2 2089   2.865   2.898   3.525
 1924SOL     OW 2090   2.567   2.912   2.230
 1924SOL    HW1 2091   2.553   2.919   2.329
 1924SOL    HW2 2092   2.651   2.861   2.212
 1925SOL     OW 2093   2.272   2.675   3.113
 1925SOL    HW1 2094   2.358   2.687   3.163
 1925SOL    HW2 2095   2.230   2.588   3.140
 1926SOL     OW 2096   3.136   2.248   3.124
 1926SOL    HW1 2097   3.157   2.322   3.188
 1926SOL    HW2 2098   3.047   2.265   3.081
 1927SOL     OW 2099   1.926   3.426   3.193
 1927SOL    HW1 2100   1.880   3.508   3.159
 1927SOL    HW2 2101   2.024   3.445   3.202
 1928SOL     OW 2102   2.229   2.962   2.363
 1928SOL    HW1 2103   2.222   3.045   2.307
 1928SOL    HW2 2104   2.233   2.882   2.303
 1929SOL     OW 2105   2.428   2.399   2.727
 1929SOL    HW1 2106   2.440   2.465   2.653
 1929SOL    HW2 2107   2.474   2.433   2.810
 1930SOL     OW 2108   3.114   3.210   2.250
 1930SOL    HW1 2109   3.164   3.287   2.290
 1930SOL    HW2 2110   3.019   3.212   2.282
 1931SOL     OW 2111   3.134   3.307   3.004
 1931SOL    HW1 2112   3.181   3.320   3.091
 1931SOL    HW2 2113   3.068   3.233   3.013
 1932SOL     OW 2114   3.444   2.501   2.334
 1932SOL    HW1 2115   3.413   2.562   2.407
 1932SOL    HW2 2116   3.494   2.553   2.265
 1933SOL     OW 2117   2.216   3.372   3.191
 1933SOL    HW1 2118   2.195   3.328   3.104
 1933SOL    HW2 2119   2.313   3.398   3.194
 1934SOL     OW 2120   2.264   2.613   3.460
 1934SOL    HW1 2121   2.332   2.668   3.413
 1934SOL    HW2 2122   2.304   2.525   3.487
 1936SOL     OW 2123   2.875   1.967   3.632
 1936SOL    HW1 2124   2.881   2.052   3.580
 1936SOL    HW2 2125   2.907   1.891   3.575
 1937SOL     OW 2126   2.366   1.912   3.602
 1937SOL    HW1 2127   2.324   1.855   3.532
 1937SOL    HW2 2128   2.300   1.981   3.634
 1938SOL     OW 2129   2.435   2.732   2.891
 1938SOL    HW1 2130   2.479   2.821   2.882
 1938SOL    HW2 2131   2.372   2.732   2.968
 1939SOL     OW 2132   3.222   2.724   2.907
 1939SOL    HW1 2133   3.147   2.724   2.841
 1939SOL    HW2 2134   3.259   2.632   2.916
 1940SOL     OW 2135   3.071   2.387   2.137
 1940SOL    HW1 2136   3.084   2.303   2.191
 1940SOL    HW2 2137   3.042   2.461   2.197
 1941SOL     OW 2138   2.169   2.075   3.093
 1941SOL    HW1 2139   2.146   2.112   3.183
 1941SOL    HW2 2140   2.139   1.980   3.087
 1942SOL     OW 2141   1.899   3.172   3.144
 1942SOL    HW1 2142   1.952   3.123   3.212
 1942SOL    HW2 2143   1.921   3.270   3.149
 1943SOL     OW 2144   2.594   2.496   2.926
 1943SOL    HW1 2145   2.653   2.470   2.850
 1943SOL    HW2 2146   2.566   2.592   2.915
 1945SOL     OW 2147   2.169   1.925   2.480
 1945SOL    HW1 2148   2.158   2.019   2.513
 1945SOL    HW2 2149   2.164   1.862   2.557
 1946SOL     OW 2150   3.484   2.229   2.236
 1946SOL    HW1 2151   3.486   2.153   2.300
 1946SOL    HW2 2152   3.436   2.306   2.276
 1947SOL     OW 2153   2.885   2.628   2.828
 1947SOL    HW1 2154   2.900   2.649   2.924
 1947SOL    HW2 2155   2.855   2.533   2.819
 1950SOL     OW 2156   2.212   2.760   3.666
 1950SOL    HW1 2157   2.288   2.804   3.714
 1950SOL    HW2 2158   2.247   2.713   3.584
 1951SOL     OW 2159   3.402   2.136   1.987
 1951SOL    HW1 2160   3.341   2.061   2.010
 1951SOL    HW2 2161   3.424   2.188   2.070
 1952SOL     OW 2162   3.165   2.700   1.904
 1952SOL    HW1 2163   3.199   2.607   1.919
 1952SOL    HW2 2164   3.183   2.727   1.809
 1953SOL     OW 2165   2.930   3.195   2.711
 1953SOL    HW1 2166   2.937   3.111   2.656
 1953SOL    HW2 2167   2.992   3.264   2.675
 1954SOL     OW 2168   2.181   2.672   2.811
 1954SOL    HW1 2169   2.274   2.708   2.816
 1954SOL    HW2 2170   2.175   2.587   2.863
 1955SOL     OW 2171   2.201   2.371   2.868
 1955SOL    HW1 2172   2.149   2.288   2.851
 1955SOL    HW2 2173   2.278   2.376   2.804
 1956SOL     OW 2174   3.000   2.242   3.540
 1956SOL    HW1 2175   2.955   2.305   3.604
 1956SOL    HW2 2176   3.093   2.273   3.523
 1957SOL     OW 2177   3.022   2.069   3.339
 1957SOL    HW1 2178   3.022   2.133   3.416
 1957SOL    HW2 2179   3.050   2.117   3.256
 1958SOL     OW 2180   1.870   3.188   2.062
 1958SOL    HW1 2181   1.777   3.209   2.031
 1958SOL    HW2 2182   1.880   3.089   2.075
 1959SOL     OW 2183   1.950   3.663   2.789
 1959SOL    HW1 2184   1.908   3.577   2.762
 1959SOL    HW2 2185   2.044   3.666   2.755
 1960SOL     OW 2186   2.366   3.430   2.772
 1960SOL    HW1 2187   2.432   3.504   2.781
 1960SOL    HW2 2188   2.410   3.351   2.730
 1961SOL     OW 2189   2.864   2.658   3.100
 1961SOL    HW1 2190   2.905   2.626   3.186
 1961SOL    HW2 2191   2.768   2.631   3.097
 1962SOL     OW 2192   1.902   2.406   2.976
 1962SOL    HW1 2193   1.987   2.373   2.935
 1962SOL    HW2 2194   1.915   2.421   3.074
 1963SOL     OW 2195   2.051   2.382   3.584
 1963SOL    HW1 2196   2.110   2.342   3.514
 1963SOL    HW2 2197   1.993   2.453   3.543
 1965SOL     OW 2198   2.677   2.434   2.187
 1965SOL    HW1 2199   2.684   2.345   2.141
 1965SOL    HW2 2200   2.583   2.468   2.179
 1966SOL     OW 2201   3.519   2.466   3.068
 1966SOL    HW1 2202   3.481   2.397   3.130
 1966SOL    HW2 2203   3.601   2.430   3.024
 1968SOL     OW 2204   2.533   2.326   3.131
 1968SOL    HW1 2205   2.499   2.237   3.101
 1968SOL    HW2 2206   2.559   2.380   3.051
 1970SOL     OW 2207   2.335   2.362   2.053
 1970SOL    HW1 2208   2.396   2.442   2.057
 1970SOL    HW2 2209   2.240   2.393   2.060
 1971SOL     OW 2210   2.021   2.999   3.328
 1971SOL    HW1 2211   2.043   2.938   3.404
 1971SOL    HW2 2212   2.031   2.950   3.242
 1972SOL     OW 2213   3.209   2.921   3.096
 1972SOL    HW1 2214   3.233   2.858   3.022
 1972SOL    HW2 2215   3.119   2.961   3.078
 1973SOL     OW 2216   3.164   2.717   2.171
 1973SOL    HW1 2217   3.078   2.686   2.213
 1973SOL    HW2 2218   3.160   2.703   2.072
 1976SOL     OW 2219   1.945   3.120   2.884
 1976SOL    HW1 2220   1.940   3.119   2.984
 1976SOL    HW2 2221   1.862   3.079   2.846
 1978SOL     OW 2222   3.588   1.997   2.385
 1978SOL    HW1 2223   3.661   1.980   2.318
 1978SOL    HW2 2224   3.557   1.910   2.423
 1979SOL     OW 2225   3.250   3.435   2.339
 1979SOL    HW1 2226   3.317   3.447   2.265
 1979SOL    HW2 2227   3.210   3.524   2.362
 1981SOL     OW 2228   3.142   2.789   2.534
 1981SOL    HW1 2229   3.202   2.708   2.536
 1981SOL    HW2 2230   3.182   2.858   2.474
 1982SOL     OW 2231   2.692   3.135   3.284
 1982SOL    HW1 2232   2.687   3.168   3.379
 1982SOL    HW2 2233   2.606   3.154   3.238
 1983SOL     OW 2234   2.534   3.478   2.016
 1983SOL    HW1 2235   2.543   3.488   1.917
 1983SOL    HW2 2236   2.494   3.389   2.037
 1985SOL     OW 2237   3.703   2.037   2.825
 1985SOL    HW1 2238   3.742   1.952   2.789
 1985SOL    HW2 2239   3.605   2.039   2.806
 1986SOL     OW 2240   2.125   2.188   2.582
 1986SOL    HW1 2241   2.046   2.239   2.548
 1986SOL    HW2 2242   2.116   2.173   2.680
 1987SOL     OW 2243   3.056   3.474   1.893
 1987SOL    HW1 2244   3.062   3.381   1.930
 1987SOL    HW2 2245   2.997   3.474   1.813
 1988SOL     OW 2246   2.684   2.864   3.234
 1988SOL    HW1 2247   2.724   2.863   3.142
 1988SOL    HW2 2248   2.694   2.956   3.274
 1989SOL     OW 2249   2.778   2.772   2.153
 1989SOL    HW1 2250   2.841   2.810   2.085
 1989SOL    HW2 2251   2.818   2.689   2.192
 1991SOL     OW 2252   2.234   3.150   3.352
 1991SOL    HW1 2253   2.221   3.243   3.318
 1991SOL    HW2 2254   2.150   3.098   3.339
 1993SOL     OW 2255   2.901   2.960   2.558
 1993SOL    HW1 2256   2.831   2.913   2.612
 1993SOL    HW2 2257   2.960   2.892   2.515
 1994SOL     OW 2258   2.876   2.098   2.833
 1994SOL    HW1 2259   2.868   2.062   2.740
 1994SOL    HW2 2260   2.874   2.022   2.898
 1995SOL     OW 2261   2.452   3.349   2.353
 1995SOL    HW1 2262   2.494   3.291   2.283
 1995SOL    HW2 2263   2.408   3.428   2.309
 1996SOL     OW 2264   3.571   2.247   3.243
 1996SOL    HW1 2265   3.644   2.316   3.247
 1996SOL    HW2 2266   3.599   2.172   3.184
 1997SOL     OW 2267   2.117   3.210   2.152
 1997SOL    HW1 2268   2.021   3.211   2.125
 1997SOL    HW2 2269   2.129   3.263   2.236
 1998SOL     OW 2270   1.967   2.875   3.588
 1998SOL    HW1 2271   1.890   2.842   3.642
 1998SOL    HW2 2272   2.052   2.845   3.630
 1999SOL     OW 2273   2.534   2.065   3.351
 1999SOL    HW1 2274   2.624   2.049   3.311
 1999SOL    HW2 2275   2.542   2.070   3.450
 2000SOL     OW 2276   1.937   2.207   1.895
 2000SOL    HW1 2277   1.845   2.179   1.866
 2000SOL    HW2 2278   1.968   2.284   1.839
 2001SOL     OW 2279   3.302   2.718   3.260
 2001SOL    HW1 2280   3.245   2.770   3.197
 2001SOL    HW2 2281   3.398   2.730   3.236
 2002SOL     OW 2282   3.045   3.197   1.981
 2002SOL    HW1 2283   2.946   3.186   1.983
 2002SOL    HW2 2284   3.079   3.212   2.074
 2003SOL     OW 2285   2.475   2.704   3.293
 2003SOL    HW1 2286   2.531   2.785   3.276
 2003SOL    HW2 2287   2.534   2.624   3.296
 2005SOL     OW 2288   2.578   2.427   3.570
 2005SOL    HW1 2289   2.597   2.492   3.644
 2005SOL    HW2 2290   2.638   2.347   3.579
 2008SOL     OW 2291   3.536   2.745   3.116
 2008SOL    HW1 2292   3.509   2.656   3.079
 2008SOL    HW2 2293   3.537   2.813   3.043
 2009SOL     OW 2294   3.087   2.187   2.311
 2009SOL    HW1 2295   3.152   2.113   2.300
 2009SOL    HW2 2296   3.107   2.237   2.395
 2010SOL     OW 2297   2.456   2.607   2.514
 2010SOL    HW1 2298   2.506   2.692   2.495
 2010SOL    HW2 2299   2.368   2.609   2.466
 2013SOL     OW 2300   2.721   3.236   1.878
 2013SOL    HW1 2301   2.675   3.251   1.966
 2013SOL    HW2 2302   2.765   3.321   1.848
 2014SOL     OW 2303   2.523   3.652   2.815
 2014SOL    HW1 2304   2.477   3.740   2.802
 2014SOL    HW2 2305   2.622   3.664   2.808
 2015SOL     OW 2306   2.721   2.818   2.723
 2015SOL    HW1 2307   2.775   2.749   2.771
 2015SOL    HW2 2308   2.689   2.887   2.789
 2016SOL     OW 2309   2.945   2.846   1.949
 2016SOL    HW1 2310   2.922   2.899   1.867
 2016SOL    HW2 2311   3.026   2.790   1.930
 2019SOL     OW 2312   1.941   3.102   2.515
 2019SOL    HW1 2313   1.940   3.055   2.603
 2019SOL    HW2 2314   2.023   3.074   2.464
 2020SOL     OW 2315   2.534   3.253   3.486
 2020SOL    HW1 2316   2.456   3.203   3.524
 2020SOL    HW2 2317   2.531   3.348   3.517
 2021SOL     OW 2318   3.686   2.054   3.089
 2021SOL    HW1 2319   3.682   1.964   3.133
 2021SOL    HW2 2320   3.689   2.043   2.990
 2022SOL     OW 2321   2.290   2.286   2.382
 2022SOL    HW1 2322   2.320   2.214   2.320
 2022SOL    HW2 2323   2.251   2.246   2.465
 2024SOL     OW 2324   2.179   2.409   3.142
 2024SOL    HW1 2325   2.217   2.350   3.214
 2024SOL    HW2 2326   2.219   2.383   3.054
 2025SOL     OW 2327   2.674   3.448   2.549
 2025SOL    HW1 2328   2.706   3.458   2.455
 2025SOL    HW2 2329   2.595   3.386   2.551
 2026SOL     OW 2330   3.286   2.076   2.974
 2026SOL    HW1 2331   3.338   2.011   3.029
 2026SOL    HW2 2332   3.237   2.139   3.035
 2027SOL     OW 2333   2.863   1.896   3.016
 2027SOL    HW1 2334   2.800   1.824   2.985
 2027SOL    HW2 2335   2.956   1.860   3.016
 2028SOL     OW 2336   2.632   3.192   2.163
 2028SOL    HW1 2337   2.586   3.105   2.180
 2028SOL    HW2 2338   2.723   3.189   2.204
 2029SOL     OW 2339   2.480   3.429   3.146
 2029SOL    HW1 2340   2.475   3.511   3.203
 2029SOL    HW2 2341   2.569   3.426   3.101
 2030SOL     OW 2342   3.214   1.914   2.030
 2030SOL    HW1 2343   3.249   1.873   1.946
 2030SOL    HW2 2344   3.124   1.876   2.050
 2031SOL     OW 2345   3.162   2.315   2.553
 2031SOL    HW1 2346   3.103   2.395   2.557
 2031SOL    HW2 2347   3.177   2.280   2.646
 2032SOL     OW 2348   3.455   2.083   2.744
 2032SOL    HW1 2349   3.371   2.082   2.798
 2032SOL    HW2 2350   3.457   2.166   2.688
 2033SOL     OW 2351   1.901   2.939   2.162
 2033SOL    HW1 2352   2.000   2.928   2.153
 2033SOL    HW2 2353   1.861   2.853   2.194
 2034SOL     OW 2354   2.737   3.508   2.199
 2034SOL    HW1 2355   2.660   3.473   2.145
 2034SOL    HW2 2356   2.705   3.579   2.261
 2035SOL     OW 2357   2.092   2.490   3.837
 2035SOL    HW1 2358   1.999   2.488   3.874
 2035SOL    HW2 2359   2.093   2.451   3.745
 2055SOL     OW 2360   2.476   1.984   3.841
 2055SOL    HW1 2361   2.574   1.962   3.848
 2055SOL    HW2 2362   2.445   1.967   3.748
 2057SOL     OW 2363   2.159   1.897   3.895
 2057SOL    HW1 2364   2.208   1.981   3.874
 2057SOL    HW2 2365   2.221   1.832   3.940
 2060SOL     OW 2366   2.894   2.411   3.740
 2060SOL    HW1 2367   2.853   2.493   3.701
 2060SOL    HW2 2368   2.958   2.437   3.813
 2075SOL     OW 2369   2.335   2.362   3.915
 2075SOL    HW1 2370   2.396   2.442   3.919
 2075SOL    HW2 2371   2.240   2.393   3.922
 2085SOL     OW 2372   1.937   2.207   3.757
 2085SOL    HW1 2373   1.845   2.179   3.728
 2085SOL    HW2 2374   1.968   2.284   3.701
 2129SOL     OW 2375   2.366   3.774   1.740
 2129SOL    HW1 2376   2.324   3.717   1.670
 2129SOL    HW2 2377   2.300   3.843   1.772
 2170SOL     OW 2378   2.671   3.728   2.364
 2170SOL    HW1 2379   2.711   3.819   2.355
 2170SOL    HW2 2380   2.571   3.736   2.370
 2181SOL     OW 2381   2.476   3.846   1.979
 2181SOL    HW1 2382   2.574   3.824   1.986
 2181SOL    HW2 2383   2.445   3.829   1.886
 2184SOL     OW 2384   2.401   3.788   2.374
 2184SOL    HW1 2385   2.320   3.789   2.432
 2184SOL    HW2 2386   2.404   3.871   2.319
 2185SOL     OW 2387   2.159   3.759   2.033
 2185SOL    HW1 2388   2.208   3.843   2.012
 2185SOL    HW2 2389   2.221   3.694   2.078
 2199SOL     OW 2390   2.169   3.787   2.480
 2199SOL    HW1 2391   2.158   3.881   2.513
 2199SOL    HW2 2392   2.164   3.724   2.557
 2217SOL     OW 2393   1.934   3.890   2.180
 2217SOL    HW1 2394   1.917   3.973   2.126
 2217SOL    HW2 2395   2.024   3.853   2.158
 2301SOL     OW 2396   3.854   1.794   1.851
 2301SOL    HW1 2397   3.813   1.720   1.904
 2301SOL    HW2 2398   3.918   1.845   1.909
 2326SOL     OW 2399   3.751   1.596   1.979
 2326SOL    HW1 2400   3.732   1.500   2.000
 2326SOL    HW2 2401   3.718   1.654   2.054
 2360SOL     OW 2402   3.732   1.326   2.062
 2360SOL    HW1 2403   3.639   1.347   2.031
 2360SOL    HW2 2404   3.742   1.227   2.075
 2475SOL     OW 2405   3.743   2.230   2.509
 2475SOL    HW1 2406   3.661   2.273   2.548
 2475SOL    HW2 2407   3.715   2.157   2.446
 2482SOL     OW 2408   3.846   2.505   2.425
 2482SOL    HW1 2409   3.801   2.417   2.442
 2482SOL    HW2 2410   3.845   2.559   2.509
 2488SOL     OW 2411   3.800   2.673   2.651
 2488SOL    HW1 2412   3.899   2.661   2.660
 2488SOL    HW2 2413   3.776   2.768   2.672
 2532SOL     OW 2414   3.799   2.207   1.895
 2532SOL    HW1 2415   3.707   2.179   1.866
 2532SOL    HW2 2416   3.830   2.284   1.839
 2533SOL     OW 2417   3.796   2.028   2.180
 2533SOL    HW1 2418   3.779   2.111   2.126
 2533SOL    HW2 2419   3.886   1.991   2.158
 2540SOL     OW 2420   3.763   2.939   2.162
 2540SOL    HW1 2421   3.862   2.928   2.153
 2540SOL    HW2 2422   3.723   2.853   2.194
   4.31623   4.31623   4.31623
