; mobley_1034539_GMX.itp created by acpype (v: 2023.10.27) on Wed May 20 23:43:28 2026

[ atomtypes ]
;name   bond_type     mass     charge   ptype   sigma         epsilon       Amb
 ca       ca          0.00000  0.00000   A     3.31521e-01   4.13379e-01 ; 1.86  0.0988
 cp       cp          0.00000  0.00000   A     3.31521e-01   4.13379e-01 ; 1.86  0.0988
 cl       cl          0.00000  0.00000   A     3.46595e-01   1.10374e+00 ; 1.95  0.2638
 ha       ha          0.00000  0.00000   A     2.62548e-01   6.73624e-02 ; 1.47  0.0161

[ moleculetype ]
;name            nrexcl
 mobley_1034539   3

[ atoms ]
;   nr  type  resi  res  atom  cgnr     charge      mass       ; qtot   bond_type
     1   ca     1   MOL    C1    1    -0.095000     12.01000 ; qtot -0.095
     2   ca     1   MOL    C2    2    -0.119000     12.01000 ; qtot -0.214
     3   ca     1   MOL    C3    3    -0.099000     12.01000 ; qtot -0.313
     4   ca     1   MOL    C4    4    -0.102000     12.01000 ; qtot -0.415
     5   cp     1   MOL    C5    5    -0.043000     12.01000 ; qtot -0.458
     6   cp     1   MOL    C6    6    -0.019000     12.01000 ; qtot -0.477
     7   ca     1   MOL    C7    7     0.026400     12.01000 ; qtot -0.451
     8   ca     1   MOL    C8    8     0.014400     12.01000 ; qtot -0.436
     9   ca     1   MOL    C9    9     0.021400     12.01000 ; qtot -0.415
    10   ca     1   MOL   C10   10     0.032400     12.01000 ; qtot -0.382
    11   ca     1   MOL   C11   11     0.024400     12.01000 ; qtot -0.358
    12   ca     1   MOL   C12   12     0.020400     12.01000 ; qtot -0.338
    13   cl     1   MOL   CL1   13    -0.061400     35.45000 ; qtot -0.399
    14   cl     1   MOL   CL2   14    -0.063400     35.45000 ; qtot -0.462
    15   cl     1   MOL   CL3   15    -0.051400     35.45000 ; qtot -0.514
    16   cl     1   MOL   CL4   16    -0.046400     35.45000 ; qtot -0.560
    17   cl     1   MOL   CL5   17    -0.033400     35.45000 ; qtot -0.594
    18   cl     1   MOL   CL6   18    -0.035400     35.45000 ; qtot -0.629
    19   ha     1   MOL    H1   19     0.151000      1.00800 ; qtot -0.478
    20   ha     1   MOL    H2   20     0.156000      1.00800 ; qtot -0.322
    21   ha     1   MOL    H3   21     0.157000      1.00800 ; qtot -0.165
    22   ha     1   MOL    H4   22     0.165000      1.00800 ; qtot -0.000

[ bonds ]
;   ai     aj funct   r             k
     1      2   1    1.3986e-01    2.9644e+05 ;     C1 - C2    
     1      5   1    1.4056e-01    2.8959e+05 ;     C1 - C5    
     1     19   1    1.0860e-01    3.0183e+05 ;     C1 - H1    
     2      7   1    1.3986e-01    2.9644e+05 ;     C2 - C7    
     2     20   1    1.0860e-01    3.0183e+05 ;     C2 - H2    
     3      5   1    1.4056e-01    2.8959e+05 ;     C3 - C5    
     3      8   1    1.3986e-01    2.9644e+05 ;     C3 - C8    
     3     21   1    1.0860e-01    3.0183e+05 ;     C3 - H3    
     4      6   1    1.4056e-01    2.8959e+05 ;     C4 - C6    
     4      9   1    1.3986e-01    2.9644e+05 ;     C4 - C9    
     4     22   1    1.0860e-01    3.0183e+05 ;     C4 - H4    
     5      6   1    1.4829e-01    2.2541e+05 ;     C5 - C6    
     6     10   1    1.4056e-01    2.8959e+05 ;     C6 - C10   
     7      8   1    1.3986e-01    2.9644e+05 ;     C7 - C8    
     7     13   1    1.7572e-01    1.5730e+05 ;     C7 - CL1   
     8     14   1    1.7572e-01    1.5730e+05 ;     C8 - CL2   
     9     11   1    1.3986e-01    2.9644e+05 ;     C9 - C11   
     9     15   1    1.7572e-01    1.5730e+05 ;     C9 - CL3   
    10     12   1    1.3986e-01    2.9644e+05 ;    C10 - C12   
    10     16   1    1.7572e-01    1.5730e+05 ;    C10 - CL4   
    11     12   1    1.3986e-01    2.9644e+05 ;    C11 - C12   
    11     17   1    1.7572e-01    1.5730e+05 ;    C11 - CL5   
    12     18   1    1.7572e-01    1.5730e+05 ;    C12 - CL6   

[ pairs ]
;   ai     aj    funct
     1      4      1 ;     C1 - C4    
     1      8      1 ;     C1 - C8    
     1     10      1 ;     C1 - C10   
     1     13      1 ;     C1 - CL1   
     1     21      1 ;     C1 - H3    
     2      3      1 ;     C2 - C3    
     2      6      1 ;     C2 - C6    
     2     14      1 ;     C2 - CL2   
     3      4      1 ;     C3 - C4    
     3     10      1 ;     C3 - C10   
     3     13      1 ;     C3 - CL1   
     4     12      1 ;     C4 - C12   
     4     16      1 ;     C4 - CL4   
     4     17      1 ;     C4 - CL5   
     5      7      1 ;     C5 - C7    
     5      9      1 ;     C5 - C9    
     5     12      1 ;     C5 - C12   
     5     14      1 ;     C5 - CL2   
     5     16      1 ;     C5 - CL4   
     5     20      1 ;     C5 - H2    
     5     22      1 ;     C5 - H4    
     6      8      1 ;     C6 - C8    
     6     11      1 ;     C6 - C11   
     6     15      1 ;     C6 - CL3   
     6     18      1 ;     C6 - CL6   
     6     21      1 ;     C6 - H3    
     7     21      1 ;     C7 - H3    
     8     20      1 ;     C8 - H2    
     9     10      1 ;     C9 - C10   
     9     18      1 ;     C9 - CL6   
    10     17      1 ;    C10 - CL5   
    10     22      1 ;    C10 - H4    
    11     16      1 ;    C11 - CL4   
    11     22      1 ;    C11 - H4    
    12     15      1 ;    C12 - CL3   
    13     14      1 ;    CL1 - CL2   
    13     20      1 ;    CL1 - H2    
    14     21      1 ;    CL2 - H3    
    15     17      1 ;    CL3 - CL5   
    15     22      1 ;    CL3 - H4    
    16     18      1 ;    CL4 - CL6   
    17     18      1 ;    CL5 - CL6   
    19      3      1 ;     H1 - C3    
    19      6      1 ;     H1 - C6    
    19      7      1 ;     H1 - C7    
    19     20      1 ;     H1 - H2    

[ angles ]
;   ai     aj     ak    funct   theta         cth
     1      2      7      1    1.2002e+02    5.3279e+02 ;     C1 - C2     - C7    
     1      2     20      1    1.1988e+02    3.7572e+02 ;     C1 - C2     - H2    
     1      5      3      1    1.1841e+02    5.3379e+02 ;     C1 - C5     - C3    
     1      5      6      1    1.2110e+02    5.1296e+02 ;     C1 - C5     - C6    
     2      1      5      1    1.2073e+02    5.2995e+02 ;     C2 - C1     - C5    
     2      1     19      1    1.1988e+02    3.7572e+02 ;     C2 - C1     - H1    
     2      7      8      1    1.2002e+02    5.3279e+02 ;     C2 - C7     - C8    
     2      7     13      1    1.1938e+02    5.3605e+02 ;     C2 - C7     - CL1   
     3      5      6      1    1.2110e+02    5.1296e+02 ;     C3 - C5     - C6    
     3      8      7      1    1.2002e+02    5.3279e+02 ;     C3 - C8     - C7    
     3      8     14      1    1.1938e+02    5.3605e+02 ;     C3 - C8     - CL2   
     4      6      5      1    1.2110e+02    5.1296e+02 ;     C4 - C6     - C5    
     4      6     10      1    1.1841e+02    5.3379e+02 ;     C4 - C6     - C10   
     4      9     11      1    1.2002e+02    5.3279e+02 ;     C4 - C9     - C11   
     4      9     15      1    1.1938e+02    5.3605e+02 ;     C4 - C9     - CL3   
     5      1     19      1    1.1982e+02    3.7430e+02 ;     C5 - C1     - H1    
     5      3      8      1    1.2073e+02    5.2995e+02 ;     C5 - C3     - C8    
     5      3     21      1    1.1982e+02    3.7430e+02 ;     C5 - C3     - H3    
     5      6     10      1    1.2110e+02    5.1296e+02 ;     C5 - C6     - C10   
     6      4      9      1    1.2073e+02    5.2995e+02 ;     C6 - C4     - C9    
     6      4     22      1    1.1982e+02    3.7430e+02 ;     C6 - C4     - H4    
     6     10     12      1    1.2073e+02    5.2995e+02 ;     C6 - C10    - C12   
     6     10     16      1    1.2044e+02    5.3304e+02 ;     C6 - C10    - CL4   
     7      2     20      1    1.1988e+02    3.7572e+02 ;     C7 - C2     - H2    
     7      8     14      1    1.1938e+02    5.3605e+02 ;     C7 - C8     - CL2   
     8      3     21      1    1.1988e+02    3.7572e+02 ;     C8 - C3     - H3    
     8      7     13      1    1.1938e+02    5.3605e+02 ;     C8 - C7     - CL1   
     9      4     22      1    1.1988e+02    3.7572e+02 ;     C9 - C4     - H4    
     9     11     12      1    1.2002e+02    5.3279e+02 ;     C9 - C11    - C12   
     9     11     17      1    1.1938e+02    5.3605e+02 ;     C9 - C11    - CL5   
    10     12     11      1    1.2002e+02    5.3279e+02 ;    C10 - C12    - C11   
    10     12     18      1    1.1938e+02    5.3605e+02 ;    C10 - C12    - CL6   
    11      9     15      1    1.1938e+02    5.3605e+02 ;    C11 - C9     - CL3   
    11     12     18      1    1.1938e+02    5.3605e+02 ;    C11 - C12    - CL6   
    12     10     16      1    1.1938e+02    5.3605e+02 ;    C12 - C10    - CL4   
    12     11     17      1    1.1938e+02    5.3605e+02 ;    C12 - C11    - CL5   

[ dihedrals ] ; propers
; for gromacs 4.5 or higher, using funct 9
;    i      j      k      l   func   phase     kd      pn
     1      2      7      8      9   180.00  15.16700   2 ;     C1-    C2-    C7-    C8
     1      2      7     13      9   180.00  15.16700   2 ;     C1-    C2-    C7-   CL1
     1      5      3      8      9   180.00  15.16700   2 ;     C1-    C5-    C3-    C8
     1      5      3     21      9   180.00  15.16700   2 ;     C1-    C5-    C3-    H3
     1      5      6      4      9   180.00   3.20076   2 ;     C1-    C5-    C6-    C4
     1      5      6     10      9   180.00   3.20076   2 ;     C1-    C5-    C6-   C10
     2      1      5      3      9   180.00  15.16700   2 ;     C2-    C1-    C5-    C3
     2      1      5      6      9   180.00  15.16700   2 ;     C2-    C1-    C5-    C6
     2      7      8      3      9   180.00  15.16700   2 ;     C2-    C7-    C8-    C3
     2      7      8     14      9   180.00  15.16700   2 ;     C2-    C7-    C8-   CL2
     3      5      6      4      9   180.00   3.20076   2 ;     C3-    C5-    C6-    C4
     3      5      6     10      9   180.00   3.20076   2 ;     C3-    C5-    C6-   C10
     3      8      7     13      9   180.00  15.16700   2 ;     C3-    C8-    C7-   CL1
     4      6     10     12      9   180.00  15.16700   2 ;     C4-    C6-   C10-   C12
     4      6     10     16      9   180.00  15.16700   2 ;     C4-    C6-   C10-   CL4
     4      9     11     12      9   180.00  15.16700   2 ;     C4-    C9-   C11-   C12
     4      9     11     17      9   180.00  15.16700   2 ;     C4-    C9-   C11-   CL5
     5      1      2      7      9   180.00  15.16700   2 ;     C5-    C1-    C2-    C7
     5      1      2     20      9   180.00  15.16700   2 ;     C5-    C1-    C2-    H2
     5      3      8      7      9   180.00  15.16700   2 ;     C5-    C3-    C8-    C7
     5      3      8     14      9   180.00  15.16700   2 ;     C5-    C3-    C8-   CL2
     5      6      4      9      9   180.00  15.16700   2 ;     C5-    C6-    C4-    C9
     5      6      4     22      9   180.00  15.16700   2 ;     C5-    C6-    C4-    H4
     5      6     10     12      9   180.00  15.16700   2 ;     C5-    C6-   C10-   C12
     5      6     10     16      9   180.00  15.16700   2 ;     C5-    C6-   C10-   CL4
     6      4      9     11      9   180.00  15.16700   2 ;     C6-    C4-    C9-   C11
     6      4      9     15      9   180.00  15.16700   2 ;     C6-    C4-    C9-   CL3
     6      5      3      8      9   180.00  15.16700   2 ;     C6-    C5-    C3-    C8
     6      5      3     21      9   180.00  15.16700   2 ;     C6-    C5-    C3-    H3
     6     10     12     11      9   180.00  15.16700   2 ;     C6-   C10-   C12-   C11
     6     10     12     18      9   180.00  15.16700   2 ;     C6-   C10-   C12-   CL6
     7      8      3     21      9   180.00  15.16700   2 ;     C7-    C8-    C3-    H3
     8      7      2     20      9   180.00  15.16700   2 ;     C8-    C7-    C2-    H2
     9      4      6     10      9   180.00  15.16700   2 ;     C9-    C4-    C6-   C10
     9     11     12     10      9   180.00  15.16700   2 ;     C9-   C11-   C12-   C10
     9     11     12     18      9   180.00  15.16700   2 ;     C9-   C11-   C12-   CL6
    10      6      4     22      9   180.00  15.16700   2 ;    C10-    C6-    C4-    H4
    10     12     11     17      9   180.00  15.16700   2 ;    C10-   C12-   C11-   CL5
    11      9      4     22      9   180.00  15.16700   2 ;    C11-    C9-    C4-    H4
    11     12     10     16      9   180.00  15.16700   2 ;    C11-   C12-   C10-   CL4
    12     11      9     15      9   180.00  15.16700   2 ;    C12-   C11-    C9-   CL3
    13      7      2     20      9   180.00  15.16700   2 ;    CL1-    C7-    C2-    H2
    13      7      8     14      9   180.00  15.16700   2 ;    CL1-    C7-    C8-   CL2
    14      8      3     21      9   180.00  15.16700   2 ;    CL2-    C8-    C3-    H3
    15      9      4     22      9   180.00  15.16700   2 ;    CL3-    C9-    C4-    H4
    15      9     11     17      9   180.00  15.16700   2 ;    CL3-    C9-   C11-   CL5
    16     10     12     18      9   180.00  15.16700   2 ;    CL4-   C10-   C12-   CL6
    17     11     12     18      9   180.00  15.16700   2 ;    CL5-   C11-   C12-   CL6
    19      1      2      7      9   180.00  15.16700   2 ;     H1-    C1-    C2-    C7
    19      1      2     20      9   180.00  15.16700   2 ;     H1-    C1-    C2-    H2
    19      1      5      3      9   180.00  15.16700   2 ;     H1-    C1-    C5-    C3
    19      1      5      6      9   180.00  15.16700   2 ;     H1-    C1-    C5-    C6

[ dihedrals ] ; impropers
; treated as propers in GROMACS to use correct AMBER analytical function
;    i      j      k      l   func   phase     kd      pn
     1      3      5      6      4   180.00   4.60240   2 ;     C1-    C3-    C5-    C6
     1      7      2     20      4   180.00   4.60240   2 ;     C1-    C7-    C2-    H2
     2      8      7     13      4   180.00   4.60240   2 ;     C2-    C8-    C7-   CL1
     3      7      8     14      4   180.00   4.60240   2 ;     C3-    C7-    C8-   CL2
     4     10      6      5      4   180.00   4.60240   2 ;     C4-   C10-    C6-    C5
     4     11      9     15      4   180.00   4.60240   2 ;     C4-   C11-    C9-   CL3
     8      5      3     21      4   180.00   4.60240   2 ;     C8-    C5-    C3-    H3
     9      6      4     22      4   180.00   4.60240   2 ;     C9-    C6-    C4-    H4
     9     12     11     17      4   180.00   4.60240   2 ;     C9-   C12-   C11-   CL5
    10     11     12     18      4   180.00   4.60240   2 ;    C10-   C11-   C12-   CL6
    12     16     10      6      4   180.00   4.60240   2 ;    C12-   CL4-   C10-    C6
    19      1      5      2      4   180.00   4.60240   2 ;     H1-    C1-    C5-    C2
