mobley_2659552_GMX.gro created by acpype (v: 2023.10.27) on Wed May 20 23:42:01 2026
 2425
    1MOL     C1    1   2.562   2.459   2.422
    1MOL     C2    2   2.357   2.336   2.420
    1MOL     C3    3   2.633   2.340   2.420
    1MOL     C4    4   2.428   2.217   2.420
    1MOL     C5    5   2.423   2.458   2.423
    1MOL     C6    6   2.567   2.217   2.420
    1MOL     C7    7   2.341   2.584   2.415
    1MOL     C8    8   2.644   2.087   2.421
    1MOL     C9    9   2.306   2.815   2.469
    1MOL    C10   10   2.447   2.682   2.618
    1MOL     N1   11   2.379   2.691   2.490
    1MOL     O1   12   2.247   2.588   2.340
    1MOL     H1   13   2.615   2.552   2.421
    1MOL     H2   14   2.249   2.334   2.416
    1MOL     H3   15   2.740   2.343   2.418
    1MOL     H4   16   2.375   2.123   2.418
    1MOL     H5   17   2.747   2.102   2.389
    1MOL     H6   18   2.646   2.044   2.521
    1MOL     H7   19   2.599   2.014   2.355
    1MOL     H8   20   2.282   2.826   2.364
    1MOL     H9   21   2.214   2.818   2.526
    1MOL    H10   22   2.369   2.898   2.500
    1MOL    H11   23   2.480   2.582   2.638
    1MOL    H12   24   2.379   2.712   2.698
    1MOL    H13   25   2.533   2.749   2.620
   14SOL     OW   26   1.460   1.505   1.339
   14SOL    HW1   27   1.484   1.599   1.365
   14SOL    HW2   28   1.444   1.451   1.421
   35SOL     OW   29   1.187   1.792   1.616
   35SOL    HW1   30   1.211   1.852   1.540
   35SOL    HW2   31   1.194   1.697   1.586
   95SOL     OW   32   1.754   1.223   1.588
   95SOL    HW1   33   1.845   1.184   1.575
   95SOL    HW2   34   1.762   1.319   1.612
   97SOL     OW   35   1.592   1.629   1.625
   97SOL    HW1   36   1.619   1.663   1.535
   97SOL    HW2   37   1.671   1.591   1.671
  127SOL     OW   38   1.859   1.518   1.605
  127SOL    HW1   39   1.873   1.545   1.510
  127SOL    HW2   40   1.942   1.540   1.658
  152SOL     OW   41   1.759   1.747   1.154
  152SOL    HW1   42   1.820   1.777   1.081
  152SOL    HW2   43   1.721   1.658   1.132
  163SOL     OW   44   1.650   1.720   1.394
  163SOL    HW1   45   1.703   1.730   1.310
  163SOL    HW2   46   1.623   1.810   1.428
  219SOL     OW   47   1.555   1.511   2.565
  219SOL    HW1   48   1.498   1.495   2.646
  219SOL    HW2   49   1.496   1.521   2.485
  227SOL     OW   50   1.460   1.505   3.201
  227SOL    HW1   51   1.484   1.599   3.227
  227SOL    HW2   52   1.444   1.451   3.283
  238SOL     OW   53   1.842   1.767   2.221
  238SOL    HW1   54   1.896   1.738   2.301
  238SOL    HW2   55   1.872   1.857   2.192
  240SOL     OW   56   1.689   0.922   2.474
  240SOL    HW1   57   1.784   0.893   2.482
  240SOL    HW2   58   1.681   0.987   2.399
  241SOL     OW   59   1.641   1.108   2.294
  241SOL    HW1   60   1.727   1.110   2.242
  241SOL    HW2   61   1.655   1.155   2.382
  247SOL     OW   62   1.525   0.999   2.052
  247SOL    HW1   63   1.462   0.923   2.065
  247SOL    HW2   64   1.573   1.017   2.138
  248SOL     OW   65   1.187   1.792   3.478
  248SOL    HW1   66   1.211   1.852   3.402
  248SOL    HW2   67   1.194   1.697   3.448
  250SOL     OW   68   1.466   1.417   2.815
  250SOL    HW1   69   1.407   1.423   2.895
  250SOL    HW2   70   1.451   1.329   2.769
  251SOL     OW   71   1.667   1.714   2.434
  251SOL    HW1   72   1.626   1.691   2.346
  251SOL    HW2   73   1.649   1.640   2.499
  254SOL     OW   74   1.576   1.662   2.169
  254SOL    HW1   75   1.665   1.708   2.172
  254SOL    HW2   76   1.555   1.638   2.074
  264SOL     OW   77   1.362   1.144   2.407
  264SOL    HW1   78   1.445   1.115   2.359
  264SOL    HW2   79   1.313   1.211   2.351
  266SOL     OW   80   1.008   1.456   2.339
  266SOL    HW1   81   0.962   1.528   2.287
  266SOL    HW2   82   1.004   1.476   2.437
  268SOL     OW   83   1.795   1.066   2.735
  268SOL    HW1   84   1.733   1.051   2.659
  268SOL    HW2   85   1.743   1.077   2.820
  269SOL     OW   86   1.227   1.550   3.368
  269SOL    HW1   87   1.233   1.473   3.432
  269SOL    HW2   88   1.175   1.524   3.288
  273SOL     OW   89   1.111   1.776   2.099
  273SOL    HW1   90   1.051   1.714   2.149
  273SOL    HW2   91   1.142   1.732   2.014
  275SOL     OW   92   1.632   1.377   1.943
  275SOL    HW1   93   1.600   1.471   1.933
  275SOL    HW2   94   1.556   1.314   1.931
  279SOL     OW   95   0.940   1.698   2.766
  279SOL    HW1   96   1.020   1.641   2.787
  279SOL    HW2   97   0.891   1.658   2.689
  289SOL     OW   98   1.434   1.188   1.903
  289SOL    HW1   99   1.466   1.112   1.960
  289SOL    HW2  100   1.342   1.215   1.933
  293SOL     OW  101   1.227   1.570   2.655
  293SOL    HW1  102   1.248   1.644   2.590
  293SOL    HW2  103   1.295   1.570   2.728
  295SOL     OW  104   1.271   1.797   2.453
  295SOL    HW1  105   1.315   1.861   2.389
  295SOL    HW2  106   1.221   1.849   2.523
  301SOL     OW  107   1.429   1.173   2.729
  301SOL    HW1  108   1.374   1.089   2.722
  301SOL    HW2  109   1.455   1.202   2.637
  303SOL     OW  110   1.857   0.833   2.239
  303SOL    HW1  111   1.899   0.769   2.303
  303SOL    HW2  112   1.819   0.782   2.161
  305SOL     OW  113   1.664   1.280   2.519
  305SOL    HW1  114   1.763   1.288   2.533
  305SOL    HW2  115   1.619   1.364   2.550
  308SOL     OW  116   1.754   1.223   3.450
  308SOL    HW1  117   1.845   1.184   3.437
  308SOL    HW2  118   1.762   1.319   3.474
  310SOL     OW  119   1.592   1.629   3.487
  310SOL    HW1  120   1.619   1.663   3.397
  310SOL    HW2  121   1.671   1.591   3.533
  312SOL     OW  122   1.638   1.099   2.941
  312SOL    HW1  123   1.643   1.180   3.000
  312SOL    HW2  124   1.552   1.101   2.890
  321SOL     OW  125   1.252   1.348   2.250
  321SOL    HW1  126   1.302   1.425   2.290
  321SOL    HW2  127   1.157   1.350   2.282
  322SOL     OW  128   1.272   1.445   3.004
  322SOL    HW1  129   1.319   1.458   3.091
  322SOL    HW2  130   1.206   1.371   3.013
  340SOL     OW  131   1.859   1.518   3.467
  340SOL    HW1  132   1.873   1.545   3.372
  340SOL    HW2  133   1.942   1.540   3.520
  365SOL     OW  134   1.759   1.747   3.016
  365SOL    HW1  135   1.820   1.777   2.943
  365SOL    HW2  136   1.721   1.658   2.994
  366SOL     OW  137   1.252   1.731   2.990
  366SOL    HW1  138   1.336   1.736   2.936
  366SOL    HW2  139   1.229   1.635   3.008
  370SOL     OW  140   1.388   1.573   2.339
  370SOL    HW1  141   1.455   1.585   2.265
  370SOL    HW2  142   1.348   1.662   2.362
  375SOL     OW  143   1.650   1.720   3.256
  375SOL    HW1  144   1.703   1.730   3.172
  375SOL    HW2  145   1.623   1.810   3.290
  378SOL     OW  146   1.194   1.612   1.893
  378SOL    HW1  147   1.200   1.519   1.930
  378SOL    HW2  148   1.135   1.612   1.813
  381SOL     OW  149   1.504   1.607   1.906
  381SOL    HW1  150   1.412   1.644   1.913
  381SOL    HW2  151   1.542   1.627   1.816
  383SOL     OW  152   1.614   1.292   3.151
  383SOL    HW1  153   1.674   1.295   3.231
  383SOL    HW2  154   1.539   1.356   3.164
  394SOL     OW  155   1.183   1.335   1.981
  394SOL    HW1  156   1.084   1.324   1.983
  394SOL    HW2  157   1.217   1.350   2.074
  396SOL     OW  158   1.493   1.767   2.821
  396SOL    HW1  159   1.526   1.831   2.752
  396SOL    HW2  160   1.559   1.761   2.896
  409SOL     OW  161   1.861   1.569   2.713
  409SOL    HW1  162   1.790   1.557   2.643
  409SOL    HW2  163   1.862   1.490   2.773
  415SOL     OW  164   1.705   1.487   2.966
  415SOL    HW1  165   1.612   1.462   2.939
  415SOL    HW2  166   1.731   1.437   3.048
  570SOL     OW  167   0.850   2.660   1.823
  570SOL    HW1  168   0.846   2.736   1.888
  570SOL    HW2  169   0.872   2.696   1.732
  574SOL     OW  170   1.460   3.367   1.339
  574SOL    HW1  171   1.484   3.461   1.365
  574SOL    HW2  172   1.444   3.313   1.421
  578SOL     OW  173   1.127   3.203   1.690
  578SOL    HW1  174   1.174   3.203   1.778
  578SOL    HW2  175   1.079   3.116   1.679
  583SOL     OW  176   1.594   1.976   1.480
  583SOL    HW1  177   1.576   2.043   1.408
  583SOL    HW2  178   1.591   2.022   1.569
  591SOL     OW  179   1.293   3.090   1.423
  591SOL    HW1  180   1.330   3.017   1.365
  591SOL    HW2  181   1.345   3.095   1.508
  603SOL     OW  182   1.394   2.331   1.674
  603SOL    HW1  183   1.374   2.374   1.762
  603SOL    HW2  184   1.472   2.269   1.683
  604SOL     OW  185   0.973   2.752   1.572
  604SOL    HW1  186   1.019   2.668   1.543
  604SOL    HW2  187   0.917   2.786   1.497
  610SOL     OW  188   1.719   2.447   1.831
  610SOL    HW1  189   1.693   2.536   1.795
  610SOL    HW2  190   1.717   2.379   1.758
  615SOL     OW  191   1.795   2.928   0.873
  615SOL    HW1  192   1.733   2.913   0.797
  615SOL    HW2  193   1.743   2.939   0.958
  628SOL     OW  194   1.547   2.084   1.729
  628SOL    HW1  195   1.542   2.121   1.821
  628SOL    HW2  196   1.475   2.015   1.717
  632SOL     OW  197   1.351   2.452   1.433
  632SOL    HW1  198   1.379   2.409   1.518
  632SOL    HW2  199   1.376   2.548   1.434
  639SOL     OW  200   1.076   2.545   1.464
  639SOL    HW1  201   0.996   2.484   1.467
  639SOL    HW2  202   1.157   2.492   1.440
  649SOL     OW  203   1.466   2.452   0.992
  649SOL    HW1  204   1.436   2.357   0.999
  649SOL    HW2  205   1.539   2.468   1.058
  655SOL     OW  206   1.754   3.085   1.588
  655SOL    HW1  207   1.845   3.046   1.575
  655SOL    HW2  208   1.762   3.181   1.612
  657SOL     OW  209   1.592   3.491   1.625
  657SOL    HW1  210   1.619   3.525   1.535
  657SOL    HW2  211   1.671   3.453   1.671
  659SOL     OW  212   1.638   2.961   1.079
  659SOL    HW1  213   1.643   3.042   1.138
  659SOL    HW2  214   1.552   2.963   1.028
  661SOL     OW  215   0.980   2.978   1.719
  661SOL    HW1  216   0.881   2.984   1.729
  661SOL    HW2  217   1.003   2.898   1.663
  664SOL     OW  218   1.274   2.248   1.262
  664SOL    HW1  219   1.295   2.322   1.326
  664SOL    HW2  220   1.185   2.265   1.219
  673SOL     OW  221   1.587   2.641   1.670
  673SOL    HW1  222   1.495   2.679   1.665
  673SOL    HW2  223   1.647   2.688   1.605
  674SOL     OW  224   1.013   1.967   1.770
  674SOL    HW1  225   1.019   2.052   1.718
  674SOL    HW2  226   1.045   1.891   1.713
  682SOL     OW  227   1.728   2.797   1.854
  682SOL    HW1  228   1.682   2.790   1.765
  682SOL    HW2  229   1.666   2.841   1.920
  687SOL     OW  230   1.859   3.380   1.605
  687SOL    HW1  231   1.873   3.407   1.510
  687SOL    HW2  232   1.942   3.402   1.658
  694SOL     OW  233   1.138   2.242   1.678
  694SOL    HW1  234   1.093   2.305   1.742
  694SOL    HW2  235   1.231   2.273   1.661
  695SOL     OW  236   1.160   2.069   1.477
  695SOL    HW1  237   1.160   2.133   1.554
  695SOL    HW2  238   1.188   2.117   1.394
  702SOL     OW  239   1.369   2.812   1.660
  702SOL    HW1  240   1.408   2.901   1.680
  702SOL    HW2  241   1.379   2.792   1.563
  704SOL     OW  242   1.657   2.466   1.206
  704SOL    HW1  243   1.619   2.397   1.268
  704SOL    HW2  244   1.739   2.430   1.162
  710SOL     OW  245   1.347   2.921   1.234
  710SOL    HW1  246   1.371   2.858   1.160
  710SOL    HW2  247   1.257   2.961   1.216
  723SOL     OW  248   1.650   3.582   1.394
  723SOL    HW1  249   1.703   3.592   1.310
  723SOL    HW2  250   1.623   3.672   1.428
  724SOL     OW  251   1.841   2.037   0.963
  724SOL    HW1  252   1.880   1.952   0.927
  724SOL    HW2  253   1.743   2.039   0.944
  731SOL     OW  254   1.614   3.154   1.289
  731SOL    HW1  255   1.674   3.157   1.369
  731SOL    HW2  256   1.539   3.218   1.302
  735SOL     OW  257   1.709   2.247   1.381
  735SOL    HW1  258   1.782   2.316   1.385
  735SOL    HW2  259   1.737   2.172   1.322
  740SOL     OW  260   1.440   2.718   1.398
  740SOL    HW1  261   1.383   2.770   1.335
  740SOL    HW2  262   1.536   2.730   1.374
  746SOL     OW  263   1.450   3.082   1.633
  746SOL    HW1  264   1.441   3.072   1.732
  746SOL    HW2  265   1.546   3.075   1.607
  748SOL     OW  266   1.674   2.745   1.254
  748SOL    HW1  267   1.647   2.656   1.217
  748SOL    HW2  268   1.675   2.813   1.181
  751SOL     OW  269   1.777   2.204   1.642
  751SOL    HW1  270   1.760   2.235   1.548
  751SOL    HW2  271   1.693   2.167   1.680
  752SOL     OW  272   1.730   2.796   1.517
  752SOL    HW1  273   1.768   2.887   1.532
  752SOL    HW2  274   1.722   2.779   1.418
  761SOL     OW  275   1.824   2.054   1.227
  761SOL    HW1  276   1.820   1.964   1.271
  761SOL    HW2  277   1.827   2.043   1.128
  763SOL     OW  278   1.705   3.349   1.104
  763SOL    HW1  279   1.612   3.324   1.077
  763SOL    HW2  280   1.731   3.299   1.186
  766SOL     OW  281   1.424   2.076   1.112
  766SOL    HW1  282   1.476   2.011   1.167
  766SOL    HW2  283   1.375   2.139   1.173
  779SOL     OW  284   1.555   3.373   2.565
  779SOL    HW1  285   1.498   3.357   2.646
  779SOL    HW2  286   1.496   3.383   2.485
  780SOL     OW  287   1.135   2.565   2.579
  780SOL    HW1  288   1.192   2.643   2.554
  780SOL    HW2  289   1.075   2.591   2.655
  781SOL     OW  290   1.755   2.469   2.093
  781SOL    HW1  291   1.743   2.456   1.994
  781SOL    HW2  292   1.725   2.388   2.142
  787SOL     OW  293   1.460   3.367   3.201
  787SOL    HW1  294   1.484   3.461   3.227
  787SOL    HW2  295   1.444   3.313   3.283
  789SOL     OW  296   1.603   2.309   2.599
  789SOL    HW1  297   1.529   2.355   2.549
  789SOL    HW2  298   1.654   2.377   2.652
  796SOL     OW  299   1.594   1.976   3.342
  796SOL    HW1  300   1.576   2.043   3.270
  796SOL    HW2  301   1.591   2.022   3.431
  798SOL     OW  302   1.842   3.629   2.221
  798SOL    HW1  303   1.896   3.600   2.301
  798SOL    HW2  304   1.872   3.719   2.192
  800SOL     OW  305   1.689   2.784   2.474
  800SOL    HW1  306   1.784   2.755   2.482
  800SOL    HW2  307   1.681   2.849   2.399
  801SOL     OW  308   1.641   2.970   2.294
  801SOL    HW1  309   1.727   2.972   2.242
  801SOL    HW2  310   1.655   3.017   2.382
  804SOL     OW  311   1.293   3.090   3.285
  804SOL    HW1  312   1.330   3.017   3.227
  804SOL    HW2  313   1.345   3.095   3.370
  805SOL     OW  314   0.809   1.866   2.364
  805SOL    HW1  315   0.849   1.957   2.355
  805SOL    HW2  316   0.709   1.874   2.370
  807SOL     OW  317   1.525   2.861   2.052
  807SOL    HW1  318   1.462   2.785   2.065
  807SOL    HW2  319   1.573   2.879   2.138
  810SOL     OW  320   1.466   3.279   2.815
  810SOL    HW1  321   1.407   3.285   2.895
  810SOL    HW2  322   1.451   3.191   2.769
  811SOL     OW  323   1.667   3.576   2.434
  811SOL    HW1  324   1.626   3.553   2.346
  811SOL    HW2  325   1.649   3.502   2.499
  813SOL     OW  326   1.281   2.207   2.806
  813SOL    HW1  327   1.195   2.157   2.793
  813SOL    HW2  328   1.343   2.153   2.862
  814SOL     OW  329   1.576   3.524   2.169
  814SOL    HW1  330   1.665   3.570   2.172
  814SOL    HW2  331   1.555   3.500   2.074
  816SOL     OW  332   1.394   2.331   3.536
  816SOL    HW1  333   1.374   2.374   3.624
  816SOL    HW2  334   1.472   2.269   3.545
  818SOL     OW  335   0.991   2.272   3.104
  818SOL    HW1  336   0.914   2.306   3.158
  818SOL    HW2  337   0.957   2.221   3.025
  819SOL     OW  338   1.041   2.563   2.291
  819SOL    HW1  339   1.067   2.559   2.387
  819SOL    HW2  340   0.956   2.512   2.277
  822SOL     OW  341   0.865   2.210   2.057
  822SOL    HW1  342   0.924   2.273   2.008
  822SOL    HW2  343   0.884   2.116   2.028
  823SOL     OW  344   1.719   2.447   3.693
  823SOL    HW1  345   1.693   2.536   3.657
  823SOL    HW2  346   1.717   2.379   3.620
  824SOL     OW  347   1.362   3.006   2.407
  824SOL    HW1  348   1.445   2.977   2.359
  824SOL    HW2  349   1.313   3.073   2.351
  826SOL     OW  350   1.008   3.318   2.339
  826SOL    HW1  351   0.962   3.390   2.287
  826SOL    HW2  352   1.004   3.338   2.437
  828SOL     OW  353   1.795   2.928   2.735
  828SOL    HW1  354   1.733   2.913   2.659
  828SOL    HW2  355   1.743   2.939   2.820
  831SOL     OW  356   1.458   2.597   2.590
  831SOL    HW1  357   1.453   2.532   2.665
  831SOL    HW2  358   1.538   2.656   2.603
  835SOL     OW  359   1.632   3.239   1.943
  835SOL    HW1  360   1.600   3.333   1.933
  835SOL    HW2  361   1.556   3.176   1.931
  837SOL     OW  362   1.400   1.969   2.288
  837SOL    HW1  363   1.376   1.932   2.198
  837SOL    HW2  364   1.499   1.985   2.292
  841SOL     OW  365   1.547   2.084   3.591
  841SOL    HW1  366   1.542   2.121   3.683
  841SOL    HW2  367   1.475   2.015   3.579
  845SOL     OW  368   1.351   2.452   3.295
  845SOL    HW1  369   1.379   2.409   3.380
  845SOL    HW2  370   1.376   2.548   3.296
  847SOL     OW  371   0.922   2.365   2.761
  847SOL    HW1  372   0.897   2.356   2.665
  847SOL    HW2  373   0.970   2.283   2.792
  849SOL     OW  374   1.434   3.050   1.903
  849SOL    HW1  375   1.466   2.974   1.960
  849SOL    HW2  376   1.342   3.077   1.933
  851SOL     OW  377   0.935   2.098   2.342
  851SOL    HW1  378   0.887   2.139   2.264
  851SOL    HW2  379   1.034   2.096   2.323
  852SOL     OW  380   1.076   2.545   3.326
  852SOL    HW1  381   0.996   2.484   3.329
  852SOL    HW2  382   1.157   2.492   3.302
  853SOL     OW  383   1.227   3.432   2.655
  853SOL    HW1  384   1.248   3.506   2.590
  853SOL    HW2  385   1.295   3.432   2.728
  855SOL     OW  386   1.271   3.659   2.453
  855SOL    HW1  387   1.315   3.723   2.389
  855SOL    HW2  388   1.221   3.711   2.523
  856SOL     OW  389   1.032   2.411   1.878
  856SOL    HW1  390   0.991   2.493   1.839
  856SOL    HW2  391   1.096   2.437   1.951
  859SOL     OW  392   0.866   2.316   2.504
  859SOL    HW1  393   0.834   2.388   2.442
  859SOL    HW2  394   0.890   2.235   2.451
  860SOL     OW  395   1.017   1.901   2.615
  860SOL    HW1  396   0.945   1.906   2.546
  860SOL    HW2  397   0.993   1.832   2.684
  861SOL     OW  398   1.429   3.035   2.729
  861SOL    HW1  399   1.374   2.951   2.722
  861SOL    HW2  400   1.455   3.064   2.637
  862SOL     OW  401   1.466   2.452   2.854
  862SOL    HW1  402   1.436   2.357   2.861
  862SOL    HW2  403   1.539   2.468   2.920
  863SOL     OW  404   1.857   2.695   2.239
  863SOL    HW1  405   1.899   2.631   2.303
  863SOL    HW2  406   1.819   2.644   2.161
  865SOL     OW  407   1.664   3.142   2.519
  865SOL    HW1  408   1.763   3.150   2.533
  865SOL    HW2  409   1.619   3.226   2.550
  866SOL     OW  410   1.390   2.437   1.940
  866SOL    HW1  411   1.336   2.416   2.021
  866SOL    HW2  412   1.481   2.396   1.949
  868SOL     OW  413   1.754   3.085   3.450
  868SOL    HW1  414   1.845   3.046   3.437
  868SOL    HW2  415   1.762   3.181   3.474
  869SOL     OW  416   1.064   3.209   3.202
  869SOL    HW1  417   0.984   3.186   3.257
  869SOL    HW2  418   1.147   3.183   3.251
  870SOL     OW  419   1.592   3.491   3.487
  870SOL    HW1  420   1.619   3.525   3.397
  870SOL    HW2  421   1.671   3.453   3.533
  871SOL     OW  422   1.111   3.057   2.962
  871SOL    HW1  423   1.071   3.101   3.043
  871SOL    HW2  424   1.070   3.094   2.879
  872SOL     OW  425   1.638   2.961   2.941
  872SOL    HW1  426   1.643   3.042   3.000
  872SOL    HW2  427   1.552   2.963   2.890
  877SOL     OW  428   1.274   2.248   3.124
  877SOL    HW1  429   1.295   2.322   3.188
  877SOL    HW2  430   1.185   2.265   3.081
  881SOL     OW  431   1.252   3.210   2.250
  881SOL    HW1  432   1.302   3.287   2.290
  881SOL    HW2  433   1.157   3.212   2.282
  882SOL     OW  434   1.272   3.307   3.004
  882SOL    HW1  435   1.319   3.320   3.091
  882SOL    HW2  436   1.206   3.233   3.013
  883SOL     OW  437   1.582   2.501   2.334
  883SOL    HW1  438   1.551   2.562   2.407
  883SOL    HW2  439   1.632   2.553   2.265
  886SOL     OW  440   1.587   2.641   3.532
  886SOL    HW1  441   1.495   2.679   3.527
  886SOL    HW2  442   1.647   2.688   3.467
  890SOL     OW  443   1.360   2.724   2.907
  890SOL    HW1  444   1.285   2.724   2.841
  890SOL    HW2  445   1.397   2.632   2.916
  891SOL     OW  446   1.209   2.387   2.137
  891SOL    HW1  447   1.222   2.303   2.191
  891SOL    HW2  448   1.180   2.461   2.197
  894SOL     OW  449   0.732   2.496   2.926
  894SOL    HW1  450   0.791   2.470   2.850
  894SOL    HW2  451   0.704   2.592   2.915
  895SOL     OW  452   1.728   2.797   3.716
  895SOL    HW1  453   1.682   2.790   3.627
  895SOL    HW2  454   1.666   2.841   3.782
  897SOL     OW  455   1.622   2.229   2.236
  897SOL    HW1  456   1.624   2.153   2.300
  897SOL    HW2  457   1.574   2.306   2.276
  898SOL     OW  458   1.023   2.628   2.828
  898SOL    HW1  459   1.038   2.649   2.924
  898SOL    HW2  460   0.993   2.533   2.819
  900SOL     OW  461   1.859   3.380   3.467
  900SOL    HW1  462   1.873   3.407   3.372
  900SOL    HW2  463   1.942   3.402   3.520
  902SOL     OW  464   1.540   2.136   1.987
  902SOL    HW1  465   1.479   2.061   2.010
  902SOL    HW2  466   1.562   2.188   2.070
  903SOL     OW  467   1.303   2.700   1.904
  903SOL    HW1  468   1.337   2.607   1.919
  903SOL    HW2  469   1.321   2.727   1.809
  904SOL     OW  470   1.068   3.195   2.711
  904SOL    HW1  471   1.075   3.111   2.656
  904SOL    HW2  472   1.130   3.264   2.675
  907SOL     OW  473   1.138   2.242   3.540
  907SOL    HW1  474   1.093   2.305   3.604
  907SOL    HW2  475   1.231   2.273   3.523
  908SOL     OW  476   1.160   2.069   3.339
  908SOL    HW1  477   1.160   2.133   3.416
  908SOL    HW2  478   1.188   2.117   3.256
  912SOL     OW  479   1.002   2.658   3.100
  912SOL    HW1  480   1.043   2.626   3.186
  912SOL    HW2  481   0.906   2.631   3.097
  915SOL     OW  482   1.369   2.812   3.522
  915SOL    HW1  483   1.408   2.901   3.542
  915SOL    HW2  484   1.379   2.792   3.425
  916SOL     OW  485   0.815   2.434   2.187
  916SOL    HW1  486   0.822   2.345   2.141
  916SOL    HW2  487   0.721   2.468   2.179
  917SOL     OW  488   1.657   2.466   3.068
  917SOL    HW1  489   1.619   2.397   3.130
  917SOL    HW2  490   1.739   2.430   3.024
  923SOL     OW  491   1.347   2.921   3.096
  923SOL    HW1  492   1.371   2.858   3.022
  923SOL    HW2  493   1.257   2.961   3.078
  924SOL     OW  494   1.302   2.717   2.171
  924SOL    HW1  495   1.216   2.686   2.213
  924SOL    HW2  496   1.298   2.703   2.072
  925SOL     OW  497   1.759   3.609   3.016
  925SOL    HW1  498   1.820   3.639   2.943
  925SOL    HW2  499   1.721   3.520   2.994
  926SOL     OW  500   1.252   3.593   2.990
  926SOL    HW1  501   1.336   3.598   2.936
  926SOL    HW2  502   1.229   3.497   3.008
  929SOL     OW  503   1.726   1.997   2.385
  929SOL    HW1  504   1.799   1.980   2.318
  929SOL    HW2  505   1.695   1.910   2.423
  930SOL     OW  506   1.388   3.435   2.339
  930SOL    HW1  507   1.455   3.447   2.265
  930SOL    HW2  508   1.348   3.524   2.362
  932SOL     OW  509   1.280   2.789   2.534
  932SOL    HW1  510   1.340   2.708   2.536
  932SOL    HW2  511   1.320   2.858   2.474
  935SOL     OW  512   1.650   3.582   3.256
  935SOL    HW1  513   1.703   3.592   3.172
  935SOL    HW2  514   1.623   3.672   3.290
  936SOL     OW  515   1.841   2.037   2.825
  936SOL    HW1  516   1.880   1.952   2.789
  936SOL    HW2  517   1.743   2.039   2.806
  938SOL     OW  518   1.194   3.474   1.893
  938SOL    HW1  519   1.200   3.381   1.930
  938SOL    HW2  520   1.135   3.474   1.813
  940SOL     OW  521   0.916   2.772   2.153
  940SOL    HW1  522   0.979   2.810   2.085
  940SOL    HW2  523   0.956   2.689   2.192
  941SOL     OW  524   1.504   3.469   1.906
  941SOL    HW1  525   1.412   3.506   1.913
  941SOL    HW2  526   1.542   3.489   1.816
  943SOL     OW  527   1.614   3.154   3.151
  943SOL    HW1  528   1.674   3.157   3.231
  943SOL    HW2  529   1.539   3.218   3.164
  944SOL     OW  530   1.039   2.960   2.558
  944SOL    HW1  531   0.969   2.913   2.612
  944SOL    HW2  532   1.098   2.892   2.515
  945SOL     OW  533   1.014   2.098   2.833
  945SOL    HW1  534   1.006   2.062   2.740
  945SOL    HW2  535   1.012   2.022   2.898
  947SOL     OW  536   1.709   2.247   3.243
  947SOL    HW1  537   1.782   2.316   3.247
  947SOL    HW2  538   1.737   2.172   3.184
  952SOL     OW  539   1.440   2.718   3.260
  952SOL    HW1  540   1.383   2.770   3.197
  952SOL    HW2  541   1.536   2.730   3.236
  954SOL     OW  542   1.183   3.197   1.981
  954SOL    HW1  543   1.084   3.186   1.983
  954SOL    HW2  544   1.217   3.212   2.074
  956SOL     OW  545   1.493   3.629   2.821
  956SOL    HW1  546   1.526   3.693   2.752
  956SOL    HW2  547   1.559   3.623   2.896
  958SOL     OW  548   1.450   3.082   3.495
  958SOL    HW1  549   1.441   3.072   3.594
  958SOL    HW2  550   1.546   3.075   3.469
  960SOL     OW  551   1.674   2.745   3.116
  960SOL    HW1  552   1.647   2.656   3.079
  960SOL    HW2  553   1.675   2.813   3.043
  961SOL     OW  554   1.225   2.187   2.311
  961SOL    HW1  555   1.290   2.113   2.300
  961SOL    HW2  556   1.245   2.237   2.395
  963SOL     OW  557   1.777   2.204   3.504
  963SOL    HW1  558   1.760   2.235   3.410
  963SOL    HW2  559   1.693   2.167   3.542
  964SOL     OW  560   1.730   2.796   3.379
  964SOL    HW1  561   1.768   2.887   3.394
  964SOL    HW2  562   1.722   2.779   3.280
  967SOL     OW  563   0.859   2.818   2.723
  967SOL    HW1  564   0.913   2.749   2.771
  967SOL    HW2  565   0.827   2.887   2.789
  968SOL     OW  566   1.083   2.846   1.949
  968SOL    HW1  567   1.060   2.899   1.867
  968SOL    HW2  568   1.164   2.790   1.930
  969SOL     OW  569   1.861   3.431   2.713
  969SOL    HW1  570   1.790   3.419   2.643
  969SOL    HW2  571   1.862   3.352   2.773
  973SOL     OW  572   1.824   2.054   3.089
  973SOL    HW1  573   1.820   1.964   3.133
  973SOL    HW2  574   1.827   2.043   2.990
  975SOL     OW  575   1.705   3.349   2.966
  975SOL    HW1  576   1.612   3.324   2.939
  975SOL    HW2  577   1.731   3.299   3.048
  978SOL     OW  578   1.424   2.076   2.974
  978SOL    HW1  579   1.476   2.011   3.029
  978SOL    HW2  580   1.375   2.139   3.035
  979SOL     OW  581   1.001   1.896   3.016
  979SOL    HW1  582   0.938   1.824   2.985
  979SOL    HW2  583   1.094   1.860   3.016
  982SOL     OW  584   1.352   1.914   2.030
  982SOL    HW1  585   1.387   1.873   1.946
  982SOL    HW2  586   1.262   1.876   2.050
  983SOL     OW  587   1.300   2.315   2.553
  983SOL    HW1  588   1.241   2.395   2.557
  983SOL    HW2  589   1.315   2.280   2.646
  984SOL     OW  590   1.593   2.083   2.744
  984SOL    HW1  591   1.509   2.082   2.798
  984SOL    HW2  592   1.595   2.166   2.688
  993SOL     OW  593   1.755   2.469   3.955
  993SOL    HW1  594   1.743   2.456   3.856
  993SOL    HW2  595   1.725   2.388   4.004
 1010SOL     OW  596   1.525   2.861   3.914
 1010SOL    HW1  597   1.462   2.785   3.927
 1010SOL    HW2  598   1.573   2.879   4.000
 1027SOL     OW  599   1.632   3.239   3.805
 1027SOL    HW1  600   1.600   3.333   3.795
 1027SOL    HW2  601   1.556   3.176   3.793
 1037SOL     OW  602   1.434   3.050   3.765
 1037SOL    HW1  603   1.466   2.974   3.822
 1037SOL    HW2  604   1.342   3.077   3.795
 1048SOL     OW  605   1.857   2.695   4.101
 1048SOL    HW1  606   1.899   2.631   4.165
 1048SOL    HW2  607   1.819   2.644   4.023
 1051SOL     OW  608   1.390   2.437   3.802
 1051SOL    HW1  609   1.336   2.416   3.883
 1051SOL    HW2  610   1.481   2.396   3.811
 1070SOL     OW  611   1.540   2.136   3.849
 1070SOL    HW1  612   1.479   2.061   3.872
 1070SOL    HW2  613   1.562   2.188   3.932
 1071SOL     OW  614   1.303   2.700   3.766
 1071SOL    HW1  615   1.337   2.607   3.781
 1071SOL    HW2  616   1.321   2.727   3.671
 1299SOL     OW  617   1.400   3.831   2.288
 1299SOL    HW1  618   1.376   3.794   2.198
 1299SOL    HW2  619   1.499   3.847   2.292
 1363SOL     OW  620   1.726   3.859   2.385
 1363SOL    HW1  621   1.799   3.842   2.318
 1363SOL    HW2  622   1.695   3.772   2.423
 1365SOL     OW  623   1.841   3.899   2.825
 1365SOL    HW1  624   1.880   3.814   2.789
 1365SOL    HW2  625   1.743   3.901   2.806
 1389SOL     OW  626   1.824   3.916   3.089
 1389SOL    HW1  627   1.820   3.826   3.133
 1389SOL    HW2  628   1.827   3.905   2.990
 1395SOL     OW  629   1.352   3.776   2.030
 1395SOL    HW1  630   1.387   3.735   1.946
 1395SOL    HW2  631   1.262   3.738   2.050
 1397SOL     OW  632   1.593   3.945   2.744
 1397SOL    HW1  633   1.509   3.944   2.798
 1397SOL    HW2  634   1.595   4.028   2.688
 1493SOL     OW  635   2.431   1.275   1.165
 1493SOL    HW1  636   2.338   1.268   1.128
 1493SOL    HW2  637   2.442   1.364   1.209
 1500SOL     OW  638   2.548   1.161   1.803
 1500SOL    HW1  639   2.608   1.240   1.817
 1500SOL    HW2  640   2.462   1.192   1.762
 1501SOL     OW  641   2.197   1.435   1.061
 1501SOL    HW1  642   2.119   1.404   1.008
 1501SOL    HW2  643   2.255   1.493   1.004
 1502SOL     OW  644   3.322   1.505   1.339
 1502SOL    HW1  645   3.346   1.599   1.365
 1502SOL    HW2  646   3.306   1.451   1.421
 1506SOL     OW  647   2.989   1.341   1.690
 1506SOL    HW1  648   3.036   1.341   1.778
 1506SOL    HW2  649   2.941   1.254   1.679
 1509SOL     OW  650   2.482   1.786   1.439
 1509SOL    HW1  651   2.390   1.769   1.474
 1509SOL    HW2  652   2.510   1.878   1.465
 1519SOL     OW  653   3.155   1.228   1.423
 1519SOL    HW1  654   3.192   1.155   1.365
 1519SOL    HW2  655   3.207   1.233   1.508
 1523SOL     OW  656   3.049   1.792   1.616
 1523SOL    HW1  657   3.073   1.852   1.540
 1523SOL    HW2  658   3.056   1.697   1.586
 1536SOL     OW  659   1.992   1.821   1.571
 1536SOL    HW1  660   1.982   1.806   1.670
 1536SOL    HW2  661   1.906   1.857   1.535
 1542SOL     OW  662   2.213   1.801   0.853
 1542SOL    HW1  663   2.263   1.715   0.859
 1542SOL    HW2  664   2.278   1.878   0.850
 1544SOL     OW  665   3.089   1.550   1.506
 1544SOL    HW1  666   3.095   1.473   1.570
 1544SOL    HW2  667   3.037   1.524   1.426
 1547SOL     OW  668   2.323   1.266   1.727
 1547SOL    HW1  669   2.273   1.267   1.641
 1547SOL    HW2  670   2.260   1.248   1.803
 1553SOL     OW  671   2.111   1.785   1.241
 1553SOL    HW1  672   2.168   1.720   1.291
 1553SOL    HW2  673   2.095   1.752   1.148
 1554SOL     OW  674   2.802   1.698   0.904
 1554SOL    HW1  675   2.882   1.641   0.925
 1554SOL    HW2  676   2.753   1.658   0.827
 1559SOL     OW  677   2.750   1.514   1.195
 1559SOL    HW1  678   2.727   1.489   1.101
 1559SOL    HW2  679   2.811   1.445   1.234
 1584SOL     OW  680   2.926   1.347   1.340
 1584SOL    HW1  681   2.846   1.324   1.395
 1584SOL    HW2  682   3.009   1.321   1.389
 1585SOL     OW  683   3.454   1.629   1.625
 1585SOL    HW1  684   3.481   1.663   1.535
 1585SOL    HW2  685   3.533   1.591   1.671
 1589SOL     OW  686   2.842   1.116   1.719
 1589SOL    HW1  687   2.743   1.122   1.729
 1589SOL    HW2  688   2.865   1.036   1.663
 1593SOL     OW  689   1.926   1.564   1.331
 1593SOL    HW1  690   1.880   1.646   1.297
 1593SOL    HW2  691   2.024   1.583   1.340
 1597SOL     OW  692   3.134   1.445   1.142
 1597SOL    HW1  693   3.181   1.458   1.229
 1597SOL    HW2  694   3.068   1.371   1.151
 1599SOL     OW  695   2.216   1.510   1.329
 1599SOL    HW1  696   2.195   1.466   1.242
 1599SOL    HW2  697   2.313   1.536   1.332
 1608SOL     OW  698   1.899   1.310   1.282
 1608SOL    HW1  699   1.952   1.261   1.350
 1608SOL    HW2  700   1.921   1.408   1.287
 1614SOL     OW  701   2.842   1.573   1.700
 1614SOL    HW1  702   2.822   1.617   1.612
 1614SOL    HW2  703   2.881   1.482   1.684
 1615SOL     OW  704   3.721   1.518   1.605
 1615SOL    HW1  705   3.735   1.545   1.510
 1615SOL    HW2  706   3.804   1.540   1.658
 1616SOL     OW  707   2.212   0.898   1.804
 1616SOL    HW1  708   2.288   0.942   1.852
 1616SOL    HW2  709   2.247   0.851   1.722
 1625SOL     OW  710   1.950   1.801   0.927
 1625SOL    HW1  711   1.908   1.715   0.900
 1625SOL    HW2  712   2.044   1.804   0.893
 1626SOL     OW  713   2.366   1.568   0.910
 1626SOL    HW1  714   2.432   1.642   0.919
 1626SOL    HW2  715   2.410   1.489   0.868
 1633SOL     OW  716   2.114   1.564   1.744
 1633SOL    HW1  717   2.084   1.621   1.820
 1633SOL    HW2  718   2.107   1.467   1.770
 1635SOL     OW  719   2.792   1.678   1.465
 1635SOL    HW1  720   2.768   1.660   1.370
 1635SOL    HW2  721   2.822   1.772   1.475
 1637SOL     OW  722   2.021   1.137   1.466
 1637SOL    HW1  723   2.043   1.076   1.542
 1637SOL    HW2  724   2.031   1.088   1.380
 1641SOL     OW  725   3.114   1.731   1.128
 1641SOL    HW1  726   3.198   1.736   1.074
 1641SOL    HW2  727   3.091   1.635   1.146
 1643SOL     OW  728   2.550   1.662   1.716
 1643SOL    HW1  729   2.494   1.743   1.725
 1643SOL    HW2  730   2.602   1.666   1.630
 1647SOL     OW  731   1.992   1.794   1.851
 1647SOL    HW1  732   1.951   1.720   1.904
 1647SOL    HW2  733   2.056   1.845   1.909
 1649SOL     OW  734   2.692   1.273   1.422
 1649SOL    HW1  735   2.687   1.306   1.517
 1649SOL    HW2  736   2.606   1.292   1.376
 1651SOL     OW  737   3.512   1.720   1.394
 1651SOL    HW1  738   3.565   1.730   1.310
 1651SOL    HW2  739   3.485   1.810   1.428
 1658SOL     OW  740   2.234   1.288   1.490
 1658SOL    HW1  741   2.221   1.381   1.456
 1658SOL    HW2  742   2.150   1.236   1.477
 1665SOL     OW  743   1.967   1.013   1.726
 1665SOL    HW1  744   1.890   0.980   1.780
 1665SOL    HW2  745   2.052   0.983   1.768
 1673SOL     OW  746   3.312   1.220   1.633
 1673SOL    HW1  747   3.303   1.210   1.732
 1673SOL    HW2  748   3.408   1.213   1.607
 1674SOL     OW  749   2.252   1.741   1.560
 1674SOL    HW1  750   2.161   1.782   1.558
 1674SOL    HW2  751   2.245   1.647   1.592
 1681SOL     OW  752   2.523   1.790   0.953
 1681SOL    HW1  753   2.477   1.878   0.940
 1681SOL    HW2  754   2.622   1.802   0.946
 1685SOL     OW  755   2.083   1.314   1.844
 1685SOL    HW1  756   2.018   1.241   1.823
 1685SOL    HW2  757   2.087   1.328   1.942
 1687SOL     OW  758   2.534   1.391   1.624
 1687SOL    HW1  759   2.456   1.341   1.662
 1687SOL    HW2  760   2.531   1.486   1.655
 1696SOL     OW  761   2.480   1.567   1.284
 1696SOL    HW1  762   2.475   1.649   1.341
 1696SOL    HW2  763   2.569   1.564   1.239
 1705SOL     OW  764   2.431   1.275   3.027
 1705SOL    HW1  765   2.338   1.268   2.990
 1705SOL    HW2  766   2.442   1.364   3.071
 1706SOL     OW  767   3.417   1.511   2.565
 1706SOL    HW1  768   3.360   1.495   2.646
 1706SOL    HW2  769   3.358   1.521   2.485
 1709SOL     OW  770   2.630   1.144   2.885
 1709SOL    HW1  771   2.552   1.161   2.945
 1709SOL    HW2  772   2.664   1.231   2.849
 1711SOL     OW  773   2.547   1.012   2.527
 1711SOL    HW1  774   2.616   0.996   2.597
 1711SOL    HW2  775   2.474   1.069   2.565
 1712SOL     OW  776   2.548   1.161   3.665
 1712SOL    HW1  777   2.608   1.240   3.679
 1712SOL    HW2  778   2.462   1.192   3.624
 1713SOL     OW  779   2.197   1.435   2.923
 1713SOL    HW1  780   2.119   1.404   2.870
 1713SOL    HW2  781   2.255   1.493   2.866
 1714SOL     OW  782   3.322   1.505   3.201
 1714SOL    HW1  783   3.346   1.599   3.227
 1714SOL    HW2  784   3.306   1.451   3.283
 1717SOL     OW  785   2.093   1.713   2.345
 1717SOL    HW1  786   2.127   1.790   2.399
 1717SOL    HW2  787   2.137   1.713   2.255
 1718SOL     OW  788   2.989   1.341   3.552
 1718SOL    HW1  789   3.036   1.341   3.640
 1718SOL    HW2  790   2.941   1.254   3.541
 1719SOL     OW  791   2.092   1.434   2.400
 1719SOL    HW1  792   2.066   1.530   2.400
 1719SOL    HW2  793   2.021   1.380   2.445
 1720SOL     OW  794   2.102   1.091   2.748
 1720SOL    HW1  795   2.116   1.007   2.800
 1720SOL    HW2  796   2.047   1.155   2.803
 1721SOL     OW  797   2.482   1.786   3.301
 1721SOL    HW1  798   2.390   1.769   3.336
 1721SOL    HW2  799   2.510   1.878   3.327
 1722SOL     OW  800   2.468   0.964   1.985
 1722SOL    HW1  801   2.475   1.048   1.931
 1722SOL    HW2  802   2.514   0.977   2.073
 1725SOL     OW  803   3.704   1.767   2.221
 1725SOL    HW1  804   3.758   1.738   2.301
 1725SOL    HW2  805   3.734   1.857   2.192
 1726SOL     OW  806   1.889   1.596   1.979
 1726SOL    HW1  807   1.870   1.500   2.000
 1726SOL    HW2  808   1.856   1.654   2.054
 1728SOL     OW  809   3.503   1.108   2.294
 1728SOL    HW1  810   3.589   1.110   2.242
 1728SOL    HW2  811   3.517   1.155   2.382
 1730SOL     OW  812   2.475   1.365   2.588
 1730SOL    HW1  813   2.426   1.278   2.597
 1730SOL    HW2  814   2.452   1.408   2.501
 1731SOL     OW  815   3.155   1.228   3.285
 1731SOL    HW1  816   3.192   1.155   3.227
 1731SOL    HW2  817   3.207   1.233   3.370
 1733SOL     OW  818   2.059   0.976   3.126
 1733SOL    HW1  819   2.148   0.931   3.112
 1733SOL    HW2  820   1.986   0.911   3.107
 1734SOL     OW  821   3.387   0.999   2.052
 1734SOL    HW1  822   3.324   0.923   2.065
 1734SOL    HW2  823   3.435   1.017   2.138
 1735SOL     OW  824   3.049   1.792   3.478
 1735SOL    HW1  825   3.073   1.852   3.402
 1735SOL    HW2  826   3.056   1.697   3.448
 1737SOL     OW  827   3.328   1.417   2.815
 1737SOL    HW1  828   3.269   1.423   2.895
 1737SOL    HW2  829   3.313   1.329   2.769
 1738SOL     OW  830   3.529   1.714   2.434
 1738SOL    HW1  831   3.488   1.691   2.346
 1738SOL    HW2  832   3.511   1.640   2.499
 1739SOL     OW  833   2.460   0.729   2.132
 1739SOL    HW1  834   2.484   0.798   2.064
 1739SOL    HW2  835   2.382   0.762   2.186
 1741SOL     OW  836   3.438   1.662   2.169
 1741SOL    HW1  837   3.527   1.708   2.172
 1741SOL    HW2  838   3.417   1.638   2.074
 1747SOL     OW  839   1.938   0.811   2.651
 1747SOL    HW1  840   2.037   0.799   2.660
 1747SOL    HW2  841   1.914   0.906   2.672
 1748SOL     OW  842   1.992   1.821   3.433
 1748SOL    HW1  843   1.982   1.806   3.532
 1748SOL    HW2  844   1.906   1.857   3.397
 1751SOL     OW  845   3.224   1.144   2.407
 1751SOL    HW1  846   3.307   1.115   2.359
 1751SOL    HW2  847   3.175   1.211   2.351
 1753SOL     OW  848   2.870   1.456   2.339
 1753SOL    HW1  849   2.824   1.528   2.287
 1753SOL    HW2  850   2.866   1.476   2.437
 1754SOL     OW  851   2.213   1.801   2.715
 1754SOL    HW1  852   2.263   1.715   2.721
 1754SOL    HW2  853   2.278   1.878   2.712
 1756SOL     OW  854   3.089   1.550   3.368
 1756SOL    HW1  855   3.095   1.473   3.432
 1756SOL    HW2  856   3.037   1.524   3.288
 1757SOL     OW  857   2.183   0.943   2.104
 1757SOL    HW1  858   2.265   0.982   2.062
 1757SOL    HW2  859   2.156   0.861   2.055
 1759SOL     OW  860   2.323   1.266   3.589
 1759SOL    HW1  861   2.273   1.267   3.503
 1759SOL    HW2  862   2.260   1.248   3.665
 1760SOL     OW  863   2.973   1.776   2.099
 1760SOL    HW1  864   2.913   1.714   2.149
 1760SOL    HW2  865   3.004   1.732   2.014
 1762SOL     OW  866   3.494   1.377   1.943
 1762SOL    HW1  867   3.462   1.471   1.933
 1762SOL    HW2  868   3.418   1.314   1.931
 1763SOL     OW  869   2.326   1.743   2.185
 1763SOL    HW1  870   2.359   1.782   2.271
 1763SOL    HW2  871   2.402   1.736   2.120
 1765SOL     OW  872   2.111   1.785   3.103
 1765SOL    HW1  873   2.168   1.720   3.153
 1765SOL    HW2  874   2.095   1.752   3.010
 1766SOL     OW  875   2.802   1.698   2.766
 1766SOL    HW1  876   2.882   1.641   2.787
 1766SOL    HW2  877   2.753   1.658   2.689
 1767SOL     OW  878   2.244   0.700   2.342
 1767SOL    HW1  879   2.289   0.610   2.339
 1767SOL    HW2  880   2.150   0.689   2.375
 1771SOL     OW  881   2.750   1.514   3.057
 1771SOL    HW1  882   2.727   1.489   2.963
 1771SOL    HW2  883   2.811   1.445   3.096
 1773SOL     OW  884   2.665   1.402   2.786
 1773SOL    HW1  885   2.755   1.416   2.744
 1773SOL    HW2  886   2.594   1.404   2.715
 1776SOL     OW  887   3.296   1.188   1.903
 1776SOL    HW1  888   3.328   1.112   1.960
 1776SOL    HW2  889   3.204   1.215   1.933
 1780SOL     OW  890   3.089   1.570   2.655
 1780SOL    HW1  891   3.110   1.644   2.590
 1780SOL    HW2  892   3.157   1.570   2.728
 1781SOL     OW  893   2.321   1.152   2.603
 1781SOL    HW1  894   2.250   1.125   2.668
 1781SOL    HW2  895   2.295   1.124   2.510
 1782SOL     OW  896   3.133   1.797   2.453
 1782SOL    HW1  897   3.177   1.861   2.389
 1782SOL    HW2  898   3.083   1.849   2.523
 1788SOL     OW  899   3.291   1.173   2.729
 1788SOL    HW1  900   3.236   1.089   2.722
 1788SOL    HW2  901   3.317   1.202   2.637
 1791SOL     OW  902   2.350   1.385   2.036
 1791SOL    HW1  903   2.263   1.370   2.083
 1791SOL    HW2  904   2.333   1.411   1.941
 1792SOL     OW  905   3.526   1.280   2.519
 1792SOL    HW1  906   3.625   1.288   2.533
 1792SOL    HW2  907   3.481   1.364   2.550
 1796SOL     OW  908   2.926   1.347   3.202
 1796SOL    HW1  909   2.846   1.324   3.257
 1796SOL    HW2  910   3.009   1.321   3.251
 1797SOL     OW  911   3.454   1.629   3.487
 1797SOL    HW1  912   3.481   1.663   3.397
 1797SOL    HW2  913   3.533   1.591   3.533
 1798SOL     OW  914   2.973   1.195   2.962
 1798SOL    HW1  915   2.933   1.239   3.043
 1798SOL    HW2  916   2.932   1.232   2.879
 1799SOL     OW  917   3.500   1.099   2.941
 1799SOL    HW1  918   3.505   1.180   3.000
 1799SOL    HW2  919   3.414   1.101   2.890
 1801SOL     OW  920   2.842   1.116   3.581
 1801SOL    HW1  921   2.743   1.122   3.591
 1801SOL    HW2  922   2.865   1.036   3.525
 1802SOL     OW  923   2.567   1.050   2.230
 1802SOL    HW1  924   2.553   1.057   2.329
 1802SOL    HW2  925   2.651   0.999   2.212
 1803SOL     OW  926   2.272   0.813   3.113
 1803SOL    HW1  927   2.358   0.825   3.163
 1803SOL    HW2  928   2.230   0.726   3.140
 1805SOL     OW  929   1.926   1.564   3.193
 1805SOL    HW1  930   1.880   1.646   3.159
 1805SOL    HW2  931   2.024   1.583   3.202
 1806SOL     OW  932   2.229   1.100   2.363
 1806SOL    HW1  933   2.222   1.183   2.307
 1806SOL    HW2  934   2.233   1.020   2.303
 1808SOL     OW  935   3.114   1.348   2.250
 1808SOL    HW1  936   3.164   1.425   2.290
 1808SOL    HW2  937   3.019   1.350   2.282
 1809SOL     OW  938   3.134   1.445   3.004
 1809SOL    HW1  939   3.181   1.458   3.091
 1809SOL    HW2  940   3.068   1.371   3.013
 1811SOL     OW  941   2.216   1.510   3.191
 1811SOL    HW1  942   2.195   1.466   3.104
 1811SOL    HW2  943   2.313   1.536   3.194
 1816SOL     OW  944   2.435   0.870   2.891
 1816SOL    HW1  945   2.479   0.959   2.882
 1816SOL    HW2  946   2.372   0.870   2.968
 1820SOL     OW  947   1.899   1.310   3.144
 1820SOL    HW1  948   1.952   1.261   3.212
 1820SOL    HW2  949   1.921   1.408   3.149
 1825SOL     OW  950   2.885   0.766   2.828
 1825SOL    HW1  951   2.900   0.787   2.924
 1825SOL    HW2  952   2.855   0.671   2.819
 1826SOL     OW  953   2.842   1.573   3.562
 1826SOL    HW1  954   2.822   1.617   3.474
 1826SOL    HW2  955   2.881   1.482   3.546
 1831SOL     OW  956   2.930   1.333   2.711
 1831SOL    HW1  957   2.937   1.249   2.656
 1831SOL    HW2  958   2.992   1.402   2.675
 1832SOL     OW  959   2.181   0.810   2.811
 1832SOL    HW1  960   2.274   0.846   2.816
 1832SOL    HW2  961   2.175   0.725   2.863
 1836SOL     OW  962   1.870   1.326   2.062
 1836SOL    HW1  963   1.777   1.347   2.031
 1836SOL    HW2  964   1.880   1.227   2.075
 1837SOL     OW  965   1.950   1.801   2.789
 1837SOL    HW1  966   1.908   1.715   2.762
 1837SOL    HW2  967   2.044   1.804   2.755
 1838SOL     OW  968   2.366   1.568   2.772
 1838SOL    HW1  969   2.432   1.642   2.781
 1838SOL    HW2  970   2.410   1.489   2.730
 1845SOL     OW  971   2.114   1.564   3.606
 1845SOL    HW1  972   2.084   1.621   3.682
 1845SOL    HW2  973   2.107   1.467   3.632
 1847SOL     OW  974   2.792   1.678   3.327
 1847SOL    HW1  975   2.768   1.660   3.232
 1847SOL    HW2  976   2.822   1.772   3.337
 1849SOL     OW  977   2.021   1.137   3.328
 1849SOL    HW1  978   2.043   1.076   3.404
 1849SOL    HW2  979   2.031   1.088   3.242
 1850SOL     OW  980   3.209   1.059   3.096
 1850SOL    HW1  981   3.233   0.996   3.022
 1850SOL    HW2  982   3.119   1.099   3.078
 1851SOL     OW  983   3.164   0.855   2.171
 1851SOL    HW1  984   3.078   0.824   2.213
 1851SOL    HW2  985   3.160   0.841   2.072
 1852SOL     OW  986   3.621   1.747   3.016
 1852SOL    HW1  987   3.682   1.777   2.943
 1852SOL    HW2  988   3.583   1.658   2.994
 1853SOL     OW  989   3.114   1.731   2.990
 1853SOL    HW1  990   3.198   1.736   2.936
 1853SOL    HW2  991   3.091   1.635   3.008
 1854SOL     OW  992   1.945   1.258   2.884
 1854SOL    HW1  993   1.940   1.257   2.984
 1854SOL    HW2  994   1.862   1.217   2.846
 1855SOL     OW  995   2.550   1.662   3.578
 1855SOL    HW1  996   2.494   1.743   3.587
 1855SOL    HW2  997   2.602   1.666   3.492
 1857SOL     OW  998   3.250   1.573   2.339
 1857SOL    HW1  999   3.317   1.585   2.265
 1857SOL    HW2 1000   3.210   1.662   2.362
 1858SOL     OW 1001   1.992   1.794   3.713
 1858SOL    HW1 1002   1.951   1.720   3.766
 1858SOL    HW2 1003   2.056   1.845   3.771
 1859SOL     OW 1004   3.142   0.927   2.534
 1859SOL    HW1 1005   3.202   0.846   2.536
 1859SOL    HW2 1006   3.182   0.996   2.474
 1860SOL     OW 1007   2.692   1.273   3.284
 1860SOL    HW1 1008   2.687   1.306   3.379
 1860SOL    HW2 1009   2.606   1.292   3.238
 1861SOL     OW 1010   2.534   1.616   2.016
 1861SOL    HW1 1011   2.543   1.626   1.917
 1861SOL    HW2 1012   2.494   1.527   2.037
 1862SOL     OW 1013   3.512   1.720   3.256
 1862SOL    HW1 1014   3.565   1.730   3.172
 1862SOL    HW2 1015   3.485   1.810   3.290
 1865SOL     OW 1016   3.056   1.612   1.893
 1865SOL    HW1 1017   3.062   1.519   1.930
 1865SOL    HW2 1018   2.997   1.612   1.813
 1866SOL     OW 1019   2.684   1.002   3.234
 1866SOL    HW1 1020   2.724   1.001   3.142
 1866SOL    HW2 1021   2.694   1.094   3.274
 1867SOL     OW 1022   2.778   0.910   2.153
 1867SOL    HW1 1023   2.841   0.948   2.085
 1867SOL    HW2 1024   2.818   0.827   2.192
 1868SOL     OW 1025   3.366   1.607   1.906
 1868SOL    HW1 1026   3.274   1.644   1.913
 1868SOL    HW2 1027   3.404   1.627   1.816
 1869SOL     OW 1028   2.234   1.288   3.352
 1869SOL    HW1 1029   2.221   1.381   3.318
 1869SOL    HW2 1030   2.150   1.236   3.339
 1870SOL     OW 1031   3.476   1.292   3.151
 1870SOL    HW1 1032   3.536   1.295   3.231
 1870SOL    HW2 1033   3.401   1.356   3.164
 1871SOL     OW 1034   2.901   1.098   2.558
 1871SOL    HW1 1035   2.831   1.051   2.612
 1871SOL    HW2 1036   2.960   1.030   2.515
 1873SOL     OW 1037   2.452   1.487   2.353
 1873SOL    HW1 1038   2.494   1.429   2.283
 1873SOL    HW2 1039   2.408   1.566   2.309
 1875SOL     OW 1040   2.117   1.348   2.152
 1875SOL    HW1 1041   2.021   1.349   2.125
 1875SOL    HW2 1042   2.129   1.401   2.236
 1881SOL     OW 1043   3.045   1.335   1.981
 1881SOL    HW1 1044   2.946   1.324   1.983
 1881SOL    HW2 1045   3.079   1.350   2.074
 1883SOL     OW 1046   3.355   1.767   2.821
 1883SOL    HW1 1047   3.388   1.831   2.752
 1883SOL    HW2 1048   3.421   1.761   2.896
 1886SOL     OW 1049   2.252   1.741   3.422
 1886SOL    HW1 1050   2.161   1.782   3.420
 1886SOL    HW2 1051   2.245   1.647   3.454
 1889SOL     OW 1052   2.456   0.745   2.514
 1889SOL    HW1 1053   2.506   0.830   2.495
 1889SOL    HW2 1054   2.368   0.747   2.466
 1892SOL     OW 1055   2.721   1.374   1.878
 1892SOL    HW1 1056   2.675   1.389   1.966
 1892SOL    HW2 1057   2.765   1.459   1.848
 1893SOL     OW 1058   2.523   1.790   2.815
 1893SOL    HW1 1059   2.477   1.878   2.802
 1893SOL    HW2 1060   2.622   1.802   2.808
 1894SOL     OW 1061   2.721   0.956   2.723
 1894SOL    HW1 1062   2.775   0.887   2.771
 1894SOL    HW2 1063   2.689   1.025   2.789
 1895SOL     OW 1064   2.945   0.984   1.949
 1895SOL    HW1 1065   2.922   1.037   1.867
 1895SOL    HW2 1066   3.026   0.928   1.930
 1896SOL     OW 1067   3.723   1.569   2.713
 1896SOL    HW1 1068   3.652   1.557   2.643
 1896SOL    HW2 1069   3.724   1.490   2.773
 1897SOL     OW 1070   2.083   1.314   3.706
 1897SOL    HW1 1071   2.018   1.241   3.685
 1897SOL    HW2 1072   2.087   1.328   3.804
 1898SOL     OW 1073   1.941   1.240   2.515
 1898SOL    HW1 1074   1.940   1.193   2.603
 1898SOL    HW2 1075   2.023   1.212   2.464
 1899SOL     OW 1076   2.534   1.391   3.486
 1899SOL    HW1 1077   2.456   1.341   3.524
 1899SOL    HW2 1078   2.531   1.486   3.517
 1902SOL     OW 1079   3.567   1.487   2.966
 1902SOL    HW1 1080   3.474   1.462   2.939
 1902SOL    HW2 1081   3.593   1.437   3.048
 1904SOL     OW 1082   2.674   1.586   2.549
 1904SOL    HW1 1083   2.706   1.596   2.455
 1904SOL    HW2 1084   2.595   1.524   2.551
 1907SOL     OW 1085   2.632   1.330   2.163
 1907SOL    HW1 1086   2.586   1.243   2.180
 1907SOL    HW2 1087   2.723   1.327   2.204
 1908SOL     OW 1088   2.480   1.567   3.146
 1908SOL    HW1 1089   2.475   1.649   3.203
 1908SOL    HW2 1090   2.569   1.564   3.101
 1912SOL     OW 1091   1.901   1.077   2.162
 1912SOL    HW1 1092   2.000   1.066   2.153
 1912SOL    HW2 1093   1.861   0.991   2.194
 1913SOL     OW 1094   2.737   1.646   2.199
 1913SOL    HW1 1095   2.660   1.611   2.145
 1913SOL    HW2 1096   2.705   1.717   2.261
 1931SOL     OW 1097   1.889   1.596   3.841
 1931SOL    HW1 1098   1.870   1.500   3.862
 1931SOL    HW2 1099   1.856   1.654   3.916
 1953SOL     OW 1100   2.973   1.776   3.961
 1953SOL    HW1 1101   2.913   1.714   4.011
 1953SOL    HW2 1102   3.004   1.732   3.876
 1955SOL     OW 1103   2.326   1.743   4.047
 1955SOL    HW1 1104   2.359   1.782   4.133
 1955SOL    HW2 1105   2.402   1.736   3.982
 1976SOL     OW 1106   2.350   1.385   3.898
 1976SOL    HW1 1107   2.263   1.370   3.945
 1976SOL    HW2 1108   2.333   1.411   3.803
 2016SOL     OW 1109   2.534   1.616   3.878
 2016SOL    HW1 1110   2.543   1.626   3.779
 2016SOL    HW2 1111   2.494   1.527   3.899
 2019SOL     OW 1112   3.056   1.612   3.755
 2019SOL    HW1 1113   3.062   1.519   3.792
 2019SOL    HW2 1114   2.997   1.612   3.675
 2034SOL     OW 1115   2.721   1.374   3.740
 2034SOL    HW1 1116   2.675   1.389   3.828
 2034SOL    HW2 1117   2.765   1.459   3.710
 2051SOL     OW 1118   2.087   2.137   0.996
 2051SOL    HW1 1119   2.122   2.120   1.088
 2051SOL    HW2 1120   1.999   2.092   0.984
 2053SOL     OW 1121   2.431   3.137   1.165
 2053SOL    HW1 1122   2.338   3.130   1.128
 2053SOL    HW2 1123   2.442   3.226   1.209
 2057SOL     OW 1124   2.630   3.006   1.023
 2057SOL    HW1 1125   2.552   3.023   1.083
 2057SOL    HW2 1126   2.664   3.093   0.987
 2058SOL     OW 1127   2.712   2.660   1.823
 2058SOL    HW1 1128   2.708   2.736   1.888
 2058SOL    HW2 1129   2.734   2.696   1.732
 2060SOL     OW 1130   2.548   3.023   1.803
 2060SOL    HW1 1131   2.608   3.102   1.817
 2060SOL    HW2 1132   2.462   3.054   1.762
 2061SOL     OW 1133   2.197   3.297   1.061
 2061SOL    HW1 1134   2.119   3.266   1.008
 2061SOL    HW2 1135   2.255   3.355   1.004
 2062SOL     OW 1136   3.322   3.367   1.339
 2062SOL    HW1 1137   3.346   3.461   1.365
 2062SOL    HW2 1138   3.306   3.313   1.421
 2063SOL     OW 1139   2.300   2.254   1.499
 2063SOL    HW1 1140   2.382   2.198   1.508
 2063SOL    HW2 1141   2.219   2.196   1.503
 2066SOL     OW 1142   2.989   3.203   1.690
 2066SOL    HW1 1143   3.036   3.203   1.778
 2066SOL    HW2 1144   2.941   3.116   1.679
 2068SOL     OW 1145   2.102   2.953   0.886
 2068SOL    HW1 1146   2.116   2.869   0.938
 2068SOL    HW2 1147   2.047   3.017   0.941
 2069SOL     OW 1148   2.482   3.648   1.439
 2069SOL    HW1 1149   2.390   3.631   1.474
 2069SOL    HW2 1150   2.510   3.740   1.465
 2071SOL     OW 1151   3.456   1.976   1.480
 2071SOL    HW1 1152   3.438   2.043   1.408
 2071SOL    HW2 1153   3.453   2.022   1.569
 2077SOL     OW 1154   1.975   2.599   1.597
 2077SOL    HW1 1155   2.063   2.586   1.642
 2077SOL    HW2 1156   1.962   2.696   1.575
 2079SOL     OW 1157   3.155   3.090   1.423
 2079SOL    HW1 1158   3.192   3.017   1.365
 2079SOL    HW2 1159   3.207   3.095   1.508
 2081SOL     OW 1160   2.059   2.838   1.264
 2081SOL    HW1 1161   2.148   2.793   1.250
 2081SOL    HW2 1162   1.986   2.773   1.245
 2083SOL     OW 1163   3.049   3.654   1.616
 2083SOL    HW1 1164   3.073   3.714   1.540
 2083SOL    HW2 1165   3.056   3.559   1.586
 2084SOL     OW 1166   2.179   2.113   1.801
 2084SOL    HW1 1167   2.250   2.184   1.807
 2084SOL    HW2 1168   2.091   2.152   1.829
 2088SOL     OW 1169   3.143   2.207   0.944
 2088SOL    HW1 1170   3.057   2.157   0.931
 2088SOL    HW2 1171   3.205   2.153   1.000
 2090SOL     OW 1172   2.669   2.467   1.465
 2090SOL    HW1 1173   2.622   2.464   1.554
 2090SOL    HW2 1174   2.618   2.412   1.399
 2091SOL     OW 1175   3.256   2.331   1.674
 2091SOL    HW1 1176   3.236   2.374   1.762
 2091SOL    HW2 1177   3.334   2.269   1.683
 2092SOL     OW 1178   2.835   2.752   1.572
 2092SOL    HW1 1179   2.881   2.668   1.543
 2092SOL    HW2 1180   2.779   2.786   1.497
 2093SOL     OW 1181   2.853   2.272   1.242
 2093SOL    HW1 1182   2.776   2.306   1.296
 2093SOL    HW2 1183   2.819   2.221   1.163
 2095SOL     OW 1184   1.938   2.673   0.789
 2095SOL    HW1 1185   2.037   2.661   0.798
 2095SOL    HW2 1186   1.914   2.768   0.810
 2096SOL     OW 1187   1.992   3.683   1.571
 2096SOL    HW1 1188   1.982   3.668   1.670
 2096SOL    HW2 1189   1.906   3.719   1.535
 2098SOL     OW 1190   3.581   2.447   1.831
 2098SOL    HW1 1191   3.555   2.536   1.795
 2098SOL    HW2 1192   3.579   2.379   1.758
 2100SOL     OW 1193   2.412   2.058   0.885
 2100SOL    HW1 1194   2.407   2.053   0.985
 2100SOL    HW2 1195   2.414   2.154   0.856
 2104SOL     OW 1196   3.089   3.412   1.506
 2104SOL    HW1 1197   3.095   3.335   1.570
 2104SOL    HW2 1198   3.037   3.386   1.426
 2107SOL     OW 1199   2.323   3.128   1.727
 2107SOL    HW1 1200   2.273   3.129   1.641
 2107SOL    HW2 1201   2.260   3.110   1.803
 2109SOL     OW 1202   2.064   2.147   1.498
 2109SOL    HW1 1203   1.984   2.207   1.485
 2109SOL    HW2 1204   2.054   2.098   1.584
 2113SOL     OW 1205   2.111   3.647   1.241
 2113SOL    HW1 1206   2.168   3.582   1.291
 2113SOL    HW2 1207   2.095   3.614   1.148
 2116SOL     OW 1208   3.409   2.084   1.729
 2116SOL    HW1 1209   3.404   2.121   1.821
 2116SOL    HW2 1210   3.337   2.015   1.717
 2118SOL     OW 1211   2.643   2.126   1.749
 2118SOL    HW1 1212   2.710   2.065   1.792
 2118SOL    HW2 1213   2.570   2.145   1.814
 2119SOL     OW 1214   2.750   3.376   1.195
 2119SOL    HW1 1215   2.727   3.351   1.101
 2119SOL    HW2 1216   2.811   3.307   1.234
 2120SOL     OW 1217   3.213   2.452   1.433
 2120SOL    HW1 1218   3.241   2.409   1.518
 2120SOL    HW2 1219   3.238   2.548   1.434
 2121SOL     OW 1220   2.665   3.264   0.924
 2121SOL    HW1 1221   2.755   3.278   0.882
 2121SOL    HW2 1222   2.594   3.266   0.853
 2122SOL     OW 1223   2.784   2.365   0.899
 2122SOL    HW1 1224   2.759   2.356   0.803
 2122SOL    HW2 1225   2.832   2.283   0.930
 2127SOL     OW 1226   2.938   2.545   1.464
 2127SOL    HW1 1227   2.858   2.484   1.467
 2127SOL    HW2 1228   3.019   2.492   1.440
 2132SOL     OW 1229   1.940   2.418   1.386
 2132SOL    HW1 1230   2.032   2.417   1.345
 2132SOL    HW2 1231   1.934   2.492   1.453
 2133SOL     OW 1232   2.423   2.084   1.147
 2133SOL    HW1 1233   2.461   2.000   1.184
 2133SOL    HW2 1234   2.335   2.103   1.191
 2137SOL     OW 1235   3.328   2.452   0.992
 2137SOL    HW1 1236   3.298   2.357   0.999
 2137SOL    HW2 1237   3.401   2.468   1.058
 2143SOL     OW 1238   3.616   3.085   1.588
 2143SOL    HW1 1239   3.707   3.046   1.575
 2143SOL    HW2 1240   3.624   3.181   1.612
 2144SOL     OW 1241   2.926   3.209   1.340
 2144SOL    HW1 1242   2.846   3.186   1.395
 2144SOL    HW2 1243   3.009   3.183   1.389
 2145SOL     OW 1244   3.454   3.491   1.625
 2145SOL    HW1 1245   3.481   3.525   1.535
 2145SOL    HW2 1246   3.533   3.453   1.671
 2146SOL     OW 1247   2.973   3.057   1.100
 2146SOL    HW1 1248   2.933   3.101   1.181
 2146SOL    HW2 1249   2.932   3.094   1.017
 2147SOL     OW 1250   3.500   2.961   1.079
 2147SOL    HW1 1251   3.505   3.042   1.138
 2147SOL    HW2 1252   3.414   2.963   1.028
 2148SOL     OW 1253   2.777   1.951   1.402
 2148SOL    HW1 1254   2.802   1.931   1.307
 2148SOL    HW2 1255   2.849   2.007   1.444
 2149SOL     OW 1256   2.842   2.978   1.719
 2149SOL    HW1 1257   2.743   2.984   1.729
 2149SOL    HW2 1258   2.865   2.898   1.663
 2151SOL     OW 1259   2.272   2.675   1.251
 2151SOL    HW1 1260   2.358   2.687   1.301
 2151SOL    HW2 1261   2.230   2.588   1.278
 2152SOL     OW 1262   3.136   2.248   1.262
 2152SOL    HW1 1263   3.157   2.322   1.326
 2152SOL    HW2 1264   3.047   2.265   1.219
 2153SOL     OW 1265   1.926   3.426   1.331
 2153SOL    HW1 1266   1.880   3.508   1.297
 2153SOL    HW2 1267   2.024   3.445   1.340
 2155SOL     OW 1268   2.428   2.399   0.865
 2155SOL    HW1 1269   2.440   2.465   0.791
 2155SOL    HW2 1270   2.474   2.433   0.948
 2157SOL     OW 1271   3.134   3.307   1.142
 2157SOL    HW1 1272   3.181   3.320   1.229
 2157SOL    HW2 1273   3.068   3.233   1.151
 2159SOL     OW 1274   2.216   3.372   1.329
 2159SOL    HW1 1275   2.195   3.328   1.242
 2159SOL    HW2 1276   2.313   3.398   1.332
 2160SOL     OW 1277   2.264   2.613   1.598
 2160SOL    HW1 1278   2.332   2.668   1.551
 2160SOL    HW2 1279   2.304   2.525   1.625
 2161SOL     OW 1280   3.449   2.641   1.670
 2161SOL    HW1 1281   3.357   2.679   1.665
 2161SOL    HW2 1282   3.509   2.688   1.605
 2162SOL     OW 1283   2.875   1.967   1.770
 2162SOL    HW1 1284   2.881   2.052   1.718
 2162SOL    HW2 1285   2.907   1.891   1.713
 2163SOL     OW 1286   2.366   1.912   1.740
 2163SOL    HW1 1287   2.324   1.855   1.670
 2163SOL    HW2 1288   2.300   1.981   1.772
 2164SOL     OW 1289   2.435   2.732   1.029
 2164SOL    HW1 1290   2.479   2.821   1.020
 2164SOL    HW2 1291   2.372   2.732   1.106
 2165SOL     OW 1292   3.222   2.724   1.045
 2165SOL    HW1 1293   3.147   2.724   0.979
 2165SOL    HW2 1294   3.259   2.632   1.054
 2167SOL     OW 1295   2.169   2.075   1.231
 2167SOL    HW1 1296   2.146   2.112   1.321
 2167SOL    HW2 1297   2.139   1.980   1.225
 2168SOL     OW 1298   1.899   3.172   1.282
 2168SOL    HW1 1299   1.952   3.123   1.350
 2168SOL    HW2 1300   1.921   3.270   1.287
 2169SOL     OW 1301   2.594   2.496   1.064
 2169SOL    HW1 1302   2.653   2.470   0.988
 2169SOL    HW2 1303   2.566   2.592   1.053
 2170SOL     OW 1304   3.590   2.797   1.854
 2170SOL    HW1 1305   3.544   2.790   1.765
 2170SOL    HW2 1306   3.528   2.841   1.920
 2173SOL     OW 1307   2.885   2.628   0.966
 2173SOL    HW1 1308   2.900   2.649   1.062
 2173SOL    HW2 1309   2.855   2.533   0.957
 2174SOL     OW 1310   2.842   3.435   1.700
 2174SOL    HW1 1311   2.822   3.479   1.612
 2174SOL    HW2 1312   2.881   3.344   1.684
 2175SOL     OW 1313   3.721   3.380   1.605
 2175SOL    HW1 1314   3.735   3.407   1.510
 2175SOL    HW2 1315   3.804   3.402   1.658
 2176SOL     OW 1316   2.212   2.760   1.804
 2176SOL    HW1 1317   2.288   2.804   1.852
 2176SOL    HW2 1318   2.247   2.713   1.722
 2180SOL     OW 1319   2.181   2.672   0.949
 2180SOL    HW1 1320   2.274   2.708   0.954
 2180SOL    HW2 1321   2.175   2.587   1.001
 2181SOL     OW 1322   2.201   2.371   1.006
 2181SOL    HW1 1323   2.149   2.288   0.989
 2181SOL    HW2 1324   2.278   2.376   0.942
 2182SOL     OW 1325   3.000   2.242   1.678
 2182SOL    HW1 1326   2.955   2.305   1.742
 2182SOL    HW2 1327   3.093   2.273   1.661
 2183SOL     OW 1328   3.022   2.069   1.477
 2183SOL    HW1 1329   3.022   2.133   1.554
 2183SOL    HW2 1330   3.050   2.117   1.394
 2187SOL     OW 1331   2.864   2.658   1.238
 2187SOL    HW1 1332   2.905   2.626   1.324
 2187SOL    HW2 1333   2.768   2.631   1.235
 2188SOL     OW 1334   1.902   2.406   1.114
 2188SOL    HW1 1335   1.987   2.373   1.073
 2188SOL    HW2 1336   1.915   2.421   1.212
 2189SOL     OW 1337   2.051   2.382   1.722
 2189SOL    HW1 1338   2.110   2.342   1.652
 2189SOL    HW2 1339   1.993   2.453   1.681
 2190SOL     OW 1340   3.231   2.812   1.660
 2190SOL    HW1 1341   3.270   2.901   1.680
 2190SOL    HW2 1342   3.241   2.792   1.563
 2192SOL     OW 1343   3.519   2.466   1.206
 2192SOL    HW1 1344   3.481   2.397   1.268
 2192SOL    HW2 1345   3.601   2.430   1.162
 2193SOL     OW 1346   2.114   3.426   1.744
 2193SOL    HW1 1347   2.084   3.483   1.820
 2193SOL    HW2 1348   2.107   3.329   1.770
 2194SOL     OW 1349   2.533   2.326   1.269
 2194SOL    HW1 1350   2.499   2.237   1.239
 2194SOL    HW2 1351   2.559   2.380   1.189
 2195SOL     OW 1352   2.792   3.540   1.465
 2195SOL    HW1 1353   2.768   3.522   1.370
 2195SOL    HW2 1354   2.822   3.634   1.475
 2197SOL     OW 1355   2.021   2.999   1.466
 2197SOL    HW1 1356   2.043   2.938   1.542
 2197SOL    HW2 1357   2.031   2.950   1.380
 2198SOL     OW 1358   3.209   2.921   1.234
 2198SOL    HW1 1359   3.233   2.858   1.160
 2198SOL    HW2 1360   3.119   2.961   1.216
 2202SOL     OW 1361   1.945   3.120   1.022
 2202SOL    HW1 1362   1.940   3.119   1.122
 2202SOL    HW2 1363   1.862   3.079   0.984
 2203SOL     OW 1364   2.550   3.524   1.716
 2203SOL    HW1 1365   2.494   3.605   1.725
 2203SOL    HW2 1366   2.602   3.528   1.630
 2207SOL     OW 1367   1.992   3.656   1.851
 2207SOL    HW1 1368   1.951   3.582   1.904
 2207SOL    HW2 1369   2.056   3.707   1.909
 2209SOL     OW 1370   2.692   3.135   1.422
 2209SOL    HW1 1371   2.687   3.168   1.517
 2209SOL    HW2 1372   2.606   3.154   1.376
 2213SOL     OW 1373   2.125   2.188   0.720
 2213SOL    HW1 1374   2.046   2.239   0.686
 2213SOL    HW2 1375   2.116   2.173   0.818
 2215SOL     OW 1376   2.684   2.864   1.372
 2215SOL    HW1 1377   2.724   2.863   1.280
 2215SOL    HW2 1378   2.694   2.956   1.412
 2218SOL     OW 1379   2.234   3.150   1.490
 2218SOL    HW1 1380   2.221   3.243   1.456
 2218SOL    HW2 1381   2.150   3.098   1.477
 2219SOL     OW 1382   3.476   3.154   1.289
 2219SOL    HW1 1383   3.536   3.157   1.369
 2219SOL    HW2 1384   3.401   3.218   1.302
 2221SOL     OW 1385   2.876   2.098   0.971
 2221SOL    HW1 1386   2.868   2.062   0.878
 2221SOL    HW2 1387   2.874   2.022   1.036
 2223SOL     OW 1388   3.571   2.247   1.381
 2223SOL    HW1 1389   3.644   2.316   1.385
 2223SOL    HW2 1390   3.599   2.172   1.322
 2225SOL     OW 1391   1.967   2.875   1.726
 2225SOL    HW1 1392   1.890   2.842   1.780
 2225SOL    HW2 1393   2.052   2.845   1.768
 2226SOL     OW 1394   2.534   2.065   1.489
 2226SOL    HW1 1395   2.624   2.049   1.449
 2226SOL    HW2 1396   2.542   2.070   1.588
 2227SOL     OW 1397   3.302   2.718   1.398
 2227SOL    HW1 1398   3.245   2.770   1.335
 2227SOL    HW2 1399   3.398   2.730   1.374
 2230SOL     OW 1400   2.475   2.704   1.431
 2230SOL    HW1 1401   2.531   2.785   1.414
 2230SOL    HW2 1402   2.534   2.624   1.434
 2232SOL     OW 1403   2.578   2.427   1.708
 2232SOL    HW1 1404   2.597   2.492   1.782
 2232SOL    HW2 1405   2.638   2.347   1.717
 2233SOL     OW 1406   3.312   3.082   1.633
 2233SOL    HW1 1407   3.303   3.072   1.732
 2233SOL    HW2 1408   3.408   3.075   1.607
 2234SOL     OW 1409   2.252   3.603   1.560
 2234SOL    HW1 1410   2.161   3.644   1.558
 2234SOL    HW2 1411   2.245   3.509   1.592
 2235SOL     OW 1412   3.536   2.745   1.254
 2235SOL    HW1 1413   3.509   2.656   1.217
 2235SOL    HW2 1414   3.537   2.813   1.181
 2238SOL     OW 1415   3.639   2.204   1.642
 2238SOL    HW1 1416   3.622   2.235   1.548
 2238SOL    HW2 1417   3.555   2.167   1.680
 2239SOL     OW 1418   3.592   2.796   1.517
 2239SOL    HW1 1419   3.630   2.887   1.532
 2239SOL    HW2 1420   3.584   2.779   1.418
 2242SOL     OW 1421   2.721   2.818   0.861
 2242SOL    HW1 1422   2.775   2.749   0.909
 2242SOL    HW2 1423   2.689   2.887   0.927
 2245SOL     OW 1424   2.083   3.176   1.844
 2245SOL    HW1 1425   2.018   3.103   1.823
 2245SOL    HW2 1426   2.087   3.190   1.942
 2247SOL     OW 1427   2.534   3.253   1.624
 2247SOL    HW1 1428   2.456   3.203   1.662
 2247SOL    HW2 1429   2.531   3.348   1.655
 2248SOL     OW 1430   3.686   2.054   1.227
 2248SOL    HW1 1431   3.682   1.964   1.271
 2248SOL    HW2 1432   3.689   2.043   1.128
 2251SOL     OW 1433   2.179   2.409   1.280
 2251SOL    HW1 1434   2.217   2.350   1.352
 2251SOL    HW2 1435   2.219   2.383   1.192
 2253SOL     OW 1436   3.286   2.076   1.112
 2253SOL    HW1 1437   3.338   2.011   1.167
 2253SOL    HW2 1438   3.237   2.139   1.173
 2254SOL     OW 1439   2.863   1.896   1.154
 2254SOL    HW1 1440   2.800   1.824   1.123
 2254SOL    HW2 1441   2.956   1.860   1.154
 2256SOL     OW 1442   2.480   3.429   1.284
 2256SOL    HW1 1443   2.475   3.511   1.341
 2256SOL    HW2 1444   2.569   3.426   1.239
 2262SOL     OW 1445   2.092   2.490   1.975
 2262SOL    HW1 1446   1.999   2.488   2.012
 2262SOL    HW2 1447   2.093   2.451   1.883
 2263SOL     OW 1448   2.087   2.137   2.858
 2263SOL    HW1 1449   2.122   2.120   2.950
 2263SOL    HW2 1450   1.999   2.092   2.846
 2264SOL     OW 1451   1.881   2.230   2.509
 2264SOL    HW1 1452   1.799   2.273   2.548
 2264SOL    HW2 1453   1.853   2.157   2.446
 2265SOL     OW 1454   2.431   3.137   3.027
 2265SOL    HW1 1455   2.338   3.130   2.990
 2265SOL    HW2 1456   2.442   3.226   3.071
 2266SOL     OW 1457   3.417   3.373   2.565
 2266SOL    HW1 1458   3.360   3.357   2.646
 2266SOL    HW2 1459   3.358   3.383   2.485
 2267SOL     OW 1460   2.997   2.565   2.579
 2267SOL    HW1 1461   3.054   2.643   2.554
 2267SOL    HW2 1462   2.937   2.591   2.655
 2268SOL     OW 1463   3.617   2.469   2.093
 2268SOL    HW1 1464   3.605   2.456   1.994
 2268SOL    HW2 1465   3.587   2.388   2.142
 2269SOL     OW 1466   2.630   3.006   2.885
 2269SOL    HW1 1467   2.552   3.023   2.945
 2269SOL    HW2 1468   2.664   3.093   2.849
 2270SOL     OW 1469   2.712   2.660   3.685
 2270SOL    HW1 1470   2.708   2.736   3.750
 2270SOL    HW2 1471   2.734   2.696   3.594
 2271SOL     OW 1472   2.548   3.023   3.665
 2271SOL    HW1 1473   2.608   3.102   3.679
 2271SOL    HW2 1474   2.462   3.054   3.624
 2272SOL     OW 1475   2.197   3.297   2.923
 2272SOL    HW1 1476   2.119   3.266   2.870
 2272SOL    HW2 1477   2.255   3.355   2.866
 2273SOL     OW 1478   3.322   3.367   3.201
 2273SOL    HW1 1479   3.346   3.461   3.227
 2273SOL    HW2 1480   3.306   3.313   3.283
 2274SOL     OW 1481   2.300   2.254   3.361
 2274SOL    HW1 1482   2.382   2.198   3.370
 2274SOL    HW2 1483   2.219   2.196   3.365
 2275SOL     OW 1484   3.465   2.309   2.599
 2275SOL    HW1 1485   3.391   2.355   2.549
 2275SOL    HW2 1486   3.516   2.377   2.652
 2276SOL     OW 1487   2.093   3.575   2.345
 2276SOL    HW1 1488   2.127   3.652   2.399
 2276SOL    HW2 1489   2.137   3.575   2.255
 2277SOL     OW 1490   2.989   3.203   3.552
 2277SOL    HW1 1491   3.036   3.203   3.640
 2277SOL    HW2 1492   2.941   3.116   3.541
 2278SOL     OW 1493   2.092   3.296   2.400
 2278SOL    HW1 1494   2.066   3.392   2.400
 2278SOL    HW2 1495   2.021   3.242   2.445
 2279SOL     OW 1496   2.102   2.953   2.748
 2279SOL    HW1 1497   2.116   2.869   2.800
 2279SOL    HW2 1498   2.047   3.017   2.803
 2280SOL     OW 1499   2.482   3.648   3.301
 2280SOL    HW1 1500   2.390   3.631   3.336
 2280SOL    HW2 1501   2.510   3.740   3.327
 2281SOL     OW 1502   2.468   2.826   1.985
 2281SOL    HW1 1503   2.475   2.910   1.931
 2281SOL    HW2 1504   2.514   2.839   2.073
 2282SOL     OW 1505   3.456   1.976   3.342
 2282SOL    HW1 1506   3.438   2.043   3.270
 2282SOL    HW2 1507   3.453   2.022   3.431
 2283SOL     OW 1508   1.984   2.505   2.425
 2283SOL    HW1 1509   1.939   2.417   2.442
 2283SOL    HW2 1510   1.983   2.559   2.509
 2284SOL     OW 1511   3.704   3.629   2.221
 2284SOL    HW1 1512   3.758   3.600   2.301
 2284SOL    HW2 1513   3.734   3.719   2.192
 2285SOL     OW 1514   1.889   3.458   1.979
 2285SOL    HW1 1515   1.870   3.362   2.000
 2285SOL    HW2 1516   1.856   3.516   2.054
 2286SOL     OW 1517   3.551   2.784   2.474
 2286SOL    HW1 1518   3.646   2.755   2.482
 2286SOL    HW2 1519   3.543   2.849   2.399
 2287SOL     OW 1520   3.503   2.970   2.294
 2287SOL    HW1 1521   3.589   2.972   2.242
 2287SOL    HW2 1522   3.517   3.017   2.382
 2288SOL     OW 1523   1.975   2.599   3.459
 2288SOL    HW1 1524   2.063   2.586   3.504
 2288SOL    HW2 1525   1.962   2.696   3.437
 2289SOL     OW 1526   2.475   3.227   2.588
 2289SOL    HW1 1527   2.426   3.140   2.597
 2289SOL    HW2 1528   2.452   3.270   2.501
 2290SOL     OW 1529   3.155   3.090   3.285
 2290SOL    HW1 1530   3.192   3.017   3.227
 2290SOL    HW2 1531   3.207   3.095   3.370
 2291SOL     OW 1532   2.059   2.838   3.126
 2291SOL    HW1 1533   2.148   2.793   3.112
 2291SOL    HW2 1534   1.986   2.773   3.107
 2292SOL     OW 1535   3.387   2.861   2.052
 2292SOL    HW1 1536   3.324   2.785   2.065
 2292SOL    HW2 1537   3.435   2.879   2.138
 2293SOL     OW 1538   3.049   3.654   3.478
 2293SOL    HW1 1539   3.073   3.714   3.402
 2293SOL    HW2 1540   3.056   3.559   3.448
 2294SOL     OW 1541   2.179   2.113   3.663
 2294SOL    HW1 1542   2.250   2.184   3.669
 2294SOL    HW2 1543   2.091   2.152   3.691
 2295SOL     OW 1544   3.328   3.279   2.815
 2295SOL    HW1 1545   3.269   3.285   2.895
 2295SOL    HW2 1546   3.313   3.191   2.769
 2296SOL     OW 1547   3.529   3.576   2.434
 2296SOL    HW1 1548   3.488   3.553   2.346
 2296SOL    HW2 1549   3.511   3.502   2.499
 2297SOL     OW 1550   2.460   2.591   2.132
 2297SOL    HW1 1551   2.484   2.660   2.064
 2297SOL    HW2 1552   2.382   2.624   2.186
 2298SOL     OW 1553   3.143   2.207   2.806
 2298SOL    HW1 1554   3.057   2.157   2.793
 2298SOL    HW2 1555   3.205   2.153   2.862
 2299SOL     OW 1556   3.438   3.524   2.169
 2299SOL    HW1 1557   3.527   3.570   2.172
 2299SOL    HW2 1558   3.417   3.500   2.074
 2300SOL     OW 1559   2.669   2.467   3.327
 2300SOL    HW1 1560   2.622   2.464   3.416
 2300SOL    HW2 1561   2.618   2.412   3.261
 2301SOL     OW 1562   3.256   2.331   3.536
 2301SOL    HW1 1563   3.236   2.374   3.624
 2301SOL    HW2 1564   3.334   2.269   3.545
 2302SOL     OW 1565   2.835   2.752   3.434
 2302SOL    HW1 1566   2.881   2.668   3.405
 2302SOL    HW2 1567   2.779   2.786   3.359
 2303SOL     OW 1568   2.853   2.272   3.104
 2303SOL    HW1 1569   2.776   2.306   3.158
 2303SOL    HW2 1570   2.819   2.221   3.025
 2304SOL     OW 1571   2.903   2.563   2.291
 2304SOL    HW1 1572   2.929   2.559   2.387
 2304SOL    HW2 1573   2.818   2.512   2.277
 2305SOL     OW 1574   1.938   2.673   2.651
 2305SOL    HW1 1575   2.037   2.661   2.660
 2305SOL    HW2 1576   1.914   2.768   2.672
 2306SOL     OW 1577   1.992   3.683   3.433
 2306SOL    HW1 1578   1.982   3.668   3.532
 2306SOL    HW2 1579   1.906   3.719   3.397
 2307SOL     OW 1580   2.727   2.210   2.057
 2307SOL    HW1 1581   2.786   2.273   2.008
 2307SOL    HW2 1582   2.746   2.116   2.028
 2308SOL     OW 1583   3.581   2.447   3.693
 2308SOL    HW1 1584   3.555   2.536   3.657
 2308SOL    HW2 1585   3.579   2.379   3.620
 2309SOL     OW 1586   3.224   3.006   2.407
 2309SOL    HW1 1587   3.307   2.977   2.359
 2309SOL    HW2 1588   3.175   3.073   2.351
 2310SOL     OW 1589   2.412   2.058   2.747
 2310SOL    HW1 1590   2.407   2.053   2.847
 2310SOL    HW2 1591   2.414   2.154   2.718
 2311SOL     OW 1592   2.870   3.318   2.339
 2311SOL    HW1 1593   2.824   3.390   2.287
 2311SOL    HW2 1594   2.866   3.338   2.437
 2312SOL     OW 1595   2.213   3.663   2.715
 2312SOL    HW1 1596   2.263   3.577   2.721
 2312SOL    HW2 1597   2.278   3.740   2.712
 2313SOL     OW 1598   3.657   2.928   2.735
 2313SOL    HW1 1599   3.595   2.913   2.659
 2313SOL    HW2 1600   3.605   2.939   2.820
 2314SOL     OW 1601   3.089   3.412   3.368
 2314SOL    HW1 1602   3.095   3.335   3.432
 2314SOL    HW2 1603   3.037   3.386   3.288
 2315SOL     OW 1604   2.183   2.805   2.104
 2315SOL    HW1 1605   2.265   2.844   2.062
 2315SOL    HW2 1606   2.156   2.723   2.055
 2316SOL     OW 1607   3.320   2.597   2.590
 2316SOL    HW1 1608   3.315   2.532   2.665
 2316SOL    HW2 1609   3.400   2.656   2.603
 2317SOL     OW 1610   2.323   3.128   3.589
 2317SOL    HW1 1611   2.273   3.129   3.503
 2317SOL    HW2 1612   2.260   3.110   3.665
 2318SOL     OW 1613   2.973   3.638   2.099
 2318SOL    HW1 1614   2.913   3.576   2.149
 2318SOL    HW2 1615   3.004   3.594   2.014
 2319SOL     OW 1616   2.064   2.147   3.360
 2319SOL    HW1 1617   1.984   2.207   3.347
 2319SOL    HW2 1618   2.054   2.098   3.446
 2320SOL     OW 1619   3.494   3.239   1.943
 2320SOL    HW1 1620   3.462   3.333   1.933
 2320SOL    HW2 1621   3.418   3.176   1.931
 2321SOL     OW 1622   2.326   3.605   2.185
 2321SOL    HW1 1623   2.359   3.644   2.271
 2321SOL    HW2 1624   2.402   3.598   2.120
 2322SOL     OW 1625   3.262   1.969   2.288
 2322SOL    HW1 1626   3.238   1.932   2.198
 2322SOL    HW2 1627   3.361   1.985   2.292
 2323SOL     OW 1628   2.111   3.647   3.103
 2323SOL    HW1 1629   2.168   3.582   3.153
 2323SOL    HW2 1630   2.095   3.614   3.010
 2324SOL     OW 1631   2.802   3.560   2.766
 2324SOL    HW1 1632   2.882   3.503   2.787
 2324SOL    HW2 1633   2.753   3.520   2.689
 2325SOL     OW 1634   3.409   2.084   3.591
 2325SOL    HW1 1635   3.404   2.121   3.683
 2325SOL    HW2 1636   3.337   2.015   3.579
 2326SOL     OW 1637   2.476   1.984   1.979
 2326SOL    HW1 1638   2.574   1.962   1.986
 2326SOL    HW2 1639   2.445   1.967   1.886
 2327SOL     OW 1640   2.643   2.126   3.611
 2327SOL    HW1 1641   2.710   2.065   3.654
 2327SOL    HW2 1642   2.570   2.145   3.676
 2328SOL     OW 1643   2.750   3.376   3.057
 2328SOL    HW1 1644   2.727   3.351   2.963
 2328SOL    HW2 1645   2.811   3.307   3.096
 2329SOL     OW 1646   3.213   2.452   3.295
 2329SOL    HW1 1647   3.241   2.409   3.380
 2329SOL    HW2 1648   3.238   2.548   3.296
 2330SOL     OW 1649   2.665   3.264   2.786
 2330SOL    HW1 1650   2.755   3.278   2.744
 2330SOL    HW2 1651   2.594   3.266   2.715
 2331SOL     OW 1652   2.784   2.365   2.761
 2331SOL    HW1 1653   2.759   2.356   2.665
 2331SOL    HW2 1654   2.832   2.283   2.792
 2332SOL     OW 1655   2.401   1.926   2.374
 2332SOL    HW1 1656   2.320   1.927   2.432
 2332SOL    HW2 1657   2.404   2.009   2.319
 2333SOL     OW 1658   3.296   3.050   1.903
 2333SOL    HW1 1659   3.328   2.974   1.960
 2333SOL    HW2 1660   3.204   3.077   1.933
 2334SOL     OW 1661   2.159   1.897   2.033
 2334SOL    HW1 1662   2.208   1.981   2.012
 2334SOL    HW2 1663   2.221   1.832   2.078
 2335SOL     OW 1664   2.938   2.545   3.326
 2335SOL    HW1 1665   2.858   2.484   3.329
 2335SOL    HW2 1666   3.019   2.492   3.302
 2336SOL     OW 1667   3.089   3.432   2.655
 2336SOL    HW1 1668   3.110   3.506   2.590
 2336SOL    HW2 1669   3.157   3.432   2.728
 2337SOL     OW 1670   3.133   3.659   2.453
 2337SOL    HW1 1671   3.177   3.723   2.389
 2337SOL    HW2 1672   3.083   3.711   2.523
 2338SOL     OW 1673   2.894   2.411   1.878
 2338SOL    HW1 1674   2.853   2.493   1.839
 2338SOL    HW2 1675   2.958   2.437   1.951
 2339SOL     OW 1676   1.940   2.418   3.248
 2339SOL    HW1 1677   2.032   2.417   3.207
 2339SOL    HW2 1678   1.934   2.492   3.315
 2340SOL     OW 1679   2.423   2.084   3.009
 2340SOL    HW1 1680   2.461   2.000   3.046
 2340SOL    HW2 1681   2.335   2.103   3.053
 2341SOL     OW 1682   2.879   1.901   2.615
 2341SOL    HW1 1683   2.807   1.906   2.546
 2341SOL    HW2 1684   2.855   1.832   2.684
 2342SOL     OW 1685   3.291   3.035   2.729
 2342SOL    HW1 1686   3.236   2.951   2.722
 2342SOL    HW2 1687   3.317   3.064   2.637
 2343SOL     OW 1688   3.328   2.452   2.854
 2343SOL    HW1 1689   3.298   2.357   2.861
 2343SOL    HW2 1690   3.401   2.468   2.920
 2344SOL     OW 1691   3.719   2.695   2.239
 2344SOL    HW1 1692   3.761   2.631   2.303
 2344SOL    HW2 1693   3.681   2.644   2.161
 2345SOL     OW 1694   2.350   3.247   2.036
 2345SOL    HW1 1695   2.263   3.232   2.083
 2345SOL    HW2 1696   2.333   3.273   1.941
 2346SOL     OW 1697   3.526   3.142   2.519
 2346SOL    HW1 1698   3.625   3.150   2.533
 2346SOL    HW2 1699   3.481   3.226   2.550
 2347SOL     OW 1700   3.252   2.437   1.940
 2347SOL    HW1 1701   3.198   2.416   2.021
 2347SOL    HW2 1702   3.343   2.396   1.949
 2348SOL     OW 1703   2.389   2.118   2.190
 2348SOL    HW1 1704   2.416   2.059   2.115
 2348SOL    HW2 1705   2.389   2.213   2.159
 2349SOL     OW 1706   3.616   3.085   3.450
 2349SOL    HW1 1707   3.707   3.046   3.437
 2349SOL    HW2 1708   3.624   3.181   3.474
 2350SOL     OW 1709   2.926   3.209   3.202
 2350SOL    HW1 1710   2.846   3.186   3.257
 2350SOL    HW2 1711   3.009   3.183   3.251
 2351SOL     OW 1712   3.454   3.491   3.487
 2351SOL    HW1 1713   3.481   3.525   3.397
 2351SOL    HW2 1714   3.533   3.453   3.533
 2352SOL     OW 1715   2.973   3.057   2.962
 2352SOL    HW1 1716   2.933   3.101   3.043
 2352SOL    HW2 1717   2.932   3.094   2.879
 2353SOL     OW 1718   3.500   2.961   2.941
 2353SOL    HW1 1719   3.505   3.042   3.000
 2353SOL    HW2 1720   3.414   2.963   2.890
 2354SOL     OW 1721   2.777   1.951   3.264
 2354SOL    HW1 1722   2.802   1.931   3.169
 2354SOL    HW2 1723   2.849   2.007   3.306
 2355SOL     OW 1724   2.842   2.978   3.581
 2355SOL    HW1 1725   2.743   2.984   3.591
 2355SOL    HW2 1726   2.865   2.898   3.525
 2356SOL     OW 1727   2.567   2.912   2.230
 2356SOL    HW1 1728   2.553   2.919   2.329
 2356SOL    HW2 1729   2.651   2.861   2.212
 2357SOL     OW 1730   2.272   2.675   3.113
 2357SOL    HW1 1731   2.358   2.687   3.163
 2357SOL    HW2 1732   2.230   2.588   3.140
 2358SOL     OW 1733   3.136   2.248   3.124
 2358SOL    HW1 1734   3.157   2.322   3.188
 2358SOL    HW2 1735   3.047   2.265   3.081
 2359SOL     OW 1736   1.926   3.426   3.193
 2359SOL    HW1 1737   1.880   3.508   3.159
 2359SOL    HW2 1738   2.024   3.445   3.202
 2360SOL     OW 1739   3.114   3.210   2.250
 2360SOL    HW1 1740   3.164   3.287   2.290
 2360SOL    HW2 1741   3.019   3.212   2.282
 2361SOL     OW 1742   3.134   3.307   3.004
 2361SOL    HW1 1743   3.181   3.320   3.091
 2361SOL    HW2 1744   3.068   3.233   3.013
 2362SOL     OW 1745   3.444   2.501   2.334
 2362SOL    HW1 1746   3.413   2.562   2.407
 2362SOL    HW2 1747   3.494   2.553   2.265
 2363SOL     OW 1748   2.216   3.372   3.191
 2363SOL    HW1 1749   2.195   3.328   3.104
 2363SOL    HW2 1750   2.313   3.398   3.194
 2364SOL     OW 1751   2.264   2.613   3.460
 2364SOL    HW1 1752   2.332   2.668   3.413
 2364SOL    HW2 1753   2.304   2.525   3.487
 2365SOL     OW 1754   3.449   2.641   3.532
 2365SOL    HW1 1755   3.357   2.679   3.527
 2365SOL    HW2 1756   3.509   2.688   3.467
 2366SOL     OW 1757   2.875   1.967   3.632
 2366SOL    HW1 1758   2.881   2.052   3.580
 2366SOL    HW2 1759   2.907   1.891   3.575
 2367SOL     OW 1760   2.366   1.912   3.602
 2367SOL    HW1 1761   2.324   1.855   3.532
 2367SOL    HW2 1762   2.300   1.981   3.634
 2368SOL     OW 1763   2.435   2.732   2.891
 2368SOL    HW1 1764   2.479   2.821   2.882
 2368SOL    HW2 1765   2.372   2.732   2.968
 2369SOL     OW 1766   3.222   2.724   2.907
 2369SOL    HW1 1767   3.147   2.724   2.841
 2369SOL    HW2 1768   3.259   2.632   2.916
 2370SOL     OW 1769   3.071   2.387   2.137
 2370SOL    HW1 1770   3.084   2.303   2.191
 2370SOL    HW2 1771   3.042   2.461   2.197
 2371SOL     OW 1772   2.169   2.075   3.093
 2371SOL    HW1 1773   2.146   2.112   3.183
 2371SOL    HW2 1774   2.139   1.980   3.087
 2372SOL     OW 1775   1.899   3.172   3.144
 2372SOL    HW1 1776   1.952   3.123   3.212
 2372SOL    HW2 1777   1.921   3.270   3.149
 2373SOL     OW 1778   2.594   2.496   2.926
 2373SOL    HW1 1779   2.653   2.470   2.850
 2373SOL    HW2 1780   2.566   2.592   2.915
 2374SOL     OW 1781   3.590   2.797   3.716
 2374SOL    HW1 1782   3.544   2.790   3.627
 2374SOL    HW2 1783   3.528   2.841   3.782
 2375SOL     OW 1784   2.169   1.925   2.480
 2375SOL    HW1 1785   2.158   2.019   2.513
 2375SOL    HW2 1786   2.164   1.862   2.557
 2376SOL     OW 1787   3.484   2.229   2.236
 2376SOL    HW1 1788   3.486   2.153   2.300
 2376SOL    HW2 1789   3.436   2.306   2.276
 2377SOL     OW 1790   2.885   2.628   2.828
 2377SOL    HW1 1791   2.900   2.649   2.924
 2377SOL    HW2 1792   2.855   2.533   2.819
 2378SOL     OW 1793   2.842   3.435   3.562
 2378SOL    HW1 1794   2.822   3.479   3.474
 2378SOL    HW2 1795   2.881   3.344   3.546
 2380SOL     OW 1796   2.212   2.760   3.666
 2380SOL    HW1 1797   2.288   2.804   3.714
 2380SOL    HW2 1798   2.247   2.713   3.584
 2381SOL     OW 1799   3.402   2.136   1.987
 2381SOL    HW1 1800   3.341   2.061   2.010
 2381SOL    HW2 1801   3.424   2.188   2.070
 2382SOL     OW 1802   3.165   2.700   1.904
 2382SOL    HW1 1803   3.199   2.607   1.919
 2382SOL    HW2 1804   3.183   2.727   1.809
 2383SOL     OW 1805   2.930   3.195   2.711
 2383SOL    HW1 1806   2.937   3.111   2.656
 2383SOL    HW2 1807   2.992   3.264   2.675
 2384SOL     OW 1808   2.181   2.672   2.811
 2384SOL    HW1 1809   2.274   2.708   2.816
 2384SOL    HW2 1810   2.175   2.587   2.863
 2385SOL     OW 1811   2.201   2.371   2.868
 2385SOL    HW1 1812   2.149   2.288   2.851
 2385SOL    HW2 1813   2.278   2.376   2.804
 2386SOL     OW 1814   3.000   2.242   3.540
 2386SOL    HW1 1815   2.955   2.305   3.604
 2386SOL    HW2 1816   3.093   2.273   3.523
 2387SOL     OW 1817   3.022   2.069   3.339
 2387SOL    HW1 1818   3.022   2.133   3.416
 2387SOL    HW2 1819   3.050   2.117   3.256
 2388SOL     OW 1820   1.870   3.188   2.062
 2388SOL    HW1 1821   1.777   3.209   2.031
 2388SOL    HW2 1822   1.880   3.089   2.075
 2389SOL     OW 1823   1.950   3.663   2.789
 2389SOL    HW1 1824   1.908   3.577   2.762
 2389SOL    HW2 1825   2.044   3.666   2.755
 2390SOL     OW 1826   2.366   3.430   2.772
 2390SOL    HW1 1827   2.432   3.504   2.781
 2390SOL    HW2 1828   2.410   3.351   2.730
 2391SOL     OW 1829   2.864   2.658   3.100
 2391SOL    HW1 1830   2.905   2.626   3.186
 2391SOL    HW2 1831   2.768   2.631   3.097
 2392SOL     OW 1832   1.902   2.406   2.976
 2392SOL    HW1 1833   1.987   2.373   2.935
 2392SOL    HW2 1834   1.915   2.421   3.074
 2393SOL     OW 1835   2.051   2.382   3.584
 2393SOL    HW1 1836   2.110   2.342   3.514
 2393SOL    HW2 1837   1.993   2.453   3.543
 2394SOL     OW 1838   3.231   2.812   3.522
 2394SOL    HW1 1839   3.270   2.901   3.542
 2394SOL    HW2 1840   3.241   2.792   3.425
 2395SOL     OW 1841   2.677   2.434   2.187
 2395SOL    HW1 1842   2.684   2.345   2.141
 2395SOL    HW2 1843   2.583   2.468   2.179
 2396SOL     OW 1844   3.519   2.466   3.068
 2396SOL    HW1 1845   3.481   2.397   3.130
 2396SOL    HW2 1846   3.601   2.430   3.024
 2397SOL     OW 1847   2.114   3.426   3.606
 2397SOL    HW1 1848   2.084   3.483   3.682
 2397SOL    HW2 1849   2.107   3.329   3.632
 2398SOL     OW 1850   2.533   2.326   3.131
 2398SOL    HW1 1851   2.499   2.237   3.101
 2398SOL    HW2 1852   2.559   2.380   3.051
 2399SOL     OW 1853   2.792   3.540   3.327
 2399SOL    HW1 1854   2.768   3.522   3.232
 2399SOL    HW2 1855   2.822   3.634   3.337
 2400SOL     OW 1856   2.335   2.362   2.053
 2400SOL    HW1 1857   2.396   2.442   2.057
 2400SOL    HW2 1858   2.240   2.393   2.060
 2401SOL     OW 1859   2.021   2.999   3.328
 2401SOL    HW1 1860   2.043   2.938   3.404
 2401SOL    HW2 1861   2.031   2.950   3.242
 2402SOL     OW 1862   3.209   2.921   3.096
 2402SOL    HW1 1863   3.233   2.858   3.022
 2402SOL    HW2 1864   3.119   2.961   3.078
 2403SOL     OW 1865   3.164   2.717   2.171
 2403SOL    HW1 1866   3.078   2.686   2.213
 2403SOL    HW2 1867   3.160   2.703   2.072
 2404SOL     OW 1868   3.621   3.609   3.016
 2404SOL    HW1 1869   3.682   3.639   2.943
 2404SOL    HW2 1870   3.583   3.520   2.994
 2405SOL     OW 1871   3.114   3.593   2.990
 2405SOL    HW1 1872   3.198   3.598   2.936
 2405SOL    HW2 1873   3.091   3.497   3.008
 2406SOL     OW 1874   1.945   3.120   2.884
 2406SOL    HW1 1875   1.940   3.119   2.984
 2406SOL    HW2 1876   1.862   3.079   2.846
 2407SOL     OW 1877   2.550   3.524   3.578
 2407SOL    HW1 1878   2.494   3.605   3.587
 2407SOL    HW2 1879   2.602   3.528   3.492
 2408SOL     OW 1880   3.588   1.997   2.385
 2408SOL    HW1 1881   3.661   1.980   2.318
 2408SOL    HW2 1882   3.557   1.910   2.423
 2409SOL     OW 1883   3.250   3.435   2.339
 2409SOL    HW1 1884   3.317   3.447   2.265
 2409SOL    HW2 1885   3.210   3.524   2.362
 2410SOL     OW 1886   1.992   3.656   3.713
 2410SOL    HW1 1887   1.951   3.582   3.766
 2410SOL    HW2 1888   2.056   3.707   3.771
 2411SOL     OW 1889   3.142   2.789   2.534
 2411SOL    HW1 1890   3.202   2.708   2.536
 2411SOL    HW2 1891   3.182   2.858   2.474
 2412SOL     OW 1892   2.692   3.135   3.284
 2412SOL    HW1 1893   2.687   3.168   3.379
 2412SOL    HW2 1894   2.606   3.154   3.238
 2413SOL     OW 1895   2.534   3.478   2.016
 2413SOL    HW1 1896   2.543   3.488   1.917
 2413SOL    HW2 1897   2.494   3.389   2.037
 2414SOL     OW 1898   3.512   3.582   3.256
 2414SOL    HW1 1899   3.565   3.592   3.172
 2414SOL    HW2 1900   3.485   3.672   3.290
 2415SOL     OW 1901   3.703   2.037   2.825
 2415SOL    HW1 1902   3.742   1.952   2.789
 2415SOL    HW2 1903   3.605   2.039   2.806
 2416SOL     OW 1904   2.125   2.188   2.582
 2416SOL    HW1 1905   2.046   2.239   2.548
 2416SOL    HW2 1906   2.116   2.173   2.680
 2417SOL     OW 1907   3.056   3.474   1.893
 2417SOL    HW1 1908   3.062   3.381   1.930
 2417SOL    HW2 1909   2.997   3.474   1.813
 2418SOL     OW 1910   2.684   2.864   3.234
 2418SOL    HW1 1911   2.724   2.863   3.142
 2418SOL    HW2 1912   2.694   2.956   3.274
 2419SOL     OW 1913   2.778   2.772   2.153
 2419SOL    HW1 1914   2.841   2.810   2.085
 2419SOL    HW2 1915   2.818   2.689   2.192
 2420SOL     OW 1916   3.366   3.469   1.906
 2420SOL    HW1 1917   3.274   3.506   1.913
 2420SOL    HW2 1918   3.404   3.489   1.816
 2421SOL     OW 1919   2.234   3.150   3.352
 2421SOL    HW1 1920   2.221   3.243   3.318
 2421SOL    HW2 1921   2.150   3.098   3.339
 2422SOL     OW 1922   3.476   3.154   3.151
 2422SOL    HW1 1923   3.536   3.157   3.231
 2422SOL    HW2 1924   3.401   3.218   3.164
 2423SOL     OW 1925   2.901   2.960   2.558
 2423SOL    HW1 1926   2.831   2.913   2.612
 2423SOL    HW2 1927   2.960   2.892   2.515
 2424SOL     OW 1928   2.876   2.098   2.833
 2424SOL    HW1 1929   2.868   2.062   2.740
 2424SOL    HW2 1930   2.874   2.022   2.898
 2425SOL     OW 1931   2.452   3.349   2.353
 2425SOL    HW1 1932   2.494   3.291   2.283
 2425SOL    HW2 1933   2.408   3.428   2.309
 2426SOL     OW 1934   3.571   2.247   3.243
 2426SOL    HW1 1935   3.644   2.316   3.247
 2426SOL    HW2 1936   3.599   2.172   3.184
 2427SOL     OW 1937   2.117   3.210   2.152
 2427SOL    HW1 1938   2.021   3.211   2.125
 2427SOL    HW2 1939   2.129   3.263   2.236
 2428SOL     OW 1940   1.967   2.875   3.588
 2428SOL    HW1 1941   1.890   2.842   3.642
 2428SOL    HW2 1942   2.052   2.845   3.630
 2429SOL     OW 1943   2.534   2.065   3.351
 2429SOL    HW1 1944   2.624   2.049   3.311
 2429SOL    HW2 1945   2.542   2.070   3.450
 2430SOL     OW 1946   1.937   2.207   1.895
 2430SOL    HW1 1947   1.845   2.179   1.866
 2430SOL    HW2 1948   1.968   2.284   1.839
 2431SOL     OW 1949   3.302   2.718   3.260
 2431SOL    HW1 1950   3.245   2.770   3.197
 2431SOL    HW2 1951   3.398   2.730   3.236
 2432SOL     OW 1952   1.934   2.028   2.180
 2432SOL    HW1 1953   1.917   2.111   2.126
 2432SOL    HW2 1954   2.024   1.991   2.158
 2433SOL     OW 1955   3.045   3.197   1.981
 2433SOL    HW1 1956   2.946   3.186   1.983
 2433SOL    HW2 1957   3.079   3.212   2.074
 2434SOL     OW 1958   2.475   2.704   3.293
 2434SOL    HW1 1959   2.531   2.785   3.276
 2434SOL    HW2 1960   2.534   2.624   3.296
 2435SOL     OW 1961   3.355   3.629   2.821
 2435SOL    HW1 1962   3.388   3.693   2.752
 2435SOL    HW2 1963   3.421   3.623   2.896
 2436SOL     OW 1964   2.578   2.427   3.570
 2436SOL    HW1 1965   2.597   2.492   3.644
 2436SOL    HW2 1966   2.638   2.347   3.579
 2437SOL     OW 1967   3.312   3.082   3.495
 2437SOL    HW1 1968   3.303   3.072   3.594
 2437SOL    HW2 1969   3.408   3.075   3.469
 2438SOL     OW 1970   2.252   3.603   3.422
 2438SOL    HW1 1971   2.161   3.644   3.420
 2438SOL    HW2 1972   2.245   3.509   3.454
 2439SOL     OW 1973   3.536   2.745   3.116
 2439SOL    HW1 1974   3.509   2.656   3.079
 2439SOL    HW2 1975   3.537   2.813   3.043
 2440SOL     OW 1976   3.087   2.187   2.311
 2440SOL    HW1 1977   3.152   2.113   2.300
 2440SOL    HW2 1978   3.107   2.237   2.395
 2441SOL     OW 1979   3.639   2.204   3.504
 2441SOL    HW1 1980   3.622   2.235   3.410
 2441SOL    HW2 1981   3.555   2.167   3.542
 2442SOL     OW 1982   3.592   2.796   3.379
 2442SOL    HW1 1983   3.630   2.887   3.394
 2442SOL    HW2 1984   3.584   2.779   3.280
 2443SOL     OW 1985   2.721   3.236   1.878
 2443SOL    HW1 1986   2.675   3.251   1.966
 2443SOL    HW2 1987   2.765   3.321   1.848
 2444SOL     OW 1988   2.523   3.652   2.815
 2444SOL    HW1 1989   2.477   3.740   2.802
 2444SOL    HW2 1990   2.622   3.664   2.808
 2445SOL     OW 1991   2.721   2.818   2.723
 2445SOL    HW1 1992   2.775   2.749   2.771
 2445SOL    HW2 1993   2.689   2.887   2.789
 2446SOL     OW 1994   2.945   2.846   1.949
 2446SOL    HW1 1995   2.922   2.899   1.867
 2446SOL    HW2 1996   3.026   2.790   1.930
 2447SOL     OW 1997   3.723   3.431   2.713
 2447SOL    HW1 1998   3.652   3.419   2.643
 2447SOL    HW2 1999   3.724   3.352   2.773
 2448SOL     OW 2000   2.083   3.176   3.706
 2448SOL    HW1 2001   2.018   3.103   3.685
 2448SOL    HW2 2002   2.087   3.190   3.804
 2449SOL     OW 2003   1.941   3.102   2.515
 2449SOL    HW1 2004   1.940   3.055   2.603
 2449SOL    HW2 2005   2.023   3.074   2.464
 2450SOL     OW 2006   2.534   3.253   3.486
 2450SOL    HW1 2007   2.456   3.203   3.524
 2450SOL    HW2 2008   2.531   3.348   3.517
 2451SOL     OW 2009   3.686   2.054   3.089
 2451SOL    HW1 2010   3.682   1.964   3.133
 2451SOL    HW2 2011   3.689   2.043   2.990
 2452SOL     OW 2012   3.567   3.349   2.966
 2452SOL    HW1 2013   3.474   3.324   2.939
 2452SOL    HW2 2014   3.593   3.299   3.048
 2453SOL     OW 2015   2.179   2.409   3.142
 2453SOL    HW1 2016   2.217   2.350   3.214
 2453SOL    HW2 2017   2.219   2.383   3.054
 2454SOL     OW 2018   2.674   3.448   2.549
 2454SOL    HW1 2019   2.706   3.458   2.455
 2454SOL    HW2 2020   2.595   3.386   2.551
 2455SOL     OW 2021   3.286   2.076   2.974
 2455SOL    HW1 2022   3.338   2.011   3.029
 2455SOL    HW2 2023   3.237   2.139   3.035
 2456SOL     OW 2024   2.863   1.896   3.016
 2456SOL    HW1 2025   2.800   1.824   2.985
 2456SOL    HW2 2026   2.956   1.860   3.016
 2457SOL     OW 2027   2.632   3.192   2.163
 2457SOL    HW1 2028   2.586   3.105   2.180
 2457SOL    HW2 2029   2.723   3.189   2.204
 2458SOL     OW 2030   2.480   3.429   3.146
 2458SOL    HW1 2031   2.475   3.511   3.203
 2458SOL    HW2 2032   2.569   3.426   3.101
 2459SOL     OW 2033   3.214   1.914   2.030
 2459SOL    HW1 2034   3.249   1.873   1.946
 2459SOL    HW2 2035   3.124   1.876   2.050
 2460SOL     OW 2036   3.162   2.315   2.553
 2460SOL    HW1 2037   3.103   2.395   2.557
 2460SOL    HW2 2038   3.177   2.280   2.646
 2461SOL     OW 2039   3.455   2.083   2.744
 2461SOL    HW1 2040   3.371   2.082   2.798
 2461SOL    HW2 2041   3.457   2.166   2.688
 2462SOL     OW 2042   1.901   2.939   2.162
 2462SOL    HW1 2043   2.000   2.928   2.153
 2462SOL    HW2 2044   1.861   2.853   2.194
 2463SOL     OW 2045   2.737   3.508   2.199
 2463SOL    HW1 2046   2.660   3.473   2.145
 2463SOL    HW2 2047   2.705   3.579   2.261
 2464SOL     OW 2048   2.092   2.490   3.837
 2464SOL    HW1 2049   1.999   2.488   3.874
 2464SOL    HW2 2050   2.093   2.451   3.745
 2478SOL     OW 2051   2.468   2.826   3.847
 2478SOL    HW1 2052   2.475   2.910   3.793
 2478SOL    HW2 2053   2.514   2.839   3.935
 2481SOL     OW 2054   1.889   3.458   3.841
 2481SOL    HW1 2055   1.870   3.362   3.862
 2481SOL    HW2 2056   1.856   3.516   3.916
 2487SOL     OW 2057   3.387   2.861   3.914
 2487SOL    HW1 2058   3.324   2.785   3.927
 2487SOL    HW2 2059   3.435   2.879   4.000
 2490SOL     OW 2060   2.460   2.591   3.994
 2490SOL    HW1 2061   2.484   2.660   3.926
 2490SOL    HW2 2062   2.382   2.624   4.048
 2493SOL     OW 2063   2.903   2.563   4.153
 2493SOL    HW1 2064   2.929   2.559   4.249
 2493SOL    HW2 2065   2.818   2.512   4.139
 2495SOL     OW 2066   2.727   2.210   3.919
 2495SOL    HW1 2067   2.786   2.273   3.870
 2495SOL    HW2 2068   2.746   2.116   3.890
 2501SOL     OW 2069   2.183   2.805   3.966
 2501SOL    HW1 2070   2.265   2.844   3.924
 2501SOL    HW2 2071   2.156   2.723   3.917
 2509SOL     OW 2072   2.244   2.562   4.204
 2509SOL    HW1 2073   2.289   2.472   4.201
 2509SOL    HW2 2074   2.150   2.551   4.237
 2510SOL     OW 2075   2.476   1.984   3.841
 2510SOL    HW1 2076   2.574   1.962   3.848
 2510SOL    HW2 2077   2.445   1.967   3.748
 2514SOL     OW 2078   3.296   3.050   3.765
 2514SOL    HW1 2079   3.328   2.974   3.822
 2514SOL    HW2 2080   3.204   3.077   3.795
 2515SOL     OW 2081   2.159   1.897   3.895
 2515SOL    HW1 2082   2.208   1.981   3.874
 2515SOL    HW2 2083   2.221   1.832   3.940
 2520SOL     OW 2084   2.894   2.411   3.740
 2520SOL    HW1 2085   2.853   2.493   3.701
 2520SOL    HW2 2086   2.958   2.437   3.813
 2526SOL     OW 2087   2.350   3.247   3.898
 2526SOL    HW1 2088   2.263   3.232   3.945
 2526SOL    HW2 2089   2.333   3.273   3.803
 2528SOL     OW 2090   3.252   2.437   3.802
 2528SOL    HW1 2091   3.198   2.416   3.883
 2528SOL    HW2 2092   3.343   2.396   3.811
 2529SOL     OW 2093   2.389   2.118   4.052
 2529SOL    HW1 2094   2.416   2.059   3.977
 2529SOL    HW2 2095   2.389   2.213   4.021
 2532SOL     OW 2096   2.567   2.912   4.092
 2532SOL    HW1 2097   2.553   2.919   4.191
 2532SOL    HW2 2098   2.651   2.861   4.074
 2541SOL     OW 2099   3.071   2.387   3.999
 2541SOL    HW1 2100   3.084   2.303   4.053
 2541SOL    HW2 2101   3.042   2.461   4.059
 2547SOL     OW 2102   3.402   2.136   3.849
 2547SOL    HW1 2103   3.341   2.061   3.872
 2547SOL    HW2 2104   3.424   2.188   3.932
 2548SOL     OW 2105   3.165   2.700   3.766
 2548SOL    HW1 2106   3.199   2.607   3.781
 2548SOL    HW2 2107   3.183   2.727   3.671
 2552SOL     OW 2108   1.870   3.188   3.924
 2552SOL    HW1 2109   1.777   3.209   3.893
 2552SOL    HW2 2110   1.880   3.089   3.937
 2557SOL     OW 2111   2.677   2.434   4.049
 2557SOL    HW1 2112   2.684   2.345   4.003
 2557SOL    HW2 2113   2.583   2.468   4.041
 2559SOL     OW 2114   2.335   2.362   3.915
 2559SOL    HW1 2115   2.396   2.442   3.919
 2559SOL    HW2 2116   2.240   2.393   3.922
 2560SOL     OW 2117   3.164   2.717   4.033
 2560SOL    HW1 2118   3.078   2.686   4.075
 2560SOL    HW2 2119   3.160   2.703   3.934
 2566SOL     OW 2120   2.534   3.478   3.878
 2566SOL    HW1 2121   2.543   3.488   3.779
 2566SOL    HW2 2122   2.494   3.389   3.899
 2569SOL     OW 2123   3.056   3.474   3.755
 2569SOL    HW1 2124   3.062   3.381   3.792
 2569SOL    HW2 2125   2.997   3.474   3.675
 2571SOL     OW 2126   2.778   2.772   4.015
 2571SOL    HW1 2127   2.841   2.810   3.947
 2571SOL    HW2 2128   2.818   2.689   4.054
 2576SOL     OW 2129   2.117   3.210   4.014
 2576SOL    HW1 2130   2.021   3.211   3.987
 2576SOL    HW2 2131   2.129   3.263   4.098
 2577SOL     OW 2132   1.937   2.207   3.757
 2577SOL    HW1 2133   1.845   2.179   3.728
 2577SOL    HW2 2134   1.968   2.284   3.701
 2578SOL     OW 2135   1.934   2.028   4.042
 2578SOL    HW1 2136   1.917   2.111   3.988
 2578SOL    HW2 2137   2.024   1.991   4.020
 2579SOL     OW 2138   3.045   3.197   3.843
 2579SOL    HW1 2139   2.946   3.186   3.845
 2579SOL    HW2 2140   3.079   3.212   3.936
 2584SOL     OW 2141   2.721   3.236   3.740
 2584SOL    HW1 2142   2.675   3.251   3.828
 2584SOL    HW2 2143   2.765   3.321   3.710
 2587SOL     OW 2144   2.945   2.846   3.811
 2587SOL    HW1 2145   2.922   2.899   3.729
 2587SOL    HW2 2146   3.026   2.790   3.792
 2591SOL     OW 2147   2.290   2.286   4.244
 2591SOL    HW1 2148   2.320   2.214   4.182
 2591SOL    HW2 2149   2.251   2.246   4.327
 2594SOL     OW 2150   2.632   3.192   4.025
 2594SOL    HW1 2151   2.586   3.105   4.042
 2594SOL    HW2 2152   2.723   3.189   4.066
 2595SOL     OW 2153   3.214   1.914   3.892
 2595SOL    HW1 2154   3.249   1.873   3.808
 2595SOL    HW2 2155   3.124   1.876   3.912
 2598SOL     OW 2156   1.901   2.939   4.024
 2598SOL    HW1 2157   2.000   2.928   4.015
 2598SOL    HW2 2158   1.861   2.853   4.056
 2622SOL     OW 2159   2.179   3.975   1.801
 2622SOL    HW1 2160   2.250   4.046   1.807
 2622SOL    HW2 2161   2.091   4.014   1.829
 2642SOL     OW 2162   2.643   3.988   1.749
 2642SOL    HW1 2163   2.710   3.927   1.792
 2642SOL    HW2 2164   2.570   4.007   1.814
 2662SOL     OW 2165   2.777   3.813   1.402
 2662SOL    HW1 2166   2.802   3.793   1.307
 2662SOL    HW2 2167   2.849   3.869   1.444
 2671SOL     OW 2168   2.875   3.829   1.770
 2671SOL    HW1 2169   2.881   3.914   1.718
 2671SOL    HW2 2170   2.907   3.753   1.713
 2672SOL     OW 2171   2.366   3.774   1.740
 2672SOL    HW1 2172   2.324   3.717   1.670
 2672SOL    HW2 2173   2.300   3.843   1.772
 2711SOL     OW 2174   2.534   3.927   1.489
 2711SOL    HW1 2175   2.624   3.911   1.449
 2711SOL    HW2 2176   2.542   3.932   1.588
 2737SOL     OW 2177   2.087   3.999   2.858
 2737SOL    HW1 2178   2.122   3.982   2.950
 2737SOL    HW2 2179   1.999   3.954   2.846
 2738SOL     OW 2180   1.881   4.092   2.509
 2738SOL    HW1 2181   1.799   4.135   2.548
 2738SOL    HW2 2182   1.853   4.019   2.446
 2755SOL     OW 2183   2.671   3.728   2.364
 2755SOL    HW1 2184   2.711   3.819   2.355
 2755SOL    HW2 2185   2.571   3.736   2.370
 2760SOL     OW 2186   3.143   4.069   2.806
 2760SOL    HW1 2187   3.057   4.019   2.793
 2760SOL    HW2 2188   3.205   4.015   2.862
 2767SOL     OW 2189   2.727   4.072   2.057
 2767SOL    HW1 2190   2.786   4.135   2.008
 2767SOL    HW2 2191   2.746   3.978   2.028
 2769SOL     OW 2192   2.412   3.920   2.747
 2769SOL    HW1 2193   2.407   3.915   2.847
 2769SOL    HW2 2194   2.414   4.016   2.718
 2774SOL     OW 2195   3.262   3.831   2.288
 2774SOL    HW1 2196   3.238   3.794   2.198
 2774SOL    HW2 2197   3.361   3.847   2.292
 2777SOL     OW 2198   2.476   3.846   1.979
 2777SOL    HW1 2199   2.574   3.824   1.986
 2777SOL    HW2 2200   2.445   3.829   1.886
 2781SOL     OW 2201   2.401   3.788   2.374
 2781SOL    HW1 2202   2.320   3.789   2.432
 2781SOL    HW2 2203   2.404   3.871   2.319
 2782SOL     OW 2204   2.159   3.759   2.033
 2782SOL    HW1 2205   2.208   3.843   2.012
 2782SOL    HW2 2206   2.221   3.694   2.078
 2783SOL     OW 2207   2.797   3.960   2.342
 2783SOL    HW1 2208   2.749   4.001   2.264
 2783SOL    HW2 2209   2.896   3.958   2.323
 2788SOL     OW 2210   2.423   3.946   3.009
 2788SOL    HW1 2211   2.461   3.862   3.046
 2788SOL    HW2 2212   2.335   3.965   3.053
 2789SOL     OW 2213   2.728   4.178   2.504
 2789SOL    HW1 2214   2.696   4.250   2.442
 2789SOL    HW2 2215   2.752   4.097   2.451
 2790SOL     OW 2216   2.879   3.763   2.615
 2790SOL    HW1 2217   2.807   3.768   2.546
 2790SOL    HW2 2218   2.855   3.694   2.684
 2795SOL     OW 2219   2.389   3.980   2.190
 2795SOL    HW1 2220   2.416   3.921   2.115
 2795SOL    HW2 2221   2.389   4.075   2.159
 2798SOL     OW 2222   2.777   3.813   3.264
 2798SOL    HW1 2223   2.802   3.793   3.169
 2798SOL    HW2 2224   2.849   3.869   3.306
 2808SOL     OW 2225   2.366   3.774   3.602
 2808SOL    HW1 2226   2.324   3.717   3.532
 2808SOL    HW2 2227   2.300   3.843   3.634
 2812SOL     OW 2228   2.169   3.937   3.093
 2812SOL    HW1 2229   2.146   3.974   3.183
 2812SOL    HW2 2230   2.139   3.842   3.087
 2815SOL     OW 2231   2.169   3.787   2.480
 2815SOL    HW1 2232   2.158   3.881   2.513
 2815SOL    HW2 2233   2.164   3.724   2.557
 2824SOL     OW 2234   3.022   3.931   3.339
 2824SOL    HW1 2235   3.022   3.995   3.416
 2824SOL    HW2 2236   3.050   3.979   3.256
 2836SOL     OW 2237   3.588   3.859   2.385
 2836SOL    HW1 2238   3.661   3.842   2.318
 2836SOL    HW2 2239   3.557   3.772   2.423
 2839SOL     OW 2240   2.125   4.050   2.582
 2839SOL    HW1 2241   2.046   4.101   2.548
 2839SOL    HW2 2242   2.116   4.035   2.680
 2843SOL     OW 2243   2.876   3.960   2.833
 2843SOL    HW1 2244   2.868   3.924   2.740
 2843SOL    HW2 2245   2.874   3.884   2.898
 2846SOL     OW 2246   2.534   3.927   3.351
 2846SOL    HW1 2247   2.624   3.911   3.311
 2846SOL    HW2 2248   2.542   3.932   3.450
 2847SOL     OW 2249   1.937   4.069   1.895
 2847SOL    HW1 2250   1.845   4.041   1.866
 2847SOL    HW2 2251   1.968   4.146   1.839
 2849SOL     OW 2252   1.934   3.890   2.180
 2849SOL    HW1 2253   1.917   3.973   2.126
 2849SOL    HW2 2254   2.024   3.853   2.158
 2855SOL     OW 2255   3.087   4.049   2.311
 2855SOL    HW1 2256   3.152   3.975   2.300
 2855SOL    HW2 2257   3.107   4.099   2.395
 2863SOL     OW 2258   2.290   4.148   2.382
 2863SOL    HW1 2259   2.320   4.076   2.320
 2863SOL    HW2 2260   2.251   4.108   2.465
 2865SOL     OW 2261   3.286   3.938   2.974
 2865SOL    HW1 2262   3.338   3.873   3.029
 2865SOL    HW2 2263   3.237   4.001   3.035
 2866SOL     OW 2264   2.863   3.758   3.016
 2866SOL    HW1 2265   2.800   3.686   2.985
 2866SOL    HW2 2266   2.956   3.722   3.016
 2868SOL     OW 2267   3.214   3.776   2.030
 2868SOL    HW1 2268   3.249   3.735   1.946
 2868SOL    HW2 2269   3.124   3.738   2.050
 2992SOL     OW 2270   3.854   1.821   1.571
 2992SOL    HW1 2271   3.844   1.806   1.670
 2992SOL    HW2 2272   3.768   1.857   1.535
 3065SOL     OW 2273   3.854   1.794   1.851
 3065SOL    HW1 2274   3.813   1.720   1.904
 3065SOL    HW2 2275   3.918   1.845   1.909
 3108SOL     OW 2276   3.955   1.713   2.345
 3108SOL    HW1 2277   3.989   1.790   2.399
 3108SOL    HW2 2278   3.999   1.713   2.255
 3115SOL     OW 2279   3.751   1.596   1.979
 3115SOL    HW1 2280   3.732   1.500   2.000
 3115SOL    HW2 2281   3.718   1.654   2.054
 3131SOL     OW 2282   4.075   1.801   2.715
 3131SOL    HW1 2283   4.125   1.715   2.721
 3131SOL    HW2 2284   4.140   1.878   2.712
 3136SOL     OW 2285   3.973   1.785   3.103
 3136SOL    HW1 2286   4.030   1.720   3.153
 3136SOL    HW2 2287   3.957   1.752   3.010
 3161SOL     OW 2288   3.788   1.564   3.193
 3161SOL    HW1 2289   3.742   1.646   3.159
 3161SOL    HW2 2290   3.886   1.583   3.202
 3184SOL     OW 2291   3.732   1.326   2.062
 3184SOL    HW1 2292   3.639   1.347   2.031
 3184SOL    HW2 2293   3.742   1.227   2.075
 3185SOL     OW 2294   3.812   1.801   2.789
 3185SOL    HW1 2295   3.770   1.715   2.762
 3185SOL    HW2 2296   3.906   1.804   2.755
 3341SOL     OW 2297   3.837   2.599   1.597
 3341SOL    HW1 2298   3.925   2.586   1.642
 3341SOL    HW2 2299   3.824   2.696   1.575
 3345SOL     OW 2300   4.041   2.113   1.801
 3345SOL    HW1 2301   4.112   2.184   1.807
 3345SOL    HW2 2302   3.953   2.152   1.829
 3359SOL     OW 2303   3.926   2.147   1.498
 3359SOL    HW1 2304   3.846   2.207   1.485
 3359SOL    HW2 2305   3.916   2.098   1.584
 3377SOL     OW 2306   3.802   2.418   1.386
 3377SOL    HW1 2307   3.894   2.417   1.345
 3377SOL    HW2 2308   3.796   2.492   1.453
 3403SOL     OW 2309   4.074   2.760   1.804
 3403SOL    HW1 2310   4.150   2.804   1.852
 3403SOL    HW2 2311   4.109   2.713   1.722
 3414SOL     OW 2312   3.913   2.382   1.722
 3414SOL    HW1 2313   3.972   2.342   1.652
 3414SOL    HW2 2314   3.855   2.453   1.681
 3436SOL     OW 2315   3.829   2.875   1.726
 3436SOL    HW1 2316   3.752   2.842   1.780
 3436SOL    HW2 2317   3.914   2.845   1.768
 3447SOL     OW 2318   3.945   3.176   1.844
 3447SOL    HW1 2319   3.880   3.103   1.823
 3447SOL    HW2 2320   3.949   3.190   1.942
 3458SOL     OW 2321   3.954   2.490   1.975
 3458SOL    HW1 2322   3.861   2.488   2.012
 3458SOL    HW2 2323   3.955   2.451   1.883
 3459SOL     OW 2324   3.949   2.137   2.858
 3459SOL    HW1 2325   3.984   2.120   2.950
 3459SOL    HW2 2326   3.861   2.092   2.846
 3460SOL     OW 2327   3.743   2.230   2.509
 3460SOL    HW1 2328   3.661   2.273   2.548
 3460SOL    HW2 2329   3.715   2.157   2.446
 3470SOL     OW 2330   3.954   3.296   2.400
 3470SOL    HW1 2331   3.928   3.392   2.400
 3470SOL    HW2 2332   3.883   3.242   2.445
 3471SOL     OW 2333   3.964   2.953   2.748
 3471SOL    HW1 2334   3.978   2.869   2.800
 3471SOL    HW2 2335   3.909   3.017   2.803
 3474SOL     OW 2336   3.846   2.505   2.425
 3474SOL    HW1 2337   3.801   2.417   2.442
 3474SOL    HW2 2338   3.845   2.559   2.509
 3475SOL     OW 2339   3.751   3.458   1.979
 3475SOL    HW1 2340   3.732   3.362   2.000
 3475SOL    HW2 2341   3.718   3.516   2.054
 3476SOL     OW 2342   3.837   2.599   3.459
 3476SOL    HW1 2343   3.925   2.586   3.504
 3476SOL    HW2 2344   3.824   2.696   3.437
 3479SOL     OW 2345   3.921   2.838   3.126
 3479SOL    HW1 2346   4.010   2.793   3.112
 3479SOL    HW2 2347   3.848   2.773   3.107
 3486SOL     OW 2348   3.800   2.673   2.651
 3486SOL    HW1 2349   3.899   2.661   2.660
 3486SOL    HW2 2350   3.776   2.768   2.672
 3492SOL     OW 2351   4.045   2.805   2.104
 3492SOL    HW1 2352   4.127   2.844   2.062
 3492SOL    HW2 2353   4.018   2.723   2.055
 3494SOL     OW 2354   3.926   2.147   3.360
 3494SOL    HW1 2355   3.846   2.207   3.347
 3494SOL    HW2 2356   3.916   2.098   3.446
 3498SOL     OW 2357   4.106   2.562   2.342
 3498SOL    HW1 2358   4.151   2.472   2.339
 3498SOL    HW2 2359   4.012   2.551   2.375
 3505SOL     OW 2360   4.021   1.897   2.033
 3505SOL    HW1 2361   4.070   1.981   2.012
 3505SOL    HW2 2362   4.083   1.832   2.078
 3511SOL     OW 2363   3.802   2.418   3.248
 3511SOL    HW1 2364   3.894   2.417   3.207
 3511SOL    HW2 2365   3.796   2.492   3.315
 3521SOL     OW 2366   3.788   3.426   3.193
 3521SOL    HW1 2367   3.742   3.508   3.159
 3521SOL    HW2 2368   3.886   3.445   3.202
 3522SOL     OW 2369   4.091   2.962   2.363
 3522SOL    HW1 2370   4.084   3.045   2.307
 3522SOL    HW2 2371   4.095   2.882   2.303
 3531SOL     OW 2372   4.031   2.075   3.093
 3531SOL    HW1 2373   4.008   2.112   3.183
 3531SOL    HW2 2374   4.001   1.980   3.087
 3532SOL     OW 2375   3.761   3.172   3.144
 3532SOL    HW1 2376   3.814   3.123   3.212
 3532SOL    HW2 2377   3.783   3.270   3.149
 3534SOL     OW 2378   4.031   1.925   2.480
 3534SOL    HW1 2379   4.020   2.019   2.513
 3534SOL    HW2 2380   4.026   1.862   2.557
 3540SOL     OW 2381   4.043   2.672   2.811
 3540SOL    HW1 2382   4.136   2.708   2.816
 3540SOL    HW2 2383   4.037   2.587   2.863
 3541SOL     OW 2384   4.063   2.371   2.868
 3541SOL    HW1 2385   4.011   2.288   2.851
 3541SOL    HW2 2386   4.140   2.376   2.804
 3544SOL     OW 2387   3.732   3.188   2.062
 3544SOL    HW1 2388   3.639   3.209   2.031
 3544SOL    HW2 2389   3.742   3.089   2.075
 3548SOL     OW 2390   3.764   2.406   2.976
 3548SOL    HW1 2391   3.849   2.373   2.935
 3548SOL    HW2 2392   3.777   2.421   3.074
 3554SOL     OW 2393   4.197   2.362   2.053
 3554SOL    HW1 2394   4.258   2.442   2.057
 3554SOL    HW2 2395   4.102   2.393   2.060
 3555SOL     OW 2396   3.883   2.999   3.328
 3555SOL    HW1 2397   3.905   2.938   3.404
 3555SOL    HW2 2398   3.893   2.950   3.242
 3557SOL     OW 2399   3.807   3.120   2.884
 3557SOL    HW1 2400   3.802   3.119   2.984
 3557SOL    HW2 2401   3.724   3.079   2.846
 3562SOL     OW 2402   3.987   2.188   2.582
 3562SOL    HW1 2403   3.908   2.239   2.548
 3562SOL    HW2 2404   3.978   2.173   2.680
 3569SOL     OW 2405   3.979   3.210   2.152
 3569SOL    HW1 2406   3.883   3.211   2.125
 3569SOL    HW2 2407   3.991   3.263   2.236
 3572SOL     OW 2408   3.799   2.207   1.895
 3572SOL    HW1 2409   3.707   2.179   1.866
 3572SOL    HW2 2410   3.830   2.284   1.839
 3573SOL     OW 2411   3.796   2.028   2.180
 3573SOL    HW1 2412   3.779   2.111   2.126
 3573SOL    HW2 2413   3.886   1.991   2.158
 3583SOL     OW 2414   3.803   3.102   2.515
 3583SOL    HW1 2415   3.802   3.055   2.603
 3583SOL    HW2 2416   3.885   3.074   2.464
 3585SOL     OW 2417   4.152   2.286   2.382
 3585SOL    HW1 2418   4.182   2.214   2.320
 3585SOL    HW2 2419   4.113   2.246   2.465
 3586SOL     OW 2420   4.041   2.409   3.142
 3586SOL    HW1 2421   4.079   2.350   3.214
 3586SOL    HW2 2422   4.081   2.383   3.054
 3591SOL     OW 2423   3.763   2.939   2.162
 3591SOL    HW1 2424   3.862   2.928   2.153
 3591SOL    HW2 2425   3.723   2.853   2.194
   4.92487   4.92487   4.92487
