mobley_1592519_GMX.gro created by acpype (v: 2023.10.27) on Thu May 21 00:20:48 2026
 2408
    1MOL     C1    1   2.607   2.422   2.624
    1MOL     C2    2   2.435   2.990   2.389
    1MOL     C3    3   2.807   2.209   2.844
    1MOL     C4    4   2.621   2.571   2.605
    1MOL     C5    5   2.421   2.840   2.405
    1MOL     C6    6   2.514   2.631   2.513
    1MOL     C7    7   2.532   2.782   2.494
    1MOL     C8    8   2.697   2.240   2.745
    1MOL     O1    9   2.522   2.352   2.570
    1MOL     O2   10   2.701   2.379   2.713
    1MOL     H1   11   2.429   3.040   2.486
    1MOL     H2   12   2.531   3.016   2.343
    1MOL     H3   13   2.355   3.029   2.325
    1MOL     H4   14   2.807   2.103   2.870
    1MOL     H5   15   2.905   2.235   2.803
    1MOL     H6   16   2.794   2.268   2.936
    1MOL     H7   17   2.721   2.593   2.564
    1MOL     H8   18   2.614   2.618   2.704
    1MOL     H9   19   2.425   2.792   2.306
    1MOL    H10   20   2.323   2.817   2.448
    1MOL    H11   21   2.416   2.612   2.558
    1MOL    H12   22   2.515   2.581   2.416
    1MOL    H13   23   2.629   2.804   2.449
    1MOL    H14   24   2.530   2.832   2.592
    1MOL    H15   25   2.599   2.216   2.787
    1MOL    H16   26   2.712   2.183   2.652
   97SOL     OW   27   1.592   1.629   1.625
   97SOL    HW1   28   1.619   1.663   1.535
   97SOL    HW2   29   1.671   1.591   1.671
  127SOL     OW   30   1.859   1.518   1.605
  127SOL    HW1   31   1.873   1.545   1.510
  127SOL    HW2   32   1.942   1.540   1.658
  163SOL     OW   33   1.650   1.720   1.394
  163SOL    HW1   34   1.703   1.730   1.310
  163SOL    HW2   35   1.623   1.810   1.428
  219SOL     OW   36   1.555   1.511   2.565
  219SOL    HW1   37   1.498   1.495   2.646
  219SOL    HW2   38   1.496   1.521   2.485
  227SOL     OW   39   1.460   1.505   3.201
  227SOL    HW1   40   1.484   1.599   3.227
  227SOL    HW2   41   1.444   1.451   3.283
  238SOL     OW   42   1.842   1.767   2.221
  238SOL    HW1   43   1.896   1.738   2.301
  238SOL    HW2   44   1.872   1.857   2.192
  241SOL     OW   45   1.641   1.108   2.294
  241SOL    HW1   46   1.727   1.110   2.242
  241SOL    HW2   47   1.655   1.155   2.382
  250SOL     OW   48   1.466   1.417   2.815
  250SOL    HW1   49   1.407   1.423   2.895
  250SOL    HW2   50   1.451   1.329   2.769
  251SOL     OW   51   1.667   1.714   2.434
  251SOL    HW1   52   1.626   1.691   2.346
  251SOL    HW2   53   1.649   1.640   2.499
  254SOL     OW   54   1.576   1.662   2.169
  254SOL    HW1   55   1.665   1.708   2.172
  254SOL    HW2   56   1.555   1.638   2.074
  268SOL     OW   57   1.795   1.066   2.735
  268SOL    HW1   58   1.733   1.051   2.659
  268SOL    HW2   59   1.743   1.077   2.820
  273SOL     OW   60   1.111   1.776   2.099
  273SOL    HW1   61   1.051   1.714   2.149
  273SOL    HW2   62   1.142   1.732   2.014
  275SOL     OW   63   1.632   1.377   1.943
  275SOL    HW1   64   1.600   1.471   1.933
  275SOL    HW2   65   1.556   1.314   1.931
  293SOL     OW   66   1.227   1.570   2.655
  293SOL    HW1   67   1.248   1.644   2.590
  293SOL    HW2   68   1.295   1.570   2.728
  295SOL     OW   69   1.271   1.797   2.453
  295SOL    HW1   70   1.315   1.861   2.389
  295SOL    HW2   71   1.221   1.849   2.523
  305SOL     OW   72   1.664   1.280   2.519
  305SOL    HW1   73   1.763   1.288   2.533
  305SOL    HW2   74   1.619   1.364   2.550
  310SOL     OW   75   1.592   1.629   3.487
  310SOL    HW1   76   1.619   1.663   3.397
  310SOL    HW2   77   1.671   1.591   3.533
  312SOL     OW   78   1.638   1.099   2.941
  312SOL    HW1   79   1.643   1.180   3.000
  312SOL    HW2   80   1.552   1.101   2.890
  322SOL     OW   81   1.272   1.445   3.004
  322SOL    HW1   82   1.319   1.458   3.091
  322SOL    HW2   83   1.206   1.371   3.013
  340SOL     OW   84   1.859   1.518   3.467
  340SOL    HW1   85   1.873   1.545   3.372
  340SOL    HW2   86   1.942   1.540   3.520
  365SOL     OW   87   1.759   1.747   3.016
  365SOL    HW1   88   1.820   1.777   2.943
  365SOL    HW2   89   1.721   1.658   2.994
  366SOL     OW   90   1.252   1.731   2.990
  366SOL    HW1   91   1.336   1.736   2.936
  366SOL    HW2   92   1.229   1.635   3.008
  370SOL     OW   93   1.388   1.573   2.339
  370SOL    HW1   94   1.455   1.585   2.265
  370SOL    HW2   95   1.348   1.662   2.362
  375SOL     OW   96   1.650   1.720   3.256
  375SOL    HW1   97   1.703   1.730   3.172
  375SOL    HW2   98   1.623   1.810   3.290
  381SOL     OW   99   1.504   1.607   1.906
  381SOL    HW1  100   1.412   1.644   1.913
  381SOL    HW2  101   1.542   1.627   1.816
  383SOL     OW  102   1.614   1.292   3.151
  383SOL    HW1  103   1.674   1.295   3.231
  383SOL    HW2  104   1.539   1.356   3.164
  396SOL     OW  105   1.493   1.767   2.821
  396SOL    HW1  106   1.526   1.831   2.752
  396SOL    HW2  107   1.559   1.761   2.896
  409SOL     OW  108   1.861   1.569   2.713
  409SOL    HW1  109   1.790   1.557   2.643
  409SOL    HW2  110   1.862   1.490   2.773
  415SOL     OW  111   1.705   1.487   2.966
  415SOL    HW1  112   1.612   1.462   2.939
  415SOL    HW2  113   1.731   1.437   3.048
  611SOL     OW  114   1.594   1.976   1.480
  611SOL    HW1  115   1.576   2.043   1.408
  611SOL    HW2  116   1.591   2.022   1.569
  631SOL     OW  117   1.394   2.331   1.674
  631SOL    HW1  118   1.374   2.374   1.762
  631SOL    HW2  119   1.472   2.269   1.683
  638SOL     OW  120   1.719   2.447   1.831
  638SOL    HW1  121   1.693   2.536   1.795
  638SOL    HW2  122   1.717   2.379   1.758
  656SOL     OW  123   1.547   2.084   1.729
  656SOL    HW1  124   1.542   2.121   1.821
  656SOL    HW2  125   1.475   2.015   1.717
  659SOL     OW  126   1.351   2.452   1.433
  659SOL    HW1  127   1.379   2.409   1.518
  659SOL    HW2  128   1.376   2.548   1.434
  681SOL     OW  129   1.754   3.085   1.588
  681SOL    HW1  130   1.845   3.046   1.575
  681SOL    HW2  131   1.762   3.181   1.612
  683SOL     OW  132   1.592   3.491   1.625
  683SOL    HW1  133   1.619   3.525   1.535
  683SOL    HW2  134   1.671   3.453   1.671
  699SOL     OW  135   1.587   2.641   1.670
  699SOL    HW1  136   1.495   2.679   1.665
  699SOL    HW2  137   1.647   2.688   1.605
  708SOL     OW  138   1.728   2.797   1.854
  708SOL    HW1  139   1.682   2.790   1.765
  708SOL    HW2  140   1.666   2.841   1.920
  713SOL     OW  141   1.859   3.380   1.605
  713SOL    HW1  142   1.873   3.407   1.510
  713SOL    HW2  143   1.942   3.402   1.658
  720SOL     OW  144   1.138   2.242   1.678
  720SOL    HW1  145   1.093   2.305   1.742
  720SOL    HW2  146   1.231   2.273   1.661
  728SOL     OW  147   1.369   2.812   1.660
  728SOL    HW1  148   1.408   2.901   1.680
  728SOL    HW2  149   1.379   2.792   1.563
  730SOL     OW  150   1.657   2.466   1.206
  730SOL    HW1  151   1.619   2.397   1.268
  730SOL    HW2  152   1.739   2.430   1.162
  757SOL     OW  153   1.614   3.154   1.289
  757SOL    HW1  154   1.674   3.157   1.369
  757SOL    HW2  155   1.539   3.218   1.302
  761SOL     OW  156   1.709   2.247   1.381
  761SOL    HW1  157   1.782   2.316   1.385
  761SOL    HW2  158   1.737   2.172   1.322
  766SOL     OW  159   1.440   2.718   1.398
  766SOL    HW1  160   1.383   2.770   1.335
  766SOL    HW2  161   1.536   2.730   1.374
  772SOL     OW  162   1.450   3.082   1.633
  772SOL    HW1  163   1.441   3.072   1.732
  772SOL    HW2  164   1.546   3.075   1.607
  774SOL     OW  165   1.674   2.745   1.254
  774SOL    HW1  166   1.647   2.656   1.217
  774SOL    HW2  167   1.675   2.813   1.181
  777SOL     OW  168   1.777   2.204   1.642
  777SOL    HW1  169   1.760   2.235   1.548
  777SOL    HW2  170   1.693   2.167   1.680
  778SOL     OW  171   1.730   2.796   1.517
  778SOL    HW1  172   1.768   2.887   1.532
  778SOL    HW2  173   1.722   2.779   1.418
  787SOL     OW  174   1.824   2.054   1.227
  787SOL    HW1  175   1.820   1.964   1.271
  787SOL    HW2  176   1.827   2.043   1.128
  805SOL     OW  177   1.555   3.373   2.565
  805SOL    HW1  178   1.498   3.357   2.646
  805SOL    HW2  179   1.496   3.383   2.485
  806SOL     OW  180   1.135   2.565   2.579
  806SOL    HW1  181   1.192   2.643   2.554
  806SOL    HW2  182   1.075   2.591   2.655
  807SOL     OW  183   1.755   2.469   2.093
  807SOL    HW1  184   1.743   2.456   1.994
  807SOL    HW2  185   1.725   2.388   2.142
  813SOL     OW  186   1.460   3.367   3.201
  813SOL    HW1  187   1.484   3.461   3.227
  813SOL    HW2  188   1.444   3.313   3.283
  815SOL     OW  189   1.603   2.309   2.599
  815SOL    HW1  190   1.529   2.355   2.549
  815SOL    HW2  191   1.654   2.377   2.652
  822SOL     OW  192   1.594   1.976   3.342
  822SOL    HW1  193   1.576   2.043   3.270
  822SOL    HW2  194   1.591   2.022   3.431
  824SOL     OW  195   1.842   3.629   2.221
  824SOL    HW1  196   1.896   3.600   2.301
  824SOL    HW2  197   1.872   3.719   2.192
  826SOL     OW  198   1.689   2.784   2.474
  826SOL    HW1  199   1.784   2.755   2.482
  826SOL    HW2  200   1.681   2.849   2.399
  827SOL     OW  201   1.641   2.970   2.294
  827SOL    HW1  202   1.727   2.972   2.242
  827SOL    HW2  203   1.655   3.017   2.382
  830SOL     OW  204   1.293   3.090   3.285
  830SOL    HW1  205   1.330   3.017   3.227
  830SOL    HW2  206   1.345   3.095   3.370
  833SOL     OW  207   1.525   2.861   2.052
  833SOL    HW1  208   1.462   2.785   2.065
  833SOL    HW2  209   1.573   2.879   2.138
  836SOL     OW  210   1.466   3.279   2.815
  836SOL    HW1  211   1.407   3.285   2.895
  836SOL    HW2  212   1.451   3.191   2.769
  837SOL     OW  213   1.667   3.576   2.434
  837SOL    HW1  214   1.626   3.553   2.346
  837SOL    HW2  215   1.649   3.502   2.499
  839SOL     OW  216   1.281   2.207   2.806
  839SOL    HW1  217   1.195   2.157   2.793
  839SOL    HW2  218   1.343   2.153   2.862
  840SOL     OW  219   1.576   3.524   2.169
  840SOL    HW1  220   1.665   3.570   2.172
  840SOL    HW2  221   1.555   3.500   2.074
  842SOL     OW  222   1.394   2.331   3.536
  842SOL    HW1  223   1.374   2.374   3.624
  842SOL    HW2  224   1.472   2.269   3.545
  844SOL     OW  225   0.991   2.272   3.104
  844SOL    HW1  226   0.914   2.306   3.158
  844SOL    HW2  227   0.957   2.221   3.025
  845SOL     OW  228   1.041   2.563   2.291
  845SOL    HW1  229   1.067   2.559   2.387
  845SOL    HW2  230   0.956   2.512   2.277
  849SOL     OW  231   1.719   2.447   3.693
  849SOL    HW1  232   1.693   2.536   3.657
  849SOL    HW2  233   1.717   2.379   3.620
  850SOL     OW  234   1.362   3.006   2.407
  850SOL    HW1  235   1.445   2.977   2.359
  850SOL    HW2  236   1.313   3.073   2.351
  852SOL     OW  237   1.008   3.318   2.339
  852SOL    HW1  238   0.962   3.390   2.287
  852SOL    HW2  239   1.004   3.338   2.437
  854SOL     OW  240   1.795   2.928   2.735
  854SOL    HW1  241   1.733   2.913   2.659
  854SOL    HW2  242   1.743   2.939   2.820
  855SOL     OW  243   1.227   3.412   3.368
  855SOL    HW1  244   1.233   3.335   3.432
  855SOL    HW2  245   1.175   3.386   3.288
  857SOL     OW  246   1.458   2.597   2.590
  857SOL    HW1  247   1.453   2.532   2.665
  857SOL    HW2  248   1.538   2.656   2.603
  861SOL     OW  249   1.632   3.239   1.943
  861SOL    HW1  250   1.600   3.333   1.933
  861SOL    HW2  251   1.556   3.176   1.931
  863SOL     OW  252   1.400   1.969   2.288
  863SOL    HW1  253   1.376   1.932   2.198
  863SOL    HW2  254   1.499   1.985   2.292
  867SOL     OW  255   1.547   2.084   3.591
  867SOL    HW1  256   1.542   2.121   3.683
  867SOL    HW2  257   1.475   2.015   3.579
  871SOL     OW  258   1.351   2.452   3.295
  871SOL    HW1  259   1.379   2.409   3.380
  871SOL    HW2  260   1.376   2.548   3.296
  873SOL     OW  261   0.922   2.365   2.761
  873SOL    HW1  262   0.897   2.356   2.665
  873SOL    HW2  263   0.970   2.283   2.792
  875SOL     OW  264   1.434   3.050   1.903
  875SOL    HW1  265   1.466   2.974   1.960
  875SOL    HW2  266   1.342   3.077   1.933
  877SOL     OW  267   0.935   2.098   2.342
  877SOL    HW1  268   0.887   2.139   2.264
  877SOL    HW2  269   1.034   2.096   2.323
  878SOL     OW  270   1.076   2.545   3.326
  878SOL    HW1  271   0.996   2.484   3.329
  878SOL    HW2  272   1.157   2.492   3.302
  879SOL     OW  273   1.227   3.432   2.655
  879SOL    HW1  274   1.248   3.506   2.590
  879SOL    HW2  275   1.295   3.432   2.728
  881SOL     OW  276   1.271   3.659   2.453
  881SOL    HW1  277   1.315   3.723   2.389
  881SOL    HW2  278   1.221   3.711   2.523
  882SOL     OW  279   1.032   2.411   1.878
  882SOL    HW1  280   0.991   2.493   1.839
  882SOL    HW2  281   1.096   2.437   1.951
  885SOL     OW  282   0.866   2.316   2.504
  885SOL    HW1  283   0.834   2.388   2.442
  885SOL    HW2  284   0.890   2.235   2.451
  886SOL     OW  285   1.017   1.901   2.615
  886SOL    HW1  286   0.945   1.906   2.546
  886SOL    HW2  287   0.993   1.832   2.684
  887SOL     OW  288   1.429   3.035   2.729
  887SOL    HW1  289   1.374   2.951   2.722
  887SOL    HW2  290   1.455   3.064   2.637
  888SOL     OW  291   1.466   2.452   2.854
  888SOL    HW1  292   1.436   2.357   2.861
  888SOL    HW2  293   1.539   2.468   2.920
  889SOL     OW  294   1.857   2.695   2.239
  889SOL    HW1  295   1.899   2.631   2.303
  889SOL    HW2  296   1.819   2.644   2.161
  891SOL     OW  297   1.664   3.142   2.519
  891SOL    HW1  298   1.763   3.150   2.533
  891SOL    HW2  299   1.619   3.226   2.550
  892SOL     OW  300   1.390   2.437   1.940
  892SOL    HW1  301   1.336   2.416   2.021
  892SOL    HW2  302   1.481   2.396   1.949
  894SOL     OW  303   1.754   3.085   3.450
  894SOL    HW1  304   1.845   3.046   3.437
  894SOL    HW2  305   1.762   3.181   3.474
  895SOL     OW  306   1.064   3.209   3.202
  895SOL    HW1  307   0.984   3.186   3.257
  895SOL    HW2  308   1.147   3.183   3.251
  896SOL     OW  309   1.592   3.491   3.487
  896SOL    HW1  310   1.619   3.525   3.397
  896SOL    HW2  311   1.671   3.453   3.533
  897SOL     OW  312   1.111   3.057   2.962
  897SOL    HW1  313   1.071   3.101   3.043
  897SOL    HW2  314   1.070   3.094   2.879
  898SOL     OW  315   1.638   2.961   2.941
  898SOL    HW1  316   1.643   3.042   3.000
  898SOL    HW2  317   1.552   2.963   2.890
  903SOL     OW  318   1.274   2.248   3.124
  903SOL    HW1  319   1.295   2.322   3.188
  903SOL    HW2  320   1.185   2.265   3.081
  907SOL     OW  321   1.252   3.210   2.250
  907SOL    HW1  322   1.302   3.287   2.290
  907SOL    HW2  323   1.157   3.212   2.282
  908SOL     OW  324   1.272   3.307   3.004
  908SOL    HW1  325   1.319   3.320   3.091
  908SOL    HW2  326   1.206   3.233   3.013
  909SOL     OW  327   1.582   2.501   2.334
  909SOL    HW1  328   1.551   2.562   2.407
  909SOL    HW2  329   1.632   2.553   2.265
  912SOL     OW  330   1.587   2.641   3.532
  912SOL    HW1  331   1.495   2.679   3.527
  912SOL    HW2  332   1.647   2.688   3.467
  916SOL     OW  333   1.360   2.724   2.907
  916SOL    HW1  334   1.285   2.724   2.841
  916SOL    HW2  335   1.397   2.632   2.916
  917SOL     OW  336   1.209   2.387   2.137
  917SOL    HW1  337   1.222   2.303   2.191
  917SOL    HW2  338   1.180   2.461   2.197
  921SOL     OW  339   1.728   2.797   3.716
  921SOL    HW1  340   1.682   2.790   3.627
  921SOL    HW2  341   1.666   2.841   3.782
  923SOL     OW  342   1.622   2.229   2.236
  923SOL    HW1  343   1.624   2.153   2.300
  923SOL    HW2  344   1.574   2.306   2.276
  924SOL     OW  345   1.023   2.628   2.828
  924SOL    HW1  346   1.038   2.649   2.924
  924SOL    HW2  347   0.993   2.533   2.819
  926SOL     OW  348   1.859   3.380   3.467
  926SOL    HW1  349   1.873   3.407   3.372
  926SOL    HW2  350   1.942   3.402   3.520
  928SOL     OW  351   1.540   2.136   1.987
  928SOL    HW1  352   1.479   2.061   2.010
  928SOL    HW2  353   1.562   2.188   2.070
  929SOL     OW  354   1.303   2.700   1.904
  929SOL    HW1  355   1.337   2.607   1.919
  929SOL    HW2  356   1.321   2.727   1.809
  930SOL     OW  357   1.068   3.195   2.711
  930SOL    HW1  358   1.075   3.111   2.656
  930SOL    HW2  359   1.130   3.264   2.675
  933SOL     OW  360   1.138   2.242   3.540
  933SOL    HW1  361   1.093   2.305   3.604
  933SOL    HW2  362   1.231   2.273   3.523
  934SOL     OW  363   1.160   2.069   3.339
  934SOL    HW1  364   1.160   2.133   3.416
  934SOL    HW2  365   1.188   2.117   3.256
  938SOL     OW  366   1.002   2.658   3.100
  938SOL    HW1  367   1.043   2.626   3.186
  938SOL    HW2  368   0.906   2.631   3.097
  941SOL     OW  369   1.369   2.812   3.522
  941SOL    HW1  370   1.408   2.901   3.542
  941SOL    HW2  371   1.379   2.792   3.425
  943SOL     OW  372   1.657   2.466   3.068
  943SOL    HW1  373   1.619   2.397   3.130
  943SOL    HW2  374   1.739   2.430   3.024
  949SOL     OW  375   1.347   2.921   3.096
  949SOL    HW1  376   1.371   2.858   3.022
  949SOL    HW2  377   1.257   2.961   3.078
  950SOL     OW  378   1.302   2.717   2.171
  950SOL    HW1  379   1.216   2.686   2.213
  950SOL    HW2  380   1.298   2.703   2.072
  951SOL     OW  381   1.759   3.609   3.016
  951SOL    HW1  382   1.820   3.639   2.943
  951SOL    HW2  383   1.721   3.520   2.994
  952SOL     OW  384   1.252   3.593   2.990
  952SOL    HW1  385   1.336   3.598   2.936
  952SOL    HW2  386   1.229   3.497   3.008
  955SOL     OW  387   1.726   1.997   2.385
  955SOL    HW1  388   1.799   1.980   2.318
  955SOL    HW2  389   1.695   1.910   2.423
  956SOL     OW  390   1.388   3.435   2.339
  956SOL    HW1  391   1.455   3.447   2.265
  956SOL    HW2  392   1.348   3.524   2.362
  958SOL     OW  393   1.280   2.789   2.534
  958SOL    HW1  394   1.340   2.708   2.536
  958SOL    HW2  395   1.320   2.858   2.474
  961SOL     OW  396   1.650   3.582   3.256
  961SOL    HW1  397   1.703   3.592   3.172
  961SOL    HW2  398   1.623   3.672   3.290
  962SOL     OW  399   1.841   2.037   2.825
  962SOL    HW1  400   1.880   1.952   2.789
  962SOL    HW2  401   1.743   2.039   2.806
  964SOL     OW  402   1.194   3.474   1.893
  964SOL    HW1  403   1.200   3.381   1.930
  964SOL    HW2  404   1.135   3.474   1.813
  966SOL     OW  405   0.916   2.772   2.153
  966SOL    HW1  406   0.979   2.810   2.085
  966SOL    HW2  407   0.956   2.689   2.192
  967SOL     OW  408   1.504   3.469   1.906
  967SOL    HW1  409   1.412   3.506   1.913
  967SOL    HW2  410   1.542   3.489   1.816
  969SOL     OW  411   1.614   3.154   3.151
  969SOL    HW1  412   1.674   3.157   3.231
  969SOL    HW2  413   1.539   3.218   3.164
  970SOL     OW  414   1.039   2.960   2.558
  970SOL    HW1  415   0.969   2.913   2.612
  970SOL    HW2  416   1.098   2.892   2.515
  971SOL     OW  417   1.014   2.098   2.833
  971SOL    HW1  418   1.006   2.062   2.740
  971SOL    HW2  419   1.012   2.022   2.898
  973SOL     OW  420   1.709   2.247   3.243
  973SOL    HW1  421   1.782   2.316   3.247
  973SOL    HW2  422   1.737   2.172   3.184
  978SOL     OW  423   1.440   2.718   3.260
  978SOL    HW1  424   1.383   2.770   3.197
  978SOL    HW2  425   1.536   2.730   3.236
  980SOL     OW  426   1.183   3.197   1.981
  980SOL    HW1  427   1.084   3.186   1.983
  980SOL    HW2  428   1.217   3.212   2.074
  982SOL     OW  429   1.493   3.629   2.821
  982SOL    HW1  430   1.526   3.693   2.752
  982SOL    HW2  431   1.559   3.623   2.896
  984SOL     OW  432   1.450   3.082   3.495
  984SOL    HW1  433   1.441   3.072   3.594
  984SOL    HW2  434   1.546   3.075   3.469
  986SOL     OW  435   1.674   2.745   3.116
  986SOL    HW1  436   1.647   2.656   3.079
  986SOL    HW2  437   1.675   2.813   3.043
  987SOL     OW  438   1.225   2.187   2.311
  987SOL    HW1  439   1.290   2.113   2.300
  987SOL    HW2  440   1.245   2.237   2.395
  989SOL     OW  441   1.777   2.204   3.504
  989SOL    HW1  442   1.760   2.235   3.410
  989SOL    HW2  443   1.693   2.167   3.542
  990SOL     OW  444   1.730   2.796   3.379
  990SOL    HW1  445   1.768   2.887   3.394
  990SOL    HW2  446   1.722   2.779   3.280
  993SOL     OW  447   0.859   2.818   2.723
  993SOL    HW1  448   0.913   2.749   2.771
  993SOL    HW2  449   0.827   2.887   2.789
  994SOL     OW  450   1.083   2.846   1.949
  994SOL    HW1  451   1.060   2.899   1.867
  994SOL    HW2  452   1.164   2.790   1.930
  995SOL     OW  453   1.861   3.431   2.713
  995SOL    HW1  454   1.790   3.419   2.643
  995SOL    HW2  455   1.862   3.352   2.773
  999SOL     OW  456   1.824   2.054   3.089
  999SOL    HW1  457   1.820   1.964   3.133
  999SOL    HW2  458   1.827   2.043   2.990
 1001SOL     OW  459   1.705   3.349   2.966
 1001SOL    HW1  460   1.612   3.324   2.939
 1001SOL    HW2  461   1.731   3.299   3.048
 1004SOL     OW  462   1.424   2.076   2.974
 1004SOL    HW1  463   1.476   2.011   3.029
 1004SOL    HW2  464   1.375   2.139   3.035
 1005SOL     OW  465   1.001   1.896   3.016
 1005SOL    HW1  466   0.938   1.824   2.985
 1005SOL    HW2  467   1.094   1.860   3.016
 1008SOL     OW  468   1.352   1.914   2.030
 1008SOL    HW1  469   1.387   1.873   1.946
 1008SOL    HW2  470   1.262   1.876   2.050
 1009SOL     OW  471   1.300   2.315   2.553
 1009SOL    HW1  472   1.241   2.395   2.557
 1009SOL    HW2  473   1.315   2.280   2.646
 1010SOL     OW  474   1.593   2.083   2.744
 1010SOL    HW1  475   1.509   2.082   2.798
 1010SOL    HW2  476   1.595   2.166   2.688
 1019SOL     OW  477   1.755   2.469   3.955
 1019SOL    HW1  478   1.743   2.456   3.856
 1019SOL    HW2  479   1.725   2.388   4.004
 1038SOL     OW  480   1.525   2.861   3.914
 1038SOL    HW1  481   1.462   2.785   3.927
 1038SOL    HW2  482   1.573   2.879   4.000
 1058SOL     OW  483   1.632   3.239   3.805
 1058SOL    HW1  484   1.600   3.333   3.795
 1058SOL    HW2  485   1.556   3.176   3.793
 1069SOL     OW  486   1.434   3.050   3.765
 1069SOL    HW1  487   1.466   2.974   3.822
 1069SOL    HW2  488   1.342   3.077   3.795
 1081SOL     OW  489   1.857   2.695   4.101
 1081SOL    HW1  490   1.899   2.631   4.165
 1081SOL    HW2  491   1.819   2.644   4.023
 1084SOL     OW  492   1.390   2.437   3.802
 1084SOL    HW1  493   1.336   2.416   3.883
 1084SOL    HW2  494   1.481   2.396   3.811
 1108SOL     OW  495   1.540   2.136   3.849
 1108SOL    HW1  496   1.479   2.061   3.872
 1108SOL    HW2  497   1.562   2.188   3.932
 1109SOL     OW  498   1.303   2.700   3.766
 1109SOL    HW1  499   1.337   2.607   3.781
 1109SOL    HW2  500   1.321   2.727   3.671
 1353SOL     OW  501   1.594   3.838   3.342
 1353SOL    HW1  502   1.576   3.905   3.270
 1353SOL    HW2  503   1.591   3.884   3.431
 1383SOL     OW  504   1.400   3.831   2.288
 1383SOL    HW1  505   1.376   3.794   2.198
 1383SOL    HW2  506   1.499   3.847   2.292
 1457SOL     OW  507   1.726   3.859   2.385
 1457SOL    HW1  508   1.799   3.842   2.318
 1457SOL    HW2  509   1.695   3.772   2.423
 1460SOL     OW  510   1.841   3.899   2.825
 1460SOL    HW1  511   1.880   3.814   2.789
 1460SOL    HW2  512   1.743   3.901   2.806
 1488SOL     OW  513   1.824   3.916   3.089
 1488SOL    HW1  514   1.820   3.826   3.133
 1488SOL    HW2  515   1.827   3.905   2.990
 1497SOL     OW  516   1.593   3.945   2.744
 1497SOL    HW1  517   1.509   3.944   2.798
 1497SOL    HW2  518   1.595   4.028   2.688
 1636SOL     OW  519   2.548   1.161   1.803
 1636SOL    HW1  520   2.608   1.240   1.817
 1636SOL    HW2  521   2.462   1.192   1.762
 1642SOL     OW  522   2.989   1.341   1.690
 1642SOL    HW1  523   3.036   1.341   1.778
 1642SOL    HW2  524   2.941   1.254   1.679
 1645SOL     OW  525   2.482   1.786   1.439
 1645SOL    HW1  526   2.390   1.769   1.474
 1645SOL    HW2  527   2.510   1.878   1.465
 1659SOL     OW  528   3.049   1.792   1.616
 1659SOL    HW1  529   3.073   1.852   1.540
 1659SOL    HW2  530   3.056   1.697   1.586
 1672SOL     OW  531   1.992   1.821   1.571
 1672SOL    HW1  532   1.982   1.806   1.670
 1672SOL    HW2  533   1.906   1.857   1.535
 1680SOL     OW  534   3.089   1.550   1.506
 1680SOL    HW1  535   3.095   1.473   1.570
 1680SOL    HW2  536   3.037   1.524   1.426
 1683SOL     OW  537   2.323   1.266   1.727
 1683SOL    HW1  538   2.273   1.267   1.641
 1683SOL    HW2  539   2.260   1.248   1.803
 1689SOL     OW  540   2.111   1.785   1.241
 1689SOL    HW1  541   2.168   1.720   1.291
 1689SOL    HW2  542   2.095   1.752   1.148
 1695SOL     OW  543   2.750   1.514   1.195
 1695SOL    HW1  544   2.727   1.489   1.101
 1695SOL    HW2  545   2.811   1.445   1.234
 1720SOL     OW  546   2.926   1.347   1.340
 1720SOL    HW1  547   2.846   1.324   1.395
 1720SOL    HW2  548   3.009   1.321   1.389
 1721SOL     OW  549   3.454   1.629   1.625
 1721SOL    HW1  550   3.481   1.663   1.535
 1721SOL    HW2  551   3.533   1.591   1.671
 1725SOL     OW  552   2.842   1.116   1.719
 1725SOL    HW1  553   2.743   1.122   1.729
 1725SOL    HW2  554   2.865   1.036   1.663
 1729SOL     OW  555   1.926   1.564   1.331
 1729SOL    HW1  556   1.880   1.646   1.297
 1729SOL    HW2  557   2.024   1.583   1.340
 1735SOL     OW  558   2.216   1.510   1.329
 1735SOL    HW1  559   2.195   1.466   1.242
 1735SOL    HW2  560   2.313   1.536   1.332
 1750SOL     OW  561   2.842   1.573   1.700
 1750SOL    HW1  562   2.822   1.617   1.612
 1750SOL    HW2  563   2.881   1.482   1.684
 1768SOL     OW  564   2.114   1.564   1.744
 1768SOL    HW1  565   2.084   1.621   1.820
 1768SOL    HW2  566   2.107   1.467   1.770
 1770SOL     OW  567   2.792   1.678   1.465
 1770SOL    HW1  568   2.768   1.660   1.370
 1770SOL    HW2  569   2.822   1.772   1.475
 1776SOL     OW  570   3.114   1.731   1.128
 1776SOL    HW1  571   3.198   1.736   1.074
 1776SOL    HW2  572   3.091   1.635   1.146
 1778SOL     OW  573   2.550   1.662   1.716
 1778SOL    HW1  574   2.494   1.743   1.725
 1778SOL    HW2  575   2.602   1.666   1.630
 1782SOL     OW  576   1.992   1.794   1.851
 1782SOL    HW1  577   1.951   1.720   1.904
 1782SOL    HW2  578   2.056   1.845   1.909
 1784SOL     OW  579   2.692   1.273   1.422
 1784SOL    HW1  580   2.687   1.306   1.517
 1784SOL    HW2  581   2.606   1.292   1.376
 1786SOL     OW  582   3.512   1.720   1.394
 1786SOL    HW1  583   3.565   1.730   1.310
 1786SOL    HW2  584   3.485   1.810   1.428
 1793SOL     OW  585   2.234   1.288   1.490
 1793SOL    HW1  586   2.221   1.381   1.456
 1793SOL    HW2  587   2.150   1.236   1.477
 1810SOL     OW  588   2.252   1.741   1.560
 1810SOL    HW1  589   2.161   1.782   1.558
 1810SOL    HW2  590   2.245   1.647   1.592
 1821SOL     OW  591   2.083   1.314   1.844
 1821SOL    HW1  592   2.018   1.241   1.823
 1821SOL    HW2  593   2.087   1.328   1.942
 1823SOL     OW  594   2.534   1.391   1.624
 1823SOL    HW1  595   2.456   1.341   1.662
 1823SOL    HW2  596   2.531   1.486   1.655
 1832SOL     OW  597   2.480   1.567   1.284
 1832SOL    HW1  598   2.475   1.649   1.341
 1832SOL    HW2  599   2.569   1.564   1.239
 1841SOL     OW  600   2.431   1.275   3.027
 1841SOL    HW1  601   2.338   1.268   2.990
 1841SOL    HW2  602   2.442   1.364   3.071
 1842SOL     OW  603   3.417   1.511   2.565
 1842SOL    HW1  604   3.360   1.495   2.646
 1842SOL    HW2  605   3.358   1.521   2.485
 1845SOL     OW  606   2.630   1.144   2.885
 1845SOL    HW1  607   2.552   1.161   2.945
 1845SOL    HW2  608   2.664   1.231   2.849
 1847SOL     OW  609   2.547   1.012   2.527
 1847SOL    HW1  610   2.616   0.996   2.597
 1847SOL    HW2  611   2.474   1.069   2.565
 1848SOL     OW  612   2.548   1.161   3.665
 1848SOL    HW1  613   2.608   1.240   3.679
 1848SOL    HW2  614   2.462   1.192   3.624
 1849SOL     OW  615   2.197   1.435   2.923
 1849SOL    HW1  616   2.119   1.404   2.870
 1849SOL    HW2  617   2.255   1.493   2.866
 1850SOL     OW  618   3.322   1.505   3.201
 1850SOL    HW1  619   3.346   1.599   3.227
 1850SOL    HW2  620   3.306   1.451   3.283
 1853SOL     OW  621   2.093   1.713   2.345
 1853SOL    HW1  622   2.127   1.790   2.399
 1853SOL    HW2  623   2.137   1.713   2.255
 1854SOL     OW  624   2.989   1.341   3.552
 1854SOL    HW1  625   3.036   1.341   3.640
 1854SOL    HW2  626   2.941   1.254   3.541
 1855SOL     OW  627   2.092   1.434   2.400
 1855SOL    HW1  628   2.066   1.530   2.400
 1855SOL    HW2  629   2.021   1.380   2.445
 1856SOL     OW  630   2.102   1.091   2.748
 1856SOL    HW1  631   2.116   1.007   2.800
 1856SOL    HW2  632   2.047   1.155   2.803
 1857SOL     OW  633   2.482   1.786   3.301
 1857SOL    HW1  634   2.390   1.769   3.336
 1857SOL    HW2  635   2.510   1.878   3.327
 1858SOL     OW  636   2.468   0.964   1.985
 1858SOL    HW1  637   2.475   1.048   1.931
 1858SOL    HW2  638   2.514   0.977   2.073
 1861SOL     OW  639   3.704   1.767   2.221
 1861SOL    HW1  640   3.758   1.738   2.301
 1861SOL    HW2  641   3.734   1.857   2.192
 1862SOL     OW  642   1.889   1.596   1.979
 1862SOL    HW1  643   1.870   1.500   2.000
 1862SOL    HW2  644   1.856   1.654   2.054
 1864SOL     OW  645   3.503   1.108   2.294
 1864SOL    HW1  646   3.589   1.110   2.242
 1864SOL    HW2  647   3.517   1.155   2.382
 1866SOL     OW  648   2.475   1.365   2.588
 1866SOL    HW1  649   2.426   1.278   2.597
 1866SOL    HW2  650   2.452   1.408   2.501
 1867SOL     OW  651   3.155   1.228   3.285
 1867SOL    HW1  652   3.192   1.155   3.227
 1867SOL    HW2  653   3.207   1.233   3.370
 1869SOL     OW  654   2.059   0.976   3.126
 1869SOL    HW1  655   2.148   0.931   3.112
 1869SOL    HW2  656   1.986   0.911   3.107
 1871SOL     OW  657   3.049   1.792   3.478
 1871SOL    HW1  658   3.073   1.852   3.402
 1871SOL    HW2  659   3.056   1.697   3.448
 1873SOL     OW  660   3.328   1.417   2.815
 1873SOL    HW1  661   3.269   1.423   2.895
 1873SOL    HW2  662   3.313   1.329   2.769
 1874SOL     OW  663   3.529   1.714   2.434
 1874SOL    HW1  664   3.488   1.691   2.346
 1874SOL    HW2  665   3.511   1.640   2.499
 1877SOL     OW  666   3.438   1.662   2.169
 1877SOL    HW1  667   3.527   1.708   2.172
 1877SOL    HW2  668   3.417   1.638   2.074
 1884SOL     OW  669   1.992   1.821   3.433
 1884SOL    HW1  670   1.982   1.806   3.532
 1884SOL    HW2  671   1.906   1.857   3.397
 1887SOL     OW  672   3.224   1.144   2.407
 1887SOL    HW1  673   3.307   1.115   2.359
 1887SOL    HW2  674   3.175   1.211   2.351
 1889SOL     OW  675   2.870   1.456   2.339
 1889SOL    HW1  676   2.824   1.528   2.287
 1889SOL    HW2  677   2.866   1.476   2.437
 1890SOL     OW  678   2.213   1.801   2.715
 1890SOL    HW1  679   2.263   1.715   2.721
 1890SOL    HW2  680   2.278   1.878   2.712
 1892SOL     OW  681   3.089   1.550   3.368
 1892SOL    HW1  682   3.095   1.473   3.432
 1892SOL    HW2  683   3.037   1.524   3.288
 1893SOL     OW  684   2.183   0.943   2.104
 1893SOL    HW1  685   2.265   0.982   2.062
 1893SOL    HW2  686   2.156   0.861   2.055
 1895SOL     OW  687   2.323   1.266   3.589
 1895SOL    HW1  688   2.273   1.267   3.503
 1895SOL    HW2  689   2.260   1.248   3.665
 1896SOL     OW  690   2.973   1.776   2.099
 1896SOL    HW1  691   2.913   1.714   2.149
 1896SOL    HW2  692   3.004   1.732   2.014
 1898SOL     OW  693   3.494   1.377   1.943
 1898SOL    HW1  694   3.462   1.471   1.933
 1898SOL    HW2  695   3.418   1.314   1.931
 1899SOL     OW  696   2.326   1.743   2.185
 1899SOL    HW1  697   2.359   1.782   2.271
 1899SOL    HW2  698   2.402   1.736   2.120
 1901SOL     OW  699   2.111   1.785   3.103
 1901SOL    HW1  700   2.168   1.720   3.153
 1901SOL    HW2  701   2.095   1.752   3.010
 1902SOL     OW  702   2.802   1.698   2.766
 1902SOL    HW1  703   2.882   1.641   2.787
 1902SOL    HW2  704   2.753   1.658   2.689
 1907SOL     OW  705   2.750   1.514   3.057
 1907SOL    HW1  706   2.727   1.489   2.963
 1907SOL    HW2  707   2.811   1.445   3.096
 1909SOL     OW  708   2.665   1.402   2.786
 1909SOL    HW1  709   2.755   1.416   2.744
 1909SOL    HW2  710   2.594   1.404   2.715
 1912SOL     OW  711   3.296   1.188   1.903
 1912SOL    HW1  712   3.328   1.112   1.960
 1912SOL    HW2  713   3.204   1.215   1.933
 1916SOL     OW  714   3.089   1.570   2.655
 1916SOL    HW1  715   3.110   1.644   2.590
 1916SOL    HW2  716   3.157   1.570   2.728
 1917SOL     OW  717   2.321   1.152   2.603
 1917SOL    HW1  718   2.250   1.125   2.668
 1917SOL    HW2  719   2.295   1.124   2.510
 1918SOL     OW  720   3.133   1.797   2.453
 1918SOL    HW1  721   3.177   1.861   2.389
 1918SOL    HW2  722   3.083   1.849   2.523
 1924SOL     OW  723   3.291   1.173   2.729
 1924SOL    HW1  724   3.236   1.089   2.722
 1924SOL    HW2  725   3.317   1.202   2.637
 1927SOL     OW  726   2.350   1.385   2.036
 1927SOL    HW1  727   2.263   1.370   2.083
 1927SOL    HW2  728   2.333   1.411   1.941
 1928SOL     OW  729   3.526   1.280   2.519
 1928SOL    HW1  730   3.625   1.288   2.533
 1928SOL    HW2  731   3.481   1.364   2.550
 1932SOL     OW  732   2.926   1.347   3.202
 1932SOL    HW1  733   2.846   1.324   3.257
 1932SOL    HW2  734   3.009   1.321   3.251
 1933SOL     OW  735   3.454   1.629   3.487
 1933SOL    HW1  736   3.481   1.663   3.397
 1933SOL    HW2  737   3.533   1.591   3.533
 1934SOL     OW  738   2.973   1.195   2.962
 1934SOL    HW1  739   2.933   1.239   3.043
 1934SOL    HW2  740   2.932   1.232   2.879
 1935SOL     OW  741   3.500   1.099   2.941
 1935SOL    HW1  742   3.505   1.180   3.000
 1935SOL    HW2  743   3.414   1.101   2.890
 1937SOL     OW  744   2.842   1.116   3.581
 1937SOL    HW1  745   2.743   1.122   3.591
 1937SOL    HW2  746   2.865   1.036   3.525
 1938SOL     OW  747   2.567   1.050   2.230
 1938SOL    HW1  748   2.553   1.057   2.329
 1938SOL    HW2  749   2.651   0.999   2.212
 1941SOL     OW  750   1.926   1.564   3.193
 1941SOL    HW1  751   1.880   1.646   3.159
 1941SOL    HW2  752   2.024   1.583   3.202
 1942SOL     OW  753   2.229   1.100   2.363
 1942SOL    HW1  754   2.222   1.183   2.307
 1942SOL    HW2  755   2.233   1.020   2.303
 1944SOL     OW  756   3.114   1.348   2.250
 1944SOL    HW1  757   3.164   1.425   2.290
 1944SOL    HW2  758   3.019   1.350   2.282
 1945SOL     OW  759   3.134   1.445   3.004
 1945SOL    HW1  760   3.181   1.458   3.091
 1945SOL    HW2  761   3.068   1.371   3.013
 1947SOL     OW  762   2.216   1.510   3.191
 1947SOL    HW1  763   2.195   1.466   3.104
 1947SOL    HW2  764   2.313   1.536   3.194
 1952SOL     OW  765   2.435   0.870   2.891
 1952SOL    HW1  766   2.479   0.959   2.882
 1952SOL    HW2  767   2.372   0.870   2.968
 1956SOL     OW  768   1.899   1.310   3.144
 1956SOL    HW1  769   1.952   1.261   3.212
 1956SOL    HW2  770   1.921   1.408   3.149
 1962SOL     OW  771   2.842   1.573   3.562
 1962SOL    HW1  772   2.822   1.617   3.474
 1962SOL    HW2  773   2.881   1.482   3.546
 1963SOL     OW  774   3.721   1.518   3.467
 1963SOL    HW1  775   3.735   1.545   3.372
 1963SOL    HW2  776   3.804   1.540   3.520
 1967SOL     OW  777   2.930   1.333   2.711
 1967SOL    HW1  778   2.937   1.249   2.656
 1967SOL    HW2  779   2.992   1.402   2.675
 1972SOL     OW  780   1.870   1.326   2.062
 1972SOL    HW1  781   1.777   1.347   2.031
 1972SOL    HW2  782   1.880   1.227   2.075
 1973SOL     OW  783   1.950   1.801   2.789
 1973SOL    HW1  784   1.908   1.715   2.762
 1973SOL    HW2  785   2.044   1.804   2.755
 1974SOL     OW  786   2.366   1.568   2.772
 1974SOL    HW1  787   2.432   1.642   2.781
 1974SOL    HW2  788   2.410   1.489   2.730
 1981SOL     OW  789   2.114   1.564   3.606
 1981SOL    HW1  790   2.084   1.621   3.682
 1981SOL    HW2  791   2.107   1.467   3.632
 1983SOL     OW  792   2.792   1.678   3.327
 1983SOL    HW1  793   2.768   1.660   3.232
 1983SOL    HW2  794   2.822   1.772   3.337
 1985SOL     OW  795   2.021   1.137   3.328
 1985SOL    HW1  796   2.043   1.076   3.404
 1985SOL    HW2  797   2.031   1.088   3.242
 1986SOL     OW  798   3.209   1.059   3.096
 1986SOL    HW1  799   3.233   0.996   3.022
 1986SOL    HW2  800   3.119   1.099   3.078
 1988SOL     OW  801   3.621   1.747   3.016
 1988SOL    HW1  802   3.682   1.777   2.943
 1988SOL    HW2  803   3.583   1.658   2.994
 1989SOL     OW  804   3.114   1.731   2.990
 1989SOL    HW1  805   3.198   1.736   2.936
 1989SOL    HW2  806   3.091   1.635   3.008
 1990SOL     OW  807   1.945   1.258   2.884
 1990SOL    HW1  808   1.940   1.257   2.984
 1990SOL    HW2  809   1.862   1.217   2.846
 1991SOL     OW  810   2.550   1.662   3.578
 1991SOL    HW1  811   2.494   1.743   3.587
 1991SOL    HW2  812   2.602   1.666   3.492
 1993SOL     OW  813   3.250   1.573   2.339
 1993SOL    HW1  814   3.317   1.585   2.265
 1993SOL    HW2  815   3.210   1.662   2.362
 1994SOL     OW  816   1.992   1.794   3.713
 1994SOL    HW1  817   1.951   1.720   3.766
 1994SOL    HW2  818   2.056   1.845   3.771
 1995SOL     OW  819   3.142   0.927   2.534
 1995SOL    HW1  820   3.202   0.846   2.536
 1995SOL    HW2  821   3.182   0.996   2.474
 1996SOL     OW  822   2.692   1.273   3.284
 1996SOL    HW1  823   2.687   1.306   3.379
 1996SOL    HW2  824   2.606   1.292   3.238
 1997SOL     OW  825   2.534   1.616   2.016
 1997SOL    HW1  826   2.543   1.626   1.917
 1997SOL    HW2  827   2.494   1.527   2.037
 1998SOL     OW  828   3.512   1.720   3.256
 1998SOL    HW1  829   3.565   1.730   3.172
 1998SOL    HW2  830   3.485   1.810   3.290
 2001SOL     OW  831   3.056   1.612   1.893
 2001SOL    HW1  832   3.062   1.519   1.930
 2001SOL    HW2  833   2.997   1.612   1.813
 2002SOL     OW  834   2.684   1.002   3.234
 2002SOL    HW1  835   2.724   1.001   3.142
 2002SOL    HW2  836   2.694   1.094   3.274
 2003SOL     OW  837   2.778   0.910   2.153
 2003SOL    HW1  838   2.841   0.948   2.085
 2003SOL    HW2  839   2.818   0.827   2.192
 2004SOL     OW  840   3.366   1.607   1.906
 2004SOL    HW1  841   3.274   1.644   1.913
 2004SOL    HW2  842   3.404   1.627   1.816
 2005SOL     OW  843   2.234   1.288   3.352
 2005SOL    HW1  844   2.221   1.381   3.318
 2005SOL    HW2  845   2.150   1.236   3.339
 2006SOL     OW  846   3.476   1.292   3.151
 2006SOL    HW1  847   3.536   1.295   3.231
 2006SOL    HW2  848   3.401   1.356   3.164
 2007SOL     OW  849   2.901   1.098   2.558
 2007SOL    HW1  850   2.831   1.051   2.612
 2007SOL    HW2  851   2.960   1.030   2.515
 2009SOL     OW  852   2.452   1.487   2.353
 2009SOL    HW1  853   2.494   1.429   2.283
 2009SOL    HW2  854   2.408   1.566   2.309
 2011SOL     OW  855   2.117   1.348   2.152
 2011SOL    HW1  856   2.021   1.349   2.125
 2011SOL    HW2  857   2.129   1.401   2.236
 2017SOL     OW  858   3.045   1.335   1.981
 2017SOL    HW1  859   2.946   1.324   1.983
 2017SOL    HW2  860   3.079   1.350   2.074
 2019SOL     OW  861   3.355   1.767   2.821
 2019SOL    HW1  862   3.388   1.831   2.752
 2019SOL    HW2  863   3.421   1.761   2.896
 2021SOL     OW  864   3.312   1.220   3.495
 2021SOL    HW1  865   3.303   1.210   3.594
 2021SOL    HW2  866   3.408   1.213   3.469
 2022SOL     OW  867   2.252   1.741   3.422
 2022SOL    HW1  868   2.161   1.782   3.420
 2022SOL    HW2  869   2.245   1.647   3.454
 2028SOL     OW  870   2.721   1.374   1.878
 2028SOL    HW1  871   2.675   1.389   1.966
 2028SOL    HW2  872   2.765   1.459   1.848
 2029SOL     OW  873   2.523   1.790   2.815
 2029SOL    HW1  874   2.477   1.878   2.802
 2029SOL    HW2  875   2.622   1.802   2.808
 2030SOL     OW  876   2.721   0.956   2.723
 2030SOL    HW1  877   2.775   0.887   2.771
 2030SOL    HW2  878   2.689   1.025   2.789
 2031SOL     OW  879   2.945   0.984   1.949
 2031SOL    HW1  880   2.922   1.037   1.867
 2031SOL    HW2  881   3.026   0.928   1.930
 2032SOL     OW  882   3.723   1.569   2.713
 2032SOL    HW1  883   3.652   1.557   2.643
 2032SOL    HW2  884   3.724   1.490   2.773
 2033SOL     OW  885   2.083   1.314   3.706
 2033SOL    HW1  886   2.018   1.241   3.685
 2033SOL    HW2  887   2.087   1.328   3.804
 2034SOL     OW  888   1.941   1.240   2.515
 2034SOL    HW1  889   1.940   1.193   2.603
 2034SOL    HW2  890   2.023   1.212   2.464
 2035SOL     OW  891   2.534   1.391   3.486
 2035SOL    HW1  892   2.456   1.341   3.524
 2035SOL    HW2  893   2.531   1.486   3.517
 2038SOL     OW  894   3.567   1.487   2.966
 2038SOL    HW1  895   3.474   1.462   2.939
 2038SOL    HW2  896   3.593   1.437   3.048
 2040SOL     OW  897   2.674   1.586   2.549
 2040SOL    HW1  898   2.706   1.596   2.455
 2040SOL    HW2  899   2.595   1.524   2.551
 2043SOL     OW  900   2.632   1.330   2.163
 2043SOL    HW1  901   2.586   1.243   2.180
 2043SOL    HW2  902   2.723   1.327   2.204
 2044SOL     OW  903   2.480   1.567   3.146
 2044SOL    HW1  904   2.475   1.649   3.203
 2044SOL    HW2  905   2.569   1.564   3.101
 2048SOL     OW  906   1.901   1.077   2.162
 2048SOL    HW1  907   2.000   1.066   2.153
 2048SOL    HW2  908   1.861   0.991   2.194
 2049SOL     OW  909   2.737   1.646   2.199
 2049SOL    HW1  910   2.660   1.611   2.145
 2049SOL    HW2  911   2.705   1.717   2.261
 2069SOL     OW  912   1.889   1.596   3.841
 2069SOL    HW1  913   1.870   1.500   3.862
 2069SOL    HW2  914   1.856   1.654   3.916
 2094SOL     OW  915   2.973   1.776   3.961
 2094SOL    HW1  916   2.913   1.714   4.011
 2094SOL    HW2  917   3.004   1.732   3.876
 2096SOL     OW  918   2.326   1.743   4.047
 2096SOL    HW1  919   2.359   1.782   4.133
 2096SOL    HW2  920   2.402   1.736   3.982
 2119SOL     OW  921   2.350   1.385   3.898
 2119SOL    HW1  922   2.263   1.370   3.945
 2119SOL    HW2  923   2.333   1.411   3.803
 2170SOL     OW  924   2.534   1.616   3.878
 2170SOL    HW1  925   2.543   1.626   3.779
 2170SOL    HW2  926   2.494   1.527   3.899
 2173SOL     OW  927   3.056   1.612   3.755
 2173SOL    HW1  928   3.062   1.519   3.792
 2173SOL    HW2  929   2.997   1.612   3.675
 2176SOL     OW  930   3.366   1.607   3.768
 2176SOL    HW1  931   3.274   1.644   3.775
 2176SOL    HW2  932   3.404   1.627   3.678
 2193SOL     OW  933   2.721   1.374   3.740
 2193SOL    HW1  934   2.675   1.389   3.828
 2193SOL    HW2  935   2.765   1.459   3.710
 2212SOL     OW  936   2.737   1.646   4.061
 2212SOL    HW1  937   2.660   1.611   4.007
 2212SOL    HW2  938   2.705   1.717   4.123
 2214SOL     OW  939   2.087   2.137   0.996
 2214SOL    HW1  940   2.122   2.120   1.088
 2214SOL    HW2  941   1.999   2.092   0.984
 2216SOL     OW  942   2.431   3.137   1.165
 2216SOL    HW1  943   2.338   3.130   1.128
 2216SOL    HW2  944   2.442   3.226   1.209
 2220SOL     OW  945   2.630   3.006   1.023
 2220SOL    HW1  946   2.552   3.023   1.083
 2220SOL    HW2  947   2.664   3.093   0.987
 2221SOL     OW  948   2.712   2.660   1.823
 2221SOL    HW1  949   2.708   2.736   1.888
 2221SOL    HW2  950   2.734   2.696   1.732
 2223SOL     OW  951   2.548   3.023   1.803
 2223SOL    HW1  952   2.608   3.102   1.817
 2223SOL    HW2  953   2.462   3.054   1.762
 2224SOL     OW  954   2.197   3.297   1.061
 2224SOL    HW1  955   2.119   3.266   1.008
 2224SOL    HW2  956   2.255   3.355   1.004
 2225SOL     OW  957   3.322   3.367   1.339
 2225SOL    HW1  958   3.346   3.461   1.365
 2225SOL    HW2  959   3.306   3.313   1.421
 2226SOL     OW  960   2.300   2.254   1.499
 2226SOL    HW1  961   2.382   2.198   1.508
 2226SOL    HW2  962   2.219   2.196   1.503
 2229SOL     OW  963   2.989   3.203   1.690
 2229SOL    HW1  964   3.036   3.203   1.778
 2229SOL    HW2  965   2.941   3.116   1.679
 2232SOL     OW  966   2.482   3.648   1.439
 2232SOL    HW1  967   2.390   3.631   1.474
 2232SOL    HW2  968   2.510   3.740   1.465
 2234SOL     OW  969   3.456   1.976   1.480
 2234SOL    HW1  970   3.438   2.043   1.408
 2234SOL    HW2  971   3.453   2.022   1.569
 2240SOL     OW  972   1.975   2.599   1.597
 2240SOL    HW1  973   2.063   2.586   1.642
 2240SOL    HW2  974   1.962   2.696   1.575
 2242SOL     OW  975   3.155   3.090   1.423
 2242SOL    HW1  976   3.192   3.017   1.365
 2242SOL    HW2  977   3.207   3.095   1.508
 2244SOL     OW  978   2.059   2.838   1.264
 2244SOL    HW1  979   2.148   2.793   1.250
 2244SOL    HW2  980   1.986   2.773   1.245
 2246SOL     OW  981   3.049   3.654   1.616
 2246SOL    HW1  982   3.073   3.714   1.540
 2246SOL    HW2  983   3.056   3.559   1.586
 2247SOL     OW  984   2.179   2.113   1.801
 2247SOL    HW1  985   2.250   2.184   1.807
 2247SOL    HW2  986   2.091   2.152   1.829
 2251SOL     OW  987   3.143   2.207   0.944
 2251SOL    HW1  988   3.057   2.157   0.931
 2251SOL    HW2  989   3.205   2.153   1.000
 2253SOL     OW  990   2.669   2.467   1.465
 2253SOL    HW1  991   2.622   2.464   1.554
 2253SOL    HW2  992   2.618   2.412   1.399
 2254SOL     OW  993   3.256   2.331   1.674
 2254SOL    HW1  994   3.236   2.374   1.762
 2254SOL    HW2  995   3.334   2.269   1.683
 2255SOL     OW  996   2.835   2.752   1.572
 2255SOL    HW1  997   2.881   2.668   1.543
 2255SOL    HW2  998   2.779   2.786   1.497
 2256SOL     OW  999   2.853   2.272   1.242
 2256SOL    HW1 1000   2.776   2.306   1.296
 2256SOL    HW2 1001   2.819   2.221   1.163
 2259SOL     OW 1002   1.992   3.683   1.571
 2259SOL    HW1 1003   1.982   3.668   1.670
 2259SOL    HW2 1004   1.906   3.719   1.535
 2261SOL     OW 1005   3.581   2.447   1.831
 2261SOL    HW1 1006   3.555   2.536   1.795
 2261SOL    HW2 1007   3.579   2.379   1.758
 2263SOL     OW 1008   2.412   2.058   0.885
 2263SOL    HW1 1009   2.407   2.053   0.985
 2263SOL    HW2 1010   2.414   2.154   0.856
 2267SOL     OW 1011   3.089   3.412   1.506
 2267SOL    HW1 1012   3.095   3.335   1.570
 2267SOL    HW2 1013   3.037   3.386   1.426
 2270SOL     OW 1014   2.323   3.128   1.727
 2270SOL    HW1 1015   2.273   3.129   1.641
 2270SOL    HW2 1016   2.260   3.110   1.803
 2272SOL     OW 1017   2.064   2.147   1.498
 2272SOL    HW1 1018   1.984   2.207   1.485
 2272SOL    HW2 1019   2.054   2.098   1.584
 2276SOL     OW 1020   2.111   3.647   1.241
 2276SOL    HW1 1021   2.168   3.582   1.291
 2276SOL    HW2 1022   2.095   3.614   1.148
 2279SOL     OW 1023   3.409   2.084   1.729
 2279SOL    HW1 1024   3.404   2.121   1.821
 2279SOL    HW2 1025   3.337   2.015   1.717
 2280SOL     OW 1026   2.643   2.126   1.749
 2280SOL    HW1 1027   2.710   2.065   1.792
 2280SOL    HW2 1028   2.570   2.145   1.814
 2281SOL     OW 1029   2.750   3.376   1.195
 2281SOL    HW1 1030   2.727   3.351   1.101
 2281SOL    HW2 1031   2.811   3.307   1.234
 2282SOL     OW 1032   3.213   2.452   1.433
 2282SOL    HW1 1033   3.241   2.409   1.518
 2282SOL    HW2 1034   3.238   2.548   1.434
 2283SOL     OW 1035   2.665   3.264   0.924
 2283SOL    HW1 1036   2.755   3.278   0.882
 2283SOL    HW2 1037   2.594   3.266   0.853
 2284SOL     OW 1038   2.784   2.365   0.899
 2284SOL    HW1 1039   2.759   2.356   0.803
 2284SOL    HW2 1040   2.832   2.283   0.930
 2288SOL     OW 1041   2.938   2.545   1.464
 2288SOL    HW1 1042   2.858   2.484   1.467
 2288SOL    HW2 1043   3.019   2.492   1.440
 2293SOL     OW 1044   1.940   2.418   1.386
 2293SOL    HW1 1045   2.032   2.417   1.345
 2293SOL    HW2 1046   1.934   2.492   1.453
 2294SOL     OW 1047   2.423   2.084   1.147
 2294SOL    HW1 1048   2.461   2.000   1.184
 2294SOL    HW2 1049   2.335   2.103   1.191
 2298SOL     OW 1050   3.328   2.452   0.992
 2298SOL    HW1 1051   3.298   2.357   0.999
 2298SOL    HW2 1052   3.401   2.468   1.058
 2304SOL     OW 1053   3.616   3.085   1.588
 2304SOL    HW1 1054   3.707   3.046   1.575
 2304SOL    HW2 1055   3.624   3.181   1.612
 2305SOL     OW 1056   2.926   3.209   1.340
 2305SOL    HW1 1057   2.846   3.186   1.395
 2305SOL    HW2 1058   3.009   3.183   1.389
 2306SOL     OW 1059   3.454   3.491   1.625
 2306SOL    HW1 1060   3.481   3.525   1.535
 2306SOL    HW2 1061   3.533   3.453   1.671
 2307SOL     OW 1062   2.973   3.057   1.100
 2307SOL    HW1 1063   2.933   3.101   1.181
 2307SOL    HW2 1064   2.932   3.094   1.017
 2309SOL     OW 1065   2.777   1.951   1.402
 2309SOL    HW1 1066   2.802   1.931   1.307
 2309SOL    HW2 1067   2.849   2.007   1.444
 2310SOL     OW 1068   2.842   2.978   1.719
 2310SOL    HW1 1069   2.743   2.984   1.729
 2310SOL    HW2 1070   2.865   2.898   1.663
 2312SOL     OW 1071   2.272   2.675   1.251
 2312SOL    HW1 1072   2.358   2.687   1.301
 2312SOL    HW2 1073   2.230   2.588   1.278
 2313SOL     OW 1074   3.136   2.248   1.262
 2313SOL    HW1 1075   3.157   2.322   1.326
 2313SOL    HW2 1076   3.047   2.265   1.219
 2314SOL     OW 1077   1.926   3.426   1.331
 2314SOL    HW1 1078   1.880   3.508   1.297
 2314SOL    HW2 1079   2.024   3.445   1.340
 2316SOL     OW 1080   2.428   2.399   0.865
 2316SOL    HW1 1081   2.440   2.465   0.791
 2316SOL    HW2 1082   2.474   2.433   0.948
 2318SOL     OW 1083   3.134   3.307   1.142
 2318SOL    HW1 1084   3.181   3.320   1.229
 2318SOL    HW2 1085   3.068   3.233   1.151
 2320SOL     OW 1086   2.216   3.372   1.329
 2320SOL    HW1 1087   2.195   3.328   1.242
 2320SOL    HW2 1088   2.313   3.398   1.332
 2321SOL     OW 1089   2.264   2.613   1.598
 2321SOL    HW1 1090   2.332   2.668   1.551
 2321SOL    HW2 1091   2.304   2.525   1.625
 2322SOL     OW 1092   3.449   2.641   1.670
 2322SOL    HW1 1093   3.357   2.679   1.665
 2322SOL    HW2 1094   3.509   2.688   1.605
 2323SOL     OW 1095   2.875   1.967   1.770
 2323SOL    HW1 1096   2.881   2.052   1.718
 2323SOL    HW2 1097   2.907   1.891   1.713
 2324SOL     OW 1098   2.366   1.912   1.740
 2324SOL    HW1 1099   2.324   1.855   1.670
 2324SOL    HW2 1100   2.300   1.981   1.772
 2325SOL     OW 1101   2.435   2.732   1.029
 2325SOL    HW1 1102   2.479   2.821   1.020
 2325SOL    HW2 1103   2.372   2.732   1.106
 2326SOL     OW 1104   3.222   2.724   1.045
 2326SOL    HW1 1105   3.147   2.724   0.979
 2326SOL    HW2 1106   3.259   2.632   1.054
 2328SOL     OW 1107   2.169   2.075   1.231
 2328SOL    HW1 1108   2.146   2.112   1.321
 2328SOL    HW2 1109   2.139   1.980   1.225
 2329SOL     OW 1110   1.899   3.172   1.282
 2329SOL    HW1 1111   1.952   3.123   1.350
 2329SOL    HW2 1112   1.921   3.270   1.287
 2330SOL     OW 1113   2.594   2.496   1.064
 2330SOL    HW1 1114   2.653   2.470   0.988
 2330SOL    HW2 1115   2.566   2.592   1.053
 2331SOL     OW 1116   3.590   2.797   1.854
 2331SOL    HW1 1117   3.544   2.790   1.765
 2331SOL    HW2 1118   3.528   2.841   1.920
 2334SOL     OW 1119   2.885   2.628   0.966
 2334SOL    HW1 1120   2.900   2.649   1.062
 2334SOL    HW2 1121   2.855   2.533   0.957
 2335SOL     OW 1122   2.842   3.435   1.700
 2335SOL    HW1 1123   2.822   3.479   1.612
 2335SOL    HW2 1124   2.881   3.344   1.684
 2336SOL     OW 1125   3.721   3.380   1.605
 2336SOL    HW1 1126   3.735   3.407   1.510
 2336SOL    HW2 1127   3.804   3.402   1.658
 2337SOL     OW 1128   2.212   2.760   1.804
 2337SOL    HW1 1129   2.288   2.804   1.852
 2337SOL    HW2 1130   2.247   2.713   1.722
 2341SOL     OW 1131   2.181   2.672   0.949
 2341SOL    HW1 1132   2.274   2.708   0.954
 2341SOL    HW2 1133   2.175   2.587   1.001
 2342SOL     OW 1134   2.201   2.371   1.006
 2342SOL    HW1 1135   2.149   2.288   0.989
 2342SOL    HW2 1136   2.278   2.376   0.942
 2343SOL     OW 1137   3.000   2.242   1.678
 2343SOL    HW1 1138   2.955   2.305   1.742
 2343SOL    HW2 1139   3.093   2.273   1.661
 2344SOL     OW 1140   3.022   2.069   1.477
 2344SOL    HW1 1141   3.022   2.133   1.554
 2344SOL    HW2 1142   3.050   2.117   1.394
 2347SOL     OW 1143   2.864   2.658   1.238
 2347SOL    HW1 1144   2.905   2.626   1.324
 2347SOL    HW2 1145   2.768   2.631   1.235
 2348SOL     OW 1146   1.902   2.406   1.114
 2348SOL    HW1 1147   1.987   2.373   1.073
 2348SOL    HW2 1148   1.915   2.421   1.212
 2349SOL     OW 1149   2.051   2.382   1.722
 2349SOL    HW1 1150   2.110   2.342   1.652
 2349SOL    HW2 1151   1.993   2.453   1.681
 2350SOL     OW 1152   3.231   2.812   1.660
 2350SOL    HW1 1153   3.270   2.901   1.680
 2350SOL    HW2 1154   3.241   2.792   1.563
 2352SOL     OW 1155   3.519   2.466   1.206
 2352SOL    HW1 1156   3.481   2.397   1.268
 2352SOL    HW2 1157   3.601   2.430   1.162
 2353SOL     OW 1158   2.114   3.426   1.744
 2353SOL    HW1 1159   2.084   3.483   1.820
 2353SOL    HW2 1160   2.107   3.329   1.770
 2354SOL     OW 1161   2.533   2.326   1.269
 2354SOL    HW1 1162   2.499   2.237   1.239
 2354SOL    HW2 1163   2.559   2.380   1.189
 2355SOL     OW 1164   2.792   3.540   1.465
 2355SOL    HW1 1165   2.768   3.522   1.370
 2355SOL    HW2 1166   2.822   3.634   1.475
 2357SOL     OW 1167   2.021   2.999   1.466
 2357SOL    HW1 1168   2.043   2.938   1.542
 2357SOL    HW2 1169   2.031   2.950   1.380
 2358SOL     OW 1170   3.209   2.921   1.234
 2358SOL    HW1 1171   3.233   2.858   1.160
 2358SOL    HW2 1172   3.119   2.961   1.216
 2362SOL     OW 1173   1.945   3.120   1.022
 2362SOL    HW1 1174   1.940   3.119   1.122
 2362SOL    HW2 1175   1.862   3.079   0.984
 2363SOL     OW 1176   2.550   3.524   1.716
 2363SOL    HW1 1177   2.494   3.605   1.725
 2363SOL    HW2 1178   2.602   3.528   1.630
 2367SOL     OW 1179   1.992   3.656   1.851
 2367SOL    HW1 1180   1.951   3.582   1.904
 2367SOL    HW2 1181   2.056   3.707   1.909
 2369SOL     OW 1182   2.692   3.135   1.422
 2369SOL    HW1 1183   2.687   3.168   1.517
 2369SOL    HW2 1184   2.606   3.154   1.376
 2375SOL     OW 1185   2.684   2.864   1.372
 2375SOL    HW1 1186   2.724   2.863   1.280
 2375SOL    HW2 1187   2.694   2.956   1.412
 2378SOL     OW 1188   2.234   3.150   1.490
 2378SOL    HW1 1189   2.221   3.243   1.456
 2378SOL    HW2 1190   2.150   3.098   1.477
 2379SOL     OW 1191   3.476   3.154   1.289
 2379SOL    HW1 1192   3.536   3.157   1.369
 2379SOL    HW2 1193   3.401   3.218   1.302
 2381SOL     OW 1194   2.876   2.098   0.971
 2381SOL    HW1 1195   2.868   2.062   0.878
 2381SOL    HW2 1196   2.874   2.022   1.036
 2383SOL     OW 1197   3.571   2.247   1.381
 2383SOL    HW1 1198   3.644   2.316   1.385
 2383SOL    HW2 1199   3.599   2.172   1.322
 2385SOL     OW 1200   1.967   2.875   1.726
 2385SOL    HW1 1201   1.890   2.842   1.780
 2385SOL    HW2 1202   2.052   2.845   1.768
 2386SOL     OW 1203   2.534   2.065   1.489
 2386SOL    HW1 1204   2.624   2.049   1.449
 2386SOL    HW2 1205   2.542   2.070   1.588
 2388SOL     OW 1206   3.302   2.718   1.398
 2388SOL    HW1 1207   3.245   2.770   1.335
 2388SOL    HW2 1208   3.398   2.730   1.374
 2391SOL     OW 1209   2.475   2.704   1.431
 2391SOL    HW1 1210   2.531   2.785   1.414
 2391SOL    HW2 1211   2.534   2.624   1.434
 2393SOL     OW 1212   2.578   2.427   1.708
 2393SOL    HW1 1213   2.597   2.492   1.782
 2393SOL    HW2 1214   2.638   2.347   1.717
 2394SOL     OW 1215   3.312   3.082   1.633
 2394SOL    HW1 1216   3.303   3.072   1.732
 2394SOL    HW2 1217   3.408   3.075   1.607
 2395SOL     OW 1218   2.252   3.603   1.560
 2395SOL    HW1 1219   2.161   3.644   1.558
 2395SOL    HW2 1220   2.245   3.509   1.592
 2396SOL     OW 1221   3.536   2.745   1.254
 2396SOL    HW1 1222   3.509   2.656   1.217
 2396SOL    HW2 1223   3.537   2.813   1.181
 2399SOL     OW 1224   3.639   2.204   1.642
 2399SOL    HW1 1225   3.622   2.235   1.548
 2399SOL    HW2 1226   3.555   2.167   1.680
 2400SOL     OW 1227   3.592   2.796   1.517
 2400SOL    HW1 1228   3.630   2.887   1.532
 2400SOL    HW2 1229   3.584   2.779   1.418
 2403SOL     OW 1230   2.721   2.818   0.861
 2403SOL    HW1 1231   2.775   2.749   0.909
 2403SOL    HW2 1232   2.689   2.887   0.927
 2406SOL     OW 1233   2.083   3.176   1.844
 2406SOL    HW1 1234   2.018   3.103   1.823
 2406SOL    HW2 1235   2.087   3.190   1.942
 2408SOL     OW 1236   2.534   3.253   1.624
 2408SOL    HW1 1237   2.456   3.203   1.662
 2408SOL    HW2 1238   2.531   3.348   1.655
 2412SOL     OW 1239   2.179   2.409   1.280
 2412SOL    HW1 1240   2.217   2.350   1.352
 2412SOL    HW2 1241   2.219   2.383   1.192
 2414SOL     OW 1242   3.286   2.076   1.112
 2414SOL    HW1 1243   3.338   2.011   1.167
 2414SOL    HW2 1244   3.237   2.139   1.173
 2415SOL     OW 1245   2.863   1.896   1.154
 2415SOL    HW1 1246   2.800   1.824   1.123
 2415SOL    HW2 1247   2.956   1.860   1.154
 2417SOL     OW 1248   2.480   3.429   1.284
 2417SOL    HW1 1249   2.475   3.511   1.341
 2417SOL    HW2 1250   2.569   3.426   1.239
 2423SOL     OW 1251   2.092   2.490   1.975
 2423SOL    HW1 1252   1.999   2.488   2.012
 2423SOL    HW2 1253   2.093   2.451   1.883
 2424SOL     OW 1254   2.087   2.137   2.858
 2424SOL    HW1 1255   2.122   2.120   2.950
 2424SOL    HW2 1256   1.999   2.092   2.846
 2425SOL     OW 1257   1.881   2.230   2.509
 2425SOL    HW1 1258   1.799   2.273   2.548
 2425SOL    HW2 1259   1.853   2.157   2.446
 2426SOL     OW 1260   2.431   3.137   3.027
 2426SOL    HW1 1261   2.338   3.130   2.990
 2426SOL    HW2 1262   2.442   3.226   3.071
 2427SOL     OW 1263   3.417   3.373   2.565
 2427SOL    HW1 1264   3.360   3.357   2.646
 2427SOL    HW2 1265   3.358   3.383   2.485
 2428SOL     OW 1266   2.997   2.565   2.579
 2428SOL    HW1 1267   3.054   2.643   2.554
 2428SOL    HW2 1268   2.937   2.591   2.655
 2429SOL     OW 1269   3.617   2.469   2.093
 2429SOL    HW1 1270   3.605   2.456   1.994
 2429SOL    HW2 1271   3.587   2.388   2.142
 2430SOL     OW 1272   2.630   3.006   2.885
 2430SOL    HW1 1273   2.552   3.023   2.945
 2430SOL    HW2 1274   2.664   3.093   2.849
 2431SOL     OW 1275   2.712   2.660   3.685
 2431SOL    HW1 1276   2.708   2.736   3.750
 2431SOL    HW2 1277   2.734   2.696   3.594
 2432SOL     OW 1278   2.548   3.023   3.665
 2432SOL    HW1 1279   2.608   3.102   3.679
 2432SOL    HW2 1280   2.462   3.054   3.624
 2433SOL     OW 1281   2.197   3.297   2.923
 2433SOL    HW1 1282   2.119   3.266   2.870
 2433SOL    HW2 1283   2.255   3.355   2.866
 2434SOL     OW 1284   3.322   3.367   3.201
 2434SOL    HW1 1285   3.346   3.461   3.227
 2434SOL    HW2 1286   3.306   3.313   3.283
 2435SOL     OW 1287   2.300   2.254   3.361
 2435SOL    HW1 1288   2.382   2.198   3.370
 2435SOL    HW2 1289   2.219   2.196   3.365
 2436SOL     OW 1290   3.465   2.309   2.599
 2436SOL    HW1 1291   3.391   2.355   2.549
 2436SOL    HW2 1292   3.516   2.377   2.652
 2437SOL     OW 1293   2.093   3.575   2.345
 2437SOL    HW1 1294   2.127   3.652   2.399
 2437SOL    HW2 1295   2.137   3.575   2.255
 2438SOL     OW 1296   2.989   3.203   3.552
 2438SOL    HW1 1297   3.036   3.203   3.640
 2438SOL    HW2 1298   2.941   3.116   3.541
 2439SOL     OW 1299   2.092   3.296   2.400
 2439SOL    HW1 1300   2.066   3.392   2.400
 2439SOL    HW2 1301   2.021   3.242   2.445
 2440SOL     OW 1302   2.102   2.953   2.748
 2440SOL    HW1 1303   2.116   2.869   2.800
 2440SOL    HW2 1304   2.047   3.017   2.803
 2441SOL     OW 1305   2.482   3.648   3.301
 2441SOL    HW1 1306   2.390   3.631   3.336
 2441SOL    HW2 1307   2.510   3.740   3.327
 2442SOL     OW 1308   2.468   2.826   1.985
 2442SOL    HW1 1309   2.475   2.910   1.931
 2442SOL    HW2 1310   2.514   2.839   2.073
 2443SOL     OW 1311   3.456   1.976   3.342
 2443SOL    HW1 1312   3.438   2.043   3.270
 2443SOL    HW2 1313   3.453   2.022   3.431
 2444SOL     OW 1314   1.984   2.505   2.425
 2444SOL    HW1 1315   1.939   2.417   2.442
 2444SOL    HW2 1316   1.983   2.559   2.509
 2445SOL     OW 1317   3.704   3.629   2.221
 2445SOL    HW1 1318   3.758   3.600   2.301
 2445SOL    HW2 1319   3.734   3.719   2.192
 2446SOL     OW 1320   1.889   3.458   1.979
 2446SOL    HW1 1321   1.870   3.362   2.000
 2446SOL    HW2 1322   1.856   3.516   2.054
 2447SOL     OW 1323   3.551   2.784   2.474
 2447SOL    HW1 1324   3.646   2.755   2.482
 2447SOL    HW2 1325   3.543   2.849   2.399
 2448SOL     OW 1326   3.503   2.970   2.294
 2448SOL    HW1 1327   3.589   2.972   2.242
 2448SOL    HW2 1328   3.517   3.017   2.382
 2449SOL     OW 1329   1.975   2.599   3.459
 2449SOL    HW1 1330   2.063   2.586   3.504
 2449SOL    HW2 1331   1.962   2.696   3.437
 2450SOL     OW 1332   2.475   3.227   2.588
 2450SOL    HW1 1333   2.426   3.140   2.597
 2450SOL    HW2 1334   2.452   3.270   2.501
 2451SOL     OW 1335   3.155   3.090   3.285
 2451SOL    HW1 1336   3.192   3.017   3.227
 2451SOL    HW2 1337   3.207   3.095   3.370
 2452SOL     OW 1338   2.671   1.866   2.364
 2452SOL    HW1 1339   2.711   1.957   2.355
 2452SOL    HW2 1340   2.571   1.874   2.370
 2453SOL     OW 1341   2.059   2.838   3.126
 2453SOL    HW1 1342   2.148   2.793   3.112
 2453SOL    HW2 1343   1.986   2.773   3.107
 2454SOL     OW 1344   3.387   2.861   2.052
 2454SOL    HW1 1345   3.324   2.785   2.065
 2454SOL    HW2 1346   3.435   2.879   2.138
 2455SOL     OW 1347   3.049   3.654   3.478
 2455SOL    HW1 1348   3.073   3.714   3.402
 2455SOL    HW2 1349   3.056   3.559   3.448
 2456SOL     OW 1350   2.179   2.113   3.663
 2456SOL    HW1 1351   2.250   2.184   3.669
 2456SOL    HW2 1352   2.091   2.152   3.691
 2457SOL     OW 1353   3.328   3.279   2.815
 2457SOL    HW1 1354   3.269   3.285   2.895
 2457SOL    HW2 1355   3.313   3.191   2.769
 2458SOL     OW 1356   3.529   3.576   2.434
 2458SOL    HW1 1357   3.488   3.553   2.346
 2458SOL    HW2 1358   3.511   3.502   2.499
 2459SOL     OW 1359   2.460   2.591   2.132
 2459SOL    HW1 1360   2.484   2.660   2.064
 2459SOL    HW2 1361   2.382   2.624   2.186
 2460SOL     OW 1362   3.143   2.207   2.806
 2460SOL    HW1 1363   3.057   2.157   2.793
 2460SOL    HW2 1364   3.205   2.153   2.862
 2461SOL     OW 1365   3.438   3.524   2.169
 2461SOL    HW1 1366   3.527   3.570   2.172
 2461SOL    HW2 1367   3.417   3.500   2.074
 2462SOL     OW 1368   2.669   2.467   3.327
 2462SOL    HW1 1369   2.622   2.464   3.416
 2462SOL    HW2 1370   2.618   2.412   3.261
 2463SOL     OW 1371   3.256   2.331   3.536
 2463SOL    HW1 1372   3.236   2.374   3.624
 2463SOL    HW2 1373   3.334   2.269   3.545
 2464SOL     OW 1374   2.835   2.752   3.434
 2464SOL    HW1 1375   2.881   2.668   3.405
 2464SOL    HW2 1376   2.779   2.786   3.359
 2465SOL     OW 1377   2.903   2.563   2.291
 2465SOL    HW1 1378   2.929   2.559   2.387
 2465SOL    HW2 1379   2.818   2.512   2.277
 2466SOL     OW 1380   1.938   2.673   2.651
 2466SOL    HW1 1381   2.037   2.661   2.660
 2466SOL    HW2 1382   1.914   2.768   2.672
 2467SOL     OW 1383   1.992   3.683   3.433
 2467SOL    HW1 1384   1.982   3.668   3.532
 2467SOL    HW2 1385   1.906   3.719   3.397
 2468SOL     OW 1386   2.727   2.210   2.057
 2468SOL    HW1 1387   2.786   2.273   2.008
 2468SOL    HW2 1388   2.746   2.116   2.028
 2469SOL     OW 1389   3.581   2.447   3.693
 2469SOL    HW1 1390   3.555   2.536   3.657
 2469SOL    HW2 1391   3.579   2.379   3.620
 2470SOL     OW 1392   3.224   3.006   2.407
 2470SOL    HW1 1393   3.307   2.977   2.359
 2470SOL    HW2 1394   3.175   3.073   2.351
 2471SOL     OW 1395   2.412   2.058   2.747
 2471SOL    HW1 1396   2.407   2.053   2.847
 2471SOL    HW2 1397   2.414   2.154   2.718
 2472SOL     OW 1398   2.870   3.318   2.339
 2472SOL    HW1 1399   2.824   3.390   2.287
 2472SOL    HW2 1400   2.866   3.338   2.437
 2473SOL     OW 1401   2.213   3.663   2.715
 2473SOL    HW1 1402   2.263   3.577   2.721
 2473SOL    HW2 1403   2.278   3.740   2.712
 2474SOL     OW 1404   3.657   2.928   2.735
 2474SOL    HW1 1405   3.595   2.913   2.659
 2474SOL    HW2 1406   3.605   2.939   2.820
 2475SOL     OW 1407   3.089   3.412   3.368
 2475SOL    HW1 1408   3.095   3.335   3.432
 2475SOL    HW2 1409   3.037   3.386   3.288
 2476SOL     OW 1410   2.183   2.805   2.104
 2476SOL    HW1 1411   2.265   2.844   2.062
 2476SOL    HW2 1412   2.156   2.723   2.055
 2477SOL     OW 1413   3.320   2.597   2.590
 2477SOL    HW1 1414   3.315   2.532   2.665
 2477SOL    HW2 1415   3.400   2.656   2.603
 2478SOL     OW 1416   2.323   3.128   3.589
 2478SOL    HW1 1417   2.273   3.129   3.503
 2478SOL    HW2 1418   2.260   3.110   3.665
 2479SOL     OW 1419   2.973   3.638   2.099
 2479SOL    HW1 1420   2.913   3.576   2.149
 2479SOL    HW2 1421   3.004   3.594   2.014
 2480SOL     OW 1422   2.064   2.147   3.360
 2480SOL    HW1 1423   1.984   2.207   3.347
 2480SOL    HW2 1424   2.054   2.098   3.446
 2481SOL     OW 1425   3.494   3.239   1.943
 2481SOL    HW1 1426   3.462   3.333   1.933
 2481SOL    HW2 1427   3.418   3.176   1.931
 2482SOL     OW 1428   2.326   3.605   2.185
 2482SOL    HW1 1429   2.359   3.644   2.271
 2482SOL    HW2 1430   2.402   3.598   2.120
 2483SOL     OW 1431   3.262   1.969   2.288
 2483SOL    HW1 1432   3.238   1.932   2.198
 2483SOL    HW2 1433   3.361   1.985   2.292
 2484SOL     OW 1434   2.111   3.647   3.103
 2484SOL    HW1 1435   2.168   3.582   3.153
 2484SOL    HW2 1436   2.095   3.614   3.010
 2485SOL     OW 1437   2.802   3.560   2.766
 2485SOL    HW1 1438   2.882   3.503   2.787
 2485SOL    HW2 1439   2.753   3.520   2.689
 2486SOL     OW 1440   2.244   2.562   2.342
 2486SOL    HW1 1441   2.289   2.472   2.339
 2486SOL    HW2 1442   2.150   2.551   2.375
 2487SOL     OW 1443   3.409   2.084   3.591
 2487SOL    HW1 1444   3.404   2.121   3.683
 2487SOL    HW2 1445   3.337   2.015   3.579
 2488SOL     OW 1446   2.476   1.984   1.979
 2488SOL    HW1 1447   2.574   1.962   1.986
 2488SOL    HW2 1448   2.445   1.967   1.886
 2489SOL     OW 1449   2.643   2.126   3.611
 2489SOL    HW1 1450   2.710   2.065   3.654
 2489SOL    HW2 1451   2.570   2.145   3.676
 2490SOL     OW 1452   2.750   3.376   3.057
 2490SOL    HW1 1453   2.727   3.351   2.963
 2490SOL    HW2 1454   2.811   3.307   3.096
 2491SOL     OW 1455   3.213   2.452   3.295
 2491SOL    HW1 1456   3.241   2.409   3.380
 2491SOL    HW2 1457   3.238   2.548   3.296
 2492SOL     OW 1458   2.665   3.264   2.786
 2492SOL    HW1 1459   2.755   3.278   2.744
 2492SOL    HW2 1460   2.594   3.266   2.715
 2493SOL     OW 1461   2.401   1.926   2.374
 2493SOL    HW1 1462   2.320   1.927   2.432
 2493SOL    HW2 1463   2.404   2.009   2.319
 2494SOL     OW 1464   3.296   3.050   1.903
 2494SOL    HW1 1465   3.328   2.974   1.960
 2494SOL    HW2 1466   3.204   3.077   1.933
 2495SOL     OW 1467   2.159   1.897   2.033
 2495SOL    HW1 1468   2.208   1.981   2.012
 2495SOL    HW2 1469   2.221   1.832   2.078
 2496SOL     OW 1470   2.797   2.098   2.342
 2496SOL    HW1 1471   2.749   2.139   2.264
 2496SOL    HW2 1472   2.896   2.096   2.323
 2497SOL     OW 1473   2.938   2.545   3.326
 2497SOL    HW1 1474   2.858   2.484   3.329
 2497SOL    HW2 1475   3.019   2.492   3.302
 2498SOL     OW 1476   3.089   3.432   2.655
 2498SOL    HW1 1477   3.110   3.506   2.590
 2498SOL    HW2 1478   3.157   3.432   2.728
 2499SOL     OW 1479   2.321   3.014   2.603
 2499SOL    HW1 1480   2.250   2.987   2.668
 2499SOL    HW2 1481   2.295   2.986   2.510
 2500SOL     OW 1482   3.133   3.659   2.453
 2500SOL    HW1 1483   3.177   3.723   2.389
 2500SOL    HW2 1484   3.083   3.711   2.523
 2501SOL     OW 1485   2.894   2.411   1.878
 2501SOL    HW1 1486   2.853   2.493   1.839
 2501SOL    HW2 1487   2.958   2.437   1.951
 2502SOL     OW 1488   1.940   2.418   3.248
 2502SOL    HW1 1489   2.032   2.417   3.207
 2502SOL    HW2 1490   1.934   2.492   3.315
 2503SOL     OW 1491   2.423   2.084   3.009
 2503SOL    HW1 1492   2.461   2.000   3.046
 2503SOL    HW2 1493   2.335   2.103   3.053
 2504SOL     OW 1494   2.728   2.316   2.504
 2504SOL    HW1 1495   2.696   2.388   2.442
 2504SOL    HW2 1496   2.752   2.235   2.451
 2505SOL     OW 1497   2.879   1.901   2.615
 2505SOL    HW1 1498   2.807   1.906   2.546
 2505SOL    HW2 1499   2.855   1.832   2.684
 2506SOL     OW 1500   3.291   3.035   2.729
 2506SOL    HW1 1501   3.236   2.951   2.722
 2506SOL    HW2 1502   3.317   3.064   2.637
 2507SOL     OW 1503   3.328   2.452   2.854
 2507SOL    HW1 1504   3.298   2.357   2.861
 2507SOL    HW2 1505   3.401   2.468   2.920
 2508SOL     OW 1506   3.719   2.695   2.239
 2508SOL    HW1 1507   3.761   2.631   2.303
 2508SOL    HW2 1508   3.681   2.644   2.161
 2509SOL     OW 1509   2.350   3.247   2.036
 2509SOL    HW1 1510   2.263   3.232   2.083
 2509SOL    HW2 1511   2.333   3.273   1.941
 2510SOL     OW 1512   3.526   3.142   2.519
 2510SOL    HW1 1513   3.625   3.150   2.533
 2510SOL    HW2 1514   3.481   3.226   2.550
 2511SOL     OW 1515   3.252   2.437   1.940
 2511SOL    HW1 1516   3.198   2.416   2.021
 2511SOL    HW2 1517   3.343   2.396   1.949
 2512SOL     OW 1518   2.389   2.118   2.190
 2512SOL    HW1 1519   2.416   2.059   2.115
 2512SOL    HW2 1520   2.389   2.213   2.159
 2513SOL     OW 1521   3.616   3.085   3.450
 2513SOL    HW1 1522   3.707   3.046   3.437
 2513SOL    HW2 1523   3.624   3.181   3.474
 2514SOL     OW 1524   2.926   3.209   3.202
 2514SOL    HW1 1525   2.846   3.186   3.257
 2514SOL    HW2 1526   3.009   3.183   3.251
 2515SOL     OW 1527   3.454   3.491   3.487
 2515SOL    HW1 1528   3.481   3.525   3.397
 2515SOL    HW2 1529   3.533   3.453   3.533
 2516SOL     OW 1530   2.973   3.057   2.962
 2516SOL    HW1 1531   2.933   3.101   3.043
 2516SOL    HW2 1532   2.932   3.094   2.879
 2517SOL     OW 1533   3.500   2.961   2.941
 2517SOL    HW1 1534   3.505   3.042   3.000
 2517SOL    HW2 1535   3.414   2.963   2.890
 2518SOL     OW 1536   2.777   1.951   3.264
 2518SOL    HW1 1537   2.802   1.931   3.169
 2518SOL    HW2 1538   2.849   2.007   3.306
 2519SOL     OW 1539   2.842   2.978   3.581
 2519SOL    HW1 1540   2.743   2.984   3.591
 2519SOL    HW2 1541   2.865   2.898   3.525
 2520SOL     OW 1542   2.272   2.675   3.113
 2520SOL    HW1 1543   2.358   2.687   3.163
 2520SOL    HW2 1544   2.230   2.588   3.140
 2521SOL     OW 1545   3.136   2.248   3.124
 2521SOL    HW1 1546   3.157   2.322   3.188
 2521SOL    HW2 1547   3.047   2.265   3.081
 2522SOL     OW 1548   1.926   3.426   3.193
 2522SOL    HW1 1549   1.880   3.508   3.159
 2522SOL    HW2 1550   2.024   3.445   3.202
 2523SOL     OW 1551   2.428   2.399   2.727
 2523SOL    HW1 1552   2.440   2.465   2.653
 2523SOL    HW2 1553   2.474   2.433   2.810
 2524SOL     OW 1554   3.114   3.210   2.250
 2524SOL    HW1 1555   3.164   3.287   2.290
 2524SOL    HW2 1556   3.019   3.212   2.282
 2525SOL     OW 1557   3.134   3.307   3.004
 2525SOL    HW1 1558   3.181   3.320   3.091
 2525SOL    HW2 1559   3.068   3.233   3.013
 2526SOL     OW 1560   3.444   2.501   2.334
 2526SOL    HW1 1561   3.413   2.562   2.407
 2526SOL    HW2 1562   3.494   2.553   2.265
 2527SOL     OW 1563   2.216   3.372   3.191
 2527SOL    HW1 1564   2.195   3.328   3.104
 2527SOL    HW2 1565   2.313   3.398   3.194
 2528SOL     OW 1566   2.264   2.613   3.460
 2528SOL    HW1 1567   2.332   2.668   3.413
 2528SOL    HW2 1568   2.304   2.525   3.487
 2529SOL     OW 1569   3.449   2.641   3.532
 2529SOL    HW1 1570   3.357   2.679   3.527
 2529SOL    HW2 1571   3.509   2.688   3.467
 2530SOL     OW 1572   2.875   1.967   3.632
 2530SOL    HW1 1573   2.881   2.052   3.580
 2530SOL    HW2 1574   2.907   1.891   3.575
 2531SOL     OW 1575   2.366   1.912   3.602
 2531SOL    HW1 1576   2.324   1.855   3.532
 2531SOL    HW2 1577   2.300   1.981   3.634
 2532SOL     OW 1578   2.435   2.732   2.891
 2532SOL    HW1 1579   2.479   2.821   2.882
 2532SOL    HW2 1580   2.372   2.732   2.968
 2533SOL     OW 1581   3.222   2.724   2.907
 2533SOL    HW1 1582   3.147   2.724   2.841
 2533SOL    HW2 1583   3.259   2.632   2.916
 2534SOL     OW 1584   3.071   2.387   2.137
 2534SOL    HW1 1585   3.084   2.303   2.191
 2534SOL    HW2 1586   3.042   2.461   2.197
 2535SOL     OW 1587   2.169   2.075   3.093
 2535SOL    HW1 1588   2.146   2.112   3.183
 2535SOL    HW2 1589   2.139   1.980   3.087
 2536SOL     OW 1590   1.899   3.172   3.144
 2536SOL    HW1 1591   1.952   3.123   3.212
 2536SOL    HW2 1592   1.921   3.270   3.149
 2537SOL     OW 1593   2.594   2.496   2.926
 2537SOL    HW1 1594   2.653   2.470   2.850
 2537SOL    HW2 1595   2.566   2.592   2.915
 2538SOL     OW 1596   3.590   2.797   3.716
 2538SOL    HW1 1597   3.544   2.790   3.627
 2538SOL    HW2 1598   3.528   2.841   3.782
 2539SOL     OW 1599   2.169   1.925   2.480
 2539SOL    HW1 1600   2.158   2.019   2.513
 2539SOL    HW2 1601   2.164   1.862   2.557
 2540SOL     OW 1602   3.484   2.229   2.236
 2540SOL    HW1 1603   3.486   2.153   2.300
 2540SOL    HW2 1604   3.436   2.306   2.276
 2541SOL     OW 1605   2.885   2.628   2.828
 2541SOL    HW1 1606   2.900   2.649   2.924
 2541SOL    HW2 1607   2.855   2.533   2.819
 2542SOL     OW 1608   2.842   3.435   3.562
 2542SOL    HW1 1609   2.822   3.479   3.474
 2542SOL    HW2 1610   2.881   3.344   3.546
 2543SOL     OW 1611   3.721   3.380   3.467
 2543SOL    HW1 1612   3.735   3.407   3.372
 2543SOL    HW2 1613   3.804   3.402   3.520
 2544SOL     OW 1614   2.212   2.760   3.666
 2544SOL    HW1 1615   2.288   2.804   3.714
 2544SOL    HW2 1616   2.247   2.713   3.584
 2545SOL     OW 1617   3.402   2.136   1.987
 2545SOL    HW1 1618   3.341   2.061   2.010
 2545SOL    HW2 1619   3.424   2.188   2.070
 2546SOL     OW 1620   3.165   2.700   1.904
 2546SOL    HW1 1621   3.199   2.607   1.919
 2546SOL    HW2 1622   3.183   2.727   1.809
 2547SOL     OW 1623   2.930   3.195   2.711
 2547SOL    HW1 1624   2.937   3.111   2.656
 2547SOL    HW2 1625   2.992   3.264   2.675
 2548SOL     OW 1626   2.181   2.672   2.811
 2548SOL    HW1 1627   2.274   2.708   2.816
 2548SOL    HW2 1628   2.175   2.587   2.863
 2549SOL     OW 1629   2.201   2.371   2.868
 2549SOL    HW1 1630   2.149   2.288   2.851
 2549SOL    HW2 1631   2.278   2.376   2.804
 2550SOL     OW 1632   3.000   2.242   3.540
 2550SOL    HW1 1633   2.955   2.305   3.604
 2550SOL    HW2 1634   3.093   2.273   3.523
 2551SOL     OW 1635   3.022   2.069   3.339
 2551SOL    HW1 1636   3.022   2.133   3.416
 2551SOL    HW2 1637   3.050   2.117   3.256
 2552SOL     OW 1638   1.870   3.188   2.062
 2552SOL    HW1 1639   1.777   3.209   2.031
 2552SOL    HW2 1640   1.880   3.089   2.075
 2553SOL     OW 1641   1.950   3.663   2.789
 2553SOL    HW1 1642   1.908   3.577   2.762
 2553SOL    HW2 1643   2.044   3.666   2.755
 2554SOL     OW 1644   2.366   3.430   2.772
 2554SOL    HW1 1645   2.432   3.504   2.781
 2554SOL    HW2 1646   2.410   3.351   2.730
 2555SOL     OW 1647   2.864   2.658   3.100
 2555SOL    HW1 1648   2.905   2.626   3.186
 2555SOL    HW2 1649   2.768   2.631   3.097
 2556SOL     OW 1650   1.902   2.406   2.976
 2556SOL    HW1 1651   1.987   2.373   2.935
 2556SOL    HW2 1652   1.915   2.421   3.074
 2557SOL     OW 1653   2.051   2.382   3.584
 2557SOL    HW1 1654   2.110   2.342   3.514
 2557SOL    HW2 1655   1.993   2.453   3.543
 2558SOL     OW 1656   3.231   2.812   3.522
 2558SOL    HW1 1657   3.270   2.901   3.542
 2558SOL    HW2 1658   3.241   2.792   3.425
 2559SOL     OW 1659   2.677   2.434   2.187
 2559SOL    HW1 1660   2.684   2.345   2.141
 2559SOL    HW2 1661   2.583   2.468   2.179
 2560SOL     OW 1662   3.519   2.466   3.068
 2560SOL    HW1 1663   3.481   2.397   3.130
 2560SOL    HW2 1664   3.601   2.430   3.024
 2561SOL     OW 1665   2.114   3.426   3.606
 2561SOL    HW1 1666   2.084   3.483   3.682
 2561SOL    HW2 1667   2.107   3.329   3.632
 2562SOL     OW 1668   2.533   2.326   3.131
 2562SOL    HW1 1669   2.499   2.237   3.101
 2562SOL    HW2 1670   2.559   2.380   3.051
 2563SOL     OW 1671   2.792   3.540   3.327
 2563SOL    HW1 1672   2.768   3.522   3.232
 2563SOL    HW2 1673   2.822   3.634   3.337
 2564SOL     OW 1674   2.335   2.362   2.053
 2564SOL    HW1 1675   2.396   2.442   2.057
 2564SOL    HW2 1676   2.240   2.393   2.060
 2565SOL     OW 1677   2.021   2.999   3.328
 2565SOL    HW1 1678   2.043   2.938   3.404
 2565SOL    HW2 1679   2.031   2.950   3.242
 2566SOL     OW 1680   3.209   2.921   3.096
 2566SOL    HW1 1681   3.233   2.858   3.022
 2566SOL    HW2 1682   3.119   2.961   3.078
 2567SOL     OW 1683   3.164   2.717   2.171
 2567SOL    HW1 1684   3.078   2.686   2.213
 2567SOL    HW2 1685   3.160   2.703   2.072
 2568SOL     OW 1686   3.621   3.609   3.016
 2568SOL    HW1 1687   3.682   3.639   2.943
 2568SOL    HW2 1688   3.583   3.520   2.994
 2569SOL     OW 1689   3.114   3.593   2.990
 2569SOL    HW1 1690   3.198   3.598   2.936
 2569SOL    HW2 1691   3.091   3.497   3.008
 2570SOL     OW 1692   1.945   3.120   2.884
 2570SOL    HW1 1693   1.940   3.119   2.984
 2570SOL    HW2 1694   1.862   3.079   2.846
 2571SOL     OW 1695   2.550   3.524   3.578
 2571SOL    HW1 1696   2.494   3.605   3.587
 2571SOL    HW2 1697   2.602   3.528   3.492
 2572SOL     OW 1698   3.588   1.997   2.385
 2572SOL    HW1 1699   3.661   1.980   2.318
 2572SOL    HW2 1700   3.557   1.910   2.423
 2573SOL     OW 1701   3.250   3.435   2.339
 2573SOL    HW1 1702   3.317   3.447   2.265
 2573SOL    HW2 1703   3.210   3.524   2.362
 2574SOL     OW 1704   1.992   3.656   3.713
 2574SOL    HW1 1705   1.951   3.582   3.766
 2574SOL    HW2 1706   2.056   3.707   3.771
 2575SOL     OW 1707   3.142   2.789   2.534
 2575SOL    HW1 1708   3.202   2.708   2.536
 2575SOL    HW2 1709   3.182   2.858   2.474
 2576SOL     OW 1710   2.692   3.135   3.284
 2576SOL    HW1 1711   2.687   3.168   3.379
 2576SOL    HW2 1712   2.606   3.154   3.238
 2577SOL     OW 1713   2.534   3.478   2.016
 2577SOL    HW1 1714   2.543   3.488   1.917
 2577SOL    HW2 1715   2.494   3.389   2.037
 2578SOL     OW 1716   3.512   3.582   3.256
 2578SOL    HW1 1717   3.565   3.592   3.172
 2578SOL    HW2 1718   3.485   3.672   3.290
 2579SOL     OW 1719   3.703   2.037   2.825
 2579SOL    HW1 1720   3.742   1.952   2.789
 2579SOL    HW2 1721   3.605   2.039   2.806
 2580SOL     OW 1722   2.125   2.188   2.582
 2580SOL    HW1 1723   2.046   2.239   2.548
 2580SOL    HW2 1724   2.116   2.173   2.680
 2581SOL     OW 1725   3.056   3.474   1.893
 2581SOL    HW1 1726   3.062   3.381   1.930
 2581SOL    HW2 1727   2.997   3.474   1.813
 2582SOL     OW 1728   2.684   2.864   3.234
 2582SOL    HW1 1729   2.724   2.863   3.142
 2582SOL    HW2 1730   2.694   2.956   3.274
 2583SOL     OW 1731   2.778   2.772   2.153
 2583SOL    HW1 1732   2.841   2.810   2.085
 2583SOL    HW2 1733   2.818   2.689   2.192
 2584SOL     OW 1734   3.366   3.469   1.906
 2584SOL    HW1 1735   3.274   3.506   1.913
 2584SOL    HW2 1736   3.404   3.489   1.816
 2585SOL     OW 1737   2.234   3.150   3.352
 2585SOL    HW1 1738   2.221   3.243   3.318
 2585SOL    HW2 1739   2.150   3.098   3.339
 2586SOL     OW 1740   3.476   3.154   3.151
 2586SOL    HW1 1741   3.536   3.157   3.231
 2586SOL    HW2 1742   3.401   3.218   3.164
 2587SOL     OW 1743   2.901   2.960   2.558
 2587SOL    HW1 1744   2.831   2.913   2.612
 2587SOL    HW2 1745   2.960   2.892   2.515
 2588SOL     OW 1746   2.452   3.349   2.353
 2588SOL    HW1 1747   2.494   3.291   2.283
 2588SOL    HW2 1748   2.408   3.428   2.309
 2589SOL     OW 1749   3.571   2.247   3.243
 2589SOL    HW1 1750   3.644   2.316   3.247
 2589SOL    HW2 1751   3.599   2.172   3.184
 2590SOL     OW 1752   2.117   3.210   2.152
 2590SOL    HW1 1753   2.021   3.211   2.125
 2590SOL    HW2 1754   2.129   3.263   2.236
 2591SOL     OW 1755   1.967   2.875   3.588
 2591SOL    HW1 1756   1.890   2.842   3.642
 2591SOL    HW2 1757   2.052   2.845   3.630
 2592SOL     OW 1758   2.534   2.065   3.351
 2592SOL    HW1 1759   2.624   2.049   3.311
 2592SOL    HW2 1760   2.542   2.070   3.450
 2593SOL     OW 1761   1.937   2.207   1.895
 2593SOL    HW1 1762   1.845   2.179   1.866
 2593SOL    HW2 1763   1.968   2.284   1.839
 2594SOL     OW 1764   3.302   2.718   3.260
 2594SOL    HW1 1765   3.245   2.770   3.197
 2594SOL    HW2 1766   3.398   2.730   3.236
 2595SOL     OW 1767   1.934   2.028   2.180
 2595SOL    HW1 1768   1.917   2.111   2.126
 2595SOL    HW2 1769   2.024   1.991   2.158
 2596SOL     OW 1770   3.045   3.197   1.981
 2596SOL    HW1 1771   2.946   3.186   1.983
 2596SOL    HW2 1772   3.079   3.212   2.074
 2597SOL     OW 1773   2.475   2.704   3.293
 2597SOL    HW1 1774   2.531   2.785   3.276
 2597SOL    HW2 1775   2.534   2.624   3.296
 2598SOL     OW 1776   3.355   3.629   2.821
 2598SOL    HW1 1777   3.388   3.693   2.752
 2598SOL    HW2 1778   3.421   3.623   2.896
 2599SOL     OW 1779   2.578   2.427   3.570
 2599SOL    HW1 1780   2.597   2.492   3.644
 2599SOL    HW2 1781   2.638   2.347   3.579
 2600SOL     OW 1782   3.312   3.082   3.495
 2600SOL    HW1 1783   3.303   3.072   3.594
 2600SOL    HW2 1784   3.408   3.075   3.469
 2601SOL     OW 1785   2.252   3.603   3.422
 2601SOL    HW1 1786   2.161   3.644   3.420
 2601SOL    HW2 1787   2.245   3.509   3.454
 2602SOL     OW 1788   3.536   2.745   3.116
 2602SOL    HW1 1789   3.509   2.656   3.079
 2602SOL    HW2 1790   3.537   2.813   3.043
 2603SOL     OW 1791   3.087   2.187   2.311
 2603SOL    HW1 1792   3.152   2.113   2.300
 2603SOL    HW2 1793   3.107   2.237   2.395
 2604SOL     OW 1794   3.639   2.204   3.504
 2604SOL    HW1 1795   3.622   2.235   3.410
 2604SOL    HW2 1796   3.555   2.167   3.542
 2605SOL     OW 1797   3.592   2.796   3.379
 2605SOL    HW1 1798   3.630   2.887   3.394
 2605SOL    HW2 1799   3.584   2.779   3.280
 2606SOL     OW 1800   2.721   3.236   1.878
 2606SOL    HW1 1801   2.675   3.251   1.966
 2606SOL    HW2 1802   2.765   3.321   1.848
 2607SOL     OW 1803   2.523   3.652   2.815
 2607SOL    HW1 1804   2.477   3.740   2.802
 2607SOL    HW2 1805   2.622   3.664   2.808
 2608SOL     OW 1806   2.721   2.818   2.723
 2608SOL    HW1 1807   2.775   2.749   2.771
 2608SOL    HW2 1808   2.689   2.887   2.789
 2609SOL     OW 1809   2.945   2.846   1.949
 2609SOL    HW1 1810   2.922   2.899   1.867
 2609SOL    HW2 1811   3.026   2.790   1.930
 2610SOL     OW 1812   3.723   3.431   2.713
 2610SOL    HW1 1813   3.652   3.419   2.643
 2610SOL    HW2 1814   3.724   3.352   2.773
 2611SOL     OW 1815   2.083   3.176   3.706
 2611SOL    HW1 1816   2.018   3.103   3.685
 2611SOL    HW2 1817   2.087   3.190   3.804
 2612SOL     OW 1818   1.941   3.102   2.515
 2612SOL    HW1 1819   1.940   3.055   2.603
 2612SOL    HW2 1820   2.023   3.074   2.464
 2613SOL     OW 1821   2.534   3.253   3.486
 2613SOL    HW1 1822   2.456   3.203   3.524
 2613SOL    HW2 1823   2.531   3.348   3.517
 2614SOL     OW 1824   3.686   2.054   3.089
 2614SOL    HW1 1825   3.682   1.964   3.133
 2614SOL    HW2 1826   3.689   2.043   2.990
 2615SOL     OW 1827   2.290   2.286   2.382
 2615SOL    HW1 1828   2.320   2.214   2.320
 2615SOL    HW2 1829   2.251   2.246   2.465
 2616SOL     OW 1830   3.567   3.349   2.966
 2616SOL    HW1 1831   3.474   3.324   2.939
 2616SOL    HW2 1832   3.593   3.299   3.048
 2617SOL     OW 1833   2.179   2.409   3.142
 2617SOL    HW1 1834   2.217   2.350   3.214
 2617SOL    HW2 1835   2.219   2.383   3.054
 2618SOL     OW 1836   2.674   3.448   2.549
 2618SOL    HW1 1837   2.706   3.458   2.455
 2618SOL    HW2 1838   2.595   3.386   2.551
 2619SOL     OW 1839   3.286   2.076   2.974
 2619SOL    HW1 1840   3.338   2.011   3.029
 2619SOL    HW2 1841   3.237   2.139   3.035
 2620SOL     OW 1842   2.863   1.896   3.016
 2620SOL    HW1 1843   2.800   1.824   2.985
 2620SOL    HW2 1844   2.956   1.860   3.016
 2621SOL     OW 1845   2.632   3.192   2.163
 2621SOL    HW1 1846   2.586   3.105   2.180
 2621SOL    HW2 1847   2.723   3.189   2.204
 2622SOL     OW 1848   2.480   3.429   3.146
 2622SOL    HW1 1849   2.475   3.511   3.203
 2622SOL    HW2 1850   2.569   3.426   3.101
 2623SOL     OW 1851   3.214   1.914   2.030
 2623SOL    HW1 1852   3.249   1.873   1.946
 2623SOL    HW2 1853   3.124   1.876   2.050
 2624SOL     OW 1854   3.162   2.315   2.553
 2624SOL    HW1 1855   3.103   2.395   2.557
 2624SOL    HW2 1856   3.177   2.280   2.646
 2625SOL     OW 1857   3.455   2.083   2.744
 2625SOL    HW1 1858   3.371   2.082   2.798
 2625SOL    HW2 1859   3.457   2.166   2.688
 2626SOL     OW 1860   1.901   2.939   2.162
 2626SOL    HW1 1861   2.000   2.928   2.153
 2626SOL    HW2 1862   1.861   2.853   2.194
 2627SOL     OW 1863   2.737   3.508   2.199
 2627SOL    HW1 1864   2.660   3.473   2.145
 2627SOL    HW2 1865   2.705   3.579   2.261
 2628SOL     OW 1866   2.092   2.490   3.837
 2628SOL    HW1 1867   1.999   2.488   3.874
 2628SOL    HW2 1868   2.093   2.451   3.745
 2634SOL     OW 1869   3.617   2.469   3.955
 2634SOL    HW1 1870   3.605   2.456   3.856
 2634SOL    HW2 1871   3.587   2.388   4.004
 2644SOL     OW 1872   2.468   2.826   3.847
 2644SOL    HW1 1873   2.475   2.910   3.793
 2644SOL    HW2 1874   2.514   2.839   3.935
 2647SOL     OW 1875   1.889   3.458   3.841
 2647SOL    HW1 1876   1.870   3.362   3.862
 2647SOL    HW2 1877   1.856   3.516   3.916
 2651SOL     OW 1878   2.671   1.866   4.226
 2651SOL    HW1 1879   2.711   1.957   4.217
 2651SOL    HW2 1880   2.571   1.874   4.232
 2653SOL     OW 1881   3.387   2.861   3.914
 2653SOL    HW1 1882   3.324   2.785   3.927
 2653SOL    HW2 1883   3.435   2.879   4.000
 2656SOL     OW 1884   2.460   2.591   3.994
 2656SOL    HW1 1885   2.484   2.660   3.926
 2656SOL    HW2 1886   2.382   2.624   4.048
 2661SOL     OW 1887   2.903   2.563   4.153
 2661SOL    HW1 1888   2.929   2.559   4.249
 2661SOL    HW2 1889   2.818   2.512   4.139
 2664SOL     OW 1890   2.727   2.210   3.919
 2664SOL    HW1 1891   2.786   2.273   3.870
 2664SOL    HW2 1892   2.746   2.116   3.890
 2670SOL     OW 1893   2.183   2.805   3.966
 2670SOL    HW1 1894   2.265   2.844   3.924
 2670SOL    HW2 1895   2.156   2.723   3.917
 2672SOL     OW 1896   2.973   3.638   3.961
 2672SOL    HW1 1897   2.913   3.576   4.011
 2672SOL    HW2 1898   3.004   3.594   3.876
 2673SOL     OW 1899   3.494   3.239   3.805
 2673SOL    HW1 1900   3.462   3.333   3.795
 2673SOL    HW2 1901   3.418   3.176   3.793
 2678SOL     OW 1902   2.244   2.562   4.204
 2678SOL    HW1 1903   2.289   2.472   4.201
 2678SOL    HW2 1904   2.150   2.551   4.237
 2679SOL     OW 1905   2.476   1.984   3.841
 2679SOL    HW1 1906   2.574   1.962   3.848
 2679SOL    HW2 1907   2.445   1.967   3.748
 2683SOL     OW 1908   2.401   1.926   4.236
 2683SOL    HW1 1909   2.320   1.927   4.294
 2683SOL    HW2 1910   2.404   2.009   4.181
 2684SOL     OW 1911   3.296   3.050   3.765
 2684SOL    HW1 1912   3.328   2.974   3.822
 2684SOL    HW2 1913   3.204   3.077   3.795
 2685SOL     OW 1914   2.159   1.897   3.895
 2685SOL    HW1 1915   2.208   1.981   3.874
 2685SOL    HW2 1916   2.221   1.832   3.940
 2686SOL     OW 1917   2.797   2.098   4.204
 2686SOL    HW1 1918   2.749   2.139   4.126
 2686SOL    HW2 1919   2.896   2.096   4.185
 2690SOL     OW 1920   2.894   2.411   3.740
 2690SOL    HW1 1921   2.853   2.493   3.701
 2690SOL    HW2 1922   2.958   2.437   3.813
 2697SOL     OW 1923   2.350   3.247   3.898
 2697SOL    HW1 1924   2.263   3.232   3.945
 2697SOL    HW2 1925   2.333   3.273   3.803
 2699SOL     OW 1926   3.252   2.437   3.802
 2699SOL    HW1 1927   3.198   2.416   3.883
 2699SOL    HW2 1928   3.343   2.396   3.811
 2700SOL     OW 1929   2.389   2.118   4.052
 2700SOL    HW1 1930   2.416   2.059   3.977
 2700SOL    HW2 1931   2.389   2.213   4.021
 2704SOL     OW 1932   2.567   2.912   4.092
 2704SOL    HW1 1933   2.553   2.919   4.191
 2704SOL    HW2 1934   2.651   2.861   4.074
 2708SOL     OW 1935   2.229   2.962   4.225
 2708SOL    HW1 1936   2.222   3.045   4.169
 2708SOL    HW2 1937   2.233   2.882   4.165
 2710SOL     OW 1938   3.114   3.210   4.112
 2710SOL    HW1 1939   3.164   3.287   4.152
 2710SOL    HW2 1940   3.019   3.212   4.144
 2716SOL     OW 1941   3.071   2.387   3.999
 2716SOL    HW1 1942   3.084   2.303   4.053
 2716SOL    HW2 1943   3.042   2.461   4.059
 2721SOL     OW 1944   3.484   2.229   4.098
 2721SOL    HW1 1945   3.486   2.153   4.162
 2721SOL    HW2 1946   3.436   2.306   4.138
 2723SOL     OW 1947   3.402   2.136   3.849
 2723SOL    HW1 1948   3.341   2.061   3.872
 2723SOL    HW2 1949   3.424   2.188   3.932
 2724SOL     OW 1950   3.165   2.700   3.766
 2724SOL    HW1 1951   3.199   2.607   3.781
 2724SOL    HW2 1952   3.183   2.727   3.671
 2729SOL     OW 1953   1.870   3.188   3.924
 2729SOL    HW1 1954   1.777   3.209   3.893
 2729SOL    HW2 1955   1.880   3.089   3.937
 2734SOL     OW 1956   2.677   2.434   4.049
 2734SOL    HW1 1957   2.684   2.345   4.003
 2734SOL    HW2 1958   2.583   2.468   4.041
 2738SOL     OW 1959   2.335   2.362   3.915
 2738SOL    HW1 1960   2.396   2.442   3.919
 2738SOL    HW2 1961   2.240   2.393   3.922
 2741SOL     OW 1962   3.164   2.717   4.033
 2741SOL    HW1 1963   3.078   2.686   4.075
 2741SOL    HW2 1964   3.160   2.703   3.934
 2748SOL     OW 1965   2.534   3.478   3.878
 2748SOL    HW1 1966   2.543   3.488   3.779
 2748SOL    HW2 1967   2.494   3.389   3.899
 2751SOL     OW 1968   3.056   3.474   3.755
 2751SOL    HW1 1969   3.062   3.381   3.792
 2751SOL    HW2 1970   2.997   3.474   3.675
 2753SOL     OW 1971   2.778   2.772   4.015
 2753SOL    HW1 1972   2.841   2.810   3.947
 2753SOL    HW2 1973   2.818   2.689   4.054
 2754SOL     OW 1974   3.366   3.469   3.768
 2754SOL    HW1 1975   3.274   3.506   3.775
 2754SOL    HW2 1976   3.404   3.489   3.678
 2760SOL     OW 1977   2.117   3.210   4.014
 2760SOL    HW1 1978   2.021   3.211   3.987
 2760SOL    HW2 1979   2.129   3.263   4.098
 2762SOL     OW 1980   1.937   2.207   3.757
 2762SOL    HW1 1981   1.845   2.179   3.728
 2762SOL    HW2 1982   1.968   2.284   3.701
 2763SOL     OW 1983   1.934   2.028   4.042
 2763SOL    HW1 1984   1.917   2.111   3.988
 2763SOL    HW2 1985   2.024   1.991   4.020
 2764SOL     OW 1986   3.045   3.197   3.843
 2764SOL    HW1 1987   2.946   3.186   3.845
 2764SOL    HW2 1988   3.079   3.212   3.936
 2769SOL     OW 1989   3.087   2.187   4.173
 2769SOL    HW1 1990   3.152   2.113   4.162
 2769SOL    HW2 1991   3.107   2.237   4.257
 2770SOL     OW 1992   2.456   2.607   4.376
 2770SOL    HW1 1993   2.506   2.692   4.357
 2770SOL    HW2 1994   2.368   2.609   4.328
 2772SOL     OW 1995   2.721   3.236   3.740
 2772SOL    HW1 1996   2.675   3.251   3.828
 2772SOL    HW2 1997   2.765   3.321   3.710
 2775SOL     OW 1998   2.945   2.846   3.811
 2775SOL    HW1 1999   2.922   2.899   3.729
 2775SOL    HW2 2000   3.026   2.790   3.792
 2779SOL     OW 2001   2.290   2.286   4.244
 2779SOL    HW1 2002   2.320   2.214   4.182
 2779SOL    HW2 2003   2.251   2.246   4.327
 2785SOL     OW 2004   2.632   3.192   4.025
 2785SOL    HW1 2005   2.586   3.105   4.042
 2785SOL    HW2 2006   2.723   3.189   4.066
 2787SOL     OW 2007   3.214   1.914   3.892
 2787SOL    HW1 2008   3.249   1.873   3.808
 2787SOL    HW2 2009   3.124   1.876   3.912
 2790SOL     OW 2010   1.901   2.939   4.024
 2790SOL    HW1 2011   2.000   2.928   4.015
 2790SOL    HW2 2012   1.861   2.853   4.056
 2791SOL     OW 2013   2.737   3.508   4.061
 2791SOL    HW1 2014   2.660   3.473   4.007
 2791SOL    HW2 2015   2.705   3.579   4.123
 2818SOL     OW 2016   2.179   3.975   1.801
 2818SOL    HW1 2017   2.250   4.046   1.807
 2818SOL    HW2 2018   2.091   4.014   1.829
 2841SOL     OW 2019   2.643   3.988   1.749
 2841SOL    HW1 2020   2.710   3.927   1.792
 2841SOL    HW2 2021   2.570   4.007   1.814
 2865SOL     OW 2022   2.777   3.813   1.402
 2865SOL    HW1 2023   2.802   3.793   1.307
 2865SOL    HW2 2024   2.849   3.869   1.444
 2876SOL     OW 2025   2.875   3.829   1.770
 2876SOL    HW1 2026   2.881   3.914   1.718
 2876SOL    HW2 2027   2.907   3.753   1.713
 2877SOL     OW 2028   2.366   3.774   1.740
 2877SOL    HW1 2029   2.324   3.717   1.670
 2877SOL    HW2 2030   2.300   3.843   1.772
 2895SOL     OW 2031   3.022   3.931   1.477
 2895SOL    HW1 2032   3.022   3.995   1.554
 2895SOL    HW2 2033   3.050   3.979   1.394
 2922SOL     OW 2034   2.534   3.927   1.489
 2922SOL    HW1 2035   2.624   3.911   1.449
 2922SOL    HW2 2036   2.542   3.932   1.588
 2951SOL     OW 2037   2.087   3.999   2.858
 2951SOL    HW1 2038   2.122   3.982   2.950
 2951SOL    HW2 2039   1.999   3.954   2.846
 2952SOL     OW 2040   1.881   4.092   2.509
 2952SOL    HW1 2041   1.799   4.135   2.548
 2952SOL    HW2 2042   1.853   4.019   2.446
 2962SOL     OW 2043   2.300   4.116   3.361
 2962SOL    HW1 2044   2.382   4.060   3.370
 2962SOL    HW2 2045   2.219   4.058   3.365
 2966SOL     OW 2046   3.456   3.838   3.342
 2966SOL    HW1 2047   3.438   3.905   3.270
 2966SOL    HW2 2048   3.453   3.884   3.431
 2973SOL     OW 2049   2.671   3.728   2.364
 2973SOL    HW1 2050   2.711   3.819   2.355
 2973SOL    HW2 2051   2.571   3.736   2.370
 2979SOL     OW 2052   3.143   4.069   2.806
 2979SOL    HW1 2053   3.057   4.019   2.793
 2979SOL    HW2 2054   3.205   4.015   2.862
 2983SOL     OW 2055   2.853   4.134   3.104
 2983SOL    HW1 2056   2.776   4.168   3.158
 2983SOL    HW2 2057   2.819   4.083   3.025
 2986SOL     OW 2058   2.727   4.072   2.057
 2986SOL    HW1 2059   2.786   4.135   2.008
 2986SOL    HW2 2060   2.746   3.978   2.028
 2989SOL     OW 2061   2.412   3.920   2.747
 2989SOL    HW1 2062   2.407   3.915   2.847
 2989SOL    HW2 2063   2.414   4.016   2.718
 2994SOL     OW 2064   2.064   4.009   3.360
 2994SOL    HW1 2065   1.984   4.069   3.347
 2994SOL    HW2 2066   2.054   3.960   3.446
 2996SOL     OW 2067   3.262   3.831   2.288
 2996SOL    HW1 2068   3.238   3.794   2.198
 2996SOL    HW2 2069   3.361   3.847   2.292
 2999SOL     OW 2070   2.476   3.846   1.979
 2999SOL    HW1 2071   2.574   3.824   1.986
 2999SOL    HW2 2072   2.445   3.829   1.886
 3000SOL     OW 2073   2.643   3.988   3.611
 3000SOL    HW1 2074   2.710   3.927   3.654
 3000SOL    HW2 2075   2.570   4.007   3.676
 3002SOL     OW 2076   2.784   4.227   2.761
 3002SOL    HW1 2077   2.759   4.218   2.665
 3002SOL    HW2 2078   2.832   4.145   2.792
 3003SOL     OW 2079   2.401   3.788   2.374
 3003SOL    HW1 2080   2.320   3.789   2.432
 3003SOL    HW2 2081   2.404   3.871   2.319
 3005SOL     OW 2082   2.159   3.759   2.033
 3005SOL    HW1 2083   2.208   3.843   2.012
 3005SOL    HW2 2084   2.221   3.694   2.078
 3006SOL     OW 2085   2.797   3.960   2.342
 3006SOL    HW1 2086   2.749   4.001   2.264
 3006SOL    HW2 2087   2.896   3.958   2.323
 3012SOL     OW 2088   2.423   3.946   3.009
 3012SOL    HW1 2089   2.461   3.862   3.046
 3012SOL    HW2 2090   2.335   3.965   3.053
 3013SOL     OW 2091   2.728   4.178   2.504
 3013SOL    HW1 2092   2.696   4.250   2.442
 3013SOL    HW2 2093   2.752   4.097   2.451
 3014SOL     OW 2094   2.879   3.763   2.615
 3014SOL    HW1 2095   2.807   3.768   2.546
 3014SOL    HW2 2096   2.855   3.694   2.684
 3020SOL     OW 2097   2.389   3.980   2.190
 3020SOL    HW1 2098   2.416   3.921   2.115
 3020SOL    HW2 2099   2.389   4.075   2.159
 3025SOL     OW 2100   2.777   3.813   3.264
 3025SOL    HW1 2101   2.802   3.793   3.169
 3025SOL    HW2 2102   2.849   3.869   3.306
 3029SOL     OW 2103   3.136   4.110   3.124
 3029SOL    HW1 2104   3.157   4.184   3.188
 3029SOL    HW2 2105   3.047   4.127   3.081
 3031SOL     OW 2106   2.428   4.261   2.727
 3031SOL    HW1 2107   2.440   4.327   2.653
 3031SOL    HW2 2108   2.474   4.295   2.810
 3036SOL     OW 2109   2.875   3.829   3.632
 3036SOL    HW1 2110   2.881   3.914   3.580
 3036SOL    HW2 2111   2.907   3.753   3.575
 3037SOL     OW 2112   2.366   3.774   3.602
 3037SOL    HW1 2113   2.324   3.717   3.532
 3037SOL    HW2 2114   2.300   3.843   3.634
 3040SOL     OW 2115   3.071   4.249   2.137
 3040SOL    HW1 2116   3.084   4.165   2.191
 3040SOL    HW2 2117   3.042   4.323   2.197
 3041SOL     OW 2118   2.169   3.937   3.093
 3041SOL    HW1 2119   2.146   3.974   3.183
 3041SOL    HW2 2120   2.139   3.842   3.087
 3045SOL     OW 2121   2.169   3.787   2.480
 3045SOL    HW1 2122   2.158   3.881   2.513
 3045SOL    HW2 2123   2.164   3.724   2.557
 3046SOL     OW 2124   3.484   4.091   2.236
 3046SOL    HW1 2125   3.486   4.015   2.300
 3046SOL    HW2 2126   3.436   4.168   2.276
 3050SOL     OW 2127   3.402   3.998   1.987
 3050SOL    HW1 2128   3.341   3.923   2.010
 3050SOL    HW2 2129   3.424   4.050   2.070
 3053SOL     OW 2130   2.201   4.233   2.868
 3053SOL    HW1 2131   2.149   4.150   2.851
 3053SOL    HW2 2132   2.278   4.238   2.804
 3055SOL     OW 2133   3.022   3.931   3.339
 3055SOL    HW1 2134   3.022   3.995   3.416
 3055SOL    HW2 2135   3.050   3.979   3.256
 3061SOL     OW 2136   2.677   4.296   2.187
 3061SOL    HW1 2137   2.684   4.207   2.141
 3061SOL    HW2 2138   2.583   4.330   2.179
 3063SOL     OW 2139   2.533   4.188   3.131
 3063SOL    HW1 2140   2.499   4.099   3.101
 3063SOL    HW2 2141   2.559   4.242   3.051
 3064SOL     OW 2142   2.335   4.224   2.053
 3064SOL    HW1 2143   2.396   4.304   2.057
 3064SOL    HW2 2144   2.240   4.255   2.060
 3069SOL     OW 2145   3.588   3.859   2.385
 3069SOL    HW1 2146   3.661   3.842   2.318
 3069SOL    HW2 2147   3.557   3.772   2.423
 3072SOL     OW 2148   3.703   3.899   2.825
 3072SOL    HW1 2149   3.742   3.814   2.789
 3072SOL    HW2 2150   3.605   3.901   2.806
 3073SOL     OW 2151   2.125   4.050   2.582
 3073SOL    HW1 2152   2.046   4.101   2.548
 3073SOL    HW2 2153   2.116   4.035   2.680
 3079SOL     OW 2154   2.876   3.960   2.833
 3079SOL    HW1 2155   2.868   3.924   2.740
 3079SOL    HW2 2156   2.874   3.884   2.898
 3082SOL     OW 2157   2.534   3.927   3.351
 3082SOL    HW1 2158   2.624   3.911   3.311
 3082SOL    HW2 2159   2.542   3.932   3.450
 3083SOL     OW 2160   1.937   4.069   1.895
 3083SOL    HW1 2161   1.845   4.041   1.866
 3083SOL    HW2 2162   1.968   4.146   1.839
 3085SOL     OW 2163   1.934   3.890   2.180
 3085SOL    HW1 2164   1.917   3.973   2.126
 3085SOL    HW2 2165   2.024   3.853   2.158
 3090SOL     OW 2166   3.087   4.049   2.311
 3090SOL    HW1 2167   3.152   3.975   2.300
 3090SOL    HW2 2168   3.107   4.099   2.395
 3101SOL     OW 2169   2.290   4.148   2.382
 3101SOL    HW1 2170   2.320   4.076   2.320
 3101SOL    HW2 2171   2.251   4.108   2.465
 3104SOL     OW 2172   3.286   3.938   2.974
 3104SOL    HW1 2173   3.338   3.873   3.029
 3104SOL    HW2 2174   3.237   4.001   3.035
 3105SOL     OW 2175   2.863   3.758   3.016
 3105SOL    HW1 2176   2.800   3.686   2.985
 3105SOL    HW2 2177   2.956   3.722   3.016
 3107SOL     OW 2178   3.214   3.776   2.030
 3107SOL    HW1 2179   3.249   3.735   1.946
 3107SOL    HW2 2180   3.124   3.738   2.050
 3108SOL     OW 2181   3.162   4.177   2.553
 3108SOL    HW1 2182   3.103   4.257   2.557
 3108SOL    HW2 2183   3.177   4.142   2.646
 3109SOL     OW 2184   3.455   3.945   2.744
 3109SOL    HW1 2185   3.371   3.944   2.798
 3109SOL    HW2 2186   3.457   4.028   2.688
 3148SOL     OW 2187   2.476   3.846   3.841
 3148SOL    HW1 2188   2.574   3.824   3.848
 3148SOL    HW2 2189   2.445   3.829   3.748
 3273SOL     OW 2190   3.854   1.821   1.571
 3273SOL    HW1 2191   3.844   1.806   1.670
 3273SOL    HW2 2192   3.768   1.857   1.535
 3362SOL     OW 2193   3.854   1.794   1.851
 3362SOL    HW1 2194   3.813   1.720   1.904
 3362SOL    HW2 2195   3.918   1.845   1.909
 3415SOL     OW 2196   3.955   1.713   2.345
 3415SOL    HW1 2197   3.989   1.790   2.399
 3415SOL    HW2 2198   3.999   1.713   2.255
 3417SOL     OW 2199   3.954   1.434   2.400
 3417SOL    HW1 2200   3.928   1.530   2.400
 3417SOL    HW2 2201   3.883   1.380   2.445
 3422SOL     OW 2202   3.751   1.596   1.979
 3422SOL    HW1 2203   3.732   1.500   2.000
 3422SOL    HW2 2204   3.718   1.654   2.054
 3439SOL     OW 2205   3.854   1.821   3.433
 3439SOL    HW1 2206   3.844   1.806   3.532
 3439SOL    HW2 2207   3.768   1.857   3.397
 3444SOL     OW 2208   4.075   1.801   2.715
 3444SOL    HW1 2209   4.125   1.715   2.721
 3444SOL    HW2 2210   4.140   1.878   2.712
 3451SOL     OW 2211   3.973   1.785   3.103
 3451SOL    HW1 2212   4.030   1.720   3.153
 3451SOL    HW2 2213   3.957   1.752   3.010
 3483SOL     OW 2214   3.788   1.564   3.193
 3483SOL    HW1 2215   3.742   1.646   3.159
 3483SOL    HW2 2216   3.886   1.583   3.202
 3509SOL     OW 2217   3.732   1.326   2.062
 3509SOL    HW1 2218   3.639   1.347   2.031
 3509SOL    HW2 2219   3.742   1.227   2.075
 3510SOL     OW 2220   3.812   1.801   2.789
 3510SOL    HW1 2221   3.770   1.715   2.762
 3510SOL    HW2 2222   3.906   1.804   2.755
 3716SOL     OW 2223   3.837   2.599   1.597
 3716SOL    HW1 2224   3.925   2.586   1.642
 3716SOL    HW2 2225   3.824   2.696   1.575
 3722SOL     OW 2226   4.041   2.113   1.801
 3722SOL    HW1 2227   4.112   2.184   1.807
 3722SOL    HW2 2228   3.953   2.152   1.829
 3741SOL     OW 2229   3.926   2.147   1.498
 3741SOL    HW1 2230   3.846   2.207   1.485
 3741SOL    HW2 2231   3.916   2.098   1.584
 3760SOL     OW 2232   3.802   2.418   1.386
 3760SOL    HW1 2233   3.894   2.417   1.345
 3760SOL    HW2 2234   3.796   2.492   1.453
 3793SOL     OW 2235   4.074   2.760   1.804
 3793SOL    HW1 2236   4.150   2.804   1.852
 3793SOL    HW2 2237   4.109   2.713   1.722
 3804SOL     OW 2238   3.913   2.382   1.722
 3804SOL    HW1 2239   3.972   2.342   1.652
 3804SOL    HW2 2240   3.855   2.453   1.681
 3810SOL     OW 2241   3.883   2.999   1.466
 3810SOL    HW1 2242   3.905   2.938   1.542
 3810SOL    HW2 2243   3.893   2.950   1.380
 3831SOL     OW 2244   3.829   2.875   1.726
 3831SOL    HW1 2245   3.752   2.842   1.780
 3831SOL    HW2 2246   3.914   2.845   1.768
 3847SOL     OW 2247   3.945   3.176   1.844
 3847SOL    HW1 2248   3.880   3.103   1.823
 3847SOL    HW2 2249   3.949   3.190   1.942
 3859SOL     OW 2250   3.954   2.490   1.975
 3859SOL    HW1 2251   3.861   2.488   2.012
 3859SOL    HW2 2252   3.955   2.451   1.883
 3860SOL     OW 2253   3.949   2.137   2.858
 3860SOL    HW1 2254   3.984   2.120   2.950
 3860SOL    HW2 2255   3.861   2.092   2.846
 3861SOL     OW 2256   3.743   2.230   2.509
 3861SOL    HW1 2257   3.661   2.273   2.548
 3861SOL    HW2 2258   3.715   2.157   2.446
 3869SOL     OW 2259   4.059   3.297   2.923
 3869SOL    HW1 2260   3.981   3.266   2.870
 3869SOL    HW2 2261   4.117   3.355   2.866
 3870SOL     OW 2262   4.162   2.254   3.361
 3870SOL    HW1 2263   4.244   2.198   3.370
 3870SOL    HW2 2264   4.081   2.196   3.365
 3871SOL     OW 2265   3.955   3.575   2.345
 3871SOL    HW1 2266   3.989   3.652   2.399
 3871SOL    HW2 2267   3.999   3.575   2.255
 3873SOL     OW 2268   3.954   3.296   2.400
 3873SOL    HW1 2269   3.928   3.392   2.400
 3873SOL    HW2 2270   3.883   3.242   2.445
 3874SOL     OW 2271   3.964   2.953   2.748
 3874SOL    HW1 2272   3.978   2.869   2.800
 3874SOL    HW2 2273   3.909   3.017   2.803
 3877SOL     OW 2274   3.846   2.505   2.425
 3877SOL    HW1 2275   3.801   2.417   2.442
 3877SOL    HW2 2276   3.845   2.559   2.509
 3878SOL     OW 2277   3.751   3.458   1.979
 3878SOL    HW1 2278   3.732   3.362   2.000
 3878SOL    HW2 2279   3.718   3.516   2.054
 3880SOL     OW 2280   3.837   2.599   3.459
 3880SOL    HW1 2281   3.925   2.586   3.504
 3880SOL    HW2 2282   3.824   2.696   3.437
 3884SOL     OW 2283   3.921   2.838   3.126
 3884SOL    HW1 2284   4.010   2.793   3.112
 3884SOL    HW2 2285   3.848   2.773   3.107
 3887SOL     OW 2286   4.322   2.591   2.132
 3887SOL    HW1 2287   4.346   2.660   2.064
 3887SOL    HW2 2288   4.244   2.624   2.186
 3894SOL     OW 2289   3.800   2.673   2.651
 3894SOL    HW1 2290   3.899   2.661   2.660
 3894SOL    HW2 2291   3.776   2.768   2.672
 3898SOL     OW 2292   4.274   2.058   2.747
 3898SOL    HW1 2293   4.269   2.053   2.847
 3898SOL    HW2 2294   4.276   2.154   2.718
 3902SOL     OW 2295   4.045   2.805   2.104
 3902SOL    HW1 2296   4.127   2.844   2.062
 3902SOL    HW2 2297   4.018   2.723   2.055
 3905SOL     OW 2298   3.926   2.147   3.360
 3905SOL    HW1 2299   3.846   2.207   3.347
 3905SOL    HW2 2300   3.916   2.098   3.446
 3909SOL     OW 2301   4.106   2.562   2.342
 3909SOL    HW1 2302   4.151   2.472   2.339
 3909SOL    HW2 2303   4.012   2.551   2.375
 3918SOL     OW 2304   4.021   1.897   2.033
 3918SOL    HW1 2305   4.070   1.981   2.012
 3918SOL    HW2 2306   4.083   1.832   2.078
 3922SOL     OW 2307   4.183   3.014   2.603
 3922SOL    HW1 2308   4.112   2.987   2.668
 3922SOL    HW2 2309   4.157   2.986   2.510
 3925SOL     OW 2310   3.802   2.418   3.248
 3925SOL    HW1 2311   3.894   2.417   3.207
 3925SOL    HW2 2312   3.796   2.492   3.315
 3931SOL     OW 2313   4.251   2.118   2.190
 3931SOL    HW1 2314   4.278   2.059   2.115
 3931SOL    HW2 2315   4.251   2.213   2.159
 3937SOL     OW 2316   4.134   2.675   3.113
 3937SOL    HW1 2317   4.220   2.687   3.163
 3937SOL    HW2 2318   4.092   2.588   3.140
 3939SOL     OW 2319   3.788   3.426   3.193
 3939SOL    HW1 2320   3.742   3.508   3.159
 3939SOL    HW2 2321   3.886   3.445   3.202
 3940SOL     OW 2322   4.091   2.962   2.363
 3940SOL    HW1 2323   4.084   3.045   2.307
 3940SOL    HW2 2324   4.095   2.882   2.303
 3941SOL     OW 2325   4.290   2.399   2.727
 3941SOL    HW1 2326   4.302   2.465   2.653
 3941SOL    HW2 2327   4.336   2.433   2.810
 3944SOL     OW 2328   4.078   3.372   3.191
 3944SOL    HW1 2329   4.057   3.328   3.104
 3944SOL    HW2 2330   4.175   3.398   3.194
 3945SOL     OW 2331   4.126   2.613   3.460
 3945SOL    HW1 2332   4.194   2.668   3.413
 3945SOL    HW2 2333   4.166   2.525   3.487
 3948SOL     OW 2334   4.297   2.732   2.891
 3948SOL    HW1 2335   4.341   2.821   2.882
 3948SOL    HW2 2336   4.234   2.732   2.968
 3951SOL     OW 2337   4.031   2.075   3.093
 3951SOL    HW1 2338   4.008   2.112   3.183
 3951SOL    HW2 2339   4.001   1.980   3.087
 3952SOL     OW 2340   3.761   3.172   3.144
 3952SOL    HW1 2341   3.814   3.123   3.212
 3952SOL    HW2 2342   3.783   3.270   3.149
 3954SOL     OW 2343   4.031   1.925   2.480
 3954SOL    HW1 2344   4.020   2.019   2.513
 3954SOL    HW2 2345   4.026   1.862   2.557
 3961SOL     OW 2346   4.043   2.672   2.811
 3961SOL    HW1 2347   4.136   2.708   2.816
 3961SOL    HW2 2348   4.037   2.587   2.863
 3962SOL     OW 2349   4.063   2.371   2.868
 3962SOL    HW1 2350   4.011   2.288   2.851
 3962SOL    HW2 2351   4.140   2.376   2.804
 3965SOL     OW 2352   3.732   3.188   2.062
 3965SOL    HW1 2353   3.639   3.209   2.031
 3965SOL    HW2 2354   3.742   3.089   2.075
 3966SOL     OW 2355   3.812   3.663   2.789
 3966SOL    HW1 2356   3.770   3.577   2.762
 3966SOL    HW2 2357   3.906   3.666   2.755
 3969SOL     OW 2358   3.764   2.406   2.976
 3969SOL    HW1 2359   3.849   2.373   2.935
 3969SOL    HW2 2360   3.777   2.421   3.074
 3970SOL     OW 2361   3.913   2.382   3.584
 3970SOL    HW1 2362   3.972   2.342   3.514
 3970SOL    HW2 2363   3.855   2.453   3.543
 3975SOL     OW 2364   4.197   2.362   2.053
 3975SOL    HW1 2365   4.258   2.442   2.057
 3975SOL    HW2 2366   4.102   2.393   2.060
 3976SOL     OW 2367   3.883   2.999   3.328
 3976SOL    HW1 2368   3.905   2.938   3.404
 3976SOL    HW2 2369   3.893   2.950   3.242
 3980SOL     OW 2370   3.807   3.120   2.884
 3980SOL    HW1 2371   3.802   3.119   2.984
 3980SOL    HW2 2372   3.724   3.079   2.846
 3987SOL     OW 2373   3.987   2.188   2.582
 3987SOL    HW1 2374   3.908   2.239   2.548
 3987SOL    HW2 2375   3.978   2.173   2.680
 3991SOL     OW 2376   4.096   3.150   3.352
 3991SOL    HW1 2377   4.083   3.243   3.318
 3991SOL    HW2 2378   4.012   3.098   3.339
 3995SOL     OW 2379   3.979   3.210   2.152
 3995SOL    HW1 2380   3.883   3.211   2.125
 3995SOL    HW2 2381   3.991   3.263   2.236
 3996SOL     OW 2382   3.829   2.875   3.588
 3996SOL    HW1 2383   3.752   2.842   3.642
 3996SOL    HW2 2384   3.914   2.845   3.630
 3998SOL     OW 2385   3.799   2.207   1.895
 3998SOL    HW1 2386   3.707   2.179   1.866
 3998SOL    HW2 2387   3.830   2.284   1.839
 4000SOL     OW 2388   3.796   2.028   2.180
 4000SOL    HW1 2389   3.779   2.111   2.126
 4000SOL    HW2 2390   3.886   1.991   2.158
 4007SOL     OW 2391   4.318   2.607   2.514
 4007SOL    HW1 2392   4.368   2.692   2.495
 4007SOL    HW2 2393   4.230   2.609   2.466
 4013SOL     OW 2394   3.803   3.102   2.515
 4013SOL    HW1 2395   3.802   3.055   2.603
 4013SOL    HW2 2396   3.885   3.074   2.464
 4015SOL     OW 2397   4.152   2.286   2.382
 4015SOL    HW1 2398   4.182   2.214   2.320
 4015SOL    HW2 2399   4.113   2.246   2.465
 4016SOL     OW 2400   4.041   2.409   3.142
 4016SOL    HW1 2401   4.079   2.350   3.214
 4016SOL    HW2 2402   4.081   2.383   3.054
 4023SOL     OW 2403   3.763   2.939   2.162
 4023SOL    HW1 2404   3.862   2.928   2.153
 4023SOL    HW2 2405   3.723   2.853   2.194
 4133SOL     OW 2406   3.799   2.207   3.757
 4133SOL    HW1 2407   3.707   2.179   3.728
 4133SOL    HW2 2408   3.830   2.284   3.701
   5.16568   5.16568   5.16568
