; mobley_4149784_GMX.itp created by acpype (v: 2023.10.27) on Thu May 21 00:21:31 2026

[ atomtypes ]
;name   bond_type     mass     charge   ptype   sigma         epsilon       Amb
 ca       ca          0.00000  0.00000   A     3.31521e-01   4.13379e-01 ; 1.86  0.0988
 os       os          0.00000  0.00000   A     3.15610e-01   3.03758e-01 ; 1.77  0.0726
 cl       cl          0.00000  0.00000   A     3.46595e-01   1.10374e+00 ; 1.95  0.2638
 ha       ha          0.00000  0.00000   A     2.62548e-01   6.73624e-02 ; 1.47  0.0161

[ moleculetype ]
;name            nrexcl
 mobley_4149784   3

[ atoms ]
;   nr  type  resi  res  atom  cgnr     charge      mass       ; qtot   bond_type
     1   ca     1   MOL    C1    1    -0.173300     12.01000 ; qtot -0.173
     2   ca     1   MOL    C2    2    -0.173300     12.01000 ; qtot -0.347
     3   ca     1   MOL    C3    3    -0.121000     12.01000 ; qtot -0.468
     4   ca     1   MOL    C4    4    -0.121000     12.01000 ; qtot -0.589
     5   ca     1   MOL    C5    5    -0.177300     12.01000 ; qtot -0.766
     6   ca     1   MOL    C6    6    -0.177300     12.01000 ; qtot -0.943
     7   ca     1   MOL    C7    7     0.212700     12.01000 ; qtot -0.731
     8   ca     1   MOL    C8    8     0.212700     12.01000 ; qtot -0.518
     9   ca     1   MOL    C9    9     0.220700     12.01000 ; qtot -0.297
    10   ca     1   MOL   C10   10     0.220700     12.01000 ; qtot -0.076
    11   ca     1   MOL   C11   11     0.018400     12.01000 ; qtot -0.058
    12   ca     1   MOL   C12   12     0.018400     12.01000 ; qtot -0.040
    13   os     1   MOL    O1   13    -0.387800     16.00000 ; qtot -0.427
    14   os     1   MOL    O2   14    -0.387800     16.00000 ; qtot -0.815
    15   cl     1   MOL   CL1   15    -0.080400     35.45000 ; qtot -0.896
    16   cl     1   MOL   CL2   16    -0.080400     35.45000 ; qtot -0.976
    17   ha     1   MOL    H1   17     0.162000      1.00800 ; qtot -0.814
    18   ha     1   MOL    H2   18     0.162000      1.00800 ; qtot -0.652
    19   ha     1   MOL    H3   19     0.156000      1.00800 ; qtot -0.496
    20   ha     1   MOL    H4   20     0.156000      1.00800 ; qtot -0.340
    21   ha     1   MOL    H5   21     0.170000      1.00800 ; qtot -0.170
    22   ha     1   MOL    H6   22     0.170000      1.00800 ; qtot 0.000

[ bonds ]
;   ai     aj funct   r             k
     1      3   1    1.3986e-01    2.9644e+05 ;     C1 - C3    
     1      7   1    1.3986e-01    2.9644e+05 ;     C1 - C7    
     1     17   1    1.0860e-01    3.0183e+05 ;     C1 - H1    
     2      4   1    1.3986e-01    2.9644e+05 ;     C2 - C4    
     2      8   1    1.3986e-01    2.9644e+05 ;     C2 - C8    
     2     18   1    1.0860e-01    3.0183e+05 ;     C2 - H2    
     3     11   1    1.3986e-01    2.9644e+05 ;     C3 - C11   
     3     19   1    1.0860e-01    3.0183e+05 ;     C3 - H3    
     4     12   1    1.3986e-01    2.9644e+05 ;     C4 - C12   
     4     20   1    1.0860e-01    3.0183e+05 ;     C4 - H4    
     5      9   1    1.3986e-01    2.9644e+05 ;     C5 - C9    
     5     11   1    1.3986e-01    2.9644e+05 ;     C5 - C11   
     5     21   1    1.0860e-01    3.0183e+05 ;     C5 - H5    
     6     10   1    1.3986e-01    2.9644e+05 ;     C6 - C10   
     6     12   1    1.3986e-01    2.9644e+05 ;     C6 - C12   
     6     22   1    1.0860e-01    3.0183e+05 ;     C6 - H6    
     7      9   1    1.3986e-01    2.9644e+05 ;     C7 - C9    
     7     13   1    1.3688e-01    2.8731e+05 ;     C7 - O1    
     8     10   1    1.3986e-01    2.9644e+05 ;     C8 - C10   
     8     14   1    1.3688e-01    2.8731e+05 ;     C8 - O2    
     9     14   1    1.3688e-01    2.8731e+05 ;     C9 - O2    
    10     13   1    1.3688e-01    2.8731e+05 ;    C10 - O1    
    11     15   1    1.7572e-01    1.5730e+05 ;    C11 - CL1   
    12     16   1    1.7572e-01    1.5730e+05 ;    C12 - CL2   

[ pairs ]
;   ai     aj    funct
     1      5      1 ;     C1 - C5    
     1     10      1 ;     C1 - C10   
     1     14      1 ;     C1 - O2    
     1     15      1 ;     C1 - CL1   
     2      6      1 ;     C2 - C6    
     2      9      1 ;     C2 - C9    
     2     13      1 ;     C2 - O1    
     2     16      1 ;     C2 - CL2   
     3      9      1 ;     C3 - C9    
     3     13      1 ;     C3 - O1    
     3     21      1 ;     C3 - H5    
     4     10      1 ;     C4 - C10   
     4     14      1 ;     C4 - O2    
     4     22      1 ;     C4 - H6    
     5      8      1 ;     C5 - C8    
     5     13      1 ;     C5 - O1    
     5     19      1 ;     C5 - H3    
     6      7      1 ;     C6 - C7    
     6     14      1 ;     C6 - O2    
     6     20      1 ;     C6 - H4    
     7      8      1 ;     C7 - C8    
     7     11      1 ;     C7 - C11   
     7     19      1 ;     C7 - H3    
     7     21      1 ;     C7 - H5    
     8     12      1 ;     C8 - C12   
     8     20      1 ;     C8 - H4    
     8     22      1 ;     C8 - H6    
     9     10      1 ;     C9 - C10   
     9     15      1 ;     C9 - CL1   
    10     16      1 ;    C10 - CL2   
    10     18      1 ;    C10 - H2    
    11     14      1 ;    C11 - O2    
    12     13      1 ;    C12 - O1    
    12     18      1 ;    C12 - H2    
    13     14      1 ;     O1 - O2    
    13     22      1 ;     O1 - H6    
    14     18      1 ;     O2 - H2    
    14     21      1 ;     O2 - H5    
    15     19      1 ;    CL1 - H3    
    15     21      1 ;    CL1 - H5    
    16     20      1 ;    CL2 - H4    
    16     22      1 ;    CL2 - H6    
    17      9      1 ;     H1 - C9    
    17     11      1 ;     H1 - C11   
    17     13      1 ;     H1 - O1    
    17     19      1 ;     H1 - H3    
    18     20      1 ;     H2 - H4    

[ angles ]
;   ai     aj     ak    funct   theta         cth
     1      3     11      1    1.2002e+02    5.3279e+02 ;     C1 - C3     - C11   
     1      3     19      1    1.1988e+02    3.7572e+02 ;     C1 - C3     - H3    
     1      7      9      1    1.2002e+02    5.3279e+02 ;     C1 - C7     - C9    
     1      7     13      1    1.1911e+02    6.6107e+02 ;     C1 - C7     - O1    
     2      4     12      1    1.2002e+02    5.3279e+02 ;     C2 - C4     - C12   
     2      4     20      1    1.1988e+02    3.7572e+02 ;     C2 - C4     - H4    
     2      8     10      1    1.2002e+02    5.3279e+02 ;     C2 - C8     - C10   
     2      8     14      1    1.1911e+02    6.6107e+02 ;     C2 - C8     - O2    
     3      1      7      1    1.2002e+02    5.3279e+02 ;     C3 - C1     - C7    
     3      1     17      1    1.1988e+02    3.7572e+02 ;     C3 - C1     - H1    
     3     11      5      1    1.2002e+02    5.3279e+02 ;     C3 - C11    - C5    
     3     11     15      1    1.1938e+02    5.3605e+02 ;     C3 - C11    - CL1   
     4      2      8      1    1.2002e+02    5.3279e+02 ;     C4 - C2     - C8    
     4      2     18      1    1.1988e+02    3.7572e+02 ;     C4 - C2     - H2    
     4     12      6      1    1.2002e+02    5.3279e+02 ;     C4 - C12    - C6    
     4     12     16      1    1.1938e+02    5.3605e+02 ;     C4 - C12    - CL2   
     5      9      7      1    1.2002e+02    5.3279e+02 ;     C5 - C9     - C7    
     5      9     14      1    1.1911e+02    6.6107e+02 ;     C5 - C9     - O2    
     5     11     15      1    1.1938e+02    5.3605e+02 ;     C5 - C11    - CL1   
     6     10      8      1    1.2002e+02    5.3279e+02 ;     C6 - C10    - C8    
     6     10     13      1    1.1911e+02    6.6107e+02 ;     C6 - C10    - O1    
     6     12     16      1    1.1938e+02    5.3605e+02 ;     C6 - C12    - CL2   
     7      1     17      1    1.1988e+02    3.7572e+02 ;     C7 - C1     - H1    
     7      9     14      1    1.1911e+02    6.6107e+02 ;     C7 - C9     - O2    
     7     13     10      1    1.1987e+02    7.5036e+02 ;     C7 - O1     - C10   
     8      2     18      1    1.1988e+02    3.7572e+02 ;     C8 - C2     - H2    
     8     10     13      1    1.1911e+02    6.6107e+02 ;     C8 - C10    - O1    
     8     14      9      1    1.1987e+02    7.5036e+02 ;     C8 - O2     - C9    
     9      5     11      1    1.2002e+02    5.3279e+02 ;     C9 - C5     - C11   
     9      5     21      1    1.1988e+02    3.7572e+02 ;     C9 - C5     - H5    
     9      7     13      1    1.1911e+02    6.6107e+02 ;     C9 - C7     - O1    
    10      6     12      1    1.2002e+02    5.3279e+02 ;    C10 - C6     - C12   
    10      6     22      1    1.1988e+02    3.7572e+02 ;    C10 - C6     - H6    
    10      8     14      1    1.1911e+02    6.6107e+02 ;    C10 - C8     - O2    
    11      3     19      1    1.1988e+02    3.7572e+02 ;    C11 - C3     - H3    
    11      5     21      1    1.1988e+02    3.7572e+02 ;    C11 - C5     - H5    
    12      4     20      1    1.1988e+02    3.7572e+02 ;    C12 - C4     - H4    
    12      6     22      1    1.1988e+02    3.7572e+02 ;    C12 - C6     - H6    

[ dihedrals ] ; propers
; for gromacs 4.5 or higher, using funct 9
;    i      j      k      l   func   phase     kd      pn
     1      3     11      5      9   180.00  15.16700   2 ;     C1-    C3-   C11-    C5
     1      3     11     15      9   180.00  15.16700   2 ;     C1-    C3-   C11-   CL1
     1      7      9      5      9   180.00  15.16700   2 ;     C1-    C7-    C9-    C5
     1      7      9     14      9   180.00  15.16700   2 ;     C1-    C7-    C9-    O2
     1      7     13     10      9   180.00   3.76560   2 ;     C1-    C7-    O1-   C10
     2      4     12      6      9   180.00  15.16700   2 ;     C2-    C4-   C12-    C6
     2      4     12     16      9   180.00  15.16700   2 ;     C2-    C4-   C12-   CL2
     2      8     10      6      9   180.00  15.16700   2 ;     C2-    C8-   C10-    C6
     2      8     10     13      9   180.00  15.16700   2 ;     C2-    C8-   C10-    O1
     2      8     14      9      9   180.00   3.76560   2 ;     C2-    C8-    O2-    C9
     3      1      7      9      9   180.00  15.16700   2 ;     C3-    C1-    C7-    C9
     3      1      7     13      9   180.00  15.16700   2 ;     C3-    C1-    C7-    O1
     3     11      5      9      9   180.00  15.16700   2 ;     C3-   C11-    C5-    C9
     3     11      5     21      9   180.00  15.16700   2 ;     C3-   C11-    C5-    H5
     4      2      8     10      9   180.00  15.16700   2 ;     C4-    C2-    C8-   C10
     4      2      8     14      9   180.00  15.16700   2 ;     C4-    C2-    C8-    O2
     4     12      6     10      9   180.00  15.16700   2 ;     C4-   C12-    C6-   C10
     4     12      6     22      9   180.00  15.16700   2 ;     C4-   C12-    C6-    H6
     5      9      7     13      9   180.00  15.16700   2 ;     C5-    C9-    C7-    O1
     5      9     14      8      9   180.00   3.76560   2 ;     C5-    C9-    O2-    C8
     5     11      3     19      9   180.00  15.16700   2 ;     C5-   C11-    C3-    H3
     6     10      8     14      9   180.00  15.16700   2 ;     C6-   C10-    C8-    O2
     6     10     13      7      9   180.00   3.76560   2 ;     C6-   C10-    O1-    C7
     6     12      4     20      9   180.00  15.16700   2 ;     C6-   C12-    C4-    H4
     7      1      3     11      9   180.00  15.16700   2 ;     C7-    C1-    C3-   C11
     7      1      3     19      9   180.00  15.16700   2 ;     C7-    C1-    C3-    H3
     7      9      5     11      9   180.00  15.16700   2 ;     C7-    C9-    C5-   C11
     7      9      5     21      9   180.00  15.16700   2 ;     C7-    C9-    C5-    H5
     7      9     14      8      9   180.00   3.76560   2 ;     C7-    C9-    O2-    C8
     7     13     10      8      9   180.00   3.76560   2 ;     C7-    O1-   C10-    C8
     8      2      4     12      9   180.00  15.16700   2 ;     C8-    C2-    C4-   C12
     8      2      4     20      9   180.00  15.16700   2 ;     C8-    C2-    C4-    H4
     8     10      6     12      9   180.00  15.16700   2 ;     C8-   C10-    C6-   C12
     8     10      6     22      9   180.00  15.16700   2 ;     C8-   C10-    C6-    H6
     9      5     11     15      9   180.00  15.16700   2 ;     C9-    C5-   C11-   CL1
     9      7     13     10      9   180.00   3.76560   2 ;     C9-    C7-    O1-   C10
     9     14      8     10      9   180.00   3.76560   2 ;     C9-    O2-    C8-   C10
    10      6     12     16      9   180.00  15.16700   2 ;    C10-    C6-   C12-   CL2
    10      8      2     18      9   180.00  15.16700   2 ;    C10-    C8-    C2-    H2
    11      5      9     14      9   180.00  15.16700   2 ;    C11-    C5-    C9-    O2
    12      4      2     18      9   180.00  15.16700   2 ;    C12-    C4-    C2-    H2
    12      6     10     13      9   180.00  15.16700   2 ;    C12-    C6-   C10-    O1
    13      7      9     14      9   180.00  15.16700   2 ;     O1-    C7-    C9-    O2
    13     10      6     22      9   180.00  15.16700   2 ;     O1-   C10-    C6-    H6
    13     10      8     14      9   180.00  15.16700   2 ;     O1-   C10-    C8-    O2
    14      8      2     18      9   180.00  15.16700   2 ;     O2-    C8-    C2-    H2
    14      9      5     21      9   180.00  15.16700   2 ;     O2-    C9-    C5-    H5
    15     11      3     19      9   180.00  15.16700   2 ;    CL1-   C11-    C3-    H3
    15     11      5     21      9   180.00  15.16700   2 ;    CL1-   C11-    C5-    H5
    16     12      4     20      9   180.00  15.16700   2 ;    CL2-   C12-    C4-    H4
    16     12      6     22      9   180.00  15.16700   2 ;    CL2-   C12-    C6-    H6
    17      1      3     11      9   180.00  15.16700   2 ;     H1-    C1-    C3-   C11
    17      1      3     19      9   180.00  15.16700   2 ;     H1-    C1-    C3-    H3
    17      1      7      9      9   180.00  15.16700   2 ;     H1-    C1-    C7-    C9
    17      1      7     13      9   180.00  15.16700   2 ;     H1-    C1-    C7-    O1
    18      2      4     20      9   180.00  15.16700   2 ;     H2-    C2-    C4-    H4

[ dihedrals ] ; impropers
; treated as propers in GROMACS to use correct AMBER analytical function
;    i      j      k      l   func   phase     kd      pn
     1      9      7     13      4   180.00   4.60240   2 ;     C1-    C9-    C7-    O1
     1     11      3     19      4   180.00   4.60240   2 ;     C1-   C11-    C3-    H3
     2     10      8     14      4   180.00   4.60240   2 ;     C2-   C10-    C8-    O2
     2     12      4     20      4   180.00   4.60240   2 ;     C2-   C12-    C4-    H4
     3      5     11     15      4   180.00   4.60240   2 ;     C3-    C5-   C11-   CL1
     4      6     12     16      4   180.00   4.60240   2 ;     C4-    C6-   C12-   CL2
     4      8      2     18      4   180.00   4.60240   2 ;     C4-    C8-    C2-    H2
     5      7      9     14      4   180.00   4.60240   2 ;     C5-    C7-    C9-    O2
     6      8     10     13      4   180.00   4.60240   2 ;     C6-    C8-   C10-    O1
     9     11      5     21      4   180.00   4.60240   2 ;     C9-   C11-    C5-    H5
    10     12      6     22      4   180.00   4.60240   2 ;    C10-   C12-    C6-    H6
    17      1      7      3      4   180.00   4.60240   2 ;     H1-    C1-    C7-    C3
