mobley_6060301_GMX.gro created by acpype (v: 2023.10.27) on Tue May 19 12:54:09 2026
 2431
    1MOL     C1    1   2.430   2.120   2.608
    1MOL     C2    2   2.485   2.261   2.589
    1MOL     C3    3   2.416   2.333   2.473
    1MOL     C4    4   2.474   2.474   2.453
    1MOL     C5    5   2.404   2.553   2.343
    1MOL     C6    6   2.463   2.692   2.321
    1MOL     N1    7   2.392   2.762   2.215
    1MOL     H1    8   2.481   2.071   2.691
    1MOL     H2    9   2.323   2.123   2.629
    1MOL     H3   10   2.446   2.060   2.518
    1MOL     H4   11   2.471   2.318   2.682
    1MOL     H5   12   2.593   2.256   2.570
    1MOL     H6   13   2.308   2.340   2.493
    1MOL     H7   14   2.428   2.274   2.382
    1MOL     H8   15   2.581   2.467   2.431
    1MOL     H9   16   2.465   2.530   2.547
    1MOL    H10   17   2.298   2.563   2.371
    1MOL    H11   18   2.406   2.496   2.249
    1MOL    H12   19   2.456   2.751   2.413
    1MOL    H13   20   2.569   2.685   2.294
    1MOL    H14   21   2.294   2.732   2.215
    1MOL    H15   22   2.431   2.734   2.125
   14SOL     OW   23   1.460   1.505   1.339
   14SOL    HW1   24   1.484   1.599   1.365
   14SOL    HW2   25   1.444   1.451   1.421
   35SOL     OW   26   1.187   1.792   1.616
   35SOL    HW1   27   1.211   1.852   1.540
   35SOL    HW2   28   1.194   1.697   1.586
   56SOL     OW   29   1.227   1.550   1.506
   56SOL    HW1   30   1.233   1.473   1.570
   56SOL    HW2   31   1.175   1.524   1.426
   95SOL     OW   32   1.754   1.223   1.588
   95SOL    HW1   33   1.845   1.184   1.575
   95SOL    HW2   34   1.762   1.319   1.612
   97SOL     OW   35   1.592   1.629   1.625
   97SOL    HW1   36   1.619   1.663   1.535
   97SOL    HW2   37   1.671   1.591   1.671
  122SOL     OW   38   1.728   0.935   1.854
  122SOL    HW1   39   1.682   0.928   1.765
  122SOL    HW2   40   1.666   0.979   1.920
  127SOL     OW   41   1.859   1.518   1.605
  127SOL    HW1   42   1.873   1.545   1.510
  127SOL    HW2   43   1.942   1.540   1.658
  152SOL     OW   44   1.759   1.747   1.154
  152SOL    HW1   45   1.820   1.777   1.081
  152SOL    HW2   46   1.721   1.658   1.132
  163SOL     OW   47   1.650   1.720   1.394
  163SOL    HW1   48   1.703   1.730   1.310
  163SOL    HW2   49   1.623   1.810   1.428
  186SOL     OW   50   1.450   1.220   1.633
  186SOL    HW1   51   1.441   1.210   1.732
  186SOL    HW2   52   1.546   1.213   1.607
  203SOL     OW   53   1.705   1.487   1.104
  203SOL    HW1   54   1.612   1.462   1.077
  203SOL    HW2   55   1.731   1.437   1.186
  219SOL     OW   56   1.555   1.511   2.565
  219SOL    HW1   57   1.498   1.495   2.646
  219SOL    HW2   58   1.496   1.521   2.485
  227SOL     OW   59   1.460   1.505   3.201
  227SOL    HW1   60   1.484   1.599   3.227
  227SOL    HW2   61   1.444   1.451   3.283
  238SOL     OW   62   1.842   1.767   2.221
  238SOL    HW1   63   1.896   1.738   2.301
  238SOL    HW2   64   1.872   1.857   2.192
  240SOL     OW   65   1.689   0.922   2.474
  240SOL    HW1   66   1.784   0.893   2.482
  240SOL    HW2   67   1.681   0.987   2.399
  241SOL     OW   68   1.641   1.108   2.294
  241SOL    HW1   69   1.727   1.110   2.242
  241SOL    HW2   70   1.655   1.155   2.382
  247SOL     OW   71   1.525   0.999   2.052
  247SOL    HW1   72   1.462   0.923   2.065
  247SOL    HW2   73   1.573   1.017   2.138
  248SOL     OW   74   1.187   1.792   3.478
  248SOL    HW1   75   1.211   1.852   3.402
  248SOL    HW2   76   1.194   1.697   3.448
  250SOL     OW   77   1.466   1.417   2.815
  250SOL    HW1   78   1.407   1.423   2.895
  250SOL    HW2   79   1.451   1.329   2.769
  251SOL     OW   80   1.667   1.714   2.434
  251SOL    HW1   81   1.626   1.691   2.346
  251SOL    HW2   82   1.649   1.640   2.499
  254SOL     OW   83   1.576   1.662   2.169
  254SOL    HW1   84   1.665   1.708   2.172
  254SOL    HW2   85   1.555   1.638   2.074
  264SOL     OW   86   1.362   1.144   2.407
  264SOL    HW1   87   1.445   1.115   2.359
  264SOL    HW2   88   1.313   1.211   2.351
  266SOL     OW   89   1.008   1.456   2.339
  266SOL    HW1   90   0.962   1.528   2.287
  266SOL    HW2   91   1.004   1.476   2.437
  268SOL     OW   92   1.795   1.066   2.735
  268SOL    HW1   93   1.733   1.051   2.659
  268SOL    HW2   94   1.743   1.077   2.820
  269SOL     OW   95   1.227   1.550   3.368
  269SOL    HW1   96   1.233   1.473   3.432
  269SOL    HW2   97   1.175   1.524   3.288
  273SOL     OW   98   1.111   1.776   2.099
  273SOL    HW1   99   1.051   1.714   2.149
  273SOL    HW2  100   1.142   1.732   2.014
  275SOL     OW  101   1.632   1.377   1.943
  275SOL    HW1  102   1.600   1.471   1.933
  275SOL    HW2  103   1.556   1.314   1.931
  279SOL     OW  104   0.940   1.698   2.766
  279SOL    HW1  105   1.020   1.641   2.787
  279SOL    HW2  106   0.891   1.658   2.689
  289SOL     OW  107   1.434   1.188   1.903
  289SOL    HW1  108   1.466   1.112   1.960
  289SOL    HW2  109   1.342   1.215   1.933
  293SOL     OW  110   1.227   1.570   2.655
  293SOL    HW1  111   1.248   1.644   2.590
  293SOL    HW2  112   1.295   1.570   2.728
  295SOL     OW  113   1.271   1.797   2.453
  295SOL    HW1  114   1.315   1.861   2.389
  295SOL    HW2  115   1.221   1.849   2.523
  301SOL     OW  116   1.429   1.173   2.729
  301SOL    HW1  117   1.374   1.089   2.722
  301SOL    HW2  118   1.455   1.202   2.637
  303SOL     OW  119   1.857   0.833   2.239
  303SOL    HW1  120   1.899   0.769   2.303
  303SOL    HW2  121   1.819   0.782   2.161
  305SOL     OW  122   1.664   1.280   2.519
  305SOL    HW1  123   1.763   1.288   2.533
  305SOL    HW2  124   1.619   1.364   2.550
  308SOL     OW  125   1.754   1.223   3.450
  308SOL    HW1  126   1.845   1.184   3.437
  308SOL    HW2  127   1.762   1.319   3.474
  310SOL     OW  128   1.592   1.629   3.487
  310SOL    HW1  129   1.619   1.663   3.397
  310SOL    HW2  130   1.671   1.591   3.533
  312SOL     OW  131   1.638   1.099   2.941
  312SOL    HW1  132   1.643   1.180   3.000
  312SOL    HW2  133   1.552   1.101   2.890
  321SOL     OW  134   1.252   1.348   2.250
  321SOL    HW1  135   1.302   1.425   2.290
  321SOL    HW2  136   1.157   1.350   2.282
  322SOL     OW  137   1.272   1.445   3.004
  322SOL    HW1  138   1.319   1.458   3.091
  322SOL    HW2  139   1.206   1.371   3.013
  340SOL     OW  140   1.859   1.518   3.467
  340SOL    HW1  141   1.873   1.545   3.372
  340SOL    HW2  142   1.942   1.540   3.520
  344SOL     OW  143   1.068   1.333   2.711
  344SOL    HW1  144   1.075   1.249   2.656
  344SOL    HW2  145   1.130   1.402   2.675
  365SOL     OW  146   1.759   1.747   3.016
  365SOL    HW1  147   1.820   1.777   2.943
  365SOL    HW2  148   1.721   1.658   2.994
  366SOL     OW  149   1.252   1.731   2.990
  366SOL    HW1  150   1.336   1.736   2.936
  366SOL    HW2  151   1.229   1.635   3.008
  370SOL     OW  152   1.388   1.573   2.339
  370SOL    HW1  153   1.455   1.585   2.265
  370SOL    HW2  154   1.348   1.662   2.362
  375SOL     OW  155   1.650   1.720   3.256
  375SOL    HW1  156   1.703   1.730   3.172
  375SOL    HW2  157   1.623   1.810   3.290
  378SOL     OW  158   1.194   1.612   1.893
  378SOL    HW1  159   1.200   1.519   1.930
  378SOL    HW2  160   1.135   1.612   1.813
  381SOL     OW  161   1.504   1.607   1.906
  381SOL    HW1  162   1.412   1.644   1.913
  381SOL    HW2  163   1.542   1.627   1.816
  383SOL     OW  164   1.614   1.292   3.151
  383SOL    HW1  165   1.674   1.295   3.231
  383SOL    HW2  166   1.539   1.356   3.164
  394SOL     OW  167   1.183   1.335   1.981
  394SOL    HW1  168   1.084   1.324   1.983
  394SOL    HW2  169   1.217   1.350   2.074
  396SOL     OW  170   1.493   1.767   2.821
  396SOL    HW1  171   1.526   1.831   2.752
  396SOL    HW2  172   1.559   1.761   2.896
  409SOL     OW  173   1.861   1.569   2.713
  409SOL    HW1  174   1.790   1.557   2.643
  409SOL    HW2  175   1.862   1.490   2.773
  415SOL     OW  176   1.705   1.487   2.966
  415SOL    HW1  177   1.612   1.462   2.939
  415SOL    HW2  178   1.731   1.437   3.048
  426SOL     OW  179   0.875   1.646   2.199
  426SOL    HW1  180   0.798   1.611   2.145
  426SOL    HW2  181   0.843   1.717   2.261
  563SOL     OW  182   0.850   2.660   1.823
  563SOL    HW1  183   0.846   2.736   1.888
  563SOL    HW2  184   0.872   2.696   1.732
  567SOL     OW  185   1.460   3.367   1.339
  567SOL    HW1  186   1.484   3.461   1.365
  567SOL    HW2  187   1.444   3.313   1.421
  571SOL     OW  188   1.127   3.203   1.690
  571SOL    HW1  189   1.174   3.203   1.778
  571SOL    HW2  190   1.079   3.116   1.679
  576SOL     OW  191   1.594   1.976   1.480
  576SOL    HW1  192   1.576   2.043   1.408
  576SOL    HW2  193   1.591   2.022   1.569
  584SOL     OW  194   1.293   3.090   1.423
  584SOL    HW1  195   1.330   3.017   1.365
  584SOL    HW2  196   1.345   3.095   1.508
  596SOL     OW  197   1.394   2.331   1.674
  596SOL    HW1  198   1.374   2.374   1.762
  596SOL    HW2  199   1.472   2.269   1.683
  597SOL     OW  200   0.973   2.752   1.572
  597SOL    HW1  201   1.019   2.668   1.543
  597SOL    HW2  202   0.917   2.786   1.497
  603SOL     OW  203   1.719   2.447   1.831
  603SOL    HW1  204   1.693   2.536   1.795
  603SOL    HW2  205   1.717   2.379   1.758
  608SOL     OW  206   1.795   2.928   0.873
  608SOL    HW1  207   1.733   2.913   0.797
  608SOL    HW2  208   1.743   2.939   0.958
  621SOL     OW  209   1.547   2.084   1.729
  621SOL    HW1  210   1.542   2.121   1.821
  621SOL    HW2  211   1.475   2.015   1.717
  625SOL     OW  212   1.351   2.452   1.433
  625SOL    HW1  213   1.379   2.409   1.518
  625SOL    HW2  214   1.376   2.548   1.434
  631SOL     OW  215   1.076   2.545   1.464
  631SOL    HW1  216   0.996   2.484   1.467
  631SOL    HW2  217   1.157   2.492   1.440
  641SOL     OW  218   1.466   2.452   0.992
  641SOL    HW1  219   1.436   2.357   0.999
  641SOL    HW2  220   1.539   2.468   1.058
  647SOL     OW  221   1.754   3.085   1.588
  647SOL    HW1  222   1.845   3.046   1.575
  647SOL    HW2  223   1.762   3.181   1.612
  649SOL     OW  224   1.592   3.491   1.625
  649SOL    HW1  225   1.619   3.525   1.535
  649SOL    HW2  226   1.671   3.453   1.671
  651SOL     OW  227   1.638   2.961   1.079
  651SOL    HW1  228   1.643   3.042   1.138
  651SOL    HW2  229   1.552   2.963   1.028
  653SOL     OW  230   0.980   2.978   1.719
  653SOL    HW1  231   0.881   2.984   1.729
  653SOL    HW2  232   1.003   2.898   1.663
  656SOL     OW  233   1.274   2.248   1.262
  656SOL    HW1  234   1.295   2.322   1.326
  656SOL    HW2  235   1.185   2.265   1.219
  665SOL     OW  236   1.587   2.641   1.670
  665SOL    HW1  237   1.495   2.679   1.665
  665SOL    HW2  238   1.647   2.688   1.605
  666SOL     OW  239   1.013   1.967   1.770
  666SOL    HW1  240   1.019   2.052   1.718
  666SOL    HW2  241   1.045   1.891   1.713
  669SOL     OW  242   1.360   2.724   1.045
  669SOL    HW1  243   1.285   2.724   0.979
  669SOL    HW2  244   1.397   2.632   1.054
  674SOL     OW  245   1.728   2.797   1.854
  674SOL    HW1  246   1.682   2.790   1.765
  674SOL    HW2  247   1.666   2.841   1.920
  679SOL     OW  248   1.859   3.380   1.605
  679SOL    HW1  249   1.873   3.407   1.510
  679SOL    HW2  250   1.942   3.402   1.658
  686SOL     OW  251   1.138   2.242   1.678
  686SOL    HW1  252   1.093   2.305   1.742
  686SOL    HW2  253   1.231   2.273   1.661
  687SOL     OW  254   1.160   2.069   1.477
  687SOL    HW1  255   1.160   2.133   1.554
  687SOL    HW2  256   1.188   2.117   1.394
  694SOL     OW  257   1.369   2.812   1.660
  694SOL    HW1  258   1.408   2.901   1.680
  694SOL    HW2  259   1.379   2.792   1.563
  696SOL     OW  260   1.657   2.466   1.206
  696SOL    HW1  261   1.619   2.397   1.268
  696SOL    HW2  262   1.739   2.430   1.162
  702SOL     OW  263   1.347   2.921   1.234
  702SOL    HW1  264   1.371   2.858   1.160
  702SOL    HW2  265   1.257   2.961   1.216
  715SOL     OW  266   1.650   3.582   1.394
  715SOL    HW1  267   1.703   3.592   1.310
  715SOL    HW2  268   1.623   3.672   1.428
  716SOL     OW  269   1.841   2.037   0.963
  716SOL    HW1  270   1.880   1.952   0.927
  716SOL    HW2  271   1.743   2.039   0.944
  723SOL     OW  272   1.614   3.154   1.289
  723SOL    HW1  273   1.674   3.157   1.369
  723SOL    HW2  274   1.539   3.218   1.302
  727SOL     OW  275   1.709   2.247   1.381
  727SOL    HW1  276   1.782   2.316   1.385
  727SOL    HW2  277   1.737   2.172   1.322
  732SOL     OW  278   1.440   2.718   1.398
  732SOL    HW1  279   1.383   2.770   1.335
  732SOL    HW2  280   1.536   2.730   1.374
  738SOL     OW  281   1.450   3.082   1.633
  738SOL    HW1  282   1.441   3.072   1.732
  738SOL    HW2  283   1.546   3.075   1.607
  740SOL     OW  284   1.674   2.745   1.254
  740SOL    HW1  285   1.647   2.656   1.217
  740SOL    HW2  286   1.675   2.813   1.181
  743SOL     OW  287   1.777   2.204   1.642
  743SOL    HW1  288   1.760   2.235   1.548
  743SOL    HW2  289   1.693   2.167   1.680
  744SOL     OW  290   1.730   2.796   1.517
  744SOL    HW1  291   1.768   2.887   1.532
  744SOL    HW2  292   1.722   2.779   1.418
  753SOL     OW  293   1.824   2.054   1.227
  753SOL    HW1  294   1.820   1.964   1.271
  753SOL    HW2  295   1.827   2.043   1.128
  755SOL     OW  296   1.705   3.349   1.104
  755SOL    HW1  297   1.612   3.324   1.077
  755SOL    HW2  298   1.731   3.299   1.186
  758SOL     OW  299   1.424   2.076   1.112
  758SOL    HW1  300   1.476   2.011   1.167
  758SOL    HW2  301   1.375   2.139   1.173
  771SOL     OW  302   1.555   3.373   2.565
  771SOL    HW1  303   1.498   3.357   2.646
  771SOL    HW2  304   1.496   3.383   2.485
  772SOL     OW  305   1.135   2.565   2.579
  772SOL    HW1  306   1.192   2.643   2.554
  772SOL    HW2  307   1.075   2.591   2.655
  773SOL     OW  308   1.755   2.469   2.093
  773SOL    HW1  309   1.743   2.456   1.994
  773SOL    HW2  310   1.725   2.388   2.142
  779SOL     OW  311   1.460   3.367   3.201
  779SOL    HW1  312   1.484   3.461   3.227
  779SOL    HW2  313   1.444   3.313   3.283
  781SOL     OW  314   1.603   2.309   2.599
  781SOL    HW1  315   1.529   2.355   2.549
  781SOL    HW2  316   1.654   2.377   2.652
  788SOL     OW  317   1.594   1.976   3.342
  788SOL    HW1  318   1.576   2.043   3.270
  788SOL    HW2  319   1.591   2.022   3.431
  790SOL     OW  320   1.842   3.629   2.221
  790SOL    HW1  321   1.896   3.600   2.301
  790SOL    HW2  322   1.872   3.719   2.192
  792SOL     OW  323   1.689   2.784   2.474
  792SOL    HW1  324   1.784   2.755   2.482
  792SOL    HW2  325   1.681   2.849   2.399
  793SOL     OW  326   1.641   2.970   2.294
  793SOL    HW1  327   1.727   2.972   2.242
  793SOL    HW2  328   1.655   3.017   2.382
  796SOL     OW  329   1.293   3.090   3.285
  796SOL    HW1  330   1.330   3.017   3.227
  796SOL    HW2  331   1.345   3.095   3.370
  797SOL     OW  332   0.809   1.866   2.364
  797SOL    HW1  333   0.849   1.957   2.355
  797SOL    HW2  334   0.709   1.874   2.370
  799SOL     OW  335   1.525   2.861   2.052
  799SOL    HW1  336   1.462   2.785   2.065
  799SOL    HW2  337   1.573   2.879   2.138
  802SOL     OW  338   1.466   3.279   2.815
  802SOL    HW1  339   1.407   3.285   2.895
  802SOL    HW2  340   1.451   3.191   2.769
  803SOL     OW  341   1.667   3.576   2.434
  803SOL    HW1  342   1.626   3.553   2.346
  803SOL    HW2  343   1.649   3.502   2.499
  805SOL     OW  344   1.281   2.207   2.806
  805SOL    HW1  345   1.195   2.157   2.793
  805SOL    HW2  346   1.343   2.153   2.862
  806SOL     OW  347   1.576   3.524   2.169
  806SOL    HW1  348   1.665   3.570   2.172
  806SOL    HW2  349   1.555   3.500   2.074
  808SOL     OW  350   1.394   2.331   3.536
  808SOL    HW1  351   1.374   2.374   3.624
  808SOL    HW2  352   1.472   2.269   3.545
  809SOL     OW  353   0.973   2.752   3.434
  809SOL    HW1  354   1.019   2.668   3.405
  809SOL    HW2  355   0.917   2.786   3.359
  810SOL     OW  356   0.991   2.272   3.104
  810SOL    HW1  357   0.914   2.306   3.158
  810SOL    HW2  358   0.957   2.221   3.025
  811SOL     OW  359   1.041   2.563   2.291
  811SOL    HW1  360   1.067   2.559   2.387
  811SOL    HW2  361   0.956   2.512   2.277
  814SOL     OW  362   0.865   2.210   2.057
  814SOL    HW1  363   0.924   2.273   2.008
  814SOL    HW2  364   0.884   2.116   2.028
  815SOL     OW  365   1.719   2.447   3.693
  815SOL    HW1  366   1.693   2.536   3.657
  815SOL    HW2  367   1.717   2.379   3.620
  816SOL     OW  368   1.362   3.006   2.407
  816SOL    HW1  369   1.445   2.977   2.359
  816SOL    HW2  370   1.313   3.073   2.351
  818SOL     OW  371   1.008   3.318   2.339
  818SOL    HW1  372   0.962   3.390   2.287
  818SOL    HW2  373   1.004   3.338   2.437
  820SOL     OW  374   1.795   2.928   2.735
  820SOL    HW1  375   1.733   2.913   2.659
  820SOL    HW2  376   1.743   2.939   2.820
  823SOL     OW  377   1.458   2.597   2.590
  823SOL    HW1  378   1.453   2.532   2.665
  823SOL    HW2  379   1.538   2.656   2.603
  827SOL     OW  380   1.632   3.239   1.943
  827SOL    HW1  381   1.600   3.333   1.933
  827SOL    HW2  382   1.556   3.176   1.931
  829SOL     OW  383   1.400   1.969   2.288
  829SOL    HW1  384   1.376   1.932   2.198
  829SOL    HW2  385   1.499   1.985   2.292
  833SOL     OW  386   1.547   2.084   3.591
  833SOL    HW1  387   1.542   2.121   3.683
  833SOL    HW2  388   1.475   2.015   3.579
  837SOL     OW  389   1.351   2.452   3.295
  837SOL    HW1  390   1.379   2.409   3.380
  837SOL    HW2  391   1.376   2.548   3.296
  839SOL     OW  392   0.922   2.365   2.761
  839SOL    HW1  393   0.897   2.356   2.665
  839SOL    HW2  394   0.970   2.283   2.792
  841SOL     OW  395   1.434   3.050   1.903
  841SOL    HW1  396   1.466   2.974   1.960
  841SOL    HW2  397   1.342   3.077   1.933
  843SOL     OW  398   0.935   2.098   2.342
  843SOL    HW1  399   0.887   2.139   2.264
  843SOL    HW2  400   1.034   2.096   2.323
  844SOL     OW  401   1.076   2.545   3.326
  844SOL    HW1  402   0.996   2.484   3.329
  844SOL    HW2  403   1.157   2.492   3.302
  845SOL     OW  404   1.227   3.432   2.655
  845SOL    HW1  405   1.248   3.506   2.590
  845SOL    HW2  406   1.295   3.432   2.728
  847SOL     OW  407   1.271   3.659   2.453
  847SOL    HW1  408   1.315   3.723   2.389
  847SOL    HW2  409   1.221   3.711   2.523
  848SOL     OW  410   1.032   2.411   1.878
  848SOL    HW1  411   0.991   2.493   1.839
  848SOL    HW2  412   1.096   2.437   1.951
  851SOL     OW  413   0.866   2.316   2.504
  851SOL    HW1  414   0.834   2.388   2.442
  851SOL    HW2  415   0.890   2.235   2.451
  852SOL     OW  416   1.017   1.901   2.615
  852SOL    HW1  417   0.945   1.906   2.546
  852SOL    HW2  418   0.993   1.832   2.684
  853SOL     OW  419   1.429   3.035   2.729
  853SOL    HW1  420   1.374   2.951   2.722
  853SOL    HW2  421   1.455   3.064   2.637
  854SOL     OW  422   1.466   2.452   2.854
  854SOL    HW1  423   1.436   2.357   2.861
  854SOL    HW2  424   1.539   2.468   2.920
  855SOL     OW  425   1.857   2.695   2.239
  855SOL    HW1  426   1.899   2.631   2.303
  855SOL    HW2  427   1.819   2.644   2.161
  857SOL     OW  428   1.664   3.142   2.519
  857SOL    HW1  429   1.763   3.150   2.533
  857SOL    HW2  430   1.619   3.226   2.550
  858SOL     OW  431   1.390   2.437   1.940
  858SOL    HW1  432   1.336   2.416   2.021
  858SOL    HW2  433   1.481   2.396   1.949
  860SOL     OW  434   1.754   3.085   3.450
  860SOL    HW1  435   1.845   3.046   3.437
  860SOL    HW2  436   1.762   3.181   3.474
  861SOL     OW  437   1.064   3.209   3.202
  861SOL    HW1  438   0.984   3.186   3.257
  861SOL    HW2  439   1.147   3.183   3.251
  862SOL     OW  440   1.592   3.491   3.487
  862SOL    HW1  441   1.619   3.525   3.397
  862SOL    HW2  442   1.671   3.453   3.533
  863SOL     OW  443   1.111   3.057   2.962
  863SOL    HW1  444   1.071   3.101   3.043
  863SOL    HW2  445   1.070   3.094   2.879
  864SOL     OW  446   1.638   2.961   2.941
  864SOL    HW1  447   1.643   3.042   3.000
  864SOL    HW2  448   1.552   2.963   2.890
  865SOL     OW  449   0.915   1.951   3.264
  865SOL    HW1  450   0.940   1.931   3.169
  865SOL    HW2  451   0.987   2.007   3.306
  869SOL     OW  452   1.274   2.248   3.124
  869SOL    HW1  453   1.295   2.322   3.188
  869SOL    HW2  454   1.185   2.265   3.081
  873SOL     OW  455   1.252   3.210   2.250
  873SOL    HW1  456   1.302   3.287   2.290
  873SOL    HW2  457   1.157   3.212   2.282
  874SOL     OW  458   1.272   3.307   3.004
  874SOL    HW1  459   1.319   3.320   3.091
  874SOL    HW2  460   1.206   3.233   3.013
  875SOL     OW  461   1.582   2.501   2.334
  875SOL    HW1  462   1.551   2.562   2.407
  875SOL    HW2  463   1.632   2.553   2.265
  878SOL     OW  464   1.587   2.641   3.532
  878SOL    HW1  465   1.495   2.679   3.527
  878SOL    HW2  466   1.647   2.688   3.467
  882SOL     OW  467   1.360   2.724   2.907
  882SOL    HW1  468   1.285   2.724   2.841
  882SOL    HW2  469   1.397   2.632   2.916
  883SOL     OW  470   1.209   2.387   2.137
  883SOL    HW1  471   1.222   2.303   2.191
  883SOL    HW2  472   1.180   2.461   2.197
  886SOL     OW  473   0.732   2.496   2.926
  886SOL    HW1  474   0.791   2.470   2.850
  886SOL    HW2  475   0.704   2.592   2.915
  887SOL     OW  476   1.728   2.797   3.716
  887SOL    HW1  477   1.682   2.790   3.627
  887SOL    HW2  478   1.666   2.841   3.782
  889SOL     OW  479   1.622   2.229   2.236
  889SOL    HW1  480   1.624   2.153   2.300
  889SOL    HW2  481   1.574   2.306   2.276
  890SOL     OW  482   1.023   2.628   2.828
  890SOL    HW1  483   1.038   2.649   2.924
  890SOL    HW2  484   0.993   2.533   2.819
  892SOL     OW  485   1.859   3.380   3.467
  892SOL    HW1  486   1.873   3.407   3.372
  892SOL    HW2  487   1.942   3.402   3.520
  894SOL     OW  488   1.540   2.136   1.987
  894SOL    HW1  489   1.479   2.061   2.010
  894SOL    HW2  490   1.562   2.188   2.070
  895SOL     OW  491   1.303   2.700   1.904
  895SOL    HW1  492   1.337   2.607   1.919
  895SOL    HW2  493   1.321   2.727   1.809
  896SOL     OW  494   1.068   3.195   2.711
  896SOL    HW1  495   1.075   3.111   2.656
  896SOL    HW2  496   1.130   3.264   2.675
  899SOL     OW  497   1.138   2.242   3.540
  899SOL    HW1  498   1.093   2.305   3.604
  899SOL    HW2  499   1.231   2.273   3.523
  900SOL     OW  500   1.160   2.069   3.339
  900SOL    HW1  501   1.160   2.133   3.416
  900SOL    HW2  502   1.188   2.117   3.256
  904SOL     OW  503   1.002   2.658   3.100
  904SOL    HW1  504   1.043   2.626   3.186
  904SOL    HW2  505   0.906   2.631   3.097
  907SOL     OW  506   1.369   2.812   3.522
  907SOL    HW1  507   1.408   2.901   3.542
  907SOL    HW2  508   1.379   2.792   3.425
  908SOL     OW  509   0.815   2.434   2.187
  908SOL    HW1  510   0.822   2.345   2.141
  908SOL    HW2  511   0.721   2.468   2.179
  909SOL     OW  512   1.657   2.466   3.068
  909SOL    HW1  513   1.619   2.397   3.130
  909SOL    HW2  514   1.739   2.430   3.024
  915SOL     OW  515   1.347   2.921   3.096
  915SOL    HW1  516   1.371   2.858   3.022
  915SOL    HW2  517   1.257   2.961   3.078
  916SOL     OW  518   1.302   2.717   2.171
  916SOL    HW1  519   1.216   2.686   2.213
  916SOL    HW2  520   1.298   2.703   2.072
  917SOL     OW  521   1.759   3.609   3.016
  917SOL    HW1  522   1.820   3.639   2.943
  917SOL    HW2  523   1.721   3.520   2.994
  918SOL     OW  524   1.252   3.593   2.990
  918SOL    HW1  525   1.336   3.598   2.936
  918SOL    HW2  526   1.229   3.497   3.008
  921SOL     OW  527   1.726   1.997   2.385
  921SOL    HW1  528   1.799   1.980   2.318
  921SOL    HW2  529   1.695   1.910   2.423
  922SOL     OW  530   1.388   3.435   2.339
  922SOL    HW1  531   1.455   3.447   2.265
  922SOL    HW2  532   1.348   3.524   2.362
  924SOL     OW  533   1.280   2.789   2.534
  924SOL    HW1  534   1.340   2.708   2.536
  924SOL    HW2  535   1.320   2.858   2.474
  927SOL     OW  536   1.650   3.582   3.256
  927SOL    HW1  537   1.703   3.592   3.172
  927SOL    HW2  538   1.623   3.672   3.290
  928SOL     OW  539   1.841   2.037   2.825
  928SOL    HW1  540   1.880   1.952   2.789
  928SOL    HW2  541   1.743   2.039   2.806
  930SOL     OW  542   1.194   3.474   1.893
  930SOL    HW1  543   1.200   3.381   1.930
  930SOL    HW2  544   1.135   3.474   1.813
  932SOL     OW  545   0.916   2.772   2.153
  932SOL    HW1  546   0.979   2.810   2.085
  932SOL    HW2  547   0.956   2.689   2.192
  933SOL     OW  548   1.504   3.469   1.906
  933SOL    HW1  549   1.412   3.506   1.913
  933SOL    HW2  550   1.542   3.489   1.816
  935SOL     OW  551   1.614   3.154   3.151
  935SOL    HW1  552   1.674   3.157   3.231
  935SOL    HW2  553   1.539   3.218   3.164
  936SOL     OW  554   1.039   2.960   2.558
  936SOL    HW1  555   0.969   2.913   2.612
  936SOL    HW2  556   1.098   2.892   2.515
  937SOL     OW  557   1.014   2.098   2.833
  937SOL    HW1  558   1.006   2.062   2.740
  937SOL    HW2  559   1.012   2.022   2.898
  939SOL     OW  560   1.709   2.247   3.243
  939SOL    HW1  561   1.782   2.316   3.247
  939SOL    HW2  562   1.737   2.172   3.184
  944SOL     OW  563   1.440   2.718   3.260
  944SOL    HW1  564   1.383   2.770   3.197
  944SOL    HW2  565   1.536   2.730   3.236
  946SOL     OW  566   1.183   3.197   1.981
  946SOL    HW1  567   1.084   3.186   1.983
  946SOL    HW2  568   1.217   3.212   2.074
  948SOL     OW  569   1.493   3.629   2.821
  948SOL    HW1  570   1.526   3.693   2.752
  948SOL    HW2  571   1.559   3.623   2.896
  950SOL     OW  572   1.450   3.082   3.495
  950SOL    HW1  573   1.441   3.072   3.594
  950SOL    HW2  574   1.546   3.075   3.469
  952SOL     OW  575   1.674   2.745   3.116
  952SOL    HW1  576   1.647   2.656   3.079
  952SOL    HW2  577   1.675   2.813   3.043
  953SOL     OW  578   1.225   2.187   2.311
  953SOL    HW1  579   1.290   2.113   2.300
  953SOL    HW2  580   1.245   2.237   2.395
  955SOL     OW  581   1.777   2.204   3.504
  955SOL    HW1  582   1.760   2.235   3.410
  955SOL    HW2  583   1.693   2.167   3.542
  956SOL     OW  584   1.730   2.796   3.379
  956SOL    HW1  585   1.768   2.887   3.394
  956SOL    HW2  586   1.722   2.779   3.280
  959SOL     OW  587   0.859   2.818   2.723
  959SOL    HW1  588   0.913   2.749   2.771
  959SOL    HW2  589   0.827   2.887   2.789
  960SOL     OW  590   1.083   2.846   1.949
  960SOL    HW1  591   1.060   2.899   1.867
  960SOL    HW2  592   1.164   2.790   1.930
  961SOL     OW  593   1.861   3.431   2.713
  961SOL    HW1  594   1.790   3.419   2.643
  961SOL    HW2  595   1.862   3.352   2.773
  965SOL     OW  596   1.824   2.054   3.089
  965SOL    HW1  597   1.820   1.964   3.133
  965SOL    HW2  598   1.827   2.043   2.990
  967SOL     OW  599   1.705   3.349   2.966
  967SOL    HW1  600   1.612   3.324   2.939
  967SOL    HW2  601   1.731   3.299   3.048
  970SOL     OW  602   1.424   2.076   2.974
  970SOL    HW1  603   1.476   2.011   3.029
  970SOL    HW2  604   1.375   2.139   3.035
  971SOL     OW  605   1.001   1.896   3.016
  971SOL    HW1  606   0.938   1.824   2.985
  971SOL    HW2  607   1.094   1.860   3.016
  974SOL     OW  608   1.352   1.914   2.030
  974SOL    HW1  609   1.387   1.873   1.946
  974SOL    HW2  610   1.262   1.876   2.050
  975SOL     OW  611   1.300   2.315   2.553
  975SOL    HW1  612   1.241   2.395   2.557
  975SOL    HW2  613   1.315   2.280   2.646
  976SOL     OW  614   1.593   2.083   2.744
  976SOL    HW1  615   1.509   2.082   2.798
  976SOL    HW2  616   1.595   2.166   2.688
  984SOL     OW  617   1.755   2.469   3.955
  984SOL    HW1  618   1.743   2.456   3.856
  984SOL    HW2  619   1.725   2.388   4.004
 1000SOL     OW  620   1.525   2.861   3.914
 1000SOL    HW1  621   1.462   2.785   3.927
 1000SOL    HW2  622   1.573   2.879   4.000
 1017SOL     OW  623   1.632   3.239   3.805
 1017SOL    HW1  624   1.600   3.333   3.795
 1017SOL    HW2  625   1.556   3.176   3.793
 1027SOL     OW  626   1.434   3.050   3.765
 1027SOL    HW1  627   1.466   2.974   3.822
 1027SOL    HW2  628   1.342   3.077   3.795
 1038SOL     OW  629   1.857   2.695   4.101
 1038SOL    HW1  630   1.899   2.631   4.165
 1038SOL    HW2  631   1.819   2.644   4.023
 1041SOL     OW  632   1.390   2.437   3.802
 1041SOL    HW1  633   1.336   2.416   3.883
 1041SOL    HW2  634   1.481   2.396   3.811
 1057SOL     OW  635   1.540   2.136   3.849
 1057SOL    HW1  636   1.479   2.061   3.872
 1057SOL    HW2  637   1.562   2.188   3.932
 1058SOL     OW  638   1.303   2.700   3.766
 1058SOL    HW1  639   1.337   2.607   3.781
 1058SOL    HW2  640   1.321   2.727   3.671
 1274SOL     OW  641   1.400   3.831   2.288
 1274SOL    HW1  642   1.376   3.794   2.198
 1274SOL    HW2  643   1.499   3.847   2.292
 1334SOL     OW  644   1.726   3.859   2.385
 1334SOL    HW1  645   1.799   3.842   2.318
 1334SOL    HW2  646   1.695   3.772   2.423
 1336SOL     OW  647   1.841   3.899   2.825
 1336SOL    HW1  648   1.880   3.814   2.789
 1336SOL    HW2  649   1.743   3.901   2.806
 1357SOL     OW  650   1.824   3.916   3.089
 1357SOL    HW1  651   1.820   3.826   3.133
 1357SOL    HW2  652   1.827   3.905   2.990
 1362SOL     OW  653   1.352   3.776   2.030
 1362SOL    HW1  654   1.387   3.735   1.946
 1362SOL    HW2  655   1.262   3.738   2.050
 1364SOL     OW  656   1.593   3.945   2.744
 1364SOL    HW1  657   1.509   3.944   2.798
 1364SOL    HW2  658   1.595   4.028   2.688
 1449SOL     OW  659   2.431   1.275   1.165
 1449SOL    HW1  660   2.338   1.268   1.128
 1449SOL    HW2  661   2.442   1.364   1.209
 1454SOL     OW  662   2.712   0.798   1.823
 1454SOL    HW1  663   2.708   0.874   1.888
 1454SOL    HW2  664   2.734   0.834   1.732
 1456SOL     OW  665   2.548   1.161   1.803
 1456SOL    HW1  666   2.608   1.240   1.817
 1456SOL    HW2  667   2.462   1.192   1.762
 1457SOL     OW  668   2.197   1.435   1.061
 1457SOL    HW1  669   2.119   1.404   1.008
 1457SOL    HW2  670   2.255   1.493   1.004
 1458SOL     OW  671   3.322   1.505   1.339
 1458SOL    HW1  672   3.346   1.599   1.365
 1458SOL    HW2  673   3.306   1.451   1.421
 1462SOL     OW  674   2.989   1.341   1.690
 1462SOL    HW1  675   3.036   1.341   1.778
 1462SOL    HW2  676   2.941   1.254   1.679
 1465SOL     OW  677   2.482   1.786   1.439
 1465SOL    HW1  678   2.390   1.769   1.474
 1465SOL    HW2  679   2.510   1.878   1.465
 1475SOL     OW  680   3.155   1.228   1.423
 1475SOL    HW1  681   3.192   1.155   1.365
 1475SOL    HW2  682   3.207   1.233   1.508
 1479SOL     OW  683   3.049   1.792   1.616
 1479SOL    HW1  684   3.073   1.852   1.540
 1479SOL    HW2  685   3.056   1.697   1.586
 1492SOL     OW  686   1.992   1.821   1.571
 1492SOL    HW1  687   1.982   1.806   1.670
 1492SOL    HW2  688   1.906   1.857   1.535
 1498SOL     OW  689   2.213   1.801   0.853
 1498SOL    HW1  690   2.263   1.715   0.859
 1498SOL    HW2  691   2.278   1.878   0.850
 1500SOL     OW  692   3.089   1.550   1.506
 1500SOL    HW1  693   3.095   1.473   1.570
 1500SOL    HW2  694   3.037   1.524   1.426
 1503SOL     OW  695   2.323   1.266   1.727
 1503SOL    HW1  696   2.273   1.267   1.641
 1503SOL    HW2  697   2.260   1.248   1.803
 1509SOL     OW  698   2.111   1.785   1.241
 1509SOL    HW1  699   2.168   1.720   1.291
 1509SOL    HW2  700   2.095   1.752   1.148
 1510SOL     OW  701   2.802   1.698   0.904
 1510SOL    HW1  702   2.882   1.641   0.925
 1510SOL    HW2  703   2.753   1.658   0.827
 1515SOL     OW  704   2.750   1.514   1.195
 1515SOL    HW1  705   2.727   1.489   1.101
 1515SOL    HW2  706   2.811   1.445   1.234
 1540SOL     OW  707   2.926   1.347   1.340
 1540SOL    HW1  708   2.846   1.324   1.395
 1540SOL    HW2  709   3.009   1.321   1.389
 1541SOL     OW  710   3.454   1.629   1.625
 1541SOL    HW1  711   3.481   1.663   1.535
 1541SOL    HW2  712   3.533   1.591   1.671
 1545SOL     OW  713   2.842   1.116   1.719
 1545SOL    HW1  714   2.743   1.122   1.729
 1545SOL    HW2  715   2.865   1.036   1.663
 1549SOL     OW  716   1.926   1.564   1.331
 1549SOL    HW1  717   1.880   1.646   1.297
 1549SOL    HW2  718   2.024   1.583   1.340
 1553SOL     OW  719   3.134   1.445   1.142
 1553SOL    HW1  720   3.181   1.458   1.229
 1553SOL    HW2  721   3.068   1.371   1.151
 1555SOL     OW  722   2.216   1.510   1.329
 1555SOL    HW1  723   2.195   1.466   1.242
 1555SOL    HW2  724   2.313   1.536   1.332
 1564SOL     OW  725   1.899   1.310   1.282
 1564SOL    HW1  726   1.952   1.261   1.350
 1564SOL    HW2  727   1.921   1.408   1.287
 1570SOL     OW  728   2.842   1.573   1.700
 1570SOL    HW1  729   2.822   1.617   1.612
 1570SOL    HW2  730   2.881   1.482   1.684
 1571SOL     OW  731   3.721   1.518   1.605
 1571SOL    HW1  732   3.735   1.545   1.510
 1571SOL    HW2  733   3.804   1.540   1.658
 1572SOL     OW  734   2.212   0.898   1.804
 1572SOL    HW1  735   2.288   0.942   1.852
 1572SOL    HW2  736   2.247   0.851   1.722
 1581SOL     OW  737   1.950   1.801   0.927
 1581SOL    HW1  738   1.908   1.715   0.900
 1581SOL    HW2  739   2.044   1.804   0.893
 1582SOL     OW  740   2.366   1.568   0.910
 1582SOL    HW1  741   2.432   1.642   0.919
 1582SOL    HW2  742   2.410   1.489   0.868
 1589SOL     OW  743   2.114   1.564   1.744
 1589SOL    HW1  744   2.084   1.621   1.820
 1589SOL    HW2  745   2.107   1.467   1.770
 1591SOL     OW  746   2.792   1.678   1.465
 1591SOL    HW1  747   2.768   1.660   1.370
 1591SOL    HW2  748   2.822   1.772   1.475
 1593SOL     OW  749   2.021   1.137   1.466
 1593SOL    HW1  750   2.043   1.076   1.542
 1593SOL    HW2  751   2.031   1.088   1.380
 1597SOL     OW  752   3.114   1.731   1.128
 1597SOL    HW1  753   3.198   1.736   1.074
 1597SOL    HW2  754   3.091   1.635   1.146
 1599SOL     OW  755   2.550   1.662   1.716
 1599SOL    HW1  756   2.494   1.743   1.725
 1599SOL    HW2  757   2.602   1.666   1.630
 1603SOL     OW  758   1.992   1.794   1.851
 1603SOL    HW1  759   1.951   1.720   1.904
 1603SOL    HW2  760   2.056   1.845   1.909
 1605SOL     OW  761   2.692   1.273   1.422
 1605SOL    HW1  762   2.687   1.306   1.517
 1605SOL    HW2  763   2.606   1.292   1.376
 1607SOL     OW  764   3.512   1.720   1.394
 1607SOL    HW1  765   3.565   1.730   1.310
 1607SOL    HW2  766   3.485   1.810   1.428
 1614SOL     OW  767   2.234   1.288   1.490
 1614SOL    HW1  768   2.221   1.381   1.456
 1614SOL    HW2  769   2.150   1.236   1.477
 1621SOL     OW  770   1.967   1.013   1.726
 1621SOL    HW1  771   1.890   0.980   1.780
 1621SOL    HW2  772   2.052   0.983   1.768
 1629SOL     OW  773   3.312   1.220   1.633
 1629SOL    HW1  774   3.303   1.210   1.732
 1629SOL    HW2  775   3.408   1.213   1.607
 1630SOL     OW  776   2.252   1.741   1.560
 1630SOL    HW1  777   2.161   1.782   1.558
 1630SOL    HW2  778   2.245   1.647   1.592
 1637SOL     OW  779   2.523   1.790   0.953
 1637SOL    HW1  780   2.477   1.878   0.940
 1637SOL    HW2  781   2.622   1.802   0.946
 1641SOL     OW  782   2.083   1.314   1.844
 1641SOL    HW1  783   2.018   1.241   1.823
 1641SOL    HW2  784   2.087   1.328   1.942
 1643SOL     OW  785   2.534   1.391   1.624
 1643SOL    HW1  786   2.456   1.341   1.662
 1643SOL    HW2  787   2.531   1.486   1.655
 1652SOL     OW  788   2.480   1.567   1.284
 1652SOL    HW1  789   2.475   1.649   1.341
 1652SOL    HW2  790   2.569   1.564   1.239
 1661SOL     OW  791   2.431   1.275   3.027
 1661SOL    HW1  792   2.338   1.268   2.990
 1661SOL    HW2  793   2.442   1.364   3.071
 1662SOL     OW  794   3.417   1.511   2.565
 1662SOL    HW1  795   3.360   1.495   2.646
 1662SOL    HW2  796   3.358   1.521   2.485
 1665SOL     OW  797   2.630   1.144   2.885
 1665SOL    HW1  798   2.552   1.161   2.945
 1665SOL    HW2  799   2.664   1.231   2.849
 1667SOL     OW  800   2.547   1.012   2.527
 1667SOL    HW1  801   2.616   0.996   2.597
 1667SOL    HW2  802   2.474   1.069   2.565
 1668SOL     OW  803   2.548   1.161   3.665
 1668SOL    HW1  804   2.608   1.240   3.679
 1668SOL    HW2  805   2.462   1.192   3.624
 1669SOL     OW  806   2.197   1.435   2.923
 1669SOL    HW1  807   2.119   1.404   2.870
 1669SOL    HW2  808   2.255   1.493   2.866
 1670SOL     OW  809   3.322   1.505   3.201
 1670SOL    HW1  810   3.346   1.599   3.227
 1670SOL    HW2  811   3.306   1.451   3.283
 1673SOL     OW  812   2.093   1.713   2.345
 1673SOL    HW1  813   2.127   1.790   2.399
 1673SOL    HW2  814   2.137   1.713   2.255
 1674SOL     OW  815   2.989   1.341   3.552
 1674SOL    HW1  816   3.036   1.341   3.640
 1674SOL    HW2  817   2.941   1.254   3.541
 1675SOL     OW  818   2.092   1.434   2.400
 1675SOL    HW1  819   2.066   1.530   2.400
 1675SOL    HW2  820   2.021   1.380   2.445
 1676SOL     OW  821   2.102   1.091   2.748
 1676SOL    HW1  822   2.116   1.007   2.800
 1676SOL    HW2  823   2.047   1.155   2.803
 1677SOL     OW  824   2.482   1.786   3.301
 1677SOL    HW1  825   2.390   1.769   3.336
 1677SOL    HW2  826   2.510   1.878   3.327
 1678SOL     OW  827   2.468   0.964   1.985
 1678SOL    HW1  828   2.475   1.048   1.931
 1678SOL    HW2  829   2.514   0.977   2.073
 1681SOL     OW  830   3.704   1.767   2.221
 1681SOL    HW1  831   3.758   1.738   2.301
 1681SOL    HW2  832   3.734   1.857   2.192
 1682SOL     OW  833   1.889   1.596   1.979
 1682SOL    HW1  834   1.870   1.500   2.000
 1682SOL    HW2  835   1.856   1.654   2.054
 1684SOL     OW  836   3.503   1.108   2.294
 1684SOL    HW1  837   3.589   1.110   2.242
 1684SOL    HW2  838   3.517   1.155   2.382
 1686SOL     OW  839   2.475   1.365   2.588
 1686SOL    HW1  840   2.426   1.278   2.597
 1686SOL    HW2  841   2.452   1.408   2.501
 1687SOL     OW  842   3.155   1.228   3.285
 1687SOL    HW1  843   3.192   1.155   3.227
 1687SOL    HW2  844   3.207   1.233   3.370
 1689SOL     OW  845   2.059   0.976   3.126
 1689SOL    HW1  846   2.148   0.931   3.112
 1689SOL    HW2  847   1.986   0.911   3.107
 1690SOL     OW  848   3.387   0.999   2.052
 1690SOL    HW1  849   3.324   0.923   2.065
 1690SOL    HW2  850   3.435   1.017   2.138
 1691SOL     OW  851   3.049   1.792   3.478
 1691SOL    HW1  852   3.073   1.852   3.402
 1691SOL    HW2  853   3.056   1.697   3.448
 1693SOL     OW  854   3.328   1.417   2.815
 1693SOL    HW1  855   3.269   1.423   2.895
 1693SOL    HW2  856   3.313   1.329   2.769
 1694SOL     OW  857   3.529   1.714   2.434
 1694SOL    HW1  858   3.488   1.691   2.346
 1694SOL    HW2  859   3.511   1.640   2.499
 1695SOL     OW  860   2.460   0.729   2.132
 1695SOL    HW1  861   2.484   0.798   2.064
 1695SOL    HW2  862   2.382   0.762   2.186
 1697SOL     OW  863   3.438   1.662   2.169
 1697SOL    HW1  864   3.527   1.708   2.172
 1697SOL    HW2  865   3.417   1.638   2.074
 1703SOL     OW  866   1.938   0.811   2.651
 1703SOL    HW1  867   2.037   0.799   2.660
 1703SOL    HW2  868   1.914   0.906   2.672
 1704SOL     OW  869   1.992   1.821   3.433
 1704SOL    HW1  870   1.982   1.806   3.532
 1704SOL    HW2  871   1.906   1.857   3.397
 1707SOL     OW  872   3.224   1.144   2.407
 1707SOL    HW1  873   3.307   1.115   2.359
 1707SOL    HW2  874   3.175   1.211   2.351
 1709SOL     OW  875   2.870   1.456   2.339
 1709SOL    HW1  876   2.824   1.528   2.287
 1709SOL    HW2  877   2.866   1.476   2.437
 1710SOL     OW  878   2.213   1.801   2.715
 1710SOL    HW1  879   2.263   1.715   2.721
 1710SOL    HW2  880   2.278   1.878   2.712
 1712SOL     OW  881   3.089   1.550   3.368
 1712SOL    HW1  882   3.095   1.473   3.432
 1712SOL    HW2  883   3.037   1.524   3.288
 1713SOL     OW  884   2.183   0.943   2.104
 1713SOL    HW1  885   2.265   0.982   2.062
 1713SOL    HW2  886   2.156   0.861   2.055
 1715SOL     OW  887   2.323   1.266   3.589
 1715SOL    HW1  888   2.273   1.267   3.503
 1715SOL    HW2  889   2.260   1.248   3.665
 1716SOL     OW  890   2.973   1.776   2.099
 1716SOL    HW1  891   2.913   1.714   2.149
 1716SOL    HW2  892   3.004   1.732   2.014
 1718SOL     OW  893   3.494   1.377   1.943
 1718SOL    HW1  894   3.462   1.471   1.933
 1718SOL    HW2  895   3.418   1.314   1.931
 1719SOL     OW  896   2.326   1.743   2.185
 1719SOL    HW1  897   2.359   1.782   2.271
 1719SOL    HW2  898   2.402   1.736   2.120
 1721SOL     OW  899   2.111   1.785   3.103
 1721SOL    HW1  900   2.168   1.720   3.153
 1721SOL    HW2  901   2.095   1.752   3.010
 1722SOL     OW  902   2.802   1.698   2.766
 1722SOL    HW1  903   2.882   1.641   2.787
 1722SOL    HW2  904   2.753   1.658   2.689
 1723SOL     OW  905   2.244   0.700   2.342
 1723SOL    HW1  906   2.289   0.610   2.339
 1723SOL    HW2  907   2.150   0.689   2.375
 1727SOL     OW  908   2.750   1.514   3.057
 1727SOL    HW1  909   2.727   1.489   2.963
 1727SOL    HW2  910   2.811   1.445   3.096
 1729SOL     OW  911   2.665   1.402   2.786
 1729SOL    HW1  912   2.755   1.416   2.744
 1729SOL    HW2  913   2.594   1.404   2.715
 1732SOL     OW  914   3.296   1.188   1.903
 1732SOL    HW1  915   3.328   1.112   1.960
 1732SOL    HW2  916   3.204   1.215   1.933
 1736SOL     OW  917   3.089   1.570   2.655
 1736SOL    HW1  918   3.110   1.644   2.590
 1736SOL    HW2  919   3.157   1.570   2.728
 1737SOL     OW  920   2.321   1.152   2.603
 1737SOL    HW1  921   2.250   1.125   2.668
 1737SOL    HW2  922   2.295   1.124   2.510
 1738SOL     OW  923   3.133   1.797   2.453
 1738SOL    HW1  924   3.177   1.861   2.389
 1738SOL    HW2  925   3.083   1.849   2.523
 1744SOL     OW  926   3.291   1.173   2.729
 1744SOL    HW1  927   3.236   1.089   2.722
 1744SOL    HW2  928   3.317   1.202   2.637
 1747SOL     OW  929   2.350   1.385   2.036
 1747SOL    HW1  930   2.263   1.370   2.083
 1747SOL    HW2  931   2.333   1.411   1.941
 1748SOL     OW  932   3.526   1.280   2.519
 1748SOL    HW1  933   3.625   1.288   2.533
 1748SOL    HW2  934   3.481   1.364   2.550
 1752SOL     OW  935   2.926   1.347   3.202
 1752SOL    HW1  936   2.846   1.324   3.257
 1752SOL    HW2  937   3.009   1.321   3.251
 1753SOL     OW  938   3.454   1.629   3.487
 1753SOL    HW1  939   3.481   1.663   3.397
 1753SOL    HW2  940   3.533   1.591   3.533
 1754SOL     OW  941   2.973   1.195   2.962
 1754SOL    HW1  942   2.933   1.239   3.043
 1754SOL    HW2  943   2.932   1.232   2.879
 1755SOL     OW  944   3.500   1.099   2.941
 1755SOL    HW1  945   3.505   1.180   3.000
 1755SOL    HW2  946   3.414   1.101   2.890
 1757SOL     OW  947   2.842   1.116   3.581
 1757SOL    HW1  948   2.743   1.122   3.591
 1757SOL    HW2  949   2.865   1.036   3.525
 1758SOL     OW  950   2.567   1.050   2.230
 1758SOL    HW1  951   2.553   1.057   2.329
 1758SOL    HW2  952   2.651   0.999   2.212
 1759SOL     OW  953   2.272   0.813   3.113
 1759SOL    HW1  954   2.358   0.825   3.163
 1759SOL    HW2  955   2.230   0.726   3.140
 1761SOL     OW  956   1.926   1.564   3.193
 1761SOL    HW1  957   1.880   1.646   3.159
 1761SOL    HW2  958   2.024   1.583   3.202
 1762SOL     OW  959   2.229   1.100   2.363
 1762SOL    HW1  960   2.222   1.183   2.307
 1762SOL    HW2  961   2.233   1.020   2.303
 1764SOL     OW  962   3.114   1.348   2.250
 1764SOL    HW1  963   3.164   1.425   2.290
 1764SOL    HW2  964   3.019   1.350   2.282
 1765SOL     OW  965   3.134   1.445   3.004
 1765SOL    HW1  966   3.181   1.458   3.091
 1765SOL    HW2  967   3.068   1.371   3.013
 1767SOL     OW  968   2.216   1.510   3.191
 1767SOL    HW1  969   2.195   1.466   3.104
 1767SOL    HW2  970   2.313   1.536   3.194
 1772SOL     OW  971   2.435   0.870   2.891
 1772SOL    HW1  972   2.479   0.959   2.882
 1772SOL    HW2  973   2.372   0.870   2.968
 1776SOL     OW  974   1.899   1.310   3.144
 1776SOL    HW1  975   1.952   1.261   3.212
 1776SOL    HW2  976   1.921   1.408   3.149
 1781SOL     OW  977   2.885   0.766   2.828
 1781SOL    HW1  978   2.900   0.787   2.924
 1781SOL    HW2  979   2.855   0.671   2.819
 1782SOL     OW  980   2.842   1.573   3.562
 1782SOL    HW1  981   2.822   1.617   3.474
 1782SOL    HW2  982   2.881   1.482   3.546
 1787SOL     OW  983   2.930   1.333   2.711
 1787SOL    HW1  984   2.937   1.249   2.656
 1787SOL    HW2  985   2.992   1.402   2.675
 1788SOL     OW  986   2.181   0.810   2.811
 1788SOL    HW1  987   2.274   0.846   2.816
 1788SOL    HW2  988   2.175   0.725   2.863
 1792SOL     OW  989   1.870   1.326   2.062
 1792SOL    HW1  990   1.777   1.347   2.031
 1792SOL    HW2  991   1.880   1.227   2.075
 1793SOL     OW  992   1.950   1.801   2.789
 1793SOL    HW1  993   1.908   1.715   2.762
 1793SOL    HW2  994   2.044   1.804   2.755
 1794SOL     OW  995   2.366   1.568   2.772
 1794SOL    HW1  996   2.432   1.642   2.781
 1794SOL    HW2  997   2.410   1.489   2.730
 1801SOL     OW  998   2.114   1.564   3.606
 1801SOL    HW1  999   2.084   1.621   3.682
 1801SOL    HW2 1000   2.107   1.467   3.632
 1803SOL     OW 1001   2.792   1.678   3.327
 1803SOL    HW1 1002   2.768   1.660   3.232
 1803SOL    HW2 1003   2.822   1.772   3.337
 1805SOL     OW 1004   2.021   1.137   3.328
 1805SOL    HW1 1005   2.043   1.076   3.404
 1805SOL    HW2 1006   2.031   1.088   3.242
 1806SOL     OW 1007   3.209   1.059   3.096
 1806SOL    HW1 1008   3.233   0.996   3.022
 1806SOL    HW2 1009   3.119   1.099   3.078
 1807SOL     OW 1010   3.164   0.855   2.171
 1807SOL    HW1 1011   3.078   0.824   2.213
 1807SOL    HW2 1012   3.160   0.841   2.072
 1808SOL     OW 1013   3.621   1.747   3.016
 1808SOL    HW1 1014   3.682   1.777   2.943
 1808SOL    HW2 1015   3.583   1.658   2.994
 1809SOL     OW 1016   3.114   1.731   2.990
 1809SOL    HW1 1017   3.198   1.736   2.936
 1809SOL    HW2 1018   3.091   1.635   3.008
 1810SOL     OW 1019   1.945   1.258   2.884
 1810SOL    HW1 1020   1.940   1.257   2.984
 1810SOL    HW2 1021   1.862   1.217   2.846
 1811SOL     OW 1022   2.550   1.662   3.578
 1811SOL    HW1 1023   2.494   1.743   3.587
 1811SOL    HW2 1024   2.602   1.666   3.492
 1813SOL     OW 1025   3.250   1.573   2.339
 1813SOL    HW1 1026   3.317   1.585   2.265
 1813SOL    HW2 1027   3.210   1.662   2.362
 1814SOL     OW 1028   1.992   1.794   3.713
 1814SOL    HW1 1029   1.951   1.720   3.766
 1814SOL    HW2 1030   2.056   1.845   3.771
 1815SOL     OW 1031   3.142   0.927   2.534
 1815SOL    HW1 1032   3.202   0.846   2.536
 1815SOL    HW2 1033   3.182   0.996   2.474
 1816SOL     OW 1034   2.692   1.273   3.284
 1816SOL    HW1 1035   2.687   1.306   3.379
 1816SOL    HW2 1036   2.606   1.292   3.238
 1817SOL     OW 1037   2.534   1.616   2.016
 1817SOL    HW1 1038   2.543   1.626   1.917
 1817SOL    HW2 1039   2.494   1.527   2.037
 1818SOL     OW 1040   3.512   1.720   3.256
 1818SOL    HW1 1041   3.565   1.730   3.172
 1818SOL    HW2 1042   3.485   1.810   3.290
 1821SOL     OW 1043   3.056   1.612   1.893
 1821SOL    HW1 1044   3.062   1.519   1.930
 1821SOL    HW2 1045   2.997   1.612   1.813
 1822SOL     OW 1046   2.684   1.002   3.234
 1822SOL    HW1 1047   2.724   1.001   3.142
 1822SOL    HW2 1048   2.694   1.094   3.274
 1823SOL     OW 1049   2.778   0.910   2.153
 1823SOL    HW1 1050   2.841   0.948   2.085
 1823SOL    HW2 1051   2.818   0.827   2.192
 1824SOL     OW 1052   3.366   1.607   1.906
 1824SOL    HW1 1053   3.274   1.644   1.913
 1824SOL    HW2 1054   3.404   1.627   1.816
 1825SOL     OW 1055   2.234   1.288   3.352
 1825SOL    HW1 1056   2.221   1.381   3.318
 1825SOL    HW2 1057   2.150   1.236   3.339
 1826SOL     OW 1058   3.476   1.292   3.151
 1826SOL    HW1 1059   3.536   1.295   3.231
 1826SOL    HW2 1060   3.401   1.356   3.164
 1827SOL     OW 1061   2.901   1.098   2.558
 1827SOL    HW1 1062   2.831   1.051   2.612
 1827SOL    HW2 1063   2.960   1.030   2.515
 1829SOL     OW 1064   2.452   1.487   2.353
 1829SOL    HW1 1065   2.494   1.429   2.283
 1829SOL    HW2 1066   2.408   1.566   2.309
 1831SOL     OW 1067   2.117   1.348   2.152
 1831SOL    HW1 1068   2.021   1.349   2.125
 1831SOL    HW2 1069   2.129   1.401   2.236
 1837SOL     OW 1070   3.045   1.335   1.981
 1837SOL    HW1 1071   2.946   1.324   1.983
 1837SOL    HW2 1072   3.079   1.350   2.074
 1839SOL     OW 1073   3.355   1.767   2.821
 1839SOL    HW1 1074   3.388   1.831   2.752
 1839SOL    HW2 1075   3.421   1.761   2.896
 1842SOL     OW 1076   2.252   1.741   3.422
 1842SOL    HW1 1077   2.161   1.782   3.420
 1842SOL    HW2 1078   2.245   1.647   3.454
 1845SOL     OW 1079   2.456   0.745   2.514
 1845SOL    HW1 1080   2.506   0.830   2.495
 1845SOL    HW2 1081   2.368   0.747   2.466
 1848SOL     OW 1082   2.721   1.374   1.878
 1848SOL    HW1 1083   2.675   1.389   1.966
 1848SOL    HW2 1084   2.765   1.459   1.848
 1849SOL     OW 1085   2.523   1.790   2.815
 1849SOL    HW1 1086   2.477   1.878   2.802
 1849SOL    HW2 1087   2.622   1.802   2.808
 1850SOL     OW 1088   2.721   0.956   2.723
 1850SOL    HW1 1089   2.775   0.887   2.771
 1850SOL    HW2 1090   2.689   1.025   2.789
 1851SOL     OW 1091   2.945   0.984   1.949
 1851SOL    HW1 1092   2.922   1.037   1.867
 1851SOL    HW2 1093   3.026   0.928   1.930
 1852SOL     OW 1094   3.723   1.569   2.713
 1852SOL    HW1 1095   3.652   1.557   2.643
 1852SOL    HW2 1096   3.724   1.490   2.773
 1853SOL     OW 1097   2.083   1.314   3.706
 1853SOL    HW1 1098   2.018   1.241   3.685
 1853SOL    HW2 1099   2.087   1.328   3.804
 1854SOL     OW 1100   1.941   1.240   2.515
 1854SOL    HW1 1101   1.940   1.193   2.603
 1854SOL    HW2 1102   2.023   1.212   2.464
 1855SOL     OW 1103   2.534   1.391   3.486
 1855SOL    HW1 1104   2.456   1.341   3.524
 1855SOL    HW2 1105   2.531   1.486   3.517
 1858SOL     OW 1106   3.567   1.487   2.966
 1858SOL    HW1 1107   3.474   1.462   2.939
 1858SOL    HW2 1108   3.593   1.437   3.048
 1860SOL     OW 1109   2.674   1.586   2.549
 1860SOL    HW1 1110   2.706   1.596   2.455
 1860SOL    HW2 1111   2.595   1.524   2.551
 1863SOL     OW 1112   2.632   1.330   2.163
 1863SOL    HW1 1113   2.586   1.243   2.180
 1863SOL    HW2 1114   2.723   1.327   2.204
 1864SOL     OW 1115   2.480   1.567   3.146
 1864SOL    HW1 1116   2.475   1.649   3.203
 1864SOL    HW2 1117   2.569   1.564   3.101
 1868SOL     OW 1118   1.901   1.077   2.162
 1868SOL    HW1 1119   2.000   1.066   2.153
 1868SOL    HW2 1120   1.861   0.991   2.194
 1869SOL     OW 1121   2.737   1.646   2.199
 1869SOL    HW1 1122   2.660   1.611   2.145
 1869SOL    HW2 1123   2.705   1.717   2.261
 1886SOL     OW 1124   1.889   1.596   3.841
 1886SOL    HW1 1125   1.870   1.500   3.862
 1886SOL    HW2 1126   1.856   1.654   3.916
 1907SOL     OW 1127   2.973   1.776   3.961
 1907SOL    HW1 1128   2.913   1.714   4.011
 1907SOL    HW2 1129   3.004   1.732   3.876
 1909SOL     OW 1130   2.326   1.743   4.047
 1909SOL    HW1 1131   2.359   1.782   4.133
 1909SOL    HW2 1132   2.402   1.736   3.982
 1966SOL     OW 1133   2.534   1.616   3.878
 1966SOL    HW1 1134   2.543   1.626   3.779
 1966SOL    HW2 1135   2.494   1.527   3.899
 1969SOL     OW 1136   3.056   1.612   3.755
 1969SOL    HW1 1137   3.062   1.519   3.792
 1969SOL    HW2 1138   2.997   1.612   3.675
 1983SOL     OW 1139   2.721   1.374   3.740
 1983SOL    HW1 1140   2.675   1.389   3.828
 1983SOL    HW2 1141   2.765   1.459   3.710
 2000SOL     OW 1142   2.087   2.137   0.996
 2000SOL    HW1 1143   2.122   2.120   1.088
 2000SOL    HW2 1144   1.999   2.092   0.984
 2002SOL     OW 1145   2.431   3.137   1.165
 2002SOL    HW1 1146   2.338   3.130   1.128
 2002SOL    HW2 1147   2.442   3.226   1.209
 2006SOL     OW 1148   2.630   3.006   1.023
 2006SOL    HW1 1149   2.552   3.023   1.083
 2006SOL    HW2 1150   2.664   3.093   0.987
 2007SOL     OW 1151   2.712   2.660   1.823
 2007SOL    HW1 1152   2.708   2.736   1.888
 2007SOL    HW2 1153   2.734   2.696   1.732
 2009SOL     OW 1154   2.548   3.023   1.803
 2009SOL    HW1 1155   2.608   3.102   1.817
 2009SOL    HW2 1156   2.462   3.054   1.762
 2010SOL     OW 1157   2.197   3.297   1.061
 2010SOL    HW1 1158   2.119   3.266   1.008
 2010SOL    HW2 1159   2.255   3.355   1.004
 2011SOL     OW 1160   3.322   3.367   1.339
 2011SOL    HW1 1161   3.346   3.461   1.365
 2011SOL    HW2 1162   3.306   3.313   1.421
 2012SOL     OW 1163   2.300   2.254   1.499
 2012SOL    HW1 1164   2.382   2.198   1.508
 2012SOL    HW2 1165   2.219   2.196   1.503
 2015SOL     OW 1166   2.989   3.203   1.690
 2015SOL    HW1 1167   3.036   3.203   1.778
 2015SOL    HW2 1168   2.941   3.116   1.679
 2017SOL     OW 1169   2.102   2.953   0.886
 2017SOL    HW1 1170   2.116   2.869   0.938
 2017SOL    HW2 1171   2.047   3.017   0.941
 2018SOL     OW 1172   2.482   3.648   1.439
 2018SOL    HW1 1173   2.390   3.631   1.474
 2018SOL    HW2 1174   2.510   3.740   1.465
 2020SOL     OW 1175   3.456   1.976   1.480
 2020SOL    HW1 1176   3.438   2.043   1.408
 2020SOL    HW2 1177   3.453   2.022   1.569
 2026SOL     OW 1178   1.975   2.599   1.597
 2026SOL    HW1 1179   2.063   2.586   1.642
 2026SOL    HW2 1180   1.962   2.696   1.575
 2028SOL     OW 1181   3.155   3.090   1.423
 2028SOL    HW1 1182   3.192   3.017   1.365
 2028SOL    HW2 1183   3.207   3.095   1.508
 2030SOL     OW 1184   2.059   2.838   1.264
 2030SOL    HW1 1185   2.148   2.793   1.250
 2030SOL    HW2 1186   1.986   2.773   1.245
 2032SOL     OW 1187   3.049   3.654   1.616
 2032SOL    HW1 1188   3.073   3.714   1.540
 2032SOL    HW2 1189   3.056   3.559   1.586
 2033SOL     OW 1190   2.179   2.113   1.801
 2033SOL    HW1 1191   2.250   2.184   1.807
 2033SOL    HW2 1192   2.091   2.152   1.829
 2037SOL     OW 1193   3.143   2.207   0.944
 2037SOL    HW1 1194   3.057   2.157   0.931
 2037SOL    HW2 1195   3.205   2.153   1.000
 2039SOL     OW 1196   2.669   2.467   1.465
 2039SOL    HW1 1197   2.622   2.464   1.554
 2039SOL    HW2 1198   2.618   2.412   1.399
 2040SOL     OW 1199   3.256   2.331   1.674
 2040SOL    HW1 1200   3.236   2.374   1.762
 2040SOL    HW2 1201   3.334   2.269   1.683
 2041SOL     OW 1202   2.835   2.752   1.572
 2041SOL    HW1 1203   2.881   2.668   1.543
 2041SOL    HW2 1204   2.779   2.786   1.497
 2042SOL     OW 1205   2.853   2.272   1.242
 2042SOL    HW1 1206   2.776   2.306   1.296
 2042SOL    HW2 1207   2.819   2.221   1.163
 2044SOL     OW 1208   1.938   2.673   0.789
 2044SOL    HW1 1209   2.037   2.661   0.798
 2044SOL    HW2 1210   1.914   2.768   0.810
 2045SOL     OW 1211   1.992   3.683   1.571
 2045SOL    HW1 1212   1.982   3.668   1.670
 2045SOL    HW2 1213   1.906   3.719   1.535
 2047SOL     OW 1214   3.581   2.447   1.831
 2047SOL    HW1 1215   3.555   2.536   1.795
 2047SOL    HW2 1216   3.579   2.379   1.758
 2049SOL     OW 1217   2.412   2.058   0.885
 2049SOL    HW1 1218   2.407   2.053   0.985
 2049SOL    HW2 1219   2.414   2.154   0.856
 2053SOL     OW 1220   3.089   3.412   1.506
 2053SOL    HW1 1221   3.095   3.335   1.570
 2053SOL    HW2 1222   3.037   3.386   1.426
 2056SOL     OW 1223   2.323   3.128   1.727
 2056SOL    HW1 1224   2.273   3.129   1.641
 2056SOL    HW2 1225   2.260   3.110   1.803
 2058SOL     OW 1226   2.064   2.147   1.498
 2058SOL    HW1 1227   1.984   2.207   1.485
 2058SOL    HW2 1228   2.054   2.098   1.584
 2062SOL     OW 1229   2.111   3.647   1.241
 2062SOL    HW1 1230   2.168   3.582   1.291
 2062SOL    HW2 1231   2.095   3.614   1.148
 2065SOL     OW 1232   3.409   2.084   1.729
 2065SOL    HW1 1233   3.404   2.121   1.821
 2065SOL    HW2 1234   3.337   2.015   1.717
 2067SOL     OW 1235   2.643   2.126   1.749
 2067SOL    HW1 1236   2.710   2.065   1.792
 2067SOL    HW2 1237   2.570   2.145   1.814
 2068SOL     OW 1238   2.750   3.376   1.195
 2068SOL    HW1 1239   2.727   3.351   1.101
 2068SOL    HW2 1240   2.811   3.307   1.234
 2069SOL     OW 1241   3.213   2.452   1.433
 2069SOL    HW1 1242   3.241   2.409   1.518
 2069SOL    HW2 1243   3.238   2.548   1.434
 2070SOL     OW 1244   2.665   3.264   0.924
 2070SOL    HW1 1245   2.755   3.278   0.882
 2070SOL    HW2 1246   2.594   3.266   0.853
 2071SOL     OW 1247   2.784   2.365   0.899
 2071SOL    HW1 1248   2.759   2.356   0.803
 2071SOL    HW2 1249   2.832   2.283   0.930
 2075SOL     OW 1250   2.938   2.545   1.464
 2075SOL    HW1 1251   2.858   2.484   1.467
 2075SOL    HW2 1252   3.019   2.492   1.440
 2077SOL     OW 1253   2.321   3.014   0.741
 2077SOL    HW1 1254   2.250   2.987   0.806
 2077SOL    HW2 1255   2.295   2.986   0.648
 2080SOL     OW 1256   1.940   2.418   1.386
 2080SOL    HW1 1257   2.032   2.417   1.345
 2080SOL    HW2 1258   1.934   2.492   1.453
 2081SOL     OW 1259   2.423   2.084   1.147
 2081SOL    HW1 1260   2.461   2.000   1.184
 2081SOL    HW2 1261   2.335   2.103   1.191
 2085SOL     OW 1262   3.328   2.452   0.992
 2085SOL    HW1 1263   3.298   2.357   0.999
 2085SOL    HW2 1264   3.401   2.468   1.058
 2091SOL     OW 1265   3.616   3.085   1.588
 2091SOL    HW1 1266   3.707   3.046   1.575
 2091SOL    HW2 1267   3.624   3.181   1.612
 2092SOL     OW 1268   2.926   3.209   1.340
 2092SOL    HW1 1269   2.846   3.186   1.395
 2092SOL    HW2 1270   3.009   3.183   1.389
 2093SOL     OW 1271   3.454   3.491   1.625
 2093SOL    HW1 1272   3.481   3.525   1.535
 2093SOL    HW2 1273   3.533   3.453   1.671
 2094SOL     OW 1274   2.973   3.057   1.100
 2094SOL    HW1 1275   2.933   3.101   1.181
 2094SOL    HW2 1276   2.932   3.094   1.017
 2096SOL     OW 1277   2.777   1.951   1.402
 2096SOL    HW1 1278   2.802   1.931   1.307
 2096SOL    HW2 1279   2.849   2.007   1.444
 2097SOL     OW 1280   2.842   2.978   1.719
 2097SOL    HW1 1281   2.743   2.984   1.729
 2097SOL    HW2 1282   2.865   2.898   1.663
 2099SOL     OW 1283   2.272   2.675   1.251
 2099SOL    HW1 1284   2.358   2.687   1.301
 2099SOL    HW2 1285   2.230   2.588   1.278
 2100SOL     OW 1286   3.136   2.248   1.262
 2100SOL    HW1 1287   3.157   2.322   1.326
 2100SOL    HW2 1288   3.047   2.265   1.219
 2101SOL     OW 1289   1.926   3.426   1.331
 2101SOL    HW1 1290   1.880   3.508   1.297
 2101SOL    HW2 1291   2.024   3.445   1.340
 2103SOL     OW 1292   2.428   2.399   0.865
 2103SOL    HW1 1293   2.440   2.465   0.791
 2103SOL    HW2 1294   2.474   2.433   0.948
 2105SOL     OW 1295   3.134   3.307   1.142
 2105SOL    HW1 1296   3.181   3.320   1.229
 2105SOL    HW2 1297   3.068   3.233   1.151
 2107SOL     OW 1298   2.216   3.372   1.329
 2107SOL    HW1 1299   2.195   3.328   1.242
 2107SOL    HW2 1300   2.313   3.398   1.332
 2108SOL     OW 1301   2.264   2.613   1.598
 2108SOL    HW1 1302   2.332   2.668   1.551
 2108SOL    HW2 1303   2.304   2.525   1.625
 2109SOL     OW 1304   3.449   2.641   1.670
 2109SOL    HW1 1305   3.357   2.679   1.665
 2109SOL    HW2 1306   3.509   2.688   1.605
 2110SOL     OW 1307   2.875   1.967   1.770
 2110SOL    HW1 1308   2.881   2.052   1.718
 2110SOL    HW2 1309   2.907   1.891   1.713
 2111SOL     OW 1310   2.366   1.912   1.740
 2111SOL    HW1 1311   2.324   1.855   1.670
 2111SOL    HW2 1312   2.300   1.981   1.772
 2112SOL     OW 1313   2.435   2.732   1.029
 2112SOL    HW1 1314   2.479   2.821   1.020
 2112SOL    HW2 1315   2.372   2.732   1.106
 2113SOL     OW 1316   3.222   2.724   1.045
 2113SOL    HW1 1317   3.147   2.724   0.979
 2113SOL    HW2 1318   3.259   2.632   1.054
 2115SOL     OW 1319   2.169   2.075   1.231
 2115SOL    HW1 1320   2.146   2.112   1.321
 2115SOL    HW2 1321   2.139   1.980   1.225
 2116SOL     OW 1322   1.899   3.172   1.282
 2116SOL    HW1 1323   1.952   3.123   1.350
 2116SOL    HW2 1324   1.921   3.270   1.287
 2117SOL     OW 1325   2.594   2.496   1.064
 2117SOL    HW1 1326   2.653   2.470   0.988
 2117SOL    HW2 1327   2.566   2.592   1.053
 2118SOL     OW 1328   3.590   2.797   1.854
 2118SOL    HW1 1329   3.544   2.790   1.765
 2118SOL    HW2 1330   3.528   2.841   1.920
 2121SOL     OW 1331   2.885   2.628   0.966
 2121SOL    HW1 1332   2.900   2.649   1.062
 2121SOL    HW2 1333   2.855   2.533   0.957
 2122SOL     OW 1334   2.842   3.435   1.700
 2122SOL    HW1 1335   2.822   3.479   1.612
 2122SOL    HW2 1336   2.881   3.344   1.684
 2123SOL     OW 1337   3.721   3.380   1.605
 2123SOL    HW1 1338   3.735   3.407   1.510
 2123SOL    HW2 1339   3.804   3.402   1.658
 2124SOL     OW 1340   2.212   2.760   1.804
 2124SOL    HW1 1341   2.288   2.804   1.852
 2124SOL    HW2 1342   2.247   2.713   1.722
 2128SOL     OW 1343   2.181   2.672   0.949
 2128SOL    HW1 1344   2.274   2.708   0.954
 2128SOL    HW2 1345   2.175   2.587   1.001
 2129SOL     OW 1346   2.201   2.371   1.006
 2129SOL    HW1 1347   2.149   2.288   0.989
 2129SOL    HW2 1348   2.278   2.376   0.942
 2130SOL     OW 1349   3.000   2.242   1.678
 2130SOL    HW1 1350   2.955   2.305   1.742
 2130SOL    HW2 1351   3.093   2.273   1.661
 2131SOL     OW 1352   3.022   2.069   1.477
 2131SOL    HW1 1353   3.022   2.133   1.554
 2131SOL    HW2 1354   3.050   2.117   1.394
 2135SOL     OW 1355   2.864   2.658   1.238
 2135SOL    HW1 1356   2.905   2.626   1.324
 2135SOL    HW2 1357   2.768   2.631   1.235
 2136SOL     OW 1358   1.902   2.406   1.114
 2136SOL    HW1 1359   1.987   2.373   1.073
 2136SOL    HW2 1360   1.915   2.421   1.212
 2137SOL     OW 1361   2.051   2.382   1.722
 2137SOL    HW1 1362   2.110   2.342   1.652
 2137SOL    HW2 1363   1.993   2.453   1.681
 2138SOL     OW 1364   3.231   2.812   1.660
 2138SOL    HW1 1365   3.270   2.901   1.680
 2138SOL    HW2 1366   3.241   2.792   1.563
 2140SOL     OW 1367   3.519   2.466   1.206
 2140SOL    HW1 1368   3.481   2.397   1.268
 2140SOL    HW2 1369   3.601   2.430   1.162
 2141SOL     OW 1370   2.114   3.426   1.744
 2141SOL    HW1 1371   2.084   3.483   1.820
 2141SOL    HW2 1372   2.107   3.329   1.770
 2142SOL     OW 1373   2.533   2.326   1.269
 2142SOL    HW1 1374   2.499   2.237   1.239
 2142SOL    HW2 1375   2.559   2.380   1.189
 2143SOL     OW 1376   2.792   3.540   1.465
 2143SOL    HW1 1377   2.768   3.522   1.370
 2143SOL    HW2 1378   2.822   3.634   1.475
 2145SOL     OW 1379   2.021   2.999   1.466
 2145SOL    HW1 1380   2.043   2.938   1.542
 2145SOL    HW2 1381   2.031   2.950   1.380
 2146SOL     OW 1382   3.209   2.921   1.234
 2146SOL    HW1 1383   3.233   2.858   1.160
 2146SOL    HW2 1384   3.119   2.961   1.216
 2150SOL     OW 1385   1.945   3.120   1.022
 2150SOL    HW1 1386   1.940   3.119   1.122
 2150SOL    HW2 1387   1.862   3.079   0.984
 2151SOL     OW 1388   2.550   3.524   1.716
 2151SOL    HW1 1389   2.494   3.605   1.725
 2151SOL    HW2 1390   2.602   3.528   1.630
 2155SOL     OW 1391   1.992   3.656   1.851
 2155SOL    HW1 1392   1.951   3.582   1.904
 2155SOL    HW2 1393   2.056   3.707   1.909
 2157SOL     OW 1394   2.692   3.135   1.422
 2157SOL    HW1 1395   2.687   3.168   1.517
 2157SOL    HW2 1396   2.606   3.154   1.376
 2161SOL     OW 1397   2.125   2.188   0.720
 2161SOL    HW1 1398   2.046   2.239   0.686
 2161SOL    HW2 1399   2.116   2.173   0.818
 2163SOL     OW 1400   2.684   2.864   1.372
 2163SOL    HW1 1401   2.724   2.863   1.280
 2163SOL    HW2 1402   2.694   2.956   1.412
 2166SOL     OW 1403   2.234   3.150   1.490
 2166SOL    HW1 1404   2.221   3.243   1.456
 2166SOL    HW2 1405   2.150   3.098   1.477
 2167SOL     OW 1406   3.476   3.154   1.289
 2167SOL    HW1 1407   3.536   3.157   1.369
 2167SOL    HW2 1408   3.401   3.218   1.302
 2169SOL     OW 1409   2.876   2.098   0.971
 2169SOL    HW1 1410   2.868   2.062   0.878
 2169SOL    HW2 1411   2.874   2.022   1.036
 2171SOL     OW 1412   3.571   2.247   1.381
 2171SOL    HW1 1413   3.644   2.316   1.385
 2171SOL    HW2 1414   3.599   2.172   1.322
 2173SOL     OW 1415   1.967   2.875   1.726
 2173SOL    HW1 1416   1.890   2.842   1.780
 2173SOL    HW2 1417   2.052   2.845   1.768
 2174SOL     OW 1418   2.534   2.065   1.489
 2174SOL    HW1 1419   2.624   2.049   1.449
 2174SOL    HW2 1420   2.542   2.070   1.588
 2175SOL     OW 1421   3.302   2.718   1.398
 2175SOL    HW1 1422   3.245   2.770   1.335
 2175SOL    HW2 1423   3.398   2.730   1.374
 2178SOL     OW 1424   2.475   2.704   1.431
 2178SOL    HW1 1425   2.531   2.785   1.414
 2178SOL    HW2 1426   2.534   2.624   1.434
 2180SOL     OW 1427   2.578   2.427   1.708
 2180SOL    HW1 1428   2.597   2.492   1.782
 2180SOL    HW2 1429   2.638   2.347   1.717
 2181SOL     OW 1430   3.312   3.082   1.633
 2181SOL    HW1 1431   3.303   3.072   1.732
 2181SOL    HW2 1432   3.408   3.075   1.607
 2182SOL     OW 1433   2.252   3.603   1.560
 2182SOL    HW1 1434   2.161   3.644   1.558
 2182SOL    HW2 1435   2.245   3.509   1.592
 2183SOL     OW 1436   3.536   2.745   1.254
 2183SOL    HW1 1437   3.509   2.656   1.217
 2183SOL    HW2 1438   3.537   2.813   1.181
 2185SOL     OW 1439   2.456   2.607   0.652
 2185SOL    HW1 1440   2.506   2.692   0.633
 2185SOL    HW2 1441   2.368   2.609   0.604
 2186SOL     OW 1442   3.639   2.204   1.642
 2186SOL    HW1 1443   3.622   2.235   1.548
 2186SOL    HW2 1444   3.555   2.167   1.680
 2187SOL     OW 1445   3.592   2.796   1.517
 2187SOL    HW1 1446   3.630   2.887   1.532
 2187SOL    HW2 1447   3.584   2.779   1.418
 2190SOL     OW 1448   2.721   2.818   0.861
 2190SOL    HW1 1449   2.775   2.749   0.909
 2190SOL    HW2 1450   2.689   2.887   0.927
 2193SOL     OW 1451   2.083   3.176   1.844
 2193SOL    HW1 1452   2.018   3.103   1.823
 2193SOL    HW2 1453   2.087   3.190   1.942
 2195SOL     OW 1454   2.534   3.253   1.624
 2195SOL    HW1 1455   2.456   3.203   1.662
 2195SOL    HW2 1456   2.531   3.348   1.655
 2196SOL     OW 1457   3.686   2.054   1.227
 2196SOL    HW1 1458   3.682   1.964   1.271
 2196SOL    HW2 1459   3.689   2.043   1.128
 2199SOL     OW 1460   2.179   2.409   1.280
 2199SOL    HW1 1461   2.217   2.350   1.352
 2199SOL    HW2 1462   2.219   2.383   1.192
 2201SOL     OW 1463   3.286   2.076   1.112
 2201SOL    HW1 1464   3.338   2.011   1.167
 2201SOL    HW2 1465   3.237   2.139   1.173
 2202SOL     OW 1466   2.863   1.896   1.154
 2202SOL    HW1 1467   2.800   1.824   1.123
 2202SOL    HW2 1468   2.956   1.860   1.154
 2204SOL     OW 1469   2.480   3.429   1.284
 2204SOL    HW1 1470   2.475   3.511   1.341
 2204SOL    HW2 1471   2.569   3.426   1.239
 2210SOL     OW 1472   2.092   2.490   1.975
 2210SOL    HW1 1473   1.999   2.488   2.012
 2210SOL    HW2 1474   2.093   2.451   1.883
 2211SOL     OW 1475   2.087   2.137   2.858
 2211SOL    HW1 1476   2.122   2.120   2.950
 2211SOL    HW2 1477   1.999   2.092   2.846
 2212SOL     OW 1478   1.881   2.230   2.509
 2212SOL    HW1 1479   1.799   2.273   2.548
 2212SOL    HW2 1480   1.853   2.157   2.446
 2213SOL     OW 1481   2.431   3.137   3.027
 2213SOL    HW1 1482   2.338   3.130   2.990
 2213SOL    HW2 1483   2.442   3.226   3.071
 2214SOL     OW 1484   3.417   3.373   2.565
 2214SOL    HW1 1485   3.360   3.357   2.646
 2214SOL    HW2 1486   3.358   3.383   2.485
 2215SOL     OW 1487   2.997   2.565   2.579
 2215SOL    HW1 1488   3.054   2.643   2.554
 2215SOL    HW2 1489   2.937   2.591   2.655
 2216SOL     OW 1490   3.617   2.469   2.093
 2216SOL    HW1 1491   3.605   2.456   1.994
 2216SOL    HW2 1492   3.587   2.388   2.142
 2217SOL     OW 1493   2.630   3.006   2.885
 2217SOL    HW1 1494   2.552   3.023   2.945
 2217SOL    HW2 1495   2.664   3.093   2.849
 2218SOL     OW 1496   2.712   2.660   3.685
 2218SOL    HW1 1497   2.708   2.736   3.750
 2218SOL    HW2 1498   2.734   2.696   3.594
 2219SOL     OW 1499   2.547   2.874   2.527
 2219SOL    HW1 1500   2.616   2.858   2.597
 2219SOL    HW2 1501   2.474   2.931   2.565
 2220SOL     OW 1502   2.548   3.023   3.665
 2220SOL    HW1 1503   2.608   3.102   3.679
 2220SOL    HW2 1504   2.462   3.054   3.624
 2221SOL     OW 1505   2.197   3.297   2.923
 2221SOL    HW1 1506   2.119   3.266   2.870
 2221SOL    HW2 1507   2.255   3.355   2.866
 2222SOL     OW 1508   3.322   3.367   3.201
 2222SOL    HW1 1509   3.346   3.461   3.227
 2222SOL    HW2 1510   3.306   3.313   3.283
 2223SOL     OW 1511   2.300   2.254   3.361
 2223SOL    HW1 1512   2.382   2.198   3.370
 2223SOL    HW2 1513   2.219   2.196   3.365
 2224SOL     OW 1514   3.465   2.309   2.599
 2224SOL    HW1 1515   3.391   2.355   2.549
 2224SOL    HW2 1516   3.516   2.377   2.652
 2225SOL     OW 1517   2.093   3.575   2.345
 2225SOL    HW1 1518   2.127   3.652   2.399
 2225SOL    HW2 1519   2.137   3.575   2.255
 2226SOL     OW 1520   2.989   3.203   3.552
 2226SOL    HW1 1521   3.036   3.203   3.640
 2226SOL    HW2 1522   2.941   3.116   3.541
 2227SOL     OW 1523   2.092   3.296   2.400
 2227SOL    HW1 1524   2.066   3.392   2.400
 2227SOL    HW2 1525   2.021   3.242   2.445
 2228SOL     OW 1526   2.102   2.953   2.748
 2228SOL    HW1 1527   2.116   2.869   2.800
 2228SOL    HW2 1528   2.047   3.017   2.803
 2229SOL     OW 1529   2.482   3.648   3.301
 2229SOL    HW1 1530   2.390   3.631   3.336
 2229SOL    HW2 1531   2.510   3.740   3.327
 2230SOL     OW 1532   2.468   2.826   1.985
 2230SOL    HW1 1533   2.475   2.910   1.931
 2230SOL    HW2 1534   2.514   2.839   2.073
 2231SOL     OW 1535   3.456   1.976   3.342
 2231SOL    HW1 1536   3.438   2.043   3.270
 2231SOL    HW2 1537   3.453   2.022   3.431
 2232SOL     OW 1538   1.984   2.505   2.425
 2232SOL    HW1 1539   1.939   2.417   2.442
 2232SOL    HW2 1540   1.983   2.559   2.509
 2233SOL     OW 1541   3.704   3.629   2.221
 2233SOL    HW1 1542   3.758   3.600   2.301
 2233SOL    HW2 1543   3.734   3.719   2.192
 2234SOL     OW 1544   1.889   3.458   1.979
 2234SOL    HW1 1545   1.870   3.362   2.000
 2234SOL    HW2 1546   1.856   3.516   2.054
 2235SOL     OW 1547   3.551   2.784   2.474
 2235SOL    HW1 1548   3.646   2.755   2.482
 2235SOL    HW2 1549   3.543   2.849   2.399
 2236SOL     OW 1550   3.503   2.970   2.294
 2236SOL    HW1 1551   3.589   2.972   2.242
 2236SOL    HW2 1552   3.517   3.017   2.382
 2237SOL     OW 1553   1.975   2.599   3.459
 2237SOL    HW1 1554   2.063   2.586   3.504
 2237SOL    HW2 1555   1.962   2.696   3.437
 2238SOL     OW 1556   2.475   3.227   2.588
 2238SOL    HW1 1557   2.426   3.140   2.597
 2238SOL    HW2 1558   2.452   3.270   2.501
 2239SOL     OW 1559   3.155   3.090   3.285
 2239SOL    HW1 1560   3.192   3.017   3.227
 2239SOL    HW2 1561   3.207   3.095   3.370
 2240SOL     OW 1562   2.671   1.866   2.364
 2240SOL    HW1 1563   2.711   1.957   2.355
 2240SOL    HW2 1564   2.571   1.874   2.370
 2241SOL     OW 1565   2.059   2.838   3.126
 2241SOL    HW1 1566   2.148   2.793   3.112
 2241SOL    HW2 1567   1.986   2.773   3.107
 2242SOL     OW 1568   3.387   2.861   2.052
 2242SOL    HW1 1569   3.324   2.785   2.065
 2242SOL    HW2 1570   3.435   2.879   2.138
 2243SOL     OW 1571   3.049   3.654   3.478
 2243SOL    HW1 1572   3.073   3.714   3.402
 2243SOL    HW2 1573   3.056   3.559   3.448
 2244SOL     OW 1574   2.179   2.113   3.663
 2244SOL    HW1 1575   2.250   2.184   3.669
 2244SOL    HW2 1576   2.091   2.152   3.691
 2245SOL     OW 1577   3.328   3.279   2.815
 2245SOL    HW1 1578   3.269   3.285   2.895
 2245SOL    HW2 1579   3.313   3.191   2.769
 2246SOL     OW 1580   3.529   3.576   2.434
 2246SOL    HW1 1581   3.488   3.553   2.346
 2246SOL    HW2 1582   3.511   3.502   2.499
 2247SOL     OW 1583   3.143   2.207   2.806
 2247SOL    HW1 1584   3.057   2.157   2.793
 2247SOL    HW2 1585   3.205   2.153   2.862
 2248SOL     OW 1586   3.438   3.524   2.169
 2248SOL    HW1 1587   3.527   3.570   2.172
 2248SOL    HW2 1588   3.417   3.500   2.074
 2249SOL     OW 1589   2.669   2.467   3.327
 2249SOL    HW1 1590   2.622   2.464   3.416
 2249SOL    HW2 1591   2.618   2.412   3.261
 2250SOL     OW 1592   3.256   2.331   3.536
 2250SOL    HW1 1593   3.236   2.374   3.624
 2250SOL    HW2 1594   3.334   2.269   3.545
 2251SOL     OW 1595   2.835   2.752   3.434
 2251SOL    HW1 1596   2.881   2.668   3.405
 2251SOL    HW2 1597   2.779   2.786   3.359
 2252SOL     OW 1598   2.853   2.272   3.104
 2252SOL    HW1 1599   2.776   2.306   3.158
 2252SOL    HW2 1600   2.819   2.221   3.025
 2253SOL     OW 1601   2.903   2.563   2.291
 2253SOL    HW1 1602   2.929   2.559   2.387
 2253SOL    HW2 1603   2.818   2.512   2.277
 2254SOL     OW 1604   1.938   2.673   2.651
 2254SOL    HW1 1605   2.037   2.661   2.660
 2254SOL    HW2 1606   1.914   2.768   2.672
 2255SOL     OW 1607   1.992   3.683   3.433
 2255SOL    HW1 1608   1.982   3.668   3.532
 2255SOL    HW2 1609   1.906   3.719   3.397
 2256SOL     OW 1610   2.727   2.210   2.057
 2256SOL    HW1 1611   2.786   2.273   2.008
 2256SOL    HW2 1612   2.746   2.116   2.028
 2257SOL     OW 1613   3.581   2.447   3.693
 2257SOL    HW1 1614   3.555   2.536   3.657
 2257SOL    HW2 1615   3.579   2.379   3.620
 2258SOL     OW 1616   3.224   3.006   2.407
 2258SOL    HW1 1617   3.307   2.977   2.359
 2258SOL    HW2 1618   3.175   3.073   2.351
 2259SOL     OW 1619   2.870   3.318   2.339
 2259SOL    HW1 1620   2.824   3.390   2.287
 2259SOL    HW2 1621   2.866   3.338   2.437
 2260SOL     OW 1622   2.213   3.663   2.715
 2260SOL    HW1 1623   2.263   3.577   2.721
 2260SOL    HW2 1624   2.278   3.740   2.712
 2261SOL     OW 1625   3.657   2.928   2.735
 2261SOL    HW1 1626   3.595   2.913   2.659
 2261SOL    HW2 1627   3.605   2.939   2.820
 2262SOL     OW 1628   3.089   3.412   3.368
 2262SOL    HW1 1629   3.095   3.335   3.432
 2262SOL    HW2 1630   3.037   3.386   3.288
 2263SOL     OW 1631   2.183   2.805   2.104
 2263SOL    HW1 1632   2.265   2.844   2.062
 2263SOL    HW2 1633   2.156   2.723   2.055
 2264SOL     OW 1634   3.320   2.597   2.590
 2264SOL    HW1 1635   3.315   2.532   2.665
 2264SOL    HW2 1636   3.400   2.656   2.603
 2265SOL     OW 1637   2.323   3.128   3.589
 2265SOL    HW1 1638   2.273   3.129   3.503
 2265SOL    HW2 1639   2.260   3.110   3.665
 2266SOL     OW 1640   2.973   3.638   2.099
 2266SOL    HW1 1641   2.913   3.576   2.149
 2266SOL    HW2 1642   3.004   3.594   2.014
 2267SOL     OW 1643   2.064   2.147   3.360
 2267SOL    HW1 1644   1.984   2.207   3.347
 2267SOL    HW2 1645   2.054   2.098   3.446
 2268SOL     OW 1646   3.494   3.239   1.943
 2268SOL    HW1 1647   3.462   3.333   1.933
 2268SOL    HW2 1648   3.418   3.176   1.931
 2269SOL     OW 1649   2.326   3.605   2.185
 2269SOL    HW1 1650   2.359   3.644   2.271
 2269SOL    HW2 1651   2.402   3.598   2.120
 2270SOL     OW 1652   3.262   1.969   2.288
 2270SOL    HW1 1653   3.238   1.932   2.198
 2270SOL    HW2 1654   3.361   1.985   2.292
 2271SOL     OW 1655   2.111   3.647   3.103
 2271SOL    HW1 1656   2.168   3.582   3.153
 2271SOL    HW2 1657   2.095   3.614   3.010
 2272SOL     OW 1658   2.802   3.560   2.766
 2272SOL    HW1 1659   2.882   3.503   2.787
 2272SOL    HW2 1660   2.753   3.520   2.689
 2273SOL     OW 1661   3.409   2.084   3.591
 2273SOL    HW1 1662   3.404   2.121   3.683
 2273SOL    HW2 1663   3.337   2.015   3.579
 2274SOL     OW 1664   2.476   1.984   1.979
 2274SOL    HW1 1665   2.574   1.962   1.986
 2274SOL    HW2 1666   2.445   1.967   1.886
 2275SOL     OW 1667   2.643   2.126   3.611
 2275SOL    HW1 1668   2.710   2.065   3.654
 2275SOL    HW2 1669   2.570   2.145   3.676
 2276SOL     OW 1670   2.750   3.376   3.057
 2276SOL    HW1 1671   2.727   3.351   2.963
 2276SOL    HW2 1672   2.811   3.307   3.096
 2277SOL     OW 1673   3.213   2.452   3.295
 2277SOL    HW1 1674   3.241   2.409   3.380
 2277SOL    HW2 1675   3.238   2.548   3.296
 2278SOL     OW 1676   2.665   3.264   2.786
 2278SOL    HW1 1677   2.755   3.278   2.744
 2278SOL    HW2 1678   2.594   3.266   2.715
 2279SOL     OW 1679   2.784   2.365   2.761
 2279SOL    HW1 1680   2.759   2.356   2.665
 2279SOL    HW2 1681   2.832   2.283   2.792
 2280SOL     OW 1682   2.401   1.926   2.374
 2280SOL    HW1 1683   2.320   1.927   2.432
 2280SOL    HW2 1684   2.404   2.009   2.319
 2281SOL     OW 1685   3.296   3.050   1.903
 2281SOL    HW1 1686   3.328   2.974   1.960
 2281SOL    HW2 1687   3.204   3.077   1.933
 2282SOL     OW 1688   2.159   1.897   2.033
 2282SOL    HW1 1689   2.208   1.981   2.012
 2282SOL    HW2 1690   2.221   1.832   2.078
 2283SOL     OW 1691   2.797   2.098   2.342
 2283SOL    HW1 1692   2.749   2.139   2.264
 2283SOL    HW2 1693   2.896   2.096   2.323
 2284SOL     OW 1694   2.938   2.545   3.326
 2284SOL    HW1 1695   2.858   2.484   3.329
 2284SOL    HW2 1696   3.019   2.492   3.302
 2285SOL     OW 1697   3.089   3.432   2.655
 2285SOL    HW1 1698   3.110   3.506   2.590
 2285SOL    HW2 1699   3.157   3.432   2.728
 2286SOL     OW 1700   2.321   3.014   2.603
 2286SOL    HW1 1701   2.250   2.987   2.668
 2286SOL    HW2 1702   2.295   2.986   2.510
 2287SOL     OW 1703   3.133   3.659   2.453
 2287SOL    HW1 1704   3.177   3.723   2.389
 2287SOL    HW2 1705   3.083   3.711   2.523
 2288SOL     OW 1706   2.894   2.411   1.878
 2288SOL    HW1 1707   2.853   2.493   1.839
 2288SOL    HW2 1708   2.958   2.437   1.951
 2289SOL     OW 1709   1.940   2.418   3.248
 2289SOL    HW1 1710   2.032   2.417   3.207
 2289SOL    HW2 1711   1.934   2.492   3.315
 2290SOL     OW 1712   2.423   2.084   3.009
 2290SOL    HW1 1713   2.461   2.000   3.046
 2290SOL    HW2 1714   2.335   2.103   3.053
 2291SOL     OW 1715   2.728   2.316   2.504
 2291SOL    HW1 1716   2.696   2.388   2.442
 2291SOL    HW2 1717   2.752   2.235   2.451
 2292SOL     OW 1718   2.879   1.901   2.615
 2292SOL    HW1 1719   2.807   1.906   2.546
 2292SOL    HW2 1720   2.855   1.832   2.684
 2293SOL     OW 1721   3.291   3.035   2.729
 2293SOL    HW1 1722   3.236   2.951   2.722
 2293SOL    HW2 1723   3.317   3.064   2.637
 2294SOL     OW 1724   3.328   2.452   2.854
 2294SOL    HW1 1725   3.298   2.357   2.861
 2294SOL    HW2 1726   3.401   2.468   2.920
 2295SOL     OW 1727   3.719   2.695   2.239
 2295SOL    HW1 1728   3.761   2.631   2.303
 2295SOL    HW2 1729   3.681   2.644   2.161
 2296SOL     OW 1730   2.350   3.247   2.036
 2296SOL    HW1 1731   2.263   3.232   2.083
 2296SOL    HW2 1732   2.333   3.273   1.941
 2297SOL     OW 1733   3.526   3.142   2.519
 2297SOL    HW1 1734   3.625   3.150   2.533
 2297SOL    HW2 1735   3.481   3.226   2.550
 2298SOL     OW 1736   3.252   2.437   1.940
 2298SOL    HW1 1737   3.198   2.416   2.021
 2298SOL    HW2 1738   3.343   2.396   1.949
 2299SOL     OW 1739   2.389   2.118   2.190
 2299SOL    HW1 1740   2.416   2.059   2.115
 2299SOL    HW2 1741   2.389   2.213   2.159
 2300SOL     OW 1742   3.616   3.085   3.450
 2300SOL    HW1 1743   3.707   3.046   3.437
 2300SOL    HW2 1744   3.624   3.181   3.474
 2301SOL     OW 1745   2.926   3.209   3.202
 2301SOL    HW1 1746   2.846   3.186   3.257
 2301SOL    HW2 1747   3.009   3.183   3.251
 2303SOL     OW 1748   2.973   3.057   2.962
 2303SOL    HW1 1749   2.933   3.101   3.043
 2303SOL    HW2 1750   2.932   3.094   2.879
 2304SOL     OW 1751   3.500   2.961   2.941
 2304SOL    HW1 1752   3.505   3.042   3.000
 2304SOL    HW2 1753   3.414   2.963   2.890
 2305SOL     OW 1754   2.777   1.951   3.264
 2305SOL    HW1 1755   2.802   1.931   3.169
 2305SOL    HW2 1756   2.849   2.007   3.306
 2306SOL     OW 1757   2.842   2.978   3.581
 2306SOL    HW1 1758   2.743   2.984   3.591
 2306SOL    HW2 1759   2.865   2.898   3.525
 2307SOL     OW 1760   2.567   2.912   2.230
 2307SOL    HW1 1761   2.553   2.919   2.329
 2307SOL    HW2 1762   2.651   2.861   2.212
 2308SOL     OW 1763   2.272   2.675   3.113
 2308SOL    HW1 1764   2.358   2.687   3.163
 2308SOL    HW2 1765   2.230   2.588   3.140
 2309SOL     OW 1766   3.136   2.248   3.124
 2309SOL    HW1 1767   3.157   2.322   3.188
 2309SOL    HW2 1768   3.047   2.265   3.081
 2310SOL     OW 1769   1.926   3.426   3.193
 2310SOL    HW1 1770   1.880   3.508   3.159
 2310SOL    HW2 1771   2.024   3.445   3.202
 2311SOL     OW 1772   2.229   2.962   2.363
 2311SOL    HW1 1773   2.222   3.045   2.307
 2311SOL    HW2 1774   2.233   2.882   2.303
 2312SOL     OW 1775   3.114   3.210   2.250
 2312SOL    HW1 1776   3.164   3.287   2.290
 2312SOL    HW2 1777   3.019   3.212   2.282
 2313SOL     OW 1778   3.134   3.307   3.004
 2313SOL    HW1 1779   3.181   3.320   3.091
 2313SOL    HW2 1780   3.068   3.233   3.013
 2314SOL     OW 1781   3.444   2.501   2.334
 2314SOL    HW1 1782   3.413   2.562   2.407
 2314SOL    HW2 1783   3.494   2.553   2.265
 2315SOL     OW 1784   2.216   3.372   3.191
 2315SOL    HW1 1785   2.195   3.328   3.104
 2315SOL    HW2 1786   2.313   3.398   3.194
 2316SOL     OW 1787   2.264   2.613   3.460
 2316SOL    HW1 1788   2.332   2.668   3.413
 2316SOL    HW2 1789   2.304   2.525   3.487
 2317SOL     OW 1790   3.449   2.641   3.532
 2317SOL    HW1 1791   3.357   2.679   3.527
 2317SOL    HW2 1792   3.509   2.688   3.467
 2318SOL     OW 1793   2.875   1.967   3.632
 2318SOL    HW1 1794   2.881   2.052   3.580
 2318SOL    HW2 1795   2.907   1.891   3.575
 2319SOL     OW 1796   2.366   1.912   3.602
 2319SOL    HW1 1797   2.324   1.855   3.532
 2319SOL    HW2 1798   2.300   1.981   3.634
 2320SOL     OW 1799   2.435   2.732   2.891
 2320SOL    HW1 1800   2.479   2.821   2.882
 2320SOL    HW2 1801   2.372   2.732   2.968
 2321SOL     OW 1802   3.222   2.724   2.907
 2321SOL    HW1 1803   3.147   2.724   2.841
 2321SOL    HW2 1804   3.259   2.632   2.916
 2322SOL     OW 1805   3.071   2.387   2.137
 2322SOL    HW1 1806   3.084   2.303   2.191
 2322SOL    HW2 1807   3.042   2.461   2.197
 2323SOL     OW 1808   2.169   2.075   3.093
 2323SOL    HW1 1809   2.146   2.112   3.183
 2323SOL    HW2 1810   2.139   1.980   3.087
 2324SOL     OW 1811   1.899   3.172   3.144
 2324SOL    HW1 1812   1.952   3.123   3.212
 2324SOL    HW2 1813   1.921   3.270   3.149
 2325SOL     OW 1814   2.594   2.496   2.926
 2325SOL    HW1 1815   2.653   2.470   2.850
 2325SOL    HW2 1816   2.566   2.592   2.915
 2326SOL     OW 1817   3.590   2.797   3.716
 2326SOL    HW1 1818   3.544   2.790   3.627
 2326SOL    HW2 1819   3.528   2.841   3.782
 2327SOL     OW 1820   2.169   1.925   2.480
 2327SOL    HW1 1821   2.158   2.019   2.513
 2327SOL    HW2 1822   2.164   1.862   2.557
 2328SOL     OW 1823   3.484   2.229   2.236
 2328SOL    HW1 1824   3.486   2.153   2.300
 2328SOL    HW2 1825   3.436   2.306   2.276
 2329SOL     OW 1826   2.885   2.628   2.828
 2329SOL    HW1 1827   2.900   2.649   2.924
 2329SOL    HW2 1828   2.855   2.533   2.819
 2330SOL     OW 1829   2.842   3.435   3.562
 2330SOL    HW1 1830   2.822   3.479   3.474
 2330SOL    HW2 1831   2.881   3.344   3.546
 2332SOL     OW 1832   2.212   2.760   3.666
 2332SOL    HW1 1833   2.288   2.804   3.714
 2332SOL    HW2 1834   2.247   2.713   3.584
 2333SOL     OW 1835   3.402   2.136   1.987
 2333SOL    HW1 1836   3.341   2.061   2.010
 2333SOL    HW2 1837   3.424   2.188   2.070
 2334SOL     OW 1838   3.165   2.700   1.904
 2334SOL    HW1 1839   3.199   2.607   1.919
 2334SOL    HW2 1840   3.183   2.727   1.809
 2335SOL     OW 1841   2.930   3.195   2.711
 2335SOL    HW1 1842   2.937   3.111   2.656
 2335SOL    HW2 1843   2.992   3.264   2.675
 2336SOL     OW 1844   2.181   2.672   2.811
 2336SOL    HW1 1845   2.274   2.708   2.816
 2336SOL    HW2 1846   2.175   2.587   2.863
 2337SOL     OW 1847   2.201   2.371   2.868
 2337SOL    HW1 1848   2.149   2.288   2.851
 2337SOL    HW2 1849   2.278   2.376   2.804
 2338SOL     OW 1850   3.000   2.242   3.540
 2338SOL    HW1 1851   2.955   2.305   3.604
 2338SOL    HW2 1852   3.093   2.273   3.523
 2339SOL     OW 1853   3.022   2.069   3.339
 2339SOL    HW1 1854   3.022   2.133   3.416
 2339SOL    HW2 1855   3.050   2.117   3.256
 2340SOL     OW 1856   1.870   3.188   2.062
 2340SOL    HW1 1857   1.777   3.209   2.031
 2340SOL    HW2 1858   1.880   3.089   2.075
 2341SOL     OW 1859   1.950   3.663   2.789
 2341SOL    HW1 1860   1.908   3.577   2.762
 2341SOL    HW2 1861   2.044   3.666   2.755
 2342SOL     OW 1862   2.366   3.430   2.772
 2342SOL    HW1 1863   2.432   3.504   2.781
 2342SOL    HW2 1864   2.410   3.351   2.730
 2343SOL     OW 1865   2.864   2.658   3.100
 2343SOL    HW1 1866   2.905   2.626   3.186
 2343SOL    HW2 1867   2.768   2.631   3.097
 2344SOL     OW 1868   1.902   2.406   2.976
 2344SOL    HW1 1869   1.987   2.373   2.935
 2344SOL    HW2 1870   1.915   2.421   3.074
 2345SOL     OW 1871   2.051   2.382   3.584
 2345SOL    HW1 1872   2.110   2.342   3.514
 2345SOL    HW2 1873   1.993   2.453   3.543
 2346SOL     OW 1874   3.231   2.812   3.522
 2346SOL    HW1 1875   3.270   2.901   3.542
 2346SOL    HW2 1876   3.241   2.792   3.425
 2347SOL     OW 1877   2.677   2.434   2.187
 2347SOL    HW1 1878   2.684   2.345   2.141
 2347SOL    HW2 1879   2.583   2.468   2.179
 2348SOL     OW 1880   3.519   2.466   3.068
 2348SOL    HW1 1881   3.481   2.397   3.130
 2348SOL    HW2 1882   3.601   2.430   3.024
 2349SOL     OW 1883   2.114   3.426   3.606
 2349SOL    HW1 1884   2.084   3.483   3.682
 2349SOL    HW2 1885   2.107   3.329   3.632
 2350SOL     OW 1886   2.533   2.326   3.131
 2350SOL    HW1 1887   2.499   2.237   3.101
 2350SOL    HW2 1888   2.559   2.380   3.051
 2351SOL     OW 1889   2.792   3.540   3.327
 2351SOL    HW1 1890   2.768   3.522   3.232
 2351SOL    HW2 1891   2.822   3.634   3.337
 2352SOL     OW 1892   2.335   2.362   2.053
 2352SOL    HW1 1893   2.396   2.442   2.057
 2352SOL    HW2 1894   2.240   2.393   2.060
 2353SOL     OW 1895   2.021   2.999   3.328
 2353SOL    HW1 1896   2.043   2.938   3.404
 2353SOL    HW2 1897   2.031   2.950   3.242
 2354SOL     OW 1898   3.209   2.921   3.096
 2354SOL    HW1 1899   3.233   2.858   3.022
 2354SOL    HW2 1900   3.119   2.961   3.078
 2355SOL     OW 1901   3.164   2.717   2.171
 2355SOL    HW1 1902   3.078   2.686   2.213
 2355SOL    HW2 1903   3.160   2.703   2.072
 2356SOL     OW 1904   3.621   3.609   3.016
 2356SOL    HW1 1905   3.682   3.639   2.943
 2356SOL    HW2 1906   3.583   3.520   2.994
 2357SOL     OW 1907   3.114   3.593   2.990
 2357SOL    HW1 1908   3.198   3.598   2.936
 2357SOL    HW2 1909   3.091   3.497   3.008
 2358SOL     OW 1910   1.945   3.120   2.884
 2358SOL    HW1 1911   1.940   3.119   2.984
 2358SOL    HW2 1912   1.862   3.079   2.846
 2359SOL     OW 1913   2.550   3.524   3.578
 2359SOL    HW1 1914   2.494   3.605   3.587
 2359SOL    HW2 1915   2.602   3.528   3.492
 2360SOL     OW 1916   3.588   1.997   2.385
 2360SOL    HW1 1917   3.661   1.980   2.318
 2360SOL    HW2 1918   3.557   1.910   2.423
 2361SOL     OW 1919   3.250   3.435   2.339
 2361SOL    HW1 1920   3.317   3.447   2.265
 2361SOL    HW2 1921   3.210   3.524   2.362
 2363SOL     OW 1922   3.142   2.789   2.534
 2363SOL    HW1 1923   3.202   2.708   2.536
 2363SOL    HW2 1924   3.182   2.858   2.474
 2364SOL     OW 1925   2.692   3.135   3.284
 2364SOL    HW1 1926   2.687   3.168   3.379
 2364SOL    HW2 1927   2.606   3.154   3.238
 2365SOL     OW 1928   2.534   3.478   2.016
 2365SOL    HW1 1929   2.543   3.488   1.917
 2365SOL    HW2 1930   2.494   3.389   2.037
 2366SOL     OW 1931   3.512   3.582   3.256
 2366SOL    HW1 1932   3.565   3.592   3.172
 2366SOL    HW2 1933   3.485   3.672   3.290
 2367SOL     OW 1934   3.703   2.037   2.825
 2367SOL    HW1 1935   3.742   1.952   2.789
 2367SOL    HW2 1936   3.605   2.039   2.806
 2368SOL     OW 1937   2.125   2.188   2.582
 2368SOL    HW1 1938   2.046   2.239   2.548
 2368SOL    HW2 1939   2.116   2.173   2.680
 2369SOL     OW 1940   3.056   3.474   1.893
 2369SOL    HW1 1941   3.062   3.381   1.930
 2369SOL    HW2 1942   2.997   3.474   1.813
 2370SOL     OW 1943   2.684   2.864   3.234
 2370SOL    HW1 1944   2.724   2.863   3.142
 2370SOL    HW2 1945   2.694   2.956   3.274
 2371SOL     OW 1946   2.778   2.772   2.153
 2371SOL    HW1 1947   2.841   2.810   2.085
 2371SOL    HW2 1948   2.818   2.689   2.192
 2372SOL     OW 1949   3.366   3.469   1.906
 2372SOL    HW1 1950   3.274   3.506   1.913
 2372SOL    HW2 1951   3.404   3.489   1.816
 2373SOL     OW 1952   2.234   3.150   3.352
 2373SOL    HW1 1953   2.221   3.243   3.318
 2373SOL    HW2 1954   2.150   3.098   3.339
 2374SOL     OW 1955   3.476   3.154   3.151
 2374SOL    HW1 1956   3.536   3.157   3.231
 2374SOL    HW2 1957   3.401   3.218   3.164
 2375SOL     OW 1958   2.901   2.960   2.558
 2375SOL    HW1 1959   2.831   2.913   2.612
 2375SOL    HW2 1960   2.960   2.892   2.515
 2376SOL     OW 1961   2.876   2.098   2.833
 2376SOL    HW1 1962   2.868   2.062   2.740
 2376SOL    HW2 1963   2.874   2.022   2.898
 2377SOL     OW 1964   2.452   3.349   2.353
 2377SOL    HW1 1965   2.494   3.291   2.283
 2377SOL    HW2 1966   2.408   3.428   2.309
 2378SOL     OW 1967   3.571   2.247   3.243
 2378SOL    HW1 1968   3.644   2.316   3.247
 2378SOL    HW2 1969   3.599   2.172   3.184
 2379SOL     OW 1970   2.117   3.210   2.152
 2379SOL    HW1 1971   2.021   3.211   2.125
 2379SOL    HW2 1972   2.129   3.263   2.236
 2380SOL     OW 1973   1.967   2.875   3.588
 2380SOL    HW1 1974   1.890   2.842   3.642
 2380SOL    HW2 1975   2.052   2.845   3.630
 2381SOL     OW 1976   2.534   2.065   3.351
 2381SOL    HW1 1977   2.624   2.049   3.311
 2381SOL    HW2 1978   2.542   2.070   3.450
 2382SOL     OW 1979   1.937   2.207   1.895
 2382SOL    HW1 1980   1.845   2.179   1.866
 2382SOL    HW2 1981   1.968   2.284   1.839
 2383SOL     OW 1982   3.302   2.718   3.260
 2383SOL    HW1 1983   3.245   2.770   3.197
 2383SOL    HW2 1984   3.398   2.730   3.236
 2384SOL     OW 1985   1.934   2.028   2.180
 2384SOL    HW1 1986   1.917   2.111   2.126
 2384SOL    HW2 1987   2.024   1.991   2.158
 2385SOL     OW 1988   3.045   3.197   1.981
 2385SOL    HW1 1989   2.946   3.186   1.983
 2385SOL    HW2 1990   3.079   3.212   2.074
 2386SOL     OW 1991   2.475   2.704   3.293
 2386SOL    HW1 1992   2.531   2.785   3.276
 2386SOL    HW2 1993   2.534   2.624   3.296
 2387SOL     OW 1994   3.355   3.629   2.821
 2387SOL    HW1 1995   3.388   3.693   2.752
 2387SOL    HW2 1996   3.421   3.623   2.896
 2388SOL     OW 1997   2.578   2.427   3.570
 2388SOL    HW1 1998   2.597   2.492   3.644
 2388SOL    HW2 1999   2.638   2.347   3.579
 2389SOL     OW 2000   3.312   3.082   3.495
 2389SOL    HW1 2001   3.303   3.072   3.594
 2389SOL    HW2 2002   3.408   3.075   3.469
 2390SOL     OW 2003   2.252   3.603   3.422
 2390SOL    HW1 2004   2.161   3.644   3.420
 2390SOL    HW2 2005   2.245   3.509   3.454
 2391SOL     OW 2006   3.536   2.745   3.116
 2391SOL    HW1 2007   3.509   2.656   3.079
 2391SOL    HW2 2008   3.537   2.813   3.043
 2392SOL     OW 2009   3.087   2.187   2.311
 2392SOL    HW1 2010   3.152   2.113   2.300
 2392SOL    HW2 2011   3.107   2.237   2.395
 2393SOL     OW 2012   3.639   2.204   3.504
 2393SOL    HW1 2013   3.622   2.235   3.410
 2393SOL    HW2 2014   3.555   2.167   3.542
 2394SOL     OW 2015   3.592   2.796   3.379
 2394SOL    HW1 2016   3.630   2.887   3.394
 2394SOL    HW2 2017   3.584   2.779   3.280
 2395SOL     OW 2018   2.721   3.236   1.878
 2395SOL    HW1 2019   2.675   3.251   1.966
 2395SOL    HW2 2020   2.765   3.321   1.848
 2396SOL     OW 2021   2.523   3.652   2.815
 2396SOL    HW1 2022   2.477   3.740   2.802
 2396SOL    HW2 2023   2.622   3.664   2.808
 2397SOL     OW 2024   2.721   2.818   2.723
 2397SOL    HW1 2025   2.775   2.749   2.771
 2397SOL    HW2 2026   2.689   2.887   2.789
 2398SOL     OW 2027   2.945   2.846   1.949
 2398SOL    HW1 2028   2.922   2.899   1.867
 2398SOL    HW2 2029   3.026   2.790   1.930
 2399SOL     OW 2030   3.723   3.431   2.713
 2399SOL    HW1 2031   3.652   3.419   2.643
 2399SOL    HW2 2032   3.724   3.352   2.773
 2400SOL     OW 2033   2.083   3.176   3.706
 2400SOL    HW1 2034   2.018   3.103   3.685
 2400SOL    HW2 2035   2.087   3.190   3.804
 2401SOL     OW 2036   1.941   3.102   2.515
 2401SOL    HW1 2037   1.940   3.055   2.603
 2401SOL    HW2 2038   2.023   3.074   2.464
 2402SOL     OW 2039   2.534   3.253   3.486
 2402SOL    HW1 2040   2.456   3.203   3.524
 2402SOL    HW2 2041   2.531   3.348   3.517
 2403SOL     OW 2042   3.686   2.054   3.089
 2403SOL    HW1 2043   3.682   1.964   3.133
 2403SOL    HW2 2044   3.689   2.043   2.990
 2404SOL     OW 2045   3.567   3.349   2.966
 2404SOL    HW1 2046   3.474   3.324   2.939
 2404SOL    HW2 2047   3.593   3.299   3.048
 2405SOL     OW 2048   2.179   2.409   3.142
 2405SOL    HW1 2049   2.217   2.350   3.214
 2405SOL    HW2 2050   2.219   2.383   3.054
 2406SOL     OW 2051   2.674   3.448   2.549
 2406SOL    HW1 2052   2.706   3.458   2.455
 2406SOL    HW2 2053   2.595   3.386   2.551
 2407SOL     OW 2054   3.286   2.076   2.974
 2407SOL    HW1 2055   3.338   2.011   3.029
 2407SOL    HW2 2056   3.237   2.139   3.035
 2408SOL     OW 2057   2.863   1.896   3.016
 2408SOL    HW1 2058   2.800   1.824   2.985
 2408SOL    HW2 2059   2.956   1.860   3.016
 2409SOL     OW 2060   2.632   3.192   2.163
 2409SOL    HW1 2061   2.586   3.105   2.180
 2409SOL    HW2 2062   2.723   3.189   2.204
 2410SOL     OW 2063   2.480   3.429   3.146
 2410SOL    HW1 2064   2.475   3.511   3.203
 2410SOL    HW2 2065   2.569   3.426   3.101
 2411SOL     OW 2066   3.214   1.914   2.030
 2411SOL    HW1 2067   3.249   1.873   1.946
 2411SOL    HW2 2068   3.124   1.876   2.050
 2412SOL     OW 2069   3.162   2.315   2.553
 2412SOL    HW1 2070   3.103   2.395   2.557
 2412SOL    HW2 2071   3.177   2.280   2.646
 2413SOL     OW 2072   3.455   2.083   2.744
 2413SOL    HW1 2073   3.371   2.082   2.798
 2413SOL    HW2 2074   3.457   2.166   2.688
 2414SOL     OW 2075   1.901   2.939   2.162
 2414SOL    HW1 2076   2.000   2.928   2.153
 2414SOL    HW2 2077   1.861   2.853   2.194
 2415SOL     OW 2078   2.737   3.508   2.199
 2415SOL    HW1 2079   2.660   3.473   2.145
 2415SOL    HW2 2080   2.705   3.579   2.261
 2416SOL     OW 2081   2.092   2.490   3.837
 2416SOL    HW1 2082   1.999   2.488   3.874
 2416SOL    HW2 2083   2.093   2.451   3.745
 2429SOL     OW 2084   2.468   2.826   3.847
 2429SOL    HW1 2085   2.475   2.910   3.793
 2429SOL    HW2 2086   2.514   2.839   3.935
 2440SOL     OW 2087   2.460   2.591   3.994
 2440SOL    HW1 2088   2.484   2.660   3.926
 2440SOL    HW2 2089   2.382   2.624   4.048
 2443SOL     OW 2090   2.903   2.563   4.153
 2443SOL    HW1 2091   2.929   2.559   4.249
 2443SOL    HW2 2092   2.818   2.512   4.139
 2445SOL     OW 2093   2.727   2.210   3.919
 2445SOL    HW1 2094   2.786   2.273   3.870
 2445SOL    HW2 2095   2.746   2.116   3.890
 2451SOL     OW 2096   2.183   2.805   3.966
 2451SOL    HW1 2097   2.265   2.844   3.924
 2451SOL    HW2 2098   2.156   2.723   3.917
 2459SOL     OW 2099   2.244   2.562   4.204
 2459SOL    HW1 2100   2.289   2.472   4.201
 2459SOL    HW2 2101   2.150   2.551   4.237
 2460SOL     OW 2102   2.476   1.984   3.841
 2460SOL    HW1 2103   2.574   1.962   3.848
 2460SOL    HW2 2104   2.445   1.967   3.748
 2464SOL     OW 2105   3.296   3.050   3.765
 2464SOL    HW1 2106   3.328   2.974   3.822
 2464SOL    HW2 2107   3.204   3.077   3.795
 2465SOL     OW 2108   2.159   1.897   3.895
 2465SOL    HW1 2109   2.208   1.981   3.874
 2465SOL    HW2 2110   2.221   1.832   3.940
 2470SOL     OW 2111   2.894   2.411   3.740
 2470SOL    HW1 2112   2.853   2.493   3.701
 2470SOL    HW2 2113   2.958   2.437   3.813
 2476SOL     OW 2114   2.350   3.247   3.898
 2476SOL    HW1 2115   2.263   3.232   3.945
 2476SOL    HW2 2116   2.333   3.273   3.803
 2478SOL     OW 2117   3.252   2.437   3.802
 2478SOL    HW1 2118   3.198   2.416   3.883
 2478SOL    HW2 2119   3.343   2.396   3.811
 2479SOL     OW 2120   2.389   2.118   4.052
 2479SOL    HW1 2121   2.416   2.059   3.977
 2479SOL    HW2 2122   2.389   2.213   4.021
 2481SOL     OW 2123   2.567   2.912   4.092
 2481SOL    HW1 2124   2.553   2.919   4.191
 2481SOL    HW2 2125   2.651   2.861   4.074
 2488SOL     OW 2126   3.071   2.387   3.999
 2488SOL    HW1 2127   3.084   2.303   4.053
 2488SOL    HW2 2128   3.042   2.461   4.059
 2494SOL     OW 2129   3.402   2.136   3.849
 2494SOL    HW1 2130   3.341   2.061   3.872
 2494SOL    HW2 2131   3.424   2.188   3.932
 2495SOL     OW 2132   3.165   2.700   3.766
 2495SOL    HW1 2133   3.199   2.607   3.781
 2495SOL    HW2 2134   3.183   2.727   3.671
 2499SOL     OW 2135   1.870   3.188   3.924
 2499SOL    HW1 2136   1.777   3.209   3.893
 2499SOL    HW2 2137   1.880   3.089   3.937
 2504SOL     OW 2138   2.677   2.434   4.049
 2504SOL    HW1 2139   2.684   2.345   4.003
 2504SOL    HW2 2140   2.583   2.468   4.041
 2506SOL     OW 2141   2.335   2.362   3.915
 2506SOL    HW1 2142   2.396   2.442   3.919
 2506SOL    HW2 2143   2.240   2.393   3.922
 2507SOL     OW 2144   3.164   2.717   4.033
 2507SOL    HW1 2145   3.078   2.686   4.075
 2507SOL    HW2 2146   3.160   2.703   3.934
 2513SOL     OW 2147   2.534   3.478   3.878
 2513SOL    HW1 2148   2.543   3.488   3.779
 2513SOL    HW2 2149   2.494   3.389   3.899
 2516SOL     OW 2150   3.056   3.474   3.755
 2516SOL    HW1 2151   3.062   3.381   3.792
 2516SOL    HW2 2152   2.997   3.474   3.675
 2517SOL     OW 2153   2.778   2.772   4.015
 2517SOL    HW1 2154   2.841   2.810   3.947
 2517SOL    HW2 2155   2.818   2.689   4.054
 2522SOL     OW 2156   2.117   3.210   4.014
 2522SOL    HW1 2157   2.021   3.211   3.987
 2522SOL    HW2 2158   2.129   3.263   4.098
 2523SOL     OW 2159   1.937   2.207   3.757
 2523SOL    HW1 2160   1.845   2.179   3.728
 2523SOL    HW2 2161   1.968   2.284   3.701
 2524SOL     OW 2162   1.934   2.028   4.042
 2524SOL    HW1 2163   1.917   2.111   3.988
 2524SOL    HW2 2164   2.024   1.991   4.020
 2525SOL     OW 2165   3.045   3.197   3.843
 2525SOL    HW1 2166   2.946   3.186   3.845
 2525SOL    HW2 2167   3.079   3.212   3.936
 2530SOL     OW 2168   2.721   3.236   3.740
 2530SOL    HW1 2169   2.675   3.251   3.828
 2530SOL    HW2 2170   2.765   3.321   3.710
 2533SOL     OW 2171   2.945   2.846   3.811
 2533SOL    HW1 2172   2.922   2.899   3.729
 2533SOL    HW2 2173   3.026   2.790   3.792
 2540SOL     OW 2174   2.632   3.192   4.025
 2540SOL    HW1 2175   2.586   3.105   4.042
 2540SOL    HW2 2176   2.723   3.189   4.066
 2541SOL     OW 2177   3.214   1.914   3.892
 2541SOL    HW1 2178   3.249   1.873   3.808
 2541SOL    HW2 2179   3.124   1.876   3.912
 2544SOL     OW 2180   1.901   2.939   4.024
 2544SOL    HW1 2181   2.000   2.928   4.015
 2544SOL    HW2 2182   1.861   2.853   4.056
 2567SOL     OW 2183   2.179   3.975   1.801
 2567SOL    HW1 2184   2.250   4.046   1.807
 2567SOL    HW2 2185   2.091   4.014   1.829
 2587SOL     OW 2186   2.643   3.988   1.749
 2587SOL    HW1 2187   2.710   3.927   1.792
 2587SOL    HW2 2188   2.570   4.007   1.814
 2605SOL     OW 2189   2.777   3.813   1.402
 2605SOL    HW1 2190   2.802   3.793   1.307
 2605SOL    HW2 2191   2.849   3.869   1.444
 2612SOL     OW 2192   2.875   3.829   1.770
 2612SOL    HW1 2193   2.881   3.914   1.718
 2612SOL    HW2 2194   2.907   3.753   1.713
 2613SOL     OW 2195   2.366   3.774   1.740
 2613SOL    HW1 2196   2.324   3.717   1.670
 2613SOL    HW2 2197   2.300   3.843   1.772
 2651SOL     OW 2198   2.534   3.927   1.489
 2651SOL    HW1 2199   2.624   3.911   1.449
 2651SOL    HW2 2200   2.542   3.932   1.588
 2674SOL     OW 2201   2.087   3.999   2.858
 2674SOL    HW1 2202   2.122   3.982   2.950
 2674SOL    HW2 2203   1.999   3.954   2.846
 2675SOL     OW 2204   1.881   4.092   2.509
 2675SOL    HW1 2205   1.799   4.135   2.548
 2675SOL    HW2 2206   1.853   4.019   2.446
 2691SOL     OW 2207   2.671   3.728   2.364
 2691SOL    HW1 2208   2.711   3.819   2.355
 2691SOL    HW2 2209   2.571   3.736   2.370
 2703SOL     OW 2210   2.727   4.072   2.057
 2703SOL    HW1 2211   2.786   4.135   2.008
 2703SOL    HW2 2212   2.746   3.978   2.028
 2705SOL     OW 2213   2.412   3.920   2.747
 2705SOL    HW1 2214   2.407   3.915   2.847
 2705SOL    HW2 2215   2.414   4.016   2.718
 2710SOL     OW 2216   3.262   3.831   2.288
 2710SOL    HW1 2217   3.238   3.794   2.198
 2710SOL    HW2 2218   3.361   3.847   2.292
 2713SOL     OW 2219   2.476   3.846   1.979
 2713SOL    HW1 2220   2.574   3.824   1.986
 2713SOL    HW2 2221   2.445   3.829   1.886
 2717SOL     OW 2222   2.401   3.788   2.374
 2717SOL    HW1 2223   2.320   3.789   2.432
 2717SOL    HW2 2224   2.404   3.871   2.319
 2718SOL     OW 2225   2.159   3.759   2.033
 2718SOL    HW1 2226   2.208   3.843   2.012
 2718SOL    HW2 2227   2.221   3.694   2.078
 2719SOL     OW 2228   2.797   3.960   2.342
 2719SOL    HW1 2229   2.749   4.001   2.264
 2719SOL    HW2 2230   2.896   3.958   2.323
 2723SOL     OW 2231   2.423   3.946   3.009
 2723SOL    HW1 2232   2.461   3.862   3.046
 2723SOL    HW2 2233   2.335   3.965   3.053
 2724SOL     OW 2234   2.728   4.178   2.504
 2724SOL    HW1 2235   2.696   4.250   2.442
 2724SOL    HW2 2236   2.752   4.097   2.451
 2725SOL     OW 2237   2.879   3.763   2.615
 2725SOL    HW1 2238   2.807   3.768   2.546
 2725SOL    HW2 2239   2.855   3.694   2.684
 2730SOL     OW 2240   2.389   3.980   2.190
 2730SOL    HW1 2241   2.416   3.921   2.115
 2730SOL    HW2 2242   2.389   4.075   2.159
 2733SOL     OW 2243   2.777   3.813   3.264
 2733SOL    HW1 2244   2.802   3.793   3.169
 2733SOL    HW2 2245   2.849   3.869   3.306
 2741SOL     OW 2246   2.366   3.774   3.602
 2741SOL    HW1 2247   2.324   3.717   3.532
 2741SOL    HW2 2248   2.300   3.843   3.634
 2745SOL     OW 2249   2.169   3.937   3.093
 2745SOL    HW1 2250   2.146   3.974   3.183
 2745SOL    HW2 2251   2.139   3.842   3.087
 2748SOL     OW 2252   2.169   3.787   2.480
 2748SOL    HW1 2253   2.158   3.881   2.513
 2748SOL    HW2 2254   2.164   3.724   2.557
 2772SOL     OW 2255   2.125   4.050   2.582
 2772SOL    HW1 2256   2.046   4.101   2.548
 2772SOL    HW2 2257   2.116   4.035   2.680
 2775SOL     OW 2258   2.876   3.960   2.833
 2775SOL    HW1 2259   2.868   3.924   2.740
 2775SOL    HW2 2260   2.874   3.884   2.898
 2778SOL     OW 2261   2.534   3.927   3.351
 2778SOL    HW1 2262   2.624   3.911   3.311
 2778SOL    HW2 2263   2.542   3.932   3.450
 2779SOL     OW 2264   1.937   4.069   1.895
 2779SOL    HW1 2265   1.845   4.041   1.866
 2779SOL    HW2 2266   1.968   4.146   1.839
 2781SOL     OW 2267   1.934   3.890   2.180
 2781SOL    HW1 2268   1.917   3.973   2.126
 2781SOL    HW2 2269   2.024   3.853   2.158
 2786SOL     OW 2270   3.087   4.049   2.311
 2786SOL    HW1 2271   3.152   3.975   2.300
 2786SOL    HW2 2272   3.107   4.099   2.395
 2793SOL     OW 2273   2.290   4.148   2.382
 2793SOL    HW1 2274   2.320   4.076   2.320
 2793SOL    HW2 2275   2.251   4.108   2.465
 2796SOL     OW 2276   2.863   3.758   3.016
 2796SOL    HW1 2277   2.800   3.686   2.985
 2796SOL    HW2 2278   2.956   3.722   3.016
 2797SOL     OW 2279   3.214   3.776   2.030
 2797SOL    HW1 2280   3.249   3.735   1.946
 2797SOL    HW2 2281   3.124   3.738   2.050
 2911SOL     OW 2282   3.854   1.821   1.571
 2911SOL    HW1 2283   3.844   1.806   1.670
 2911SOL    HW2 2284   3.768   1.857   1.535
 2981SOL     OW 2285   3.854   1.794   1.851
 2981SOL    HW1 2286   3.813   1.720   1.904
 2981SOL    HW2 2287   3.918   1.845   1.909
 3024SOL     OW 2288   3.955   1.713   2.345
 3024SOL    HW1 2289   3.989   1.790   2.399
 3024SOL    HW2 2290   3.999   1.713   2.255
 3031SOL     OW 2291   3.751   1.596   1.979
 3031SOL    HW1 2292   3.732   1.500   2.000
 3031SOL    HW2 2293   3.718   1.654   2.054
 3047SOL     OW 2294   4.075   1.801   2.715
 3047SOL    HW1 2295   4.125   1.715   2.721
 3047SOL    HW2 2296   4.140   1.878   2.712
 3052SOL     OW 2297   3.973   1.785   3.103
 3052SOL    HW1 2298   4.030   1.720   3.153
 3052SOL    HW2 2299   3.957   1.752   3.010
 3076SOL     OW 2300   3.788   1.564   3.193
 3076SOL    HW1 2301   3.742   1.646   3.159
 3076SOL    HW2 2302   3.886   1.583   3.202
 3096SOL     OW 2303   3.732   1.326   2.062
 3096SOL    HW1 2304   3.639   1.347   2.031
 3096SOL    HW2 2305   3.742   1.227   2.075
 3097SOL     OW 2306   3.812   1.801   2.789
 3097SOL    HW1 2307   3.770   1.715   2.762
 3097SOL    HW2 2308   3.906   1.804   2.755
 3244SOL     OW 2309   3.837   2.599   1.597
 3244SOL    HW1 2310   3.925   2.586   1.642
 3244SOL    HW2 2311   3.824   2.696   1.575
 3248SOL     OW 2312   4.041   2.113   1.801
 3248SOL    HW1 2313   4.112   2.184   1.807
 3248SOL    HW2 2314   3.953   2.152   1.829
 3262SOL     OW 2315   3.926   2.147   1.498
 3262SOL    HW1 2316   3.846   2.207   1.485
 3262SOL    HW2 2317   3.916   2.098   1.584
 3278SOL     OW 2318   3.802   2.418   1.386
 3278SOL    HW1 2319   3.894   2.417   1.345
 3278SOL    HW2 2320   3.796   2.492   1.453
 3303SOL     OW 2321   4.074   2.760   1.804
 3303SOL    HW1 2322   4.150   2.804   1.852
 3303SOL    HW2 2323   4.109   2.713   1.722
 3314SOL     OW 2324   3.913   2.382   1.722
 3314SOL    HW1 2325   3.972   2.342   1.652
 3314SOL    HW2 2326   3.855   2.453   1.681
 3336SOL     OW 2327   3.829   2.875   1.726
 3336SOL    HW1 2328   3.752   2.842   1.780
 3336SOL    HW2 2329   3.914   2.845   1.768
 3347SOL     OW 2330   3.945   3.176   1.844
 3347SOL    HW1 2331   3.880   3.103   1.823
 3347SOL    HW2 2332   3.949   3.190   1.942
 3358SOL     OW 2333   3.954   2.490   1.975
 3358SOL    HW1 2334   3.861   2.488   2.012
 3358SOL    HW2 2335   3.955   2.451   1.883
 3359SOL     OW 2336   3.949   2.137   2.858
 3359SOL    HW1 2337   3.984   2.120   2.950
 3359SOL    HW2 2338   3.861   2.092   2.846
 3360SOL     OW 2339   3.743   2.230   2.509
 3360SOL    HW1 2340   3.661   2.273   2.548
 3360SOL    HW2 2341   3.715   2.157   2.446
 3370SOL     OW 2342   3.954   3.296   2.400
 3370SOL    HW1 2343   3.928   3.392   2.400
 3370SOL    HW2 2344   3.883   3.242   2.445
 3371SOL     OW 2345   3.964   2.953   2.748
 3371SOL    HW1 2346   3.978   2.869   2.800
 3371SOL    HW2 2347   3.909   3.017   2.803
 3374SOL     OW 2348   3.846   2.505   2.425
 3374SOL    HW1 2349   3.801   2.417   2.442
 3374SOL    HW2 2350   3.845   2.559   2.509
 3375SOL     OW 2351   3.751   3.458   1.979
 3375SOL    HW1 2352   3.732   3.362   2.000
 3375SOL    HW2 2353   3.718   3.516   2.054
 3376SOL     OW 2354   3.837   2.599   3.459
 3376SOL    HW1 2355   3.925   2.586   3.504
 3376SOL    HW2 2356   3.824   2.696   3.437
 3379SOL     OW 2357   3.921   2.838   3.126
 3379SOL    HW1 2358   4.010   2.793   3.112
 3379SOL    HW2 2359   3.848   2.773   3.107
 3386SOL     OW 2360   3.800   2.673   2.651
 3386SOL    HW1 2361   3.899   2.661   2.660
 3386SOL    HW2 2362   3.776   2.768   2.672
 3392SOL     OW 2363   4.045   2.805   2.104
 3392SOL    HW1 2364   4.127   2.844   2.062
 3392SOL    HW2 2365   4.018   2.723   2.055
 3394SOL     OW 2366   3.926   2.147   3.360
 3394SOL    HW1 2367   3.846   2.207   3.347
 3394SOL    HW2 2368   3.916   2.098   3.446
 3398SOL     OW 2369   4.106   2.562   2.342
 3398SOL    HW1 2370   4.151   2.472   2.339
 3398SOL    HW2 2371   4.012   2.551   2.375
 3405SOL     OW 2372   4.021   1.897   2.033
 3405SOL    HW1 2373   4.070   1.981   2.012
 3405SOL    HW2 2374   4.083   1.832   2.078
 3410SOL     OW 2375   3.802   2.418   3.248
 3410SOL    HW1 2376   3.894   2.417   3.207
 3410SOL    HW2 2377   3.796   2.492   3.315
 3421SOL     OW 2378   4.091   2.962   2.363
 3421SOL    HW1 2379   4.084   3.045   2.307
 3421SOL    HW2 2380   4.095   2.882   2.303
 3429SOL     OW 2381   4.031   2.075   3.093
 3429SOL    HW1 2382   4.008   2.112   3.183
 3429SOL    HW2 2383   4.001   1.980   3.087
 3430SOL     OW 2384   3.761   3.172   3.144
 3430SOL    HW1 2385   3.814   3.123   3.212
 3430SOL    HW2 2386   3.783   3.270   3.149
 3432SOL     OW 2387   4.031   1.925   2.480
 3432SOL    HW1 2388   4.020   2.019   2.513
 3432SOL    HW2 2389   4.026   1.862   2.557
 3437SOL     OW 2390   4.043   2.672   2.811
 3437SOL    HW1 2391   4.136   2.708   2.816
 3437SOL    HW2 2392   4.037   2.587   2.863
 3438SOL     OW 2393   4.063   2.371   2.868
 3438SOL    HW1 2394   4.011   2.288   2.851
 3438SOL    HW2 2395   4.140   2.376   2.804
 3441SOL     OW 2396   3.732   3.188   2.062
 3441SOL    HW1 2397   3.639   3.209   2.031
 3441SOL    HW2 2398   3.742   3.089   2.075
 3445SOL     OW 2399   3.764   2.406   2.976
 3445SOL    HW1 2400   3.849   2.373   2.935
 3445SOL    HW2 2401   3.777   2.421   3.074
 3452SOL     OW 2402   3.883   2.999   3.328
 3452SOL    HW1 2403   3.905   2.938   3.404
 3452SOL    HW2 2404   3.893   2.950   3.242
 3454SOL     OW 2405   3.807   3.120   2.884
 3454SOL    HW1 2406   3.802   3.119   2.984
 3454SOL    HW2 2407   3.724   3.079   2.846
 3459SOL     OW 2408   3.987   2.188   2.582
 3459SOL    HW1 2409   3.908   2.239   2.548
 3459SOL    HW2 2410   3.978   2.173   2.680
 3466SOL     OW 2411   3.979   3.210   2.152
 3466SOL    HW1 2412   3.883   3.211   2.125
 3466SOL    HW2 2413   3.991   3.263   2.236
 3469SOL     OW 2414   3.799   2.207   1.895
 3469SOL    HW1 2415   3.707   2.179   1.866
 3469SOL    HW2 2416   3.830   2.284   1.839
 3470SOL     OW 2417   3.796   2.028   2.180
 3470SOL    HW1 2418   3.779   2.111   2.126
 3470SOL    HW2 2419   3.886   1.991   2.158
 3480SOL     OW 2420   3.803   3.102   2.515
 3480SOL    HW1 2421   3.802   3.055   2.603
 3480SOL    HW2 2422   3.885   3.074   2.464
 3482SOL     OW 2423   4.152   2.286   2.382
 3482SOL    HW1 2424   4.182   2.214   2.320
 3482SOL    HW2 2425   4.113   2.246   2.465
 3483SOL     OW 2426   4.041   2.409   3.142
 3483SOL    HW1 2427   4.079   2.350   3.214
 3483SOL    HW2 2428   4.081   2.383   3.054
 3488SOL     OW 2429   3.763   2.939   2.162
 3488SOL    HW1 2430   3.862   2.928   2.153
 3488SOL    HW2 2431   3.723   2.853   2.194
   4.87317   4.87317   4.87317
