; mobley_1987439_GMX.itp created by acpype (v: 2023.10.27) on Thu May 21 00:08:56 2026

[ atomtypes ]
;name   bond_type     mass     charge   ptype   sigma         epsilon       Amb
 ca       ca          0.00000  0.00000   A     3.31521e-01   4.13379e-01 ; 1.86  0.0988
 c3       c3          0.00000  0.00000   A     3.39771e-01   4.51035e-01 ; 1.91  0.1078
 ha       ha          0.00000  0.00000   A     2.62548e-01   6.73624e-02 ; 1.47  0.0161
 hc       hc          0.00000  0.00000   A     2.60018e-01   8.70272e-02 ; 1.46  0.0208

[ moleculetype ]
;name            nrexcl
 mobley_1987439   3

[ atoms ]
;   nr  type  resi  res  atom  cgnr     charge      mass       ; qtot   bond_type
     1   ca     1   MOL    C1    1    -0.133999     12.01000 ; qtot -0.134
     2   ca     1   MOL    C2    2    -0.133999     12.01000 ; qtot -0.268
     3   ca     1   MOL    C3    3    -0.133999     12.01000 ; qtot -0.402
     4   ca     1   MOL    C4    4    -0.071300     12.01000 ; qtot -0.473
     5   ca     1   MOL    C5    5    -0.071300     12.01000 ; qtot -0.545
     6   ca     1   MOL    C6    6    -0.071300     12.01000 ; qtot -0.616
     7   c3     1   MOL    C7    7    -0.053800     12.01000 ; qtot -0.670
     8   c3     1   MOL    C8    8    -0.053800     12.01000 ; qtot -0.723
     9   c3     1   MOL    C9    9    -0.053800     12.01000 ; qtot -0.777
    10   ha     1   MOL    H1   10     0.130000      1.00800 ; qtot -0.647
    11   ha     1   MOL    H2   11     0.130000      1.00800 ; qtot -0.517
    12   ha     1   MOL    H3   12     0.130000      1.00800 ; qtot -0.387
    13   hc     1   MOL    H4   13     0.043033      1.00800 ; qtot -0.344
    14   hc     1   MOL    H5   14     0.043033      1.00800 ; qtot -0.301
    15   hc     1   MOL    H6   15     0.043033      1.00800 ; qtot -0.258
    16   hc     1   MOL    H7   16     0.043033      1.00800 ; qtot -0.215
    17   hc     1   MOL    H8   17     0.043033      1.00800 ; qtot -0.172
    18   hc     1   MOL    H9   18     0.043033      1.00800 ; qtot -0.129
    19   hc     1   MOL   H10   19     0.043033      1.00800 ; qtot -0.086
    20   hc     1   MOL   H11   20     0.043033      1.00800 ; qtot -0.043
    21   hc     1   MOL   H12   21     0.043033      1.00800 ; qtot 0.000

[ bonds ]
;   ai     aj funct   r             k
     1      4   1    1.3986e-01    2.9644e+05 ;     C1 - C4    
     1      5   1    1.3986e-01    2.9644e+05 ;     C1 - C5    
     1     10   1    1.0860e-01    3.0183e+05 ;     C1 - H1    
     2      4   1    1.3986e-01    2.9644e+05 ;     C2 - C4    
     2      6   1    1.3986e-01    2.9644e+05 ;     C2 - C6    
     2     11   1    1.0860e-01    3.0183e+05 ;     C2 - H2    
     3      5   1    1.3986e-01    2.9644e+05 ;     C3 - C5    
     3      6   1    1.3986e-01    2.9644e+05 ;     C3 - C6    
     3     12   1    1.0860e-01    3.0183e+05 ;     C3 - H3    
     4      7   1    1.5147e-01    2.0410e+05 ;     C4 - C7    
     5      8   1    1.5147e-01    2.0410e+05 ;     C5 - C8    
     6      9   1    1.5147e-01    2.0410e+05 ;     C6 - C9    
     7     13   1    1.0962e-01    2.8891e+05 ;     C7 - H4    
     7     14   1    1.0962e-01    2.8891e+05 ;     C7 - H5    
     7     15   1    1.0962e-01    2.8891e+05 ;     C7 - H6    
     8     16   1    1.0962e-01    2.8891e+05 ;     C8 - H7    
     8     17   1    1.0962e-01    2.8891e+05 ;     C8 - H8    
     8     18   1    1.0962e-01    2.8891e+05 ;     C8 - H9    
     9     19   1    1.0962e-01    2.8891e+05 ;     C9 - H10   
     9     20   1    1.0962e-01    2.8891e+05 ;     C9 - H11   
     9     21   1    1.0962e-01    2.8891e+05 ;     C9 - H12   

[ pairs ]
;   ai     aj    funct
     1      6      1 ;     C1 - C6    
     1     11      1 ;     C1 - H2    
     1     12      1 ;     C1 - H3    
     1     13      1 ;     C1 - H4    
     1     14      1 ;     C1 - H5    
     1     15      1 ;     C1 - H6    
     1     16      1 ;     C1 - H7    
     1     17      1 ;     C1 - H8    
     1     18      1 ;     C1 - H9    
     2     12      1 ;     C2 - H3    
     2     13      1 ;     C2 - H4    
     2     14      1 ;     C2 - H5    
     2     15      1 ;     C2 - H6    
     2     19      1 ;     C2 - H10   
     2     20      1 ;     C2 - H11   
     2     21      1 ;     C2 - H12   
     3     11      1 ;     C3 - H2    
     3     16      1 ;     C3 - H7    
     3     17      1 ;     C3 - H8    
     3     18      1 ;     C3 - H9    
     3     19      1 ;     C3 - H10   
     3     20      1 ;     C3 - H11   
     3     21      1 ;     C3 - H12   
     4      3      1 ;     C4 - C3    
     4      8      1 ;     C4 - C8    
     4      9      1 ;     C4 - C9    
     5      2      1 ;     C5 - C2    
     5      7      1 ;     C5 - C7    
     5      9      1 ;     C5 - C9    
     6      7      1 ;     C6 - C7    
     6      8      1 ;     C6 - C8    
     7     11      1 ;     C7 - H2    
     8     12      1 ;     C8 - H3    
     9     11      1 ;     C9 - H2    
     9     12      1 ;     C9 - H3    
    10      2      1 ;     H1 - C2    
    10      3      1 ;     H1 - C3    
    10      7      1 ;     H1 - C7    
    10      8      1 ;     H1 - C8    

[ angles ]
;   ai     aj     ak    funct   theta         cth
     1      4      2      1    1.2002e+02    5.3279e+02 ;     C1 - C4     - C2    
     1      4      7      1    1.2083e+02    5.0827e+02 ;     C1 - C4     - C7    
     1      5      3      1    1.2002e+02    5.3279e+02 ;     C1 - C5     - C3    
     1      5      8      1    1.2083e+02    5.0827e+02 ;     C1 - C5     - C8    
     2      4      7      1    1.2083e+02    5.0827e+02 ;     C2 - C4     - C7    
     2      6      3      1    1.2002e+02    5.3279e+02 ;     C2 - C6     - C3    
     2      6      9      1    1.2083e+02    5.0827e+02 ;     C2 - C6     - C9    
     3      5      8      1    1.2083e+02    5.0827e+02 ;     C3 - C5     - C8    
     3      6      9      1    1.2083e+02    5.0827e+02 ;     C3 - C6     - C9    
     4      1      5      1    1.2002e+02    5.3279e+02 ;     C4 - C1     - C5    
     4      1     10      1    1.1988e+02    3.7572e+02 ;     C4 - C1     - H1    
     4      2      6      1    1.2002e+02    5.3279e+02 ;     C4 - C2     - C6    
     4      2     11      1    1.1988e+02    3.7572e+02 ;     C4 - C2     - H2    
     4      7     13      1    1.1063e+02    3.6493e+02 ;     C4 - C7     - H4    
     4      7     14      1    1.1063e+02    3.6493e+02 ;     C4 - C7     - H5    
     4      7     15      1    1.1063e+02    3.6493e+02 ;     C4 - C7     - H6    
     5      1     10      1    1.1988e+02    3.7572e+02 ;     C5 - C1     - H1    
     5      3      6      1    1.2002e+02    5.3279e+02 ;     C5 - C3     - C6    
     5      3     12      1    1.1988e+02    3.7572e+02 ;     C5 - C3     - H3    
     5      8     16      1    1.1063e+02    3.6493e+02 ;     C5 - C8     - H7    
     5      8     17      1    1.1063e+02    3.6493e+02 ;     C5 - C8     - H8    
     5      8     18      1    1.1063e+02    3.6493e+02 ;     C5 - C8     - H9    
     6      2     11      1    1.1988e+02    3.7572e+02 ;     C6 - C2     - H2    
     6      3     12      1    1.1988e+02    3.7572e+02 ;     C6 - C3     - H3    
     6      9     19      1    1.1063e+02    3.6493e+02 ;     C6 - C9     - H10   
     6      9     20      1    1.1063e+02    3.6493e+02 ;     C6 - C9     - H11   
     6      9     21      1    1.1063e+02    3.6493e+02 ;     C6 - C9     - H12   
    13      7     14      1    1.0773e+02    2.9957e+02 ;     H4 - C7     - H5    
    13      7     15      1    1.0773e+02    2.9957e+02 ;     H4 - C7     - H6    
    14      7     15      1    1.0773e+02    2.9957e+02 ;     H5 - C7     - H6    
    16      8     17      1    1.0773e+02    2.9957e+02 ;     H7 - C8     - H8    
    16      8     18      1    1.0773e+02    2.9957e+02 ;     H7 - C8     - H9    
    17      8     18      1    1.0773e+02    2.9957e+02 ;     H8 - C8     - H9    
    19      9     20      1    1.0773e+02    2.9957e+02 ;    H10 - C9     - H11   
    19      9     21      1    1.0773e+02    2.9957e+02 ;    H10 - C9     - H12   
    20      9     21      1    1.0773e+02    2.9957e+02 ;    H11 - C9     - H12   

[ dihedrals ] ; propers
; for gromacs 4.5 or higher, using funct 9
;    i      j      k      l   func   phase     kd      pn
     1      4      2      6      9   180.00  15.16700   2 ;     C1-    C4-    C2-    C6
     1      4      2     11      9   180.00  15.16700   2 ;     C1-    C4-    C2-    H2
     1      4      7     13      9     0.00   0.00000   0 ;     C1-    C4-    C7-    H4
     1      4      7     14      9     0.00   0.00000   0 ;     C1-    C4-    C7-    H5
     1      4      7     15      9     0.00   0.00000   0 ;     C1-    C4-    C7-    H6
     1      5      3      6      9   180.00  15.16700   2 ;     C1-    C5-    C3-    C6
     1      5      3     12      9   180.00  15.16700   2 ;     C1-    C5-    C3-    H3
     1      5      8     16      9     0.00   0.00000   0 ;     C1-    C5-    C8-    H7
     1      5      8     17      9     0.00   0.00000   0 ;     C1-    C5-    C8-    H8
     1      5      8     18      9     0.00   0.00000   0 ;     C1-    C5-    C8-    H9
     2      4      7     13      9     0.00   0.00000   0 ;     C2-    C4-    C7-    H4
     2      4      7     14      9     0.00   0.00000   0 ;     C2-    C4-    C7-    H5
     2      4      7     15      9     0.00   0.00000   0 ;     C2-    C4-    C7-    H6
     2      6      3      5      9   180.00  15.16700   2 ;     C2-    C6-    C3-    C5
     2      6      3     12      9   180.00  15.16700   2 ;     C2-    C6-    C3-    H3
     2      6      9     19      9     0.00   0.00000   0 ;     C2-    C6-    C9-   H10
     2      6      9     20      9     0.00   0.00000   0 ;     C2-    C6-    C9-   H11
     2      6      9     21      9     0.00   0.00000   0 ;     C2-    C6-    C9-   H12
     3      5      8     16      9     0.00   0.00000   0 ;     C3-    C5-    C8-    H7
     3      5      8     17      9     0.00   0.00000   0 ;     C3-    C5-    C8-    H8
     3      5      8     18      9     0.00   0.00000   0 ;     C3-    C5-    C8-    H9
     3      6      2      4      9   180.00  15.16700   2 ;     C3-    C6-    C2-    C4
     3      6      2     11      9   180.00  15.16700   2 ;     C3-    C6-    C2-    H2
     3      6      9     19      9     0.00   0.00000   0 ;     C3-    C6-    C9-   H10
     3      6      9     20      9     0.00   0.00000   0 ;     C3-    C6-    C9-   H11
     3      6      9     21      9     0.00   0.00000   0 ;     C3-    C6-    C9-   H12
     4      1      5      3      9   180.00  15.16700   2 ;     C4-    C1-    C5-    C3
     4      1      5      8      9   180.00  15.16700   2 ;     C4-    C1-    C5-    C8
     4      2      6      9      9   180.00  15.16700   2 ;     C4-    C2-    C6-    C9
     5      1      4      2      9   180.00  15.16700   2 ;     C5-    C1-    C4-    C2
     5      1      4      7      9   180.00  15.16700   2 ;     C5-    C1-    C4-    C7
     5      3      6      9      9   180.00  15.16700   2 ;     C5-    C3-    C6-    C9
     6      2      4      7      9   180.00  15.16700   2 ;     C6-    C2-    C4-    C7
     6      3      5      8      9   180.00  15.16700   2 ;     C6-    C3-    C5-    C8
     7      4      2     11      9   180.00  15.16700   2 ;     C7-    C4-    C2-    H2
     8      5      3     12      9   180.00  15.16700   2 ;     C8-    C5-    C3-    H3
     9      6      2     11      9   180.00  15.16700   2 ;     C9-    C6-    C2-    H2
     9      6      3     12      9   180.00  15.16700   2 ;     C9-    C6-    C3-    H3
    10      1      4      2      9   180.00  15.16700   2 ;     H1-    C1-    C4-    C2
    10      1      4      7      9   180.00  15.16700   2 ;     H1-    C1-    C4-    C7
    10      1      5      3      9   180.00  15.16700   2 ;     H1-    C1-    C5-    C3
    10      1      5      8      9   180.00  15.16700   2 ;     H1-    C1-    C5-    C8

[ dihedrals ] ; impropers
; treated as propers in GROMACS to use correct AMBER analytical function
;    i      j      k      l   func   phase     kd      pn
     1      2      4      7      4   180.00   4.60240   2 ;     C1-    C2-    C4-    C7
     4      6      2     11      4   180.00   4.60240   2 ;     C4-    C6-    C2-    H2
     5      6      3     12      4   180.00   4.60240   2 ;     C5-    C6-    C3-    H3
     8      1      5      3      4   180.00   4.60240   2 ;     C8-    C1-    C5-    C3
     9      2      6      3      4   180.00   4.60240   2 ;     C9-    C2-    C6-    C3
    10      1      5      4      4   180.00   4.60240   2 ;     H1-    C1-    C5-    C4
