; mobley_6334915_GMX.itp created by acpype (v: 2023.10.27) on Thu May 21 00:08:13 2026

[ atomtypes ]
;name   bond_type     mass     charge   ptype   sigma         epsilon       Amb
 c3       c3          0.00000  0.00000   A     3.39771e-01   4.51035e-01 ; 1.91  0.1078
 o        o           0.00000  0.00000   A     3.04812e-01   6.12119e-01 ; 1.71  0.1463
 oh       oh          0.00000  0.00000   A     3.24287e-01   3.89112e-01 ; 1.82  0.0930
 os       os          0.00000  0.00000   A     3.15610e-01   3.03758e-01 ; 1.77  0.0726
 p5       p5          0.00000  0.00000   A     3.69402e-01   9.60228e-01 ; 2.07  0.2295
 cl       cl          0.00000  0.00000   A     3.46595e-01   1.10374e+00 ; 1.95  0.2638
 h1       h1          0.00000  0.00000   A     2.42200e-01   8.70272e-02 ; 1.36  0.0208
 ho       ho          0.00000  0.00000   A     5.37925e-02   1.96648e-02 ; 0.30  0.0047

[ moleculetype ]
;name            nrexcl
 mobley_6334915   3

[ atoms ]
;   nr  type  resi  res  atom  cgnr     charge      mass       ; qtot   bond_type
     1   c3     1   MOL    C1    1     0.148700     12.01000 ; qtot 0.149
     2   c3     1   MOL    C2    2     0.148700     12.01000 ; qtot 0.297
     3   c3     1   MOL    C3    3    -0.088100     12.01000 ; qtot 0.209
     4   c3     1   MOL    C4    4     0.247200     12.01000 ; qtot 0.456
     5    o     1   MOL    O1    5    -0.808300     16.00000 ; qtot -0.352
     6   oh     1   MOL    O2    6    -0.583800     16.00000 ; qtot -0.936
     7   os     1   MOL    O3    7    -0.572700     16.00000 ; qtot -1.508
     8   os     1   MOL    O4    8    -0.572700     16.00000 ; qtot -2.081
     9   p5     1   MOL    P1    9     1.519297     30.97000 ; qtot -0.562
    10   cl     1   MOL   CL1   10    -0.098733     35.45000 ; qtot -0.660
    11   cl     1   MOL   CL2   11    -0.098733     35.45000 ; qtot -0.759
    12   cl     1   MOL   CL3   12    -0.098733     35.45000 ; qtot -0.858
    13   h1     1   MOL    H1   13     0.050867      1.00800 ; qtot -0.807
    14   h1     1   MOL    H2   14     0.050867      1.00800 ; qtot -0.756
    15   h1     1   MOL    H3   15     0.050867      1.00800 ; qtot -0.705
    16   h1     1   MOL    H4   16     0.050867      1.00800 ; qtot -0.654
    17   h1     1   MOL    H5   17     0.050867      1.00800 ; qtot -0.604
    18   h1     1   MOL    H6   18     0.050867      1.00800 ; qtot -0.553
    19   h1     1   MOL    H7   19     0.114700      1.00800 ; qtot -0.438
    20   ho     1   MOL    H8   20     0.438000      1.00800 ; qtot -0.000

[ bonds ]
;   ai     aj funct   r             k
     1      7   1    1.4273e-01    2.3620e+05 ;     C1 - O3    
     1     13   1    1.0969e-01    2.8804e+05 ;     C1 - H1    
     1     14   1    1.0969e-01    2.8804e+05 ;     C1 - H2    
     1     15   1    1.0969e-01    2.8804e+05 ;     C1 - H3    
     2      8   1    1.4273e-01    2.3620e+05 ;     C2 - O4    
     2     16   1    1.0969e-01    2.8804e+05 ;     C2 - H4    
     2     17   1    1.0969e-01    2.8804e+05 ;     C2 - H5    
     2     18   1    1.0969e-01    2.8804e+05 ;     C2 - H6    
     3      4   1    1.5354e-01    1.9154e+05 ;     C3 - C4    
     3      6   1    1.4242e-01    2.3861e+05 ;     C3 - O2    
     3      9   1    1.8439e-01    1.6672e+05 ;     C3 - P1    
     3     19   1    1.0969e-01    2.8804e+05 ;     C3 - H7    
     4     10   1    1.8092e-01    1.3724e+05 ;     C4 - CL1   
     4     11   1    1.8092e-01    1.3724e+05 ;     C4 - CL2   
     4     12   1    1.8092e-01    1.3724e+05 ;     C4 - CL3   
     5      9   1    1.4885e-01    4.7951e+05 ;     O1 - P1    
     6     20   1    9.7250e-02    4.4811e+05 ;     O2 - H8    
     7      9   1    1.6182e-01    3.2434e+05 ;     O3 - P1    
     8      9   1    1.6182e-01    3.2434e+05 ;     O4 - P1    

[ pairs ]
;   ai     aj    funct
     1      3      1 ;     C1 - C3    
     1      5      1 ;     C1 - O1    
     1      8      1 ;     C1 - O4    
     2      3      1 ;     C2 - C3    
     2      5      1 ;     C2 - O1    
     2      7      1 ;     C2 - O3    
     4      5      1 ;     C4 - O1    
     4      7      1 ;     C4 - O3    
     4      8      1 ;     C4 - O4    
     4     20      1 ;     C4 - H8    
     5      6      1 ;     O1 - O2    
     5     19      1 ;     O1 - H7    
     6      7      1 ;     O2 - O3    
     6      8      1 ;     O2 - O4    
     6     10      1 ;     O2 - CL1   
     6     11      1 ;     O2 - CL2   
     6     12      1 ;     O2 - CL3   
     7     19      1 ;     O3 - H7    
     8     19      1 ;     O4 - H7    
     9     10      1 ;     P1 - CL1   
     9     11      1 ;     P1 - CL2   
     9     12      1 ;     P1 - CL3   
     9     16      1 ;     P1 - H4    
     9     17      1 ;     P1 - H5    
     9     18      1 ;     P1 - H6    
     9     20      1 ;     P1 - H8    
    10     19      1 ;    CL1 - H7    
    11     19      1 ;    CL2 - H7    
    12     19      1 ;    CL3 - H7    
    13      9      1 ;     H1 - P1    
    14      9      1 ;     H2 - P1    
    15      9      1 ;     H3 - P1    
    19     20      1 ;     H7 - H8    

[ angles ]
;   ai     aj     ak    funct   theta         cth
     1      7      9      1    1.1970e+02    4.7396e+02 ;     C1 - O3     - P1    
     2      8      9      1    1.1970e+02    4.7396e+02 ;     C2 - O4     - P1    
     3      4     10      1    1.1039e+02    5.3254e+02 ;     C3 - C4     - CL1   
     3      4     11      1    1.1039e+02    5.3254e+02 ;     C3 - C4     - CL2   
     3      4     12      1    1.1039e+02    5.3254e+02 ;     C3 - C4     - CL3   
     3      6     20      1    1.0739e+02    5.4501e+02 ;     C3 - O2     - H8    
     3      9      5      1    1.1369e+02    6.3237e+02 ;     C3 - P1     - O1    
     3      9      7      1    1.0174e+02    6.5262e+02 ;     C3 - P1     - O3    
     3      9      8      1    1.0174e+02    6.5262e+02 ;     C3 - P1     - O4    
     4      3      6      1    1.0966e+02    6.4258e+02 ;     C4 - C3     - O2    
     4      3      9      1    1.1182e+02    3.1798e+02 ;     C4 - C3     - P1    
     4      3     19      1    1.0959e+02    3.6217e+02 ;     C4 - C3     - H7    
     5      9      7      1    1.1544e+02    8.3931e+02 ;     O1 - P1     - O3    
     5      9      8      1    1.1544e+02    8.3931e+02 ;     O1 - P1     - O4    
     6      3      9      1    1.0859e+02    4.0150e+02 ;     O2 - C3     - P1    
     6      3     19      1    1.1038e+02    4.7103e+02 ;     O2 - C3     - H7    
     7      1     13      1    1.1034e+02    4.7028e+02 ;     O3 - C1     - H1    
     7      1     14      1    1.1034e+02    4.7028e+02 ;     O3 - C1     - H2    
     7      1     15      1    1.1034e+02    4.7028e+02 ;     O3 - C1     - H3    
     7      9      8      1    1.0172e+02    8.6123e+02 ;     O3 - P1     - O4    
     8      2     16      1    1.1034e+02    4.7028e+02 ;     O4 - C2     - H4    
     8      2     17      1    1.1034e+02    4.7028e+02 ;     O4 - C2     - H5    
     8      2     18      1    1.1034e+02    4.7028e+02 ;     O4 - C2     - H6    
     9      3     19      1    1.0826e+02    2.1447e+02 ;     P1 - C3     - H7    
    10      4     11      1    1.0934e+02    5.8225e+02 ;    CL1 - C4     - CL2   
    10      4     12      1    1.0934e+02    5.8225e+02 ;    CL1 - C4     - CL3   
    11      4     12      1    1.0934e+02    5.8225e+02 ;    CL2 - C4     - CL3   
    13      1     14      1    1.0855e+02    2.9824e+02 ;     H1 - C1     - H2    
    13      1     15      1    1.0855e+02    2.9824e+02 ;     H1 - C1     - H3    
    14      1     15      1    1.0855e+02    2.9824e+02 ;     H2 - C1     - H3    
    16      2     17      1    1.0855e+02    2.9824e+02 ;     H4 - C2     - H5    
    16      2     18      1    1.0855e+02    2.9824e+02 ;     H4 - C2     - H6    
    17      2     18      1    1.0855e+02    2.9824e+02 ;     H5 - C2     - H6    

[ dihedrals ] ; propers
; for gromacs 4.5 or higher, using funct 9
;    i      j      k      l   func   phase     kd      pn
     1      7      9      3      9     0.00   3.34720   2 ;     C1-    O3-    P1-    C3
     1      7      9      5      9     0.00   2.30120   3 ;     C1-    O3-    P1-    O1
     1      7      9      5      9     0.00   3.34720   2 ;     C1-    O3-    P1-    O1
     1      7      9      8      9     0.00  14.72768   2 ;     C1-    O3-    P1-    O4
     2      8      9      3      9     0.00   3.34720   2 ;     C2-    O4-    P1-    C3
     2      8      9      5      9     0.00   2.30120   3 ;     C2-    O4-    P1-    O1
     2      8      9      5      9     0.00   3.34720   2 ;     C2-    O4-    P1-    O1
     2      8      9      7      9     0.00  14.72768   2 ;     C2-    O4-    P1-    O3
     4      3      6     20      9     0.00   0.25104   3 ;     C4-    C3-    O2-    H8
     4      3      9      5      9     0.00   0.09298   3 ;     C4-    C3-    P1-    O1
     4      3      9      7      9     0.00   0.09298   3 ;     C4-    C3-    P1-    O3
     4      3      9      8      9     0.00   0.09298   3 ;     C4-    C3-    P1-    O4
     5      9      3      6      9     0.00   0.09298   3 ;     O1-    P1-    C3-    O2
     5      9      3     19      9     0.00   0.09298   3 ;     O1-    P1-    C3-    H7
     6      3      4     10      9     0.00   0.65084   3 ;     O2-    C3-    C4-   CL1
     6      3      4     11      9     0.00   0.65084   3 ;     O2-    C3-    C4-   CL2
     6      3      4     12      9     0.00   0.65084   3 ;     O2-    C3-    C4-   CL3
     6      3      9      7      9     0.00   0.09298   3 ;     O2-    C3-    P1-    O3
     6      3      9      8      9     0.00   0.09298   3 ;     O2-    C3-    P1-    O4
     7      9      3     19      9     0.00   0.09298   3 ;     O3-    P1-    C3-    H7
     8      9      3     19      9     0.00   0.09298   3 ;     O4-    P1-    C3-    H7
     9      3      4     10      9     0.00   0.65084   3 ;     P1-    C3-    C4-   CL1
     9      3      4     11      9     0.00   0.65084   3 ;     P1-    C3-    C4-   CL2
     9      3      4     12      9     0.00   0.65084   3 ;     P1-    C3-    C4-   CL3
     9      3      6     20      9     0.00   0.69733   3 ;     P1-    C3-    O2-    H8
     9      8      2     16      9     0.00   0.00000   0 ;     P1-    O4-    C2-    H4
     9      8      2     17      9     0.00   0.00000   0 ;     P1-    O4-    C2-    H5
     9      8      2     18      9     0.00   0.00000   0 ;     P1-    O4-    C2-    H6
    10      4      3     19      9     0.00   0.00000   0 ;    CL1-    C4-    C3-    H7
    10      4      3     19      9     0.00   1.04600   1 ;    CL1-    C4-    C3-    H7
    11      4      3     19      9     0.00   0.00000   0 ;    CL2-    C4-    C3-    H7
    11      4      3     19      9     0.00   1.04600   1 ;    CL2-    C4-    C3-    H7
    12      4      3     19      9     0.00   0.00000   0 ;    CL3-    C4-    C3-    H7
    12      4      3     19      9     0.00   1.04600   1 ;    CL3-    C4-    C3-    H7
    13      1      7      9      9     0.00   0.00000   0 ;     H1-    C1-    O3-    P1
    14      1      7      9      9     0.00   0.00000   0 ;     H2-    C1-    O3-    P1
    15      1      7      9      9     0.00   0.00000   0 ;     H3-    C1-    O3-    P1
    19      3      6     20      9     0.00   0.51463   3 ;     H7-    C3-    O2-    H8
