mobley_2725215_GMX.gro created by acpype (v: 2023.10.27) on Tue May 19 12:40:05 2026
 2412
    1MOL     C1    1   2.737   2.423   2.461
    1MOL     C2    2   2.793   2.454   2.694
    1MOL     C3    3   2.648   2.531   2.471
    1MOL     C4    4   2.703   2.563   2.699
    1MOL     C5    5   2.625   2.604   2.590
    1MOL     C6    6   2.808   2.384   2.574
    1MOL     C7    7   2.209   2.563   2.743
    1MOL     C8    8   2.573   3.068   2.470
    1MOL     C9    9   2.826   2.107   2.600
    1MOL    C10   10   2.332   2.569   2.654
    1MOL    C11   11   2.510   2.930   2.485
    1MOL    C12   12   2.414   2.695   2.682
    1MOL    C13   13   2.589   2.843   2.582
    1MOL     N1   14   2.530   2.708   2.590
    1MOL     N2   15   2.575   2.566   2.350
    1MOL     N3   16   2.696   2.631   2.827
    1MOL     O1   17   2.475   2.497   2.324
    1MOL     O2   18   2.622   2.656   2.280
    1MOL     O3   19   2.641   2.570   2.919
    1MOL     O4   20   2.750   2.742   2.835
    1MOL     O5   21   2.967   2.243   2.425
    1MOL     O6   22   3.019   2.269   2.671
    1MOL     S1   23   2.924   2.250   2.563
    1MOL     H1   24   2.750   2.371   2.366
    1MOL     H2   25   2.852   2.427   2.781
    1MOL     H3   26   2.236   2.561   2.849
    1MOL     H4   27   2.143   2.649   2.726
    1MOL     H5   28   2.151   2.472   2.721
    1MOL     H6   29   2.576   3.120   2.566
    1MOL     H7   30   2.675   3.061   2.431
    1MOL     H8   31   2.515   3.129   2.400
    1MOL     H9   32   2.891   2.019   2.595
    1MOL    H10   33   2.784   2.117   2.700
    1MOL    H11   34   2.747   2.098   2.525
    1MOL    H12   35   2.301   2.568   2.549
    1MOL    H13   36   2.392   2.479   2.671
    1MOL    H14   37   2.505   2.882   2.386
    1MOL    H15   38   2.407   2.942   2.519
    1MOL    H16   39   2.349   2.782   2.668
    1MOL    H17   40   2.446   2.698   2.787
    1MOL    H18   41   2.693   2.838   2.548
    1MOL    H19   42   2.591   2.890   2.681
   97SOL     OW   43   1.592   1.629   1.625
   97SOL    HW1   44   1.619   1.663   1.535
   97SOL    HW2   45   1.671   1.591   1.671
  127SOL     OW   46   1.859   1.518   1.605
  127SOL    HW1   47   1.873   1.545   1.510
  127SOL    HW2   48   1.942   1.540   1.658
  163SOL     OW   49   1.650   1.720   1.394
  163SOL    HW1   50   1.703   1.730   1.310
  163SOL    HW2   51   1.623   1.810   1.428
  219SOL     OW   52   1.555   1.511   2.565
  219SOL    HW1   53   1.498   1.495   2.646
  219SOL    HW2   54   1.496   1.521   2.485
  227SOL     OW   55   1.460   1.505   3.201
  227SOL    HW1   56   1.484   1.599   3.227
  227SOL    HW2   57   1.444   1.451   3.283
  238SOL     OW   58   1.842   1.767   2.221
  238SOL    HW1   59   1.896   1.738   2.301
  238SOL    HW2   60   1.872   1.857   2.192
  241SOL     OW   61   1.641   1.108   2.294
  241SOL    HW1   62   1.727   1.110   2.242
  241SOL    HW2   63   1.655   1.155   2.382
  250SOL     OW   64   1.466   1.417   2.815
  250SOL    HW1   65   1.407   1.423   2.895
  250SOL    HW2   66   1.451   1.329   2.769
  251SOL     OW   67   1.667   1.714   2.434
  251SOL    HW1   68   1.626   1.691   2.346
  251SOL    HW2   69   1.649   1.640   2.499
  254SOL     OW   70   1.576   1.662   2.169
  254SOL    HW1   71   1.665   1.708   2.172
  254SOL    HW2   72   1.555   1.638   2.074
  268SOL     OW   73   1.795   1.066   2.735
  268SOL    HW1   74   1.733   1.051   2.659
  268SOL    HW2   75   1.743   1.077   2.820
  273SOL     OW   76   1.111   1.776   2.099
  273SOL    HW1   77   1.051   1.714   2.149
  273SOL    HW2   78   1.142   1.732   2.014
  275SOL     OW   79   1.632   1.377   1.943
  275SOL    HW1   80   1.600   1.471   1.933
  275SOL    HW2   81   1.556   1.314   1.931
  293SOL     OW   82   1.227   1.570   2.655
  293SOL    HW1   83   1.248   1.644   2.590
  293SOL    HW2   84   1.295   1.570   2.728
  295SOL     OW   85   1.271   1.797   2.453
  295SOL    HW1   86   1.315   1.861   2.389
  295SOL    HW2   87   1.221   1.849   2.523
  305SOL     OW   88   1.664   1.280   2.519
  305SOL    HW1   89   1.763   1.288   2.533
  305SOL    HW2   90   1.619   1.364   2.550
  310SOL     OW   91   1.592   1.629   3.487
  310SOL    HW1   92   1.619   1.663   3.397
  310SOL    HW2   93   1.671   1.591   3.533
  322SOL     OW   94   1.272   1.445   3.004
  322SOL    HW1   95   1.319   1.458   3.091
  322SOL    HW2   96   1.206   1.371   3.013
  340SOL     OW   97   1.859   1.518   3.467
  340SOL    HW1   98   1.873   1.545   3.372
  340SOL    HW2   99   1.942   1.540   3.520
  365SOL     OW  100   1.759   1.747   3.016
  365SOL    HW1  101   1.820   1.777   2.943
  365SOL    HW2  102   1.721   1.658   2.994
  366SOL     OW  103   1.252   1.731   2.990
  366SOL    HW1  104   1.336   1.736   2.936
  366SOL    HW2  105   1.229   1.635   3.008
  370SOL     OW  106   1.388   1.573   2.339
  370SOL    HW1  107   1.455   1.585   2.265
  370SOL    HW2  108   1.348   1.662   2.362
  375SOL     OW  109   1.650   1.720   3.256
  375SOL    HW1  110   1.703   1.730   3.172
  375SOL    HW2  111   1.623   1.810   3.290
  381SOL     OW  112   1.504   1.607   1.906
  381SOL    HW1  113   1.412   1.644   1.913
  381SOL    HW2  114   1.542   1.627   1.816
  383SOL     OW  115   1.614   1.292   3.151
  383SOL    HW1  116   1.674   1.295   3.231
  383SOL    HW2  117   1.539   1.356   3.164
  396SOL     OW  118   1.493   1.767   2.821
  396SOL    HW1  119   1.526   1.831   2.752
  396SOL    HW2  120   1.559   1.761   2.896
  409SOL     OW  121   1.861   1.569   2.713
  409SOL    HW1  122   1.790   1.557   2.643
  409SOL    HW2  123   1.862   1.490   2.773
  415SOL     OW  124   1.705   1.487   2.966
  415SOL    HW1  125   1.612   1.462   2.939
  415SOL    HW2  126   1.731   1.437   3.048
  613SOL     OW  127   1.594   1.976   1.480
  613SOL    HW1  128   1.576   2.043   1.408
  613SOL    HW2  129   1.591   2.022   1.569
  633SOL     OW  130   1.394   2.331   1.674
  633SOL    HW1  131   1.374   2.374   1.762
  633SOL    HW2  132   1.472   2.269   1.683
  640SOL     OW  133   1.719   2.447   1.831
  640SOL    HW1  134   1.693   2.536   1.795
  640SOL    HW2  135   1.717   2.379   1.758
  658SOL     OW  136   1.547   2.084   1.729
  658SOL    HW1  137   1.542   2.121   1.821
  658SOL    HW2  138   1.475   2.015   1.717
  661SOL     OW  139   1.351   2.452   1.433
  661SOL    HW1  140   1.379   2.409   1.518
  661SOL    HW2  141   1.376   2.548   1.434
  683SOL     OW  142   1.754   3.085   1.588
  683SOL    HW1  143   1.845   3.046   1.575
  683SOL    HW2  144   1.762   3.181   1.612
  685SOL     OW  145   1.592   3.491   1.625
  685SOL    HW1  146   1.619   3.525   1.535
  685SOL    HW2  147   1.671   3.453   1.671
  701SOL     OW  148   1.587   2.641   1.670
  701SOL    HW1  149   1.495   2.679   1.665
  701SOL    HW2  150   1.647   2.688   1.605
  710SOL     OW  151   1.728   2.797   1.854
  710SOL    HW1  152   1.682   2.790   1.765
  710SOL    HW2  153   1.666   2.841   1.920
  715SOL     OW  154   1.859   3.380   1.605
  715SOL    HW1  155   1.873   3.407   1.510
  715SOL    HW2  156   1.942   3.402   1.658
  722SOL     OW  157   1.138   2.242   1.678
  722SOL    HW1  158   1.093   2.305   1.742
  722SOL    HW2  159   1.231   2.273   1.661
  730SOL     OW  160   1.369   2.812   1.660
  730SOL    HW1  161   1.408   2.901   1.680
  730SOL    HW2  162   1.379   2.792   1.563
  732SOL     OW  163   1.657   2.466   1.206
  732SOL    HW1  164   1.619   2.397   1.268
  732SOL    HW2  165   1.739   2.430   1.162
  759SOL     OW  166   1.614   3.154   1.289
  759SOL    HW1  167   1.674   3.157   1.369
  759SOL    HW2  168   1.539   3.218   1.302
  763SOL     OW  169   1.709   2.247   1.381
  763SOL    HW1  170   1.782   2.316   1.385
  763SOL    HW2  171   1.737   2.172   1.322
  768SOL     OW  172   1.440   2.718   1.398
  768SOL    HW1  173   1.383   2.770   1.335
  768SOL    HW2  174   1.536   2.730   1.374
  774SOL     OW  175   1.450   3.082   1.633
  774SOL    HW1  176   1.441   3.072   1.732
  774SOL    HW2  177   1.546   3.075   1.607
  776SOL     OW  178   1.674   2.745   1.254
  776SOL    HW1  179   1.647   2.656   1.217
  776SOL    HW2  180   1.675   2.813   1.181
  779SOL     OW  181   1.777   2.204   1.642
  779SOL    HW1  182   1.760   2.235   1.548
  779SOL    HW2  183   1.693   2.167   1.680
  780SOL     OW  184   1.730   2.796   1.517
  780SOL    HW1  185   1.768   2.887   1.532
  780SOL    HW2  186   1.722   2.779   1.418
  789SOL     OW  187   1.824   2.054   1.227
  789SOL    HW1  188   1.820   1.964   1.271
  789SOL    HW2  189   1.827   2.043   1.128
  807SOL     OW  190   1.555   3.373   2.565
  807SOL    HW1  191   1.498   3.357   2.646
  807SOL    HW2  192   1.496   3.383   2.485
  808SOL     OW  193   1.135   2.565   2.579
  808SOL    HW1  194   1.192   2.643   2.554
  808SOL    HW2  195   1.075   2.591   2.655
  809SOL     OW  196   1.755   2.469   2.093
  809SOL    HW1  197   1.743   2.456   1.994
  809SOL    HW2  198   1.725   2.388   2.142
  815SOL     OW  199   1.460   3.367   3.201
  815SOL    HW1  200   1.484   3.461   3.227
  815SOL    HW2  201   1.444   3.313   3.283
  817SOL     OW  202   1.603   2.309   2.599
  817SOL    HW1  203   1.529   2.355   2.549
  817SOL    HW2  204   1.654   2.377   2.652
  824SOL     OW  205   1.594   1.976   3.342
  824SOL    HW1  206   1.576   2.043   3.270
  824SOL    HW2  207   1.591   2.022   3.431
  826SOL     OW  208   1.842   3.629   2.221
  826SOL    HW1  209   1.896   3.600   2.301
  826SOL    HW2  210   1.872   3.719   2.192
  828SOL     OW  211   1.689   2.784   2.474
  828SOL    HW1  212   1.784   2.755   2.482
  828SOL    HW2  213   1.681   2.849   2.399
  829SOL     OW  214   1.641   2.970   2.294
  829SOL    HW1  215   1.727   2.972   2.242
  829SOL    HW2  216   1.655   3.017   2.382
  832SOL     OW  217   1.293   3.090   3.285
  832SOL    HW1  218   1.330   3.017   3.227
  832SOL    HW2  219   1.345   3.095   3.370
  835SOL     OW  220   1.525   2.861   2.052
  835SOL    HW1  221   1.462   2.785   2.065
  835SOL    HW2  222   1.573   2.879   2.138
  838SOL     OW  223   1.466   3.279   2.815
  838SOL    HW1  224   1.407   3.285   2.895
  838SOL    HW2  225   1.451   3.191   2.769
  839SOL     OW  226   1.667   3.576   2.434
  839SOL    HW1  227   1.626   3.553   2.346
  839SOL    HW2  228   1.649   3.502   2.499
  841SOL     OW  229   1.281   2.207   2.806
  841SOL    HW1  230   1.195   2.157   2.793
  841SOL    HW2  231   1.343   2.153   2.862
  842SOL     OW  232   1.576   3.524   2.169
  842SOL    HW1  233   1.665   3.570   2.172
  842SOL    HW2  234   1.555   3.500   2.074
  844SOL     OW  235   1.394   2.331   3.536
  844SOL    HW1  236   1.374   2.374   3.624
  844SOL    HW2  237   1.472   2.269   3.545
  846SOL     OW  238   0.991   2.272   3.104
  846SOL    HW1  239   0.914   2.306   3.158
  846SOL    HW2  240   0.957   2.221   3.025
  847SOL     OW  241   1.041   2.563   2.291
  847SOL    HW1  242   1.067   2.559   2.387
  847SOL    HW2  243   0.956   2.512   2.277
  851SOL     OW  244   1.719   2.447   3.693
  851SOL    HW1  245   1.693   2.536   3.657
  851SOL    HW2  246   1.717   2.379   3.620
  852SOL     OW  247   1.362   3.006   2.407
  852SOL    HW1  248   1.445   2.977   2.359
  852SOL    HW2  249   1.313   3.073   2.351
  854SOL     OW  250   1.008   3.318   2.339
  854SOL    HW1  251   0.962   3.390   2.287
  854SOL    HW2  252   1.004   3.338   2.437
  856SOL     OW  253   1.795   2.928   2.735
  856SOL    HW1  254   1.733   2.913   2.659
  856SOL    HW2  255   1.743   2.939   2.820
  857SOL     OW  256   1.227   3.412   3.368
  857SOL    HW1  257   1.233   3.335   3.432
  857SOL    HW2  258   1.175   3.386   3.288
  859SOL     OW  259   1.458   2.597   2.590
  859SOL    HW1  260   1.453   2.532   2.665
  859SOL    HW2  261   1.538   2.656   2.603
  863SOL     OW  262   1.632   3.239   1.943
  863SOL    HW1  263   1.600   3.333   1.933
  863SOL    HW2  264   1.556   3.176   1.931
  865SOL     OW  265   1.400   1.969   2.288
  865SOL    HW1  266   1.376   1.932   2.198
  865SOL    HW2  267   1.499   1.985   2.292
  869SOL     OW  268   1.547   2.084   3.591
  869SOL    HW1  269   1.542   2.121   3.683
  869SOL    HW2  270   1.475   2.015   3.579
  873SOL     OW  271   1.351   2.452   3.295
  873SOL    HW1  272   1.379   2.409   3.380
  873SOL    HW2  273   1.376   2.548   3.296
  875SOL     OW  274   0.922   2.365   2.761
  875SOL    HW1  275   0.897   2.356   2.665
  875SOL    HW2  276   0.970   2.283   2.792
  877SOL     OW  277   1.434   3.050   1.903
  877SOL    HW1  278   1.466   2.974   1.960
  877SOL    HW2  279   1.342   3.077   1.933
  879SOL     OW  280   0.935   2.098   2.342
  879SOL    HW1  281   0.887   2.139   2.264
  879SOL    HW2  282   1.034   2.096   2.323
  880SOL     OW  283   1.076   2.545   3.326
  880SOL    HW1  284   0.996   2.484   3.329
  880SOL    HW2  285   1.157   2.492   3.302
  881SOL     OW  286   1.227   3.432   2.655
  881SOL    HW1  287   1.248   3.506   2.590
  881SOL    HW2  288   1.295   3.432   2.728
  883SOL     OW  289   1.271   3.659   2.453
  883SOL    HW1  290   1.315   3.723   2.389
  883SOL    HW2  291   1.221   3.711   2.523
  884SOL     OW  292   1.032   2.411   1.878
  884SOL    HW1  293   0.991   2.493   1.839
  884SOL    HW2  294   1.096   2.437   1.951
  887SOL     OW  295   0.866   2.316   2.504
  887SOL    HW1  296   0.834   2.388   2.442
  887SOL    HW2  297   0.890   2.235   2.451
  888SOL     OW  298   1.017   1.901   2.615
  888SOL    HW1  299   0.945   1.906   2.546
  888SOL    HW2  300   0.993   1.832   2.684
  889SOL     OW  301   1.429   3.035   2.729
  889SOL    HW1  302   1.374   2.951   2.722
  889SOL    HW2  303   1.455   3.064   2.637
  890SOL     OW  304   1.466   2.452   2.854
  890SOL    HW1  305   1.436   2.357   2.861
  890SOL    HW2  306   1.539   2.468   2.920
  891SOL     OW  307   1.857   2.695   2.239
  891SOL    HW1  308   1.899   2.631   2.303
  891SOL    HW2  309   1.819   2.644   2.161
  893SOL     OW  310   1.664   3.142   2.519
  893SOL    HW1  311   1.763   3.150   2.533
  893SOL    HW2  312   1.619   3.226   2.550
  894SOL     OW  313   1.390   2.437   1.940
  894SOL    HW1  314   1.336   2.416   2.021
  894SOL    HW2  315   1.481   2.396   1.949
  896SOL     OW  316   1.754   3.085   3.450
  896SOL    HW1  317   1.845   3.046   3.437
  896SOL    HW2  318   1.762   3.181   3.474
  897SOL     OW  319   1.064   3.209   3.202
  897SOL    HW1  320   0.984   3.186   3.257
  897SOL    HW2  321   1.147   3.183   3.251
  898SOL     OW  322   1.592   3.491   3.487
  898SOL    HW1  323   1.619   3.525   3.397
  898SOL    HW2  324   1.671   3.453   3.533
  899SOL     OW  325   1.111   3.057   2.962
  899SOL    HW1  326   1.071   3.101   3.043
  899SOL    HW2  327   1.070   3.094   2.879
  900SOL     OW  328   1.638   2.961   2.941
  900SOL    HW1  329   1.643   3.042   3.000
  900SOL    HW2  330   1.552   2.963   2.890
  905SOL     OW  331   1.274   2.248   3.124
  905SOL    HW1  332   1.295   2.322   3.188
  905SOL    HW2  333   1.185   2.265   3.081
  909SOL     OW  334   1.252   3.210   2.250
  909SOL    HW1  335   1.302   3.287   2.290
  909SOL    HW2  336   1.157   3.212   2.282
  910SOL     OW  337   1.272   3.307   3.004
  910SOL    HW1  338   1.319   3.320   3.091
  910SOL    HW2  339   1.206   3.233   3.013
  911SOL     OW  340   1.582   2.501   2.334
  911SOL    HW1  341   1.551   2.562   2.407
  911SOL    HW2  342   1.632   2.553   2.265
  914SOL     OW  343   1.587   2.641   3.532
  914SOL    HW1  344   1.495   2.679   3.527
  914SOL    HW2  345   1.647   2.688   3.467
  918SOL     OW  346   1.360   2.724   2.907
  918SOL    HW1  347   1.285   2.724   2.841
  918SOL    HW2  348   1.397   2.632   2.916
  919SOL     OW  349   1.209   2.387   2.137
  919SOL    HW1  350   1.222   2.303   2.191
  919SOL    HW2  351   1.180   2.461   2.197
  923SOL     OW  352   1.728   2.797   3.716
  923SOL    HW1  353   1.682   2.790   3.627
  923SOL    HW2  354   1.666   2.841   3.782
  925SOL     OW  355   1.622   2.229   2.236
  925SOL    HW1  356   1.624   2.153   2.300
  925SOL    HW2  357   1.574   2.306   2.276
  926SOL     OW  358   1.023   2.628   2.828
  926SOL    HW1  359   1.038   2.649   2.924
  926SOL    HW2  360   0.993   2.533   2.819
  928SOL     OW  361   1.859   3.380   3.467
  928SOL    HW1  362   1.873   3.407   3.372
  928SOL    HW2  363   1.942   3.402   3.520
  930SOL     OW  364   1.540   2.136   1.987
  930SOL    HW1  365   1.479   2.061   2.010
  930SOL    HW2  366   1.562   2.188   2.070
  931SOL     OW  367   1.303   2.700   1.904
  931SOL    HW1  368   1.337   2.607   1.919
  931SOL    HW2  369   1.321   2.727   1.809
  932SOL     OW  370   1.068   3.195   2.711
  932SOL    HW1  371   1.075   3.111   2.656
  932SOL    HW2  372   1.130   3.264   2.675
  935SOL     OW  373   1.138   2.242   3.540
  935SOL    HW1  374   1.093   2.305   3.604
  935SOL    HW2  375   1.231   2.273   3.523
  936SOL     OW  376   1.160   2.069   3.339
  936SOL    HW1  377   1.160   2.133   3.416
  936SOL    HW2  378   1.188   2.117   3.256
  940SOL     OW  379   1.002   2.658   3.100
  940SOL    HW1  380   1.043   2.626   3.186
  940SOL    HW2  381   0.906   2.631   3.097
  943SOL     OW  382   1.369   2.812   3.522
  943SOL    HW1  383   1.408   2.901   3.542
  943SOL    HW2  384   1.379   2.792   3.425
  945SOL     OW  385   1.657   2.466   3.068
  945SOL    HW1  386   1.619   2.397   3.130
  945SOL    HW2  387   1.739   2.430   3.024
  951SOL     OW  388   1.347   2.921   3.096
  951SOL    HW1  389   1.371   2.858   3.022
  951SOL    HW2  390   1.257   2.961   3.078
  952SOL     OW  391   1.302   2.717   2.171
  952SOL    HW1  392   1.216   2.686   2.213
  952SOL    HW2  393   1.298   2.703   2.072
  953SOL     OW  394   1.759   3.609   3.016
  953SOL    HW1  395   1.820   3.639   2.943
  953SOL    HW2  396   1.721   3.520   2.994
  954SOL     OW  397   1.252   3.593   2.990
  954SOL    HW1  398   1.336   3.598   2.936
  954SOL    HW2  399   1.229   3.497   3.008
  957SOL     OW  400   1.726   1.997   2.385
  957SOL    HW1  401   1.799   1.980   2.318
  957SOL    HW2  402   1.695   1.910   2.423
  958SOL     OW  403   1.388   3.435   2.339
  958SOL    HW1  404   1.455   3.447   2.265
  958SOL    HW2  405   1.348   3.524   2.362
  960SOL     OW  406   1.280   2.789   2.534
  960SOL    HW1  407   1.340   2.708   2.536
  960SOL    HW2  408   1.320   2.858   2.474
  963SOL     OW  409   1.650   3.582   3.256
  963SOL    HW1  410   1.703   3.592   3.172
  963SOL    HW2  411   1.623   3.672   3.290
  964SOL     OW  412   1.841   2.037   2.825
  964SOL    HW1  413   1.880   1.952   2.789
  964SOL    HW2  414   1.743   2.039   2.806
  966SOL     OW  415   1.194   3.474   1.893
  966SOL    HW1  416   1.200   3.381   1.930
  966SOL    HW2  417   1.135   3.474   1.813
  968SOL     OW  418   0.916   2.772   2.153
  968SOL    HW1  419   0.979   2.810   2.085
  968SOL    HW2  420   0.956   2.689   2.192
  969SOL     OW  421   1.504   3.469   1.906
  969SOL    HW1  422   1.412   3.506   1.913
  969SOL    HW2  423   1.542   3.489   1.816
  971SOL     OW  424   1.614   3.154   3.151
  971SOL    HW1  425   1.674   3.157   3.231
  971SOL    HW2  426   1.539   3.218   3.164
  972SOL     OW  427   1.039   2.960   2.558
  972SOL    HW1  428   0.969   2.913   2.612
  972SOL    HW2  429   1.098   2.892   2.515
  973SOL     OW  430   1.014   2.098   2.833
  973SOL    HW1  431   1.006   2.062   2.740
  973SOL    HW2  432   1.012   2.022   2.898
  975SOL     OW  433   1.709   2.247   3.243
  975SOL    HW1  434   1.782   2.316   3.247
  975SOL    HW2  435   1.737   2.172   3.184
  980SOL     OW  436   1.440   2.718   3.260
  980SOL    HW1  437   1.383   2.770   3.197
  980SOL    HW2  438   1.536   2.730   3.236
  982SOL     OW  439   1.183   3.197   1.981
  982SOL    HW1  440   1.084   3.186   1.983
  982SOL    HW2  441   1.217   3.212   2.074
  984SOL     OW  442   1.493   3.629   2.821
  984SOL    HW1  443   1.526   3.693   2.752
  984SOL    HW2  444   1.559   3.623   2.896
  986SOL     OW  445   1.450   3.082   3.495
  986SOL    HW1  446   1.441   3.072   3.594
  986SOL    HW2  447   1.546   3.075   3.469
  988SOL     OW  448   1.674   2.745   3.116
  988SOL    HW1  449   1.647   2.656   3.079
  988SOL    HW2  450   1.675   2.813   3.043
  989SOL     OW  451   1.225   2.187   2.311
  989SOL    HW1  452   1.290   2.113   2.300
  989SOL    HW2  453   1.245   2.237   2.395
  991SOL     OW  454   1.777   2.204   3.504
  991SOL    HW1  455   1.760   2.235   3.410
  991SOL    HW2  456   1.693   2.167   3.542
  992SOL     OW  457   1.730   2.796   3.379
  992SOL    HW1  458   1.768   2.887   3.394
  992SOL    HW2  459   1.722   2.779   3.280
  995SOL     OW  460   0.859   2.818   2.723
  995SOL    HW1  461   0.913   2.749   2.771
  995SOL    HW2  462   0.827   2.887   2.789
  996SOL     OW  463   1.083   2.846   1.949
  996SOL    HW1  464   1.060   2.899   1.867
  996SOL    HW2  465   1.164   2.790   1.930
  997SOL     OW  466   1.861   3.431   2.713
  997SOL    HW1  467   1.790   3.419   2.643
  997SOL    HW2  468   1.862   3.352   2.773
 1001SOL     OW  469   1.824   2.054   3.089
 1001SOL    HW1  470   1.820   1.964   3.133
 1001SOL    HW2  471   1.827   2.043   2.990
 1003SOL     OW  472   1.705   3.349   2.966
 1003SOL    HW1  473   1.612   3.324   2.939
 1003SOL    HW2  474   1.731   3.299   3.048
 1006SOL     OW  475   1.424   2.076   2.974
 1006SOL    HW1  476   1.476   2.011   3.029
 1006SOL    HW2  477   1.375   2.139   3.035
 1007SOL     OW  478   1.001   1.896   3.016
 1007SOL    HW1  479   0.938   1.824   2.985
 1007SOL    HW2  480   1.094   1.860   3.016
 1010SOL     OW  481   1.352   1.914   2.030
 1010SOL    HW1  482   1.387   1.873   1.946
 1010SOL    HW2  483   1.262   1.876   2.050
 1011SOL     OW  484   1.300   2.315   2.553
 1011SOL    HW1  485   1.241   2.395   2.557
 1011SOL    HW2  486   1.315   2.280   2.646
 1012SOL     OW  487   1.593   2.083   2.744
 1012SOL    HW1  488   1.509   2.082   2.798
 1012SOL    HW2  489   1.595   2.166   2.688
 1021SOL     OW  490   1.755   2.469   3.955
 1021SOL    HW1  491   1.743   2.456   3.856
 1021SOL    HW2  492   1.725   2.388   4.004
 1040SOL     OW  493   1.525   2.861   3.914
 1040SOL    HW1  494   1.462   2.785   3.927
 1040SOL    HW2  495   1.573   2.879   4.000
 1060SOL     OW  496   1.632   3.239   3.805
 1060SOL    HW1  497   1.600   3.333   3.795
 1060SOL    HW2  498   1.556   3.176   3.793
 1071SOL     OW  499   1.434   3.050   3.765
 1071SOL    HW1  500   1.466   2.974   3.822
 1071SOL    HW2  501   1.342   3.077   3.795
 1083SOL     OW  502   1.857   2.695   4.101
 1083SOL    HW1  503   1.899   2.631   4.165
 1083SOL    HW2  504   1.819   2.644   4.023
 1086SOL     OW  505   1.390   2.437   3.802
 1086SOL    HW1  506   1.336   2.416   3.883
 1086SOL    HW2  507   1.481   2.396   3.811
 1112SOL     OW  508   1.540   2.136   3.849
 1112SOL    HW1  509   1.479   2.061   3.872
 1112SOL    HW2  510   1.562   2.188   3.932
 1113SOL     OW  511   1.303   2.700   3.766
 1113SOL    HW1  512   1.337   2.607   3.781
 1113SOL    HW2  513   1.321   2.727   3.671
 1364SOL     OW  514   1.594   3.838   3.342
 1364SOL    HW1  515   1.576   3.905   3.270
 1364SOL    HW2  516   1.591   3.884   3.431
 1395SOL     OW  517   1.400   3.831   2.288
 1395SOL    HW1  518   1.376   3.794   2.198
 1395SOL    HW2  519   1.499   3.847   2.292
 1470SOL     OW  520   1.726   3.859   2.385
 1470SOL    HW1  521   1.799   3.842   2.318
 1470SOL    HW2  522   1.695   3.772   2.423
 1473SOL     OW  523   1.841   3.899   2.825
 1473SOL    HW1  524   1.880   3.814   2.789
 1473SOL    HW2  525   1.743   3.901   2.806
 1502SOL     OW  526   1.824   3.916   3.089
 1502SOL    HW1  527   1.820   3.826   3.133
 1502SOL    HW2  528   1.827   3.905   2.990
 1511SOL     OW  529   1.593   3.945   2.744
 1511SOL    HW1  530   1.509   3.944   2.798
 1511SOL    HW2  531   1.595   4.028   2.688
 1656SOL     OW  532   2.548   1.161   1.803
 1656SOL    HW1  533   2.608   1.240   1.817
 1656SOL    HW2  534   2.462   1.192   1.762
 1662SOL     OW  535   2.989   1.341   1.690
 1662SOL    HW1  536   3.036   1.341   1.778
 1662SOL    HW2  537   2.941   1.254   1.679
 1665SOL     OW  538   2.482   1.786   1.439
 1665SOL    HW1  539   2.390   1.769   1.474
 1665SOL    HW2  540   2.510   1.878   1.465
 1679SOL     OW  541   3.049   1.792   1.616
 1679SOL    HW1  542   3.073   1.852   1.540
 1679SOL    HW2  543   3.056   1.697   1.586
 1692SOL     OW  544   1.992   1.821   1.571
 1692SOL    HW1  545   1.982   1.806   1.670
 1692SOL    HW2  546   1.906   1.857   1.535
 1700SOL     OW  547   3.089   1.550   1.506
 1700SOL    HW1  548   3.095   1.473   1.570
 1700SOL    HW2  549   3.037   1.524   1.426
 1703SOL     OW  550   2.323   1.266   1.727
 1703SOL    HW1  551   2.273   1.267   1.641
 1703SOL    HW2  552   2.260   1.248   1.803
 1709SOL     OW  553   2.111   1.785   1.241
 1709SOL    HW1  554   2.168   1.720   1.291
 1709SOL    HW2  555   2.095   1.752   1.148
 1715SOL     OW  556   2.750   1.514   1.195
 1715SOL    HW1  557   2.727   1.489   1.101
 1715SOL    HW2  558   2.811   1.445   1.234
 1740SOL     OW  559   2.926   1.347   1.340
 1740SOL    HW1  560   2.846   1.324   1.395
 1740SOL    HW2  561   3.009   1.321   1.389
 1741SOL     OW  562   3.454   1.629   1.625
 1741SOL    HW1  563   3.481   1.663   1.535
 1741SOL    HW2  564   3.533   1.591   1.671
 1745SOL     OW  565   2.842   1.116   1.719
 1745SOL    HW1  566   2.743   1.122   1.729
 1745SOL    HW2  567   2.865   1.036   1.663
 1749SOL     OW  568   1.926   1.564   1.331
 1749SOL    HW1  569   1.880   1.646   1.297
 1749SOL    HW2  570   2.024   1.583   1.340
 1755SOL     OW  571   2.216   1.510   1.329
 1755SOL    HW1  572   2.195   1.466   1.242
 1755SOL    HW2  573   2.313   1.536   1.332
 1770SOL     OW  574   2.842   1.573   1.700
 1770SOL    HW1  575   2.822   1.617   1.612
 1770SOL    HW2  576   2.881   1.482   1.684
 1788SOL     OW  577   2.114   1.564   1.744
 1788SOL    HW1  578   2.084   1.621   1.820
 1788SOL    HW2  579   2.107   1.467   1.770
 1790SOL     OW  580   2.792   1.678   1.465
 1790SOL    HW1  581   2.768   1.660   1.370
 1790SOL    HW2  582   2.822   1.772   1.475
 1796SOL     OW  583   3.114   1.731   1.128
 1796SOL    HW1  584   3.198   1.736   1.074
 1796SOL    HW2  585   3.091   1.635   1.146
 1798SOL     OW  586   2.550   1.662   1.716
 1798SOL    HW1  587   2.494   1.743   1.725
 1798SOL    HW2  588   2.602   1.666   1.630
 1802SOL     OW  589   1.992   1.794   1.851
 1802SOL    HW1  590   1.951   1.720   1.904
 1802SOL    HW2  591   2.056   1.845   1.909
 1804SOL     OW  592   2.692   1.273   1.422
 1804SOL    HW1  593   2.687   1.306   1.517
 1804SOL    HW2  594   2.606   1.292   1.376
 1806SOL     OW  595   3.512   1.720   1.394
 1806SOL    HW1  596   3.565   1.730   1.310
 1806SOL    HW2  597   3.485   1.810   1.428
 1813SOL     OW  598   2.234   1.288   1.490
 1813SOL    HW1  599   2.221   1.381   1.456
 1813SOL    HW2  600   2.150   1.236   1.477
 1830SOL     OW  601   2.252   1.741   1.560
 1830SOL    HW1  602   2.161   1.782   1.558
 1830SOL    HW2  603   2.245   1.647   1.592
 1841SOL     OW  604   2.083   1.314   1.844
 1841SOL    HW1  605   2.018   1.241   1.823
 1841SOL    HW2  606   2.087   1.328   1.942
 1843SOL     OW  607   2.534   1.391   1.624
 1843SOL    HW1  608   2.456   1.341   1.662
 1843SOL    HW2  609   2.531   1.486   1.655
 1852SOL     OW  610   2.480   1.567   1.284
 1852SOL    HW1  611   2.475   1.649   1.341
 1852SOL    HW2  612   2.569   1.564   1.239
 1861SOL     OW  613   2.431   1.275   3.027
 1861SOL    HW1  614   2.338   1.268   2.990
 1861SOL    HW2  615   2.442   1.364   3.071
 1862SOL     OW  616   3.417   1.511   2.565
 1862SOL    HW1  617   3.360   1.495   2.646
 1862SOL    HW2  618   3.358   1.521   2.485
 1865SOL     OW  619   2.630   1.144   2.885
 1865SOL    HW1  620   2.552   1.161   2.945
 1865SOL    HW2  621   2.664   1.231   2.849
 1867SOL     OW  622   2.547   1.012   2.527
 1867SOL    HW1  623   2.616   0.996   2.597
 1867SOL    HW2  624   2.474   1.069   2.565
 1868SOL     OW  625   2.548   1.161   3.665
 1868SOL    HW1  626   2.608   1.240   3.679
 1868SOL    HW2  627   2.462   1.192   3.624
 1869SOL     OW  628   2.197   1.435   2.923
 1869SOL    HW1  629   2.119   1.404   2.870
 1869SOL    HW2  630   2.255   1.493   2.866
 1870SOL     OW  631   3.322   1.505   3.201
 1870SOL    HW1  632   3.346   1.599   3.227
 1870SOL    HW2  633   3.306   1.451   3.283
 1873SOL     OW  634   2.093   1.713   2.345
 1873SOL    HW1  635   2.127   1.790   2.399
 1873SOL    HW2  636   2.137   1.713   2.255
 1874SOL     OW  637   2.989   1.341   3.552
 1874SOL    HW1  638   3.036   1.341   3.640
 1874SOL    HW2  639   2.941   1.254   3.541
 1875SOL     OW  640   2.092   1.434   2.400
 1875SOL    HW1  641   2.066   1.530   2.400
 1875SOL    HW2  642   2.021   1.380   2.445
 1876SOL     OW  643   2.102   1.091   2.748
 1876SOL    HW1  644   2.116   1.007   2.800
 1876SOL    HW2  645   2.047   1.155   2.803
 1877SOL     OW  646   2.482   1.786   3.301
 1877SOL    HW1  647   2.390   1.769   3.336
 1877SOL    HW2  648   2.510   1.878   3.327
 1878SOL     OW  649   2.468   0.964   1.985
 1878SOL    HW1  650   2.475   1.048   1.931
 1878SOL    HW2  651   2.514   0.977   2.073
 1881SOL     OW  652   3.704   1.767   2.221
 1881SOL    HW1  653   3.758   1.738   2.301
 1881SOL    HW2  654   3.734   1.857   2.192
 1882SOL     OW  655   1.889   1.596   1.979
 1882SOL    HW1  656   1.870   1.500   2.000
 1882SOL    HW2  657   1.856   1.654   2.054
 1884SOL     OW  658   3.503   1.108   2.294
 1884SOL    HW1  659   3.589   1.110   2.242
 1884SOL    HW2  660   3.517   1.155   2.382
 1886SOL     OW  661   2.475   1.365   2.588
 1886SOL    HW1  662   2.426   1.278   2.597
 1886SOL    HW2  663   2.452   1.408   2.501
 1887SOL     OW  664   3.155   1.228   3.285
 1887SOL    HW1  665   3.192   1.155   3.227
 1887SOL    HW2  666   3.207   1.233   3.370
 1889SOL     OW  667   2.059   0.976   3.126
 1889SOL    HW1  668   2.148   0.931   3.112
 1889SOL    HW2  669   1.986   0.911   3.107
 1891SOL     OW  670   3.049   1.792   3.478
 1891SOL    HW1  671   3.073   1.852   3.402
 1891SOL    HW2  672   3.056   1.697   3.448
 1893SOL     OW  673   3.328   1.417   2.815
 1893SOL    HW1  674   3.269   1.423   2.895
 1893SOL    HW2  675   3.313   1.329   2.769
 1894SOL     OW  676   3.529   1.714   2.434
 1894SOL    HW1  677   3.488   1.691   2.346
 1894SOL    HW2  678   3.511   1.640   2.499
 1897SOL     OW  679   3.438   1.662   2.169
 1897SOL    HW1  680   3.527   1.708   2.172
 1897SOL    HW2  681   3.417   1.638   2.074
 1904SOL     OW  682   1.992   1.821   3.433
 1904SOL    HW1  683   1.982   1.806   3.532
 1904SOL    HW2  684   1.906   1.857   3.397
 1907SOL     OW  685   3.224   1.144   2.407
 1907SOL    HW1  686   3.307   1.115   2.359
 1907SOL    HW2  687   3.175   1.211   2.351
 1909SOL     OW  688   2.870   1.456   2.339
 1909SOL    HW1  689   2.824   1.528   2.287
 1909SOL    HW2  690   2.866   1.476   2.437
 1910SOL     OW  691   2.213   1.801   2.715
 1910SOL    HW1  692   2.263   1.715   2.721
 1910SOL    HW2  693   2.278   1.878   2.712
 1912SOL     OW  694   3.089   1.550   3.368
 1912SOL    HW1  695   3.095   1.473   3.432
 1912SOL    HW2  696   3.037   1.524   3.288
 1913SOL     OW  697   2.183   0.943   2.104
 1913SOL    HW1  698   2.265   0.982   2.062
 1913SOL    HW2  699   2.156   0.861   2.055
 1915SOL     OW  700   2.323   1.266   3.589
 1915SOL    HW1  701   2.273   1.267   3.503
 1915SOL    HW2  702   2.260   1.248   3.665
 1916SOL     OW  703   2.973   1.776   2.099
 1916SOL    HW1  704   2.913   1.714   2.149
 1916SOL    HW2  705   3.004   1.732   2.014
 1918SOL     OW  706   3.494   1.377   1.943
 1918SOL    HW1  707   3.462   1.471   1.933
 1918SOL    HW2  708   3.418   1.314   1.931
 1919SOL     OW  709   2.326   1.743   2.185
 1919SOL    HW1  710   2.359   1.782   2.271
 1919SOL    HW2  711   2.402   1.736   2.120
 1921SOL     OW  712   2.111   1.785   3.103
 1921SOL    HW1  713   2.168   1.720   3.153
 1921SOL    HW2  714   2.095   1.752   3.010
 1922SOL     OW  715   2.802   1.698   2.766
 1922SOL    HW1  716   2.882   1.641   2.787
 1922SOL    HW2  717   2.753   1.658   2.689
 1927SOL     OW  718   2.750   1.514   3.057
 1927SOL    HW1  719   2.727   1.489   2.963
 1927SOL    HW2  720   2.811   1.445   3.096
 1929SOL     OW  721   2.665   1.402   2.786
 1929SOL    HW1  722   2.755   1.416   2.744
 1929SOL    HW2  723   2.594   1.404   2.715
 1932SOL     OW  724   3.296   1.188   1.903
 1932SOL    HW1  725   3.328   1.112   1.960
 1932SOL    HW2  726   3.204   1.215   1.933
 1936SOL     OW  727   3.089   1.570   2.655
 1936SOL    HW1  728   3.110   1.644   2.590
 1936SOL    HW2  729   3.157   1.570   2.728
 1937SOL     OW  730   2.321   1.152   2.603
 1937SOL    HW1  731   2.250   1.125   2.668
 1937SOL    HW2  732   2.295   1.124   2.510
 1938SOL     OW  733   3.133   1.797   2.453
 1938SOL    HW1  734   3.177   1.861   2.389
 1938SOL    HW2  735   3.083   1.849   2.523
 1944SOL     OW  736   3.291   1.173   2.729
 1944SOL    HW1  737   3.236   1.089   2.722
 1944SOL    HW2  738   3.317   1.202   2.637
 1947SOL     OW  739   2.350   1.385   2.036
 1947SOL    HW1  740   2.263   1.370   2.083
 1947SOL    HW2  741   2.333   1.411   1.941
 1948SOL     OW  742   3.526   1.280   2.519
 1948SOL    HW1  743   3.625   1.288   2.533
 1948SOL    HW2  744   3.481   1.364   2.550
 1952SOL     OW  745   2.926   1.347   3.202
 1952SOL    HW1  746   2.846   1.324   3.257
 1952SOL    HW2  747   3.009   1.321   3.251
 1953SOL     OW  748   3.454   1.629   3.487
 1953SOL    HW1  749   3.481   1.663   3.397
 1953SOL    HW2  750   3.533   1.591   3.533
 1954SOL     OW  751   2.973   1.195   2.962
 1954SOL    HW1  752   2.933   1.239   3.043
 1954SOL    HW2  753   2.932   1.232   2.879
 1955SOL     OW  754   3.500   1.099   2.941
 1955SOL    HW1  755   3.505   1.180   3.000
 1955SOL    HW2  756   3.414   1.101   2.890
 1957SOL     OW  757   2.842   1.116   3.581
 1957SOL    HW1  758   2.743   1.122   3.591
 1957SOL    HW2  759   2.865   1.036   3.525
 1958SOL     OW  760   2.567   1.050   2.230
 1958SOL    HW1  761   2.553   1.057   2.329
 1958SOL    HW2  762   2.651   0.999   2.212
 1961SOL     OW  763   1.926   1.564   3.193
 1961SOL    HW1  764   1.880   1.646   3.159
 1961SOL    HW2  765   2.024   1.583   3.202
 1962SOL     OW  766   2.229   1.100   2.363
 1962SOL    HW1  767   2.222   1.183   2.307
 1962SOL    HW2  768   2.233   1.020   2.303
 1964SOL     OW  769   3.114   1.348   2.250
 1964SOL    HW1  770   3.164   1.425   2.290
 1964SOL    HW2  771   3.019   1.350   2.282
 1965SOL     OW  772   3.134   1.445   3.004
 1965SOL    HW1  773   3.181   1.458   3.091
 1965SOL    HW2  774   3.068   1.371   3.013
 1967SOL     OW  775   2.216   1.510   3.191
 1967SOL    HW1  776   2.195   1.466   3.104
 1967SOL    HW2  777   2.313   1.536   3.194
 1972SOL     OW  778   2.435   0.870   2.891
 1972SOL    HW1  779   2.479   0.959   2.882
 1972SOL    HW2  780   2.372   0.870   2.968
 1976SOL     OW  781   1.899   1.310   3.144
 1976SOL    HW1  782   1.952   1.261   3.212
 1976SOL    HW2  783   1.921   1.408   3.149
 1982SOL     OW  784   2.842   1.573   3.562
 1982SOL    HW1  785   2.822   1.617   3.474
 1982SOL    HW2  786   2.881   1.482   3.546
 1983SOL     OW  787   3.721   1.518   3.467
 1983SOL    HW1  788   3.735   1.545   3.372
 1983SOL    HW2  789   3.804   1.540   3.520
 1987SOL     OW  790   2.930   1.333   2.711
 1987SOL    HW1  791   2.937   1.249   2.656
 1987SOL    HW2  792   2.992   1.402   2.675
 1992SOL     OW  793   1.870   1.326   2.062
 1992SOL    HW1  794   1.777   1.347   2.031
 1992SOL    HW2  795   1.880   1.227   2.075
 1993SOL     OW  796   1.950   1.801   2.789
 1993SOL    HW1  797   1.908   1.715   2.762
 1993SOL    HW2  798   2.044   1.804   2.755
 1994SOL     OW  799   2.366   1.568   2.772
 1994SOL    HW1  800   2.432   1.642   2.781
 1994SOL    HW2  801   2.410   1.489   2.730
 2001SOL     OW  802   2.114   1.564   3.606
 2001SOL    HW1  803   2.084   1.621   3.682
 2001SOL    HW2  804   2.107   1.467   3.632
 2003SOL     OW  805   2.792   1.678   3.327
 2003SOL    HW1  806   2.768   1.660   3.232
 2003SOL    HW2  807   2.822   1.772   3.337
 2005SOL     OW  808   2.021   1.137   3.328
 2005SOL    HW1  809   2.043   1.076   3.404
 2005SOL    HW2  810   2.031   1.088   3.242
 2006SOL     OW  811   3.209   1.059   3.096
 2006SOL    HW1  812   3.233   0.996   3.022
 2006SOL    HW2  813   3.119   1.099   3.078
 2008SOL     OW  814   3.621   1.747   3.016
 2008SOL    HW1  815   3.682   1.777   2.943
 2008SOL    HW2  816   3.583   1.658   2.994
 2009SOL     OW  817   3.114   1.731   2.990
 2009SOL    HW1  818   3.198   1.736   2.936
 2009SOL    HW2  819   3.091   1.635   3.008
 2010SOL     OW  820   1.945   1.258   2.884
 2010SOL    HW1  821   1.940   1.257   2.984
 2010SOL    HW2  822   1.862   1.217   2.846
 2011SOL     OW  823   2.550   1.662   3.578
 2011SOL    HW1  824   2.494   1.743   3.587
 2011SOL    HW2  825   2.602   1.666   3.492
 2013SOL     OW  826   3.250   1.573   2.339
 2013SOL    HW1  827   3.317   1.585   2.265
 2013SOL    HW2  828   3.210   1.662   2.362
 2014SOL     OW  829   1.992   1.794   3.713
 2014SOL    HW1  830   1.951   1.720   3.766
 2014SOL    HW2  831   2.056   1.845   3.771
 2015SOL     OW  832   3.142   0.927   2.534
 2015SOL    HW1  833   3.202   0.846   2.536
 2015SOL    HW2  834   3.182   0.996   2.474
 2016SOL     OW  835   2.692   1.273   3.284
 2016SOL    HW1  836   2.687   1.306   3.379
 2016SOL    HW2  837   2.606   1.292   3.238
 2017SOL     OW  838   2.534   1.616   2.016
 2017SOL    HW1  839   2.543   1.626   1.917
 2017SOL    HW2  840   2.494   1.527   2.037
 2018SOL     OW  841   3.512   1.720   3.256
 2018SOL    HW1  842   3.565   1.730   3.172
 2018SOL    HW2  843   3.485   1.810   3.290
 2021SOL     OW  844   3.056   1.612   1.893
 2021SOL    HW1  845   3.062   1.519   1.930
 2021SOL    HW2  846   2.997   1.612   1.813
 2022SOL     OW  847   2.684   1.002   3.234
 2022SOL    HW1  848   2.724   1.001   3.142
 2022SOL    HW2  849   2.694   1.094   3.274
 2023SOL     OW  850   2.778   0.910   2.153
 2023SOL    HW1  851   2.841   0.948   2.085
 2023SOL    HW2  852   2.818   0.827   2.192
 2024SOL     OW  853   3.366   1.607   1.906
 2024SOL    HW1  854   3.274   1.644   1.913
 2024SOL    HW2  855   3.404   1.627   1.816
 2025SOL     OW  856   2.234   1.288   3.352
 2025SOL    HW1  857   2.221   1.381   3.318
 2025SOL    HW2  858   2.150   1.236   3.339
 2026SOL     OW  859   3.476   1.292   3.151
 2026SOL    HW1  860   3.536   1.295   3.231
 2026SOL    HW2  861   3.401   1.356   3.164
 2027SOL     OW  862   2.901   1.098   2.558
 2027SOL    HW1  863   2.831   1.051   2.612
 2027SOL    HW2  864   2.960   1.030   2.515
 2029SOL     OW  865   2.452   1.487   2.353
 2029SOL    HW1  866   2.494   1.429   2.283
 2029SOL    HW2  867   2.408   1.566   2.309
 2031SOL     OW  868   2.117   1.348   2.152
 2031SOL    HW1  869   2.021   1.349   2.125
 2031SOL    HW2  870   2.129   1.401   2.236
 2037SOL     OW  871   3.045   1.335   1.981
 2037SOL    HW1  872   2.946   1.324   1.983
 2037SOL    HW2  873   3.079   1.350   2.074
 2039SOL     OW  874   3.355   1.767   2.821
 2039SOL    HW1  875   3.388   1.831   2.752
 2039SOL    HW2  876   3.421   1.761   2.896
 2041SOL     OW  877   3.312   1.220   3.495
 2041SOL    HW1  878   3.303   1.210   3.594
 2041SOL    HW2  879   3.408   1.213   3.469
 2042SOL     OW  880   2.252   1.741   3.422
 2042SOL    HW1  881   2.161   1.782   3.420
 2042SOL    HW2  882   2.245   1.647   3.454
 2048SOL     OW  883   2.721   1.374   1.878
 2048SOL    HW1  884   2.675   1.389   1.966
 2048SOL    HW2  885   2.765   1.459   1.848
 2049SOL     OW  886   2.523   1.790   2.815
 2049SOL    HW1  887   2.477   1.878   2.802
 2049SOL    HW2  888   2.622   1.802   2.808
 2050SOL     OW  889   2.721   0.956   2.723
 2050SOL    HW1  890   2.775   0.887   2.771
 2050SOL    HW2  891   2.689   1.025   2.789
 2051SOL     OW  892   2.945   0.984   1.949
 2051SOL    HW1  893   2.922   1.037   1.867
 2051SOL    HW2  894   3.026   0.928   1.930
 2052SOL     OW  895   3.723   1.569   2.713
 2052SOL    HW1  896   3.652   1.557   2.643
 2052SOL    HW2  897   3.724   1.490   2.773
 2053SOL     OW  898   2.083   1.314   3.706
 2053SOL    HW1  899   2.018   1.241   3.685
 2053SOL    HW2  900   2.087   1.328   3.804
 2054SOL     OW  901   1.941   1.240   2.515
 2054SOL    HW1  902   1.940   1.193   2.603
 2054SOL    HW2  903   2.023   1.212   2.464
 2055SOL     OW  904   2.534   1.391   3.486
 2055SOL    HW1  905   2.456   1.341   3.524
 2055SOL    HW2  906   2.531   1.486   3.517
 2058SOL     OW  907   3.567   1.487   2.966
 2058SOL    HW1  908   3.474   1.462   2.939
 2058SOL    HW2  909   3.593   1.437   3.048
 2060SOL     OW  910   2.674   1.586   2.549
 2060SOL    HW1  911   2.706   1.596   2.455
 2060SOL    HW2  912   2.595   1.524   2.551
 2063SOL     OW  913   2.632   1.330   2.163
 2063SOL    HW1  914   2.586   1.243   2.180
 2063SOL    HW2  915   2.723   1.327   2.204
 2064SOL     OW  916   2.480   1.567   3.146
 2064SOL    HW1  917   2.475   1.649   3.203
 2064SOL    HW2  918   2.569   1.564   3.101
 2068SOL     OW  919   1.901   1.077   2.162
 2068SOL    HW1  920   2.000   1.066   2.153
 2068SOL    HW2  921   1.861   0.991   2.194
 2069SOL     OW  922   2.737   1.646   2.199
 2069SOL    HW1  923   2.660   1.611   2.145
 2069SOL    HW2  924   2.705   1.717   2.261
 2089SOL     OW  925   1.889   1.596   3.841
 2089SOL    HW1  926   1.870   1.500   3.862
 2089SOL    HW2  927   1.856   1.654   3.916
 2114SOL     OW  928   2.973   1.776   3.961
 2114SOL    HW1  929   2.913   1.714   4.011
 2114SOL    HW2  930   3.004   1.732   3.876
 2116SOL     OW  931   2.326   1.743   4.047
 2116SOL    HW1  932   2.359   1.782   4.133
 2116SOL    HW2  933   2.402   1.736   3.982
 2139SOL     OW  934   2.350   1.385   3.898
 2139SOL    HW1  935   2.263   1.370   3.945
 2139SOL    HW2  936   2.333   1.411   3.803
 2191SOL     OW  937   2.534   1.616   3.878
 2191SOL    HW1  938   2.543   1.626   3.779
 2191SOL    HW2  939   2.494   1.527   3.899
 2194SOL     OW  940   3.056   1.612   3.755
 2194SOL    HW1  941   3.062   1.519   3.792
 2194SOL    HW2  942   2.997   1.612   3.675
 2197SOL     OW  943   3.366   1.607   3.768
 2197SOL    HW1  944   3.274   1.644   3.775
 2197SOL    HW2  945   3.404   1.627   3.678
 2215SOL     OW  946   2.721   1.374   3.740
 2215SOL    HW1  947   2.675   1.389   3.828
 2215SOL    HW2  948   2.765   1.459   3.710
 2234SOL     OW  949   2.737   1.646   4.061
 2234SOL    HW1  950   2.660   1.611   4.007
 2234SOL    HW2  951   2.705   1.717   4.123
 2236SOL     OW  952   2.087   2.137   0.996
 2236SOL    HW1  953   2.122   2.120   1.088
 2236SOL    HW2  954   1.999   2.092   0.984
 2238SOL     OW  955   2.431   3.137   1.165
 2238SOL    HW1  956   2.338   3.130   1.128
 2238SOL    HW2  957   2.442   3.226   1.209
 2242SOL     OW  958   2.630   3.006   1.023
 2242SOL    HW1  959   2.552   3.023   1.083
 2242SOL    HW2  960   2.664   3.093   0.987
 2243SOL     OW  961   2.712   2.660   1.823
 2243SOL    HW1  962   2.708   2.736   1.888
 2243SOL    HW2  963   2.734   2.696   1.732
 2245SOL     OW  964   2.548   3.023   1.803
 2245SOL    HW1  965   2.608   3.102   1.817
 2245SOL    HW2  966   2.462   3.054   1.762
 2246SOL     OW  967   2.197   3.297   1.061
 2246SOL    HW1  968   2.119   3.266   1.008
 2246SOL    HW2  969   2.255   3.355   1.004
 2247SOL     OW  970   3.322   3.367   1.339
 2247SOL    HW1  971   3.346   3.461   1.365
 2247SOL    HW2  972   3.306   3.313   1.421
 2248SOL     OW  973   2.300   2.254   1.499
 2248SOL    HW1  974   2.382   2.198   1.508
 2248SOL    HW2  975   2.219   2.196   1.503
 2251SOL     OW  976   2.989   3.203   1.690
 2251SOL    HW1  977   3.036   3.203   1.778
 2251SOL    HW2  978   2.941   3.116   1.679
 2254SOL     OW  979   2.482   3.648   1.439
 2254SOL    HW1  980   2.390   3.631   1.474
 2254SOL    HW2  981   2.510   3.740   1.465
 2256SOL     OW  982   3.456   1.976   1.480
 2256SOL    HW1  983   3.438   2.043   1.408
 2256SOL    HW2  984   3.453   2.022   1.569
 2262SOL     OW  985   1.975   2.599   1.597
 2262SOL    HW1  986   2.063   2.586   1.642
 2262SOL    HW2  987   1.962   2.696   1.575
 2264SOL     OW  988   3.155   3.090   1.423
 2264SOL    HW1  989   3.192   3.017   1.365
 2264SOL    HW2  990   3.207   3.095   1.508
 2266SOL     OW  991   2.059   2.838   1.264
 2266SOL    HW1  992   2.148   2.793   1.250
 2266SOL    HW2  993   1.986   2.773   1.245
 2268SOL     OW  994   3.049   3.654   1.616
 2268SOL    HW1  995   3.073   3.714   1.540
 2268SOL    HW2  996   3.056   3.559   1.586
 2269SOL     OW  997   2.179   2.113   1.801
 2269SOL    HW1  998   2.250   2.184   1.807
 2269SOL    HW2  999   2.091   2.152   1.829
 2273SOL     OW 1000   3.143   2.207   0.944
 2273SOL    HW1 1001   3.057   2.157   0.931
 2273SOL    HW2 1002   3.205   2.153   1.000
 2275SOL     OW 1003   2.669   2.467   1.465
 2275SOL    HW1 1004   2.622   2.464   1.554
 2275SOL    HW2 1005   2.618   2.412   1.399
 2276SOL     OW 1006   3.256   2.331   1.674
 2276SOL    HW1 1007   3.236   2.374   1.762
 2276SOL    HW2 1008   3.334   2.269   1.683
 2277SOL     OW 1009   2.835   2.752   1.572
 2277SOL    HW1 1010   2.881   2.668   1.543
 2277SOL    HW2 1011   2.779   2.786   1.497
 2278SOL     OW 1012   2.853   2.272   1.242
 2278SOL    HW1 1013   2.776   2.306   1.296
 2278SOL    HW2 1014   2.819   2.221   1.163
 2281SOL     OW 1015   1.992   3.683   1.571
 2281SOL    HW1 1016   1.982   3.668   1.670
 2281SOL    HW2 1017   1.906   3.719   1.535
 2283SOL     OW 1018   3.581   2.447   1.831
 2283SOL    HW1 1019   3.555   2.536   1.795
 2283SOL    HW2 1020   3.579   2.379   1.758
 2289SOL     OW 1021   3.089   3.412   1.506
 2289SOL    HW1 1022   3.095   3.335   1.570
 2289SOL    HW2 1023   3.037   3.386   1.426
 2292SOL     OW 1024   2.323   3.128   1.727
 2292SOL    HW1 1025   2.273   3.129   1.641
 2292SOL    HW2 1026   2.260   3.110   1.803
 2294SOL     OW 1027   2.064   2.147   1.498
 2294SOL    HW1 1028   1.984   2.207   1.485
 2294SOL    HW2 1029   2.054   2.098   1.584
 2298SOL     OW 1030   2.111   3.647   1.241
 2298SOL    HW1 1031   2.168   3.582   1.291
 2298SOL    HW2 1032   2.095   3.614   1.148
 2301SOL     OW 1033   3.409   2.084   1.729
 2301SOL    HW1 1034   3.404   2.121   1.821
 2301SOL    HW2 1035   3.337   2.015   1.717
 2302SOL     OW 1036   2.643   2.126   1.749
 2302SOL    HW1 1037   2.710   2.065   1.792
 2302SOL    HW2 1038   2.570   2.145   1.814
 2303SOL     OW 1039   2.750   3.376   1.195
 2303SOL    HW1 1040   2.727   3.351   1.101
 2303SOL    HW2 1041   2.811   3.307   1.234
 2304SOL     OW 1042   3.213   2.452   1.433
 2304SOL    HW1 1043   3.241   2.409   1.518
 2304SOL    HW2 1044   3.238   2.548   1.434
 2306SOL     OW 1045   2.784   2.365   0.899
 2306SOL    HW1 1046   2.759   2.356   0.803
 2306SOL    HW2 1047   2.832   2.283   0.930
 2310SOL     OW 1048   2.938   2.545   1.464
 2310SOL    HW1 1049   2.858   2.484   1.467
 2310SOL    HW2 1050   3.019   2.492   1.440
 2315SOL     OW 1051   1.940   2.418   1.386
 2315SOL    HW1 1052   2.032   2.417   1.345
 2315SOL    HW2 1053   1.934   2.492   1.453
 2316SOL     OW 1054   2.423   2.084   1.147
 2316SOL    HW1 1055   2.461   2.000   1.184
 2316SOL    HW2 1056   2.335   2.103   1.191
 2320SOL     OW 1057   3.328   2.452   0.992
 2320SOL    HW1 1058   3.298   2.357   0.999
 2320SOL    HW2 1059   3.401   2.468   1.058
 2326SOL     OW 1060   3.616   3.085   1.588
 2326SOL    HW1 1061   3.707   3.046   1.575
 2326SOL    HW2 1062   3.624   3.181   1.612
 2327SOL     OW 1063   2.926   3.209   1.340
 2327SOL    HW1 1064   2.846   3.186   1.395
 2327SOL    HW2 1065   3.009   3.183   1.389
 2328SOL     OW 1066   3.454   3.491   1.625
 2328SOL    HW1 1067   3.481   3.525   1.535
 2328SOL    HW2 1068   3.533   3.453   1.671
 2329SOL     OW 1069   2.973   3.057   1.100
 2329SOL    HW1 1070   2.933   3.101   1.181
 2329SOL    HW2 1071   2.932   3.094   1.017
 2331SOL     OW 1072   2.777   1.951   1.402
 2331SOL    HW1 1073   2.802   1.931   1.307
 2331SOL    HW2 1074   2.849   2.007   1.444
 2332SOL     OW 1075   2.842   2.978   1.719
 2332SOL    HW1 1076   2.743   2.984   1.729
 2332SOL    HW2 1077   2.865   2.898   1.663
 2334SOL     OW 1078   2.272   2.675   1.251
 2334SOL    HW1 1079   2.358   2.687   1.301
 2334SOL    HW2 1080   2.230   2.588   1.278
 2335SOL     OW 1081   3.136   2.248   1.262
 2335SOL    HW1 1082   3.157   2.322   1.326
 2335SOL    HW2 1083   3.047   2.265   1.219
 2336SOL     OW 1084   1.926   3.426   1.331
 2336SOL    HW1 1085   1.880   3.508   1.297
 2336SOL    HW2 1086   2.024   3.445   1.340
 2338SOL     OW 1087   2.428   2.399   0.865
 2338SOL    HW1 1088   2.440   2.465   0.791
 2338SOL    HW2 1089   2.474   2.433   0.948
 2340SOL     OW 1090   3.134   3.307   1.142
 2340SOL    HW1 1091   3.181   3.320   1.229
 2340SOL    HW2 1092   3.068   3.233   1.151
 2342SOL     OW 1093   2.216   3.372   1.329
 2342SOL    HW1 1094   2.195   3.328   1.242
 2342SOL    HW2 1095   2.313   3.398   1.332
 2343SOL     OW 1096   2.264   2.613   1.598
 2343SOL    HW1 1097   2.332   2.668   1.551
 2343SOL    HW2 1098   2.304   2.525   1.625
 2344SOL     OW 1099   3.449   2.641   1.670
 2344SOL    HW1 1100   3.357   2.679   1.665
 2344SOL    HW2 1101   3.509   2.688   1.605
 2345SOL     OW 1102   2.875   1.967   1.770
 2345SOL    HW1 1103   2.881   2.052   1.718
 2345SOL    HW2 1104   2.907   1.891   1.713
 2346SOL     OW 1105   2.366   1.912   1.740
 2346SOL    HW1 1106   2.324   1.855   1.670
 2346SOL    HW2 1107   2.300   1.981   1.772
 2347SOL     OW 1108   2.435   2.732   1.029
 2347SOL    HW1 1109   2.479   2.821   1.020
 2347SOL    HW2 1110   2.372   2.732   1.106
 2348SOL     OW 1111   3.222   2.724   1.045
 2348SOL    HW1 1112   3.147   2.724   0.979
 2348SOL    HW2 1113   3.259   2.632   1.054
 2350SOL     OW 1114   2.169   2.075   1.231
 2350SOL    HW1 1115   2.146   2.112   1.321
 2350SOL    HW2 1116   2.139   1.980   1.225
 2351SOL     OW 1117   1.899   3.172   1.282
 2351SOL    HW1 1118   1.952   3.123   1.350
 2351SOL    HW2 1119   1.921   3.270   1.287
 2352SOL     OW 1120   2.594   2.496   1.064
 2352SOL    HW1 1121   2.653   2.470   0.988
 2352SOL    HW2 1122   2.566   2.592   1.053
 2353SOL     OW 1123   3.590   2.797   1.854
 2353SOL    HW1 1124   3.544   2.790   1.765
 2353SOL    HW2 1125   3.528   2.841   1.920
 2356SOL     OW 1126   2.885   2.628   0.966
 2356SOL    HW1 1127   2.900   2.649   1.062
 2356SOL    HW2 1128   2.855   2.533   0.957
 2357SOL     OW 1129   2.842   3.435   1.700
 2357SOL    HW1 1130   2.822   3.479   1.612
 2357SOL    HW2 1131   2.881   3.344   1.684
 2358SOL     OW 1132   3.721   3.380   1.605
 2358SOL    HW1 1133   3.735   3.407   1.510
 2358SOL    HW2 1134   3.804   3.402   1.658
 2359SOL     OW 1135   2.212   2.760   1.804
 2359SOL    HW1 1136   2.288   2.804   1.852
 2359SOL    HW2 1137   2.247   2.713   1.722
 2363SOL     OW 1138   2.181   2.672   0.949
 2363SOL    HW1 1139   2.274   2.708   0.954
 2363SOL    HW2 1140   2.175   2.587   1.001
 2364SOL     OW 1141   2.201   2.371   1.006
 2364SOL    HW1 1142   2.149   2.288   0.989
 2364SOL    HW2 1143   2.278   2.376   0.942
 2365SOL     OW 1144   3.000   2.242   1.678
 2365SOL    HW1 1145   2.955   2.305   1.742
 2365SOL    HW2 1146   3.093   2.273   1.661
 2366SOL     OW 1147   3.022   2.069   1.477
 2366SOL    HW1 1148   3.022   2.133   1.554
 2366SOL    HW2 1149   3.050   2.117   1.394
 2369SOL     OW 1150   2.864   2.658   1.238
 2369SOL    HW1 1151   2.905   2.626   1.324
 2369SOL    HW2 1152   2.768   2.631   1.235
 2370SOL     OW 1153   1.902   2.406   1.114
 2370SOL    HW1 1154   1.987   2.373   1.073
 2370SOL    HW2 1155   1.915   2.421   1.212
 2371SOL     OW 1156   2.051   2.382   1.722
 2371SOL    HW1 1157   2.110   2.342   1.652
 2371SOL    HW2 1158   1.993   2.453   1.681
 2372SOL     OW 1159   3.231   2.812   1.660
 2372SOL    HW1 1160   3.270   2.901   1.680
 2372SOL    HW2 1161   3.241   2.792   1.563
 2374SOL     OW 1162   3.519   2.466   1.206
 2374SOL    HW1 1163   3.481   2.397   1.268
 2374SOL    HW2 1164   3.601   2.430   1.162
 2375SOL     OW 1165   2.114   3.426   1.744
 2375SOL    HW1 1166   2.084   3.483   1.820
 2375SOL    HW2 1167   2.107   3.329   1.770
 2376SOL     OW 1168   2.533   2.326   1.269
 2376SOL    HW1 1169   2.499   2.237   1.239
 2376SOL    HW2 1170   2.559   2.380   1.189
 2377SOL     OW 1171   2.792   3.540   1.465
 2377SOL    HW1 1172   2.768   3.522   1.370
 2377SOL    HW2 1173   2.822   3.634   1.475
 2379SOL     OW 1174   2.021   2.999   1.466
 2379SOL    HW1 1175   2.043   2.938   1.542
 2379SOL    HW2 1176   2.031   2.950   1.380
 2380SOL     OW 1177   3.209   2.921   1.234
 2380SOL    HW1 1178   3.233   2.858   1.160
 2380SOL    HW2 1179   3.119   2.961   1.216
 2384SOL     OW 1180   1.945   3.120   1.022
 2384SOL    HW1 1181   1.940   3.119   1.122
 2384SOL    HW2 1182   1.862   3.079   0.984
 2385SOL     OW 1183   2.550   3.524   1.716
 2385SOL    HW1 1184   2.494   3.605   1.725
 2385SOL    HW2 1185   2.602   3.528   1.630
 2389SOL     OW 1186   1.992   3.656   1.851
 2389SOL    HW1 1187   1.951   3.582   1.904
 2389SOL    HW2 1188   2.056   3.707   1.909
 2391SOL     OW 1189   2.692   3.135   1.422
 2391SOL    HW1 1190   2.687   3.168   1.517
 2391SOL    HW2 1191   2.606   3.154   1.376
 2397SOL     OW 1192   2.684   2.864   1.372
 2397SOL    HW1 1193   2.724   2.863   1.280
 2397SOL    HW2 1194   2.694   2.956   1.412
 2400SOL     OW 1195   2.234   3.150   1.490
 2400SOL    HW1 1196   2.221   3.243   1.456
 2400SOL    HW2 1197   2.150   3.098   1.477
 2401SOL     OW 1198   3.476   3.154   1.289
 2401SOL    HW1 1199   3.536   3.157   1.369
 2401SOL    HW2 1200   3.401   3.218   1.302
 2403SOL     OW 1201   2.876   2.098   0.971
 2403SOL    HW1 1202   2.868   2.062   0.878
 2403SOL    HW2 1203   2.874   2.022   1.036
 2405SOL     OW 1204   3.571   2.247   1.381
 2405SOL    HW1 1205   3.644   2.316   1.385
 2405SOL    HW2 1206   3.599   2.172   1.322
 2407SOL     OW 1207   1.967   2.875   1.726
 2407SOL    HW1 1208   1.890   2.842   1.780
 2407SOL    HW2 1209   2.052   2.845   1.768
 2408SOL     OW 1210   2.534   2.065   1.489
 2408SOL    HW1 1211   2.624   2.049   1.449
 2408SOL    HW2 1212   2.542   2.070   1.588
 2410SOL     OW 1213   3.302   2.718   1.398
 2410SOL    HW1 1214   3.245   2.770   1.335
 2410SOL    HW2 1215   3.398   2.730   1.374
 2413SOL     OW 1216   2.475   2.704   1.431
 2413SOL    HW1 1217   2.531   2.785   1.414
 2413SOL    HW2 1218   2.534   2.624   1.434
 2415SOL     OW 1219   2.578   2.427   1.708
 2415SOL    HW1 1220   2.597   2.492   1.782
 2415SOL    HW2 1221   2.638   2.347   1.717
 2416SOL     OW 1222   3.312   3.082   1.633
 2416SOL    HW1 1223   3.303   3.072   1.732
 2416SOL    HW2 1224   3.408   3.075   1.607
 2417SOL     OW 1225   2.252   3.603   1.560
 2417SOL    HW1 1226   2.161   3.644   1.558
 2417SOL    HW2 1227   2.245   3.509   1.592
 2418SOL     OW 1228   3.536   2.745   1.254
 2418SOL    HW1 1229   3.509   2.656   1.217
 2418SOL    HW2 1230   3.537   2.813   1.181
 2421SOL     OW 1231   3.639   2.204   1.642
 2421SOL    HW1 1232   3.622   2.235   1.548
 2421SOL    HW2 1233   3.555   2.167   1.680
 2422SOL     OW 1234   3.592   2.796   1.517
 2422SOL    HW1 1235   3.630   2.887   1.532
 2422SOL    HW2 1236   3.584   2.779   1.418
 2425SOL     OW 1237   2.721   2.818   0.861
 2425SOL    HW1 1238   2.775   2.749   0.909
 2425SOL    HW2 1239   2.689   2.887   0.927
 2428SOL     OW 1240   2.083   3.176   1.844
 2428SOL    HW1 1241   2.018   3.103   1.823
 2428SOL    HW2 1242   2.087   3.190   1.942
 2430SOL     OW 1243   2.534   3.253   1.624
 2430SOL    HW1 1244   2.456   3.203   1.662
 2430SOL    HW2 1245   2.531   3.348   1.655
 2434SOL     OW 1246   2.179   2.409   1.280
 2434SOL    HW1 1247   2.217   2.350   1.352
 2434SOL    HW2 1248   2.219   2.383   1.192
 2436SOL     OW 1249   3.286   2.076   1.112
 2436SOL    HW1 1250   3.338   2.011   1.167
 2436SOL    HW2 1251   3.237   2.139   1.173
 2437SOL     OW 1252   2.863   1.896   1.154
 2437SOL    HW1 1253   2.800   1.824   1.123
 2437SOL    HW2 1254   2.956   1.860   1.154
 2439SOL     OW 1255   2.480   3.429   1.284
 2439SOL    HW1 1256   2.475   3.511   1.341
 2439SOL    HW2 1257   2.569   3.426   1.239
 2445SOL     OW 1258   2.092   2.490   1.975
 2445SOL    HW1 1259   1.999   2.488   2.012
 2445SOL    HW2 1260   2.093   2.451   1.883
 2446SOL     OW 1261   2.087   2.137   2.858
 2446SOL    HW1 1262   2.122   2.120   2.950
 2446SOL    HW2 1263   1.999   2.092   2.846
 2447SOL     OW 1264   1.881   2.230   2.509
 2447SOL    HW1 1265   1.799   2.273   2.548
 2447SOL    HW2 1266   1.853   2.157   2.446
 2448SOL     OW 1267   2.431   3.137   3.027
 2448SOL    HW1 1268   2.338   3.130   2.990
 2448SOL    HW2 1269   2.442   3.226   3.071
 2449SOL     OW 1270   3.417   3.373   2.565
 2449SOL    HW1 1271   3.360   3.357   2.646
 2449SOL    HW2 1272   3.358   3.383   2.485
 2450SOL     OW 1273   2.997   2.565   2.579
 2450SOL    HW1 1274   3.054   2.643   2.554
 2450SOL    HW2 1275   2.937   2.591   2.655
 2451SOL     OW 1276   3.617   2.469   2.093
 2451SOL    HW1 1277   3.605   2.456   1.994
 2451SOL    HW2 1278   3.587   2.388   2.142
 2452SOL     OW 1279   2.630   3.006   2.885
 2452SOL    HW1 1280   2.552   3.023   2.945
 2452SOL    HW2 1281   2.664   3.093   2.849
 2453SOL     OW 1282   2.712   2.660   3.685
 2453SOL    HW1 1283   2.708   2.736   3.750
 2453SOL    HW2 1284   2.734   2.696   3.594
 2454SOL     OW 1285   2.548   3.023   3.665
 2454SOL    HW1 1286   2.608   3.102   3.679
 2454SOL    HW2 1287   2.462   3.054   3.624
 2455SOL     OW 1288   2.197   3.297   2.923
 2455SOL    HW1 1289   2.119   3.266   2.870
 2455SOL    HW2 1290   2.255   3.355   2.866
 2456SOL     OW 1291   3.322   3.367   3.201
 2456SOL    HW1 1292   3.346   3.461   3.227
 2456SOL    HW2 1293   3.306   3.313   3.283
 2457SOL     OW 1294   2.300   2.254   3.361
 2457SOL    HW1 1295   2.382   2.198   3.370
 2457SOL    HW2 1296   2.219   2.196   3.365
 2458SOL     OW 1297   3.465   2.309   2.599
 2458SOL    HW1 1298   3.391   2.355   2.549
 2458SOL    HW2 1299   3.516   2.377   2.652
 2459SOL     OW 1300   2.093   3.575   2.345
 2459SOL    HW1 1301   2.127   3.652   2.399
 2459SOL    HW2 1302   2.137   3.575   2.255
 2460SOL     OW 1303   2.989   3.203   3.552
 2460SOL    HW1 1304   3.036   3.203   3.640
 2460SOL    HW2 1305   2.941   3.116   3.541
 2461SOL     OW 1306   2.092   3.296   2.400
 2461SOL    HW1 1307   2.066   3.392   2.400
 2461SOL    HW2 1308   2.021   3.242   2.445
 2462SOL     OW 1309   2.102   2.953   2.748
 2462SOL    HW1 1310   2.116   2.869   2.800
 2462SOL    HW2 1311   2.047   3.017   2.803
 2463SOL     OW 1312   2.482   3.648   3.301
 2463SOL    HW1 1313   2.390   3.631   3.336
 2463SOL    HW2 1314   2.510   3.740   3.327
 2464SOL     OW 1315   2.468   2.826   1.985
 2464SOL    HW1 1316   2.475   2.910   1.931
 2464SOL    HW2 1317   2.514   2.839   2.073
 2465SOL     OW 1318   3.456   1.976   3.342
 2465SOL    HW1 1319   3.438   2.043   3.270
 2465SOL    HW2 1320   3.453   2.022   3.431
 2466SOL     OW 1321   1.984   2.505   2.425
 2466SOL    HW1 1322   1.939   2.417   2.442
 2466SOL    HW2 1323   1.983   2.559   2.509
 2467SOL     OW 1324   3.704   3.629   2.221
 2467SOL    HW1 1325   3.758   3.600   2.301
 2467SOL    HW2 1326   3.734   3.719   2.192
 2468SOL     OW 1327   1.889   3.458   1.979
 2468SOL    HW1 1328   1.870   3.362   2.000
 2468SOL    HW2 1329   1.856   3.516   2.054
 2469SOL     OW 1330   3.551   2.784   2.474
 2469SOL    HW1 1331   3.646   2.755   2.482
 2469SOL    HW2 1332   3.543   2.849   2.399
 2470SOL     OW 1333   3.503   2.970   2.294
 2470SOL    HW1 1334   3.589   2.972   2.242
 2470SOL    HW2 1335   3.517   3.017   2.382
 2471SOL     OW 1336   1.975   2.599   3.459
 2471SOL    HW1 1337   2.063   2.586   3.504
 2471SOL    HW2 1338   1.962   2.696   3.437
 2472SOL     OW 1339   3.155   3.090   3.285
 2472SOL    HW1 1340   3.192   3.017   3.227
 2472SOL    HW2 1341   3.207   3.095   3.370
 2473SOL     OW 1342   2.671   1.866   2.364
 2473SOL    HW1 1343   2.711   1.957   2.355
 2473SOL    HW2 1344   2.571   1.874   2.370
 2474SOL     OW 1345   2.059   2.838   3.126
 2474SOL    HW1 1346   2.148   2.793   3.112
 2474SOL    HW2 1347   1.986   2.773   3.107
 2475SOL     OW 1348   3.387   2.861   2.052
 2475SOL    HW1 1349   3.324   2.785   2.065
 2475SOL    HW2 1350   3.435   2.879   2.138
 2476SOL     OW 1351   3.049   3.654   3.478
 2476SOL    HW1 1352   3.073   3.714   3.402
 2476SOL    HW2 1353   3.056   3.559   3.448
 2477SOL     OW 1354   2.179   2.113   3.663
 2477SOL    HW1 1355   2.250   2.184   3.669
 2477SOL    HW2 1356   2.091   2.152   3.691
 2478SOL     OW 1357   3.328   3.279   2.815
 2478SOL    HW1 1358   3.269   3.285   2.895
 2478SOL    HW2 1359   3.313   3.191   2.769
 2479SOL     OW 1360   3.529   3.576   2.434
 2479SOL    HW1 1361   3.488   3.553   2.346
 2479SOL    HW2 1362   3.511   3.502   2.499
 2480SOL     OW 1363   2.460   2.591   2.132
 2480SOL    HW1 1364   2.484   2.660   2.064
 2480SOL    HW2 1365   2.382   2.624   2.186
 2481SOL     OW 1366   3.143   2.207   2.806
 2481SOL    HW1 1367   3.057   2.157   2.793
 2481SOL    HW2 1368   3.205   2.153   2.862
 2482SOL     OW 1369   3.438   3.524   2.169
 2482SOL    HW1 1370   3.527   3.570   2.172
 2482SOL    HW2 1371   3.417   3.500   2.074
 2483SOL     OW 1372   2.669   2.467   3.327
 2483SOL    HW1 1373   2.622   2.464   3.416
 2483SOL    HW2 1374   2.618   2.412   3.261
 2484SOL     OW 1375   3.256   2.331   3.536
 2484SOL    HW1 1376   3.236   2.374   3.624
 2484SOL    HW2 1377   3.334   2.269   3.545
 2485SOL     OW 1378   2.835   2.752   3.434
 2485SOL    HW1 1379   2.881   2.668   3.405
 2485SOL    HW2 1380   2.779   2.786   3.359
 2486SOL     OW 1381   2.853   2.272   3.104
 2486SOL    HW1 1382   2.776   2.306   3.158
 2486SOL    HW2 1383   2.819   2.221   3.025
 2487SOL     OW 1384   2.903   2.563   2.291
 2487SOL    HW1 1385   2.929   2.559   2.387
 2487SOL    HW2 1386   2.818   2.512   2.277
 2488SOL     OW 1387   1.992   3.683   3.433
 2488SOL    HW1 1388   1.982   3.668   3.532
 2488SOL    HW2 1389   1.906   3.719   3.397
 2489SOL     OW 1390   2.727   2.210   2.057
 2489SOL    HW1 1391   2.786   2.273   2.008
 2489SOL    HW2 1392   2.746   2.116   2.028
 2490SOL     OW 1393   3.581   2.447   3.693
 2490SOL    HW1 1394   3.555   2.536   3.657
 2490SOL    HW2 1395   3.579   2.379   3.620
 2491SOL     OW 1396   3.224   3.006   2.407
 2491SOL    HW1 1397   3.307   2.977   2.359
 2491SOL    HW2 1398   3.175   3.073   2.351
 2492SOL     OW 1399   2.412   2.058   2.747
 2492SOL    HW1 1400   2.407   2.053   2.847
 2492SOL    HW2 1401   2.414   2.154   2.718
 2493SOL     OW 1402   2.870   3.318   2.339
 2493SOL    HW1 1403   2.824   3.390   2.287
 2493SOL    HW2 1404   2.866   3.338   2.437
 2494SOL     OW 1405   2.213   3.663   2.715
 2494SOL    HW1 1406   2.263   3.577   2.721
 2494SOL    HW2 1407   2.278   3.740   2.712
 2495SOL     OW 1408   3.657   2.928   2.735
 2495SOL    HW1 1409   3.595   2.913   2.659
 2495SOL    HW2 1410   3.605   2.939   2.820
 2496SOL     OW 1411   3.089   3.412   3.368
 2496SOL    HW1 1412   3.095   3.335   3.432
 2496SOL    HW2 1413   3.037   3.386   3.288
 2497SOL     OW 1414   2.183   2.805   2.104
 2497SOL    HW1 1415   2.265   2.844   2.062
 2497SOL    HW2 1416   2.156   2.723   2.055
 2498SOL     OW 1417   3.320   2.597   2.590
 2498SOL    HW1 1418   3.315   2.532   2.665
 2498SOL    HW2 1419   3.400   2.656   2.603
 2499SOL     OW 1420   2.323   3.128   3.589
 2499SOL    HW1 1421   2.273   3.129   3.503
 2499SOL    HW2 1422   2.260   3.110   3.665
 2500SOL     OW 1423   2.973   3.638   2.099
 2500SOL    HW1 1424   2.913   3.576   2.149
 2500SOL    HW2 1425   3.004   3.594   2.014
 2501SOL     OW 1426   2.064   2.147   3.360
 2501SOL    HW1 1427   1.984   2.207   3.347
 2501SOL    HW2 1428   2.054   2.098   3.446
 2502SOL     OW 1429   3.494   3.239   1.943
 2502SOL    HW1 1430   3.462   3.333   1.933
 2502SOL    HW2 1431   3.418   3.176   1.931
 2503SOL     OW 1432   2.326   3.605   2.185
 2503SOL    HW1 1433   2.359   3.644   2.271
 2503SOL    HW2 1434   2.402   3.598   2.120
 2504SOL     OW 1435   3.262   1.969   2.288
 2504SOL    HW1 1436   3.238   1.932   2.198
 2504SOL    HW2 1437   3.361   1.985   2.292
 2505SOL     OW 1438   2.111   3.647   3.103
 2505SOL    HW1 1439   2.168   3.582   3.153
 2505SOL    HW2 1440   2.095   3.614   3.010
 2506SOL     OW 1441   2.802   3.560   2.766
 2506SOL    HW1 1442   2.882   3.503   2.787
 2506SOL    HW2 1443   2.753   3.520   2.689
 2507SOL     OW 1444   2.244   2.562   2.342
 2507SOL    HW1 1445   2.289   2.472   2.339
 2507SOL    HW2 1446   2.150   2.551   2.375
 2508SOL     OW 1447   3.409   2.084   3.591
 2508SOL    HW1 1448   3.404   2.121   3.683
 2508SOL    HW2 1449   3.337   2.015   3.579
 2509SOL     OW 1450   2.476   1.984   1.979
 2509SOL    HW1 1451   2.574   1.962   1.986
 2509SOL    HW2 1452   2.445   1.967   1.886
 2510SOL     OW 1453   2.643   2.126   3.611
 2510SOL    HW1 1454   2.710   2.065   3.654
 2510SOL    HW2 1455   2.570   2.145   3.676
 2511SOL     OW 1456   2.750   3.376   3.057
 2511SOL    HW1 1457   2.727   3.351   2.963
 2511SOL    HW2 1458   2.811   3.307   3.096
 2512SOL     OW 1459   3.213   2.452   3.295
 2512SOL    HW1 1460   3.241   2.409   3.380
 2512SOL    HW2 1461   3.238   2.548   3.296
 2513SOL     OW 1462   2.665   3.264   2.786
 2513SOL    HW1 1463   2.755   3.278   2.744
 2513SOL    HW2 1464   2.594   3.266   2.715
 2514SOL     OW 1465   2.401   1.926   2.374
 2514SOL    HW1 1466   2.320   1.927   2.432
 2514SOL    HW2 1467   2.404   2.009   2.319
 2515SOL     OW 1468   3.296   3.050   1.903
 2515SOL    HW1 1469   3.328   2.974   1.960
 2515SOL    HW2 1470   3.204   3.077   1.933
 2516SOL     OW 1471   2.159   1.897   2.033
 2516SOL    HW1 1472   2.208   1.981   2.012
 2516SOL    HW2 1473   2.221   1.832   2.078
 2517SOL     OW 1474   2.797   2.098   2.342
 2517SOL    HW1 1475   2.749   2.139   2.264
 2517SOL    HW2 1476   2.896   2.096   2.323
 2518SOL     OW 1477   2.938   2.545   3.326
 2518SOL    HW1 1478   2.858   2.484   3.329
 2518SOL    HW2 1479   3.019   2.492   3.302
 2519SOL     OW 1480   3.089   3.432   2.655
 2519SOL    HW1 1481   3.110   3.506   2.590
 2519SOL    HW2 1482   3.157   3.432   2.728
 2520SOL     OW 1483   3.133   3.659   2.453
 2520SOL    HW1 1484   3.177   3.723   2.389
 2520SOL    HW2 1485   3.083   3.711   2.523
 2521SOL     OW 1486   2.894   2.411   1.878
 2521SOL    HW1 1487   2.853   2.493   1.839
 2521SOL    HW2 1488   2.958   2.437   1.951
 2522SOL     OW 1489   1.940   2.418   3.248
 2522SOL    HW1 1490   2.032   2.417   3.207
 2522SOL    HW2 1491   1.934   2.492   3.315
 2523SOL     OW 1492   2.423   2.084   3.009
 2523SOL    HW1 1493   2.461   2.000   3.046
 2523SOL    HW2 1494   2.335   2.103   3.053
 2524SOL     OW 1495   3.291   3.035   2.729
 2524SOL    HW1 1496   3.236   2.951   2.722
 2524SOL    HW2 1497   3.317   3.064   2.637
 2525SOL     OW 1498   3.328   2.452   2.854
 2525SOL    HW1 1499   3.298   2.357   2.861
 2525SOL    HW2 1500   3.401   2.468   2.920
 2526SOL     OW 1501   3.719   2.695   2.239
 2526SOL    HW1 1502   3.761   2.631   2.303
 2526SOL    HW2 1503   3.681   2.644   2.161
 2527SOL     OW 1504   2.350   3.247   2.036
 2527SOL    HW1 1505   2.263   3.232   2.083
 2527SOL    HW2 1506   2.333   3.273   1.941
 2528SOL     OW 1507   3.526   3.142   2.519
 2528SOL    HW1 1508   3.625   3.150   2.533
 2528SOL    HW2 1509   3.481   3.226   2.550
 2529SOL     OW 1510   3.252   2.437   1.940
 2529SOL    HW1 1511   3.198   2.416   2.021
 2529SOL    HW2 1512   3.343   2.396   1.949
 2530SOL     OW 1513   2.389   2.118   2.190
 2530SOL    HW1 1514   2.416   2.059   2.115
 2530SOL    HW2 1515   2.389   2.213   2.159
 2531SOL     OW 1516   3.616   3.085   3.450
 2531SOL    HW1 1517   3.707   3.046   3.437
 2531SOL    HW2 1518   3.624   3.181   3.474
 2532SOL     OW 1519   2.926   3.209   3.202
 2532SOL    HW1 1520   2.846   3.186   3.257
 2532SOL    HW2 1521   3.009   3.183   3.251
 2533SOL     OW 1522   3.454   3.491   3.487
 2533SOL    HW1 1523   3.481   3.525   3.397
 2533SOL    HW2 1524   3.533   3.453   3.533
 2534SOL     OW 1525   2.973   3.057   2.962
 2534SOL    HW1 1526   2.933   3.101   3.043
 2534SOL    HW2 1527   2.932   3.094   2.879
 2535SOL     OW 1528   3.500   2.961   2.941
 2535SOL    HW1 1529   3.505   3.042   3.000
 2535SOL    HW2 1530   3.414   2.963   2.890
 2536SOL     OW 1531   2.777   1.951   3.264
 2536SOL    HW1 1532   2.802   1.931   3.169
 2536SOL    HW2 1533   2.849   2.007   3.306
 2537SOL     OW 1534   2.842   2.978   3.581
 2537SOL    HW1 1535   2.743   2.984   3.591
 2537SOL    HW2 1536   2.865   2.898   3.525
 2538SOL     OW 1537   2.272   2.675   3.113
 2538SOL    HW1 1538   2.358   2.687   3.163
 2538SOL    HW2 1539   2.230   2.588   3.140
 2539SOL     OW 1540   3.136   2.248   3.124
 2539SOL    HW1 1541   3.157   2.322   3.188
 2539SOL    HW2 1542   3.047   2.265   3.081
 2540SOL     OW 1543   1.926   3.426   3.193
 2540SOL    HW1 1544   1.880   3.508   3.159
 2540SOL    HW2 1545   2.024   3.445   3.202
 2541SOL     OW 1546   2.229   2.962   2.363
 2541SOL    HW1 1547   2.222   3.045   2.307
 2541SOL    HW2 1548   2.233   2.882   2.303
 2542SOL     OW 1549   3.114   3.210   2.250
 2542SOL    HW1 1550   3.164   3.287   2.290
 2542SOL    HW2 1551   3.019   3.212   2.282
 2543SOL     OW 1552   3.134   3.307   3.004
 2543SOL    HW1 1553   3.181   3.320   3.091
 2543SOL    HW2 1554   3.068   3.233   3.013
 2544SOL     OW 1555   3.444   2.501   2.334
 2544SOL    HW1 1556   3.413   2.562   2.407
 2544SOL    HW2 1557   3.494   2.553   2.265
 2545SOL     OW 1558   2.216   3.372   3.191
 2545SOL    HW1 1559   2.195   3.328   3.104
 2545SOL    HW2 1560   2.313   3.398   3.194
 2546SOL     OW 1561   2.264   2.613   3.460
 2546SOL    HW1 1562   2.332   2.668   3.413
 2546SOL    HW2 1563   2.304   2.525   3.487
 2547SOL     OW 1564   3.449   2.641   3.532
 2547SOL    HW1 1565   3.357   2.679   3.527
 2547SOL    HW2 1566   3.509   2.688   3.467
 2548SOL     OW 1567   2.875   1.967   3.632
 2548SOL    HW1 1568   2.881   2.052   3.580
 2548SOL    HW2 1569   2.907   1.891   3.575
 2549SOL     OW 1570   2.366   1.912   3.602
 2549SOL    HW1 1571   2.324   1.855   3.532
 2549SOL    HW2 1572   2.300   1.981   3.634
 2550SOL     OW 1573   3.222   2.724   2.907
 2550SOL    HW1 1574   3.147   2.724   2.841
 2550SOL    HW2 1575   3.259   2.632   2.916
 2551SOL     OW 1576   3.071   2.387   2.137
 2551SOL    HW1 1577   3.084   2.303   2.191
 2551SOL    HW2 1578   3.042   2.461   2.197
 2552SOL     OW 1579   2.169   2.075   3.093
 2552SOL    HW1 1580   2.146   2.112   3.183
 2552SOL    HW2 1581   2.139   1.980   3.087
 2553SOL     OW 1582   1.899   3.172   3.144
 2553SOL    HW1 1583   1.952   3.123   3.212
 2553SOL    HW2 1584   1.921   3.270   3.149
 2554SOL     OW 1585   3.590   2.797   3.716
 2554SOL    HW1 1586   3.544   2.790   3.627
 2554SOL    HW2 1587   3.528   2.841   3.782
 2555SOL     OW 1588   2.169   1.925   2.480
 2555SOL    HW1 1589   2.158   2.019   2.513
 2555SOL    HW2 1590   2.164   1.862   2.557
 2556SOL     OW 1591   3.484   2.229   2.236
 2556SOL    HW1 1592   3.486   2.153   2.300
 2556SOL    HW2 1593   3.436   2.306   2.276
 2557SOL     OW 1594   2.842   3.435   3.562
 2557SOL    HW1 1595   2.822   3.479   3.474
 2557SOL    HW2 1596   2.881   3.344   3.546
 2558SOL     OW 1597   3.721   3.380   3.467
 2558SOL    HW1 1598   3.735   3.407   3.372
 2558SOL    HW2 1599   3.804   3.402   3.520
 2559SOL     OW 1600   2.212   2.760   3.666
 2559SOL    HW1 1601   2.288   2.804   3.714
 2559SOL    HW2 1602   2.247   2.713   3.584
 2560SOL     OW 1603   3.402   2.136   1.987
 2560SOL    HW1 1604   3.341   2.061   2.010
 2560SOL    HW2 1605   3.424   2.188   2.070
 2561SOL     OW 1606   3.165   2.700   1.904
 2561SOL    HW1 1607   3.199   2.607   1.919
 2561SOL    HW2 1608   3.183   2.727   1.809
 2562SOL     OW 1609   2.930   3.195   2.711
 2562SOL    HW1 1610   2.937   3.111   2.656
 2562SOL    HW2 1611   2.992   3.264   2.675
 2563SOL     OW 1612   2.201   2.371   2.868
 2563SOL    HW1 1613   2.149   2.288   2.851
 2563SOL    HW2 1614   2.278   2.376   2.804
 2564SOL     OW 1615   3.000   2.242   3.540
 2564SOL    HW1 1616   2.955   2.305   3.604
 2564SOL    HW2 1617   3.093   2.273   3.523
 2565SOL     OW 1618   3.022   2.069   3.339
 2565SOL    HW1 1619   3.022   2.133   3.416
 2565SOL    HW2 1620   3.050   2.117   3.256
 2566SOL     OW 1621   1.870   3.188   2.062
 2566SOL    HW1 1622   1.777   3.209   2.031
 2566SOL    HW2 1623   1.880   3.089   2.075
 2567SOL     OW 1624   1.950   3.663   2.789
 2567SOL    HW1 1625   1.908   3.577   2.762
 2567SOL    HW2 1626   2.044   3.666   2.755
 2568SOL     OW 1627   2.366   3.430   2.772
 2568SOL    HW1 1628   2.432   3.504   2.781
 2568SOL    HW2 1629   2.410   3.351   2.730
 2569SOL     OW 1630   2.864   2.658   3.100
 2569SOL    HW1 1631   2.905   2.626   3.186
 2569SOL    HW2 1632   2.768   2.631   3.097
 2570SOL     OW 1633   1.902   2.406   2.976
 2570SOL    HW1 1634   1.987   2.373   2.935
 2570SOL    HW2 1635   1.915   2.421   3.074
 2571SOL     OW 1636   2.051   2.382   3.584
 2571SOL    HW1 1637   2.110   2.342   3.514
 2571SOL    HW2 1638   1.993   2.453   3.543
 2572SOL     OW 1639   3.231   2.812   3.522
 2572SOL    HW1 1640   3.270   2.901   3.542
 2572SOL    HW2 1641   3.241   2.792   3.425
 2573SOL     OW 1642   2.677   2.434   2.187
 2573SOL    HW1 1643   2.684   2.345   2.141
 2573SOL    HW2 1644   2.583   2.468   2.179
 2574SOL     OW 1645   3.519   2.466   3.068
 2574SOL    HW1 1646   3.481   2.397   3.130
 2574SOL    HW2 1647   3.601   2.430   3.024
 2575SOL     OW 1648   2.114   3.426   3.606
 2575SOL    HW1 1649   2.084   3.483   3.682
 2575SOL    HW2 1650   2.107   3.329   3.632
 2576SOL     OW 1651   2.533   2.326   3.131
 2576SOL    HW1 1652   2.499   2.237   3.101
 2576SOL    HW2 1653   2.559   2.380   3.051
 2577SOL     OW 1654   2.792   3.540   3.327
 2577SOL    HW1 1655   2.768   3.522   3.232
 2577SOL    HW2 1656   2.822   3.634   3.337
 2578SOL     OW 1657   2.335   2.362   2.053
 2578SOL    HW1 1658   2.396   2.442   2.057
 2578SOL    HW2 1659   2.240   2.393   2.060
 2579SOL     OW 1660   2.021   2.999   3.328
 2579SOL    HW1 1661   2.043   2.938   3.404
 2579SOL    HW2 1662   2.031   2.950   3.242
 2580SOL     OW 1663   3.209   2.921   3.096
 2580SOL    HW1 1664   3.233   2.858   3.022
 2580SOL    HW2 1665   3.119   2.961   3.078
 2581SOL     OW 1666   3.164   2.717   2.171
 2581SOL    HW1 1667   3.078   2.686   2.213
 2581SOL    HW2 1668   3.160   2.703   2.072
 2582SOL     OW 1669   3.621   3.609   3.016
 2582SOL    HW1 1670   3.682   3.639   2.943
 2582SOL    HW2 1671   3.583   3.520   2.994
 2583SOL     OW 1672   3.114   3.593   2.990
 2583SOL    HW1 1673   3.198   3.598   2.936
 2583SOL    HW2 1674   3.091   3.497   3.008
 2584SOL     OW 1675   1.945   3.120   2.884
 2584SOL    HW1 1676   1.940   3.119   2.984
 2584SOL    HW2 1677   1.862   3.079   2.846
 2585SOL     OW 1678   2.550   3.524   3.578
 2585SOL    HW1 1679   2.494   3.605   3.587
 2585SOL    HW2 1680   2.602   3.528   3.492
 2586SOL     OW 1681   3.588   1.997   2.385
 2586SOL    HW1 1682   3.661   1.980   2.318
 2586SOL    HW2 1683   3.557   1.910   2.423
 2587SOL     OW 1684   3.250   3.435   2.339
 2587SOL    HW1 1685   3.317   3.447   2.265
 2587SOL    HW2 1686   3.210   3.524   2.362
 2588SOL     OW 1687   1.992   3.656   3.713
 2588SOL    HW1 1688   1.951   3.582   3.766
 2588SOL    HW2 1689   2.056   3.707   3.771
 2589SOL     OW 1690   3.142   2.789   2.534
 2589SOL    HW1 1691   3.202   2.708   2.536
 2589SOL    HW2 1692   3.182   2.858   2.474
 2590SOL     OW 1693   2.692   3.135   3.284
 2590SOL    HW1 1694   2.687   3.168   3.379
 2590SOL    HW2 1695   2.606   3.154   3.238
 2591SOL     OW 1696   2.534   3.478   2.016
 2591SOL    HW1 1697   2.543   3.488   1.917
 2591SOL    HW2 1698   2.494   3.389   2.037
 2592SOL     OW 1699   3.512   3.582   3.256
 2592SOL    HW1 1700   3.565   3.592   3.172
 2592SOL    HW2 1701   3.485   3.672   3.290
 2593SOL     OW 1702   3.703   2.037   2.825
 2593SOL    HW1 1703   3.742   1.952   2.789
 2593SOL    HW2 1704   3.605   2.039   2.806
 2594SOL     OW 1705   2.125   2.188   2.582
 2594SOL    HW1 1706   2.046   2.239   2.548
 2594SOL    HW2 1707   2.116   2.173   2.680
 2595SOL     OW 1708   3.056   3.474   1.893
 2595SOL    HW1 1709   3.062   3.381   1.930
 2595SOL    HW2 1710   2.997   3.474   1.813
 2596SOL     OW 1711   2.684   2.864   3.234
 2596SOL    HW1 1712   2.724   2.863   3.142
 2596SOL    HW2 1713   2.694   2.956   3.274
 2597SOL     OW 1714   2.778   2.772   2.153
 2597SOL    HW1 1715   2.841   2.810   2.085
 2597SOL    HW2 1716   2.818   2.689   2.192
 2598SOL     OW 1717   3.366   3.469   1.906
 2598SOL    HW1 1718   3.274   3.506   1.913
 2598SOL    HW2 1719   3.404   3.489   1.816
 2599SOL     OW 1720   2.234   3.150   3.352
 2599SOL    HW1 1721   2.221   3.243   3.318
 2599SOL    HW2 1722   2.150   3.098   3.339
 2600SOL     OW 1723   3.476   3.154   3.151
 2600SOL    HW1 1724   3.536   3.157   3.231
 2600SOL    HW2 1725   3.401   3.218   3.164
 2601SOL     OW 1726   2.901   2.960   2.558
 2601SOL    HW1 1727   2.831   2.913   2.612
 2601SOL    HW2 1728   2.960   2.892   2.515
 2602SOL     OW 1729   2.452   3.349   2.353
 2602SOL    HW1 1730   2.494   3.291   2.283
 2602SOL    HW2 1731   2.408   3.428   2.309
 2603SOL     OW 1732   3.571   2.247   3.243
 2603SOL    HW1 1733   3.644   2.316   3.247
 2603SOL    HW2 1734   3.599   2.172   3.184
 2604SOL     OW 1735   2.117   3.210   2.152
 2604SOL    HW1 1736   2.021   3.211   2.125
 2604SOL    HW2 1737   2.129   3.263   2.236
 2605SOL     OW 1738   1.967   2.875   3.588
 2605SOL    HW1 1739   1.890   2.842   3.642
 2605SOL    HW2 1740   2.052   2.845   3.630
 2606SOL     OW 1741   2.534   2.065   3.351
 2606SOL    HW1 1742   2.624   2.049   3.311
 2606SOL    HW2 1743   2.542   2.070   3.450
 2607SOL     OW 1744   1.937   2.207   1.895
 2607SOL    HW1 1745   1.845   2.179   1.866
 2607SOL    HW2 1746   1.968   2.284   1.839
 2608SOL     OW 1747   3.302   2.718   3.260
 2608SOL    HW1 1748   3.245   2.770   3.197
 2608SOL    HW2 1749   3.398   2.730   3.236
 2609SOL     OW 1750   1.934   2.028   2.180
 2609SOL    HW1 1751   1.917   2.111   2.126
 2609SOL    HW2 1752   2.024   1.991   2.158
 2610SOL     OW 1753   3.045   3.197   1.981
 2610SOL    HW1 1754   2.946   3.186   1.983
 2610SOL    HW2 1755   3.079   3.212   2.074
 2611SOL     OW 1756   2.475   2.704   3.293
 2611SOL    HW1 1757   2.531   2.785   3.276
 2611SOL    HW2 1758   2.534   2.624   3.296
 2612SOL     OW 1759   3.355   3.629   2.821
 2612SOL    HW1 1760   3.388   3.693   2.752
 2612SOL    HW2 1761   3.421   3.623   2.896
 2613SOL     OW 1762   2.578   2.427   3.570
 2613SOL    HW1 1763   2.597   2.492   3.644
 2613SOL    HW2 1764   2.638   2.347   3.579
 2614SOL     OW 1765   3.312   3.082   3.495
 2614SOL    HW1 1766   3.303   3.072   3.594
 2614SOL    HW2 1767   3.408   3.075   3.469
 2615SOL     OW 1768   2.252   3.603   3.422
 2615SOL    HW1 1769   2.161   3.644   3.420
 2615SOL    HW2 1770   2.245   3.509   3.454
 2616SOL     OW 1771   3.536   2.745   3.116
 2616SOL    HW1 1772   3.509   2.656   3.079
 2616SOL    HW2 1773   3.537   2.813   3.043
 2617SOL     OW 1774   3.639   2.204   3.504
 2617SOL    HW1 1775   3.622   2.235   3.410
 2617SOL    HW2 1776   3.555   2.167   3.542
 2618SOL     OW 1777   3.592   2.796   3.379
 2618SOL    HW1 1778   3.630   2.887   3.394
 2618SOL    HW2 1779   3.584   2.779   3.280
 2619SOL     OW 1780   2.721   3.236   1.878
 2619SOL    HW1 1781   2.675   3.251   1.966
 2619SOL    HW2 1782   2.765   3.321   1.848
 2620SOL     OW 1783   2.523   3.652   2.815
 2620SOL    HW1 1784   2.477   3.740   2.802
 2620SOL    HW2 1785   2.622   3.664   2.808
 2621SOL     OW 1786   2.945   2.846   1.949
 2621SOL    HW1 1787   2.922   2.899   1.867
 2621SOL    HW2 1788   3.026   2.790   1.930
 2622SOL     OW 1789   3.723   3.431   2.713
 2622SOL    HW1 1790   3.652   3.419   2.643
 2622SOL    HW2 1791   3.724   3.352   2.773
 2623SOL     OW 1792   2.083   3.176   3.706
 2623SOL    HW1 1793   2.018   3.103   3.685
 2623SOL    HW2 1794   2.087   3.190   3.804
 2624SOL     OW 1795   1.941   3.102   2.515
 2624SOL    HW1 1796   1.940   3.055   2.603
 2624SOL    HW2 1797   2.023   3.074   2.464
 2625SOL     OW 1798   2.534   3.253   3.486
 2625SOL    HW1 1799   2.456   3.203   3.524
 2625SOL    HW2 1800   2.531   3.348   3.517
 2626SOL     OW 1801   3.686   2.054   3.089
 2626SOL    HW1 1802   3.682   1.964   3.133
 2626SOL    HW2 1803   3.689   2.043   2.990
 2627SOL     OW 1804   2.290   2.286   2.382
 2627SOL    HW1 1805   2.320   2.214   2.320
 2627SOL    HW2 1806   2.251   2.246   2.465
 2628SOL     OW 1807   3.567   3.349   2.966
 2628SOL    HW1 1808   3.474   3.324   2.939
 2628SOL    HW2 1809   3.593   3.299   3.048
 2629SOL     OW 1810   2.179   2.409   3.142
 2629SOL    HW1 1811   2.217   2.350   3.214
 2629SOL    HW2 1812   2.219   2.383   3.054
 2630SOL     OW 1813   2.674   3.448   2.549
 2630SOL    HW1 1814   2.706   3.458   2.455
 2630SOL    HW2 1815   2.595   3.386   2.551
 2631SOL     OW 1816   3.286   2.076   2.974
 2631SOL    HW1 1817   3.338   2.011   3.029
 2631SOL    HW2 1818   3.237   2.139   3.035
 2632SOL     OW 1819   2.863   1.896   3.016
 2632SOL    HW1 1820   2.800   1.824   2.985
 2632SOL    HW2 1821   2.956   1.860   3.016
 2633SOL     OW 1822   2.632   3.192   2.163
 2633SOL    HW1 1823   2.586   3.105   2.180
 2633SOL    HW2 1824   2.723   3.189   2.204
 2634SOL     OW 1825   2.480   3.429   3.146
 2634SOL    HW1 1826   2.475   3.511   3.203
 2634SOL    HW2 1827   2.569   3.426   3.101
 2635SOL     OW 1828   3.214   1.914   2.030
 2635SOL    HW1 1829   3.249   1.873   1.946
 2635SOL    HW2 1830   3.124   1.876   2.050
 2636SOL     OW 1831   3.162   2.315   2.553
 2636SOL    HW1 1832   3.103   2.395   2.557
 2636SOL    HW2 1833   3.177   2.280   2.646
 2637SOL     OW 1834   3.455   2.083   2.744
 2637SOL    HW1 1835   3.371   2.082   2.798
 2637SOL    HW2 1836   3.457   2.166   2.688
 2638SOL     OW 1837   1.901   2.939   2.162
 2638SOL    HW1 1838   2.000   2.928   2.153
 2638SOL    HW2 1839   1.861   2.853   2.194
 2639SOL     OW 1840   2.737   3.508   2.199
 2639SOL    HW1 1841   2.660   3.473   2.145
 2639SOL    HW2 1842   2.705   3.579   2.261
 2640SOL     OW 1843   2.092   2.490   3.837
 2640SOL    HW1 1844   1.999   2.488   3.874
 2640SOL    HW2 1845   2.093   2.451   3.745
 2646SOL     OW 1846   3.617   2.469   3.955
 2646SOL    HW1 1847   3.605   2.456   3.856
 2646SOL    HW2 1848   3.587   2.388   4.004
 2656SOL     OW 1849   2.468   2.826   3.847
 2656SOL    HW1 1850   2.475   2.910   3.793
 2656SOL    HW2 1851   2.514   2.839   3.935
 2659SOL     OW 1852   1.889   3.458   3.841
 2659SOL    HW1 1853   1.870   3.362   3.862
 2659SOL    HW2 1854   1.856   3.516   3.916
 2663SOL     OW 1855   2.671   1.866   4.226
 2663SOL    HW1 1856   2.711   1.957   4.217
 2663SOL    HW2 1857   2.571   1.874   4.232
 2665SOL     OW 1858   3.387   2.861   3.914
 2665SOL    HW1 1859   3.324   2.785   3.927
 2665SOL    HW2 1860   3.435   2.879   4.000
 2668SOL     OW 1861   2.460   2.591   3.994
 2668SOL    HW1 1862   2.484   2.660   3.926
 2668SOL    HW2 1863   2.382   2.624   4.048
 2673SOL     OW 1864   2.903   2.563   4.153
 2673SOL    HW1 1865   2.929   2.559   4.249
 2673SOL    HW2 1866   2.818   2.512   4.139
 2676SOL     OW 1867   2.727   2.210   3.919
 2676SOL    HW1 1868   2.786   2.273   3.870
 2676SOL    HW2 1869   2.746   2.116   3.890
 2679SOL     OW 1870   2.870   3.318   4.201
 2679SOL    HW1 1871   2.824   3.390   4.149
 2679SOL    HW2 1872   2.866   3.338   4.299
 2682SOL     OW 1873   2.183   2.805   3.966
 2682SOL    HW1 1874   2.265   2.844   3.924
 2682SOL    HW2 1875   2.156   2.723   3.917
 2684SOL     OW 1876   2.973   3.638   3.961
 2684SOL    HW1 1877   2.913   3.576   4.011
 2684SOL    HW2 1878   3.004   3.594   3.876
 2685SOL     OW 1879   3.494   3.239   3.805
 2685SOL    HW1 1880   3.462   3.333   3.795
 2685SOL    HW2 1881   3.418   3.176   3.793
 2686SOL     OW 1882   2.326   3.605   4.047
 2686SOL    HW1 1883   2.359   3.644   4.133
 2686SOL    HW2 1884   2.402   3.598   3.982
 2690SOL     OW 1885   2.244   2.562   4.204
 2690SOL    HW1 1886   2.289   2.472   4.201
 2690SOL    HW2 1887   2.150   2.551   4.237
 2691SOL     OW 1888   2.476   1.984   3.841
 2691SOL    HW1 1889   2.574   1.962   3.848
 2691SOL    HW2 1890   2.445   1.967   3.748
 2695SOL     OW 1891   2.401   1.926   4.236
 2695SOL    HW1 1892   2.320   1.927   4.294
 2695SOL    HW2 1893   2.404   2.009   4.181
 2696SOL     OW 1894   3.296   3.050   3.765
 2696SOL    HW1 1895   3.328   2.974   3.822
 2696SOL    HW2 1896   3.204   3.077   3.795
 2697SOL     OW 1897   2.159   1.897   3.895
 2697SOL    HW1 1898   2.208   1.981   3.874
 2697SOL    HW2 1899   2.221   1.832   3.940
 2698SOL     OW 1900   2.797   2.098   4.204
 2698SOL    HW1 1901   2.749   2.139   4.126
 2698SOL    HW2 1902   2.896   2.096   4.185
 2702SOL     OW 1903   2.894   2.411   3.740
 2702SOL    HW1 1904   2.853   2.493   3.701
 2702SOL    HW2 1905   2.958   2.437   3.813
 2704SOL     OW 1906   2.728   2.316   4.366
 2704SOL    HW1 1907   2.696   2.388   4.304
 2704SOL    HW2 1908   2.752   2.235   4.313
 2709SOL     OW 1909   2.350   3.247   3.898
 2709SOL    HW1 1910   2.263   3.232   3.945
 2709SOL    HW2 1911   2.333   3.273   3.803
 2711SOL     OW 1912   3.252   2.437   3.802
 2711SOL    HW1 1913   3.198   2.416   3.883
 2711SOL    HW2 1914   3.343   2.396   3.811
 2712SOL     OW 1915   2.389   2.118   4.052
 2712SOL    HW1 1916   2.416   2.059   3.977
 2712SOL    HW2 1917   2.389   2.213   4.021
 2717SOL     OW 1918   2.567   2.912   4.092
 2717SOL    HW1 1919   2.553   2.919   4.191
 2717SOL    HW2 1920   2.651   2.861   4.074
 2721SOL     OW 1921   2.229   2.962   4.225
 2721SOL    HW1 1922   2.222   3.045   4.169
 2721SOL    HW2 1923   2.233   2.882   4.165
 2723SOL     OW 1924   3.114   3.210   4.112
 2723SOL    HW1 1925   3.164   3.287   4.152
 2723SOL    HW2 1926   3.019   3.212   4.144
 2730SOL     OW 1927   3.071   2.387   3.999
 2730SOL    HW1 1928   3.084   2.303   4.053
 2730SOL    HW2 1929   3.042   2.461   4.059
 2735SOL     OW 1930   3.484   2.229   4.098
 2735SOL    HW1 1931   3.486   2.153   4.162
 2735SOL    HW2 1932   3.436   2.306   4.138
 2737SOL     OW 1933   3.402   2.136   3.849
 2737SOL    HW1 1934   3.341   2.061   3.872
 2737SOL    HW2 1935   3.424   2.188   3.932
 2738SOL     OW 1936   3.165   2.700   3.766
 2738SOL    HW1 1937   3.199   2.607   3.781
 2738SOL    HW2 1938   3.183   2.727   3.671
 2743SOL     OW 1939   1.870   3.188   3.924
 2743SOL    HW1 1940   1.777   3.209   3.893
 2743SOL    HW2 1941   1.880   3.089   3.937
 2748SOL     OW 1942   2.677   2.434   4.049
 2748SOL    HW1 1943   2.684   2.345   4.003
 2748SOL    HW2 1944   2.583   2.468   4.041
 2752SOL     OW 1945   2.335   2.362   3.915
 2752SOL    HW1 1946   2.396   2.442   3.919
 2752SOL    HW2 1947   2.240   2.393   3.922
 2755SOL     OW 1948   3.164   2.717   4.033
 2755SOL    HW1 1949   3.078   2.686   4.075
 2755SOL    HW2 1950   3.160   2.703   3.934
 2762SOL     OW 1951   2.534   3.478   3.878
 2762SOL    HW1 1952   2.543   3.488   3.779
 2762SOL    HW2 1953   2.494   3.389   3.899
 2765SOL     OW 1954   3.056   3.474   3.755
 2765SOL    HW1 1955   3.062   3.381   3.792
 2765SOL    HW2 1956   2.997   3.474   3.675
 2767SOL     OW 1957   2.778   2.772   4.015
 2767SOL    HW1 1958   2.841   2.810   3.947
 2767SOL    HW2 1959   2.818   2.689   4.054
 2768SOL     OW 1960   3.366   3.469   3.768
 2768SOL    HW1 1961   3.274   3.506   3.775
 2768SOL    HW2 1962   3.404   3.489   3.678
 2773SOL     OW 1963   2.452   3.349   4.215
 2773SOL    HW1 1964   2.494   3.291   4.145
 2773SOL    HW2 1965   2.408   3.428   4.171
 2775SOL     OW 1966   2.117   3.210   4.014
 2775SOL    HW1 1967   2.021   3.211   3.987
 2775SOL    HW2 1968   2.129   3.263   4.098
 2777SOL     OW 1969   1.937   2.207   3.757
 2777SOL    HW1 1970   1.845   2.179   3.728
 2777SOL    HW2 1971   1.968   2.284   3.701
 2778SOL     OW 1972   1.934   2.028   4.042
 2778SOL    HW1 1973   1.917   2.111   3.988
 2778SOL    HW2 1974   2.024   1.991   4.020
 2779SOL     OW 1975   3.045   3.197   3.843
 2779SOL    HW1 1976   2.946   3.186   3.845
 2779SOL    HW2 1977   3.079   3.212   3.936
 2784SOL     OW 1978   3.087   2.187   4.173
 2784SOL    HW1 1979   3.152   2.113   4.162
 2784SOL    HW2 1980   3.107   2.237   4.257
 2785SOL     OW 1981   2.456   2.607   4.376
 2785SOL    HW1 1982   2.506   2.692   4.357
 2785SOL    HW2 1983   2.368   2.609   4.328
 2787SOL     OW 1984   2.721   3.236   3.740
 2787SOL    HW1 1985   2.675   3.251   3.828
 2787SOL    HW2 1986   2.765   3.321   3.710
 2790SOL     OW 1987   2.945   2.846   3.811
 2790SOL    HW1 1988   2.922   2.899   3.729
 2790SOL    HW2 1989   3.026   2.790   3.792
 2794SOL     OW 1990   2.290   2.286   4.244
 2794SOL    HW1 1991   2.320   2.214   4.182
 2794SOL    HW2 1992   2.251   2.246   4.327
 2800SOL     OW 1993   2.632   3.192   4.025
 2800SOL    HW1 1994   2.586   3.105   4.042
 2800SOL    HW2 1995   2.723   3.189   4.066
 2802SOL     OW 1996   3.214   1.914   3.892
 2802SOL    HW1 1997   3.249   1.873   3.808
 2802SOL    HW2 1998   3.124   1.876   3.912
 2805SOL     OW 1999   1.901   2.939   4.024
 2805SOL    HW1 2000   2.000   2.928   4.015
 2805SOL    HW2 2001   1.861   2.853   4.056
 2806SOL     OW 2002   2.737   3.508   4.061
 2806SOL    HW1 2003   2.660   3.473   4.007
 2806SOL    HW2 2004   2.705   3.579   4.123
 2835SOL     OW 2005   2.179   3.975   1.801
 2835SOL    HW1 2006   2.250   4.046   1.807
 2835SOL    HW2 2007   2.091   4.014   1.829
 2857SOL     OW 2008   3.409   3.946   1.729
 2857SOL    HW1 2009   3.404   3.983   1.821
 2857SOL    HW2 2010   3.337   3.877   1.717
 2858SOL     OW 2011   2.643   3.988   1.749
 2858SOL    HW1 2012   2.710   3.927   1.792
 2858SOL    HW2 2013   2.570   4.007   1.814
 2882SOL     OW 2014   2.777   3.813   1.402
 2882SOL    HW1 2015   2.802   3.793   1.307
 2882SOL    HW2 2016   2.849   3.869   1.444
 2894SOL     OW 2017   2.875   3.829   1.770
 2894SOL    HW1 2018   2.881   3.914   1.718
 2894SOL    HW2 2019   2.907   3.753   1.713
 2895SOL     OW 2020   2.366   3.774   1.740
 2895SOL    HW1 2021   2.324   3.717   1.670
 2895SOL    HW2 2022   2.300   3.843   1.772
 2913SOL     OW 2023   3.022   3.931   1.477
 2913SOL    HW1 2024   3.022   3.995   1.554
 2913SOL    HW2 2025   3.050   3.979   1.394
 2940SOL     OW 2026   2.534   3.927   1.489
 2940SOL    HW1 2027   2.624   3.911   1.449
 2940SOL    HW2 2028   2.542   3.932   1.588
 2970SOL     OW 2029   2.087   3.999   2.858
 2970SOL    HW1 2030   2.122   3.982   2.950
 2970SOL    HW2 2031   1.999   3.954   2.846
 2971SOL     OW 2032   1.881   4.092   2.509
 2971SOL    HW1 2033   1.799   4.135   2.548
 2971SOL    HW2 2034   1.853   4.019   2.446
 2981SOL     OW 2035   2.300   4.116   3.361
 2981SOL    HW1 2036   2.382   4.060   3.370
 2981SOL    HW2 2037   2.219   4.058   3.365
 2987SOL     OW 2038   3.456   3.838   3.342
 2987SOL    HW1 2039   3.438   3.905   3.270
 2987SOL    HW2 2040   3.453   3.884   3.431
 2994SOL     OW 2041   2.671   3.728   2.364
 2994SOL    HW1 2042   2.711   3.819   2.355
 2994SOL    HW2 2043   2.571   3.736   2.370
 2997SOL     OW 2044   2.179   3.975   3.663
 2997SOL    HW1 2045   2.250   4.046   3.669
 2997SOL    HW2 2046   2.091   4.014   3.691
 3000SOL     OW 2047   3.143   4.069   2.806
 3000SOL    HW1 2048   3.057   4.019   2.793
 3000SOL    HW2 2049   3.205   4.015   2.862
 3004SOL     OW 2050   2.853   4.134   3.104
 3004SOL    HW1 2051   2.776   4.168   3.158
 3004SOL    HW2 2052   2.819   4.083   3.025
 3007SOL     OW 2053   2.727   4.072   2.057
 3007SOL    HW1 2054   2.786   4.135   2.008
 3007SOL    HW2 2055   2.746   3.978   2.028
 3010SOL     OW 2056   2.412   3.920   2.747
 3010SOL    HW1 2057   2.407   3.915   2.847
 3010SOL    HW2 2058   2.414   4.016   2.718
 3016SOL     OW 2059   2.064   4.009   3.360
 3016SOL    HW1 2060   1.984   4.069   3.347
 3016SOL    HW2 2061   2.054   3.960   3.446
 3018SOL     OW 2062   3.262   3.831   2.288
 3018SOL    HW1 2063   3.238   3.794   2.198
 3018SOL    HW2 2064   3.361   3.847   2.292
 3021SOL     OW 2065   2.476   3.846   1.979
 3021SOL    HW1 2066   2.574   3.824   1.986
 3021SOL    HW2 2067   2.445   3.829   1.886
 3022SOL     OW 2068   2.643   3.988   3.611
 3022SOL    HW1 2069   2.710   3.927   3.654
 3022SOL    HW2 2070   2.570   4.007   3.676
 3024SOL     OW 2071   2.784   4.227   2.761
 3024SOL    HW1 2072   2.759   4.218   2.665
 3024SOL    HW2 2073   2.832   4.145   2.792
 3025SOL     OW 2074   2.401   3.788   2.374
 3025SOL    HW1 2075   2.320   3.789   2.432
 3025SOL    HW2 2076   2.404   3.871   2.319
 3027SOL     OW 2077   2.159   3.759   2.033
 3027SOL    HW1 2078   2.208   3.843   2.012
 3027SOL    HW2 2079   2.221   3.694   2.078
 3028SOL     OW 2080   2.797   3.960   2.342
 3028SOL    HW1 2081   2.749   4.001   2.264
 3028SOL    HW2 2082   2.896   3.958   2.323
 3034SOL     OW 2083   2.423   3.946   3.009
 3034SOL    HW1 2084   2.461   3.862   3.046
 3034SOL    HW2 2085   2.335   3.965   3.053
 3035SOL     OW 2086   2.728   4.178   2.504
 3035SOL    HW1 2087   2.696   4.250   2.442
 3035SOL    HW2 2088   2.752   4.097   2.451
 3036SOL     OW 2089   2.879   3.763   2.615
 3036SOL    HW1 2090   2.807   3.768   2.546
 3036SOL    HW2 2091   2.855   3.694   2.684
 3042SOL     OW 2092   2.389   3.980   2.190
 3042SOL    HW1 2093   2.416   3.921   2.115
 3042SOL    HW2 2094   2.389   4.075   2.159
 3047SOL     OW 2095   2.777   3.813   3.264
 3047SOL    HW1 2096   2.802   3.793   3.169
 3047SOL    HW2 2097   2.849   3.869   3.306
 3051SOL     OW 2098   3.136   4.110   3.124
 3051SOL    HW1 2099   3.157   4.184   3.188
 3051SOL    HW2 2100   3.047   4.127   3.081
 3053SOL     OW 2101   2.428   4.261   2.727
 3053SOL    HW1 2102   2.440   4.327   2.653
 3053SOL    HW2 2103   2.474   4.295   2.810
 3059SOL     OW 2104   2.875   3.829   3.632
 3059SOL    HW1 2105   2.881   3.914   3.580
 3059SOL    HW2 2106   2.907   3.753   3.575
 3060SOL     OW 2107   2.366   3.774   3.602
 3060SOL    HW1 2108   2.324   3.717   3.532
 3060SOL    HW2 2109   2.300   3.843   3.634
 3063SOL     OW 2110   3.071   4.249   2.137
 3063SOL    HW1 2111   3.084   4.165   2.191
 3063SOL    HW2 2112   3.042   4.323   2.197
 3064SOL     OW 2113   2.169   3.937   3.093
 3064SOL    HW1 2114   2.146   3.974   3.183
 3064SOL    HW2 2115   2.139   3.842   3.087
 3066SOL     OW 2116   2.594   4.358   2.926
 3066SOL    HW1 2117   2.653   4.332   2.850
 3066SOL    HW2 2118   2.566   4.454   2.915
 3068SOL     OW 2119   2.169   3.787   2.480
 3068SOL    HW1 2120   2.158   3.881   2.513
 3068SOL    HW2 2121   2.164   3.724   2.557
 3069SOL     OW 2122   3.484   4.091   2.236
 3069SOL    HW1 2123   3.486   4.015   2.300
 3069SOL    HW2 2124   3.436   4.168   2.276
 3073SOL     OW 2125   3.402   3.998   1.987
 3073SOL    HW1 2126   3.341   3.923   2.010
 3073SOL    HW2 2127   3.424   4.050   2.070
 3076SOL     OW 2128   2.201   4.233   2.868
 3076SOL    HW1 2129   2.149   4.150   2.851
 3076SOL    HW2 2130   2.278   4.238   2.804
 3078SOL     OW 2131   3.022   3.931   3.339
 3078SOL    HW1 2132   3.022   3.995   3.416
 3078SOL    HW2 2133   3.050   3.979   3.256
 3084SOL     OW 2134   2.677   4.296   2.187
 3084SOL    HW1 2135   2.684   4.207   2.141
 3084SOL    HW2 2136   2.583   4.330   2.179
 3086SOL     OW 2137   2.533   4.188   3.131
 3086SOL    HW1 2138   2.499   4.099   3.101
 3086SOL    HW2 2139   2.559   4.242   3.051
 3087SOL     OW 2140   2.335   4.224   2.053
 3087SOL    HW1 2141   2.396   4.304   2.057
 3087SOL    HW2 2142   2.240   4.255   2.060
 3092SOL     OW 2143   3.588   3.859   2.385
 3092SOL    HW1 2144   3.661   3.842   2.318
 3092SOL    HW2 2145   3.557   3.772   2.423
 3095SOL     OW 2146   3.703   3.899   2.825
 3095SOL    HW1 2147   3.742   3.814   2.789
 3095SOL    HW2 2148   3.605   3.901   2.806
 3096SOL     OW 2149   2.125   4.050   2.582
 3096SOL    HW1 2150   2.046   4.101   2.548
 3096SOL    HW2 2151   2.116   4.035   2.680
 3102SOL     OW 2152   2.876   3.960   2.833
 3102SOL    HW1 2153   2.868   3.924   2.740
 3102SOL    HW2 2154   2.874   3.884   2.898
 3105SOL     OW 2155   2.534   3.927   3.351
 3105SOL    HW1 2156   2.624   3.911   3.311
 3105SOL    HW2 2157   2.542   3.932   3.450
 3106SOL     OW 2158   1.937   4.069   1.895
 3106SOL    HW1 2159   1.845   4.041   1.866
 3106SOL    HW2 2160   1.968   4.146   1.839
 3108SOL     OW 2161   1.934   3.890   2.180
 3108SOL    HW1 2162   1.917   3.973   2.126
 3108SOL    HW2 2163   2.024   3.853   2.158
 3114SOL     OW 2164   3.087   4.049   2.311
 3114SOL    HW1 2165   3.152   3.975   2.300
 3114SOL    HW2 2166   3.107   4.099   2.395
 3124SOL     OW 2167   3.686   3.916   3.089
 3124SOL    HW1 2168   3.682   3.826   3.133
 3124SOL    HW2 2169   3.689   3.905   2.990
 3125SOL     OW 2170   2.290   4.148   2.382
 3125SOL    HW1 2171   2.320   4.076   2.320
 3125SOL    HW2 2172   2.251   4.108   2.465
 3128SOL     OW 2173   3.286   3.938   2.974
 3128SOL    HW1 2174   3.338   3.873   3.029
 3128SOL    HW2 2175   3.237   4.001   3.035
 3129SOL     OW 2176   2.863   3.758   3.016
 3129SOL    HW1 2177   2.800   3.686   2.985
 3129SOL    HW2 2178   2.956   3.722   3.016
 3131SOL     OW 2179   3.214   3.776   2.030
 3131SOL    HW1 2180   3.249   3.735   1.946
 3131SOL    HW2 2181   3.124   3.738   2.050
 3132SOL     OW 2182   3.162   4.177   2.553
 3132SOL    HW1 2183   3.103   4.257   2.557
 3132SOL    HW2 2184   3.177   4.142   2.646
 3133SOL     OW 2185   3.455   3.945   2.744
 3133SOL    HW1 2186   3.371   3.944   2.798
 3133SOL    HW2 2187   3.457   4.028   2.688
 3175SOL     OW 2188   2.476   3.846   3.841
 3175SOL    HW1 2189   2.574   3.824   3.848
 3175SOL    HW2 2190   2.445   3.829   3.748
 3179SOL     OW 2191   2.159   3.759   3.895
 3179SOL    HW1 2192   2.208   3.843   3.874
 3179SOL    HW2 2193   2.221   3.694   3.940
 3303SOL     OW 2194   3.854   1.821   1.571
 3303SOL    HW1 2195   3.844   1.806   1.670
 3303SOL    HW2 2196   3.768   1.857   1.535
 3392SOL     OW 2197   3.854   1.794   1.851
 3392SOL    HW1 2198   3.813   1.720   1.904
 3392SOL    HW2 2199   3.918   1.845   1.909
 3445SOL     OW 2200   3.955   1.713   2.345
 3445SOL    HW1 2201   3.989   1.790   2.399
 3445SOL    HW2 2202   3.999   1.713   2.255
 3447SOL     OW 2203   3.954   1.434   2.400
 3447SOL    HW1 2204   3.928   1.530   2.400
 3447SOL    HW2 2205   3.883   1.380   2.445
 3452SOL     OW 2206   3.751   1.596   1.979
 3452SOL    HW1 2207   3.732   1.500   2.000
 3452SOL    HW2 2208   3.718   1.654   2.054
 3469SOL     OW 2209   3.854   1.821   3.433
 3469SOL    HW1 2210   3.844   1.806   3.532
 3469SOL    HW2 2211   3.768   1.857   3.397
 3474SOL     OW 2212   4.075   1.801   2.715
 3474SOL    HW1 2213   4.125   1.715   2.721
 3474SOL    HW2 2214   4.140   1.878   2.712
 3481SOL     OW 2215   3.973   1.785   3.103
 3481SOL    HW1 2216   4.030   1.720   3.153
 3481SOL    HW2 2217   3.957   1.752   3.010
 3513SOL     OW 2218   3.788   1.564   3.193
 3513SOL    HW1 2219   3.742   1.646   3.159
 3513SOL    HW2 2220   3.886   1.583   3.202
 3538SOL     OW 2221   3.732   1.326   2.062
 3538SOL    HW1 2222   3.639   1.347   2.031
 3538SOL    HW2 2223   3.742   1.227   2.075
 3539SOL     OW 2224   3.812   1.801   2.789
 3539SOL    HW1 2225   3.770   1.715   2.762
 3539SOL    HW2 2226   3.906   1.804   2.755
 3747SOL     OW 2227   3.837   2.599   1.597
 3747SOL    HW1 2228   3.925   2.586   1.642
 3747SOL    HW2 2229   3.824   2.696   1.575
 3753SOL     OW 2230   4.041   2.113   1.801
 3753SOL    HW1 2231   4.112   2.184   1.807
 3753SOL    HW2 2232   3.953   2.152   1.829
 3772SOL     OW 2233   3.926   2.147   1.498
 3772SOL    HW1 2234   3.846   2.207   1.485
 3772SOL    HW2 2235   3.916   2.098   1.584
 3791SOL     OW 2236   3.802   2.418   1.386
 3791SOL    HW1 2237   3.894   2.417   1.345
 3791SOL    HW2 2238   3.796   2.492   1.453
 3824SOL     OW 2239   4.074   2.760   1.804
 3824SOL    HW1 2240   4.150   2.804   1.852
 3824SOL    HW2 2241   4.109   2.713   1.722
 3835SOL     OW 2242   3.913   2.382   1.722
 3835SOL    HW1 2243   3.972   2.342   1.652
 3835SOL    HW2 2244   3.855   2.453   1.681
 3842SOL     OW 2245   3.883   2.999   1.466
 3842SOL    HW1 2246   3.905   2.938   1.542
 3842SOL    HW2 2247   3.893   2.950   1.380
 3863SOL     OW 2248   3.829   2.875   1.726
 3863SOL    HW1 2249   3.752   2.842   1.780
 3863SOL    HW2 2250   3.914   2.845   1.768
 3879SOL     OW 2251   3.945   3.176   1.844
 3879SOL    HW1 2252   3.880   3.103   1.823
 3879SOL    HW2 2253   3.949   3.190   1.942
 3891SOL     OW 2254   3.954   2.490   1.975
 3891SOL    HW1 2255   3.861   2.488   2.012
 3891SOL    HW2 2256   3.955   2.451   1.883
 3892SOL     OW 2257   3.949   2.137   2.858
 3892SOL    HW1 2258   3.984   2.120   2.950
 3892SOL    HW2 2259   3.861   2.092   2.846
 3893SOL     OW 2260   3.743   2.230   2.509
 3893SOL    HW1 2261   3.661   2.273   2.548
 3893SOL    HW2 2262   3.715   2.157   2.446
 3901SOL     OW 2263   4.059   3.297   2.923
 3901SOL    HW1 2264   3.981   3.266   2.870
 3901SOL    HW2 2265   4.117   3.355   2.866
 3902SOL     OW 2266   4.162   2.254   3.361
 3902SOL    HW1 2267   4.244   2.198   3.370
 3902SOL    HW2 2268   4.081   2.196   3.365
 3903SOL     OW 2269   3.955   3.575   2.345
 3903SOL    HW1 2270   3.989   3.652   2.399
 3903SOL    HW2 2271   3.999   3.575   2.255
 3905SOL     OW 2272   3.954   3.296   2.400
 3905SOL    HW1 2273   3.928   3.392   2.400
 3905SOL    HW2 2274   3.883   3.242   2.445
 3906SOL     OW 2275   3.964   2.953   2.748
 3906SOL    HW1 2276   3.978   2.869   2.800
 3906SOL    HW2 2277   3.909   3.017   2.803
 3909SOL     OW 2278   3.846   2.505   2.425
 3909SOL    HW1 2279   3.801   2.417   2.442
 3909SOL    HW2 2280   3.845   2.559   2.509
 3910SOL     OW 2281   3.751   3.458   1.979
 3910SOL    HW1 2282   3.732   3.362   2.000
 3910SOL    HW2 2283   3.718   3.516   2.054
 3912SOL     OW 2284   3.837   2.599   3.459
 3912SOL    HW1 2285   3.925   2.586   3.504
 3912SOL    HW2 2286   3.824   2.696   3.437
 3916SOL     OW 2287   3.921   2.838   3.126
 3916SOL    HW1 2288   4.010   2.793   3.112
 3916SOL    HW2 2289   3.848   2.773   3.107
 3919SOL     OW 2290   4.322   2.591   2.132
 3919SOL    HW1 2291   4.346   2.660   2.064
 3919SOL    HW2 2292   4.244   2.624   2.186
 3926SOL     OW 2293   3.800   2.673   2.651
 3926SOL    HW1 2294   3.899   2.661   2.660
 3926SOL    HW2 2295   3.776   2.768   2.672
 3930SOL     OW 2296   4.274   2.058   2.747
 3930SOL    HW1 2297   4.269   2.053   2.847
 3930SOL    HW2 2298   4.276   2.154   2.718
 3934SOL     OW 2299   4.045   2.805   2.104
 3934SOL    HW1 2300   4.127   2.844   2.062
 3934SOL    HW2 2301   4.018   2.723   2.055
 3937SOL     OW 2302   3.926   2.147   3.360
 3937SOL    HW1 2303   3.846   2.207   3.347
 3937SOL    HW2 2304   3.916   2.098   3.446
 3941SOL     OW 2305   4.106   2.562   2.342
 3941SOL    HW1 2306   4.151   2.472   2.339
 3941SOL    HW2 2307   4.012   2.551   2.375
 3950SOL     OW 2308   4.021   1.897   2.033
 3950SOL    HW1 2309   4.070   1.981   2.012
 3950SOL    HW2 2310   4.083   1.832   2.078
 3954SOL     OW 2311   4.183   3.014   2.603
 3954SOL    HW1 2312   4.112   2.987   2.668
 3954SOL    HW2 2313   4.157   2.986   2.510
 3957SOL     OW 2314   3.802   2.418   3.248
 3957SOL    HW1 2315   3.894   2.417   3.207
 3957SOL    HW2 2316   3.796   2.492   3.315
 3963SOL     OW 2317   4.251   2.118   2.190
 3963SOL    HW1 2318   4.278   2.059   2.115
 3963SOL    HW2 2319   4.251   2.213   2.159
 3969SOL     OW 2320   4.134   2.675   3.113
 3969SOL    HW1 2321   4.220   2.687   3.163
 3969SOL    HW2 2322   4.092   2.588   3.140
 3971SOL     OW 2323   3.788   3.426   3.193
 3971SOL    HW1 2324   3.742   3.508   3.159
 3971SOL    HW2 2325   3.886   3.445   3.202
 3972SOL     OW 2326   4.091   2.962   2.363
 3972SOL    HW1 2327   4.084   3.045   2.307
 3972SOL    HW2 2328   4.095   2.882   2.303
 3973SOL     OW 2329   4.290   2.399   2.727
 3973SOL    HW1 2330   4.302   2.465   2.653
 3973SOL    HW2 2331   4.336   2.433   2.810
 3976SOL     OW 2332   4.078   3.372   3.191
 3976SOL    HW1 2333   4.057   3.328   3.104
 3976SOL    HW2 2334   4.175   3.398   3.194
 3977SOL     OW 2335   4.126   2.613   3.460
 3977SOL    HW1 2336   4.194   2.668   3.413
 3977SOL    HW2 2337   4.166   2.525   3.487
 3980SOL     OW 2338   4.297   2.732   2.891
 3980SOL    HW1 2339   4.341   2.821   2.882
 3980SOL    HW2 2340   4.234   2.732   2.968
 3983SOL     OW 2341   4.031   2.075   3.093
 3983SOL    HW1 2342   4.008   2.112   3.183
 3983SOL    HW2 2343   4.001   1.980   3.087
 3984SOL     OW 2344   3.761   3.172   3.144
 3984SOL    HW1 2345   3.814   3.123   3.212
 3984SOL    HW2 2346   3.783   3.270   3.149
 3986SOL     OW 2347   4.031   1.925   2.480
 3986SOL    HW1 2348   4.020   2.019   2.513
 3986SOL    HW2 2349   4.026   1.862   2.557
 3993SOL     OW 2350   4.043   2.672   2.811
 3993SOL    HW1 2351   4.136   2.708   2.816
 3993SOL    HW2 2352   4.037   2.587   2.863
 3994SOL     OW 2353   4.063   2.371   2.868
 3994SOL    HW1 2354   4.011   2.288   2.851
 3994SOL    HW2 2355   4.140   2.376   2.804
 3997SOL     OW 2356   3.732   3.188   2.062
 3997SOL    HW1 2357   3.639   3.209   2.031
 3997SOL    HW2 2358   3.742   3.089   2.075
 3998SOL     OW 2359   3.812   3.663   2.789
 3998SOL    HW1 2360   3.770   3.577   2.762
 3998SOL    HW2 2361   3.906   3.666   2.755
 4001SOL     OW 2362   3.764   2.406   2.976
 4001SOL    HW1 2363   3.849   2.373   2.935
 4001SOL    HW2 2364   3.777   2.421   3.074
 4002SOL     OW 2365   3.913   2.382   3.584
 4002SOL    HW1 2366   3.972   2.342   3.514
 4002SOL    HW2 2367   3.855   2.453   3.543
 4008SOL     OW 2368   4.197   2.362   2.053
 4008SOL    HW1 2369   4.258   2.442   2.057
 4008SOL    HW2 2370   4.102   2.393   2.060
 4009SOL     OW 2371   3.883   2.999   3.328
 4009SOL    HW1 2372   3.905   2.938   3.404
 4009SOL    HW2 2373   3.893   2.950   3.242
 4013SOL     OW 2374   3.807   3.120   2.884
 4013SOL    HW1 2375   3.802   3.119   2.984
 4013SOL    HW2 2376   3.724   3.079   2.846
 4020SOL     OW 2377   3.987   2.188   2.582
 4020SOL    HW1 2378   3.908   2.239   2.548
 4020SOL    HW2 2379   3.978   2.173   2.680
 4024SOL     OW 2380   4.096   3.150   3.352
 4024SOL    HW1 2381   4.083   3.243   3.318
 4024SOL    HW2 2382   4.012   3.098   3.339
 4028SOL     OW 2383   3.979   3.210   2.152
 4028SOL    HW1 2384   3.883   3.211   2.125
 4028SOL    HW2 2385   3.991   3.263   2.236
 4029SOL     OW 2386   3.829   2.875   3.588
 4029SOL    HW1 2387   3.752   2.842   3.642
 4029SOL    HW2 2388   3.914   2.845   3.630
 4031SOL     OW 2389   3.799   2.207   1.895
 4031SOL    HW1 2390   3.707   2.179   1.866
 4031SOL    HW2 2391   3.830   2.284   1.839
 4033SOL     OW 2392   3.796   2.028   2.180
 4033SOL    HW1 2393   3.779   2.111   2.126
 4033SOL    HW2 2394   3.886   1.991   2.158
 4040SOL     OW 2395   4.318   2.607   2.514
 4040SOL    HW1 2396   4.368   2.692   2.495
 4040SOL    HW2 2397   4.230   2.609   2.466
 4046SOL     OW 2398   3.803   3.102   2.515
 4046SOL    HW1 2399   3.802   3.055   2.603
 4046SOL    HW2 2400   3.885   3.074   2.464
 4048SOL     OW 2401   4.152   2.286   2.382
 4048SOL    HW1 2402   4.182   2.214   2.320
 4048SOL    HW2 2403   4.113   2.246   2.465
 4049SOL     OW 2404   4.041   2.409   3.142
 4049SOL    HW1 2405   4.079   2.350   3.214
 4049SOL    HW2 2406   4.081   2.383   3.054
 4056SOL     OW 2407   3.763   2.939   2.162
 4056SOL    HW1 2408   3.862   2.928   2.153
 4056SOL    HW2 2409   3.723   2.853   2.194
 4169SOL     OW 2410   3.799   2.207   3.757
 4169SOL    HW1 2411   3.707   2.179   3.728
 4169SOL    HW2 2412   3.830   2.284   3.701
   5.18807   5.18807   5.18807
