; mobley_4305650_GMX.itp created by acpype (v: 2023.10.27) on Thu May 21 00:24:04 2026

[ atomtypes ]
;name   bond_type     mass     charge   ptype   sigma         epsilon       Amb
 c1       c1          0.00000  0.00000   A     3.47896e-01   6.67766e-01 ; 1.95  0.1596
 c3       c3          0.00000  0.00000   A     3.39771e-01   4.51035e-01 ; 1.91  0.1078
 n1       n1          0.00000  0.00000   A     3.27352e-01   4.59403e-01 ; 1.84  0.1098
 hc       hc          0.00000  0.00000   A     2.60018e-01   8.70272e-02 ; 1.46  0.0208

[ moleculetype ]
;name            nrexcl
 mobley_4305650   3

[ atoms ]
;   nr  type  resi  res  atom  cgnr     charge      mass       ; qtot   bond_type
     1   c1     1   MOL    C1    1     0.209700     12.01000 ; qtot 0.210
     2   c3     1   MOL    C2    2    -0.094100     12.01000 ; qtot 0.116
     3   c3     1   MOL    C3    3    -0.023300     12.01000 ; qtot 0.092
     4   n1     1   MOL    N1    4    -0.375800     14.01000 ; qtot -0.283
     5   hc     1   MOL    H1    5     0.046700      1.00800 ; qtot -0.237
     6   hc     1   MOL    H2    6     0.046700      1.00800 ; qtot -0.190
     7   hc     1   MOL    H3    7     0.046700      1.00800 ; qtot -0.143
     8   hc     1   MOL    H4    8     0.071700      1.00800 ; qtot -0.072
     9   hc     1   MOL    H5    9     0.071700      1.00800 ; qtot 0.000

[ bonds ]
;   ai     aj funct   r             k
     1      3   1    1.4656e-01    2.3814e+05 ;     C1 - C3    
     1      4   1    1.1619e-01    6.2865e+05 ;     C1 - N1    
     2      3   1    1.5354e-01    1.9154e+05 ;     C2 - C3    
     2      5   1    1.0962e-01    2.8891e+05 ;     C2 - H1    
     2      6   1    1.0962e-01    2.8891e+05 ;     C2 - H2    
     2      7   1    1.0962e-01    2.8891e+05 ;     C2 - H3    
     3      8   1    1.0962e-01    2.8891e+05 ;     C3 - H4    
     3      9   1    1.0962e-01    2.8891e+05 ;     C3 - H5    

[ pairs ]
;   ai     aj    funct
     1      5      1 ;     C1 - H1    
     1      6      1 ;     C1 - H2    
     1      7      1 ;     C1 - H3    
     4      2      1 ;     N1 - C2    
     4      8      1 ;     N1 - H4    
     4      9      1 ;     N1 - H5    
     5      8      1 ;     H1 - H4    
     5      9      1 ;     H1 - H5    
     6      8      1 ;     H2 - H4    
     6      9      1 ;     H2 - H5    
     7      8      1 ;     H3 - H4    
     7      9      1 ;     H3 - H5    

[ angles ]
;   ai     aj     ak    funct   theta         cth
     1      3      2      1    1.1202e+02    5.1354e+02 ;     C1 - C3     - C2    
     1      3      8      1    1.0945e+02    3.7765e+02 ;     C1 - C3     - H4    
     1      3      9      1    1.0945e+02    3.7765e+02 ;     C1 - C3     - H5    
     2      3      8      1    1.0968e+02    3.6208e+02 ;     C2 - C3     - H4    
     2      3      9      1    1.0968e+02    3.6208e+02 ;     C2 - C3     - H5    
     3      1      4      1    1.7866e+02    4.8049e+02 ;     C3 - C1     - N1    
     3      2      5      1    1.0968e+02    3.6208e+02 ;     C3 - C2     - H1    
     3      2      6      1    1.0968e+02    3.6208e+02 ;     C3 - C2     - H2    
     3      2      7      1    1.0968e+02    3.6208e+02 ;     C3 - C2     - H3    
     5      2      6      1    1.0773e+02    2.9957e+02 ;     H1 - C2     - H2    
     5      2      7      1    1.0773e+02    2.9957e+02 ;     H1 - C2     - H3    
     6      2      7      1    1.0773e+02    2.9957e+02 ;     H2 - C2     - H3    
     8      3      9      1    1.0773e+02    2.9957e+02 ;     H4 - C3     - H5    

[ dihedrals ] ; propers
; for gromacs 4.5 or higher, using funct 9
;    i      j      k      l   func   phase     kd      pn
     1      3      2      5      9     0.00   0.65084   3 ;     C1-    C3-    C2-    H1
     1      3      2      6      9     0.00   0.65084   3 ;     C1-    C3-    C2-    H2
     1      3      2      7      9     0.00   0.65084   3 ;     C1-    C3-    C2-    H3
     4      1      3      2      9   180.00   0.00000   2 ;     N1-    C1-    C3-    C2
     4      1      3      8      9   180.00   0.00000   2 ;     N1-    C1-    C3-    H4
     4      1      3      9      9   180.00   0.00000   2 ;     N1-    C1-    C3-    H5
     5      2      3      8      9     0.00   0.50208   3 ;     H1-    C2-    C3-    H4
     5      2      3      9      9     0.00   0.50208   3 ;     H1-    C2-    C3-    H5
     6      2      3      8      9     0.00   0.50208   3 ;     H2-    C2-    C3-    H4
     6      2      3      9      9     0.00   0.50208   3 ;     H2-    C2-    C3-    H5
     7      2      3      8      9     0.00   0.50208   3 ;     H3-    C2-    C3-    H4
     7      2      3      9      9     0.00   0.50208   3 ;     H3-    C2-    C3-    H5
