; mobley_9055303_GMX.itp created by acpype (v: 2023.10.27) on Thu May 21 00:16:26 2026

[ atomtypes ]
;name   bond_type     mass     charge   ptype   sigma         epsilon       Amb
 hc       hc          0.00000  0.00000   A     2.60018e-01   8.70272e-02 ; 1.46  0.0208
 c3       c3          0.00000  0.00000   A     3.39771e-01   4.51035e-01 ; 1.91  0.1078

[ moleculetype ]
;name            nrexcl
 mobley_9055303   3

[ atoms ]
;   nr  type  resi  res  atom  cgnr     charge      mass       ; qtot   bond_type
     1   hc     1   MOL    H1    1     0.026700      1.00800 ; qtot 0.027
     2   c3     1   MOL    C1    2    -0.106800     12.01000 ; qtot -0.080
     3   hc     1   MOL    H2    3     0.026700      1.00800 ; qtot -0.053
     4   hc     1   MOL    H3    4     0.026700      1.00800 ; qtot -0.027
     5   hc     1   MOL    H4    5     0.026700      1.00800 ; qtot 0.000

[ bonds ]
;   ai     aj funct   r             k
     1      2   1    1.0962e-01    2.8891e+05 ;     H1 - C1    
     2      3   1    1.0962e-01    2.8891e+05 ;     C1 - H2    
     2      4   1    1.0962e-01    2.8891e+05 ;     C1 - H3    
     2      5   1    1.0962e-01    2.8891e+05 ;     C1 - H4    

[ angles ]
;   ai     aj     ak    funct   theta         cth
     1      2      3      1    1.0773e+02    2.9957e+02 ;     H1 - C1     - H2    
     1      2      4      1    1.0773e+02    2.9957e+02 ;     H1 - C1     - H3    
     1      2      5      1    1.0773e+02    2.9957e+02 ;     H1 - C1     - H4    
     3      2      4      1    1.0773e+02    2.9957e+02 ;     H2 - C1     - H3    
     3      2      5      1    1.0773e+02    2.9957e+02 ;     H2 - C1     - H4    
     4      2      5      1    1.0773e+02    2.9957e+02 ;     H3 - C1     - H4    
