mobley_7735340_GMX.gro created by acpype (v: 2023.10.27) on Tue May 19 14:04:39 2026
 2394
    1MOL     C1    1   2.301   2.294   2.221
    1MOL     C2    2   2.166   2.293   2.248
    1MOL     C3    3   2.234   2.099   2.167
    1MOL     N1    4   2.342   2.173   2.171
    1MOL     N2    5   2.124   2.167   2.213
    1MOL     H1    6   2.370   2.376   2.235
    1MOL     H2    7   2.098   2.367   2.287
    1MOL     H3    8   2.228   1.997   2.133
    1MOL     H4    9   2.030   2.131   2.220
    6SOL     OW   10   1.555   1.511   0.703
    6SOL    HW1   11   1.498   1.495   0.784
    6SOL    HW2   12   1.496   1.521   0.623
   14SOL     OW   13   1.460   1.505   1.339
   14SOL    HW1   14   1.484   1.599   1.365
   14SOL    HW2   15   1.444   1.451   1.421
   18SOL     OW   16   1.127   1.341   1.690
   18SOL    HW1   17   1.174   1.341   1.778
   18SOL    HW2   18   1.079   1.254   1.679
   31SOL     OW   19   1.293   1.228   1.423
   31SOL    HW1   20   1.330   1.155   1.365
   31SOL    HW2   21   1.345   1.233   1.508
   35SOL     OW   22   1.187   1.792   1.616
   35SOL    HW1   23   1.211   1.852   1.540
   35SOL    HW2   24   1.194   1.697   1.586
   37SOL     OW   25   1.466   1.417   0.953
   37SOL    HW1   26   1.407   1.423   1.033
   37SOL    HW2   27   1.451   1.329   0.907
   38SOL     OW   28   1.667   1.714   0.572
   38SOL    HW1   29   1.626   1.691   0.484
   38SOL    HW2   30   1.649   1.640   0.637
   50SOL     OW   31   1.719   0.585   1.831
   50SOL    HW1   32   1.693   0.674   1.795
   50SOL    HW2   33   1.717   0.517   1.758
   56SOL     OW   34   1.227   1.550   1.506
   56SOL    HW1   35   1.233   1.473   1.570
   56SOL    HW2   36   1.175   1.524   1.426
   95SOL     OW   37   1.754   1.223   1.588
   95SOL    HW1   38   1.845   1.184   1.575
   95SOL    HW2   39   1.762   1.319   1.612
   96SOL     OW   40   1.064   1.347   1.340
   96SOL    HW1   41   0.984   1.324   1.395
   96SOL    HW2   42   1.147   1.321   1.389
   97SOL     OW   43   1.592   1.629   1.625
   97SOL    HW1   44   1.619   1.663   1.535
   97SOL    HW2   45   1.671   1.591   1.671
   99SOL     OW   46   1.638   1.099   1.079
   99SOL    HW1   47   1.643   1.180   1.138
   99SOL    HW2   48   1.552   1.101   1.028
  101SOL     OW   49   0.980   1.116   1.719
  101SOL    HW1   50   0.881   1.122   1.729
  101SOL    HW2   51   1.003   1.036   1.663
  109SOL     OW   52   1.272   1.445   1.142
  109SOL    HW1   53   1.319   1.458   1.229
  109SOL    HW2   54   1.206   1.371   1.151
  113SOL     OW   55   1.587   0.779   1.670
  113SOL    HW1   56   1.495   0.817   1.665
  113SOL    HW2   57   1.647   0.826   1.605
  122SOL     OW   58   1.728   0.935   1.854
  122SOL    HW1   59   1.682   0.928   1.765
  122SOL    HW2   60   1.666   0.979   1.920
  126SOL     OW   61   0.980   1.573   1.700
  126SOL    HW1   62   0.960   1.617   1.612
  126SOL    HW2   63   1.019   1.482   1.684
  127SOL     OW   64   1.859   1.518   1.605
  127SOL    HW1   65   1.873   1.545   1.510
  127SOL    HW2   66   1.942   1.540   1.658
  142SOL     OW   67   1.369   0.950   1.660
  142SOL    HW1   68   1.408   1.039   1.680
  142SOL    HW2   69   1.379   0.930   1.563
  147SOL     OW   70   0.930   1.678   1.465
  147SOL    HW1   71   0.906   1.660   1.370
  147SOL    HW2   72   0.960   1.772   1.475
  150SOL     OW   73   1.347   1.059   1.234
  150SOL    HW1   74   1.371   0.996   1.160
  150SOL    HW2   75   1.257   1.099   1.216
  152SOL     OW   76   1.759   1.747   1.154
  152SOL    HW1   77   1.820   1.777   1.081
  152SOL    HW2   78   1.721   1.658   1.132
  153SOL     OW   79   1.252   1.731   1.128
  153SOL    HW1   80   1.336   1.736   1.074
  153SOL    HW2   81   1.229   1.635   1.146
  155SOL     OW   82   0.688   1.662   1.716
  155SOL    HW1   83   0.632   1.743   1.725
  155SOL    HW2   84   0.740   1.666   1.630
  163SOL     OW   85   1.650   1.720   1.394
  163SOL    HW1   86   1.703   1.730   1.310
  163SOL    HW2   87   1.623   1.810   1.428
  171SOL     OW   88   1.614   1.292   1.289
  171SOL    HW1   89   1.674   1.295   1.369
  171SOL    HW2   90   1.539   1.356   1.302
  180SOL     OW   91   1.440   0.856   1.398
  180SOL    HW1   92   1.383   0.908   1.335
  180SOL    HW2   93   1.536   0.868   1.374
  184SOL     OW   94   1.493   1.767   0.959
  184SOL    HW1   95   1.526   1.831   0.890
  184SOL    HW2   96   1.559   1.761   1.034
  186SOL     OW   97   1.450   1.220   1.633
  186SOL    HW1   98   1.441   1.210   1.732
  186SOL    HW2   99   1.546   1.213   1.607
  188SOL     OW  100   1.674   0.883   1.254
  188SOL    HW1  101   1.647   0.794   1.217
  188SOL    HW2  102   1.675   0.951   1.181
  192SOL     OW  103   1.730   0.934   1.517
  192SOL    HW1  104   1.768   1.025   1.532
  192SOL    HW2  105   1.722   0.917   1.418
  197SOL     OW  106   1.861   1.569   0.851
  197SOL    HW1  107   1.790   1.557   0.781
  197SOL    HW2  108   1.862   1.490   0.911
  203SOL     OW  109   1.705   1.487   1.104
  203SOL    HW1  110   1.612   1.462   1.077
  203SOL    HW2  111   1.731   1.437   1.186
  219SOL     OW  112   1.555   1.511   2.565
  219SOL    HW1  113   1.498   1.495   2.646
  219SOL    HW2  114   1.496   1.521   2.485
  221SOL     OW  115   1.755   0.607   2.093
  221SOL    HW1  116   1.743   0.594   1.994
  221SOL    HW2  117   1.725   0.526   2.142
  227SOL     OW  118   1.460   1.505   3.201
  227SOL    HW1  119   1.484   1.599   3.227
  227SOL    HW2  120   1.444   1.451   3.283
  238SOL     OW  121   1.842   1.767   2.221
  238SOL    HW1  122   1.896   1.738   2.301
  238SOL    HW2  123   1.872   1.857   2.192
  240SOL     OW  124   1.689   0.922   2.474
  240SOL    HW1  125   1.784   0.893   2.482
  240SOL    HW2  126   1.681   0.987   2.399
  241SOL     OW  127   1.641   1.108   2.294
  241SOL    HW1  128   1.727   1.110   2.242
  241SOL    HW2  129   1.655   1.155   2.382
  244SOL     OW  130   1.293   1.228   3.285
  244SOL    HW1  131   1.330   1.155   3.227
  244SOL    HW2  132   1.345   1.233   3.370
  247SOL     OW  133   1.525   0.999   2.052
  247SOL    HW1  134   1.462   0.923   2.065
  247SOL    HW2  135   1.573   1.017   2.138
  248SOL     OW  136   1.187   1.792   3.478
  248SOL    HW1  137   1.211   1.852   3.402
  248SOL    HW2  138   1.194   1.697   3.448
  250SOL     OW  139   1.466   1.417   2.815
  250SOL    HW1  140   1.407   1.423   2.895
  250SOL    HW2  141   1.451   1.329   2.769
  251SOL     OW  142   1.667   1.714   2.434
  251SOL    HW1  143   1.626   1.691   2.346
  251SOL    HW2  144   1.649   1.640   2.499
  254SOL     OW  145   1.576   1.662   2.169
  254SOL    HW1  146   1.665   1.708   2.172
  254SOL    HW2  147   1.555   1.638   2.074
  264SOL     OW  148   1.362   1.144   2.407
  264SOL    HW1  149   1.445   1.115   2.359
  264SOL    HW2  150   1.313   1.211   2.351
  266SOL     OW  151   1.008   1.456   2.339
  266SOL    HW1  152   0.962   1.528   2.287
  266SOL    HW2  153   1.004   1.476   2.437
  268SOL     OW  154   1.795   1.066   2.735
  268SOL    HW1  155   1.733   1.051   2.659
  268SOL    HW2  156   1.743   1.077   2.820
  269SOL     OW  157   1.227   1.550   3.368
  269SOL    HW1  158   1.233   1.473   3.432
  269SOL    HW2  159   1.175   1.524   3.288
  271SOL     OW  160   1.458   0.735   2.590
  271SOL    HW1  161   1.453   0.670   2.665
  271SOL    HW2  162   1.538   0.794   2.603
  273SOL     OW  163   1.111   1.776   2.099
  273SOL    HW1  164   1.051   1.714   2.149
  273SOL    HW2  165   1.142   1.732   2.014
  275SOL     OW  166   1.632   1.377   1.943
  275SOL    HW1  167   1.600   1.471   1.933
  275SOL    HW2  168   1.556   1.314   1.931
  279SOL     OW  169   0.940   1.698   2.766
  279SOL    HW1  170   1.020   1.641   2.787
  279SOL    HW2  171   0.891   1.658   2.689
  284SOL     OW  172   0.888   1.514   3.057
  284SOL    HW1  173   0.865   1.489   2.963
  284SOL    HW2  174   0.949   1.445   3.096
  286SOL     OW  175   0.803   1.402   2.786
  286SOL    HW1  176   0.893   1.416   2.744
  286SOL    HW2  177   0.732   1.404   2.715
  289SOL     OW  178   1.434   1.188   1.903
  289SOL    HW1  179   1.466   1.112   1.960
  289SOL    HW2  180   1.342   1.215   1.933
  293SOL     OW  181   1.227   1.570   2.655
  293SOL    HW1  182   1.248   1.644   2.590
  293SOL    HW2  183   1.295   1.570   2.728
  295SOL     OW  184   1.271   1.797   2.453
  295SOL    HW1  185   1.315   1.861   2.389
  295SOL    HW2  186   1.221   1.849   2.523
  301SOL     OW  187   1.429   1.173   2.729
  301SOL    HW1  188   1.374   1.089   2.722
  301SOL    HW2  189   1.455   1.202   2.637
  303SOL     OW  190   1.857   0.833   2.239
  303SOL    HW1  191   1.899   0.769   2.303
  303SOL    HW2  192   1.819   0.782   2.161
  305SOL     OW  193   1.664   1.280   2.519
  305SOL    HW1  194   1.763   1.288   2.533
  305SOL    HW2  195   1.619   1.364   2.550
  308SOL     OW  196   1.754   1.223   3.450
  308SOL    HW1  197   1.845   1.184   3.437
  308SOL    HW2  198   1.762   1.319   3.474
  309SOL     OW  199   1.064   1.347   3.202
  309SOL    HW1  200   0.984   1.324   3.257
  309SOL    HW2  201   1.147   1.321   3.251
  310SOL     OW  202   1.592   1.629   3.487
  310SOL    HW1  203   1.619   1.663   3.397
  310SOL    HW2  204   1.671   1.591   3.533
  311SOL     OW  205   1.111   1.195   2.962
  311SOL    HW1  206   1.071   1.239   3.043
  311SOL    HW2  207   1.070   1.232   2.879
  312SOL     OW  208   1.638   1.099   2.941
  312SOL    HW1  209   1.643   1.180   3.000
  312SOL    HW2  210   1.552   1.101   2.890
  321SOL     OW  211   1.252   1.348   2.250
  321SOL    HW1  212   1.302   1.425   2.290
  321SOL    HW2  213   1.157   1.350   2.282
  322SOL     OW  214   1.272   1.445   3.004
  322SOL    HW1  215   1.319   1.458   3.091
  322SOL    HW2  216   1.206   1.371   3.013
  323SOL     OW  217   1.582   0.639   2.334
  323SOL    HW1  218   1.551   0.700   2.407
  323SOL    HW2  219   1.632   0.691   2.265
  330SOL     OW  220   1.360   0.862   2.907
  330SOL    HW1  221   1.285   0.862   2.841
  330SOL    HW2  222   1.397   0.770   2.916
  340SOL     OW  223   1.859   1.518   3.467
  340SOL    HW1  224   1.873   1.545   3.372
  340SOL    HW2  225   1.942   1.540   3.520
  343SOL     OW  226   1.303   0.838   1.904
  343SOL    HW1  227   1.337   0.745   1.919
  343SOL    HW2  228   1.321   0.865   1.809
  344SOL     OW  229   1.068   1.333   2.711
  344SOL    HW1  230   1.075   1.249   2.656
  344SOL    HW2  231   1.130   1.402   2.675
  360SOL     OW  232   0.930   1.678   3.327
  360SOL    HW1  233   0.906   1.660   3.232
  360SOL    HW2  234   0.960   1.772   3.337
  363SOL     OW  235   1.347   1.059   3.096
  363SOL    HW1  236   1.371   0.996   3.022
  363SOL    HW2  237   1.257   1.099   3.078
  364SOL     OW  238   1.302   0.855   2.171
  364SOL    HW1  239   1.216   0.824   2.213
  364SOL    HW2  240   1.298   0.841   2.072
  365SOL     OW  241   1.759   1.747   3.016
  365SOL    HW1  242   1.820   1.777   2.943
  365SOL    HW2  243   1.721   1.658   2.994
  366SOL     OW  244   1.252   1.731   2.990
  366SOL    HW1  245   1.336   1.736   2.936
  366SOL    HW2  246   1.229   1.635   3.008
  370SOL     OW  247   1.388   1.573   2.339
  370SOL    HW1  248   1.455   1.585   2.265
  370SOL    HW2  249   1.348   1.662   2.362
  372SOL     OW  250   1.280   0.927   2.534
  372SOL    HW1  251   1.340   0.846   2.536
  372SOL    HW2  252   1.320   0.996   2.474
  374SOL     OW  253   0.672   1.616   2.016
  374SOL    HW1  254   0.681   1.626   1.917
  374SOL    HW2  255   0.632   1.527   2.037
  375SOL     OW  256   1.650   1.720   3.256
  375SOL    HW1  257   1.703   1.730   3.172
  375SOL    HW2  258   1.623   1.810   3.290
  378SOL     OW  259   1.194   1.612   1.893
  378SOL    HW1  260   1.200   1.519   1.930
  378SOL    HW2  261   1.135   1.612   1.813
  381SOL     OW  262   1.504   1.607   1.906
  381SOL    HW1  263   1.412   1.644   1.913
  381SOL    HW2  264   1.542   1.627   1.816
  383SOL     OW  265   1.614   1.292   3.151
  383SOL    HW1  266   1.674   1.295   3.231
  383SOL    HW2  267   1.539   1.356   3.164
  384SOL     OW  268   1.039   1.098   2.558
  384SOL    HW1  269   0.969   1.051   2.612
  384SOL    HW2  270   1.098   1.030   2.515
  386SOL     OW  271   0.590   1.487   2.353
  386SOL    HW1  272   0.632   1.429   2.283
  386SOL    HW2  273   0.546   1.566   2.309
  394SOL     OW  274   1.183   1.335   1.981
  394SOL    HW1  275   1.084   1.324   1.983
  394SOL    HW2  276   1.217   1.350   2.074
  396SOL     OW  277   1.493   1.767   2.821
  396SOL    HW1  278   1.526   1.831   2.752
  396SOL    HW2  279   1.559   1.761   2.896
  398SOL     OW  280   1.450   1.220   3.495
  398SOL    HW1  281   1.441   1.210   3.594
  398SOL    HW2  282   1.546   1.213   3.469
  400SOL     OW  283   1.674   0.883   3.116
  400SOL    HW1  284   1.647   0.794   3.079
  400SOL    HW2  285   1.675   0.951   3.043
  404SOL     OW  286   1.730   0.934   3.379
  404SOL    HW1  287   1.768   1.025   3.394
  404SOL    HW2  288   1.722   0.917   3.280
  405SOL     OW  289   0.859   1.374   1.878
  405SOL    HW1  290   0.813   1.389   1.966
  405SOL    HW2  291   0.903   1.459   1.848
  406SOL     OW  292   0.661   1.790   2.815
  406SOL    HW1  293   0.615   1.878   2.802
  406SOL    HW2  294   0.760   1.802   2.808
  408SOL     OW  295   1.083   0.984   1.949
  408SOL    HW1  296   1.060   1.037   1.867
  408SOL    HW2  297   1.164   0.928   1.930
  409SOL     OW  298   1.861   1.569   2.713
  409SOL    HW1  299   1.790   1.557   2.643
  409SOL    HW2  300   1.862   1.490   2.773
  415SOL     OW  301   1.705   1.487   2.966
  415SOL    HW1  302   1.612   1.462   2.939
  415SOL    HW2  303   1.731   1.437   3.048
  417SOL     OW  304   0.812   1.586   2.549
  417SOL    HW1  305   0.844   1.596   2.455
  417SOL    HW2  306   0.733   1.524   2.551
  420SOL     OW  307   0.770   1.330   2.163
  420SOL    HW1  308   0.724   1.243   2.180
  420SOL    HW2  309   0.861   1.327   2.204
  426SOL     OW  310   0.875   1.646   2.199
  426SOL    HW1  311   0.798   1.611   2.145
  426SOL    HW2  312   0.843   1.717   2.261
  512SOL     OW  313   0.850   2.660   1.823
  512SOL    HW1  314   0.846   2.736   1.888
  512SOL    HW2  315   0.872   2.696   1.732
  514SOL     OW  316   0.686   3.023   1.803
  514SOL    HW1  317   0.746   3.102   1.817
  514SOL    HW2  318   0.600   3.054   1.762
  516SOL     OW  319   1.460   3.367   1.339
  516SOL    HW1  320   1.484   3.461   1.365
  516SOL    HW2  321   1.444   3.313   1.421
  518SOL     OW  322   1.603   2.309   0.737
  518SOL    HW1  323   1.529   2.355   0.687
  518SOL    HW2  324   1.654   2.377   0.790
  520SOL     OW  325   1.127   3.203   1.690
  520SOL    HW1  326   1.174   3.203   1.778
  520SOL    HW2  327   1.079   3.116   1.679
  525SOL     OW  328   1.594   1.976   1.480
  525SOL    HW1  329   1.576   2.043   1.408
  525SOL    HW2  330   1.591   2.022   1.569
  529SOL     OW  331   1.689   2.784   0.612
  529SOL    HW1  332   1.784   2.755   0.620
  529SOL    HW2  333   1.681   2.849   0.537
  533SOL     OW  334   1.293   3.090   1.423
  533SOL    HW1  335   1.330   3.017   1.365
  533SOL    HW2  336   1.345   3.095   1.508
  542SOL     OW  337   1.281   2.207   0.944
  542SOL    HW1  338   1.195   2.157   0.931
  542SOL    HW2  339   1.343   2.153   1.000
  544SOL     OW  340   0.807   2.467   1.465
  544SOL    HW1  341   0.760   2.464   1.554
  544SOL    HW2  342   0.756   2.412   1.399
  545SOL     OW  343   1.394   2.331   1.674
  545SOL    HW1  344   1.374   2.374   1.762
  545SOL    HW2  345   1.472   2.269   1.683
  546SOL     OW  346   0.973   2.752   1.572
  546SOL    HW1  347   1.019   2.668   1.543
  546SOL    HW2  348   0.917   2.786   1.497
  547SOL     OW  349   0.991   2.272   1.242
  547SOL    HW1  350   0.914   2.306   1.296
  547SOL    HW2  351   0.957   2.221   1.163
  552SOL     OW  352   1.719   2.447   1.831
  552SOL    HW1  353   1.693   2.536   1.795
  552SOL    HW2  354   1.717   2.379   1.758
  557SOL     OW  355   1.795   2.928   0.873
  557SOL    HW1  356   1.733   2.913   0.797
  557SOL    HW2  357   1.743   2.939   0.958
  558SOL     OW  358   1.227   3.412   1.506
  558SOL    HW1  359   1.233   3.335   1.570
  558SOL    HW2  360   1.175   3.386   1.426
  560SOL     OW  361   1.458   2.597   0.728
  560SOL    HW1  362   1.453   2.532   0.803
  560SOL    HW2  363   1.538   2.656   0.741
  570SOL     OW  364   1.547   2.084   1.729
  570SOL    HW1  365   1.542   2.121   1.821
  570SOL    HW2  366   1.475   2.015   1.717
  572SOL     OW  367   0.781   2.126   1.749
  572SOL    HW1  368   0.848   2.065   1.792
  572SOL    HW2  369   0.708   2.145   1.814
  574SOL     OW  370   1.351   2.452   1.433
  574SOL    HW1  371   1.379   2.409   1.518
  574SOL    HW2  372   1.376   2.548   1.434
  580SOL     OW  373   1.076   2.545   1.464
  580SOL    HW1  374   0.996   2.484   1.467
  580SOL    HW2  375   1.157   2.492   1.440
  589SOL     OW  376   1.429   3.035   0.867
  589SOL    HW1  377   1.374   2.951   0.860
  589SOL    HW2  378   1.455   3.064   0.775
  590SOL     OW  379   1.466   2.452   0.992
  590SOL    HW1  380   1.436   2.357   0.999
  590SOL    HW2  381   1.539   2.468   1.058
  596SOL     OW  382   1.754   3.085   1.588
  596SOL    HW1  383   1.845   3.046   1.575
  596SOL    HW2  384   1.762   3.181   1.612
  597SOL     OW  385   1.064   3.209   1.340
  597SOL    HW1  386   0.984   3.186   1.395
  597SOL    HW2  387   1.147   3.183   1.389
  598SOL     OW  388   1.592   3.491   1.625
  598SOL    HW1  389   1.619   3.525   1.535
  598SOL    HW2  390   1.671   3.453   1.671
  599SOL     OW  391   1.111   3.057   1.100
  599SOL    HW1  392   1.071   3.101   1.181
  599SOL    HW2  393   1.070   3.094   1.017
  600SOL     OW  394   1.638   2.961   1.079
  600SOL    HW1  395   1.643   3.042   1.138
  600SOL    HW2  396   1.552   2.963   1.028
  601SOL     OW  397   0.915   1.951   1.402
  601SOL    HW1  398   0.940   1.931   1.307
  601SOL    HW2  399   0.987   2.007   1.444
  602SOL     OW  400   0.980   2.978   1.719
  602SOL    HW1  401   0.881   2.984   1.729
  602SOL    HW2  402   1.003   2.898   1.663
  605SOL     OW  403   1.274   2.248   1.262
  605SOL    HW1  404   1.295   2.322   1.326
  605SOL    HW2  405   1.185   2.265   1.219
  610SOL     OW  406   1.272   3.307   1.142
  610SOL    HW1  407   1.319   3.320   1.229
  610SOL    HW2  408   1.206   3.233   1.151
  614SOL     OW  409   1.587   2.641   1.670
  614SOL    HW1  410   1.495   2.679   1.665
  614SOL    HW2  411   1.647   2.688   1.605
  615SOL     OW  412   1.013   1.967   1.770
  615SOL    HW1  413   1.019   2.052   1.718
  615SOL    HW2  414   1.045   1.891   1.713
  616SOL     OW  415   0.504   1.912   1.740
  616SOL    HW1  416   0.462   1.855   1.670
  616SOL    HW2  417   0.438   1.981   1.772
  618SOL     OW  418   1.360   2.724   1.045
  618SOL    HW1  419   1.285   2.724   0.979
  618SOL    HW2  420   1.397   2.632   1.054
  623SOL     OW  421   1.728   2.797   1.854
  623SOL    HW1  422   1.682   2.790   1.765
  623SOL    HW2  423   1.666   2.841   1.920
  626SOL     OW  424   1.023   2.628   0.966
  626SOL    HW1  425   1.038   2.649   1.062
  626SOL    HW2  426   0.993   2.533   0.957
  628SOL     OW  427   1.859   3.380   1.605
  628SOL    HW1  428   1.873   3.407   1.510
  628SOL    HW2  429   1.942   3.402   1.658
  635SOL     OW  430   1.138   2.242   1.678
  635SOL    HW1  431   1.093   2.305   1.742
  635SOL    HW2  432   1.231   2.273   1.661
  636SOL     OW  433   1.160   2.069   1.477
  636SOL    HW1  434   1.160   2.133   1.554
  636SOL    HW2  435   1.188   2.117   1.394
  640SOL     OW  436   1.002   2.658   1.238
  640SOL    HW1  437   1.043   2.626   1.324
  640SOL    HW2  438   0.906   2.631   1.235
  643SOL     OW  439   1.369   2.812   1.660
  643SOL    HW1  440   1.408   2.901   1.680
  643SOL    HW2  441   1.379   2.792   1.563
  645SOL     OW  442   1.657   2.466   1.206
  645SOL    HW1  443   1.619   2.397   1.268
  645SOL    HW2  444   1.739   2.430   1.162
  651SOL     OW  445   1.347   2.921   1.234
  651SOL    HW1  446   1.371   2.858   1.160
  651SOL    HW2  447   1.257   2.961   1.216
  658SOL     OW  448   1.726   1.997   0.523
  658SOL    HW1  449   1.799   1.980   0.456
  658SOL    HW2  450   1.695   1.910   0.561
  664SOL     OW  451   1.650   3.582   1.394
  664SOL    HW1  452   1.703   3.592   1.310
  664SOL    HW2  453   1.623   3.672   1.428
  665SOL     OW  454   1.841   2.037   0.963
  665SOL    HW1  455   1.880   1.952   0.927
  665SOL    HW2  456   1.743   2.039   0.944
  668SOL     OW  457   0.822   2.864   1.372
  668SOL    HW1  458   0.862   2.863   1.280
  668SOL    HW2  459   0.832   2.956   1.412
  672SOL     OW  460   1.614   3.154   1.289
  672SOL    HW1  461   1.674   3.157   1.369
  672SOL    HW2  462   1.539   3.218   1.302
  674SOL     OW  463   1.014   2.098   0.971
  674SOL    HW1  464   1.006   2.062   0.878
  674SOL    HW2  465   1.012   2.022   1.036
  676SOL     OW  466   1.709   2.247   1.381
  676SOL    HW1  467   1.782   2.316   1.385
  676SOL    HW2  468   1.737   2.172   1.322
  679SOL     OW  469   0.672   2.065   1.489
  679SOL    HW1  470   0.762   2.049   1.449
  679SOL    HW2  471   0.680   2.070   1.588
  681SOL     OW  472   1.440   2.718   1.398
  681SOL    HW1  473   1.383   2.770   1.335
  681SOL    HW2  474   1.536   2.730   1.374
  686SOL     OW  475   0.716   2.427   1.708
  686SOL    HW1  476   0.735   2.492   1.782
  686SOL    HW2  477   0.776   2.347   1.717
  687SOL     OW  478   1.450   3.082   1.633
  687SOL    HW1  479   1.441   3.072   1.732
  687SOL    HW2  480   1.546   3.075   1.607
  689SOL     OW  481   1.674   2.745   1.254
  689SOL    HW1  482   1.647   2.656   1.217
  689SOL    HW2  483   1.675   2.813   1.181
  692SOL     OW  484   1.777   2.204   1.642
  692SOL    HW1  485   1.760   2.235   1.548
  692SOL    HW2  486   1.693   2.167   1.680
  693SOL     OW  487   1.730   2.796   1.517
  693SOL    HW1  488   1.768   2.887   1.532
  693SOL    HW2  489   1.722   2.779   1.418
  702SOL     OW  490   1.824   2.054   1.227
  702SOL    HW1  491   1.820   1.964   1.271
  702SOL    HW2  492   1.827   2.043   1.128
  704SOL     OW  493   1.705   3.349   1.104
  704SOL    HW1  494   1.612   3.324   1.077
  704SOL    HW2  495   1.731   3.299   1.186
  707SOL     OW  496   1.424   2.076   1.112
  707SOL    HW1  497   1.476   2.011   1.167
  707SOL    HW2  498   1.375   2.139   1.173
  708SOL     OW  499   1.001   1.896   1.154
  708SOL    HW1  500   0.938   1.824   1.123
  708SOL    HW2  501   1.094   1.860   1.154
  712SOL     OW  502   1.300   2.315   0.691
  712SOL    HW1  503   1.241   2.395   0.695
  712SOL    HW2  504   1.315   2.280   0.784
  713SOL     OW  505   1.593   2.083   0.882
  713SOL    HW1  506   1.509   2.082   0.936
  713SOL    HW2  507   1.595   2.166   0.826
  720SOL     OW  508   1.555   3.373   2.565
  720SOL    HW1  509   1.498   3.357   2.646
  720SOL    HW2  510   1.496   3.383   2.485
  721SOL     OW  511   1.135   2.565   2.579
  721SOL    HW1  512   1.192   2.643   2.554
  721SOL    HW2  513   1.075   2.591   2.655
  722SOL     OW  514   1.755   2.469   2.093
  722SOL    HW1  515   1.743   2.456   1.994
  722SOL    HW2  516   1.725   2.388   2.142
  723SOL     OW  517   0.768   3.006   2.885
  723SOL    HW1  518   0.690   3.023   2.945
  723SOL    HW2  519   0.802   3.093   2.849
  725SOL     OW  520   0.685   2.874   2.527
  725SOL    HW1  521   0.754   2.858   2.597
  725SOL    HW2  522   0.612   2.931   2.565
  728SOL     OW  523   1.460   3.367   3.201
  728SOL    HW1  524   1.484   3.461   3.227
  728SOL    HW2  525   1.444   3.313   3.283
  730SOL     OW  526   1.603   2.309   2.599
  730SOL    HW1  527   1.529   2.355   2.549
  730SOL    HW2  528   1.654   2.377   2.652
  736SOL     OW  529   0.606   2.826   1.985
  736SOL    HW1  530   0.613   2.910   1.931
  736SOL    HW2  531   0.652   2.839   2.073
  737SOL     OW  532   1.594   1.976   3.342
  737SOL    HW1  533   1.576   2.043   3.270
  737SOL    HW2  534   1.591   2.022   3.431
  739SOL     OW  535   1.842   3.629   2.221
  739SOL    HW1  536   1.896   3.600   2.301
  739SOL    HW2  537   1.872   3.719   2.192
  741SOL     OW  538   1.689   2.784   2.474
  741SOL    HW1  539   1.784   2.755   2.482
  741SOL    HW2  540   1.681   2.849   2.399
  742SOL     OW  541   1.641   2.970   2.294
  742SOL    HW1  542   1.727   2.972   2.242
  742SOL    HW2  543   1.655   3.017   2.382
  745SOL     OW  544   1.293   3.090   3.285
  745SOL    HW1  545   1.330   3.017   3.227
  745SOL    HW2  546   1.345   3.095   3.370
  746SOL     OW  547   0.809   1.866   2.364
  746SOL    HW1  548   0.849   1.957   2.355
  746SOL    HW2  549   0.709   1.874   2.370
  748SOL     OW  550   1.525   2.861   2.052
  748SOL    HW1  551   1.462   2.785   2.065
  748SOL    HW2  552   1.573   2.879   2.138
  751SOL     OW  553   1.466   3.279   2.815
  751SOL    HW1  554   1.407   3.285   2.895
  751SOL    HW2  555   1.451   3.191   2.769
  752SOL     OW  556   1.667   3.576   2.434
  752SOL    HW1  557   1.626   3.553   2.346
  752SOL    HW2  558   1.649   3.502   2.499
  753SOL     OW  559   0.598   2.591   2.132
  753SOL    HW1  560   0.622   2.660   2.064
  753SOL    HW2  561   0.520   2.624   2.186
  754SOL     OW  562   1.281   2.207   2.806
  754SOL    HW1  563   1.195   2.157   2.793
  754SOL    HW2  564   1.343   2.153   2.862
  755SOL     OW  565   1.576   3.524   2.169
  755SOL    HW1  566   1.665   3.570   2.172
  755SOL    HW2  567   1.555   3.500   2.074
  757SOL     OW  568   1.394   2.331   3.536
  757SOL    HW1  569   1.374   2.374   3.624
  757SOL    HW2  570   1.472   2.269   3.545
  759SOL     OW  571   0.991   2.272   3.104
  759SOL    HW1  572   0.914   2.306   3.158
  759SOL    HW2  573   0.957   2.221   3.025
  760SOL     OW  574   1.041   2.563   2.291
  760SOL    HW1  575   1.067   2.559   2.387
  760SOL    HW2  576   0.956   2.512   2.277
  763SOL     OW  577   0.865   2.210   2.057
  763SOL    HW1  578   0.924   2.273   2.008
  763SOL    HW2  579   0.884   2.116   2.028
  764SOL     OW  580   1.719   2.447   3.693
  764SOL    HW1  581   1.693   2.536   3.657
  764SOL    HW2  582   1.717   2.379   3.620
  765SOL     OW  583   1.362   3.006   2.407
  765SOL    HW1  584   1.445   2.977   2.359
  765SOL    HW2  585   1.313   3.073   2.351
  766SOL     OW  586   0.550   2.058   2.747
  766SOL    HW1  587   0.545   2.053   2.847
  766SOL    HW2  588   0.552   2.154   2.718
  767SOL     OW  589   1.008   3.318   2.339
  767SOL    HW1  590   0.962   3.390   2.287
  767SOL    HW2  591   1.004   3.338   2.437
  769SOL     OW  592   1.795   2.928   2.735
  769SOL    HW1  593   1.733   2.913   2.659
  769SOL    HW2  594   1.743   2.939   2.820
  772SOL     OW  595   1.458   2.597   2.590
  772SOL    HW1  596   1.453   2.532   2.665
  772SOL    HW2  597   1.538   2.656   2.603
  776SOL     OW  598   1.632   3.239   1.943
  776SOL    HW1  599   1.600   3.333   1.933
  776SOL    HW2  600   1.556   3.176   1.931
  778SOL     OW  601   1.400   1.969   2.288
  778SOL    HW1  602   1.376   1.932   2.198
  778SOL    HW2  603   1.499   1.985   2.292
  782SOL     OW  604   1.547   2.084   3.591
  782SOL    HW1  605   1.542   2.121   3.683
  782SOL    HW2  606   1.475   2.015   3.579
  783SOL     OW  607   0.614   1.984   1.979
  783SOL    HW1  608   0.712   1.962   1.986
  783SOL    HW2  609   0.583   1.967   1.886
  786SOL     OW  610   1.351   2.452   3.295
  786SOL    HW1  611   1.379   2.409   3.380
  786SOL    HW2  612   1.376   2.548   3.296
  788SOL     OW  613   0.922   2.365   2.761
  788SOL    HW1  614   0.897   2.356   2.665
  788SOL    HW2  615   0.970   2.283   2.792
  789SOL     OW  616   0.539   1.926   2.374
  789SOL    HW1  617   0.458   1.927   2.432
  789SOL    HW2  618   0.542   2.009   2.319
  790SOL     OW  619   1.434   3.050   1.903
  790SOL    HW1  620   1.466   2.974   1.960
  790SOL    HW2  621   1.342   3.077   1.933
  792SOL     OW  622   0.935   2.098   2.342
  792SOL    HW1  623   0.887   2.139   2.264
  792SOL    HW2  624   1.034   2.096   2.323
  793SOL     OW  625   1.076   2.545   3.326
  793SOL    HW1  626   0.996   2.484   3.329
  793SOL    HW2  627   1.157   2.492   3.302
  794SOL     OW  628   1.227   3.432   2.655
  794SOL    HW1  629   1.248   3.506   2.590
  794SOL    HW2  630   1.295   3.432   2.728
  796SOL     OW  631   1.271   3.659   2.453
  796SOL    HW1  632   1.315   3.723   2.389
  796SOL    HW2  633   1.221   3.711   2.523
  797SOL     OW  634   1.032   2.411   1.878
  797SOL    HW1  635   0.991   2.493   1.839
  797SOL    HW2  636   1.096   2.437   1.951
  800SOL     OW  637   0.866   2.316   2.504
  800SOL    HW1  638   0.834   2.388   2.442
  800SOL    HW2  639   0.890   2.235   2.451
  801SOL     OW  640   1.017   1.901   2.615
  801SOL    HW1  641   0.945   1.906   2.546
  801SOL    HW2  642   0.993   1.832   2.684
  802SOL     OW  643   1.429   3.035   2.729
  802SOL    HW1  644   1.374   2.951   2.722
  802SOL    HW2  645   1.455   3.064   2.637
  803SOL     OW  646   1.466   2.452   2.854
  803SOL    HW1  647   1.436   2.357   2.861
  803SOL    HW2  648   1.539   2.468   2.920
  804SOL     OW  649   1.857   2.695   2.239
  804SOL    HW1  650   1.899   2.631   2.303
  804SOL    HW2  651   1.819   2.644   2.161
  806SOL     OW  652   1.664   3.142   2.519
  806SOL    HW1  653   1.763   3.150   2.533
  806SOL    HW2  654   1.619   3.226   2.550
  807SOL     OW  655   1.390   2.437   1.940
  807SOL    HW1  656   1.336   2.416   2.021
  807SOL    HW2  657   1.481   2.396   1.949
  808SOL     OW  658   0.527   2.118   2.190
  808SOL    HW1  659   0.554   2.059   2.115
  808SOL    HW2  660   0.527   2.213   2.159
  809SOL     OW  661   1.754   3.085   3.450
  809SOL    HW1  662   1.845   3.046   3.437
  809SOL    HW2  663   1.762   3.181   3.474
  812SOL     OW  664   1.111   3.057   2.962
  812SOL    HW1  665   1.071   3.101   3.043
  812SOL    HW2  666   1.070   3.094   2.879
  813SOL     OW  667   1.638   2.961   2.941
  813SOL    HW1  668   1.643   3.042   3.000
  813SOL    HW2  669   1.552   2.963   2.890
  814SOL     OW  670   0.915   1.951   3.264
  814SOL    HW1  671   0.940   1.931   3.169
  814SOL    HW2  672   0.987   2.007   3.306
  816SOL     OW  673   0.705   2.912   2.230
  816SOL    HW1  674   0.691   2.919   2.329
  816SOL    HW2  675   0.789   2.861   2.212
  818SOL     OW  676   1.274   2.248   3.124
  818SOL    HW1  677   1.295   2.322   3.188
  818SOL    HW2  678   1.185   2.265   3.081
  821SOL     OW  679   0.566   2.399   2.727
  821SOL    HW1  680   0.578   2.465   2.653
  821SOL    HW2  681   0.612   2.433   2.810
  822SOL     OW  682   1.252   3.210   2.250
  822SOL    HW1  683   1.302   3.287   2.290
  822SOL    HW2  684   1.157   3.212   2.282
  823SOL     OW  685   1.272   3.307   3.004
  823SOL    HW1  686   1.319   3.320   3.091
  823SOL    HW2  687   1.206   3.233   3.013
  824SOL     OW  688   1.582   2.501   2.334
  824SOL    HW1  689   1.551   2.562   2.407
  824SOL    HW2  690   1.632   2.553   2.265
  827SOL     OW  691   1.587   2.641   3.532
  827SOL    HW1  692   1.495   2.679   3.527
  827SOL    HW2  693   1.647   2.688   3.467
  831SOL     OW  694   1.360   2.724   2.907
  831SOL    HW1  695   1.285   2.724   2.841
  831SOL    HW2  696   1.397   2.632   2.916
  832SOL     OW  697   1.209   2.387   2.137
  832SOL    HW1  698   1.222   2.303   2.191
  832SOL    HW2  699   1.180   2.461   2.197
  835SOL     OW  700   0.732   2.496   2.926
  835SOL    HW1  701   0.791   2.470   2.850
  835SOL    HW2  702   0.704   2.592   2.915
  836SOL     OW  703   1.728   2.797   3.716
  836SOL    HW1  704   1.682   2.790   3.627
  836SOL    HW2  705   1.666   2.841   3.782
  838SOL     OW  706   1.622   2.229   2.236
  838SOL    HW1  707   1.624   2.153   2.300
  838SOL    HW2  708   1.574   2.306   2.276
  839SOL     OW  709   1.023   2.628   2.828
  839SOL    HW1  710   1.038   2.649   2.924
  839SOL    HW2  711   0.993   2.533   2.819
  841SOL     OW  712   1.859   3.380   3.467
  841SOL    HW1  713   1.873   3.407   3.372
  841SOL    HW2  714   1.942   3.402   3.520
  843SOL     OW  715   1.540   2.136   1.987
  843SOL    HW1  716   1.479   2.061   2.010
  843SOL    HW2  717   1.562   2.188   2.070
  844SOL     OW  718   1.303   2.700   1.904
  844SOL    HW1  719   1.337   2.607   1.919
  844SOL    HW2  720   1.321   2.727   1.809
  845SOL     OW  721   1.068   3.195   2.711
  845SOL    HW1  722   1.075   3.111   2.656
  845SOL    HW2  723   1.130   3.264   2.675
  848SOL     OW  724   1.138   2.242   3.540
  848SOL    HW1  725   1.093   2.305   3.604
  848SOL    HW2  726   1.231   2.273   3.523
  849SOL     OW  727   1.160   2.069   3.339
  849SOL    HW1  728   1.160   2.133   3.416
  849SOL    HW2  729   1.188   2.117   3.256
  853SOL     OW  730   1.002   2.658   3.100
  853SOL    HW1  731   1.043   2.626   3.186
  853SOL    HW2  732   0.906   2.631   3.097
  856SOL     OW  733   1.369   2.812   3.522
  856SOL    HW1  734   1.408   2.901   3.542
  856SOL    HW2  735   1.379   2.792   3.425
  857SOL     OW  736   0.815   2.434   2.187
  857SOL    HW1  737   0.822   2.345   2.141
  857SOL    HW2  738   0.721   2.468   2.179
  858SOL     OW  739   1.657   2.466   3.068
  858SOL    HW1  740   1.619   2.397   3.130
  858SOL    HW2  741   1.739   2.430   3.024
  860SOL     OW  742   0.671   2.326   3.131
  860SOL    HW1  743   0.637   2.237   3.101
  860SOL    HW2  744   0.697   2.380   3.051
  862SOL     OW  745   0.473   2.362   2.053
  862SOL    HW1  746   0.534   2.442   2.057
  862SOL    HW2  747   0.378   2.393   2.060
  864SOL     OW  748   1.347   2.921   3.096
  864SOL    HW1  749   1.371   2.858   3.022
  864SOL    HW2  750   1.257   2.961   3.078
  865SOL     OW  751   1.302   2.717   2.171
  865SOL    HW1  752   1.216   2.686   2.213
  865SOL    HW2  753   1.298   2.703   2.072
  866SOL     OW  754   1.759   3.609   3.016
  866SOL    HW1  755   1.820   3.639   2.943
  866SOL    HW2  756   1.721   3.520   2.994
  870SOL     OW  757   1.726   1.997   2.385
  870SOL    HW1  758   1.799   1.980   2.318
  870SOL    HW2  759   1.695   1.910   2.423
  871SOL     OW  760   1.388   3.435   2.339
  871SOL    HW1  761   1.455   3.447   2.265
  871SOL    HW2  762   1.348   3.524   2.362
  873SOL     OW  763   1.280   2.789   2.534
  873SOL    HW1  764   1.340   2.708   2.536
  873SOL    HW2  765   1.320   2.858   2.474
  877SOL     OW  766   1.841   2.037   2.825
  877SOL    HW1  767   1.880   1.952   2.789
  877SOL    HW2  768   1.743   2.039   2.806
  879SOL     OW  769   1.194   3.474   1.893
  879SOL    HW1  770   1.200   3.381   1.930
  879SOL    HW2  771   1.135   3.474   1.813
  881SOL     OW  772   0.916   2.772   2.153
  881SOL    HW1  773   0.979   2.810   2.085
  881SOL    HW2  774   0.956   2.689   2.192
  882SOL     OW  775   1.504   3.469   1.906
  882SOL    HW1  776   1.412   3.506   1.913
  882SOL    HW2  777   1.542   3.489   1.816
  884SOL     OW  778   1.614   3.154   3.151
  884SOL    HW1  779   1.674   3.157   3.231
  884SOL    HW2  780   1.539   3.218   3.164
  885SOL     OW  781   1.039   2.960   2.558
  885SOL    HW1  782   0.969   2.913   2.612
  885SOL    HW2  783   1.098   2.892   2.515
  886SOL     OW  784   1.014   2.098   2.833
  886SOL    HW1  785   1.006   2.062   2.740
  886SOL    HW2  786   1.012   2.022   2.898
  888SOL     OW  787   1.709   2.247   3.243
  888SOL    HW1  788   1.782   2.316   3.247
  888SOL    HW2  789   1.737   2.172   3.184
  893SOL     OW  790   1.440   2.718   3.260
  893SOL    HW1  791   1.383   2.770   3.197
  893SOL    HW2  792   1.536   2.730   3.236
  895SOL     OW  793   1.183   3.197   1.981
  895SOL    HW1  794   1.084   3.186   1.983
  895SOL    HW2  795   1.217   3.212   2.074
  897SOL     OW  796   1.493   3.629   2.821
  897SOL    HW1  797   1.526   3.693   2.752
  897SOL    HW2  798   1.559   3.623   2.896
  899SOL     OW  799   1.450   3.082   3.495
  899SOL    HW1  800   1.441   3.072   3.594
  899SOL    HW2  801   1.546   3.075   3.469
  901SOL     OW  802   1.674   2.745   3.116
  901SOL    HW1  803   1.647   2.656   3.079
  901SOL    HW2  804   1.675   2.813   3.043
  902SOL     OW  805   1.225   2.187   2.311
  902SOL    HW1  806   1.290   2.113   2.300
  902SOL    HW2  807   1.245   2.237   2.395
  903SOL     OW  808   0.594   2.607   2.514
  903SOL    HW1  809   0.644   2.692   2.495
  903SOL    HW2  810   0.506   2.609   2.466
  904SOL     OW  811   1.777   2.204   3.504
  904SOL    HW1  812   1.760   2.235   3.410
  904SOL    HW2  813   1.693   2.167   3.542
  905SOL     OW  814   1.730   2.796   3.379
  905SOL    HW1  815   1.768   2.887   3.394
  905SOL    HW2  816   1.722   2.779   3.280
  906SOL     OW  817   0.859   3.236   1.878
  906SOL    HW1  818   0.813   3.251   1.966
  906SOL    HW2  819   0.903   3.321   1.848
  908SOL     OW  820   0.859   2.818   2.723
  908SOL    HW1  821   0.913   2.749   2.771
  908SOL    HW2  822   0.827   2.887   2.789
  909SOL     OW  823   1.083   2.846   1.949
  909SOL    HW1  824   1.060   2.899   1.867
  909SOL    HW2  825   1.164   2.790   1.930
  910SOL     OW  826   1.861   3.431   2.713
  910SOL    HW1  827   1.790   3.419   2.643
  910SOL    HW2  828   1.862   3.352   2.773
  914SOL     OW  829   1.824   2.054   3.089
  914SOL    HW1  830   1.820   1.964   3.133
  914SOL    HW2  831   1.827   2.043   2.990
  915SOL     OW  832   0.428   2.286   2.382
  915SOL    HW1  833   0.458   2.214   2.320
  915SOL    HW2  834   0.389   2.246   2.465
  916SOL     OW  835   1.705   3.349   2.966
  916SOL    HW1  836   1.612   3.324   2.939
  916SOL    HW2  837   1.731   3.299   3.048
  919SOL     OW  838   1.424   2.076   2.974
  919SOL    HW1  839   1.476   2.011   3.029
  919SOL    HW2  840   1.375   2.139   3.035
  920SOL     OW  841   1.001   1.896   3.016
  920SOL    HW1  842   0.938   1.824   2.985
  920SOL    HW2  843   1.094   1.860   3.016
  921SOL     OW  844   0.770   3.192   2.163
  921SOL    HW1  845   0.724   3.105   2.180
  921SOL    HW2  846   0.861   3.189   2.204
  923SOL     OW  847   1.352   1.914   2.030
  923SOL    HW1  848   1.387   1.873   1.946
  923SOL    HW2  849   1.262   1.876   2.050
  924SOL     OW  850   1.300   2.315   2.553
  924SOL    HW1  851   1.241   2.395   2.557
  924SOL    HW2  852   1.315   2.280   2.646
  925SOL     OW  853   1.593   2.083   2.744
  925SOL    HW1  854   1.509   2.082   2.798
  925SOL    HW2  855   1.595   2.166   2.688
  976SOL     OW  856   1.540   2.136   3.849
  976SOL    HW1  857   1.479   2.061   3.872
  976SOL    HW2  858   1.562   2.188   3.932
 1143SOL     OW  859   1.726   3.859   2.385
 1143SOL    HW1  860   1.799   3.842   2.318
 1143SOL    HW2  861   1.695   3.772   2.423
 1160SOL     OW  862   1.352   3.776   2.030
 1160SOL    HW1  863   1.387   3.735   1.946
 1160SOL    HW2  864   1.262   3.738   2.050
 1196SOL     OW  865   2.431   1.275   1.165
 1196SOL    HW1  866   2.338   1.268   1.128
 1196SOL    HW2  867   2.442   1.364   1.209
 1200SOL     OW  868   2.630   1.144   1.023
 1200SOL    HW1  869   2.552   1.161   1.083
 1200SOL    HW2  870   2.664   1.231   0.987
 1201SOL     OW  871   2.712   0.798   1.823
 1201SOL    HW1  872   2.708   0.874   1.888
 1201SOL    HW2  873   2.734   0.834   1.732
 1203SOL     OW  874   2.548   1.161   1.803
 1203SOL    HW1  875   2.608   1.240   1.817
 1203SOL    HW2  876   2.462   1.192   1.762
 1204SOL     OW  877   2.197   1.435   1.061
 1204SOL    HW1  878   2.119   1.404   1.008
 1204SOL    HW2  879   2.255   1.493   1.004
 1205SOL     OW  880   3.322   1.505   1.339
 1205SOL    HW1  881   3.346   1.599   1.365
 1205SOL    HW2  882   3.306   1.451   1.421
 1209SOL     OW  883   2.989   1.341   1.690
 1209SOL    HW1  884   3.036   1.341   1.778
 1209SOL    HW2  885   2.941   1.254   1.679
 1211SOL     OW  886   2.102   1.091   0.886
 1211SOL    HW1  887   2.116   1.007   0.938
 1211SOL    HW2  888   2.047   1.155   0.941
 1212SOL     OW  889   2.482   1.786   1.439
 1212SOL    HW1  890   2.390   1.769   1.474
 1212SOL    HW2  891   2.510   1.878   1.465
 1220SOL     OW  892   1.975   0.737   1.597
 1220SOL    HW1  893   2.063   0.724   1.642
 1220SOL    HW2  894   1.962   0.834   1.575
 1221SOL     OW  895   2.475   1.365   0.726
 1221SOL    HW1  896   2.426   1.278   0.735
 1221SOL    HW2  897   2.452   1.408   0.639
 1222SOL     OW  898   3.155   1.228   1.423
 1222SOL    HW1  899   3.192   1.155   1.365
 1222SOL    HW2  900   3.207   1.233   1.508
 1224SOL     OW  901   2.059   0.976   1.264
 1224SOL    HW1  902   2.148   0.931   1.250
 1224SOL    HW2  903   1.986   0.911   1.245
 1226SOL     OW  904   3.049   1.792   1.616
 1226SOL    HW1  905   3.073   1.852   1.540
 1226SOL    HW2  906   3.056   1.697   1.586
 1235SOL     OW  907   2.835   0.890   1.572
 1235SOL    HW1  908   2.881   0.806   1.543
 1235SOL    HW2  909   2.779   0.924   1.497
 1239SOL     OW  910   1.992   1.821   1.571
 1239SOL    HW1  911   1.982   1.806   1.670
 1239SOL    HW2  912   1.906   1.857   1.535
 1245SOL     OW  913   2.213   1.801   0.853
 1245SOL    HW1  914   2.263   1.715   0.859
 1245SOL    HW2  915   2.278   1.878   0.850
 1247SOL     OW  916   3.089   1.550   1.506
 1247SOL    HW1  917   3.095   1.473   1.570
 1247SOL    HW2  918   3.037   1.524   1.426
 1250SOL     OW  919   2.323   1.266   1.727
 1250SOL    HW1  920   2.273   1.267   1.641
 1250SOL    HW2  921   2.260   1.248   1.803
 1256SOL     OW  922   2.111   1.785   1.241
 1256SOL    HW1  923   2.168   1.720   1.291
 1256SOL    HW2  924   2.095   1.752   1.148
 1257SOL     OW  925   2.802   1.698   0.904
 1257SOL    HW1  926   2.882   1.641   0.925
 1257SOL    HW2  927   2.753   1.658   0.827
 1262SOL     OW  928   2.750   1.514   1.195
 1262SOL    HW1  929   2.727   1.489   1.101
 1262SOL    HW2  930   2.811   1.445   1.234
 1264SOL     OW  931   2.665   1.402   0.924
 1264SOL    HW1  932   2.755   1.416   0.882
 1264SOL    HW2  933   2.594   1.404   0.853
 1271SOL     OW  934   3.089   1.570   0.793
 1271SOL    HW1  935   3.110   1.644   0.728
 1271SOL    HW2  936   3.157   1.570   0.866
 1287SOL     OW  937   2.926   1.347   1.340
 1287SOL    HW1  938   2.846   1.324   1.395
 1287SOL    HW2  939   3.009   1.321   1.389
 1288SOL     OW  940   3.454   1.629   1.625
 1288SOL    HW1  941   3.481   1.663   1.535
 1288SOL    HW2  942   3.533   1.591   1.671
 1289SOL     OW  943   2.973   1.195   1.100
 1289SOL    HW1  944   2.933   1.239   1.181
 1289SOL    HW2  945   2.932   1.232   1.017
 1292SOL     OW  946   2.842   1.116   1.719
 1292SOL    HW1  947   2.743   1.122   1.729
 1292SOL    HW2  948   2.865   1.036   1.663
 1294SOL     OW  949   2.272   0.813   1.251
 1294SOL    HW1  950   2.358   0.825   1.301
 1294SOL    HW2  951   2.230   0.726   1.278
 1296SOL     OW  952   1.926   1.564   1.331
 1296SOL    HW1  953   1.880   1.646   1.297
 1296SOL    HW2  954   2.024   1.583   1.340
 1300SOL     OW  955   3.134   1.445   1.142
 1300SOL    HW1  956   3.181   1.458   1.229
 1300SOL    HW2  957   3.068   1.371   1.151
 1302SOL     OW  958   2.216   1.510   1.329
 1302SOL    HW1  959   2.195   1.466   1.242
 1302SOL    HW2  960   2.313   1.536   1.332
 1303SOL     OW  961   2.264   0.751   1.598
 1303SOL    HW1  962   2.332   0.806   1.551
 1303SOL    HW2  963   2.304   0.663   1.625
 1311SOL     OW  964   1.899   1.310   1.282
 1311SOL    HW1  965   1.952   1.261   1.350
 1311SOL    HW2  966   1.921   1.408   1.287
 1317SOL     OW  967   2.842   1.573   1.700
 1317SOL    HW1  968   2.822   1.617   1.612
 1317SOL    HW2  969   2.881   1.482   1.684
 1318SOL     OW  970   3.721   1.518   1.605
 1318SOL    HW1  971   3.735   1.545   1.510
 1318SOL    HW2  972   3.804   1.540   1.658
 1319SOL     OW  973   2.212   0.898   1.804
 1319SOL    HW1  974   2.288   0.942   1.852
 1319SOL    HW2  975   2.247   0.851   1.722
 1322SOL     OW  976   2.930   1.333   0.849
 1322SOL    HW1  977   2.937   1.249   0.794
 1322SOL    HW2  978   2.992   1.402   0.813
 1328SOL     OW  979   1.950   1.801   0.927
 1328SOL    HW1  980   1.908   1.715   0.900
 1328SOL    HW2  981   2.044   1.804   0.893
 1329SOL     OW  982   2.366   1.568   0.910
 1329SOL    HW1  983   2.432   1.642   0.919
 1329SOL    HW2  984   2.410   1.489   0.868
 1332SOL     OW  985   2.051   0.520   1.722
 1332SOL    HW1  986   2.110   0.480   1.652
 1332SOL    HW2  987   1.993   0.591   1.681
 1333SOL     OW  988   3.231   0.950   1.660
 1333SOL    HW1  989   3.270   1.039   1.680
 1333SOL    HW2  990   3.241   0.930   1.563
 1336SOL     OW  991   2.114   1.564   1.744
 1336SOL    HW1  992   2.084   1.621   1.820
 1336SOL    HW2  993   2.107   1.467   1.770
 1338SOL     OW  994   2.792   1.678   1.465
 1338SOL    HW1  995   2.768   1.660   1.370
 1338SOL    HW2  996   2.822   1.772   1.475
 1340SOL     OW  997   2.021   1.137   1.466
 1340SOL    HW1  998   2.043   1.076   1.542
 1340SOL    HW2  999   2.031   1.088   1.380
 1344SOL     OW 1000   3.114   1.731   1.128
 1344SOL    HW1 1001   3.198   1.736   1.074
 1344SOL    HW2 1002   3.091   1.635   1.146
 1345SOL     OW 1003   1.945   1.258   1.022
 1345SOL    HW1 1004   1.940   1.257   1.122
 1345SOL    HW2 1005   1.862   1.217   0.984
 1346SOL     OW 1006   2.550   1.662   1.716
 1346SOL    HW1 1007   2.494   1.743   1.725
 1346SOL    HW2 1008   2.602   1.666   1.630
 1350SOL     OW 1009   1.992   1.794   1.851
 1350SOL    HW1 1010   1.951   1.720   1.904
 1350SOL    HW2 1011   2.056   1.845   1.909
 1352SOL     OW 1012   2.692   1.273   1.422
 1352SOL    HW1 1013   2.687   1.306   1.517
 1352SOL    HW2 1014   2.606   1.292   1.376
 1354SOL     OW 1015   3.512   1.720   1.394
 1354SOL    HW1 1016   3.565   1.730   1.310
 1354SOL    HW2 1017   3.485   1.810   1.428
 1358SOL     OW 1018   2.684   1.002   1.372
 1358SOL    HW1 1019   2.724   1.001   1.280
 1358SOL    HW2 1020   2.694   1.094   1.412
 1361SOL     OW 1021   2.234   1.288   1.490
 1361SOL    HW1 1022   2.221   1.381   1.456
 1361SOL    HW2 1023   2.150   1.236   1.477
 1368SOL     OW 1024   1.967   1.013   1.726
 1368SOL    HW1 1025   1.890   0.980   1.780
 1368SOL    HW2 1026   2.052   0.983   1.768
 1373SOL     OW 1027   2.475   0.842   1.431
 1373SOL    HW1 1028   2.531   0.923   1.414
 1373SOL    HW2 1029   2.534   0.762   1.434
 1374SOL     OW 1030   3.355   1.767   0.959
 1374SOL    HW1 1031   3.388   1.831   0.890
 1374SOL    HW2 1032   3.421   1.761   1.034
 1375SOL     OW 1033   2.578   0.565   1.708
 1375SOL    HW1 1034   2.597   0.630   1.782
 1375SOL    HW2 1035   2.638   0.485   1.717
 1376SOL     OW 1036   3.312   1.220   1.633
 1376SOL    HW1 1037   3.303   1.210   1.732
 1376SOL    HW2 1038   3.408   1.213   1.607
 1377SOL     OW 1039   2.252   1.741   1.560
 1377SOL    HW1 1040   2.161   1.782   1.558
 1377SOL    HW2 1041   2.245   1.647   1.592
 1384SOL     OW 1042   2.523   1.790   0.953
 1384SOL    HW1 1043   2.477   1.878   0.940
 1384SOL    HW2 1044   2.622   1.802   0.946
 1388SOL     OW 1045   2.083   1.314   1.844
 1388SOL    HW1 1046   2.018   1.241   1.823
 1388SOL    HW2 1047   2.087   1.328   1.942
 1390SOL     OW 1048   2.534   1.391   1.624
 1390SOL    HW1 1049   2.456   1.341   1.662
 1390SOL    HW2 1050   2.531   1.486   1.655
 1395SOL     OW 1051   2.674   1.586   0.687
 1395SOL    HW1 1052   2.706   1.596   0.593
 1395SOL    HW2 1053   2.595   1.524   0.689
 1399SOL     OW 1054   2.480   1.567   1.284
 1399SOL    HW1 1055   2.475   1.649   1.341
 1399SOL    HW2 1056   2.569   1.564   1.239
 1405SOL     OW 1057   2.092   0.628   1.975
 1405SOL    HW1 1058   1.999   0.626   2.012
 1405SOL    HW2 1059   2.093   0.589   1.883
 1408SOL     OW 1060   2.431   1.275   3.027
 1408SOL    HW1 1061   2.338   1.268   2.990
 1408SOL    HW2 1062   2.442   1.364   3.071
 1409SOL     OW 1063   3.417   1.511   2.565
 1409SOL    HW1 1064   3.360   1.495   2.646
 1409SOL    HW2 1065   3.358   1.521   2.485
 1410SOL     OW 1066   2.997   0.703   2.579
 1410SOL    HW1 1067   3.054   0.781   2.554
 1410SOL    HW2 1068   2.937   0.729   2.655
 1412SOL     OW 1069   2.630   1.144   2.885
 1412SOL    HW1 1070   2.552   1.161   2.945
 1412SOL    HW2 1071   2.664   1.231   2.849
 1414SOL     OW 1072   2.547   1.012   2.527
 1414SOL    HW1 1073   2.616   0.996   2.597
 1414SOL    HW2 1074   2.474   1.069   2.565
 1416SOL     OW 1075   2.197   1.435   2.923
 1416SOL    HW1 1076   2.119   1.404   2.870
 1416SOL    HW2 1077   2.255   1.493   2.866
 1417SOL     OW 1078   3.322   1.505   3.201
 1417SOL    HW1 1079   3.346   1.599   3.227
 1417SOL    HW2 1080   3.306   1.451   3.283
 1420SOL     OW 1081   2.093   1.713   2.345
 1420SOL    HW1 1082   2.127   1.790   2.399
 1420SOL    HW2 1083   2.137   1.713   2.255
 1421SOL     OW 1084   2.989   1.341   3.552
 1421SOL    HW1 1085   3.036   1.341   3.640
 1421SOL    HW2 1086   2.941   1.254   3.541
 1422SOL     OW 1087   2.092   1.434   2.400
 1422SOL    HW1 1088   2.066   1.530   2.400
 1422SOL    HW2 1089   2.021   1.380   2.445
 1423SOL     OW 1090   2.102   1.091   2.748
 1423SOL    HW1 1091   2.116   1.007   2.800
 1423SOL    HW2 1092   2.047   1.155   2.803
 1424SOL     OW 1093   2.482   1.786   3.301
 1424SOL    HW1 1094   2.390   1.769   3.336
 1424SOL    HW2 1095   2.510   1.878   3.327
 1425SOL     OW 1096   2.468   0.964   1.985
 1425SOL    HW1 1097   2.475   1.048   1.931
 1425SOL    HW2 1098   2.514   0.977   2.073
 1427SOL     OW 1099   1.984   0.643   2.425
 1427SOL    HW1 1100   1.939   0.555   2.442
 1427SOL    HW2 1101   1.983   0.697   2.509
 1428SOL     OW 1102   3.704   1.767   2.221
 1428SOL    HW1 1103   3.758   1.738   2.301
 1428SOL    HW2 1104   3.734   1.857   2.192
 1429SOL     OW 1105   1.889   1.596   1.979
 1429SOL    HW1 1106   1.870   1.500   2.000
 1429SOL    HW2 1107   1.856   1.654   2.054
 1431SOL     OW 1108   3.503   1.108   2.294
 1431SOL    HW1 1109   3.589   1.110   2.242
 1431SOL    HW2 1110   3.517   1.155   2.382
 1433SOL     OW 1111   2.475   1.365   2.588
 1433SOL    HW1 1112   2.426   1.278   2.597
 1433SOL    HW2 1113   2.452   1.408   2.501
 1434SOL     OW 1114   3.155   1.228   3.285
 1434SOL    HW1 1115   3.192   1.155   3.227
 1434SOL    HW2 1116   3.207   1.233   3.370
 1436SOL     OW 1117   2.059   0.976   3.126
 1436SOL    HW1 1118   2.148   0.931   3.112
 1436SOL    HW2 1119   1.986   0.911   3.107
 1437SOL     OW 1120   3.387   0.999   2.052
 1437SOL    HW1 1121   3.324   0.923   2.065
 1437SOL    HW2 1122   3.435   1.017   2.138
 1438SOL     OW 1123   3.049   1.792   3.478
 1438SOL    HW1 1124   3.073   1.852   3.402
 1438SOL    HW2 1125   3.056   1.697   3.448
 1440SOL     OW 1126   3.328   1.417   2.815
 1440SOL    HW1 1127   3.269   1.423   2.895
 1440SOL    HW2 1128   3.313   1.329   2.769
 1441SOL     OW 1129   3.529   1.714   2.434
 1441SOL    HW1 1130   3.488   1.691   2.346
 1441SOL    HW2 1131   3.511   1.640   2.499
 1442SOL     OW 1132   2.460   0.729   2.132
 1442SOL    HW1 1133   2.484   0.798   2.064
 1442SOL    HW2 1134   2.382   0.762   2.186
 1444SOL     OW 1135   3.438   1.662   2.169
 1444SOL    HW1 1136   3.527   1.708   2.172
 1444SOL    HW2 1137   3.417   1.638   2.074
 1449SOL     OW 1138   2.903   0.701   2.291
 1449SOL    HW1 1139   2.929   0.697   2.387
 1449SOL    HW2 1140   2.818   0.650   2.277
 1450SOL     OW 1141   1.938   0.811   2.651
 1450SOL    HW1 1142   2.037   0.799   2.660
 1450SOL    HW2 1143   1.914   0.906   2.672
 1451SOL     OW 1144   1.992   1.821   3.433
 1451SOL    HW1 1145   1.982   1.806   3.532
 1451SOL    HW2 1146   1.906   1.857   3.397
 1454SOL     OW 1147   3.224   1.144   2.407
 1454SOL    HW1 1148   3.307   1.115   2.359
 1454SOL    HW2 1149   3.175   1.211   2.351
 1456SOL     OW 1150   2.870   1.456   2.339
 1456SOL    HW1 1151   2.824   1.528   2.287
 1456SOL    HW2 1152   2.866   1.476   2.437
 1457SOL     OW 1153   2.213   1.801   2.715
 1457SOL    HW1 1154   2.263   1.715   2.721
 1457SOL    HW2 1155   2.278   1.878   2.712
 1459SOL     OW 1156   3.089   1.550   3.368
 1459SOL    HW1 1157   3.095   1.473   3.432
 1459SOL    HW2 1158   3.037   1.524   3.288
 1460SOL     OW 1159   2.183   0.943   2.104
 1460SOL    HW1 1160   2.265   0.982   2.062
 1460SOL    HW2 1161   2.156   0.861   2.055
 1462SOL     OW 1162   2.323   1.266   3.589
 1462SOL    HW1 1163   2.273   1.267   3.503
 1462SOL    HW2 1164   2.260   1.248   3.665
 1463SOL     OW 1165   2.973   1.776   2.099
 1463SOL    HW1 1166   2.913   1.714   2.149
 1463SOL    HW2 1167   3.004   1.732   2.014
 1465SOL     OW 1168   3.494   1.377   1.943
 1465SOL    HW1 1169   3.462   1.471   1.933
 1465SOL    HW2 1170   3.418   1.314   1.931
 1466SOL     OW 1171   2.326   1.743   2.185
 1466SOL    HW1 1172   2.359   1.782   2.271
 1466SOL    HW2 1173   2.402   1.736   2.120
 1468SOL     OW 1174   2.111   1.785   3.103
 1468SOL    HW1 1175   2.168   1.720   3.153
 1468SOL    HW2 1176   2.095   1.752   3.010
 1469SOL     OW 1177   2.802   1.698   2.766
 1469SOL    HW1 1178   2.882   1.641   2.787
 1469SOL    HW2 1179   2.753   1.658   2.689
 1470SOL     OW 1180   2.244   0.700   2.342
 1470SOL    HW1 1181   2.289   0.610   2.339
 1470SOL    HW2 1182   2.150   0.689   2.375
 1474SOL     OW 1183   2.750   1.514   3.057
 1474SOL    HW1 1184   2.727   1.489   2.963
 1474SOL    HW2 1185   2.811   1.445   3.096
 1476SOL     OW 1186   2.665   1.402   2.786
 1476SOL    HW1 1187   2.755   1.416   2.744
 1476SOL    HW2 1188   2.594   1.404   2.715
 1479SOL     OW 1189   3.296   1.188   1.903
 1479SOL    HW1 1190   3.328   1.112   1.960
 1479SOL    HW2 1191   3.204   1.215   1.933
 1483SOL     OW 1192   3.089   1.570   2.655
 1483SOL    HW1 1193   3.110   1.644   2.590
 1483SOL    HW2 1194   3.157   1.570   2.728
 1484SOL     OW 1195   2.321   1.152   2.603
 1484SOL    HW1 1196   2.250   1.125   2.668
 1484SOL    HW2 1197   2.295   1.124   2.510
 1485SOL     OW 1198   3.133   1.797   2.453
 1485SOL    HW1 1199   3.177   1.861   2.389
 1485SOL    HW2 1200   3.083   1.849   2.523
 1491SOL     OW 1201   3.291   1.173   2.729
 1491SOL    HW1 1202   3.236   1.089   2.722
 1491SOL    HW2 1203   3.317   1.202   2.637
 1494SOL     OW 1204   2.350   1.385   2.036
 1494SOL    HW1 1205   2.263   1.370   2.083
 1494SOL    HW2 1206   2.333   1.411   1.941
 1495SOL     OW 1207   3.526   1.280   2.519
 1495SOL    HW1 1208   3.625   1.288   2.533
 1495SOL    HW2 1209   3.481   1.364   2.550
 1499SOL     OW 1210   2.926   1.347   3.202
 1499SOL    HW1 1211   2.846   1.324   3.257
 1499SOL    HW2 1212   3.009   1.321   3.251
 1501SOL     OW 1213   2.973   1.195   2.962
 1501SOL    HW1 1214   2.933   1.239   3.043
 1501SOL    HW2 1215   2.932   1.232   2.879
 1505SOL     OW 1216   2.567   1.050   2.230
 1505SOL    HW1 1217   2.553   1.057   2.329
 1505SOL    HW2 1218   2.651   0.999   2.212
 1506SOL     OW 1219   2.272   0.813   3.113
 1506SOL    HW1 1220   2.358   0.825   3.163
 1506SOL    HW2 1221   2.230   0.726   3.140
 1508SOL     OW 1222   1.926   1.564   3.193
 1508SOL    HW1 1223   1.880   1.646   3.159
 1508SOL    HW2 1224   2.024   1.583   3.202
 1509SOL     OW 1225   2.229   1.100   2.363
 1509SOL    HW1 1226   2.222   1.183   2.307
 1509SOL    HW2 1227   2.233   1.020   2.303
 1510SOL     OW 1228   2.428   0.537   2.727
 1510SOL    HW1 1229   2.440   0.603   2.653
 1510SOL    HW2 1230   2.474   0.571   2.810
 1511SOL     OW 1231   3.114   1.348   2.250
 1511SOL    HW1 1232   3.164   1.425   2.290
 1511SOL    HW2 1233   3.019   1.350   2.282
 1512SOL     OW 1234   3.134   1.445   3.004
 1512SOL    HW1 1235   3.181   1.458   3.091
 1512SOL    HW2 1236   3.068   1.371   3.013
 1514SOL     OW 1237   2.216   1.510   3.191
 1514SOL    HW1 1238   2.195   1.466   3.104
 1514SOL    HW2 1239   2.313   1.536   3.194
 1519SOL     OW 1240   2.435   0.870   2.891
 1519SOL    HW1 1241   2.479   0.959   2.882
 1519SOL    HW2 1242   2.372   0.870   2.968
 1523SOL     OW 1243   1.899   1.310   3.144
 1523SOL    HW1 1244   1.952   1.261   3.212
 1523SOL    HW2 1245   1.921   1.408   3.149
 1524SOL     OW 1246   2.594   0.634   2.926
 1524SOL    HW1 1247   2.653   0.608   2.850
 1524SOL    HW2 1248   2.566   0.730   2.915
 1528SOL     OW 1249   2.885   0.766   2.828
 1528SOL    HW1 1250   2.900   0.787   2.924
 1528SOL    HW2 1251   2.855   0.671   2.819
 1529SOL     OW 1252   2.842   1.573   3.562
 1529SOL    HW1 1253   2.822   1.617   3.474
 1529SOL    HW2 1254   2.881   1.482   3.546
 1533SOL     OW 1255   3.165   0.838   1.904
 1533SOL    HW1 1256   3.199   0.745   1.919
 1533SOL    HW2 1257   3.183   0.865   1.809
 1534SOL     OW 1258   2.930   1.333   2.711
 1534SOL    HW1 1259   2.937   1.249   2.656
 1534SOL    HW2 1260   2.992   1.402   2.675
 1535SOL     OW 1261   2.181   0.810   2.811
 1535SOL    HW1 1262   2.274   0.846   2.816
 1535SOL    HW2 1263   2.175   0.725   2.863
 1539SOL     OW 1264   1.870   1.326   2.062
 1539SOL    HW1 1265   1.777   1.347   2.031
 1539SOL    HW2 1266   1.880   1.227   2.075
 1540SOL     OW 1267   1.950   1.801   2.789
 1540SOL    HW1 1268   1.908   1.715   2.762
 1540SOL    HW2 1269   2.044   1.804   2.755
 1541SOL     OW 1270   2.366   1.568   2.772
 1541SOL    HW1 1271   2.432   1.642   2.781
 1541SOL    HW2 1272   2.410   1.489   2.730
 1542SOL     OW 1273   2.864   0.796   3.100
 1542SOL    HW1 1274   2.905   0.764   3.186
 1542SOL    HW2 1275   2.768   0.769   3.097
 1546SOL     OW 1276   2.677   0.572   2.187
 1546SOL    HW1 1277   2.684   0.483   2.141
 1546SOL    HW2 1278   2.583   0.606   2.179
 1548SOL     OW 1279   2.114   1.564   3.606
 1548SOL    HW1 1280   2.084   1.621   3.682
 1548SOL    HW2 1281   2.107   1.467   3.632
 1550SOL     OW 1282   2.792   1.678   3.327
 1550SOL    HW1 1283   2.768   1.660   3.232
 1550SOL    HW2 1284   2.822   1.772   3.337
 1551SOL     OW 1285   2.335   0.500   2.053
 1551SOL    HW1 1286   2.396   0.580   2.057
 1551SOL    HW2 1287   2.240   0.531   2.060
 1552SOL     OW 1288   2.021   1.137   3.328
 1552SOL    HW1 1289   2.043   1.076   3.404
 1552SOL    HW2 1290   2.031   1.088   3.242
 1553SOL     OW 1291   3.209   1.059   3.096
 1553SOL    HW1 1292   3.233   0.996   3.022
 1553SOL    HW2 1293   3.119   1.099   3.078
 1554SOL     OW 1294   3.164   0.855   2.171
 1554SOL    HW1 1295   3.078   0.824   2.213
 1554SOL    HW2 1296   3.160   0.841   2.072
 1555SOL     OW 1297   3.621   1.747   3.016
 1555SOL    HW1 1298   3.682   1.777   2.943
 1555SOL    HW2 1299   3.583   1.658   2.994
 1556SOL     OW 1300   3.114   1.731   2.990
 1556SOL    HW1 1301   3.198   1.736   2.936
 1556SOL    HW2 1302   3.091   1.635   3.008
 1557SOL     OW 1303   1.945   1.258   2.884
 1557SOL    HW1 1304   1.940   1.257   2.984
 1557SOL    HW2 1305   1.862   1.217   2.846
 1558SOL     OW 1306   2.550   1.662   3.578
 1558SOL    HW1 1307   2.494   1.743   3.587
 1558SOL    HW2 1308   2.602   1.666   3.492
 1560SOL     OW 1309   3.250   1.573   2.339
 1560SOL    HW1 1310   3.317   1.585   2.265
 1560SOL    HW2 1311   3.210   1.662   2.362
 1561SOL     OW 1312   1.992   1.794   3.713
 1561SOL    HW1 1313   1.951   1.720   3.766
 1561SOL    HW2 1314   2.056   1.845   3.771
 1562SOL     OW 1315   3.142   0.927   2.534
 1562SOL    HW1 1316   3.202   0.846   2.536
 1562SOL    HW2 1317   3.182   0.996   2.474
 1563SOL     OW 1318   2.692   1.273   3.284
 1563SOL    HW1 1319   2.687   1.306   3.379
 1563SOL    HW2 1320   2.606   1.292   3.238
 1564SOL     OW 1321   2.534   1.616   2.016
 1564SOL    HW1 1322   2.543   1.626   1.917
 1564SOL    HW2 1323   2.494   1.527   2.037
 1565SOL     OW 1324   3.512   1.720   3.256
 1565SOL    HW1 1325   3.565   1.730   3.172
 1565SOL    HW2 1326   3.485   1.810   3.290
 1568SOL     OW 1327   3.056   1.612   1.893
 1568SOL    HW1 1328   3.062   1.519   1.930
 1568SOL    HW2 1329   2.997   1.612   1.813
 1569SOL     OW 1330   2.684   1.002   3.234
 1569SOL    HW1 1331   2.724   1.001   3.142
 1569SOL    HW2 1332   2.694   1.094   3.274
 1570SOL     OW 1333   2.778   0.910   2.153
 1570SOL    HW1 1334   2.841   0.948   2.085
 1570SOL    HW2 1335   2.818   0.827   2.192
 1571SOL     OW 1336   3.366   1.607   1.906
 1571SOL    HW1 1337   3.274   1.644   1.913
 1571SOL    HW2 1338   3.404   1.627   1.816
 1572SOL     OW 1339   2.234   1.288   3.352
 1572SOL    HW1 1340   2.221   1.381   3.318
 1572SOL    HW2 1341   2.150   1.236   3.339
 1574SOL     OW 1342   2.901   1.098   2.558
 1574SOL    HW1 1343   2.831   1.051   2.612
 1574SOL    HW2 1344   2.960   1.030   2.515
 1576SOL     OW 1345   2.452   1.487   2.353
 1576SOL    HW1 1346   2.494   1.429   2.283
 1576SOL    HW2 1347   2.408   1.566   2.309
 1578SOL     OW 1348   2.117   1.348   2.152
 1578SOL    HW1 1349   2.021   1.349   2.125
 1578SOL    HW2 1350   2.129   1.401   2.236
 1584SOL     OW 1351   3.045   1.335   1.981
 1584SOL    HW1 1352   2.946   1.324   1.983
 1584SOL    HW2 1353   3.079   1.350   2.074
 1585SOL     OW 1354   2.475   0.842   3.293
 1585SOL    HW1 1355   2.531   0.923   3.276
 1585SOL    HW2 1356   2.534   0.762   3.296
 1586SOL     OW 1357   3.355   1.767   2.821
 1586SOL    HW1 1358   3.388   1.831   2.752
 1586SOL    HW2 1359   3.421   1.761   2.896
 1589SOL     OW 1360   2.252   1.741   3.422
 1589SOL    HW1 1361   2.161   1.782   3.420
 1589SOL    HW2 1362   2.245   1.647   3.454
 1592SOL     OW 1363   2.456   0.745   2.514
 1592SOL    HW1 1364   2.506   0.830   2.495
 1592SOL    HW2 1365   2.368   0.747   2.466
 1595SOL     OW 1366   2.721   1.374   1.878
 1595SOL    HW1 1367   2.675   1.389   1.966
 1595SOL    HW2 1368   2.765   1.459   1.848
 1596SOL     OW 1369   2.523   1.790   2.815
 1596SOL    HW1 1370   2.477   1.878   2.802
 1596SOL    HW2 1371   2.622   1.802   2.808
 1597SOL     OW 1372   2.721   0.956   2.723
 1597SOL    HW1 1373   2.775   0.887   2.771
 1597SOL    HW2 1374   2.689   1.025   2.789
 1598SOL     OW 1375   2.945   0.984   1.949
 1598SOL    HW1 1376   2.922   1.037   1.867
 1598SOL    HW2 1377   3.026   0.928   1.930
 1599SOL     OW 1378   3.723   1.569   2.713
 1599SOL    HW1 1379   3.652   1.557   2.643
 1599SOL    HW2 1380   3.724   1.490   2.773
 1600SOL     OW 1381   2.083   1.314   3.706
 1600SOL    HW1 1382   2.018   1.241   3.685
 1600SOL    HW2 1383   2.087   1.328   3.804
 1601SOL     OW 1384   1.941   1.240   2.515
 1601SOL    HW1 1385   1.940   1.193   2.603
 1601SOL    HW2 1386   2.023   1.212   2.464
 1602SOL     OW 1387   2.534   1.391   3.486
 1602SOL    HW1 1388   2.456   1.341   3.524
 1602SOL    HW2 1389   2.531   1.486   3.517
 1604SOL     OW 1390   2.290   0.424   2.382
 1604SOL    HW1 1391   2.320   0.352   2.320
 1604SOL    HW2 1392   2.251   0.384   2.465
 1605SOL     OW 1393   3.567   1.487   2.966
 1605SOL    HW1 1394   3.474   1.462   2.939
 1605SOL    HW2 1395   3.593   1.437   3.048
 1607SOL     OW 1396   2.674   1.586   2.549
 1607SOL    HW1 1397   2.706   1.596   2.455
 1607SOL    HW2 1398   2.595   1.524   2.551
 1610SOL     OW 1399   2.632   1.330   2.163
 1610SOL    HW1 1400   2.586   1.243   2.180
 1610SOL    HW2 1401   2.723   1.327   2.204
 1611SOL     OW 1402   2.480   1.567   3.146
 1611SOL    HW1 1403   2.475   1.649   3.203
 1611SOL    HW2 1404   2.569   1.564   3.101
 1615SOL     OW 1405   1.901   1.077   2.162
 1615SOL    HW1 1406   2.000   1.066   2.153
 1615SOL    HW2 1407   1.861   0.991   2.194
 1616SOL     OW 1408   2.737   1.646   2.199
 1616SOL    HW1 1409   2.660   1.611   2.145
 1616SOL    HW2 1410   2.705   1.717   2.261
 1624SOL     OW 1411   1.889   1.596   3.841
 1624SOL    HW1 1412   1.870   1.500   3.862
 1624SOL    HW2 1413   1.856   1.654   3.916
 1673SOL     OW 1414   2.534   1.616   3.878
 1673SOL    HW1 1415   2.543   1.626   3.779
 1673SOL    HW2 1416   2.494   1.527   3.899
 1695SOL     OW 1417   2.087   2.137   0.996
 1695SOL    HW1 1418   2.122   2.120   1.088
 1695SOL    HW2 1419   1.999   2.092   0.984
 1696SOL     OW 1420   1.881   2.230   0.647
 1696SOL    HW1 1421   1.799   2.273   0.686
 1696SOL    HW2 1422   1.853   2.157   0.584
 1697SOL     OW 1423   2.431   3.137   1.165
 1697SOL    HW1 1424   2.338   3.130   1.128
 1697SOL    HW2 1425   2.442   3.226   1.209
 1699SOL     OW 1426   2.997   2.565   0.717
 1699SOL    HW1 1427   3.054   2.643   0.692
 1699SOL    HW2 1428   2.937   2.591   0.793
 1701SOL     OW 1429   2.630   3.006   1.023
 1701SOL    HW1 1430   2.552   3.023   1.083
 1701SOL    HW2 1431   2.664   3.093   0.987
 1702SOL     OW 1432   2.712   2.660   1.823
 1702SOL    HW1 1433   2.708   2.736   1.888
 1702SOL    HW2 1434   2.734   2.696   1.732
 1703SOL     OW 1435   2.547   2.874   0.665
 1703SOL    HW1 1436   2.616   2.858   0.735
 1703SOL    HW2 1437   2.474   2.931   0.703
 1704SOL     OW 1438   2.548   3.023   1.803
 1704SOL    HW1 1439   2.608   3.102   1.817
 1704SOL    HW2 1440   2.462   3.054   1.762
 1705SOL     OW 1441   2.197   3.297   1.061
 1705SOL    HW1 1442   2.119   3.266   1.008
 1705SOL    HW2 1443   2.255   3.355   1.004
 1707SOL     OW 1444   2.300   2.254   1.499
 1707SOL    HW1 1445   2.382   2.198   1.508
 1707SOL    HW2 1446   2.219   2.196   1.503
 1710SOL     OW 1447   2.989   3.203   1.690
 1710SOL    HW1 1448   3.036   3.203   1.778
 1710SOL    HW2 1449   2.941   3.116   1.679
 1712SOL     OW 1450   2.102   2.953   0.886
 1712SOL    HW1 1451   2.116   2.869   0.938
 1712SOL    HW2 1452   2.047   3.017   0.941
 1713SOL     OW 1453   2.482   3.648   1.439
 1713SOL    HW1 1454   2.390   3.631   1.474
 1713SOL    HW2 1455   2.510   3.740   1.465
 1715SOL     OW 1456   3.456   1.976   1.480
 1715SOL    HW1 1457   3.438   2.043   1.408
 1715SOL    HW2 1458   3.453   2.022   1.569
 1716SOL     OW 1459   1.984   2.505   0.563
 1716SOL    HW1 1460   1.939   2.417   0.580
 1716SOL    HW2 1461   1.983   2.559   0.647
 1721SOL     OW 1462   1.975   2.599   1.597
 1721SOL    HW1 1463   2.063   2.586   1.642
 1721SOL    HW2 1464   1.962   2.696   1.575
 1723SOL     OW 1465   3.155   3.090   1.423
 1723SOL    HW1 1466   3.192   3.017   1.365
 1723SOL    HW2 1467   3.207   3.095   1.508
 1725SOL     OW 1468   2.059   2.838   1.264
 1725SOL    HW1 1469   2.148   2.793   1.250
 1725SOL    HW2 1470   1.986   2.773   1.245
 1727SOL     OW 1471   3.049   3.654   1.616
 1727SOL    HW1 1472   3.073   3.714   1.540
 1727SOL    HW2 1473   3.056   3.559   1.586
 1728SOL     OW 1474   2.179   2.113   1.801
 1728SOL    HW1 1475   2.250   2.184   1.807
 1728SOL    HW2 1476   2.091   2.152   1.829
 1732SOL     OW 1477   3.143   2.207   0.944
 1732SOL    HW1 1478   3.057   2.157   0.931
 1732SOL    HW2 1479   3.205   2.153   1.000
 1734SOL     OW 1480   2.669   2.467   1.465
 1734SOL    HW1 1481   2.622   2.464   1.554
 1734SOL    HW2 1482   2.618   2.412   1.399
 1735SOL     OW 1483   3.256   2.331   1.674
 1735SOL    HW1 1484   3.236   2.374   1.762
 1735SOL    HW2 1485   3.334   2.269   1.683
 1736SOL     OW 1486   2.835   2.752   1.572
 1736SOL    HW1 1487   2.881   2.668   1.543
 1736SOL    HW2 1488   2.779   2.786   1.497
 1737SOL     OW 1489   2.853   2.272   1.242
 1737SOL    HW1 1490   2.776   2.306   1.296
 1737SOL    HW2 1491   2.819   2.221   1.163
 1739SOL     OW 1492   1.938   2.673   0.789
 1739SOL    HW1 1493   2.037   2.661   0.798
 1739SOL    HW2 1494   1.914   2.768   0.810
 1740SOL     OW 1495   1.992   3.683   1.571
 1740SOL    HW1 1496   1.982   3.668   1.670
 1740SOL    HW2 1497   1.906   3.719   1.535
 1742SOL     OW 1498   3.581   2.447   1.831
 1742SOL    HW1 1499   3.555   2.536   1.795
 1742SOL    HW2 1500   3.579   2.379   1.758
 1744SOL     OW 1501   2.412   2.058   0.885
 1744SOL    HW1 1502   2.407   2.053   0.985
 1744SOL    HW2 1503   2.414   2.154   0.856
 1748SOL     OW 1504   3.089   3.412   1.506
 1748SOL    HW1 1505   3.095   3.335   1.570
 1748SOL    HW2 1506   3.037   3.386   1.426
 1751SOL     OW 1507   2.323   3.128   1.727
 1751SOL    HW1 1508   2.273   3.129   1.641
 1751SOL    HW2 1509   2.260   3.110   1.803
 1753SOL     OW 1510   2.064   2.147   1.498
 1753SOL    HW1 1511   1.984   2.207   1.485
 1753SOL    HW2 1512   2.054   2.098   1.584
 1757SOL     OW 1513   2.111   3.647   1.241
 1757SOL    HW1 1514   2.168   3.582   1.291
 1757SOL    HW2 1515   2.095   3.614   1.148
 1759SOL     OW 1516   2.244   2.562   0.480
 1759SOL    HW1 1517   2.289   2.472   0.477
 1759SOL    HW2 1518   2.150   2.551   0.513
 1760SOL     OW 1519   3.409   2.084   1.729
 1760SOL    HW1 1520   3.404   2.121   1.821
 1760SOL    HW2 1521   3.337   2.015   1.717
 1762SOL     OW 1522   2.643   2.126   1.749
 1762SOL    HW1 1523   2.710   2.065   1.792
 1762SOL    HW2 1524   2.570   2.145   1.814
 1763SOL     OW 1525   2.750   3.376   1.195
 1763SOL    HW1 1526   2.727   3.351   1.101
 1763SOL    HW2 1527   2.811   3.307   1.234
 1764SOL     OW 1528   3.213   2.452   1.433
 1764SOL    HW1 1529   3.241   2.409   1.518
 1764SOL    HW2 1530   3.238   2.548   1.434
 1765SOL     OW 1531   2.665   3.264   0.924
 1765SOL    HW1 1532   2.755   3.278   0.882
 1765SOL    HW2 1533   2.594   3.266   0.853
 1766SOL     OW 1534   2.784   2.365   0.899
 1766SOL    HW1 1535   2.759   2.356   0.803
 1766SOL    HW2 1536   2.832   2.283   0.930
 1767SOL     OW 1537   2.401   1.926   0.512
 1767SOL    HW1 1538   2.320   1.927   0.570
 1767SOL    HW2 1539   2.404   2.009   0.457
 1770SOL     OW 1540   2.938   2.545   1.464
 1770SOL    HW1 1541   2.858   2.484   1.467
 1770SOL    HW2 1542   3.019   2.492   1.440
 1772SOL     OW 1543   2.321   3.014   0.741
 1772SOL    HW1 1544   2.250   2.987   0.806
 1772SOL    HW2 1545   2.295   2.986   0.648
 1775SOL     OW 1546   1.940   2.418   1.386
 1775SOL    HW1 1547   2.032   2.417   1.345
 1775SOL    HW2 1548   1.934   2.492   1.453
 1776SOL     OW 1549   2.423   2.084   1.147
 1776SOL    HW1 1550   2.461   2.000   1.184
 1776SOL    HW2 1551   2.335   2.103   1.191
 1777SOL     OW 1552   2.728   2.316   0.642
 1777SOL    HW1 1553   2.696   2.388   0.580
 1777SOL    HW2 1554   2.752   2.235   0.589
 1778SOL     OW 1555   2.879   1.901   0.753
 1778SOL    HW1 1556   2.807   1.906   0.684
 1778SOL    HW2 1557   2.855   1.832   0.822
 1780SOL     OW 1558   3.328   2.452   0.992
 1780SOL    HW1 1559   3.298   2.357   0.999
 1780SOL    HW2 1560   3.401   2.468   1.058
 1786SOL     OW 1561   3.616   3.085   1.588
 1786SOL    HW1 1562   3.707   3.046   1.575
 1786SOL    HW2 1563   3.624   3.181   1.612
 1787SOL     OW 1564   2.926   3.209   1.340
 1787SOL    HW1 1565   2.846   3.186   1.395
 1787SOL    HW2 1566   3.009   3.183   1.389
 1789SOL     OW 1567   2.973   3.057   1.100
 1789SOL    HW1 1568   2.933   3.101   1.181
 1789SOL    HW2 1569   2.932   3.094   1.017
 1791SOL     OW 1570   2.777   1.951   1.402
 1791SOL    HW1 1571   2.802   1.931   1.307
 1791SOL    HW2 1572   2.849   2.007   1.444
 1792SOL     OW 1573   2.842   2.978   1.719
 1792SOL    HW1 1574   2.743   2.984   1.729
 1792SOL    HW2 1575   2.865   2.898   1.663
 1794SOL     OW 1576   2.272   2.675   1.251
 1794SOL    HW1 1577   2.358   2.687   1.301
 1794SOL    HW2 1578   2.230   2.588   1.278
 1795SOL     OW 1579   3.136   2.248   1.262
 1795SOL    HW1 1580   3.157   2.322   1.326
 1795SOL    HW2 1581   3.047   2.265   1.219
 1796SOL     OW 1582   1.926   3.426   1.331
 1796SOL    HW1 1583   1.880   3.508   1.297
 1796SOL    HW2 1584   2.024   3.445   1.340
 1798SOL     OW 1585   2.428   2.399   0.865
 1798SOL    HW1 1586   2.440   2.465   0.791
 1798SOL    HW2 1587   2.474   2.433   0.948
 1800SOL     OW 1588   3.134   3.307   1.142
 1800SOL    HW1 1589   3.181   3.320   1.229
 1800SOL    HW2 1590   3.068   3.233   1.151
 1802SOL     OW 1591   2.216   3.372   1.329
 1802SOL    HW1 1592   2.195   3.328   1.242
 1802SOL    HW2 1593   2.313   3.398   1.332
 1803SOL     OW 1594   2.264   2.613   1.598
 1803SOL    HW1 1595   2.332   2.668   1.551
 1803SOL    HW2 1596   2.304   2.525   1.625
 1804SOL     OW 1597   3.449   2.641   1.670
 1804SOL    HW1 1598   3.357   2.679   1.665
 1804SOL    HW2 1599   3.509   2.688   1.605
 1805SOL     OW 1600   2.875   1.967   1.770
 1805SOL    HW1 1601   2.881   2.052   1.718
 1805SOL    HW2 1602   2.907   1.891   1.713
 1806SOL     OW 1603   2.366   1.912   1.740
 1806SOL    HW1 1604   2.324   1.855   1.670
 1806SOL    HW2 1605   2.300   1.981   1.772
 1807SOL     OW 1606   2.435   2.732   1.029
 1807SOL    HW1 1607   2.479   2.821   1.020
 1807SOL    HW2 1608   2.372   2.732   1.106
 1808SOL     OW 1609   3.222   2.724   1.045
 1808SOL    HW1 1610   3.147   2.724   0.979
 1808SOL    HW2 1611   3.259   2.632   1.054
 1810SOL     OW 1612   2.169   2.075   1.231
 1810SOL    HW1 1613   2.146   2.112   1.321
 1810SOL    HW2 1614   2.139   1.980   1.225
 1811SOL     OW 1615   1.899   3.172   1.282
 1811SOL    HW1 1616   1.952   3.123   1.350
 1811SOL    HW2 1617   1.921   3.270   1.287
 1812SOL     OW 1618   2.594   2.496   1.064
 1812SOL    HW1 1619   2.653   2.470   0.988
 1812SOL    HW2 1620   2.566   2.592   1.053
 1813SOL     OW 1621   3.590   2.797   1.854
 1813SOL    HW1 1622   3.544   2.790   1.765
 1813SOL    HW2 1623   3.528   2.841   1.920
 1814SOL     OW 1624   2.169   1.925   0.618
 1814SOL    HW1 1625   2.158   2.019   0.651
 1814SOL    HW2 1626   2.164   1.862   0.695
 1816SOL     OW 1627   2.885   2.628   0.966
 1816SOL    HW1 1628   2.900   2.649   1.062
 1816SOL    HW2 1629   2.855   2.533   0.957
 1817SOL     OW 1630   2.842   3.435   1.700
 1817SOL    HW1 1631   2.822   3.479   1.612
 1817SOL    HW2 1632   2.881   3.344   1.684
 1819SOL     OW 1633   2.212   2.760   1.804
 1819SOL    HW1 1634   2.288   2.804   1.852
 1819SOL    HW2 1635   2.247   2.713   1.722
 1823SOL     OW 1636   2.181   2.672   0.949
 1823SOL    HW1 1637   2.274   2.708   0.954
 1823SOL    HW2 1638   2.175   2.587   1.001
 1824SOL     OW 1639   2.201   2.371   1.006
 1824SOL    HW1 1640   2.149   2.288   0.989
 1824SOL    HW2 1641   2.278   2.376   0.942
 1825SOL     OW 1642   3.000   2.242   1.678
 1825SOL    HW1 1643   2.955   2.305   1.742
 1825SOL    HW2 1644   3.093   2.273   1.661
 1826SOL     OW 1645   3.022   2.069   1.477
 1826SOL    HW1 1646   3.022   2.133   1.554
 1826SOL    HW2 1647   3.050   2.117   1.394
 1829SOL     OW 1648   2.366   3.430   0.910
 1829SOL    HW1 1649   2.432   3.504   0.919
 1829SOL    HW2 1650   2.410   3.351   0.868
 1830SOL     OW 1651   2.864   2.658   1.238
 1830SOL    HW1 1652   2.905   2.626   1.324
 1830SOL    HW2 1653   2.768   2.631   1.235
 1831SOL     OW 1654   1.902   2.406   1.114
 1831SOL    HW1 1655   1.987   2.373   1.073
 1831SOL    HW2 1656   1.915   2.421   1.212
 1832SOL     OW 1657   2.051   2.382   1.722
 1832SOL    HW1 1658   2.110   2.342   1.652
 1832SOL    HW2 1659   1.993   2.453   1.681
 1833SOL     OW 1660   3.231   2.812   1.660
 1833SOL    HW1 1661   3.270   2.901   1.680
 1833SOL    HW2 1662   3.241   2.792   1.563
 1835SOL     OW 1663   3.519   2.466   1.206
 1835SOL    HW1 1664   3.481   2.397   1.268
 1835SOL    HW2 1665   3.601   2.430   1.162
 1836SOL     OW 1666   2.114   3.426   1.744
 1836SOL    HW1 1667   2.084   3.483   1.820
 1836SOL    HW2 1668   2.107   3.329   1.770
 1837SOL     OW 1669   2.533   2.326   1.269
 1837SOL    HW1 1670   2.499   2.237   1.239
 1837SOL    HW2 1671   2.559   2.380   1.189
 1838SOL     OW 1672   2.792   3.540   1.465
 1838SOL    HW1 1673   2.768   3.522   1.370
 1838SOL    HW2 1674   2.822   3.634   1.475
 1840SOL     OW 1675   2.021   2.999   1.466
 1840SOL    HW1 1676   2.043   2.938   1.542
 1840SOL    HW2 1677   2.031   2.950   1.380
 1841SOL     OW 1678   3.209   2.921   1.234
 1841SOL    HW1 1679   3.233   2.858   1.160
 1841SOL    HW2 1680   3.119   2.961   1.216
 1845SOL     OW 1681   1.945   3.120   1.022
 1845SOL    HW1 1682   1.940   3.119   1.122
 1845SOL    HW2 1683   1.862   3.079   0.984
 1846SOL     OW 1684   2.550   3.524   1.716
 1846SOL    HW1 1685   2.494   3.605   1.725
 1846SOL    HW2 1686   2.602   3.528   1.630
 1850SOL     OW 1687   1.992   3.656   1.851
 1850SOL    HW1 1688   1.951   3.582   1.904
 1850SOL    HW2 1689   2.056   3.707   1.909
 1852SOL     OW 1690   2.692   3.135   1.422
 1852SOL    HW1 1691   2.687   3.168   1.517
 1852SOL    HW2 1692   2.606   3.154   1.376
 1856SOL     OW 1693   2.125   2.188   0.720
 1856SOL    HW1 1694   2.046   2.239   0.686
 1856SOL    HW2 1695   2.116   2.173   0.818
 1858SOL     OW 1696   2.684   2.864   1.372
 1858SOL    HW1 1697   2.724   2.863   1.280
 1858SOL    HW2 1698   2.694   2.956   1.412
 1861SOL     OW 1699   2.234   3.150   1.490
 1861SOL    HW1 1700   2.221   3.243   1.456
 1861SOL    HW2 1701   2.150   3.098   1.477
 1864SOL     OW 1702   2.876   2.098   0.971
 1864SOL    HW1 1703   2.868   2.062   0.878
 1864SOL    HW2 1704   2.874   2.022   1.036
 1866SOL     OW 1705   3.571   2.247   1.381
 1866SOL    HW1 1706   3.644   2.316   1.385
 1866SOL    HW2 1707   3.599   2.172   1.322
 1868SOL     OW 1708   1.967   2.875   1.726
 1868SOL    HW1 1709   1.890   2.842   1.780
 1868SOL    HW2 1710   2.052   2.845   1.768
 1869SOL     OW 1711   2.534   2.065   1.489
 1869SOL    HW1 1712   2.624   2.049   1.449
 1869SOL    HW2 1713   2.542   2.070   1.588
 1871SOL     OW 1714   3.302   2.718   1.398
 1871SOL    HW1 1715   3.245   2.770   1.335
 1871SOL    HW2 1716   3.398   2.730   1.374
 1873SOL     OW 1717   2.475   2.704   1.431
 1873SOL    HW1 1718   2.531   2.785   1.414
 1873SOL    HW2 1719   2.534   2.624   1.434
 1875SOL     OW 1720   2.578   2.427   1.708
 1875SOL    HW1 1721   2.597   2.492   1.782
 1875SOL    HW2 1722   2.638   2.347   1.717
 1876SOL     OW 1723   3.312   3.082   1.633
 1876SOL    HW1 1724   3.303   3.072   1.732
 1876SOL    HW2 1725   3.408   3.075   1.607
 1877SOL     OW 1726   2.252   3.603   1.560
 1877SOL    HW1 1727   2.161   3.644   1.558
 1877SOL    HW2 1728   2.245   3.509   1.592
 1878SOL     OW 1729   3.536   2.745   1.254
 1878SOL    HW1 1730   3.509   2.656   1.217
 1878SOL    HW2 1731   3.537   2.813   1.181
 1880SOL     OW 1732   2.456   2.607   0.652
 1880SOL    HW1 1733   2.506   2.692   0.633
 1880SOL    HW2 1734   2.368   2.609   0.604
 1881SOL     OW 1735   3.639   2.204   1.642
 1881SOL    HW1 1736   3.622   2.235   1.548
 1881SOL    HW2 1737   3.555   2.167   1.680
 1882SOL     OW 1738   3.592   2.796   1.517
 1882SOL    HW1 1739   3.630   2.887   1.532
 1882SOL    HW2 1740   3.584   2.779   1.418
 1885SOL     OW 1741   2.721   2.818   0.861
 1885SOL    HW1 1742   2.775   2.749   0.909
 1885SOL    HW2 1743   2.689   2.887   0.927
 1888SOL     OW 1744   2.083   3.176   1.844
 1888SOL    HW1 1745   2.018   3.103   1.823
 1888SOL    HW2 1746   2.087   3.190   1.942
 1890SOL     OW 1747   2.534   3.253   1.624
 1890SOL    HW1 1748   2.456   3.203   1.662
 1890SOL    HW2 1749   2.531   3.348   1.655
 1891SOL     OW 1750   3.686   2.054   1.227
 1891SOL    HW1 1751   3.682   1.964   1.271
 1891SOL    HW2 1752   3.689   2.043   1.128
 1892SOL     OW 1753   2.290   2.286   0.520
 1892SOL    HW1 1754   2.320   2.214   0.458
 1892SOL    HW2 1755   2.251   2.246   0.603
 1894SOL     OW 1756   2.179   2.409   1.280
 1894SOL    HW1 1757   2.217   2.350   1.352
 1894SOL    HW2 1758   2.219   2.383   1.192
 1896SOL     OW 1759   3.286   2.076   1.112
 1896SOL    HW1 1760   3.338   2.011   1.167
 1896SOL    HW2 1761   3.237   2.139   1.173
 1897SOL     OW 1762   2.863   1.896   1.154
 1897SOL    HW1 1763   2.800   1.824   1.123
 1897SOL    HW2 1764   2.956   1.860   1.154
 1899SOL     OW 1765   2.480   3.429   1.284
 1899SOL    HW1 1766   2.475   3.511   1.341
 1899SOL    HW2 1767   2.569   3.426   1.239
 1901SOL     OW 1768   3.162   2.315   0.691
 1901SOL    HW1 1769   3.103   2.395   0.695
 1901SOL    HW2 1770   3.177   2.280   0.784
 1905SOL     OW 1771   2.092   2.490   1.975
 1905SOL    HW1 1772   1.999   2.488   2.012
 1905SOL    HW2 1773   2.093   2.451   1.883
 1906SOL     OW 1774   2.087   2.137   2.858
 1906SOL    HW1 1775   2.122   2.120   2.950
 1906SOL    HW2 1776   1.999   2.092   2.846
 1907SOL     OW 1777   1.881   2.230   2.509
 1907SOL    HW1 1778   1.799   2.273   2.548
 1907SOL    HW2 1779   1.853   2.157   2.446
 1908SOL     OW 1780   2.431   3.137   3.027
 1908SOL    HW1 1781   2.338   3.130   2.990
 1908SOL    HW2 1782   2.442   3.226   3.071
 1909SOL     OW 1783   3.417   3.373   2.565
 1909SOL    HW1 1784   3.360   3.357   2.646
 1909SOL    HW2 1785   3.358   3.383   2.485
 1910SOL     OW 1786   2.997   2.565   2.579
 1910SOL    HW1 1787   3.054   2.643   2.554
 1910SOL    HW2 1788   2.937   2.591   2.655
 1911SOL     OW 1789   3.617   2.469   2.093
 1911SOL    HW1 1790   3.605   2.456   1.994
 1911SOL    HW2 1791   3.587   2.388   2.142
 1912SOL     OW 1792   2.630   3.006   2.885
 1912SOL    HW1 1793   2.552   3.023   2.945
 1912SOL    HW2 1794   2.664   3.093   2.849
 1913SOL     OW 1795   2.712   2.660   3.685
 1913SOL    HW1 1796   2.708   2.736   3.750
 1913SOL    HW2 1797   2.734   2.696   3.594
 1914SOL     OW 1798   2.547   2.874   2.527
 1914SOL    HW1 1799   2.616   2.858   2.597
 1914SOL    HW2 1800   2.474   2.931   2.565
 1915SOL     OW 1801   2.548   3.023   3.665
 1915SOL    HW1 1802   2.608   3.102   3.679
 1915SOL    HW2 1803   2.462   3.054   3.624
 1916SOL     OW 1804   2.197   3.297   2.923
 1916SOL    HW1 1805   2.119   3.266   2.870
 1916SOL    HW2 1806   2.255   3.355   2.866
 1918SOL     OW 1807   2.300   2.254   3.361
 1918SOL    HW1 1808   2.382   2.198   3.370
 1918SOL    HW2 1809   2.219   2.196   3.365
 1919SOL     OW 1810   3.465   2.309   2.599
 1919SOL    HW1 1811   3.391   2.355   2.549
 1919SOL    HW2 1812   3.516   2.377   2.652
 1920SOL     OW 1813   2.093   3.575   2.345
 1920SOL    HW1 1814   2.127   3.652   2.399
 1920SOL    HW2 1815   2.137   3.575   2.255
 1922SOL     OW 1816   2.092   3.296   2.400
 1922SOL    HW1 1817   2.066   3.392   2.400
 1922SOL    HW2 1818   2.021   3.242   2.445
 1923SOL     OW 1819   2.102   2.953   2.748
 1923SOL    HW1 1820   2.116   2.869   2.800
 1923SOL    HW2 1821   2.047   3.017   2.803
 1925SOL     OW 1822   2.468   2.826   1.985
 1925SOL    HW1 1823   2.475   2.910   1.931
 1925SOL    HW2 1824   2.514   2.839   2.073
 1926SOL     OW 1825   3.456   1.976   3.342
 1926SOL    HW1 1826   3.438   2.043   3.270
 1926SOL    HW2 1827   3.453   2.022   3.431
 1927SOL     OW 1828   1.984   2.505   2.425
 1927SOL    HW1 1829   1.939   2.417   2.442
 1927SOL    HW2 1830   1.983   2.559   2.509
 1929SOL     OW 1831   1.889   3.458   1.979
 1929SOL    HW1 1832   1.870   3.362   2.000
 1929SOL    HW2 1833   1.856   3.516   2.054
 1930SOL     OW 1834   3.551   2.784   2.474
 1930SOL    HW1 1835   3.646   2.755   2.482
 1930SOL    HW2 1836   3.543   2.849   2.399
 1931SOL     OW 1837   3.503   2.970   2.294
 1931SOL    HW1 1838   3.589   2.972   2.242
 1931SOL    HW2 1839   3.517   3.017   2.382
 1932SOL     OW 1840   1.975   2.599   3.459
 1932SOL    HW1 1841   2.063   2.586   3.504
 1932SOL    HW2 1842   1.962   2.696   3.437
 1933SOL     OW 1843   2.475   3.227   2.588
 1933SOL    HW1 1844   2.426   3.140   2.597
 1933SOL    HW2 1845   2.452   3.270   2.501
 1934SOL     OW 1846   3.155   3.090   3.285
 1934SOL    HW1 1847   3.192   3.017   3.227
 1934SOL    HW2 1848   3.207   3.095   3.370
 1935SOL     OW 1849   2.671   1.866   2.364
 1935SOL    HW1 1850   2.711   1.957   2.355
 1935SOL    HW2 1851   2.571   1.874   2.370
 1936SOL     OW 1852   2.059   2.838   3.126
 1936SOL    HW1 1853   2.148   2.793   3.112
 1936SOL    HW2 1854   1.986   2.773   3.107
 1937SOL     OW 1855   3.387   2.861   2.052
 1937SOL    HW1 1856   3.324   2.785   2.065
 1937SOL    HW2 1857   3.435   2.879   2.138
 1939SOL     OW 1858   2.179   2.113   3.663
 1939SOL    HW1 1859   2.250   2.184   3.669
 1939SOL    HW2 1860   2.091   2.152   3.691
 1940SOL     OW 1861   3.328   3.279   2.815
 1940SOL    HW1 1862   3.269   3.285   2.895
 1940SOL    HW2 1863   3.313   3.191   2.769
 1942SOL     OW 1864   2.460   2.591   2.132
 1942SOL    HW1 1865   2.484   2.660   2.064
 1942SOL    HW2 1866   2.382   2.624   2.186
 1943SOL     OW 1867   3.143   2.207   2.806
 1943SOL    HW1 1868   3.057   2.157   2.793
 1943SOL    HW2 1869   3.205   2.153   2.862
 1944SOL     OW 1870   3.438   3.524   2.169
 1944SOL    HW1 1871   3.527   3.570   2.172
 1944SOL    HW2 1872   3.417   3.500   2.074
 1945SOL     OW 1873   2.669   2.467   3.327
 1945SOL    HW1 1874   2.622   2.464   3.416
 1945SOL    HW2 1875   2.618   2.412   3.261
 1946SOL     OW 1876   3.256   2.331   3.536
 1946SOL    HW1 1877   3.236   2.374   3.624
 1946SOL    HW2 1878   3.334   2.269   3.545
 1947SOL     OW 1879   2.835   2.752   3.434
 1947SOL    HW1 1880   2.881   2.668   3.405
 1947SOL    HW2 1881   2.779   2.786   3.359
 1948SOL     OW 1882   2.853   2.272   3.104
 1948SOL    HW1 1883   2.776   2.306   3.158
 1948SOL    HW2 1884   2.819   2.221   3.025
 1949SOL     OW 1885   2.903   2.563   2.291
 1949SOL    HW1 1886   2.929   2.559   2.387
 1949SOL    HW2 1887   2.818   2.512   2.277
 1950SOL     OW 1888   1.938   2.673   2.651
 1950SOL    HW1 1889   2.037   2.661   2.660
 1950SOL    HW2 1890   1.914   2.768   2.672
 1952SOL     OW 1891   2.727   2.210   2.057
 1952SOL    HW1 1892   2.786   2.273   2.008
 1952SOL    HW2 1893   2.746   2.116   2.028
 1954SOL     OW 1894   3.224   3.006   2.407
 1954SOL    HW1 1895   3.307   2.977   2.359
 1954SOL    HW2 1896   3.175   3.073   2.351
 1955SOL     OW 1897   2.412   2.058   2.747
 1955SOL    HW1 1898   2.407   2.053   2.847
 1955SOL    HW2 1899   2.414   2.154   2.718
 1956SOL     OW 1900   2.870   3.318   2.339
 1956SOL    HW1 1901   2.824   3.390   2.287
 1956SOL    HW2 1902   2.866   3.338   2.437
 1957SOL     OW 1903   2.213   3.663   2.715
 1957SOL    HW1 1904   2.263   3.577   2.721
 1957SOL    HW2 1905   2.278   3.740   2.712
 1958SOL     OW 1906   3.657   2.928   2.735
 1958SOL    HW1 1907   3.595   2.913   2.659
 1958SOL    HW2 1908   3.605   2.939   2.820
 1960SOL     OW 1909   2.183   2.805   2.104
 1960SOL    HW1 1910   2.265   2.844   2.062
 1960SOL    HW2 1911   2.156   2.723   2.055
 1961SOL     OW 1912   3.320   2.597   2.590
 1961SOL    HW1 1913   3.315   2.532   2.665
 1961SOL    HW2 1914   3.400   2.656   2.603
 1962SOL     OW 1915   2.323   3.128   3.589
 1962SOL    HW1 1916   2.273   3.129   3.503
 1962SOL    HW2 1917   2.260   3.110   3.665
 1963SOL     OW 1918   2.973   3.638   2.099
 1963SOL    HW1 1919   2.913   3.576   2.149
 1963SOL    HW2 1920   3.004   3.594   2.014
 1964SOL     OW 1921   2.064   2.147   3.360
 1964SOL    HW1 1922   1.984   2.207   3.347
 1964SOL    HW2 1923   2.054   2.098   3.446
 1965SOL     OW 1924   3.494   3.239   1.943
 1965SOL    HW1 1925   3.462   3.333   1.933
 1965SOL    HW2 1926   3.418   3.176   1.931
 1966SOL     OW 1927   2.326   3.605   2.185
 1966SOL    HW1 1928   2.359   3.644   2.271
 1966SOL    HW2 1929   2.402   3.598   2.120
 1967SOL     OW 1930   3.262   1.969   2.288
 1967SOL    HW1 1931   3.238   1.932   2.198
 1967SOL    HW2 1932   3.361   1.985   2.292
 1968SOL     OW 1933   2.111   3.647   3.103
 1968SOL    HW1 1934   2.168   3.582   3.153
 1968SOL    HW2 1935   2.095   3.614   3.010
 1969SOL     OW 1936   2.802   3.560   2.766
 1969SOL    HW1 1937   2.882   3.503   2.787
 1969SOL    HW2 1938   2.753   3.520   2.689
 1970SOL     OW 1939   2.244   2.562   2.342
 1970SOL    HW1 1940   2.289   2.472   2.339
 1970SOL    HW2 1941   2.150   2.551   2.375
 1972SOL     OW 1942   2.476   1.984   1.979
 1972SOL    HW1 1943   2.574   1.962   1.986
 1972SOL    HW2 1944   2.445   1.967   1.886
 1973SOL     OW 1945   2.643   2.126   3.611
 1973SOL    HW1 1946   2.710   2.065   3.654
 1973SOL    HW2 1947   2.570   2.145   3.676
 1974SOL     OW 1948   2.750   3.376   3.057
 1974SOL    HW1 1949   2.727   3.351   2.963
 1974SOL    HW2 1950   2.811   3.307   3.096
 1975SOL     OW 1951   3.213   2.452   3.295
 1975SOL    HW1 1952   3.241   2.409   3.380
 1975SOL    HW2 1953   3.238   2.548   3.296
 1976SOL     OW 1954   2.665   3.264   2.786
 1976SOL    HW1 1955   2.755   3.278   2.744
 1976SOL    HW2 1956   2.594   3.266   2.715
 1977SOL     OW 1957   2.784   2.365   2.761
 1977SOL    HW1 1958   2.759   2.356   2.665
 1977SOL    HW2 1959   2.832   2.283   2.792
 1978SOL     OW 1960   2.401   1.926   2.374
 1978SOL    HW1 1961   2.320   1.927   2.432
 1978SOL    HW2 1962   2.404   2.009   2.319
 1979SOL     OW 1963   3.296   3.050   1.903
 1979SOL    HW1 1964   3.328   2.974   1.960
 1979SOL    HW2 1965   3.204   3.077   1.933
 1980SOL     OW 1966   2.797   2.098   2.342
 1980SOL    HW1 1967   2.749   2.139   2.264
 1980SOL    HW2 1968   2.896   2.096   2.323
 1981SOL     OW 1969   2.938   2.545   3.326
 1981SOL    HW1 1970   2.858   2.484   3.329
 1981SOL    HW2 1971   3.019   2.492   3.302
 1982SOL     OW 1972   3.089   3.432   2.655
 1982SOL    HW1 1973   3.110   3.506   2.590
 1982SOL    HW2 1974   3.157   3.432   2.728
 1983SOL     OW 1975   2.321   3.014   2.603
 1983SOL    HW1 1976   2.250   2.987   2.668
 1983SOL    HW2 1977   2.295   2.986   2.510
 1984SOL     OW 1978   3.133   3.659   2.453
 1984SOL    HW1 1979   3.177   3.723   2.389
 1984SOL    HW2 1980   3.083   3.711   2.523
 1985SOL     OW 1981   2.894   2.411   1.878
 1985SOL    HW1 1982   2.853   2.493   1.839
 1985SOL    HW2 1983   2.958   2.437   1.951
 1986SOL     OW 1984   1.940   2.418   3.248
 1986SOL    HW1 1985   2.032   2.417   3.207
 1986SOL    HW2 1986   1.934   2.492   3.315
 1987SOL     OW 1987   2.423   2.084   3.009
 1987SOL    HW1 1988   2.461   2.000   3.046
 1987SOL    HW2 1989   2.335   2.103   3.053
 1988SOL     OW 1990   2.728   2.316   2.504
 1988SOL    HW1 1991   2.696   2.388   2.442
 1988SOL    HW2 1992   2.752   2.235   2.451
 1989SOL     OW 1993   2.879   1.901   2.615
 1989SOL    HW1 1994   2.807   1.906   2.546
 1989SOL    HW2 1995   2.855   1.832   2.684
 1990SOL     OW 1996   3.291   3.035   2.729
 1990SOL    HW1 1997   3.236   2.951   2.722
 1990SOL    HW2 1998   3.317   3.064   2.637
 1991SOL     OW 1999   3.328   2.452   2.854
 1991SOL    HW1 2000   3.298   2.357   2.861
 1991SOL    HW2 2001   3.401   2.468   2.920
 1992SOL     OW 2002   3.719   2.695   2.239
 1992SOL    HW1 2003   3.761   2.631   2.303
 1992SOL    HW2 2004   3.681   2.644   2.161
 1993SOL     OW 2005   2.350   3.247   2.036
 1993SOL    HW1 2006   2.263   3.232   2.083
 1993SOL    HW2 2007   2.333   3.273   1.941
 1994SOL     OW 2008   3.526   3.142   2.519
 1994SOL    HW1 2009   3.625   3.150   2.533
 1994SOL    HW2 2010   3.481   3.226   2.550
 1995SOL     OW 2011   3.252   2.437   1.940
 1995SOL    HW1 2012   3.198   2.416   2.021
 1995SOL    HW2 2013   3.343   2.396   1.949
 1997SOL     OW 2014   2.926   3.209   3.202
 1997SOL    HW1 2015   2.846   3.186   3.257
 1997SOL    HW2 2016   3.009   3.183   3.251
 1999SOL     OW 2017   2.973   3.057   2.962
 1999SOL    HW1 2018   2.933   3.101   3.043
 1999SOL    HW2 2019   2.932   3.094   2.879
 2000SOL     OW 2020   3.500   2.961   2.941
 2000SOL    HW1 2021   3.505   3.042   3.000
 2000SOL    HW2 2022   3.414   2.963   2.890
 2001SOL     OW 2023   2.777   1.951   3.264
 2001SOL    HW1 2024   2.802   1.931   3.169
 2001SOL    HW2 2025   2.849   2.007   3.306
 2002SOL     OW 2026   2.842   2.978   3.581
 2002SOL    HW1 2027   2.743   2.984   3.591
 2002SOL    HW2 2028   2.865   2.898   3.525
 2003SOL     OW 2029   2.567   2.912   2.230
 2003SOL    HW1 2030   2.553   2.919   2.329
 2003SOL    HW2 2031   2.651   2.861   2.212
 2004SOL     OW 2032   2.272   2.675   3.113
 2004SOL    HW1 2033   2.358   2.687   3.163
 2004SOL    HW2 2034   2.230   2.588   3.140
 2005SOL     OW 2035   3.136   2.248   3.124
 2005SOL    HW1 2036   3.157   2.322   3.188
 2005SOL    HW2 2037   3.047   2.265   3.081
 2006SOL     OW 2038   1.926   3.426   3.193
 2006SOL    HW1 2039   1.880   3.508   3.159
 2006SOL    HW2 2040   2.024   3.445   3.202
 2007SOL     OW 2041   2.229   2.962   2.363
 2007SOL    HW1 2042   2.222   3.045   2.307
 2007SOL    HW2 2043   2.233   2.882   2.303
 2008SOL     OW 2044   2.428   2.399   2.727
 2008SOL    HW1 2045   2.440   2.465   2.653
 2008SOL    HW2 2046   2.474   2.433   2.810
 2009SOL     OW 2047   3.114   3.210   2.250
 2009SOL    HW1 2048   3.164   3.287   2.290
 2009SOL    HW2 2049   3.019   3.212   2.282
 2010SOL     OW 2050   3.134   3.307   3.004
 2010SOL    HW1 2051   3.181   3.320   3.091
 2010SOL    HW2 2052   3.068   3.233   3.013
 2011SOL     OW 2053   3.444   2.501   2.334
 2011SOL    HW1 2054   3.413   2.562   2.407
 2011SOL    HW2 2055   3.494   2.553   2.265
 2012SOL     OW 2056   2.216   3.372   3.191
 2012SOL    HW1 2057   2.195   3.328   3.104
 2012SOL    HW2 2058   2.313   3.398   3.194
 2013SOL     OW 2059   2.264   2.613   3.460
 2013SOL    HW1 2060   2.332   2.668   3.413
 2013SOL    HW2 2061   2.304   2.525   3.487
 2015SOL     OW 2062   2.875   1.967   3.632
 2015SOL    HW1 2063   2.881   2.052   3.580
 2015SOL    HW2 2064   2.907   1.891   3.575
 2016SOL     OW 2065   2.366   1.912   3.602
 2016SOL    HW1 2066   2.324   1.855   3.532
 2016SOL    HW2 2067   2.300   1.981   3.634
 2017SOL     OW 2068   2.435   2.732   2.891
 2017SOL    HW1 2069   2.479   2.821   2.882
 2017SOL    HW2 2070   2.372   2.732   2.968
 2018SOL     OW 2071   3.222   2.724   2.907
 2018SOL    HW1 2072   3.147   2.724   2.841
 2018SOL    HW2 2073   3.259   2.632   2.916
 2019SOL     OW 2074   3.071   2.387   2.137
 2019SOL    HW1 2075   3.084   2.303   2.191
 2019SOL    HW2 2076   3.042   2.461   2.197
 2020SOL     OW 2077   2.169   2.075   3.093
 2020SOL    HW1 2078   2.146   2.112   3.183
 2020SOL    HW2 2079   2.139   1.980   3.087
 2021SOL     OW 2080   1.899   3.172   3.144
 2021SOL    HW1 2081   1.952   3.123   3.212
 2021SOL    HW2 2082   1.921   3.270   3.149
 2022SOL     OW 2083   2.594   2.496   2.926
 2022SOL    HW1 2084   2.653   2.470   2.850
 2022SOL    HW2 2085   2.566   2.592   2.915
 2024SOL     OW 2086   2.169   1.925   2.480
 2024SOL    HW1 2087   2.158   2.019   2.513
 2024SOL    HW2 2088   2.164   1.862   2.557
 2025SOL     OW 2089   3.484   2.229   2.236
 2025SOL    HW1 2090   3.486   2.153   2.300
 2025SOL    HW2 2091   3.436   2.306   2.276
 2026SOL     OW 2092   2.885   2.628   2.828
 2026SOL    HW1 2093   2.900   2.649   2.924
 2026SOL    HW2 2094   2.855   2.533   2.819
 2029SOL     OW 2095   2.212   2.760   3.666
 2029SOL    HW1 2096   2.288   2.804   3.714
 2029SOL    HW2 2097   2.247   2.713   3.584
 2030SOL     OW 2098   3.402   2.136   1.987
 2030SOL    HW1 2099   3.341   2.061   2.010
 2030SOL    HW2 2100   3.424   2.188   2.070
 2031SOL     OW 2101   3.165   2.700   1.904
 2031SOL    HW1 2102   3.199   2.607   1.919
 2031SOL    HW2 2103   3.183   2.727   1.809
 2032SOL     OW 2104   2.930   3.195   2.711
 2032SOL    HW1 2105   2.937   3.111   2.656
 2032SOL    HW2 2106   2.992   3.264   2.675
 2033SOL     OW 2107   2.181   2.672   2.811
 2033SOL    HW1 2108   2.274   2.708   2.816
 2033SOL    HW2 2109   2.175   2.587   2.863
 2034SOL     OW 2110   2.201   2.371   2.868
 2034SOL    HW1 2111   2.149   2.288   2.851
 2034SOL    HW2 2112   2.278   2.376   2.804
 2035SOL     OW 2113   3.000   2.242   3.540
 2035SOL    HW1 2114   2.955   2.305   3.604
 2035SOL    HW2 2115   3.093   2.273   3.523
 2036SOL     OW 2116   3.022   2.069   3.339
 2036SOL    HW1 2117   3.022   2.133   3.416
 2036SOL    HW2 2118   3.050   2.117   3.256
 2037SOL     OW 2119   1.870   3.188   2.062
 2037SOL    HW1 2120   1.777   3.209   2.031
 2037SOL    HW2 2121   1.880   3.089   2.075
 2038SOL     OW 2122   1.950   3.663   2.789
 2038SOL    HW1 2123   1.908   3.577   2.762
 2038SOL    HW2 2124   2.044   3.666   2.755
 2039SOL     OW 2125   2.366   3.430   2.772
 2039SOL    HW1 2126   2.432   3.504   2.781
 2039SOL    HW2 2127   2.410   3.351   2.730
 2040SOL     OW 2128   2.864   2.658   3.100
 2040SOL    HW1 2129   2.905   2.626   3.186
 2040SOL    HW2 2130   2.768   2.631   3.097
 2041SOL     OW 2131   1.902   2.406   2.976
 2041SOL    HW1 2132   1.987   2.373   2.935
 2041SOL    HW2 2133   1.915   2.421   3.074
 2042SOL     OW 2134   2.051   2.382   3.584
 2042SOL    HW1 2135   2.110   2.342   3.514
 2042SOL    HW2 2136   1.993   2.453   3.543
 2043SOL     OW 2137   3.231   2.812   3.522
 2043SOL    HW1 2138   3.270   2.901   3.542
 2043SOL    HW2 2139   3.241   2.792   3.425
 2044SOL     OW 2140   2.677   2.434   2.187
 2044SOL    HW1 2141   2.684   2.345   2.141
 2044SOL    HW2 2142   2.583   2.468   2.179
 2045SOL     OW 2143   3.519   2.466   3.068
 2045SOL    HW1 2144   3.481   2.397   3.130
 2045SOL    HW2 2145   3.601   2.430   3.024
 2047SOL     OW 2146   2.533   2.326   3.131
 2047SOL    HW1 2147   2.499   2.237   3.101
 2047SOL    HW2 2148   2.559   2.380   3.051
 2049SOL     OW 2149   2.335   2.362   2.053
 2049SOL    HW1 2150   2.396   2.442   2.057
 2049SOL    HW2 2151   2.240   2.393   2.060
 2050SOL     OW 2152   2.021   2.999   3.328
 2050SOL    HW1 2153   2.043   2.938   3.404
 2050SOL    HW2 2154   2.031   2.950   3.242
 2051SOL     OW 2155   3.209   2.921   3.096
 2051SOL    HW1 2156   3.233   2.858   3.022
 2051SOL    HW2 2157   3.119   2.961   3.078
 2052SOL     OW 2158   3.164   2.717   2.171
 2052SOL    HW1 2159   3.078   2.686   2.213
 2052SOL    HW2 2160   3.160   2.703   2.072
 2055SOL     OW 2161   1.945   3.120   2.884
 2055SOL    HW1 2162   1.940   3.119   2.984
 2055SOL    HW2 2163   1.862   3.079   2.846
 2057SOL     OW 2164   3.588   1.997   2.385
 2057SOL    HW1 2165   3.661   1.980   2.318
 2057SOL    HW2 2166   3.557   1.910   2.423
 2058SOL     OW 2167   3.250   3.435   2.339
 2058SOL    HW1 2168   3.317   3.447   2.265
 2058SOL    HW2 2169   3.210   3.524   2.362
 2060SOL     OW 2170   3.142   2.789   2.534
 2060SOL    HW1 2171   3.202   2.708   2.536
 2060SOL    HW2 2172   3.182   2.858   2.474
 2061SOL     OW 2173   2.692   3.135   3.284
 2061SOL    HW1 2174   2.687   3.168   3.379
 2061SOL    HW2 2175   2.606   3.154   3.238
 2062SOL     OW 2176   2.534   3.478   2.016
 2062SOL    HW1 2177   2.543   3.488   1.917
 2062SOL    HW2 2178   2.494   3.389   2.037
 2064SOL     OW 2179   3.703   2.037   2.825
 2064SOL    HW1 2180   3.742   1.952   2.789
 2064SOL    HW2 2181   3.605   2.039   2.806
 2065SOL     OW 2182   2.125   2.188   2.582
 2065SOL    HW1 2183   2.046   2.239   2.548
 2065SOL    HW2 2184   2.116   2.173   2.680
 2066SOL     OW 2185   3.056   3.474   1.893
 2066SOL    HW1 2186   3.062   3.381   1.930
 2066SOL    HW2 2187   2.997   3.474   1.813
 2067SOL     OW 2188   2.684   2.864   3.234
 2067SOL    HW1 2189   2.724   2.863   3.142
 2067SOL    HW2 2190   2.694   2.956   3.274
 2068SOL     OW 2191   2.778   2.772   2.153
 2068SOL    HW1 2192   2.841   2.810   2.085
 2068SOL    HW2 2193   2.818   2.689   2.192
 2069SOL     OW 2194   3.366   3.469   1.906
 2069SOL    HW1 2195   3.274   3.506   1.913
 2069SOL    HW2 2196   3.404   3.489   1.816
 2070SOL     OW 2197   2.234   3.150   3.352
 2070SOL    HW1 2198   2.221   3.243   3.318
 2070SOL    HW2 2199   2.150   3.098   3.339
 2072SOL     OW 2200   2.901   2.960   2.558
 2072SOL    HW1 2201   2.831   2.913   2.612
 2072SOL    HW2 2202   2.960   2.892   2.515
 2073SOL     OW 2203   2.876   2.098   2.833
 2073SOL    HW1 2204   2.868   2.062   2.740
 2073SOL    HW2 2205   2.874   2.022   2.898
 2074SOL     OW 2206   2.452   3.349   2.353
 2074SOL    HW1 2207   2.494   3.291   2.283
 2074SOL    HW2 2208   2.408   3.428   2.309
 2075SOL     OW 2209   3.571   2.247   3.243
 2075SOL    HW1 2210   3.644   2.316   3.247
 2075SOL    HW2 2211   3.599   2.172   3.184
 2076SOL     OW 2212   2.117   3.210   2.152
 2076SOL    HW1 2213   2.021   3.211   2.125
 2076SOL    HW2 2214   2.129   3.263   2.236
 2077SOL     OW 2215   1.967   2.875   3.588
 2077SOL    HW1 2216   1.890   2.842   3.642
 2077SOL    HW2 2217   2.052   2.845   3.630
 2078SOL     OW 2218   2.534   2.065   3.351
 2078SOL    HW1 2219   2.624   2.049   3.311
 2078SOL    HW2 2220   2.542   2.070   3.450
 2079SOL     OW 2221   1.937   2.207   1.895
 2079SOL    HW1 2222   1.845   2.179   1.866
 2079SOL    HW2 2223   1.968   2.284   1.839
 2080SOL     OW 2224   3.302   2.718   3.260
 2080SOL    HW1 2225   3.245   2.770   3.197
 2080SOL    HW2 2226   3.398   2.730   3.236
 2081SOL     OW 2227   3.045   3.197   1.981
 2081SOL    HW1 2228   2.946   3.186   1.983
 2081SOL    HW2 2229   3.079   3.212   2.074
 2082SOL     OW 2230   2.475   2.704   3.293
 2082SOL    HW1 2231   2.531   2.785   3.276
 2082SOL    HW2 2232   2.534   2.624   3.296
 2084SOL     OW 2233   2.578   2.427   3.570
 2084SOL    HW1 2234   2.597   2.492   3.644
 2084SOL    HW2 2235   2.638   2.347   3.579
 2087SOL     OW 2236   3.536   2.745   3.116
 2087SOL    HW1 2237   3.509   2.656   3.079
 2087SOL    HW2 2238   3.537   2.813   3.043
 2088SOL     OW 2239   3.087   2.187   2.311
 2088SOL    HW1 2240   3.152   2.113   2.300
 2088SOL    HW2 2241   3.107   2.237   2.395
 2089SOL     OW 2242   2.456   2.607   2.514
 2089SOL    HW1 2243   2.506   2.692   2.495
 2089SOL    HW2 2244   2.368   2.609   2.466
 2092SOL     OW 2245   2.721   3.236   1.878
 2092SOL    HW1 2246   2.675   3.251   1.966
 2092SOL    HW2 2247   2.765   3.321   1.848
 2093SOL     OW 2248   2.523   3.652   2.815
 2093SOL    HW1 2249   2.477   3.740   2.802
 2093SOL    HW2 2250   2.622   3.664   2.808
 2094SOL     OW 2251   2.721   2.818   2.723
 2094SOL    HW1 2252   2.775   2.749   2.771
 2094SOL    HW2 2253   2.689   2.887   2.789
 2095SOL     OW 2254   2.945   2.846   1.949
 2095SOL    HW1 2255   2.922   2.899   1.867
 2095SOL    HW2 2256   3.026   2.790   1.930
 2097SOL     OW 2257   2.083   3.176   3.706
 2097SOL    HW1 2258   2.018   3.103   3.685
 2097SOL    HW2 2259   2.087   3.190   3.804
 2098SOL     OW 2260   1.941   3.102   2.515
 2098SOL    HW1 2261   1.940   3.055   2.603
 2098SOL    HW2 2262   2.023   3.074   2.464
 2099SOL     OW 2263   2.534   3.253   3.486
 2099SOL    HW1 2264   2.456   3.203   3.524
 2099SOL    HW2 2265   2.531   3.348   3.517
 2100SOL     OW 2266   3.686   2.054   3.089
 2100SOL    HW1 2267   3.682   1.964   3.133
 2100SOL    HW2 2268   3.689   2.043   2.990
 2102SOL     OW 2269   2.179   2.409   3.142
 2102SOL    HW1 2270   2.217   2.350   3.214
 2102SOL    HW2 2271   2.219   2.383   3.054
 2103SOL     OW 2272   2.674   3.448   2.549
 2103SOL    HW1 2273   2.706   3.458   2.455
 2103SOL    HW2 2274   2.595   3.386   2.551
 2104SOL     OW 2275   3.286   2.076   2.974
 2104SOL    HW1 2276   3.338   2.011   3.029
 2104SOL    HW2 2277   3.237   2.139   3.035
 2105SOL     OW 2278   2.863   1.896   3.016
 2105SOL    HW1 2279   2.800   1.824   2.985
 2105SOL    HW2 2280   2.956   1.860   3.016
 2106SOL     OW 2281   2.632   3.192   2.163
 2106SOL    HW1 2282   2.586   3.105   2.180
 2106SOL    HW2 2283   2.723   3.189   2.204
 2107SOL     OW 2284   2.480   3.429   3.146
 2107SOL    HW1 2285   2.475   3.511   3.203
 2107SOL    HW2 2286   2.569   3.426   3.101
 2108SOL     OW 2287   3.214   1.914   2.030
 2108SOL    HW1 2288   3.249   1.873   1.946
 2108SOL    HW2 2289   3.124   1.876   2.050
 2109SOL     OW 2290   3.162   2.315   2.553
 2109SOL    HW1 2291   3.103   2.395   2.557
 2109SOL    HW2 2292   3.177   2.280   2.646
 2110SOL     OW 2293   3.455   2.083   2.744
 2110SOL    HW1 2294   3.371   2.082   2.798
 2110SOL    HW2 2295   3.457   2.166   2.688
 2111SOL     OW 2296   1.901   2.939   2.162
 2111SOL    HW1 2297   2.000   2.928   2.153
 2111SOL    HW2 2298   1.861   2.853   2.194
 2112SOL     OW 2299   2.737   3.508   2.199
 2112SOL    HW1 2300   2.660   3.473   2.145
 2112SOL    HW2 2301   2.705   3.579   2.261
 2113SOL     OW 2302   2.092   2.490   3.837
 2113SOL    HW1 2303   1.999   2.488   3.874
 2113SOL    HW2 2304   2.093   2.451   3.745
 2117SOL     OW 2305   2.468   2.826   3.847
 2117SOL    HW1 2306   2.475   2.910   3.793
 2117SOL    HW2 2307   2.514   2.839   3.935
 2131SOL     OW 2308   2.727   2.210   3.919
 2131SOL    HW1 2309   2.786   2.273   3.870
 2131SOL    HW2 2310   2.746   2.116   3.890
 2141SOL     OW 2311   2.476   1.984   3.841
 2141SOL    HW1 2312   2.574   1.962   3.848
 2141SOL    HW2 2313   2.445   1.967   3.748
 2144SOL     OW 2314   2.159   1.897   3.895
 2144SOL    HW1 2315   2.208   1.981   3.874
 2144SOL    HW2 2316   2.221   1.832   3.940
 2148SOL     OW 2317   2.894   2.411   3.740
 2148SOL    HW1 2318   2.853   2.493   3.701
 2148SOL    HW2 2319   2.958   2.437   3.813
 2165SOL     OW 2320   2.335   2.362   3.915
 2165SOL    HW1 2321   2.396   2.442   3.919
 2165SOL    HW2 2322   2.240   2.393   3.922
 2176SOL     OW 2323   1.937   2.207   3.757
 2176SOL    HW1 2324   1.845   2.179   3.728
 2176SOL    HW2 2325   1.968   2.284   3.701
 2230SOL     OW 2326   2.366   3.774   1.740
 2230SOL    HW1 2327   2.324   3.717   1.670
 2230SOL    HW2 2328   2.300   3.843   1.772
 2274SOL     OW 2329   2.671   3.728   2.364
 2274SOL    HW1 2330   2.711   3.819   2.355
 2274SOL    HW2 2331   2.571   3.736   2.370
 2288SOL     OW 2332   2.476   3.846   1.979
 2288SOL    HW1 2333   2.574   3.824   1.986
 2288SOL    HW2 2334   2.445   3.829   1.886
 2292SOL     OW 2335   2.401   3.788   2.374
 2292SOL    HW1 2336   2.320   3.789   2.432
 2292SOL    HW2 2337   2.404   3.871   2.319
 2293SOL     OW 2338   2.159   3.759   2.033
 2293SOL    HW1 2339   2.208   3.843   2.012
 2293SOL    HW2 2340   2.221   3.694   2.078
 2300SOL     OW 2341   2.879   3.763   2.615
 2300SOL    HW1 2342   2.807   3.768   2.546
 2300SOL    HW2 2343   2.855   3.694   2.684
 2302SOL     OW 2344   2.389   3.980   2.190
 2302SOL    HW1 2345   2.416   3.921   2.115
 2302SOL    HW2 2346   2.389   4.075   2.159
 2312SOL     OW 2347   2.169   3.787   2.480
 2312SOL    HW1 2348   2.158   3.881   2.513
 2312SOL    HW2 2349   2.164   3.724   2.557
 2332SOL     OW 2350   1.934   3.890   2.180
 2332SOL    HW1 2351   1.917   3.973   2.126
 2332SOL    HW2 2352   2.024   3.853   2.158
 2435SOL     OW 2353   3.854   1.794   1.851
 2435SOL    HW1 2354   3.813   1.720   1.904
 2435SOL    HW2 2355   3.918   1.845   1.909
 2463SOL     OW 2356   3.751   1.596   1.979
 2463SOL    HW1 2357   3.732   1.500   2.000
 2463SOL    HW2 2358   3.718   1.654   2.054
 2503SOL     OW 2359   3.732   1.326   2.062
 2503SOL    HW1 2360   3.639   1.347   2.031
 2503SOL    HW2 2361   3.742   1.227   2.075
 2504SOL     OW 2362   3.812   1.801   2.789
 2504SOL    HW1 2363   3.770   1.715   2.762
 2504SOL    HW2 2364   3.906   1.804   2.755
 2575SOL     OW 2365   3.837   2.599   1.597
 2575SOL    HW1 2366   3.925   2.586   1.642
 2575SOL    HW2 2367   3.824   2.696   1.575
 2618SOL     OW 2368   3.913   2.382   1.722
 2618SOL    HW1 2369   3.972   2.342   1.652
 2618SOL    HW2 2370   3.855   2.453   1.681
 2642SOL     OW 2371   3.954   2.490   1.975
 2642SOL    HW1 2372   3.861   2.488   2.012
 2642SOL    HW2 2373   3.955   2.451   1.883
 2644SOL     OW 2374   3.743   2.230   2.509
 2644SOL    HW1 2375   3.661   2.273   2.548
 2644SOL    HW2 2376   3.715   2.157   2.446
 2652SOL     OW 2377   3.846   2.505   2.425
 2652SOL    HW1 2378   3.801   2.417   2.442
 2652SOL    HW2 2379   3.845   2.559   2.509
 2660SOL     OW 2380   3.800   2.673   2.651
 2660SOL    HW1 2381   3.899   2.661   2.660
 2660SOL    HW2 2382   3.776   2.768   2.672
 2697SOL     OW 2383   3.764   2.406   2.976
 2697SOL    HW1 2384   3.849   2.373   2.935
 2697SOL    HW2 2385   3.777   2.421   3.074
 2712SOL     OW 2386   3.799   2.207   1.895
 2712SOL    HW1 2387   3.707   2.179   1.866
 2712SOL    HW2 2388   3.830   2.284   1.839
 2713SOL     OW 2389   3.796   2.028   2.180
 2713SOL    HW1 2390   3.779   2.111   2.126
 2713SOL    HW2 2391   3.886   1.991   2.158
 2722SOL     OW 2392   3.763   2.939   2.162
 2722SOL    HW1 2393   3.862   2.928   2.153
 2722SOL    HW2 2394   3.723   2.853   2.194
   4.42133   4.42133   4.42133
