mobley_1469079_GMX.gro created by acpype (v: 2023.10.27) on Tue May 19 12:31:08 2026
 2398
    1MOL     C1    1   2.714   2.796   2.468
    1MOL     C2    2   2.800   2.696   2.421
    1MOL     C3    3   2.585   2.764   2.510
    1MOL     C4    4   2.756   2.564   2.415
    1MOL     C5    5   2.247   2.440   2.581
    1MOL     C6    6   2.418   2.240   2.486
    1MOL     C7    7   2.542   2.631   2.504
    1MOL     C8    8   2.627   2.531   2.457
    1MOL     C9    9   2.376   2.472   2.539
    1MOL    C10   10   2.461   2.373   2.492
    1MOL    C11   11   2.204   2.307   2.576
    1MOL    C12   12   2.289   2.208   2.528
    1MOL     O1   13   2.414   2.604   2.547
    1MOL     O2   14   2.589   2.400   2.450
    1MOL    CL1   15   2.043   2.273   2.629
    1MOL    CL2   16   2.241   2.042   2.519
    1MOL     H1   17   2.748   2.899   2.472
    1MOL     H2   18   2.900   2.722   2.388
    1MOL     H3   19   2.519   2.842   2.547
    1MOL     H4   20   2.823   2.487   2.378
    1MOL     H5   21   2.181   2.518   2.618
    1MOL     H6   22   2.486   2.163   2.449
   35SOL     OW   23   1.187   1.792   1.616
   35SOL    HW1   24   1.211   1.852   1.540
   35SOL    HW2   25   1.194   1.697   1.586
   95SOL     OW   26   1.754   1.223   1.588
   95SOL    HW1   27   1.845   1.184   1.575
   95SOL    HW2   28   1.762   1.319   1.612
   97SOL     OW   29   1.592   1.629   1.625
   97SOL    HW1   30   1.619   1.663   1.535
   97SOL    HW2   31   1.671   1.591   1.671
  127SOL     OW   32   1.859   1.518   1.605
  127SOL    HW1   33   1.873   1.545   1.510
  127SOL    HW2   34   1.942   1.540   1.658
  152SOL     OW   35   1.759   1.747   1.154
  152SOL    HW1   36   1.820   1.777   1.081
  152SOL    HW2   37   1.721   1.658   1.132
  163SOL     OW   38   1.650   1.720   1.394
  163SOL    HW1   39   1.703   1.730   1.310
  163SOL    HW2   40   1.623   1.810   1.428
  219SOL     OW   41   1.555   1.511   2.565
  219SOL    HW1   42   1.498   1.495   2.646
  219SOL    HW2   43   1.496   1.521   2.485
  227SOL     OW   44   1.460   1.505   3.201
  227SOL    HW1   45   1.484   1.599   3.227
  227SOL    HW2   46   1.444   1.451   3.283
  238SOL     OW   47   1.842   1.767   2.221
  238SOL    HW1   48   1.896   1.738   2.301
  238SOL    HW2   49   1.872   1.857   2.192
  240SOL     OW   50   1.689   0.922   2.474
  240SOL    HW1   51   1.784   0.893   2.482
  240SOL    HW2   52   1.681   0.987   2.399
  241SOL     OW   53   1.641   1.108   2.294
  241SOL    HW1   54   1.727   1.110   2.242
  241SOL    HW2   55   1.655   1.155   2.382
  248SOL     OW   56   1.187   1.792   3.478
  248SOL    HW1   57   1.211   1.852   3.402
  248SOL    HW2   58   1.194   1.697   3.448
  250SOL     OW   59   1.466   1.417   2.815
  250SOL    HW1   60   1.407   1.423   2.895
  250SOL    HW2   61   1.451   1.329   2.769
  251SOL     OW   62   1.667   1.714   2.434
  251SOL    HW1   63   1.626   1.691   2.346
  251SOL    HW2   64   1.649   1.640   2.499
  254SOL     OW   65   1.576   1.662   2.169
  254SOL    HW1   66   1.665   1.708   2.172
  254SOL    HW2   67   1.555   1.638   2.074
  264SOL     OW   68   1.362   1.144   2.407
  264SOL    HW1   69   1.445   1.115   2.359
  264SOL    HW2   70   1.313   1.211   2.351
  268SOL     OW   71   1.795   1.066   2.735
  268SOL    HW1   72   1.733   1.051   2.659
  268SOL    HW2   73   1.743   1.077   2.820
  273SOL     OW   74   1.111   1.776   2.099
  273SOL    HW1   75   1.051   1.714   2.149
  273SOL    HW2   76   1.142   1.732   2.014
  275SOL     OW   77   1.632   1.377   1.943
  275SOL    HW1   78   1.600   1.471   1.933
  275SOL    HW2   79   1.556   1.314   1.931
  279SOL     OW   80   0.940   1.698   2.766
  279SOL    HW1   81   1.020   1.641   2.787
  279SOL    HW2   82   0.891   1.658   2.689
  289SOL     OW   83   1.434   1.188   1.903
  289SOL    HW1   84   1.466   1.112   1.960
  289SOL    HW2   85   1.342   1.215   1.933
  293SOL     OW   86   1.227   1.570   2.655
  293SOL    HW1   87   1.248   1.644   2.590
  293SOL    HW2   88   1.295   1.570   2.728
  295SOL     OW   89   1.271   1.797   2.453
  295SOL    HW1   90   1.315   1.861   2.389
  295SOL    HW2   91   1.221   1.849   2.523
  301SOL     OW   92   1.429   1.173   2.729
  301SOL    HW1   93   1.374   1.089   2.722
  301SOL    HW2   94   1.455   1.202   2.637
  305SOL     OW   95   1.664   1.280   2.519
  305SOL    HW1   96   1.763   1.288   2.533
  305SOL    HW2   97   1.619   1.364   2.550
  308SOL     OW   98   1.754   1.223   3.450
  308SOL    HW1   99   1.845   1.184   3.437
  308SOL    HW2  100   1.762   1.319   3.474
  310SOL     OW  101   1.592   1.629   3.487
  310SOL    HW1  102   1.619   1.663   3.397
  310SOL    HW2  103   1.671   1.591   3.533
  312SOL     OW  104   1.638   1.099   2.941
  312SOL    HW1  105   1.643   1.180   3.000
  312SOL    HW2  106   1.552   1.101   2.890
  321SOL     OW  107   1.252   1.348   2.250
  321SOL    HW1  108   1.302   1.425   2.290
  321SOL    HW2  109   1.157   1.350   2.282
  322SOL     OW  110   1.272   1.445   3.004
  322SOL    HW1  111   1.319   1.458   3.091
  322SOL    HW2  112   1.206   1.371   3.013
  340SOL     OW  113   1.859   1.518   3.467
  340SOL    HW1  114   1.873   1.545   3.372
  340SOL    HW2  115   1.942   1.540   3.520
  365SOL     OW  116   1.759   1.747   3.016
  365SOL    HW1  117   1.820   1.777   2.943
  365SOL    HW2  118   1.721   1.658   2.994
  366SOL     OW  119   1.252   1.731   2.990
  366SOL    HW1  120   1.336   1.736   2.936
  366SOL    HW2  121   1.229   1.635   3.008
  370SOL     OW  122   1.388   1.573   2.339
  370SOL    HW1  123   1.455   1.585   2.265
  370SOL    HW2  124   1.348   1.662   2.362
  375SOL     OW  125   1.650   1.720   3.256
  375SOL    HW1  126   1.703   1.730   3.172
  375SOL    HW2  127   1.623   1.810   3.290
  378SOL     OW  128   1.194   1.612   1.893
  378SOL    HW1  129   1.200   1.519   1.930
  378SOL    HW2  130   1.135   1.612   1.813
  381SOL     OW  131   1.504   1.607   1.906
  381SOL    HW1  132   1.412   1.644   1.913
  381SOL    HW2  133   1.542   1.627   1.816
  383SOL     OW  134   1.614   1.292   3.151
  383SOL    HW1  135   1.674   1.295   3.231
  383SOL    HW2  136   1.539   1.356   3.164
  396SOL     OW  137   1.493   1.767   2.821
  396SOL    HW1  138   1.526   1.831   2.752
  396SOL    HW2  139   1.559   1.761   2.896
  409SOL     OW  140   1.861   1.569   2.713
  409SOL    HW1  141   1.790   1.557   2.643
  409SOL    HW2  142   1.862   1.490   2.773
  415SOL     OW  143   1.705   1.487   2.966
  415SOL    HW1  144   1.612   1.462   2.939
  415SOL    HW2  145   1.731   1.437   3.048
  579SOL     OW  146   0.850   2.660   1.823
  579SOL    HW1  147   0.846   2.736   1.888
  579SOL    HW2  148   0.872   2.696   1.732
  583SOL     OW  149   1.460   3.367   1.339
  583SOL    HW1  150   1.484   3.461   1.365
  583SOL    HW2  151   1.444   3.313   1.421
  587SOL     OW  152   1.127   3.203   1.690
  587SOL    HW1  153   1.174   3.203   1.778
  587SOL    HW2  154   1.079   3.116   1.679
  592SOL     OW  155   1.594   1.976   1.480
  592SOL    HW1  156   1.576   2.043   1.408
  592SOL    HW2  157   1.591   2.022   1.569
  600SOL     OW  158   1.293   3.090   1.423
  600SOL    HW1  159   1.330   3.017   1.365
  600SOL    HW2  160   1.345   3.095   1.508
  612SOL     OW  161   1.394   2.331   1.674
  612SOL    HW1  162   1.374   2.374   1.762
  612SOL    HW2  163   1.472   2.269   1.683
  619SOL     OW  164   1.719   2.447   1.831
  619SOL    HW1  165   1.693   2.536   1.795
  619SOL    HW2  166   1.717   2.379   1.758
  637SOL     OW  167   1.547   2.084   1.729
  637SOL    HW1  168   1.542   2.121   1.821
  637SOL    HW2  169   1.475   2.015   1.717
  641SOL     OW  170   1.351   2.452   1.433
  641SOL    HW1  171   1.379   2.409   1.518
  641SOL    HW2  172   1.376   2.548   1.434
  648SOL     OW  173   1.076   2.545   1.464
  648SOL    HW1  174   0.996   2.484   1.467
  648SOL    HW2  175   1.157   2.492   1.440
  664SOL     OW  176   1.754   3.085   1.588
  664SOL    HW1  177   1.845   3.046   1.575
  664SOL    HW2  178   1.762   3.181   1.612
  666SOL     OW  179   1.592   3.491   1.625
  666SOL    HW1  180   1.619   3.525   1.535
  666SOL    HW2  181   1.671   3.453   1.671
  668SOL     OW  182   1.638   2.961   1.079
  668SOL    HW1  183   1.643   3.042   1.138
  668SOL    HW2  184   1.552   2.963   1.028
  670SOL     OW  185   0.980   2.978   1.719
  670SOL    HW1  186   0.881   2.984   1.729
  670SOL    HW2  187   1.003   2.898   1.663
  673SOL     OW  188   1.274   2.248   1.262
  673SOL    HW1  189   1.295   2.322   1.326
  673SOL    HW2  190   1.185   2.265   1.219
  682SOL     OW  191   1.587   2.641   1.670
  682SOL    HW1  192   1.495   2.679   1.665
  682SOL    HW2  193   1.647   2.688   1.605
  683SOL     OW  194   1.013   1.967   1.770
  683SOL    HW1  195   1.019   2.052   1.718
  683SOL    HW2  196   1.045   1.891   1.713
  691SOL     OW  197   1.728   2.797   1.854
  691SOL    HW1  198   1.682   2.790   1.765
  691SOL    HW2  199   1.666   2.841   1.920
  696SOL     OW  200   1.859   3.380   1.605
  696SOL    HW1  201   1.873   3.407   1.510
  696SOL    HW2  202   1.942   3.402   1.658
  703SOL     OW  203   1.138   2.242   1.678
  703SOL    HW1  204   1.093   2.305   1.742
  703SOL    HW2  205   1.231   2.273   1.661
  704SOL     OW  206   1.160   2.069   1.477
  704SOL    HW1  207   1.160   2.133   1.554
  704SOL    HW2  208   1.188   2.117   1.394
  711SOL     OW  209   1.369   2.812   1.660
  711SOL    HW1  210   1.408   2.901   1.680
  711SOL    HW2  211   1.379   2.792   1.563
  713SOL     OW  212   1.657   2.466   1.206
  713SOL    HW1  213   1.619   2.397   1.268
  713SOL    HW2  214   1.739   2.430   1.162
  719SOL     OW  215   1.347   2.921   1.234
  719SOL    HW1  216   1.371   2.858   1.160
  719SOL    HW2  217   1.257   2.961   1.216
  732SOL     OW  218   1.650   3.582   1.394
  732SOL    HW1  219   1.703   3.592   1.310
  732SOL    HW2  220   1.623   3.672   1.428
  733SOL     OW  221   1.841   2.037   0.963
  733SOL    HW1  222   1.880   1.952   0.927
  733SOL    HW2  223   1.743   2.039   0.944
  740SOL     OW  224   1.614   3.154   1.289
  740SOL    HW1  225   1.674   3.157   1.369
  740SOL    HW2  226   1.539   3.218   1.302
  744SOL     OW  227   1.709   2.247   1.381
  744SOL    HW1  228   1.782   2.316   1.385
  744SOL    HW2  229   1.737   2.172   1.322
  749SOL     OW  230   1.440   2.718   1.398
  749SOL    HW1  231   1.383   2.770   1.335
  749SOL    HW2  232   1.536   2.730   1.374
  755SOL     OW  233   1.450   3.082   1.633
  755SOL    HW1  234   1.441   3.072   1.732
  755SOL    HW2  235   1.546   3.075   1.607
  757SOL     OW  236   1.674   2.745   1.254
  757SOL    HW1  237   1.647   2.656   1.217
  757SOL    HW2  238   1.675   2.813   1.181
  760SOL     OW  239   1.777   2.204   1.642
  760SOL    HW1  240   1.760   2.235   1.548
  760SOL    HW2  241   1.693   2.167   1.680
  761SOL     OW  242   1.730   2.796   1.517
  761SOL    HW1  243   1.768   2.887   1.532
  761SOL    HW2  244   1.722   2.779   1.418
  770SOL     OW  245   1.824   2.054   1.227
  770SOL    HW1  246   1.820   1.964   1.271
  770SOL    HW2  247   1.827   2.043   1.128
  788SOL     OW  248   1.555   3.373   2.565
  788SOL    HW1  249   1.498   3.357   2.646
  788SOL    HW2  250   1.496   3.383   2.485
  789SOL     OW  251   1.135   2.565   2.579
  789SOL    HW1  252   1.192   2.643   2.554
  789SOL    HW2  253   1.075   2.591   2.655
  790SOL     OW  254   1.755   2.469   2.093
  790SOL    HW1  255   1.743   2.456   1.994
  790SOL    HW2  256   1.725   2.388   2.142
  796SOL     OW  257   1.460   3.367   3.201
  796SOL    HW1  258   1.484   3.461   3.227
  796SOL    HW2  259   1.444   3.313   3.283
  798SOL     OW  260   1.603   2.309   2.599
  798SOL    HW1  261   1.529   2.355   2.549
  798SOL    HW2  262   1.654   2.377   2.652
  805SOL     OW  263   1.594   1.976   3.342
  805SOL    HW1  264   1.576   2.043   3.270
  805SOL    HW2  265   1.591   2.022   3.431
  807SOL     OW  266   1.842   3.629   2.221
  807SOL    HW1  267   1.896   3.600   2.301
  807SOL    HW2  268   1.872   3.719   2.192
  809SOL     OW  269   1.689   2.784   2.474
  809SOL    HW1  270   1.784   2.755   2.482
  809SOL    HW2  271   1.681   2.849   2.399
  810SOL     OW  272   1.641   2.970   2.294
  810SOL    HW1  273   1.727   2.972   2.242
  810SOL    HW2  274   1.655   3.017   2.382
  813SOL     OW  275   1.293   3.090   3.285
  813SOL    HW1  276   1.330   3.017   3.227
  813SOL    HW2  277   1.345   3.095   3.370
  816SOL     OW  278   1.525   2.861   2.052
  816SOL    HW1  279   1.462   2.785   2.065
  816SOL    HW2  280   1.573   2.879   2.138
  819SOL     OW  281   1.466   3.279   2.815
  819SOL    HW1  282   1.407   3.285   2.895
  819SOL    HW2  283   1.451   3.191   2.769
  820SOL     OW  284   1.667   3.576   2.434
  820SOL    HW1  285   1.626   3.553   2.346
  820SOL    HW2  286   1.649   3.502   2.499
  822SOL     OW  287   1.281   2.207   2.806
  822SOL    HW1  288   1.195   2.157   2.793
  822SOL    HW2  289   1.343   2.153   2.862
  823SOL     OW  290   1.576   3.524   2.169
  823SOL    HW1  291   1.665   3.570   2.172
  823SOL    HW2  292   1.555   3.500   2.074
  825SOL     OW  293   1.394   2.331   3.536
  825SOL    HW1  294   1.374   2.374   3.624
  825SOL    HW2  295   1.472   2.269   3.545
  827SOL     OW  296   0.991   2.272   3.104
  827SOL    HW1  297   0.914   2.306   3.158
  827SOL    HW2  298   0.957   2.221   3.025
  828SOL     OW  299   1.041   2.563   2.291
  828SOL    HW1  300   1.067   2.559   2.387
  828SOL    HW2  301   0.956   2.512   2.277
  831SOL     OW  302   0.865   2.210   2.057
  831SOL    HW1  303   0.924   2.273   2.008
  831SOL    HW2  304   0.884   2.116   2.028
  832SOL     OW  305   1.719   2.447   3.693
  832SOL    HW1  306   1.693   2.536   3.657
  832SOL    HW2  307   1.717   2.379   3.620
  833SOL     OW  308   1.362   3.006   2.407
  833SOL    HW1  309   1.445   2.977   2.359
  833SOL    HW2  310   1.313   3.073   2.351
  835SOL     OW  311   1.008   3.318   2.339
  835SOL    HW1  312   0.962   3.390   2.287
  835SOL    HW2  313   1.004   3.338   2.437
  837SOL     OW  314   1.795   2.928   2.735
  837SOL    HW1  315   1.733   2.913   2.659
  837SOL    HW2  316   1.743   2.939   2.820
  838SOL     OW  317   1.227   3.412   3.368
  838SOL    HW1  318   1.233   3.335   3.432
  838SOL    HW2  319   1.175   3.386   3.288
  840SOL     OW  320   1.458   2.597   2.590
  840SOL    HW1  321   1.453   2.532   2.665
  840SOL    HW2  322   1.538   2.656   2.603
  844SOL     OW  323   1.632   3.239   1.943
  844SOL    HW1  324   1.600   3.333   1.933
  844SOL    HW2  325   1.556   3.176   1.931
  846SOL     OW  326   1.400   1.969   2.288
  846SOL    HW1  327   1.376   1.932   2.198
  846SOL    HW2  328   1.499   1.985   2.292
  850SOL     OW  329   1.547   2.084   3.591
  850SOL    HW1  330   1.542   2.121   3.683
  850SOL    HW2  331   1.475   2.015   3.579
  854SOL     OW  332   1.351   2.452   3.295
  854SOL    HW1  333   1.379   2.409   3.380
  854SOL    HW2  334   1.376   2.548   3.296
  856SOL     OW  335   0.922   2.365   2.761
  856SOL    HW1  336   0.897   2.356   2.665
  856SOL    HW2  337   0.970   2.283   2.792
  858SOL     OW  338   1.434   3.050   1.903
  858SOL    HW1  339   1.466   2.974   1.960
  858SOL    HW2  340   1.342   3.077   1.933
  860SOL     OW  341   0.935   2.098   2.342
  860SOL    HW1  342   0.887   2.139   2.264
  860SOL    HW2  343   1.034   2.096   2.323
  861SOL     OW  344   1.076   2.545   3.326
  861SOL    HW1  345   0.996   2.484   3.329
  861SOL    HW2  346   1.157   2.492   3.302
  862SOL     OW  347   1.227   3.432   2.655
  862SOL    HW1  348   1.248   3.506   2.590
  862SOL    HW2  349   1.295   3.432   2.728
  864SOL     OW  350   1.271   3.659   2.453
  864SOL    HW1  351   1.315   3.723   2.389
  864SOL    HW2  352   1.221   3.711   2.523
  865SOL     OW  353   1.032   2.411   1.878
  865SOL    HW1  354   0.991   2.493   1.839
  865SOL    HW2  355   1.096   2.437   1.951
  868SOL     OW  356   0.866   2.316   2.504
  868SOL    HW1  357   0.834   2.388   2.442
  868SOL    HW2  358   0.890   2.235   2.451
  869SOL     OW  359   1.017   1.901   2.615
  869SOL    HW1  360   0.945   1.906   2.546
  869SOL    HW2  361   0.993   1.832   2.684
  870SOL     OW  362   1.429   3.035   2.729
  870SOL    HW1  363   1.374   2.951   2.722
  870SOL    HW2  364   1.455   3.064   2.637
  871SOL     OW  365   1.466   2.452   2.854
  871SOL    HW1  366   1.436   2.357   2.861
  871SOL    HW2  367   1.539   2.468   2.920
  872SOL     OW  368   1.857   2.695   2.239
  872SOL    HW1  369   1.899   2.631   2.303
  872SOL    HW2  370   1.819   2.644   2.161
  874SOL     OW  371   1.664   3.142   2.519
  874SOL    HW1  372   1.763   3.150   2.533
  874SOL    HW2  373   1.619   3.226   2.550
  875SOL     OW  374   1.390   2.437   1.940
  875SOL    HW1  375   1.336   2.416   2.021
  875SOL    HW2  376   1.481   2.396   1.949
  877SOL     OW  377   1.754   3.085   3.450
  877SOL    HW1  378   1.845   3.046   3.437
  877SOL    HW2  379   1.762   3.181   3.474
  878SOL     OW  380   1.064   3.209   3.202
  878SOL    HW1  381   0.984   3.186   3.257
  878SOL    HW2  382   1.147   3.183   3.251
  879SOL     OW  383   1.592   3.491   3.487
  879SOL    HW1  384   1.619   3.525   3.397
  879SOL    HW2  385   1.671   3.453   3.533
  880SOL     OW  386   1.111   3.057   2.962
  880SOL    HW1  387   1.071   3.101   3.043
  880SOL    HW2  388   1.070   3.094   2.879
  881SOL     OW  389   1.638   2.961   2.941
  881SOL    HW1  390   1.643   3.042   3.000
  881SOL    HW2  391   1.552   2.963   2.890
  886SOL     OW  392   1.274   2.248   3.124
  886SOL    HW1  393   1.295   2.322   3.188
  886SOL    HW2  394   1.185   2.265   3.081
  890SOL     OW  395   1.252   3.210   2.250
  890SOL    HW1  396   1.302   3.287   2.290
  890SOL    HW2  397   1.157   3.212   2.282
  891SOL     OW  398   1.272   3.307   3.004
  891SOL    HW1  399   1.319   3.320   3.091
  891SOL    HW2  400   1.206   3.233   3.013
  892SOL     OW  401   1.582   2.501   2.334
  892SOL    HW1  402   1.551   2.562   2.407
  892SOL    HW2  403   1.632   2.553   2.265
  895SOL     OW  404   1.587   2.641   3.532
  895SOL    HW1  405   1.495   2.679   3.527
  895SOL    HW2  406   1.647   2.688   3.467
  899SOL     OW  407   1.360   2.724   2.907
  899SOL    HW1  408   1.285   2.724   2.841
  899SOL    HW2  409   1.397   2.632   2.916
  900SOL     OW  410   1.209   2.387   2.137
  900SOL    HW1  411   1.222   2.303   2.191
  900SOL    HW2  412   1.180   2.461   2.197
  904SOL     OW  413   1.728   2.797   3.716
  904SOL    HW1  414   1.682   2.790   3.627
  904SOL    HW2  415   1.666   2.841   3.782
  906SOL     OW  416   1.622   2.229   2.236
  906SOL    HW1  417   1.624   2.153   2.300
  906SOL    HW2  418   1.574   2.306   2.276
  907SOL     OW  419   1.023   2.628   2.828
  907SOL    HW1  420   1.038   2.649   2.924
  907SOL    HW2  421   0.993   2.533   2.819
  909SOL     OW  422   1.859   3.380   3.467
  909SOL    HW1  423   1.873   3.407   3.372
  909SOL    HW2  424   1.942   3.402   3.520
  911SOL     OW  425   1.540   2.136   1.987
  911SOL    HW1  426   1.479   2.061   2.010
  911SOL    HW2  427   1.562   2.188   2.070
  912SOL     OW  428   1.303   2.700   1.904
  912SOL    HW1  429   1.337   2.607   1.919
  912SOL    HW2  430   1.321   2.727   1.809
  913SOL     OW  431   1.068   3.195   2.711
  913SOL    HW1  432   1.075   3.111   2.656
  913SOL    HW2  433   1.130   3.264   2.675
  916SOL     OW  434   1.138   2.242   3.540
  916SOL    HW1  435   1.093   2.305   3.604
  916SOL    HW2  436   1.231   2.273   3.523
  917SOL     OW  437   1.160   2.069   3.339
  917SOL    HW1  438   1.160   2.133   3.416
  917SOL    HW2  439   1.188   2.117   3.256
  921SOL     OW  440   1.002   2.658   3.100
  921SOL    HW1  441   1.043   2.626   3.186
  921SOL    HW2  442   0.906   2.631   3.097
  924SOL     OW  443   1.369   2.812   3.522
  924SOL    HW1  444   1.408   2.901   3.542
  924SOL    HW2  445   1.379   2.792   3.425
  925SOL     OW  446   0.815   2.434   2.187
  925SOL    HW1  447   0.822   2.345   2.141
  925SOL    HW2  448   0.721   2.468   2.179
  926SOL     OW  449   1.657   2.466   3.068
  926SOL    HW1  450   1.619   2.397   3.130
  926SOL    HW2  451   1.739   2.430   3.024
  932SOL     OW  452   1.347   2.921   3.096
  932SOL    HW1  453   1.371   2.858   3.022
  932SOL    HW2  454   1.257   2.961   3.078
  933SOL     OW  455   1.302   2.717   2.171
  933SOL    HW1  456   1.216   2.686   2.213
  933SOL    HW2  457   1.298   2.703   2.072
  934SOL     OW  458   1.759   3.609   3.016
  934SOL    HW1  459   1.820   3.639   2.943
  934SOL    HW2  460   1.721   3.520   2.994
  935SOL     OW  461   1.252   3.593   2.990
  935SOL    HW1  462   1.336   3.598   2.936
  935SOL    HW2  463   1.229   3.497   3.008
  938SOL     OW  464   1.726   1.997   2.385
  938SOL    HW1  465   1.799   1.980   2.318
  938SOL    HW2  466   1.695   1.910   2.423
  939SOL     OW  467   1.388   3.435   2.339
  939SOL    HW1  468   1.455   3.447   2.265
  939SOL    HW2  469   1.348   3.524   2.362
  941SOL     OW  470   1.280   2.789   2.534
  941SOL    HW1  471   1.340   2.708   2.536
  941SOL    HW2  472   1.320   2.858   2.474
  944SOL     OW  473   1.650   3.582   3.256
  944SOL    HW1  474   1.703   3.592   3.172
  944SOL    HW2  475   1.623   3.672   3.290
  945SOL     OW  476   1.841   2.037   2.825
  945SOL    HW1  477   1.880   1.952   2.789
  945SOL    HW2  478   1.743   2.039   2.806
  947SOL     OW  479   1.194   3.474   1.893
  947SOL    HW1  480   1.200   3.381   1.930
  947SOL    HW2  481   1.135   3.474   1.813
  949SOL     OW  482   0.916   2.772   2.153
  949SOL    HW1  483   0.979   2.810   2.085
  949SOL    HW2  484   0.956   2.689   2.192
  950SOL     OW  485   1.504   3.469   1.906
  950SOL    HW1  486   1.412   3.506   1.913
  950SOL    HW2  487   1.542   3.489   1.816
  952SOL     OW  488   1.614   3.154   3.151
  952SOL    HW1  489   1.674   3.157   3.231
  952SOL    HW2  490   1.539   3.218   3.164
  953SOL     OW  491   1.039   2.960   2.558
  953SOL    HW1  492   0.969   2.913   2.612
  953SOL    HW2  493   1.098   2.892   2.515
  954SOL     OW  494   1.014   2.098   2.833
  954SOL    HW1  495   1.006   2.062   2.740
  954SOL    HW2  496   1.012   2.022   2.898
  956SOL     OW  497   1.709   2.247   3.243
  956SOL    HW1  498   1.782   2.316   3.247
  956SOL    HW2  499   1.737   2.172   3.184
  961SOL     OW  500   1.440   2.718   3.260
  961SOL    HW1  501   1.383   2.770   3.197
  961SOL    HW2  502   1.536   2.730   3.236
  963SOL     OW  503   1.183   3.197   1.981
  963SOL    HW1  504   1.084   3.186   1.983
  963SOL    HW2  505   1.217   3.212   2.074
  965SOL     OW  506   1.493   3.629   2.821
  965SOL    HW1  507   1.526   3.693   2.752
  965SOL    HW2  508   1.559   3.623   2.896
  967SOL     OW  509   1.450   3.082   3.495
  967SOL    HW1  510   1.441   3.072   3.594
  967SOL    HW2  511   1.546   3.075   3.469
  969SOL     OW  512   1.674   2.745   3.116
  969SOL    HW1  513   1.647   2.656   3.079
  969SOL    HW2  514   1.675   2.813   3.043
  970SOL     OW  515   1.225   2.187   2.311
  970SOL    HW1  516   1.290   2.113   2.300
  970SOL    HW2  517   1.245   2.237   2.395
  972SOL     OW  518   1.777   2.204   3.504
  972SOL    HW1  519   1.760   2.235   3.410
  972SOL    HW2  520   1.693   2.167   3.542
  973SOL     OW  521   1.730   2.796   3.379
  973SOL    HW1  522   1.768   2.887   3.394
  973SOL    HW2  523   1.722   2.779   3.280
  976SOL     OW  524   0.859   2.818   2.723
  976SOL    HW1  525   0.913   2.749   2.771
  976SOL    HW2  526   0.827   2.887   2.789
  977SOL     OW  527   1.083   2.846   1.949
  977SOL    HW1  528   1.060   2.899   1.867
  977SOL    HW2  529   1.164   2.790   1.930
  978SOL     OW  530   1.861   3.431   2.713
  978SOL    HW1  531   1.790   3.419   2.643
  978SOL    HW2  532   1.862   3.352   2.773
  982SOL     OW  533   1.824   2.054   3.089
  982SOL    HW1  534   1.820   1.964   3.133
  982SOL    HW2  535   1.827   2.043   2.990
  984SOL     OW  536   1.705   3.349   2.966
  984SOL    HW1  537   1.612   3.324   2.939
  984SOL    HW2  538   1.731   3.299   3.048
  987SOL     OW  539   1.424   2.076   2.974
  987SOL    HW1  540   1.476   2.011   3.029
  987SOL    HW2  541   1.375   2.139   3.035
  988SOL     OW  542   1.001   1.896   3.016
  988SOL    HW1  543   0.938   1.824   2.985
  988SOL    HW2  544   1.094   1.860   3.016
  991SOL     OW  545   1.352   1.914   2.030
  991SOL    HW1  546   1.387   1.873   1.946
  991SOL    HW2  547   1.262   1.876   2.050
  992SOL     OW  548   1.300   2.315   2.553
  992SOL    HW1  549   1.241   2.395   2.557
  992SOL    HW2  550   1.315   2.280   2.646
  993SOL     OW  551   1.593   2.083   2.744
  993SOL    HW1  552   1.509   2.082   2.798
  993SOL    HW2  553   1.595   2.166   2.688
 1002SOL     OW  554   1.755   2.469   3.955
 1002SOL    HW1  555   1.743   2.456   3.856
 1002SOL    HW2  556   1.725   2.388   4.004
 1019SOL     OW  557   1.525   2.861   3.914
 1019SOL    HW1  558   1.462   2.785   3.927
 1019SOL    HW2  559   1.573   2.879   4.000
 1036SOL     OW  560   1.632   3.239   3.805
 1036SOL    HW1  561   1.600   3.333   3.795
 1036SOL    HW2  562   1.556   3.176   3.793
 1046SOL     OW  563   1.434   3.050   3.765
 1046SOL    HW1  564   1.466   2.974   3.822
 1046SOL    HW2  565   1.342   3.077   3.795
 1057SOL     OW  566   1.857   2.695   4.101
 1057SOL    HW1  567   1.899   2.631   4.165
 1057SOL    HW2  568   1.819   2.644   4.023
 1060SOL     OW  569   1.390   2.437   3.802
 1060SOL    HW1  570   1.336   2.416   3.883
 1060SOL    HW2  571   1.481   2.396   3.811
 1080SOL     OW  572   1.540   2.136   3.849
 1080SOL    HW1  573   1.479   2.061   3.872
 1080SOL    HW2  574   1.562   2.188   3.932
 1081SOL     OW  575   1.303   2.700   3.766
 1081SOL    HW1  576   1.337   2.607   3.781
 1081SOL    HW2  577   1.321   2.727   3.671
 1322SOL     OW  578   1.400   3.831   2.288
 1322SOL    HW1  579   1.376   3.794   2.198
 1322SOL    HW2  580   1.499   3.847   2.292
 1388SOL     OW  581   1.726   3.859   2.385
 1388SOL    HW1  582   1.799   3.842   2.318
 1388SOL    HW2  583   1.695   3.772   2.423
 1390SOL     OW  584   1.841   3.899   2.825
 1390SOL    HW1  585   1.880   3.814   2.789
 1390SOL    HW2  586   1.743   3.901   2.806
 1415SOL     OW  587   1.824   3.916   3.089
 1415SOL    HW1  588   1.820   3.826   3.133
 1415SOL    HW2  589   1.827   3.905   2.990
 1421SOL     OW  590   1.352   3.776   2.030
 1421SOL    HW1  591   1.387   3.735   1.946
 1421SOL    HW2  592   1.262   3.738   2.050
 1423SOL     OW  593   1.593   3.945   2.744
 1423SOL    HW1  594   1.509   3.944   2.798
 1423SOL    HW2  595   1.595   4.028   2.688
 1535SOL     OW  596   2.548   1.161   1.803
 1535SOL    HW1  597   2.608   1.240   1.817
 1535SOL    HW2  598   2.462   1.192   1.762
 1537SOL     OW  599   3.322   1.505   1.339
 1537SOL    HW1  600   3.346   1.599   1.365
 1537SOL    HW2  601   3.306   1.451   1.421
 1541SOL     OW  602   2.989   1.341   1.690
 1541SOL    HW1  603   3.036   1.341   1.778
 1541SOL    HW2  604   2.941   1.254   1.679
 1544SOL     OW  605   2.482   1.786   1.439
 1544SOL    HW1  606   2.390   1.769   1.474
 1544SOL    HW2  607   2.510   1.878   1.465
 1554SOL     OW  608   3.155   1.228   1.423
 1554SOL    HW1  609   3.192   1.155   1.365
 1554SOL    HW2  610   3.207   1.233   1.508
 1558SOL     OW  611   3.049   1.792   1.616
 1558SOL    HW1  612   3.073   1.852   1.540
 1558SOL    HW2  613   3.056   1.697   1.586
 1571SOL     OW  614   1.992   1.821   1.571
 1571SOL    HW1  615   1.982   1.806   1.670
 1571SOL    HW2  616   1.906   1.857   1.535
 1579SOL     OW  617   3.089   1.550   1.506
 1579SOL    HW1  618   3.095   1.473   1.570
 1579SOL    HW2  619   3.037   1.524   1.426
 1582SOL     OW  620   2.323   1.266   1.727
 1582SOL    HW1  621   2.273   1.267   1.641
 1582SOL    HW2  622   2.260   1.248   1.803
 1588SOL     OW  623   2.111   1.785   1.241
 1588SOL    HW1  624   2.168   1.720   1.291
 1588SOL    HW2  625   2.095   1.752   1.148
 1594SOL     OW  626   2.750   1.514   1.195
 1594SOL    HW1  627   2.727   1.489   1.101
 1594SOL    HW2  628   2.811   1.445   1.234
 1619SOL     OW  629   2.926   1.347   1.340
 1619SOL    HW1  630   2.846   1.324   1.395
 1619SOL    HW2  631   3.009   1.321   1.389
 1620SOL     OW  632   3.454   1.629   1.625
 1620SOL    HW1  633   3.481   1.663   1.535
 1620SOL    HW2  634   3.533   1.591   1.671
 1624SOL     OW  635   2.842   1.116   1.719
 1624SOL    HW1  636   2.743   1.122   1.729
 1624SOL    HW2  637   2.865   1.036   1.663
 1628SOL     OW  638   1.926   1.564   1.331
 1628SOL    HW1  639   1.880   1.646   1.297
 1628SOL    HW2  640   2.024   1.583   1.340
 1634SOL     OW  641   2.216   1.510   1.329
 1634SOL    HW1  642   2.195   1.466   1.242
 1634SOL    HW2  643   2.313   1.536   1.332
 1649SOL     OW  644   2.842   1.573   1.700
 1649SOL    HW1  645   2.822   1.617   1.612
 1649SOL    HW2  646   2.881   1.482   1.684
 1651SOL     OW  647   2.212   0.898   1.804
 1651SOL    HW1  648   2.288   0.942   1.852
 1651SOL    HW2  649   2.247   0.851   1.722
 1668SOL     OW  650   2.114   1.564   1.744
 1668SOL    HW1  651   2.084   1.621   1.820
 1668SOL    HW2  652   2.107   1.467   1.770
 1670SOL     OW  653   2.792   1.678   1.465
 1670SOL    HW1  654   2.768   1.660   1.370
 1670SOL    HW2  655   2.822   1.772   1.475
 1672SOL     OW  656   2.021   1.137   1.466
 1672SOL    HW1  657   2.043   1.076   1.542
 1672SOL    HW2  658   2.031   1.088   1.380
 1676SOL     OW  659   3.114   1.731   1.128
 1676SOL    HW1  660   3.198   1.736   1.074
 1676SOL    HW2  661   3.091   1.635   1.146
 1678SOL     OW  662   2.550   1.662   1.716
 1678SOL    HW1  663   2.494   1.743   1.725
 1678SOL    HW2  664   2.602   1.666   1.630
 1682SOL     OW  665   1.992   1.794   1.851
 1682SOL    HW1  666   1.951   1.720   1.904
 1682SOL    HW2  667   2.056   1.845   1.909
 1684SOL     OW  668   2.692   1.273   1.422
 1684SOL    HW1  669   2.687   1.306   1.517
 1684SOL    HW2  670   2.606   1.292   1.376
 1686SOL     OW  671   3.512   1.720   1.394
 1686SOL    HW1  672   3.565   1.730   1.310
 1686SOL    HW2  673   3.485   1.810   1.428
 1693SOL     OW  674   2.234   1.288   1.490
 1693SOL    HW1  675   2.221   1.381   1.456
 1693SOL    HW2  676   2.150   1.236   1.477
 1700SOL     OW  677   1.967   1.013   1.726
 1700SOL    HW1  678   1.890   0.980   1.780
 1700SOL    HW2  679   2.052   0.983   1.768
 1708SOL     OW  680   3.312   1.220   1.633
 1708SOL    HW1  681   3.303   1.210   1.732
 1708SOL    HW2  682   3.408   1.213   1.607
 1709SOL     OW  683   2.252   1.741   1.560
 1709SOL    HW1  684   2.161   1.782   1.558
 1709SOL    HW2  685   2.245   1.647   1.592
 1716SOL     OW  686   2.523   1.790   0.953
 1716SOL    HW1  687   2.477   1.878   0.940
 1716SOL    HW2  688   2.622   1.802   0.946
 1720SOL     OW  689   2.083   1.314   1.844
 1720SOL    HW1  690   2.018   1.241   1.823
 1720SOL    HW2  691   2.087   1.328   1.942
 1722SOL     OW  692   2.534   1.391   1.624
 1722SOL    HW1  693   2.456   1.341   1.662
 1722SOL    HW2  694   2.531   1.486   1.655
 1731SOL     OW  695   2.480   1.567   1.284
 1731SOL    HW1  696   2.475   1.649   1.341
 1731SOL    HW2  697   2.569   1.564   1.239
 1739SOL     OW  698   2.431   1.275   3.027
 1739SOL    HW1  699   2.338   1.268   2.990
 1739SOL    HW2  700   2.442   1.364   3.071
 1740SOL     OW  701   3.417   1.511   2.565
 1740SOL    HW1  702   3.360   1.495   2.646
 1740SOL    HW2  703   3.358   1.521   2.485
 1743SOL     OW  704   2.630   1.144   2.885
 1743SOL    HW1  705   2.552   1.161   2.945
 1743SOL    HW2  706   2.664   1.231   2.849
 1745SOL     OW  707   2.547   1.012   2.527
 1745SOL    HW1  708   2.616   0.996   2.597
 1745SOL    HW2  709   2.474   1.069   2.565
 1746SOL     OW  710   2.548   1.161   3.665
 1746SOL    HW1  711   2.608   1.240   3.679
 1746SOL    HW2  712   2.462   1.192   3.624
 1747SOL     OW  713   2.197   1.435   2.923
 1747SOL    HW1  714   2.119   1.404   2.870
 1747SOL    HW2  715   2.255   1.493   2.866
 1748SOL     OW  716   3.322   1.505   3.201
 1748SOL    HW1  717   3.346   1.599   3.227
 1748SOL    HW2  718   3.306   1.451   3.283
 1751SOL     OW  719   2.093   1.713   2.345
 1751SOL    HW1  720   2.127   1.790   2.399
 1751SOL    HW2  721   2.137   1.713   2.255
 1752SOL     OW  722   2.989   1.341   3.552
 1752SOL    HW1  723   3.036   1.341   3.640
 1752SOL    HW2  724   2.941   1.254   3.541
 1753SOL     OW  725   2.092   1.434   2.400
 1753SOL    HW1  726   2.066   1.530   2.400
 1753SOL    HW2  727   2.021   1.380   2.445
 1754SOL     OW  728   2.102   1.091   2.748
 1754SOL    HW1  729   2.116   1.007   2.800
 1754SOL    HW2  730   2.047   1.155   2.803
 1755SOL     OW  731   2.482   1.786   3.301
 1755SOL    HW1  732   2.390   1.769   3.336
 1755SOL    HW2  733   2.510   1.878   3.327
 1756SOL     OW  734   2.468   0.964   1.985
 1756SOL    HW1  735   2.475   1.048   1.931
 1756SOL    HW2  736   2.514   0.977   2.073
 1759SOL     OW  737   3.704   1.767   2.221
 1759SOL    HW1  738   3.758   1.738   2.301
 1759SOL    HW2  739   3.734   1.857   2.192
 1760SOL     OW  740   1.889   1.596   1.979
 1760SOL    HW1  741   1.870   1.500   2.000
 1760SOL    HW2  742   1.856   1.654   2.054
 1762SOL     OW  743   3.503   1.108   2.294
 1762SOL    HW1  744   3.589   1.110   2.242
 1762SOL    HW2  745   3.517   1.155   2.382
 1764SOL     OW  746   2.475   1.365   2.588
 1764SOL    HW1  747   2.426   1.278   2.597
 1764SOL    HW2  748   2.452   1.408   2.501
 1765SOL     OW  749   3.155   1.228   3.285
 1765SOL    HW1  750   3.192   1.155   3.227
 1765SOL    HW2  751   3.207   1.233   3.370
 1767SOL     OW  752   2.059   0.976   3.126
 1767SOL    HW1  753   2.148   0.931   3.112
 1767SOL    HW2  754   1.986   0.911   3.107
 1768SOL     OW  755   3.387   0.999   2.052
 1768SOL    HW1  756   3.324   0.923   2.065
 1768SOL    HW2  757   3.435   1.017   2.138
 1769SOL     OW  758   3.049   1.792   3.478
 1769SOL    HW1  759   3.073   1.852   3.402
 1769SOL    HW2  760   3.056   1.697   3.448
 1771SOL     OW  761   3.328   1.417   2.815
 1771SOL    HW1  762   3.269   1.423   2.895
 1771SOL    HW2  763   3.313   1.329   2.769
 1772SOL     OW  764   3.529   1.714   2.434
 1772SOL    HW1  765   3.488   1.691   2.346
 1772SOL    HW2  766   3.511   1.640   2.499
 1775SOL     OW  767   3.438   1.662   2.169
 1775SOL    HW1  768   3.527   1.708   2.172
 1775SOL    HW2  769   3.417   1.638   2.074
 1781SOL     OW  770   1.938   0.811   2.651
 1781SOL    HW1  771   2.037   0.799   2.660
 1781SOL    HW2  772   1.914   0.906   2.672
 1782SOL     OW  773   1.992   1.821   3.433
 1782SOL    HW1  774   1.982   1.806   3.532
 1782SOL    HW2  775   1.906   1.857   3.397
 1785SOL     OW  776   3.224   1.144   2.407
 1785SOL    HW1  777   3.307   1.115   2.359
 1785SOL    HW2  778   3.175   1.211   2.351
 1787SOL     OW  779   2.870   1.456   2.339
 1787SOL    HW1  780   2.824   1.528   2.287
 1787SOL    HW2  781   2.866   1.476   2.437
 1788SOL     OW  782   2.213   1.801   2.715
 1788SOL    HW1  783   2.263   1.715   2.721
 1788SOL    HW2  784   2.278   1.878   2.712
 1790SOL     OW  785   3.089   1.550   3.368
 1790SOL    HW1  786   3.095   1.473   3.432
 1790SOL    HW2  787   3.037   1.524   3.288
 1791SOL     OW  788   2.183   0.943   2.104
 1791SOL    HW1  789   2.265   0.982   2.062
 1791SOL    HW2  790   2.156   0.861   2.055
 1793SOL     OW  791   2.323   1.266   3.589
 1793SOL    HW1  792   2.273   1.267   3.503
 1793SOL    HW2  793   2.260   1.248   3.665
 1794SOL     OW  794   2.973   1.776   2.099
 1794SOL    HW1  795   2.913   1.714   2.149
 1794SOL    HW2  796   3.004   1.732   2.014
 1796SOL     OW  797   3.494   1.377   1.943
 1796SOL    HW1  798   3.462   1.471   1.933
 1796SOL    HW2  799   3.418   1.314   1.931
 1797SOL     OW  800   2.326   1.743   2.185
 1797SOL    HW1  801   2.359   1.782   2.271
 1797SOL    HW2  802   2.402   1.736   2.120
 1799SOL     OW  803   2.111   1.785   3.103
 1799SOL    HW1  804   2.168   1.720   3.153
 1799SOL    HW2  805   2.095   1.752   3.010
 1800SOL     OW  806   2.802   1.698   2.766
 1800SOL    HW1  807   2.882   1.641   2.787
 1800SOL    HW2  808   2.753   1.658   2.689
 1805SOL     OW  809   2.750   1.514   3.057
 1805SOL    HW1  810   2.727   1.489   2.963
 1805SOL    HW2  811   2.811   1.445   3.096
 1807SOL     OW  812   2.665   1.402   2.786
 1807SOL    HW1  813   2.755   1.416   2.744
 1807SOL    HW2  814   2.594   1.404   2.715
 1810SOL     OW  815   3.296   1.188   1.903
 1810SOL    HW1  816   3.328   1.112   1.960
 1810SOL    HW2  817   3.204   1.215   1.933
 1814SOL     OW  818   3.089   1.570   2.655
 1814SOL    HW1  819   3.110   1.644   2.590
 1814SOL    HW2  820   3.157   1.570   2.728
 1815SOL     OW  821   2.321   1.152   2.603
 1815SOL    HW1  822   2.250   1.125   2.668
 1815SOL    HW2  823   2.295   1.124   2.510
 1816SOL     OW  824   3.133   1.797   2.453
 1816SOL    HW1  825   3.177   1.861   2.389
 1816SOL    HW2  826   3.083   1.849   2.523
 1822SOL     OW  827   3.291   1.173   2.729
 1822SOL    HW1  828   3.236   1.089   2.722
 1822SOL    HW2  829   3.317   1.202   2.637
 1825SOL     OW  830   2.350   1.385   2.036
 1825SOL    HW1  831   2.263   1.370   2.083
 1825SOL    HW2  832   2.333   1.411   1.941
 1826SOL     OW  833   3.526   1.280   2.519
 1826SOL    HW1  834   3.625   1.288   2.533
 1826SOL    HW2  835   3.481   1.364   2.550
 1830SOL     OW  836   2.926   1.347   3.202
 1830SOL    HW1  837   2.846   1.324   3.257
 1830SOL    HW2  838   3.009   1.321   3.251
 1831SOL     OW  839   3.454   1.629   3.487
 1831SOL    HW1  840   3.481   1.663   3.397
 1831SOL    HW2  841   3.533   1.591   3.533
 1832SOL     OW  842   2.973   1.195   2.962
 1832SOL    HW1  843   2.933   1.239   3.043
 1832SOL    HW2  844   2.932   1.232   2.879
 1833SOL     OW  845   3.500   1.099   2.941
 1833SOL    HW1  846   3.505   1.180   3.000
 1833SOL    HW2  847   3.414   1.101   2.890
 1835SOL     OW  848   2.842   1.116   3.581
 1835SOL    HW1  849   2.743   1.122   3.591
 1835SOL    HW2  850   2.865   1.036   3.525
 1836SOL     OW  851   2.567   1.050   2.230
 1836SOL    HW1  852   2.553   1.057   2.329
 1836SOL    HW2  853   2.651   0.999   2.212
 1839SOL     OW  854   1.926   1.564   3.193
 1839SOL    HW1  855   1.880   1.646   3.159
 1839SOL    HW2  856   2.024   1.583   3.202
 1840SOL     OW  857   2.229   1.100   2.363
 1840SOL    HW1  858   2.222   1.183   2.307
 1840SOL    HW2  859   2.233   1.020   2.303
 1842SOL     OW  860   3.114   1.348   2.250
 1842SOL    HW1  861   3.164   1.425   2.290
 1842SOL    HW2  862   3.019   1.350   2.282
 1843SOL     OW  863   3.134   1.445   3.004
 1843SOL    HW1  864   3.181   1.458   3.091
 1843SOL    HW2  865   3.068   1.371   3.013
 1845SOL     OW  866   2.216   1.510   3.191
 1845SOL    HW1  867   2.195   1.466   3.104
 1845SOL    HW2  868   2.313   1.536   3.194
 1850SOL     OW  869   2.435   0.870   2.891
 1850SOL    HW1  870   2.479   0.959   2.882
 1850SOL    HW2  871   2.372   0.870   2.968
 1854SOL     OW  872   1.899   1.310   3.144
 1854SOL    HW1  873   1.952   1.261   3.212
 1854SOL    HW2  874   1.921   1.408   3.149
 1860SOL     OW  875   2.842   1.573   3.562
 1860SOL    HW1  876   2.822   1.617   3.474
 1860SOL    HW2  877   2.881   1.482   3.546
 1865SOL     OW  878   2.930   1.333   2.711
 1865SOL    HW1  879   2.937   1.249   2.656
 1865SOL    HW2  880   2.992   1.402   2.675
 1866SOL     OW  881   2.181   0.810   2.811
 1866SOL    HW1  882   2.274   0.846   2.816
 1866SOL    HW2  883   2.175   0.725   2.863
 1870SOL     OW  884   1.870   1.326   2.062
 1870SOL    HW1  885   1.777   1.347   2.031
 1870SOL    HW2  886   1.880   1.227   2.075
 1871SOL     OW  887   1.950   1.801   2.789
 1871SOL    HW1  888   1.908   1.715   2.762
 1871SOL    HW2  889   2.044   1.804   2.755
 1872SOL     OW  890   2.366   1.568   2.772
 1872SOL    HW1  891   2.432   1.642   2.781
 1872SOL    HW2  892   2.410   1.489   2.730
 1879SOL     OW  893   2.114   1.564   3.606
 1879SOL    HW1  894   2.084   1.621   3.682
 1879SOL    HW2  895   2.107   1.467   3.632
 1881SOL     OW  896   2.792   1.678   3.327
 1881SOL    HW1  897   2.768   1.660   3.232
 1881SOL    HW2  898   2.822   1.772   3.337
 1883SOL     OW  899   2.021   1.137   3.328
 1883SOL    HW1  900   2.043   1.076   3.404
 1883SOL    HW2  901   2.031   1.088   3.242
 1884SOL     OW  902   3.209   1.059   3.096
 1884SOL    HW1  903   3.233   0.996   3.022
 1884SOL    HW2  904   3.119   1.099   3.078
 1886SOL     OW  905   3.621   1.747   3.016
 1886SOL    HW1  906   3.682   1.777   2.943
 1886SOL    HW2  907   3.583   1.658   2.994
 1887SOL     OW  908   3.114   1.731   2.990
 1887SOL    HW1  909   3.198   1.736   2.936
 1887SOL    HW2  910   3.091   1.635   3.008
 1888SOL     OW  911   1.945   1.258   2.884
 1888SOL    HW1  912   1.940   1.257   2.984
 1888SOL    HW2  913   1.862   1.217   2.846
 1889SOL     OW  914   2.550   1.662   3.578
 1889SOL    HW1  915   2.494   1.743   3.587
 1889SOL    HW2  916   2.602   1.666   3.492
 1891SOL     OW  917   3.250   1.573   2.339
 1891SOL    HW1  918   3.317   1.585   2.265
 1891SOL    HW2  919   3.210   1.662   2.362
 1892SOL     OW  920   1.992   1.794   3.713
 1892SOL    HW1  921   1.951   1.720   3.766
 1892SOL    HW2  922   2.056   1.845   3.771
 1893SOL     OW  923   3.142   0.927   2.534
 1893SOL    HW1  924   3.202   0.846   2.536
 1893SOL    HW2  925   3.182   0.996   2.474
 1894SOL     OW  926   2.692   1.273   3.284
 1894SOL    HW1  927   2.687   1.306   3.379
 1894SOL    HW2  928   2.606   1.292   3.238
 1895SOL     OW  929   2.534   1.616   2.016
 1895SOL    HW1  930   2.543   1.626   1.917
 1895SOL    HW2  931   2.494   1.527   2.037
 1896SOL     OW  932   3.512   1.720   3.256
 1896SOL    HW1  933   3.565   1.730   3.172
 1896SOL    HW2  934   3.485   1.810   3.290
 1899SOL     OW  935   3.056   1.612   1.893
 1899SOL    HW1  936   3.062   1.519   1.930
 1899SOL    HW2  937   2.997   1.612   1.813
 1900SOL     OW  938   2.684   1.002   3.234
 1900SOL    HW1  939   2.724   1.001   3.142
 1900SOL    HW2  940   2.694   1.094   3.274
 1901SOL     OW  941   2.778   0.910   2.153
 1901SOL    HW1  942   2.841   0.948   2.085
 1901SOL    HW2  943   2.818   0.827   2.192
 1902SOL     OW  944   3.366   1.607   1.906
 1902SOL    HW1  945   3.274   1.644   1.913
 1902SOL    HW2  946   3.404   1.627   1.816
 1903SOL     OW  947   2.234   1.288   3.352
 1903SOL    HW1  948   2.221   1.381   3.318
 1903SOL    HW2  949   2.150   1.236   3.339
 1904SOL     OW  950   3.476   1.292   3.151
 1904SOL    HW1  951   3.536   1.295   3.231
 1904SOL    HW2  952   3.401   1.356   3.164
 1905SOL     OW  953   2.901   1.098   2.558
 1905SOL    HW1  954   2.831   1.051   2.612
 1905SOL    HW2  955   2.960   1.030   2.515
 1907SOL     OW  956   2.452   1.487   2.353
 1907SOL    HW1  957   2.494   1.429   2.283
 1907SOL    HW2  958   2.408   1.566   2.309
 1909SOL     OW  959   2.117   1.348   2.152
 1909SOL    HW1  960   2.021   1.349   2.125
 1909SOL    HW2  961   2.129   1.401   2.236
 1915SOL     OW  962   3.045   1.335   1.981
 1915SOL    HW1  963   2.946   1.324   1.983
 1915SOL    HW2  964   3.079   1.350   2.074
 1917SOL     OW  965   3.355   1.767   2.821
 1917SOL    HW1  966   3.388   1.831   2.752
 1917SOL    HW2  967   3.421   1.761   2.896
 1920SOL     OW  968   2.252   1.741   3.422
 1920SOL    HW1  969   2.161   1.782   3.420
 1920SOL    HW2  970   2.245   1.647   3.454
 1923SOL     OW  971   2.456   0.745   2.514
 1923SOL    HW1  972   2.506   0.830   2.495
 1923SOL    HW2  973   2.368   0.747   2.466
 1926SOL     OW  974   2.721   1.374   1.878
 1926SOL    HW1  975   2.675   1.389   1.966
 1926SOL    HW2  976   2.765   1.459   1.848
 1927SOL     OW  977   2.523   1.790   2.815
 1927SOL    HW1  978   2.477   1.878   2.802
 1927SOL    HW2  979   2.622   1.802   2.808
 1928SOL     OW  980   2.721   0.956   2.723
 1928SOL    HW1  981   2.775   0.887   2.771
 1928SOL    HW2  982   2.689   1.025   2.789
 1929SOL     OW  983   2.945   0.984   1.949
 1929SOL    HW1  984   2.922   1.037   1.867
 1929SOL    HW2  985   3.026   0.928   1.930
 1930SOL     OW  986   3.723   1.569   2.713
 1930SOL    HW1  987   3.652   1.557   2.643
 1930SOL    HW2  988   3.724   1.490   2.773
 1931SOL     OW  989   2.083   1.314   3.706
 1931SOL    HW1  990   2.018   1.241   3.685
 1931SOL    HW2  991   2.087   1.328   3.804
 1932SOL     OW  992   1.941   1.240   2.515
 1932SOL    HW1  993   1.940   1.193   2.603
 1932SOL    HW2  994   2.023   1.212   2.464
 1933SOL     OW  995   2.534   1.391   3.486
 1933SOL    HW1  996   2.456   1.341   3.524
 1933SOL    HW2  997   2.531   1.486   3.517
 1936SOL     OW  998   3.567   1.487   2.966
 1936SOL    HW1  999   3.474   1.462   2.939
 1936SOL    HW2 1000   3.593   1.437   3.048
 1938SOL     OW 1001   2.674   1.586   2.549
 1938SOL    HW1 1002   2.706   1.596   2.455
 1938SOL    HW2 1003   2.595   1.524   2.551
 1941SOL     OW 1004   2.632   1.330   2.163
 1941SOL    HW1 1005   2.586   1.243   2.180
 1941SOL    HW2 1006   2.723   1.327   2.204
 1942SOL     OW 1007   2.480   1.567   3.146
 1942SOL    HW1 1008   2.475   1.649   3.203
 1942SOL    HW2 1009   2.569   1.564   3.101
 1946SOL     OW 1010   1.901   1.077   2.162
 1946SOL    HW1 1011   2.000   1.066   2.153
 1946SOL    HW2 1012   1.861   0.991   2.194
 1947SOL     OW 1013   2.737   1.646   2.199
 1947SOL    HW1 1014   2.660   1.611   2.145
 1947SOL    HW2 1015   2.705   1.717   2.261
 1965SOL     OW 1016   1.889   1.596   3.841
 1965SOL    HW1 1017   1.870   1.500   3.862
 1965SOL    HW2 1018   1.856   1.654   3.916
 1987SOL     OW 1019   2.973   1.776   3.961
 1987SOL    HW1 1020   2.913   1.714   4.011
 1987SOL    HW2 1021   3.004   1.732   3.876
 1989SOL     OW 1022   2.326   1.743   4.047
 1989SOL    HW1 1023   2.359   1.782   4.133
 1989SOL    HW2 1024   2.402   1.736   3.982
 2010SOL     OW 1025   2.350   1.385   3.898
 2010SOL    HW1 1026   2.263   1.370   3.945
 2010SOL    HW2 1027   2.333   1.411   3.803
 2055SOL     OW 1028   2.534   1.616   3.878
 2055SOL    HW1 1029   2.543   1.626   3.779
 2055SOL    HW2 1030   2.494   1.527   3.899
 2058SOL     OW 1031   3.056   1.612   3.755
 2058SOL    HW1 1032   3.062   1.519   3.792
 2058SOL    HW2 1033   2.997   1.612   3.675
 2061SOL     OW 1034   3.366   1.607   3.768
 2061SOL    HW1 1035   3.274   1.644   3.775
 2061SOL    HW2 1036   3.404   1.627   3.678
 2075SOL     OW 1037   2.721   1.374   3.740
 2075SOL    HW1 1038   2.675   1.389   3.828
 2075SOL    HW2 1039   2.765   1.459   3.710
 2092SOL     OW 1040   2.737   1.646   4.061
 2092SOL    HW1 1041   2.660   1.611   4.007
 2092SOL    HW2 1042   2.705   1.717   4.123
 2094SOL     OW 1043   2.087   2.137   0.996
 2094SOL    HW1 1044   2.122   2.120   1.088
 2094SOL    HW2 1045   1.999   2.092   0.984
 2096SOL     OW 1046   2.431   3.137   1.165
 2096SOL    HW1 1047   2.338   3.130   1.128
 2096SOL    HW2 1048   2.442   3.226   1.209
 2100SOL     OW 1049   2.630   3.006   1.023
 2100SOL    HW1 1050   2.552   3.023   1.083
 2100SOL    HW2 1051   2.664   3.093   0.987
 2101SOL     OW 1052   2.712   2.660   1.823
 2101SOL    HW1 1053   2.708   2.736   1.888
 2101SOL    HW2 1054   2.734   2.696   1.732
 2103SOL     OW 1055   2.548   3.023   1.803
 2103SOL    HW1 1056   2.608   3.102   1.817
 2103SOL    HW2 1057   2.462   3.054   1.762
 2104SOL     OW 1058   2.197   3.297   1.061
 2104SOL    HW1 1059   2.119   3.266   1.008
 2104SOL    HW2 1060   2.255   3.355   1.004
 2105SOL     OW 1061   3.322   3.367   1.339
 2105SOL    HW1 1062   3.346   3.461   1.365
 2105SOL    HW2 1063   3.306   3.313   1.421
 2106SOL     OW 1064   2.300   2.254   1.499
 2106SOL    HW1 1065   2.382   2.198   1.508
 2106SOL    HW2 1066   2.219   2.196   1.503
 2109SOL     OW 1067   2.989   3.203   1.690
 2109SOL    HW1 1068   3.036   3.203   1.778
 2109SOL    HW2 1069   2.941   3.116   1.679
 2111SOL     OW 1070   2.102   2.953   0.886
 2111SOL    HW1 1071   2.116   2.869   0.938
 2111SOL    HW2 1072   2.047   3.017   0.941
 2112SOL     OW 1073   2.482   3.648   1.439
 2112SOL    HW1 1074   2.390   3.631   1.474
 2112SOL    HW2 1075   2.510   3.740   1.465
 2114SOL     OW 1076   3.456   1.976   1.480
 2114SOL    HW1 1077   3.438   2.043   1.408
 2114SOL    HW2 1078   3.453   2.022   1.569
 2120SOL     OW 1079   1.975   2.599   1.597
 2120SOL    HW1 1080   2.063   2.586   1.642
 2120SOL    HW2 1081   1.962   2.696   1.575
 2122SOL     OW 1082   3.155   3.090   1.423
 2122SOL    HW1 1083   3.192   3.017   1.365
 2122SOL    HW2 1084   3.207   3.095   1.508
 2124SOL     OW 1085   2.059   2.838   1.264
 2124SOL    HW1 1086   2.148   2.793   1.250
 2124SOL    HW2 1087   1.986   2.773   1.245
 2126SOL     OW 1088   3.049   3.654   1.616
 2126SOL    HW1 1089   3.073   3.714   1.540
 2126SOL    HW2 1090   3.056   3.559   1.586
 2127SOL     OW 1091   2.179   2.113   1.801
 2127SOL    HW1 1092   2.250   2.184   1.807
 2127SOL    HW2 1093   2.091   2.152   1.829
 2131SOL     OW 1094   3.143   2.207   0.944
 2131SOL    HW1 1095   3.057   2.157   0.931
 2131SOL    HW2 1096   3.205   2.153   1.000
 2133SOL     OW 1097   2.669   2.467   1.465
 2133SOL    HW1 1098   2.622   2.464   1.554
 2133SOL    HW2 1099   2.618   2.412   1.399
 2134SOL     OW 1100   3.256   2.331   1.674
 2134SOL    HW1 1101   3.236   2.374   1.762
 2134SOL    HW2 1102   3.334   2.269   1.683
 2135SOL     OW 1103   2.835   2.752   1.572
 2135SOL    HW1 1104   2.881   2.668   1.543
 2135SOL    HW2 1105   2.779   2.786   1.497
 2136SOL     OW 1106   2.853   2.272   1.242
 2136SOL    HW1 1107   2.776   2.306   1.296
 2136SOL    HW2 1108   2.819   2.221   1.163
 2139SOL     OW 1109   1.992   3.683   1.571
 2139SOL    HW1 1110   1.982   3.668   1.670
 2139SOL    HW2 1111   1.906   3.719   1.535
 2141SOL     OW 1112   3.581   2.447   1.831
 2141SOL    HW1 1113   3.555   2.536   1.795
 2141SOL    HW2 1114   3.579   2.379   1.758
 2143SOL     OW 1115   2.412   2.058   0.885
 2143SOL    HW1 1116   2.407   2.053   0.985
 2143SOL    HW2 1117   2.414   2.154   0.856
 2147SOL     OW 1118   3.089   3.412   1.506
 2147SOL    HW1 1119   3.095   3.335   1.570
 2147SOL    HW2 1120   3.037   3.386   1.426
 2150SOL     OW 1121   2.323   3.128   1.727
 2150SOL    HW1 1122   2.273   3.129   1.641
 2150SOL    HW2 1123   2.260   3.110   1.803
 2152SOL     OW 1124   2.064   2.147   1.498
 2152SOL    HW1 1125   1.984   2.207   1.485
 2152SOL    HW2 1126   2.054   2.098   1.584
 2156SOL     OW 1127   2.111   3.647   1.241
 2156SOL    HW1 1128   2.168   3.582   1.291
 2156SOL    HW2 1129   2.095   3.614   1.148
 2159SOL     OW 1130   3.409   2.084   1.729
 2159SOL    HW1 1131   3.404   2.121   1.821
 2159SOL    HW2 1132   3.337   2.015   1.717
 2161SOL     OW 1133   2.643   2.126   1.749
 2161SOL    HW1 1134   2.710   2.065   1.792
 2161SOL    HW2 1135   2.570   2.145   1.814
 2162SOL     OW 1136   2.750   3.376   1.195
 2162SOL    HW1 1137   2.727   3.351   1.101
 2162SOL    HW2 1138   2.811   3.307   1.234
 2163SOL     OW 1139   3.213   2.452   1.433
 2163SOL    HW1 1140   3.241   2.409   1.518
 2163SOL    HW2 1141   3.238   2.548   1.434
 2164SOL     OW 1142   2.665   3.264   0.924
 2164SOL    HW1 1143   2.755   3.278   0.882
 2164SOL    HW2 1144   2.594   3.266   0.853
 2165SOL     OW 1145   2.784   2.365   0.899
 2165SOL    HW1 1146   2.759   2.356   0.803
 2165SOL    HW2 1147   2.832   2.283   0.930
 2170SOL     OW 1148   2.938   2.545   1.464
 2170SOL    HW1 1149   2.858   2.484   1.467
 2170SOL    HW2 1150   3.019   2.492   1.440
 2175SOL     OW 1151   1.940   2.418   1.386
 2175SOL    HW1 1152   2.032   2.417   1.345
 2175SOL    HW2 1153   1.934   2.492   1.453
 2176SOL     OW 1154   2.423   2.084   1.147
 2176SOL    HW1 1155   2.461   2.000   1.184
 2176SOL    HW2 1156   2.335   2.103   1.191
 2180SOL     OW 1157   3.328   2.452   0.992
 2180SOL    HW1 1158   3.298   2.357   0.999
 2180SOL    HW2 1159   3.401   2.468   1.058
 2186SOL     OW 1160   3.616   3.085   1.588
 2186SOL    HW1 1161   3.707   3.046   1.575
 2186SOL    HW2 1162   3.624   3.181   1.612
 2187SOL     OW 1163   2.926   3.209   1.340
 2187SOL    HW1 1164   2.846   3.186   1.395
 2187SOL    HW2 1165   3.009   3.183   1.389
 2188SOL     OW 1166   3.454   3.491   1.625
 2188SOL    HW1 1167   3.481   3.525   1.535
 2188SOL    HW2 1168   3.533   3.453   1.671
 2189SOL     OW 1169   2.973   3.057   1.100
 2189SOL    HW1 1170   2.933   3.101   1.181
 2189SOL    HW2 1171   2.932   3.094   1.017
 2190SOL     OW 1172   3.500   2.961   1.079
 2190SOL    HW1 1173   3.505   3.042   1.138
 2190SOL    HW2 1174   3.414   2.963   1.028
 2191SOL     OW 1175   2.777   1.951   1.402
 2191SOL    HW1 1176   2.802   1.931   1.307
 2191SOL    HW2 1177   2.849   2.007   1.444
 2192SOL     OW 1178   2.842   2.978   1.719
 2192SOL    HW1 1179   2.743   2.984   1.729
 2192SOL    HW2 1180   2.865   2.898   1.663
 2194SOL     OW 1181   2.272   2.675   1.251
 2194SOL    HW1 1182   2.358   2.687   1.301
 2194SOL    HW2 1183   2.230   2.588   1.278
 2195SOL     OW 1184   3.136   2.248   1.262
 2195SOL    HW1 1185   3.157   2.322   1.326
 2195SOL    HW2 1186   3.047   2.265   1.219
 2196SOL     OW 1187   1.926   3.426   1.331
 2196SOL    HW1 1188   1.880   3.508   1.297
 2196SOL    HW2 1189   2.024   3.445   1.340
 2198SOL     OW 1190   2.428   2.399   0.865
 2198SOL    HW1 1191   2.440   2.465   0.791
 2198SOL    HW2 1192   2.474   2.433   0.948
 2200SOL     OW 1193   3.134   3.307   1.142
 2200SOL    HW1 1194   3.181   3.320   1.229
 2200SOL    HW2 1195   3.068   3.233   1.151
 2202SOL     OW 1196   2.216   3.372   1.329
 2202SOL    HW1 1197   2.195   3.328   1.242
 2202SOL    HW2 1198   2.313   3.398   1.332
 2203SOL     OW 1199   2.264   2.613   1.598
 2203SOL    HW1 1200   2.332   2.668   1.551
 2203SOL    HW2 1201   2.304   2.525   1.625
 2204SOL     OW 1202   3.449   2.641   1.670
 2204SOL    HW1 1203   3.357   2.679   1.665
 2204SOL    HW2 1204   3.509   2.688   1.605
 2205SOL     OW 1205   2.875   1.967   1.770
 2205SOL    HW1 1206   2.881   2.052   1.718
 2205SOL    HW2 1207   2.907   1.891   1.713
 2206SOL     OW 1208   2.366   1.912   1.740
 2206SOL    HW1 1209   2.324   1.855   1.670
 2206SOL    HW2 1210   2.300   1.981   1.772
 2207SOL     OW 1211   2.435   2.732   1.029
 2207SOL    HW1 1212   2.479   2.821   1.020
 2207SOL    HW2 1213   2.372   2.732   1.106
 2208SOL     OW 1214   3.222   2.724   1.045
 2208SOL    HW1 1215   3.147   2.724   0.979
 2208SOL    HW2 1216   3.259   2.632   1.054
 2210SOL     OW 1217   2.169   2.075   1.231
 2210SOL    HW1 1218   2.146   2.112   1.321
 2210SOL    HW2 1219   2.139   1.980   1.225
 2211SOL     OW 1220   1.899   3.172   1.282
 2211SOL    HW1 1221   1.952   3.123   1.350
 2211SOL    HW2 1222   1.921   3.270   1.287
 2212SOL     OW 1223   2.594   2.496   1.064
 2212SOL    HW1 1224   2.653   2.470   0.988
 2212SOL    HW2 1225   2.566   2.592   1.053
 2213SOL     OW 1226   3.590   2.797   1.854
 2213SOL    HW1 1227   3.544   2.790   1.765
 2213SOL    HW2 1228   3.528   2.841   1.920
 2216SOL     OW 1229   2.885   2.628   0.966
 2216SOL    HW1 1230   2.900   2.649   1.062
 2216SOL    HW2 1231   2.855   2.533   0.957
 2217SOL     OW 1232   2.842   3.435   1.700
 2217SOL    HW1 1233   2.822   3.479   1.612
 2217SOL    HW2 1234   2.881   3.344   1.684
 2218SOL     OW 1235   3.721   3.380   1.605
 2218SOL    HW1 1236   3.735   3.407   1.510
 2218SOL    HW2 1237   3.804   3.402   1.658
 2219SOL     OW 1238   2.212   2.760   1.804
 2219SOL    HW1 1239   2.288   2.804   1.852
 2219SOL    HW2 1240   2.247   2.713   1.722
 2223SOL     OW 1241   2.181   2.672   0.949
 2223SOL    HW1 1242   2.274   2.708   0.954
 2223SOL    HW2 1243   2.175   2.587   1.001
 2224SOL     OW 1244   2.201   2.371   1.006
 2224SOL    HW1 1245   2.149   2.288   0.989
 2224SOL    HW2 1246   2.278   2.376   0.942
 2225SOL     OW 1247   3.000   2.242   1.678
 2225SOL    HW1 1248   2.955   2.305   1.742
 2225SOL    HW2 1249   3.093   2.273   1.661
 2226SOL     OW 1250   3.022   2.069   1.477
 2226SOL    HW1 1251   3.022   2.133   1.554
 2226SOL    HW2 1252   3.050   2.117   1.394
 2230SOL     OW 1253   2.864   2.658   1.238
 2230SOL    HW1 1254   2.905   2.626   1.324
 2230SOL    HW2 1255   2.768   2.631   1.235
 2231SOL     OW 1256   1.902   2.406   1.114
 2231SOL    HW1 1257   1.987   2.373   1.073
 2231SOL    HW2 1258   1.915   2.421   1.212
 2232SOL     OW 1259   2.051   2.382   1.722
 2232SOL    HW1 1260   2.110   2.342   1.652
 2232SOL    HW2 1261   1.993   2.453   1.681
 2233SOL     OW 1262   3.231   2.812   1.660
 2233SOL    HW1 1263   3.270   2.901   1.680
 2233SOL    HW2 1264   3.241   2.792   1.563
 2235SOL     OW 1265   3.519   2.466   1.206
 2235SOL    HW1 1266   3.481   2.397   1.268
 2235SOL    HW2 1267   3.601   2.430   1.162
 2236SOL     OW 1268   2.114   3.426   1.744
 2236SOL    HW1 1269   2.084   3.483   1.820
 2236SOL    HW2 1270   2.107   3.329   1.770
 2237SOL     OW 1271   2.533   2.326   1.269
 2237SOL    HW1 1272   2.499   2.237   1.239
 2237SOL    HW2 1273   2.559   2.380   1.189
 2238SOL     OW 1274   2.792   3.540   1.465
 2238SOL    HW1 1275   2.768   3.522   1.370
 2238SOL    HW2 1276   2.822   3.634   1.475
 2240SOL     OW 1277   2.021   2.999   1.466
 2240SOL    HW1 1278   2.043   2.938   1.542
 2240SOL    HW2 1279   2.031   2.950   1.380
 2241SOL     OW 1280   3.209   2.921   1.234
 2241SOL    HW1 1281   3.233   2.858   1.160
 2241SOL    HW2 1282   3.119   2.961   1.216
 2245SOL     OW 1283   1.945   3.120   1.022
 2245SOL    HW1 1284   1.940   3.119   1.122
 2245SOL    HW2 1285   1.862   3.079   0.984
 2246SOL     OW 1286   2.550   3.524   1.716
 2246SOL    HW1 1287   2.494   3.605   1.725
 2246SOL    HW2 1288   2.602   3.528   1.630
 2250SOL     OW 1289   1.992   3.656   1.851
 2250SOL    HW1 1290   1.951   3.582   1.904
 2250SOL    HW2 1291   2.056   3.707   1.909
 2252SOL     OW 1292   2.692   3.135   1.422
 2252SOL    HW1 1293   2.687   3.168   1.517
 2252SOL    HW2 1294   2.606   3.154   1.376
 2258SOL     OW 1295   2.684   2.864   1.372
 2258SOL    HW1 1296   2.724   2.863   1.280
 2258SOL    HW2 1297   2.694   2.956   1.412
 2261SOL     OW 1298   2.234   3.150   1.490
 2261SOL    HW1 1299   2.221   3.243   1.456
 2261SOL    HW2 1300   2.150   3.098   1.477
 2262SOL     OW 1301   3.476   3.154   1.289
 2262SOL    HW1 1302   3.536   3.157   1.369
 2262SOL    HW2 1303   3.401   3.218   1.302
 2264SOL     OW 1304   2.876   2.098   0.971
 2264SOL    HW1 1305   2.868   2.062   0.878
 2264SOL    HW2 1306   2.874   2.022   1.036
 2266SOL     OW 1307   3.571   2.247   1.381
 2266SOL    HW1 1308   3.644   2.316   1.385
 2266SOL    HW2 1309   3.599   2.172   1.322
 2268SOL     OW 1310   1.967   2.875   1.726
 2268SOL    HW1 1311   1.890   2.842   1.780
 2268SOL    HW2 1312   2.052   2.845   1.768
 2269SOL     OW 1313   2.534   2.065   1.489
 2269SOL    HW1 1314   2.624   2.049   1.449
 2269SOL    HW2 1315   2.542   2.070   1.588
 2270SOL     OW 1316   3.302   2.718   1.398
 2270SOL    HW1 1317   3.245   2.770   1.335
 2270SOL    HW2 1318   3.398   2.730   1.374
 2273SOL     OW 1319   2.475   2.704   1.431
 2273SOL    HW1 1320   2.531   2.785   1.414
 2273SOL    HW2 1321   2.534   2.624   1.434
 2275SOL     OW 1322   2.578   2.427   1.708
 2275SOL    HW1 1323   2.597   2.492   1.782
 2275SOL    HW2 1324   2.638   2.347   1.717
 2276SOL     OW 1325   3.312   3.082   1.633
 2276SOL    HW1 1326   3.303   3.072   1.732
 2276SOL    HW2 1327   3.408   3.075   1.607
 2277SOL     OW 1328   2.252   3.603   1.560
 2277SOL    HW1 1329   2.161   3.644   1.558
 2277SOL    HW2 1330   2.245   3.509   1.592
 2278SOL     OW 1331   3.536   2.745   1.254
 2278SOL    HW1 1332   3.509   2.656   1.217
 2278SOL    HW2 1333   3.537   2.813   1.181
 2281SOL     OW 1334   3.639   2.204   1.642
 2281SOL    HW1 1335   3.622   2.235   1.548
 2281SOL    HW2 1336   3.555   2.167   1.680
 2282SOL     OW 1337   3.592   2.796   1.517
 2282SOL    HW1 1338   3.630   2.887   1.532
 2282SOL    HW2 1339   3.584   2.779   1.418
 2285SOL     OW 1340   2.721   2.818   0.861
 2285SOL    HW1 1341   2.775   2.749   0.909
 2285SOL    HW2 1342   2.689   2.887   0.927
 2288SOL     OW 1343   2.083   3.176   1.844
 2288SOL    HW1 1344   2.018   3.103   1.823
 2288SOL    HW2 1345   2.087   3.190   1.942
 2290SOL     OW 1346   2.534   3.253   1.624
 2290SOL    HW1 1347   2.456   3.203   1.662
 2290SOL    HW2 1348   2.531   3.348   1.655
 2291SOL     OW 1349   3.686   2.054   1.227
 2291SOL    HW1 1350   3.682   1.964   1.271
 2291SOL    HW2 1351   3.689   2.043   1.128
 2294SOL     OW 1352   2.179   2.409   1.280
 2294SOL    HW1 1353   2.217   2.350   1.352
 2294SOL    HW2 1354   2.219   2.383   1.192
 2296SOL     OW 1355   3.286   2.076   1.112
 2296SOL    HW1 1356   3.338   2.011   1.167
 2296SOL    HW2 1357   3.237   2.139   1.173
 2297SOL     OW 1358   2.863   1.896   1.154
 2297SOL    HW1 1359   2.800   1.824   1.123
 2297SOL    HW2 1360   2.956   1.860   1.154
 2299SOL     OW 1361   2.480   3.429   1.284
 2299SOL    HW1 1362   2.475   3.511   1.341
 2299SOL    HW2 1363   2.569   3.426   1.239
 2304SOL     OW 1364   2.092   2.490   1.975
 2304SOL    HW1 1365   1.999   2.488   2.012
 2304SOL    HW2 1366   2.093   2.451   1.883
 2305SOL     OW 1367   2.087   2.137   2.858
 2305SOL    HW1 1368   2.122   2.120   2.950
 2305SOL    HW2 1369   1.999   2.092   2.846
 2306SOL     OW 1370   1.881   2.230   2.509
 2306SOL    HW1 1371   1.799   2.273   2.548
 2306SOL    HW2 1372   1.853   2.157   2.446
 2307SOL     OW 1373   2.431   3.137   3.027
 2307SOL    HW1 1374   2.338   3.130   2.990
 2307SOL    HW2 1375   2.442   3.226   3.071
 2308SOL     OW 1376   3.417   3.373   2.565
 2308SOL    HW1 1377   3.360   3.357   2.646
 2308SOL    HW2 1378   3.358   3.383   2.485
 2309SOL     OW 1379   2.997   2.565   2.579
 2309SOL    HW1 1380   3.054   2.643   2.554
 2309SOL    HW2 1381   2.937   2.591   2.655
 2310SOL     OW 1382   3.617   2.469   2.093
 2310SOL    HW1 1383   3.605   2.456   1.994
 2310SOL    HW2 1384   3.587   2.388   2.142
 2311SOL     OW 1385   2.630   3.006   2.885
 2311SOL    HW1 1386   2.552   3.023   2.945
 2311SOL    HW2 1387   2.664   3.093   2.849
 2312SOL     OW 1388   2.712   2.660   3.685
 2312SOL    HW1 1389   2.708   2.736   3.750
 2312SOL    HW2 1390   2.734   2.696   3.594
 2313SOL     OW 1391   2.548   3.023   3.665
 2313SOL    HW1 1392   2.608   3.102   3.679
 2313SOL    HW2 1393   2.462   3.054   3.624
 2314SOL     OW 1394   2.197   3.297   2.923
 2314SOL    HW1 1395   2.119   3.266   2.870
 2314SOL    HW2 1396   2.255   3.355   2.866
 2315SOL     OW 1397   3.322   3.367   3.201
 2315SOL    HW1 1398   3.346   3.461   3.227
 2315SOL    HW2 1399   3.306   3.313   3.283
 2316SOL     OW 1400   2.300   2.254   3.361
 2316SOL    HW1 1401   2.382   2.198   3.370
 2316SOL    HW2 1402   2.219   2.196   3.365
 2317SOL     OW 1403   3.465   2.309   2.599
 2317SOL    HW1 1404   3.391   2.355   2.549
 2317SOL    HW2 1405   3.516   2.377   2.652
 2318SOL     OW 1406   2.093   3.575   2.345
 2318SOL    HW1 1407   2.127   3.652   2.399
 2318SOL    HW2 1408   2.137   3.575   2.255
 2319SOL     OW 1409   2.989   3.203   3.552
 2319SOL    HW1 1410   3.036   3.203   3.640
 2319SOL    HW2 1411   2.941   3.116   3.541
 2320SOL     OW 1412   2.092   3.296   2.400
 2320SOL    HW1 1413   2.066   3.392   2.400
 2320SOL    HW2 1414   2.021   3.242   2.445
 2321SOL     OW 1415   2.102   2.953   2.748
 2321SOL    HW1 1416   2.116   2.869   2.800
 2321SOL    HW2 1417   2.047   3.017   2.803
 2322SOL     OW 1418   2.482   3.648   3.301
 2322SOL    HW1 1419   2.390   3.631   3.336
 2322SOL    HW2 1420   2.510   3.740   3.327
 2323SOL     OW 1421   2.468   2.826   1.985
 2323SOL    HW1 1422   2.475   2.910   1.931
 2323SOL    HW2 1423   2.514   2.839   2.073
 2324SOL     OW 1424   3.456   1.976   3.342
 2324SOL    HW1 1425   3.438   2.043   3.270
 2324SOL    HW2 1426   3.453   2.022   3.431
 2325SOL     OW 1427   1.984   2.505   2.425
 2325SOL    HW1 1428   1.939   2.417   2.442
 2325SOL    HW2 1429   1.983   2.559   2.509
 2326SOL     OW 1430   3.704   3.629   2.221
 2326SOL    HW1 1431   3.758   3.600   2.301
 2326SOL    HW2 1432   3.734   3.719   2.192
 2327SOL     OW 1433   1.889   3.458   1.979
 2327SOL    HW1 1434   1.870   3.362   2.000
 2327SOL    HW2 1435   1.856   3.516   2.054
 2328SOL     OW 1436   3.551   2.784   2.474
 2328SOL    HW1 1437   3.646   2.755   2.482
 2328SOL    HW2 1438   3.543   2.849   2.399
 2329SOL     OW 1439   3.503   2.970   2.294
 2329SOL    HW1 1440   3.589   2.972   2.242
 2329SOL    HW2 1441   3.517   3.017   2.382
 2330SOL     OW 1442   1.975   2.599   3.459
 2330SOL    HW1 1443   2.063   2.586   3.504
 2330SOL    HW2 1444   1.962   2.696   3.437
 2331SOL     OW 1445   2.475   3.227   2.588
 2331SOL    HW1 1446   2.426   3.140   2.597
 2331SOL    HW2 1447   2.452   3.270   2.501
 2332SOL     OW 1448   3.155   3.090   3.285
 2332SOL    HW1 1449   3.192   3.017   3.227
 2332SOL    HW2 1450   3.207   3.095   3.370
 2333SOL     OW 1451   2.671   1.866   2.364
 2333SOL    HW1 1452   2.711   1.957   2.355
 2333SOL    HW2 1453   2.571   1.874   2.370
 2334SOL     OW 1454   2.059   2.838   3.126
 2334SOL    HW1 1455   2.148   2.793   3.112
 2334SOL    HW2 1456   1.986   2.773   3.107
 2335SOL     OW 1457   3.387   2.861   2.052
 2335SOL    HW1 1458   3.324   2.785   2.065
 2335SOL    HW2 1459   3.435   2.879   2.138
 2336SOL     OW 1460   3.049   3.654   3.478
 2336SOL    HW1 1461   3.073   3.714   3.402
 2336SOL    HW2 1462   3.056   3.559   3.448
 2337SOL     OW 1463   2.179   2.113   3.663
 2337SOL    HW1 1464   2.250   2.184   3.669
 2337SOL    HW2 1465   2.091   2.152   3.691
 2338SOL     OW 1466   3.328   3.279   2.815
 2338SOL    HW1 1467   3.269   3.285   2.895
 2338SOL    HW2 1468   3.313   3.191   2.769
 2339SOL     OW 1469   3.529   3.576   2.434
 2339SOL    HW1 1470   3.488   3.553   2.346
 2339SOL    HW2 1471   3.511   3.502   2.499
 2340SOL     OW 1472   2.460   2.591   2.132
 2340SOL    HW1 1473   2.484   2.660   2.064
 2340SOL    HW2 1474   2.382   2.624   2.186
 2341SOL     OW 1475   3.143   2.207   2.806
 2341SOL    HW1 1476   3.057   2.157   2.793
 2341SOL    HW2 1477   3.205   2.153   2.862
 2342SOL     OW 1478   3.438   3.524   2.169
 2342SOL    HW1 1479   3.527   3.570   2.172
 2342SOL    HW2 1480   3.417   3.500   2.074
 2343SOL     OW 1481   2.669   2.467   3.327
 2343SOL    HW1 1482   2.622   2.464   3.416
 2343SOL    HW2 1483   2.618   2.412   3.261
 2344SOL     OW 1484   3.256   2.331   3.536
 2344SOL    HW1 1485   3.236   2.374   3.624
 2344SOL    HW2 1486   3.334   2.269   3.545
 2345SOL     OW 1487   2.835   2.752   3.434
 2345SOL    HW1 1488   2.881   2.668   3.405
 2345SOL    HW2 1489   2.779   2.786   3.359
 2346SOL     OW 1490   2.853   2.272   3.104
 2346SOL    HW1 1491   2.776   2.306   3.158
 2346SOL    HW2 1492   2.819   2.221   3.025
 2347SOL     OW 1493   1.938   2.673   2.651
 2347SOL    HW1 1494   2.037   2.661   2.660
 2347SOL    HW2 1495   1.914   2.768   2.672
 2348SOL     OW 1496   1.992   3.683   3.433
 2348SOL    HW1 1497   1.982   3.668   3.532
 2348SOL    HW2 1498   1.906   3.719   3.397
 2349SOL     OW 1499   2.727   2.210   2.057
 2349SOL    HW1 1500   2.786   2.273   2.008
 2349SOL    HW2 1501   2.746   2.116   2.028
 2350SOL     OW 1502   3.581   2.447   3.693
 2350SOL    HW1 1503   3.555   2.536   3.657
 2350SOL    HW2 1504   3.579   2.379   3.620
 2351SOL     OW 1505   3.224   3.006   2.407
 2351SOL    HW1 1506   3.307   2.977   2.359
 2351SOL    HW2 1507   3.175   3.073   2.351
 2352SOL     OW 1508   2.412   2.058   2.747
 2352SOL    HW1 1509   2.407   2.053   2.847
 2352SOL    HW2 1510   2.414   2.154   2.718
 2353SOL     OW 1511   2.870   3.318   2.339
 2353SOL    HW1 1512   2.824   3.390   2.287
 2353SOL    HW2 1513   2.866   3.338   2.437
 2354SOL     OW 1514   2.213   3.663   2.715
 2354SOL    HW1 1515   2.263   3.577   2.721
 2354SOL    HW2 1516   2.278   3.740   2.712
 2355SOL     OW 1517   3.657   2.928   2.735
 2355SOL    HW1 1518   3.595   2.913   2.659
 2355SOL    HW2 1519   3.605   2.939   2.820
 2356SOL     OW 1520   3.089   3.412   3.368
 2356SOL    HW1 1521   3.095   3.335   3.432
 2356SOL    HW2 1522   3.037   3.386   3.288
 2357SOL     OW 1523   2.183   2.805   2.104
 2357SOL    HW1 1524   2.265   2.844   2.062
 2357SOL    HW2 1525   2.156   2.723   2.055
 2358SOL     OW 1526   3.320   2.597   2.590
 2358SOL    HW1 1527   3.315   2.532   2.665
 2358SOL    HW2 1528   3.400   2.656   2.603
 2359SOL     OW 1529   2.323   3.128   3.589
 2359SOL    HW1 1530   2.273   3.129   3.503
 2359SOL    HW2 1531   2.260   3.110   3.665
 2360SOL     OW 1532   2.973   3.638   2.099
 2360SOL    HW1 1533   2.913   3.576   2.149
 2360SOL    HW2 1534   3.004   3.594   2.014
 2361SOL     OW 1535   2.064   2.147   3.360
 2361SOL    HW1 1536   1.984   2.207   3.347
 2361SOL    HW2 1537   2.054   2.098   3.446
 2362SOL     OW 1538   3.494   3.239   1.943
 2362SOL    HW1 1539   3.462   3.333   1.933
 2362SOL    HW2 1540   3.418   3.176   1.931
 2363SOL     OW 1541   2.326   3.605   2.185
 2363SOL    HW1 1542   2.359   3.644   2.271
 2363SOL    HW2 1543   2.402   3.598   2.120
 2364SOL     OW 1544   3.262   1.969   2.288
 2364SOL    HW1 1545   3.238   1.932   2.198
 2364SOL    HW2 1546   3.361   1.985   2.292
 2365SOL     OW 1547   2.111   3.647   3.103
 2365SOL    HW1 1548   2.168   3.582   3.153
 2365SOL    HW2 1549   2.095   3.614   3.010
 2366SOL     OW 1550   2.802   3.560   2.766
 2366SOL    HW1 1551   2.882   3.503   2.787
 2366SOL    HW2 1552   2.753   3.520   2.689
 2367SOL     OW 1553   2.244   2.562   2.342
 2367SOL    HW1 1554   2.289   2.472   2.339
 2367SOL    HW2 1555   2.150   2.551   2.375
 2368SOL     OW 1556   3.409   2.084   3.591
 2368SOL    HW1 1557   3.404   2.121   3.683
 2368SOL    HW2 1558   3.337   2.015   3.579
 2369SOL     OW 1559   2.476   1.984   1.979
 2369SOL    HW1 1560   2.574   1.962   1.986
 2369SOL    HW2 1561   2.445   1.967   1.886
 2370SOL     OW 1562   2.643   2.126   3.611
 2370SOL    HW1 1563   2.710   2.065   3.654
 2370SOL    HW2 1564   2.570   2.145   3.676
 2371SOL     OW 1565   2.750   3.376   3.057
 2371SOL    HW1 1566   2.727   3.351   2.963
 2371SOL    HW2 1567   2.811   3.307   3.096
 2372SOL     OW 1568   3.213   2.452   3.295
 2372SOL    HW1 1569   3.241   2.409   3.380
 2372SOL    HW2 1570   3.238   2.548   3.296
 2373SOL     OW 1571   2.665   3.264   2.786
 2373SOL    HW1 1572   2.755   3.278   2.744
 2373SOL    HW2 1573   2.594   3.266   2.715
 2374SOL     OW 1574   2.784   2.365   2.761
 2374SOL    HW1 1575   2.759   2.356   2.665
 2374SOL    HW2 1576   2.832   2.283   2.792
 2375SOL     OW 1577   3.296   3.050   1.903
 2375SOL    HW1 1578   3.328   2.974   1.960
 2375SOL    HW2 1579   3.204   3.077   1.933
 2376SOL     OW 1580   2.159   1.897   2.033
 2376SOL    HW1 1581   2.208   1.981   2.012
 2376SOL    HW2 1582   2.221   1.832   2.078
 2377SOL     OW 1583   2.797   2.098   2.342
 2377SOL    HW1 1584   2.749   2.139   2.264
 2377SOL    HW2 1585   2.896   2.096   2.323
 2378SOL     OW 1586   2.938   2.545   3.326
 2378SOL    HW1 1587   2.858   2.484   3.329
 2378SOL    HW2 1588   3.019   2.492   3.302
 2379SOL     OW 1589   3.089   3.432   2.655
 2379SOL    HW1 1590   3.110   3.506   2.590
 2379SOL    HW2 1591   3.157   3.432   2.728
 2380SOL     OW 1592   2.321   3.014   2.603
 2380SOL    HW1 1593   2.250   2.987   2.668
 2380SOL    HW2 1594   2.295   2.986   2.510
 2381SOL     OW 1595   3.133   3.659   2.453
 2381SOL    HW1 1596   3.177   3.723   2.389
 2381SOL    HW2 1597   3.083   3.711   2.523
 2382SOL     OW 1598   2.894   2.411   1.878
 2382SOL    HW1 1599   2.853   2.493   1.839
 2382SOL    HW2 1600   2.958   2.437   1.951
 2383SOL     OW 1601   1.940   2.418   3.248
 2383SOL    HW1 1602   2.032   2.417   3.207
 2383SOL    HW2 1603   1.934   2.492   3.315
 2384SOL     OW 1604   2.423   2.084   3.009
 2384SOL    HW1 1605   2.461   2.000   3.046
 2384SOL    HW2 1606   2.335   2.103   3.053
 2385SOL     OW 1607   2.879   1.901   2.615
 2385SOL    HW1 1608   2.807   1.906   2.546
 2385SOL    HW2 1609   2.855   1.832   2.684
 2386SOL     OW 1610   3.291   3.035   2.729
 2386SOL    HW1 1611   3.236   2.951   2.722
 2386SOL    HW2 1612   3.317   3.064   2.637
 2387SOL     OW 1613   3.328   2.452   2.854
 2387SOL    HW1 1614   3.298   2.357   2.861
 2387SOL    HW2 1615   3.401   2.468   2.920
 2388SOL     OW 1616   3.719   2.695   2.239
 2388SOL    HW1 1617   3.761   2.631   2.303
 2388SOL    HW2 1618   3.681   2.644   2.161
 2389SOL     OW 1619   2.350   3.247   2.036
 2389SOL    HW1 1620   2.263   3.232   2.083
 2389SOL    HW2 1621   2.333   3.273   1.941
 2390SOL     OW 1622   3.526   3.142   2.519
 2390SOL    HW1 1623   3.625   3.150   2.533
 2390SOL    HW2 1624   3.481   3.226   2.550
 2391SOL     OW 1625   3.252   2.437   1.940
 2391SOL    HW1 1626   3.198   2.416   2.021
 2391SOL    HW2 1627   3.343   2.396   1.949
 2392SOL     OW 1628   2.389   2.118   2.190
 2392SOL    HW1 1629   2.416   2.059   2.115
 2392SOL    HW2 1630   2.389   2.213   2.159
 2393SOL     OW 1631   3.616   3.085   3.450
 2393SOL    HW1 1632   3.707   3.046   3.437
 2393SOL    HW2 1633   3.624   3.181   3.474
 2394SOL     OW 1634   2.926   3.209   3.202
 2394SOL    HW1 1635   2.846   3.186   3.257
 2394SOL    HW2 1636   3.009   3.183   3.251
 2395SOL     OW 1637   3.454   3.491   3.487
 2395SOL    HW1 1638   3.481   3.525   3.397
 2395SOL    HW2 1639   3.533   3.453   3.533
 2396SOL     OW 1640   2.973   3.057   2.962
 2396SOL    HW1 1641   2.933   3.101   3.043
 2396SOL    HW2 1642   2.932   3.094   2.879
 2397SOL     OW 1643   3.500   2.961   2.941
 2397SOL    HW1 1644   3.505   3.042   3.000
 2397SOL    HW2 1645   3.414   2.963   2.890
 2398SOL     OW 1646   2.777   1.951   3.264
 2398SOL    HW1 1647   2.802   1.931   3.169
 2398SOL    HW2 1648   2.849   2.007   3.306
 2399SOL     OW 1649   2.842   2.978   3.581
 2399SOL    HW1 1650   2.743   2.984   3.591
 2399SOL    HW2 1651   2.865   2.898   3.525
 2400SOL     OW 1652   2.567   2.912   2.230
 2400SOL    HW1 1653   2.553   2.919   2.329
 2400SOL    HW2 1654   2.651   2.861   2.212
 2401SOL     OW 1655   2.272   2.675   3.113
 2401SOL    HW1 1656   2.358   2.687   3.163
 2401SOL    HW2 1657   2.230   2.588   3.140
 2402SOL     OW 1658   3.136   2.248   3.124
 2402SOL    HW1 1659   3.157   2.322   3.188
 2402SOL    HW2 1660   3.047   2.265   3.081
 2403SOL     OW 1661   1.926   3.426   3.193
 2403SOL    HW1 1662   1.880   3.508   3.159
 2403SOL    HW2 1663   2.024   3.445   3.202
 2404SOL     OW 1664   2.229   2.962   2.363
 2404SOL    HW1 1665   2.222   3.045   2.307
 2404SOL    HW2 1666   2.233   2.882   2.303
 2405SOL     OW 1667   3.114   3.210   2.250
 2405SOL    HW1 1668   3.164   3.287   2.290
 2405SOL    HW2 1669   3.019   3.212   2.282
 2406SOL     OW 1670   3.134   3.307   3.004
 2406SOL    HW1 1671   3.181   3.320   3.091
 2406SOL    HW2 1672   3.068   3.233   3.013
 2407SOL     OW 1673   3.444   2.501   2.334
 2407SOL    HW1 1674   3.413   2.562   2.407
 2407SOL    HW2 1675   3.494   2.553   2.265
 2408SOL     OW 1676   2.216   3.372   3.191
 2408SOL    HW1 1677   2.195   3.328   3.104
 2408SOL    HW2 1678   2.313   3.398   3.194
 2409SOL     OW 1679   2.264   2.613   3.460
 2409SOL    HW1 1680   2.332   2.668   3.413
 2409SOL    HW2 1681   2.304   2.525   3.487
 2410SOL     OW 1682   3.449   2.641   3.532
 2410SOL    HW1 1683   3.357   2.679   3.527
 2410SOL    HW2 1684   3.509   2.688   3.467
 2411SOL     OW 1685   2.875   1.967   3.632
 2411SOL    HW1 1686   2.881   2.052   3.580
 2411SOL    HW2 1687   2.907   1.891   3.575
 2412SOL     OW 1688   2.366   1.912   3.602
 2412SOL    HW1 1689   2.324   1.855   3.532
 2412SOL    HW2 1690   2.300   1.981   3.634
 2413SOL     OW 1691   2.435   2.732   2.891
 2413SOL    HW1 1692   2.479   2.821   2.882
 2413SOL    HW2 1693   2.372   2.732   2.968
 2414SOL     OW 1694   3.222   2.724   2.907
 2414SOL    HW1 1695   3.147   2.724   2.841
 2414SOL    HW2 1696   3.259   2.632   2.916
 2415SOL     OW 1697   3.071   2.387   2.137
 2415SOL    HW1 1698   3.084   2.303   2.191
 2415SOL    HW2 1699   3.042   2.461   2.197
 2416SOL     OW 1700   2.169   2.075   3.093
 2416SOL    HW1 1701   2.146   2.112   3.183
 2416SOL    HW2 1702   2.139   1.980   3.087
 2417SOL     OW 1703   1.899   3.172   3.144
 2417SOL    HW1 1704   1.952   3.123   3.212
 2417SOL    HW2 1705   1.921   3.270   3.149
 2418SOL     OW 1706   2.594   2.496   2.926
 2418SOL    HW1 1707   2.653   2.470   2.850
 2418SOL    HW2 1708   2.566   2.592   2.915
 2419SOL     OW 1709   3.590   2.797   3.716
 2419SOL    HW1 1710   3.544   2.790   3.627
 2419SOL    HW2 1711   3.528   2.841   3.782
 2420SOL     OW 1712   3.484   2.229   2.236
 2420SOL    HW1 1713   3.486   2.153   2.300
 2420SOL    HW2 1714   3.436   2.306   2.276
 2421SOL     OW 1715   2.885   2.628   2.828
 2421SOL    HW1 1716   2.900   2.649   2.924
 2421SOL    HW2 1717   2.855   2.533   2.819
 2422SOL     OW 1718   2.842   3.435   3.562
 2422SOL    HW1 1719   2.822   3.479   3.474
 2422SOL    HW2 1720   2.881   3.344   3.546
 2423SOL     OW 1721   3.721   3.380   3.467
 2423SOL    HW1 1722   3.735   3.407   3.372
 2423SOL    HW2 1723   3.804   3.402   3.520
 2424SOL     OW 1724   2.212   2.760   3.666
 2424SOL    HW1 1725   2.288   2.804   3.714
 2424SOL    HW2 1726   2.247   2.713   3.584
 2425SOL     OW 1727   3.402   2.136   1.987
 2425SOL    HW1 1728   3.341   2.061   2.010
 2425SOL    HW2 1729   3.424   2.188   2.070
 2426SOL     OW 1730   3.165   2.700   1.904
 2426SOL    HW1 1731   3.199   2.607   1.919
 2426SOL    HW2 1732   3.183   2.727   1.809
 2427SOL     OW 1733   2.930   3.195   2.711
 2427SOL    HW1 1734   2.937   3.111   2.656
 2427SOL    HW2 1735   2.992   3.264   2.675
 2428SOL     OW 1736   2.181   2.672   2.811
 2428SOL    HW1 1737   2.274   2.708   2.816
 2428SOL    HW2 1738   2.175   2.587   2.863
 2429SOL     OW 1739   2.201   2.371   2.868
 2429SOL    HW1 1740   2.149   2.288   2.851
 2429SOL    HW2 1741   2.278   2.376   2.804
 2430SOL     OW 1742   3.000   2.242   3.540
 2430SOL    HW1 1743   2.955   2.305   3.604
 2430SOL    HW2 1744   3.093   2.273   3.523
 2431SOL     OW 1745   3.022   2.069   3.339
 2431SOL    HW1 1746   3.022   2.133   3.416
 2431SOL    HW2 1747   3.050   2.117   3.256
 2432SOL     OW 1748   1.870   3.188   2.062
 2432SOL    HW1 1749   1.777   3.209   2.031
 2432SOL    HW2 1750   1.880   3.089   2.075
 2433SOL     OW 1751   1.950   3.663   2.789
 2433SOL    HW1 1752   1.908   3.577   2.762
 2433SOL    HW2 1753   2.044   3.666   2.755
 2434SOL     OW 1754   2.366   3.430   2.772
 2434SOL    HW1 1755   2.432   3.504   2.781
 2434SOL    HW2 1756   2.410   3.351   2.730
 2435SOL     OW 1757   2.864   2.658   3.100
 2435SOL    HW1 1758   2.905   2.626   3.186
 2435SOL    HW2 1759   2.768   2.631   3.097
 2436SOL     OW 1760   1.902   2.406   2.976
 2436SOL    HW1 1761   1.987   2.373   2.935
 2436SOL    HW2 1762   1.915   2.421   3.074
 2437SOL     OW 1763   2.051   2.382   3.584
 2437SOL    HW1 1764   2.110   2.342   3.514
 2437SOL    HW2 1765   1.993   2.453   3.543
 2438SOL     OW 1766   3.231   2.812   3.522
 2438SOL    HW1 1767   3.270   2.901   3.542
 2438SOL    HW2 1768   3.241   2.792   3.425
 2439SOL     OW 1769   2.677   2.434   2.187
 2439SOL    HW1 1770   2.684   2.345   2.141
 2439SOL    HW2 1771   2.583   2.468   2.179
 2440SOL     OW 1772   3.519   2.466   3.068
 2440SOL    HW1 1773   3.481   2.397   3.130
 2440SOL    HW2 1774   3.601   2.430   3.024
 2441SOL     OW 1775   2.114   3.426   3.606
 2441SOL    HW1 1776   2.084   3.483   3.682
 2441SOL    HW2 1777   2.107   3.329   3.632
 2442SOL     OW 1778   2.533   2.326   3.131
 2442SOL    HW1 1779   2.499   2.237   3.101
 2442SOL    HW2 1780   2.559   2.380   3.051
 2443SOL     OW 1781   2.792   3.540   3.327
 2443SOL    HW1 1782   2.768   3.522   3.232
 2443SOL    HW2 1783   2.822   3.634   3.337
 2444SOL     OW 1784   2.335   2.362   2.053
 2444SOL    HW1 1785   2.396   2.442   2.057
 2444SOL    HW2 1786   2.240   2.393   2.060
 2445SOL     OW 1787   2.021   2.999   3.328
 2445SOL    HW1 1788   2.043   2.938   3.404
 2445SOL    HW2 1789   2.031   2.950   3.242
 2446SOL     OW 1790   3.209   2.921   3.096
 2446SOL    HW1 1791   3.233   2.858   3.022
 2446SOL    HW2 1792   3.119   2.961   3.078
 2447SOL     OW 1793   3.164   2.717   2.171
 2447SOL    HW1 1794   3.078   2.686   2.213
 2447SOL    HW2 1795   3.160   2.703   2.072
 2448SOL     OW 1796   3.621   3.609   3.016
 2448SOL    HW1 1797   3.682   3.639   2.943
 2448SOL    HW2 1798   3.583   3.520   2.994
 2449SOL     OW 1799   3.114   3.593   2.990
 2449SOL    HW1 1800   3.198   3.598   2.936
 2449SOL    HW2 1801   3.091   3.497   3.008
 2450SOL     OW 1802   1.945   3.120   2.884
 2450SOL    HW1 1803   1.940   3.119   2.984
 2450SOL    HW2 1804   1.862   3.079   2.846
 2451SOL     OW 1805   2.550   3.524   3.578
 2451SOL    HW1 1806   2.494   3.605   3.587
 2451SOL    HW2 1807   2.602   3.528   3.492
 2452SOL     OW 1808   3.588   1.997   2.385
 2452SOL    HW1 1809   3.661   1.980   2.318
 2452SOL    HW2 1810   3.557   1.910   2.423
 2453SOL     OW 1811   3.250   3.435   2.339
 2453SOL    HW1 1812   3.317   3.447   2.265
 2453SOL    HW2 1813   3.210   3.524   2.362
 2454SOL     OW 1814   1.992   3.656   3.713
 2454SOL    HW1 1815   1.951   3.582   3.766
 2454SOL    HW2 1816   2.056   3.707   3.771
 2455SOL     OW 1817   3.142   2.789   2.534
 2455SOL    HW1 1818   3.202   2.708   2.536
 2455SOL    HW2 1819   3.182   2.858   2.474
 2456SOL     OW 1820   2.692   3.135   3.284
 2456SOL    HW1 1821   2.687   3.168   3.379
 2456SOL    HW2 1822   2.606   3.154   3.238
 2457SOL     OW 1823   2.534   3.478   2.016
 2457SOL    HW1 1824   2.543   3.488   1.917
 2457SOL    HW2 1825   2.494   3.389   2.037
 2458SOL     OW 1826   3.512   3.582   3.256
 2458SOL    HW1 1827   3.565   3.592   3.172
 2458SOL    HW2 1828   3.485   3.672   3.290
 2459SOL     OW 1829   3.703   2.037   2.825
 2459SOL    HW1 1830   3.742   1.952   2.789
 2459SOL    HW2 1831   3.605   2.039   2.806
 2460SOL     OW 1832   3.056   3.474   1.893
 2460SOL    HW1 1833   3.062   3.381   1.930
 2460SOL    HW2 1834   2.997   3.474   1.813
 2461SOL     OW 1835   2.684   2.864   3.234
 2461SOL    HW1 1836   2.724   2.863   3.142
 2461SOL    HW2 1837   2.694   2.956   3.274
 2462SOL     OW 1838   2.778   2.772   2.153
 2462SOL    HW1 1839   2.841   2.810   2.085
 2462SOL    HW2 1840   2.818   2.689   2.192
 2463SOL     OW 1841   3.366   3.469   1.906
 2463SOL    HW1 1842   3.274   3.506   1.913
 2463SOL    HW2 1843   3.404   3.489   1.816
 2464SOL     OW 1844   2.234   3.150   3.352
 2464SOL    HW1 1845   2.221   3.243   3.318
 2464SOL    HW2 1846   2.150   3.098   3.339
 2465SOL     OW 1847   3.476   3.154   3.151
 2465SOL    HW1 1848   3.536   3.157   3.231
 2465SOL    HW2 1849   3.401   3.218   3.164
 2466SOL     OW 1850   2.901   2.960   2.558
 2466SOL    HW1 1851   2.831   2.913   2.612
 2466SOL    HW2 1852   2.960   2.892   2.515
 2467SOL     OW 1853   2.876   2.098   2.833
 2467SOL    HW1 1854   2.868   2.062   2.740
 2467SOL    HW2 1855   2.874   2.022   2.898
 2468SOL     OW 1856   2.452   3.349   2.353
 2468SOL    HW1 1857   2.494   3.291   2.283
 2468SOL    HW2 1858   2.408   3.428   2.309
 2469SOL     OW 1859   3.571   2.247   3.243
 2469SOL    HW1 1860   3.644   2.316   3.247
 2469SOL    HW2 1861   3.599   2.172   3.184
 2470SOL     OW 1862   2.117   3.210   2.152
 2470SOL    HW1 1863   2.021   3.211   2.125
 2470SOL    HW2 1864   2.129   3.263   2.236
 2471SOL     OW 1865   1.967   2.875   3.588
 2471SOL    HW1 1866   1.890   2.842   3.642
 2471SOL    HW2 1867   2.052   2.845   3.630
 2472SOL     OW 1868   2.534   2.065   3.351
 2472SOL    HW1 1869   2.624   2.049   3.311
 2472SOL    HW2 1870   2.542   2.070   3.450
 2473SOL     OW 1871   1.937   2.207   1.895
 2473SOL    HW1 1872   1.845   2.179   1.866
 2473SOL    HW2 1873   1.968   2.284   1.839
 2474SOL     OW 1874   3.302   2.718   3.260
 2474SOL    HW1 1875   3.245   2.770   3.197
 2474SOL    HW2 1876   3.398   2.730   3.236
 2475SOL     OW 1877   1.934   2.028   2.180
 2475SOL    HW1 1878   1.917   2.111   2.126
 2475SOL    HW2 1879   2.024   1.991   2.158
 2476SOL     OW 1880   3.045   3.197   1.981
 2476SOL    HW1 1881   2.946   3.186   1.983
 2476SOL    HW2 1882   3.079   3.212   2.074
 2477SOL     OW 1883   2.475   2.704   3.293
 2477SOL    HW1 1884   2.531   2.785   3.276
 2477SOL    HW2 1885   2.534   2.624   3.296
 2478SOL     OW 1886   3.355   3.629   2.821
 2478SOL    HW1 1887   3.388   3.693   2.752
 2478SOL    HW2 1888   3.421   3.623   2.896
 2479SOL     OW 1889   2.578   2.427   3.570
 2479SOL    HW1 1890   2.597   2.492   3.644
 2479SOL    HW2 1891   2.638   2.347   3.579
 2480SOL     OW 1892   3.312   3.082   3.495
 2480SOL    HW1 1893   3.303   3.072   3.594
 2480SOL    HW2 1894   3.408   3.075   3.469
 2481SOL     OW 1895   2.252   3.603   3.422
 2481SOL    HW1 1896   2.161   3.644   3.420
 2481SOL    HW2 1897   2.245   3.509   3.454
 2482SOL     OW 1898   3.536   2.745   3.116
 2482SOL    HW1 1899   3.509   2.656   3.079
 2482SOL    HW2 1900   3.537   2.813   3.043
 2483SOL     OW 1901   3.087   2.187   2.311
 2483SOL    HW1 1902   3.152   2.113   2.300
 2483SOL    HW2 1903   3.107   2.237   2.395
 2484SOL     OW 1904   3.639   2.204   3.504
 2484SOL    HW1 1905   3.622   2.235   3.410
 2484SOL    HW2 1906   3.555   2.167   3.542
 2485SOL     OW 1907   3.592   2.796   3.379
 2485SOL    HW1 1908   3.630   2.887   3.394
 2485SOL    HW2 1909   3.584   2.779   3.280
 2486SOL     OW 1910   2.721   3.236   1.878
 2486SOL    HW1 1911   2.675   3.251   1.966
 2486SOL    HW2 1912   2.765   3.321   1.848
 2487SOL     OW 1913   2.523   3.652   2.815
 2487SOL    HW1 1914   2.477   3.740   2.802
 2487SOL    HW2 1915   2.622   3.664   2.808
 2488SOL     OW 1916   2.721   2.818   2.723
 2488SOL    HW1 1917   2.775   2.749   2.771
 2488SOL    HW2 1918   2.689   2.887   2.789
 2489SOL     OW 1919   2.945   2.846   1.949
 2489SOL    HW1 1920   2.922   2.899   1.867
 2489SOL    HW2 1921   3.026   2.790   1.930
 2490SOL     OW 1922   3.723   3.431   2.713
 2490SOL    HW1 1923   3.652   3.419   2.643
 2490SOL    HW2 1924   3.724   3.352   2.773
 2491SOL     OW 1925   2.083   3.176   3.706
 2491SOL    HW1 1926   2.018   3.103   3.685
 2491SOL    HW2 1927   2.087   3.190   3.804
 2492SOL     OW 1928   1.941   3.102   2.515
 2492SOL    HW1 1929   1.940   3.055   2.603
 2492SOL    HW2 1930   2.023   3.074   2.464
 2493SOL     OW 1931   2.534   3.253   3.486
 2493SOL    HW1 1932   2.456   3.203   3.524
 2493SOL    HW2 1933   2.531   3.348   3.517
 2494SOL     OW 1934   3.686   2.054   3.089
 2494SOL    HW1 1935   3.682   1.964   3.133
 2494SOL    HW2 1936   3.689   2.043   2.990
 2495SOL     OW 1937   3.567   3.349   2.966
 2495SOL    HW1 1938   3.474   3.324   2.939
 2495SOL    HW2 1939   3.593   3.299   3.048
 2496SOL     OW 1940   2.179   2.409   3.142
 2496SOL    HW1 1941   2.217   2.350   3.214
 2496SOL    HW2 1942   2.219   2.383   3.054
 2497SOL     OW 1943   2.674   3.448   2.549
 2497SOL    HW1 1944   2.706   3.458   2.455
 2497SOL    HW2 1945   2.595   3.386   2.551
 2498SOL     OW 1946   3.286   2.076   2.974
 2498SOL    HW1 1947   3.338   2.011   3.029
 2498SOL    HW2 1948   3.237   2.139   3.035
 2499SOL     OW 1949   2.863   1.896   3.016
 2499SOL    HW1 1950   2.800   1.824   2.985
 2499SOL    HW2 1951   2.956   1.860   3.016
 2500SOL     OW 1952   2.632   3.192   2.163
 2500SOL    HW1 1953   2.586   3.105   2.180
 2500SOL    HW2 1954   2.723   3.189   2.204
 2501SOL     OW 1955   2.480   3.429   3.146
 2501SOL    HW1 1956   2.475   3.511   3.203
 2501SOL    HW2 1957   2.569   3.426   3.101
 2502SOL     OW 1958   3.214   1.914   2.030
 2502SOL    HW1 1959   3.249   1.873   1.946
 2502SOL    HW2 1960   3.124   1.876   2.050
 2503SOL     OW 1961   3.162   2.315   2.553
 2503SOL    HW1 1962   3.103   2.395   2.557
 2503SOL    HW2 1963   3.177   2.280   2.646
 2504SOL     OW 1964   3.455   2.083   2.744
 2504SOL    HW1 1965   3.371   2.082   2.798
 2504SOL    HW2 1966   3.457   2.166   2.688
 2505SOL     OW 1967   1.901   2.939   2.162
 2505SOL    HW1 1968   2.000   2.928   2.153
 2505SOL    HW2 1969   1.861   2.853   2.194
 2506SOL     OW 1970   2.737   3.508   2.199
 2506SOL    HW1 1971   2.660   3.473   2.145
 2506SOL    HW2 1972   2.705   3.579   2.261
 2507SOL     OW 1973   2.092   2.490   3.837
 2507SOL    HW1 1974   1.999   2.488   3.874
 2507SOL    HW2 1975   2.093   2.451   3.745
 2521SOL     OW 1976   2.468   2.826   3.847
 2521SOL    HW1 1977   2.475   2.910   3.793
 2521SOL    HW2 1978   2.514   2.839   3.935
 2524SOL     OW 1979   1.889   3.458   3.841
 2524SOL    HW1 1980   1.870   3.362   3.862
 2524SOL    HW2 1981   1.856   3.516   3.916
 2530SOL     OW 1982   3.387   2.861   3.914
 2530SOL    HW1 1983   3.324   2.785   3.927
 2530SOL    HW2 1984   3.435   2.879   4.000
 2533SOL     OW 1985   2.460   2.591   3.994
 2533SOL    HW1 1986   2.484   2.660   3.926
 2533SOL    HW2 1987   2.382   2.624   4.048
 2536SOL     OW 1988   2.903   2.563   4.153
 2536SOL    HW1 1989   2.929   2.559   4.249
 2536SOL    HW2 1990   2.818   2.512   4.139
 2538SOL     OW 1991   2.727   2.210   3.919
 2538SOL    HW1 1992   2.786   2.273   3.870
 2538SOL    HW2 1993   2.746   2.116   3.890
 2544SOL     OW 1994   2.183   2.805   3.966
 2544SOL    HW1 1995   2.265   2.844   3.924
 2544SOL    HW2 1996   2.156   2.723   3.917
 2552SOL     OW 1997   2.244   2.562   4.204
 2552SOL    HW1 1998   2.289   2.472   4.201
 2552SOL    HW2 1999   2.150   2.551   4.237
 2553SOL     OW 2000   2.476   1.984   3.841
 2553SOL    HW1 2001   2.574   1.962   3.848
 2553SOL    HW2 2002   2.445   1.967   3.748
 2557SOL     OW 2003   3.296   3.050   3.765
 2557SOL    HW1 2004   3.328   2.974   3.822
 2557SOL    HW2 2005   3.204   3.077   3.795
 2558SOL     OW 2006   2.159   1.897   3.895
 2558SOL    HW1 2007   2.208   1.981   3.874
 2558SOL    HW2 2008   2.221   1.832   3.940
 2559SOL     OW 2009   2.797   2.098   4.204
 2559SOL    HW1 2010   2.749   2.139   4.126
 2559SOL    HW2 2011   2.896   2.096   4.185
 2563SOL     OW 2012   2.894   2.411   3.740
 2563SOL    HW1 2013   2.853   2.493   3.701
 2563SOL    HW2 2014   2.958   2.437   3.813
 2569SOL     OW 2015   2.350   3.247   3.898
 2569SOL    HW1 2016   2.263   3.232   3.945
 2569SOL    HW2 2017   2.333   3.273   3.803
 2571SOL     OW 2018   3.252   2.437   3.802
 2571SOL    HW1 2019   3.198   2.416   3.883
 2571SOL    HW2 2020   3.343   2.396   3.811
 2572SOL     OW 2021   2.389   2.118   4.052
 2572SOL    HW1 2022   2.416   2.059   3.977
 2572SOL    HW2 2023   2.389   2.213   4.021
 2575SOL     OW 2024   2.567   2.912   4.092
 2575SOL    HW1 2025   2.553   2.919   4.191
 2575SOL    HW2 2026   2.651   2.861   4.074
 2584SOL     OW 2027   3.071   2.387   3.999
 2584SOL    HW1 2028   3.084   2.303   4.053
 2584SOL    HW2 2029   3.042   2.461   4.059
 2591SOL     OW 2030   3.402   2.136   3.849
 2591SOL    HW1 2031   3.341   2.061   3.872
 2591SOL    HW2 2032   3.424   2.188   3.932
 2592SOL     OW 2033   3.165   2.700   3.766
 2592SOL    HW1 2034   3.199   2.607   3.781
 2592SOL    HW2 2035   3.183   2.727   3.671
 2597SOL     OW 2036   1.870   3.188   3.924
 2597SOL    HW1 2037   1.777   3.209   3.893
 2597SOL    HW2 2038   1.880   3.089   3.937
 2602SOL     OW 2039   2.677   2.434   4.049
 2602SOL    HW1 2040   2.684   2.345   4.003
 2602SOL    HW2 2041   2.583   2.468   4.041
 2605SOL     OW 2042   2.335   2.362   3.915
 2605SOL    HW1 2043   2.396   2.442   3.919
 2605SOL    HW2 2044   2.240   2.393   3.922
 2608SOL     OW 2045   3.164   2.717   4.033
 2608SOL    HW1 2046   3.078   2.686   4.075
 2608SOL    HW2 2047   3.160   2.703   3.934
 2614SOL     OW 2048   2.534   3.478   3.878
 2614SOL    HW1 2049   2.543   3.488   3.779
 2614SOL    HW2 2050   2.494   3.389   3.899
 2617SOL     OW 2051   3.056   3.474   3.755
 2617SOL    HW1 2052   3.062   3.381   3.792
 2617SOL    HW2 2053   2.997   3.474   3.675
 2619SOL     OW 2054   2.778   2.772   4.015
 2619SOL    HW1 2055   2.841   2.810   3.947
 2619SOL    HW2 2056   2.818   2.689   4.054
 2625SOL     OW 2057   2.117   3.210   4.014
 2625SOL    HW1 2058   2.021   3.211   3.987
 2625SOL    HW2 2059   2.129   3.263   4.098
 2626SOL     OW 2060   1.937   2.207   3.757
 2626SOL    HW1 2061   1.845   2.179   3.728
 2626SOL    HW2 2062   1.968   2.284   3.701
 2627SOL     OW 2063   1.934   2.028   4.042
 2627SOL    HW1 2064   1.917   2.111   3.988
 2627SOL    HW2 2065   2.024   1.991   4.020
 2628SOL     OW 2066   3.045   3.197   3.843
 2628SOL    HW1 2067   2.946   3.186   3.845
 2628SOL    HW2 2068   3.079   3.212   3.936
 2634SOL     OW 2069   2.721   3.236   3.740
 2634SOL    HW1 2070   2.675   3.251   3.828
 2634SOL    HW2 2071   2.765   3.321   3.710
 2637SOL     OW 2072   2.945   2.846   3.811
 2637SOL    HW1 2073   2.922   2.899   3.729
 2637SOL    HW2 2074   3.026   2.790   3.792
 2641SOL     OW 2075   2.290   2.286   4.244
 2641SOL    HW1 2076   2.320   2.214   4.182
 2641SOL    HW2 2077   2.251   2.246   4.327
 2646SOL     OW 2078   2.632   3.192   4.025
 2646SOL    HW1 2079   2.586   3.105   4.042
 2646SOL    HW2 2080   2.723   3.189   4.066
 2647SOL     OW 2081   3.214   1.914   3.892
 2647SOL    HW1 2082   3.249   1.873   3.808
 2647SOL    HW2 2083   3.124   1.876   3.912
 2650SOL     OW 2084   1.901   2.939   4.024
 2650SOL    HW1 2085   2.000   2.928   4.015
 2650SOL    HW2 2086   1.861   2.853   4.056
 2674SOL     OW 2087   2.179   3.975   1.801
 2674SOL    HW1 2088   2.250   4.046   1.807
 2674SOL    HW2 2089   2.091   4.014   1.829
 2695SOL     OW 2090   2.643   3.988   1.749
 2695SOL    HW1 2091   2.710   3.927   1.792
 2695SOL    HW2 2092   2.570   4.007   1.814
 2715SOL     OW 2093   2.777   3.813   1.402
 2715SOL    HW1 2094   2.802   3.793   1.307
 2715SOL    HW2 2095   2.849   3.869   1.444
 2725SOL     OW 2096   2.875   3.829   1.770
 2725SOL    HW1 2097   2.881   3.914   1.718
 2725SOL    HW2 2098   2.907   3.753   1.713
 2726SOL     OW 2099   2.366   3.774   1.740
 2726SOL    HW1 2100   2.324   3.717   1.670
 2726SOL    HW2 2101   2.300   3.843   1.772
 2768SOL     OW 2102   2.534   3.927   1.489
 2768SOL    HW1 2103   2.624   3.911   1.449
 2768SOL    HW2 2104   2.542   3.932   1.588
 2792SOL     OW 2105   2.087   3.999   2.858
 2792SOL    HW1 2106   2.122   3.982   2.950
 2792SOL    HW2 2107   1.999   3.954   2.846
 2793SOL     OW 2108   1.881   4.092   2.509
 2793SOL    HW1 2109   1.799   4.135   2.548
 2793SOL    HW2 2110   1.853   4.019   2.446
 2810SOL     OW 2111   2.671   3.728   2.364
 2810SOL    HW1 2112   2.711   3.819   2.355
 2810SOL    HW2 2113   2.571   3.736   2.370
 2815SOL     OW 2114   3.143   4.069   2.806
 2815SOL    HW1 2115   3.057   4.019   2.793
 2815SOL    HW2 2116   3.205   4.015   2.862
 2819SOL     OW 2117   2.853   4.134   3.104
 2819SOL    HW1 2118   2.776   4.168   3.158
 2819SOL    HW2 2119   2.819   4.083   3.025
 2822SOL     OW 2120   2.727   4.072   2.057
 2822SOL    HW1 2121   2.786   4.135   2.008
 2822SOL    HW2 2122   2.746   3.978   2.028
 2825SOL     OW 2123   2.412   3.920   2.747
 2825SOL    HW1 2124   2.407   3.915   2.847
 2825SOL    HW2 2125   2.414   4.016   2.718
 2829SOL     OW 2126   2.064   4.009   3.360
 2829SOL    HW1 2127   1.984   4.069   3.347
 2829SOL    HW2 2128   2.054   3.960   3.446
 2830SOL     OW 2129   3.262   3.831   2.288
 2830SOL    HW1 2130   3.238   3.794   2.198
 2830SOL    HW2 2131   3.361   3.847   2.292
 2833SOL     OW 2132   2.476   3.846   1.979
 2833SOL    HW1 2133   2.574   3.824   1.986
 2833SOL    HW2 2134   2.445   3.829   1.886
 2836SOL     OW 2135   2.784   4.227   2.761
 2836SOL    HW1 2136   2.759   4.218   2.665
 2836SOL    HW2 2137   2.832   4.145   2.792
 2837SOL     OW 2138   2.401   3.788   2.374
 2837SOL    HW1 2139   2.320   3.789   2.432
 2837SOL    HW2 2140   2.404   3.871   2.319
 2838SOL     OW 2141   2.159   3.759   2.033
 2838SOL    HW1 2142   2.208   3.843   2.012
 2838SOL    HW2 2143   2.221   3.694   2.078
 2839SOL     OW 2144   2.797   3.960   2.342
 2839SOL    HW1 2145   2.749   4.001   2.264
 2839SOL    HW2 2146   2.896   3.958   2.323
 2844SOL     OW 2147   2.423   3.946   3.009
 2844SOL    HW1 2148   2.461   3.862   3.046
 2844SOL    HW2 2149   2.335   3.965   3.053
 2845SOL     OW 2150   2.728   4.178   2.504
 2845SOL    HW1 2151   2.696   4.250   2.442
 2845SOL    HW2 2152   2.752   4.097   2.451
 2846SOL     OW 2153   2.879   3.763   2.615
 2846SOL    HW1 2154   2.807   3.768   2.546
 2846SOL    HW2 2155   2.855   3.694   2.684
 2851SOL     OW 2156   2.389   3.980   2.190
 2851SOL    HW1 2157   2.416   3.921   2.115
 2851SOL    HW2 2158   2.389   4.075   2.159
 2854SOL     OW 2159   2.777   3.813   3.264
 2854SOL    HW1 2160   2.802   3.793   3.169
 2854SOL    HW2 2161   2.849   3.869   3.306
 2860SOL     OW 2162   2.428   4.261   2.727
 2860SOL    HW1 2163   2.440   4.327   2.653
 2860SOL    HW2 2164   2.474   4.295   2.810
 2864SOL     OW 2165   2.875   3.829   3.632
 2864SOL    HW1 2166   2.881   3.914   3.580
 2864SOL    HW2 2167   2.907   3.753   3.575
 2865SOL     OW 2168   2.366   3.774   3.602
 2865SOL    HW1 2169   2.324   3.717   3.532
 2865SOL    HW2 2170   2.300   3.843   3.634
 2869SOL     OW 2171   2.169   3.937   3.093
 2869SOL    HW1 2172   2.146   3.974   3.183
 2869SOL    HW2 2173   2.139   3.842   3.087
 2872SOL     OW 2174   2.169   3.787   2.480
 2872SOL    HW1 2175   2.158   3.881   2.513
 2872SOL    HW2 2176   2.164   3.724   2.557
 2879SOL     OW 2177   2.201   4.233   2.868
 2879SOL    HW1 2178   2.149   4.150   2.851
 2879SOL    HW2 2179   2.278   4.238   2.804
 2881SOL     OW 2180   3.022   3.931   3.339
 2881SOL    HW1 2181   3.022   3.995   3.416
 2881SOL    HW2 2182   3.050   3.979   3.256
 2890SOL     OW 2183   2.335   4.224   2.053
 2890SOL    HW1 2184   2.396   4.304   2.057
 2890SOL    HW2 2185   2.240   4.255   2.060
 2895SOL     OW 2186   3.588   3.859   2.385
 2895SOL    HW1 2187   3.661   3.842   2.318
 2895SOL    HW2 2188   3.557   3.772   2.423
 2898SOL     OW 2189   2.125   4.050   2.582
 2898SOL    HW1 2190   2.046   4.101   2.548
 2898SOL    HW2 2191   2.116   4.035   2.680
 2904SOL     OW 2192   2.876   3.960   2.833
 2904SOL    HW1 2193   2.868   3.924   2.740
 2904SOL    HW2 2194   2.874   3.884   2.898
 2907SOL     OW 2195   2.534   3.927   3.351
 2907SOL    HW1 2196   2.624   3.911   3.311
 2907SOL    HW2 2197   2.542   3.932   3.450
 2908SOL     OW 2198   1.937   4.069   1.895
 2908SOL    HW1 2199   1.845   4.041   1.866
 2908SOL    HW2 2200   1.968   4.146   1.839
 2910SOL     OW 2201   1.934   3.890   2.180
 2910SOL    HW1 2202   1.917   3.973   2.126
 2910SOL    HW2 2203   2.024   3.853   2.158
 2915SOL     OW 2204   3.087   4.049   2.311
 2915SOL    HW1 2205   3.152   3.975   2.300
 2915SOL    HW2 2206   3.107   4.099   2.395
 2923SOL     OW 2207   2.290   4.148   2.382
 2923SOL    HW1 2208   2.320   4.076   2.320
 2923SOL    HW2 2209   2.251   4.108   2.465
 2925SOL     OW 2210   3.286   3.938   2.974
 2925SOL    HW1 2211   3.338   3.873   3.029
 2925SOL    HW2 2212   3.237   4.001   3.035
 2926SOL     OW 2213   2.863   3.758   3.016
 2926SOL    HW1 2214   2.800   3.686   2.985
 2926SOL    HW2 2215   2.956   3.722   3.016
 2928SOL     OW 2216   3.214   3.776   2.030
 2928SOL    HW1 2217   3.249   3.735   1.946
 2928SOL    HW2 2218   3.124   3.738   2.050
 2930SOL     OW 2219   3.455   3.945   2.744
 2930SOL    HW1 2220   3.371   3.944   2.798
 2930SOL    HW2 2221   3.457   4.028   2.688
 3062SOL     OW 2222   3.854   1.821   1.571
 3062SOL    HW1 2223   3.844   1.806   1.670
 3062SOL    HW2 2224   3.768   1.857   1.535
 3140SOL     OW 2225   3.854   1.794   1.851
 3140SOL    HW1 2226   3.813   1.720   1.904
 3140SOL    HW2 2227   3.918   1.845   1.909
 3183SOL     OW 2228   3.955   1.713   2.345
 3183SOL    HW1 2229   3.989   1.790   2.399
 3183SOL    HW2 2230   3.999   1.713   2.255
 3190SOL     OW 2231   3.751   1.596   1.979
 3190SOL    HW1 2232   3.732   1.500   2.000
 3190SOL    HW2 2233   3.718   1.654   2.054
 3202SOL     OW 2234   3.854   1.821   3.433
 3202SOL    HW1 2235   3.844   1.806   3.532
 3202SOL    HW2 2236   3.768   1.857   3.397
 3206SOL     OW 2237   4.075   1.801   2.715
 3206SOL    HW1 2238   4.125   1.715   2.721
 3206SOL    HW2 2239   4.140   1.878   2.712
 3213SOL     OW 2240   3.973   1.785   3.103
 3213SOL    HW1 2241   4.030   1.720   3.153
 3213SOL    HW2 2242   3.957   1.752   3.010
 3241SOL     OW 2243   3.788   1.564   3.193
 3241SOL    HW1 2244   3.742   1.646   3.159
 3241SOL    HW2 2245   3.886   1.583   3.202
 3265SOL     OW 2246   3.732   1.326   2.062
 3265SOL    HW1 2247   3.639   1.347   2.031
 3265SOL    HW2 2248   3.742   1.227   2.075
 3266SOL     OW 2249   3.812   1.801   2.789
 3266SOL    HW1 2250   3.770   1.715   2.762
 3266SOL    HW2 2251   3.906   1.804   2.755
 3429SOL     OW 2252   3.837   2.599   1.597
 3429SOL    HW1 2253   3.925   2.586   1.642
 3429SOL    HW2 2254   3.824   2.696   1.575
 3433SOL     OW 2255   4.041   2.113   1.801
 3433SOL    HW1 2256   4.112   2.184   1.807
 3433SOL    HW2 2257   3.953   2.152   1.829
 3449SOL     OW 2258   3.926   2.147   1.498
 3449SOL    HW1 2259   3.846   2.207   1.485
 3449SOL    HW2 2260   3.916   2.098   1.584
 3467SOL     OW 2261   3.802   2.418   1.386
 3467SOL    HW1 2262   3.894   2.417   1.345
 3467SOL    HW2 2263   3.796   2.492   1.453
 3496SOL     OW 2264   4.074   2.760   1.804
 3496SOL    HW1 2265   4.150   2.804   1.852
 3496SOL    HW2 2266   4.109   2.713   1.722
 3507SOL     OW 2267   3.913   2.382   1.722
 3507SOL    HW1 2268   3.972   2.342   1.652
 3507SOL    HW2 2269   3.855   2.453   1.681
 3513SOL     OW 2270   3.883   2.999   1.466
 3513SOL    HW1 2271   3.905   2.938   1.542
 3513SOL    HW2 2272   3.893   2.950   1.380
 3529SOL     OW 2273   3.829   2.875   1.726
 3529SOL    HW1 2274   3.752   2.842   1.780
 3529SOL    HW2 2275   3.914   2.845   1.768
 3540SOL     OW 2276   3.945   3.176   1.844
 3540SOL    HW1 2277   3.880   3.103   1.823
 3540SOL    HW2 2278   3.949   3.190   1.942
 3551SOL     OW 2279   3.954   2.490   1.975
 3551SOL    HW1 2280   3.861   2.488   2.012
 3551SOL    HW2 2281   3.955   2.451   1.883
 3552SOL     OW 2282   3.949   2.137   2.858
 3552SOL    HW1 2283   3.984   2.120   2.950
 3552SOL    HW2 2284   3.861   2.092   2.846
 3553SOL     OW 2285   3.743   2.230   2.509
 3553SOL    HW1 2286   3.661   2.273   2.548
 3553SOL    HW2 2287   3.715   2.157   2.446
 3564SOL     OW 2288   3.954   3.296   2.400
 3564SOL    HW1 2289   3.928   3.392   2.400
 3564SOL    HW2 2290   3.883   3.242   2.445
 3565SOL     OW 2291   3.964   2.953   2.748
 3565SOL    HW1 2292   3.978   2.869   2.800
 3565SOL    HW2 2293   3.909   3.017   2.803
 3568SOL     OW 2294   3.846   2.505   2.425
 3568SOL    HW1 2295   3.801   2.417   2.442
 3568SOL    HW2 2296   3.845   2.559   2.509
 3569SOL     OW 2297   3.751   3.458   1.979
 3569SOL    HW1 2298   3.732   3.362   2.000
 3569SOL    HW2 2299   3.718   3.516   2.054
 3570SOL     OW 2300   3.837   2.599   3.459
 3570SOL    HW1 2301   3.925   2.586   3.504
 3570SOL    HW2 2302   3.824   2.696   3.437
 3573SOL     OW 2303   3.921   2.838   3.126
 3573SOL    HW1 2304   4.010   2.793   3.112
 3573SOL    HW2 2305   3.848   2.773   3.107
 3580SOL     OW 2306   3.800   2.673   2.651
 3580SOL    HW1 2307   3.899   2.661   2.660
 3580SOL    HW2 2308   3.776   2.768   2.672
 3587SOL     OW 2309   4.045   2.805   2.104
 3587SOL    HW1 2310   4.127   2.844   2.062
 3587SOL    HW2 2311   4.018   2.723   2.055
 3590SOL     OW 2312   3.926   2.147   3.360
 3590SOL    HW1 2313   3.846   2.207   3.347
 3590SOL    HW2 2314   3.916   2.098   3.446
 3594SOL     OW 2315   4.106   2.562   2.342
 3594SOL    HW1 2316   4.151   2.472   2.339
 3594SOL    HW2 2317   4.012   2.551   2.375
 3601SOL     OW 2318   4.021   1.897   2.033
 3601SOL    HW1 2319   4.070   1.981   2.012
 3601SOL    HW2 2320   4.083   1.832   2.078
 3605SOL     OW 2321   4.183   3.014   2.603
 3605SOL    HW1 2322   4.112   2.987   2.668
 3605SOL    HW2 2323   4.157   2.986   2.510
 3608SOL     OW 2324   3.802   2.418   3.248
 3608SOL    HW1 2325   3.894   2.417   3.207
 3608SOL    HW2 2326   3.796   2.492   3.315
 3619SOL     OW 2327   4.134   2.675   3.113
 3619SOL    HW1 2328   4.220   2.687   3.163
 3619SOL    HW2 2329   4.092   2.588   3.140
 3620SOL     OW 2330   3.788   3.426   3.193
 3620SOL    HW1 2331   3.742   3.508   3.159
 3620SOL    HW2 2332   3.886   3.445   3.202
 3621SOL     OW 2333   4.091   2.962   2.363
 3621SOL    HW1 2334   4.084   3.045   2.307
 3621SOL    HW2 2335   4.095   2.882   2.303
 3631SOL     OW 2336   4.031   2.075   3.093
 3631SOL    HW1 2337   4.008   2.112   3.183
 3631SOL    HW2 2338   4.001   1.980   3.087
 3632SOL     OW 2339   3.761   3.172   3.144
 3632SOL    HW1 2340   3.814   3.123   3.212
 3632SOL    HW2 2341   3.783   3.270   3.149
 3634SOL     OW 2342   4.031   1.925   2.480
 3634SOL    HW1 2343   4.020   2.019   2.513
 3634SOL    HW2 2344   4.026   1.862   2.557
 3640SOL     OW 2345   4.043   2.672   2.811
 3640SOL    HW1 2346   4.136   2.708   2.816
 3640SOL    HW2 2347   4.037   2.587   2.863
 3641SOL     OW 2348   4.063   2.371   2.868
 3641SOL    HW1 2349   4.011   2.288   2.851
 3641SOL    HW2 2350   4.140   2.376   2.804
 3644SOL     OW 2351   3.732   3.188   2.062
 3644SOL    HW1 2352   3.639   3.209   2.031
 3644SOL    HW2 2353   3.742   3.089   2.075
 3645SOL     OW 2354   3.812   3.663   2.789
 3645SOL    HW1 2355   3.770   3.577   2.762
 3645SOL    HW2 2356   3.906   3.666   2.755
 3648SOL     OW 2357   3.764   2.406   2.976
 3648SOL    HW1 2358   3.849   2.373   2.935
 3648SOL    HW2 2359   3.777   2.421   3.074
 3649SOL     OW 2360   3.913   2.382   3.584
 3649SOL    HW1 2361   3.972   2.342   3.514
 3649SOL    HW2 2362   3.855   2.453   3.543
 3654SOL     OW 2363   4.197   2.362   2.053
 3654SOL    HW1 2364   4.258   2.442   2.057
 3654SOL    HW2 2365   4.102   2.393   2.060
 3655SOL     OW 2366   3.883   2.999   3.328
 3655SOL    HW1 2367   3.905   2.938   3.404
 3655SOL    HW2 2368   3.893   2.950   3.242
 3657SOL     OW 2369   3.807   3.120   2.884
 3657SOL    HW1 2370   3.802   3.119   2.984
 3657SOL    HW2 2371   3.724   3.079   2.846
 3662SOL     OW 2372   3.987   2.188   2.582
 3662SOL    HW1 2373   3.908   2.239   2.548
 3662SOL    HW2 2374   3.978   2.173   2.680
 3669SOL     OW 2375   3.979   3.210   2.152
 3669SOL    HW1 2376   3.883   3.211   2.125
 3669SOL    HW2 2377   3.991   3.263   2.236
 3670SOL     OW 2378   3.829   2.875   3.588
 3670SOL    HW1 2379   3.752   2.842   3.642
 3670SOL    HW2 2380   3.914   2.845   3.630
 3672SOL     OW 2381   3.799   2.207   1.895
 3672SOL    HW1 2382   3.707   2.179   1.866
 3672SOL    HW2 2383   3.830   2.284   1.839
 3673SOL     OW 2384   3.796   2.028   2.180
 3673SOL    HW1 2385   3.779   2.111   2.126
 3673SOL    HW2 2386   3.886   1.991   2.158
 3683SOL     OW 2387   3.803   3.102   2.515
 3683SOL    HW1 2388   3.802   3.055   2.603
 3683SOL    HW2 2389   3.885   3.074   2.464
 3685SOL     OW 2390   4.152   2.286   2.382
 3685SOL    HW1 2391   4.182   2.214   2.320
 3685SOL    HW2 2392   4.113   2.246   2.465
 3686SOL     OW 2393   4.041   2.409   3.142
 3686SOL    HW1 2394   4.079   2.350   3.214
 3686SOL    HW2 2395   4.081   2.383   3.054
 3691SOL     OW 2396   3.763   2.939   2.162
 3691SOL    HW1 2397   3.862   2.928   2.153
 3691SOL    HW2 2398   3.723   2.853   2.194
   4.99706   4.99706   4.99706
