; mobley_397645_GMX.itp created by acpype (v: 2023.10.27) on Thu May 21 00:22:00 2026

[ atomtypes ]
;name   bond_type     mass     charge   ptype   sigma         epsilon       Amb
 ca       ca          0.00000  0.00000   A     3.31521e-01   4.13379e-01 ; 1.86  0.0988
 c        c           0.00000  0.00000   A     3.31521e-01   4.13379e-01 ; 1.86  0.0988
 c3       c3          0.00000  0.00000   A     3.39771e-01   4.51035e-01 ; 1.91  0.1078
 o        o           0.00000  0.00000   A     3.04812e-01   6.12119e-01 ; 1.71  0.1463
 os       os          0.00000  0.00000   A     3.15610e-01   3.03758e-01 ; 1.77  0.0726
 ha       ha          0.00000  0.00000   A     2.62548e-01   6.73624e-02 ; 1.47  0.0161
 hc       hc          0.00000  0.00000   A     2.60018e-01   8.70272e-02 ; 1.46  0.0208
 h1       h1          0.00000  0.00000   A     2.42200e-01   8.70272e-02 ; 1.36  0.0208

[ moleculetype ]
;name            nrexcl
 mobley_397645    3

[ atoms ]
;   nr  type  resi  res  atom  cgnr     charge      mass       ; qtot   bond_type
     1   ca     1   MOL    C1    1    -0.097000     12.01000 ; qtot -0.097
     2   ca     1   MOL    C2    2    -0.148000     12.01000 ; qtot -0.245
     3   ca     1   MOL    C3    3    -0.148000     12.01000 ; qtot -0.393
     4   ca     1   MOL    C4    4    -0.071500     12.01000 ; qtot -0.465
     5   ca     1   MOL    C5    5    -0.071500     12.01000 ; qtot -0.536
     6   ca     1   MOL    C6    6    -0.134600     12.01000 ; qtot -0.671
     7    c     1   MOL    C7    7     0.646700     12.01000 ; qtot -0.024
     8   c3     1   MOL    C8    8    -0.101100     12.01000 ; qtot -0.125
     9   c3     1   MOL    C9    9     0.140400     12.01000 ; qtot 0.015
    10    o     1   MOL    O1   10    -0.547000     16.00000 ; qtot -0.532
    11   os     1   MOL    O2   11    -0.441900     16.00000 ; qtot -0.973
    12   ha     1   MOL    H1   12     0.136000      1.00800 ; qtot -0.837
    13   ha     1   MOL    H2   13     0.138500      1.00800 ; qtot -0.699
    14   ha     1   MOL    H3   14     0.138500      1.00800 ; qtot -0.560
    15   ha     1   MOL    H4   15     0.156000      1.00800 ; qtot -0.404
    16   ha     1   MOL    H5   16     0.156000      1.00800 ; qtot -0.248
    17   hc     1   MOL    H6   17     0.047700      1.00800 ; qtot -0.201
    18   hc     1   MOL    H7   18     0.047700      1.00800 ; qtot -0.153
    19   hc     1   MOL    H8   19     0.047700      1.00800 ; qtot -0.105
    20   h1     1   MOL    H9   20     0.052700      1.00800 ; qtot -0.053
    21   h1     1   MOL   H10   21     0.052700      1.00800 ; qtot 0.000

[ bonds ]
;   ai     aj funct   r             k
     1      2   1    1.3986e-01    2.9644e+05 ;     C1 - C2    
     1      3   1    1.3986e-01    2.9644e+05 ;     C1 - C3    
     1     12   1    1.0860e-01    3.0183e+05 ;     C1 - H1    
     2      4   1    1.3986e-01    2.9644e+05 ;     C2 - C4    
     2     13   1    1.0860e-01    3.0183e+05 ;     C2 - H2    
     3      5   1    1.3986e-01    2.9644e+05 ;     C3 - C5    
     3     14   1    1.0860e-01    3.0183e+05 ;     C3 - H3    
     4      6   1    1.3986e-01    2.9644e+05 ;     C4 - C6    
     4     15   1    1.0860e-01    3.0183e+05 ;     C4 - H4    
     5      6   1    1.3986e-01    2.9644e+05 ;     C5 - C6    
     5     16   1    1.0860e-01    3.0183e+05 ;     C5 - H5    
     6      7   1    1.4907e-01    2.1994e+05 ;     C6 - C7    
     7     10   1    1.2190e-01    4.9421e+05 ;     C7 - O1    
     7     11   1    1.3621e-01    2.9398e+05 ;     C7 - O2    
     8      9   1    1.5354e-01    1.9154e+05 ;     C8 - C9    
     8     17   1    1.0962e-01    2.8891e+05 ;     C8 - H6    
     8     18   1    1.0962e-01    2.8891e+05 ;     C8 - H7    
     8     19   1    1.0962e-01    2.8891e+05 ;     C8 - H8    
     9     11   1    1.4273e-01    2.3620e+05 ;     C9 - O2    
     9     20   1    1.0969e-01    2.8804e+05 ;     C9 - H9    
     9     21   1    1.0969e-01    2.8804e+05 ;     C9 - H10   

[ pairs ]
;   ai     aj    funct
     1      6      1 ;     C1 - C6    
     1     15      1 ;     C1 - H4    
     1     16      1 ;     C1 - H5    
     2      5      1 ;     C2 - C5    
     2      7      1 ;     C2 - C7    
     2     14      1 ;     C2 - H3    
     3      4      1 ;     C3 - C4    
     3      7      1 ;     C3 - C7    
     3     13      1 ;     C3 - H2    
     4     10      1 ;     C4 - O1    
     4     11      1 ;     C4 - O2    
     4     16      1 ;     C4 - H5    
     5     10      1 ;     C5 - O1    
     5     11      1 ;     C5 - O2    
     5     15      1 ;     C5 - H4    
     6      9      1 ;     C6 - C9    
     6     13      1 ;     C6 - H2    
     6     14      1 ;     C6 - H3    
     7      8      1 ;     C7 - C8    
     7     15      1 ;     C7 - H4    
     7     16      1 ;     C7 - H5    
     7     20      1 ;     C7 - H9    
     7     21      1 ;     C7 - H10   
     9     10      1 ;     C9 - O1    
    11     17      1 ;     O2 - H6    
    11     18      1 ;     O2 - H7    
    11     19      1 ;     O2 - H8    
    12      4      1 ;     H1 - C4    
    12      5      1 ;     H1 - C5    
    12     13      1 ;     H1 - H2    
    12     14      1 ;     H1 - H3    
    13     15      1 ;     H2 - H4    
    14     16      1 ;     H3 - H5    
    17     20      1 ;     H6 - H9    
    17     21      1 ;     H6 - H10   
    18     20      1 ;     H7 - H9    
    18     21      1 ;     H7 - H10   
    19     20      1 ;     H8 - H9    
    19     21      1 ;     H8 - H10   

[ angles ]
;   ai     aj     ak    funct   theta         cth
     1      2      4      1    1.2002e+02    5.3279e+02 ;     C1 - C2     - C4    
     1      2     13      1    1.1988e+02    3.7572e+02 ;     C1 - C2     - H2    
     1      3      5      1    1.2002e+02    5.3279e+02 ;     C1 - C3     - C5    
     1      3     14      1    1.1988e+02    3.7572e+02 ;     C1 - C3     - H3    
     2      1      3      1    1.2002e+02    5.3279e+02 ;     C2 - C1     - C3    
     2      1     12      1    1.1988e+02    3.7572e+02 ;     C2 - C1     - H1    
     2      4      6      1    1.2002e+02    5.3279e+02 ;     C2 - C4     - C6    
     2      4     15      1    1.1988e+02    3.7572e+02 ;     C2 - C4     - H4    
     3      1     12      1    1.1988e+02    3.7572e+02 ;     C3 - C1     - H1    
     3      5      6      1    1.2002e+02    5.3279e+02 ;     C3 - C5     - C6    
     3      5     16      1    1.1988e+02    3.7572e+02 ;     C3 - C5     - H5    
     4      2     13      1    1.1988e+02    3.7572e+02 ;     C4 - C2     - H2    
     4      6      5      1    1.2002e+02    5.3279e+02 ;     C4 - C6     - C5    
     4      6      7      1    1.2033e+02    5.1413e+02 ;     C4 - C6     - C7    
     5      3     14      1    1.1988e+02    3.7572e+02 ;     C5 - C3     - H3    
     5      6      7      1    1.2033e+02    5.1413e+02 ;     C5 - C6     - C7    
     6      4     15      1    1.1988e+02    3.7572e+02 ;     C6 - C4     - H4    
     6      5     16      1    1.1988e+02    3.7572e+02 ;     C6 - C5     - H5    
     6      7     10      1    1.2260e+02    6.5237e+02 ;     C6 - C7     - O1    
     6      7     11      1    1.1241e+02    6.5756e+02 ;     C6 - C7     - O2    
     7     11      9      1    1.1582e+02    7.4835e+02 ;     C7 - O2     - C9    
     8      9     11      1    1.0762e+02    6.4802e+02 ;     C8 - C9     - O2    
     8      9     20      1    1.0959e+02    3.6217e+02 ;     C8 - C9     - H9    
     8      9     21      1    1.0959e+02    3.6217e+02 ;     C8 - C9     - H10   
     9      8     17      1    1.0968e+02    3.6208e+02 ;     C9 - C8     - H6    
     9      8     18      1    1.0968e+02    3.6208e+02 ;     C9 - C8     - H7    
     9      8     19      1    1.0968e+02    3.6208e+02 ;     C9 - C8     - H8    
    10      7     11      1    1.2320e+02    8.4734e+02 ;     O1 - C7     - O2    
    11      9     20      1    1.1034e+02    4.7028e+02 ;     O2 - C9     - H9    
    11      9     21      1    1.1034e+02    4.7028e+02 ;     O2 - C9     - H10   
    17      8     18      1    1.0773e+02    2.9957e+02 ;     H6 - C8     - H7    
    17      8     19      1    1.0773e+02    2.9957e+02 ;     H6 - C8     - H8    
    18      8     19      1    1.0773e+02    2.9957e+02 ;     H7 - C8     - H8    
    20      9     21      1    1.0855e+02    2.9824e+02 ;     H9 - C9     - H10   

[ dihedrals ] ; propers
; for gromacs 4.5 or higher, using funct 9
;    i      j      k      l   func   phase     kd      pn
     1      2      4      6      9   180.00  15.16700   2 ;     C1-    C2-    C4-    C6
     1      2      4     15      9   180.00  15.16700   2 ;     C1-    C2-    C4-    H4
     1      3      5      6      9   180.00  15.16700   2 ;     C1-    C3-    C5-    C6
     1      3      5     16      9   180.00  15.16700   2 ;     C1-    C3-    C5-    H5
     2      1      3      5      9   180.00  15.16700   2 ;     C2-    C1-    C3-    C5
     2      1      3     14      9   180.00  15.16700   2 ;     C2-    C1-    C3-    H3
     2      4      6      5      9   180.00  15.16700   2 ;     C2-    C4-    C6-    C5
     2      4      6      7      9   180.00  15.16700   2 ;     C2-    C4-    C6-    C7
     3      1      2      4      9   180.00  15.16700   2 ;     C3-    C1-    C2-    C4
     3      1      2     13      9   180.00  15.16700   2 ;     C3-    C1-    C2-    H2
     3      5      6      4      9   180.00  15.16700   2 ;     C3-    C5-    C6-    C4
     3      5      6      7      9   180.00  15.16700   2 ;     C3-    C5-    C6-    C7
     4      6      5     16      9   180.00  15.16700   2 ;     C4-    C6-    C5-    H5
     4      6      7     10      9   180.00   2.42672   2 ;     C4-    C6-    C7-    O1
     4      6      7     11      9   180.00   4.18400   2 ;     C4-    C6-    C7-    O2
     5      6      4     15      9   180.00  15.16700   2 ;     C5-    C6-    C4-    H4
     5      6      7     10      9   180.00   2.42672   2 ;     C5-    C6-    C7-    O1
     5      6      7     11      9   180.00   4.18400   2 ;     C5-    C6-    C7-    O2
     6      4      2     13      9   180.00  15.16700   2 ;     C6-    C4-    C2-    H2
     6      5      3     14      9   180.00  15.16700   2 ;     C6-    C5-    C3-    H3
     6      7     11      9      9     0.00   1.29704   3 ;     C6-    C7-    O2-    C9
     6      7     11      9      9   180.00   6.69440   1 ;     C6-    C7-    O2-    C9
     6      7     11      9      9   180.00  15.35528   2 ;     C6-    C7-    O2-    C9
     7      6      4     15      9   180.00  15.16700   2 ;     C7-    C6-    C4-    H4
     7      6      5     16      9   180.00  15.16700   2 ;     C7-    C6-    C5-    H5
     7     11      9      8      9     0.00   1.60247   3 ;     C7-    O2-    C9-    C8
     7     11      9      8      9   180.00   3.34720   1 ;     C7-    O2-    C9-    C8
     7     11      9     20      9     0.00   1.60387   3 ;     C7-    O2-    C9-    H9
     7     11      9     21      9     0.00   1.60387   3 ;     C7-    O2-    C9-   H10
     9     11      7     10      9   180.00   5.85760   1 ;     C9-    O2-    C7-    O1
     9     11      7     10      9   180.00  11.29680   2 ;     C9-    O2-    C7-    O1
    11      9      8     17      9     0.00   0.00000   0 ;     O2-    C9-    C8-    H6
    11      9      8     17      9     0.00   1.04600   1 ;     O2-    C9-    C8-    H6
    11      9      8     18      9     0.00   0.00000   0 ;     O2-    C9-    C8-    H7
    11      9      8     18      9     0.00   1.04600   1 ;     O2-    C9-    C8-    H7
    11      9      8     19      9     0.00   0.00000   0 ;     O2-    C9-    C8-    H8
    11      9      8     19      9     0.00   1.04600   1 ;     O2-    C9-    C8-    H8
    12      1      2      4      9   180.00  15.16700   2 ;     H1-    C1-    C2-    C4
    12      1      2     13      9   180.00  15.16700   2 ;     H1-    C1-    C2-    H2
    12      1      3      5      9   180.00  15.16700   2 ;     H1-    C1-    C3-    C5
    12      1      3     14      9   180.00  15.16700   2 ;     H1-    C1-    C3-    H3
    13      2      4     15      9   180.00  15.16700   2 ;     H2-    C2-    C4-    H4
    14      3      5     16      9   180.00  15.16700   2 ;     H3-    C3-    C5-    H5
    17      8      9     20      9     0.00   0.65084   3 ;     H6-    C8-    C9-    H9
    17      8      9     21      9     0.00   0.65084   3 ;     H6-    C8-    C9-   H10
    18      8      9     20      9     0.00   0.65084   3 ;     H7-    C8-    C9-    H9
    18      8      9     21      9     0.00   0.65084   3 ;     H7-    C8-    C9-   H10
    19      8      9     20      9     0.00   0.65084   3 ;     H8-    C8-    C9-    H9
    19      8      9     21      9     0.00   0.65084   3 ;     H8-    C8-    C9-   H10

[ dihedrals ] ; impropers
; treated as propers in GROMACS to use correct AMBER analytical function
;    i      j      k      l   func   phase     kd      pn
     1      4      2     13      4   180.00   4.60240   2 ;     C1-    C4-    C2-    H2
     1      5      3     14      4   180.00   4.60240   2 ;     C1-    C5-    C3-    H3
     2      6      4     15      4   180.00   4.60240   2 ;     C2-    C6-    C4-    H4
     3      6      5     16      4   180.00   4.60240   2 ;     C3-    C6-    C5-    H5
     6     10      7     11      4   180.00   4.60240   2 ;     C6-    O1-    C7-    O2
     7      4      6      5      4   180.00   4.60240   2 ;     C7-    C4-    C6-    C5
    12      1      3      2      4   180.00   4.60240   2 ;     H1-    C1-    C3-    C2
