; mobley_4193752_GMX.top created by acpype (v: 2023.10.27) on Thu May 21 00:21:28 2026

[ defaults ]
; nbfunc        comb-rule       gen-pairs       fudgeLJ fudgeQQ
1               2               yes             0.5     0.8333333333

; Include mobley_4193752_GMX.itp topology
#include "mobley_4193752_GMX.itp"

; Ligand position restraints
#ifdef POSRES_LIG
#include "posre_mobley_4193752.itp"
#endif


#include "/home/carla/github/Solvation-openMM/DADES/common/SOL.TIP3P.itp"

[ system ]
mobley_4193752 in water

[ molecules ]
; Compound        nmols
 mobley_4193752   1     
SOL 796
