; mobley_7360181_GMX.itp created by acpype (v: 2023.10.27) on Thu May 21 00:04:33 2026

[ atomtypes ]
;name   bond_type     mass     charge   ptype   sigma         epsilon       Amb
 c3       c3          0.00000  0.00000   A     3.39771e-01   4.51035e-01 ; 1.91  0.1078
 os       os          0.00000  0.00000   A     3.15610e-01   3.03758e-01 ; 1.77  0.0726
 f        f           0.00000  0.00000   A     3.03422e-01   3.48109e-01 ; 1.70  0.0832
 h1       h1          0.00000  0.00000   A     2.42200e-01   8.70272e-02 ; 1.36  0.0208

[ moleculetype ]
;name            nrexcl
 mobley_7360181   3

[ atoms ]
;   nr  type  resi  res  atom  cgnr     charge      mass       ; qtot   bond_type
     1   c3     1   MOL    C1    1     0.133033     12.01000 ; qtot 0.133
     2   c3     1   MOL    C2    2     0.133033     12.01000 ; qtot 0.266
     3   c3     1   MOL    C3    3     0.133033     12.01000 ; qtot 0.399
     4   c3     1   MOL    C4    4     0.512400     12.01000 ; qtot 0.911
     5   c3     1   MOL    C5    5     0.616899     12.01000 ; qtot 1.528
     6   os     1   MOL    O1    6    -0.436933     16.00000 ; qtot 1.091
     7   os     1   MOL    O2    7    -0.436933     16.00000 ; qtot 0.655
     8   os     1   MOL    O3    8    -0.436933     16.00000 ; qtot 0.218
     9    f     1   MOL    F1    9    -0.227633     19.00000 ; qtot -0.010
    10    f     1   MOL    F2   10    -0.227633     19.00000 ; qtot -0.238
    11    f     1   MOL    F3   11    -0.227633     19.00000 ; qtot -0.465
    12   h1     1   MOL    H1   12     0.051700      1.00800 ; qtot -0.414
    13   h1     1   MOL    H2   13     0.051700      1.00800 ; qtot -0.362
    14   h1     1   MOL    H3   14     0.051700      1.00800 ; qtot -0.310
    15   h1     1   MOL    H4   15     0.051700      1.00800 ; qtot -0.258
    16   h1     1   MOL    H5   16     0.051700      1.00800 ; qtot -0.207
    17   h1     1   MOL    H6   17     0.051700      1.00800 ; qtot -0.155
    18   h1     1   MOL    H7   18     0.051700      1.00800 ; qtot -0.103
    19   h1     1   MOL    H8   19     0.051700      1.00800 ; qtot -0.052
    20   h1     1   MOL    H9   20     0.051700      1.00800 ; qtot 0.000

[ bonds ]
;   ai     aj funct   r             k
     1      6   1    1.4273e-01    2.3620e+05 ;     C1 - O1    
     1     12   1    1.0969e-01    2.8804e+05 ;     C1 - H1    
     1     13   1    1.0969e-01    2.8804e+05 ;     C1 - H2    
     1     14   1    1.0969e-01    2.8804e+05 ;     C1 - H3    
     2      7   1    1.4273e-01    2.3620e+05 ;     C2 - O2    
     2     15   1    1.0969e-01    2.8804e+05 ;     C2 - H4    
     2     16   1    1.0969e-01    2.8804e+05 ;     C2 - H5    
     2     17   1    1.0969e-01    2.8804e+05 ;     C2 - H6    
     3      8   1    1.4273e-01    2.3620e+05 ;     C3 - O3    
     3     18   1    1.0969e-01    2.8804e+05 ;     C3 - H7    
     3     19   1    1.0969e-01    2.8804e+05 ;     C3 - H8    
     3     20   1    1.0969e-01    2.8804e+05 ;     C3 - H9    
     4      5   1    1.5354e-01    1.9154e+05 ;     C4 - C5    
     4      6   1    1.4273e-01    2.3620e+05 ;     C4 - O1    
     4      7   1    1.4273e-01    2.3620e+05 ;     C4 - O2    
     4      8   1    1.4273e-01    2.3620e+05 ;     C4 - O3    
     5      9   1    1.3512e-01    2.7973e+05 ;     C5 - F1    
     5     10   1    1.3512e-01    2.7973e+05 ;     C5 - F2    
     5     11   1    1.3512e-01    2.7973e+05 ;     C5 - F3    

[ pairs ]
;   ai     aj    funct
     1      5      1 ;     C1 - C5    
     1      7      1 ;     C1 - O2    
     1      8      1 ;     C1 - O3    
     2      5      1 ;     C2 - C5    
     2      6      1 ;     C2 - O1    
     2      8      1 ;     C2 - O3    
     3      5      1 ;     C3 - C5    
     3      6      1 ;     C3 - O1    
     3      7      1 ;     C3 - O2    
     4     15      1 ;     C4 - H4    
     4     16      1 ;     C4 - H5    
     4     17      1 ;     C4 - H6    
     4     18      1 ;     C4 - H7    
     4     19      1 ;     C4 - H8    
     4     20      1 ;     C4 - H9    
     6      9      1 ;     O1 - F1    
     6     10      1 ;     O1 - F2    
     6     11      1 ;     O1 - F3    
     7      9      1 ;     O2 - F1    
     7     10      1 ;     O2 - F2    
     7     11      1 ;     O2 - F3    
     8      9      1 ;     O3 - F1    
     8     10      1 ;     O3 - F2    
     8     11      1 ;     O3 - F3    
    12      4      1 ;     H1 - C4    
    13      4      1 ;     H2 - C4    
    14      4      1 ;     H3 - C4    

[ angles ]
;   ai     aj     ak    funct   theta         cth
     1      6      4      1    1.1360e+02    7.3915e+02 ;     C1 - O1     - C4    
     2      7      4      1    1.1360e+02    7.3915e+02 ;     C2 - O2     - C4    
     3      8      4      1    1.1360e+02    7.3915e+02 ;     C3 - O3     - C4    
     4      5      9      1    1.0948e+02    6.6408e+02 ;     C4 - C5     - F1    
     4      5     10      1    1.0948e+02    6.6408e+02 ;     C4 - C5     - F2    
     4      5     11      1    1.0948e+02    6.6408e+02 ;     C4 - C5     - F3    
     5      4      6      1    1.0762e+02    6.4802e+02 ;     C5 - C4     - O1    
     5      4      7      1    1.0762e+02    6.4802e+02 ;     C5 - C4     - O2    
     5      4      8      1    1.0762e+02    6.4802e+02 ;     C5 - C4     - O3    
     6      1     12      1    1.1034e+02    4.7028e+02 ;     O1 - C1     - H1    
     6      1     13      1    1.1034e+02    4.7028e+02 ;     O1 - C1     - H2    
     6      1     14      1    1.1034e+02    4.7028e+02 ;     O1 - C1     - H3    
     6      4      7      1    1.0789e+02    8.2375e+02 ;     O1 - C4     - O2    
     6      4      8      1    1.0789e+02    8.2375e+02 ;     O1 - C4     - O3    
     7      2     15      1    1.1034e+02    4.7028e+02 ;     O2 - C2     - H4    
     7      2     16      1    1.1034e+02    4.7028e+02 ;     O2 - C2     - H5    
     7      2     17      1    1.1034e+02    4.7028e+02 ;     O2 - C2     - H6    
     7      4      8      1    1.0789e+02    8.2375e+02 ;     O2 - C4     - O3    
     8      3     18      1    1.1034e+02    4.7028e+02 ;     O3 - C3     - H7    
     8      3     19      1    1.1034e+02    4.7028e+02 ;     O3 - C3     - H8    
     8      3     20      1    1.1034e+02    4.7028e+02 ;     O3 - C3     - H9    
     9      5     10      1    1.0737e+02    8.9437e+02 ;     F1 - C5     - F2    
     9      5     11      1    1.0737e+02    8.9437e+02 ;     F1 - C5     - F3    
    10      5     11      1    1.0737e+02    8.9437e+02 ;     F2 - C5     - F3    
    12      1     13      1    1.0855e+02    2.9824e+02 ;     H1 - C1     - H2    
    12      1     14      1    1.0855e+02    2.9824e+02 ;     H1 - C1     - H3    
    13      1     14      1    1.0855e+02    2.9824e+02 ;     H2 - C1     - H3    
    15      2     16      1    1.0855e+02    2.9824e+02 ;     H4 - C2     - H5    
    15      2     17      1    1.0855e+02    2.9824e+02 ;     H4 - C2     - H6    
    16      2     17      1    1.0855e+02    2.9824e+02 ;     H5 - C2     - H6    
    18      3     19      1    1.0855e+02    2.9824e+02 ;     H7 - C3     - H8    
    18      3     20      1    1.0855e+02    2.9824e+02 ;     H7 - C3     - H9    
    19      3     20      1    1.0855e+02    2.9824e+02 ;     H8 - C3     - H9    

[ dihedrals ] ; propers
; for gromacs 4.5 or higher, using funct 9
;    i      j      k      l   func   phase     kd      pn
     1      6      4      5      9     0.00   0.33472   2 ;     C1-    O1-    C4-    C5
     1      6      4      5      9     0.00   3.13800   3 ;     C1-    O1-    C4-    C5
     1      6      4      5      9   180.00   3.68192   1 ;     C1-    O1-    C4-    C5
     1      6      4      7      9     0.00   3.55640   2 ;     C1-    O1-    C4-    O2
     1      6      4      7      9     0.00   3.55640   3 ;     C1-    O1-    C4-    O2
     1      6      4      7      9   180.00   1.92464   1 ;     C1-    O1-    C4-    O2
     1      6      4      8      9     0.00   3.55640   2 ;     C1-    O1-    C4-    O3
     1      6      4      8      9     0.00   3.55640   3 ;     C1-    O1-    C4-    O3
     1      6      4      8      9   180.00   1.92464   1 ;     C1-    O1-    C4-    O3
     2      7      4      5      9     0.00   0.33472   2 ;     C2-    O2-    C4-    C5
     2      7      4      5      9     0.00   3.13800   3 ;     C2-    O2-    C4-    C5
     2      7      4      5      9   180.00   3.68192   1 ;     C2-    O2-    C4-    C5
     2      7      4      6      9     0.00   3.55640   2 ;     C2-    O2-    C4-    O1
     2      7      4      6      9     0.00   3.55640   3 ;     C2-    O2-    C4-    O1
     2      7      4      6      9   180.00   1.92464   1 ;     C2-    O2-    C4-    O1
     2      7      4      8      9     0.00   3.55640   2 ;     C2-    O2-    C4-    O3
     2      7      4      8      9     0.00   3.55640   3 ;     C2-    O2-    C4-    O3
     2      7      4      8      9   180.00   1.92464   1 ;     C2-    O2-    C4-    O3
     3      8      4      5      9     0.00   0.33472   2 ;     C3-    O3-    C4-    C5
     3      8      4      5      9     0.00   3.13800   3 ;     C3-    O3-    C4-    C5
     3      8      4      5      9   180.00   3.68192   1 ;     C3-    O3-    C4-    C5
     3      8      4      6      9     0.00   3.55640   2 ;     C3-    O3-    C4-    O1
     3      8      4      6      9     0.00   3.55640   3 ;     C3-    O3-    C4-    O1
     3      8      4      6      9   180.00   1.92464   1 ;     C3-    O3-    C4-    O1
     3      8      4      7      9     0.00   3.55640   2 ;     C3-    O3-    C4-    O2
     3      8      4      7      9     0.00   3.55640   3 ;     C3-    O3-    C4-    O2
     3      8      4      7      9   180.00   1.92464   1 ;     C3-    O3-    C4-    O2
     4      7      2     15      9     0.00   1.41001   3 ;     C4-    O2-    C2-    H4
     4      7      2     16      9     0.00   1.41001   3 ;     C4-    O2-    C2-    H5
     4      7      2     17      9     0.00   1.41001   3 ;     C4-    O2-    C2-    H6
     4      8      3     18      9     0.00   1.41001   3 ;     C4-    O3-    C3-    H7
     4      8      3     19      9     0.00   1.41001   3 ;     C4-    O3-    C3-    H8
     4      8      3     20      9     0.00   1.41001   3 ;     C4-    O3-    C3-    H9
     6      4      5      9      9     0.00   0.65084   3 ;     O1-    C4-    C5-    F1
     6      4      5     10      9     0.00   0.65084   3 ;     O1-    C4-    C5-    F2
     6      4      5     11      9     0.00   0.65084   3 ;     O1-    C4-    C5-    F3
     7      4      5      9      9     0.00   0.65084   3 ;     O2-    C4-    C5-    F1
     7      4      5     10      9     0.00   0.65084   3 ;     O2-    C4-    C5-    F2
     7      4      5     11      9     0.00   0.65084   3 ;     O2-    C4-    C5-    F3
     8      4      5      9      9     0.00   0.65084   3 ;     O3-    C4-    C5-    F1
     8      4      5     10      9     0.00   0.65084   3 ;     O3-    C4-    C5-    F2
     8      4      5     11      9     0.00   0.65084   3 ;     O3-    C4-    C5-    F3
    12      1      6      4      9     0.00   1.41001   3 ;     H1-    C1-    O1-    C4
    13      1      6      4      9     0.00   1.41001   3 ;     H2-    C1-    O1-    C4
    14      1      6      4      9     0.00   1.41001   3 ;     H3-    C1-    O1-    C4
