mobley_525934_GMX.gro created by acpype (v: 2023.10.27) on Tue May 19 12:49:32 2026
 2418
    1MOL    H11    1   2.018   2.185   2.153
    1MOL     C1    2   2.121   2.155   2.143
    1MOL    H12    3   2.133   2.045   2.166
    1MOL    H13    4   2.161   2.172   2.041
    1MOL     S1    5   2.221   2.250   2.261
    1MOL     H1    6   2.340   2.190   2.232
    6SOL     OW    7   1.555   1.511   0.703
    6SOL    HW1    8   1.498   1.495   0.784
    6SOL    HW2    9   1.496   1.521   0.623
   14SOL     OW   10   1.460   1.505   1.339
   14SOL    HW1   11   1.484   1.599   1.365
   14SOL    HW2   12   1.444   1.451   1.421
   18SOL     OW   13   1.127   1.341   1.690
   18SOL    HW1   14   1.174   1.341   1.778
   18SOL    HW2   15   1.079   1.254   1.679
   21SOL     OW   16   0.620   1.786   1.439
   21SOL    HW1   17   0.528   1.769   1.474
   21SOL    HW2   18   0.648   1.878   1.465
   31SOL     OW   19   1.293   1.228   1.423
   31SOL    HW1   20   1.330   1.155   1.365
   31SOL    HW2   21   1.345   1.233   1.508
   35SOL     OW   22   1.187   1.792   1.616
   35SOL    HW1   23   1.211   1.852   1.540
   35SOL    HW2   24   1.194   1.697   1.586
   37SOL     OW   25   1.466   1.417   0.953
   37SOL    HW1   26   1.407   1.423   1.033
   37SOL    HW2   27   1.451   1.329   0.907
   38SOL     OW   28   1.667   1.714   0.572
   38SOL    HW1   29   1.626   1.691   0.484
   38SOL    HW2   30   1.649   1.640   0.637
   50SOL     OW   31   1.719   0.585   1.831
   50SOL    HW1   32   1.693   0.674   1.795
   50SOL    HW2   33   1.717   0.517   1.758
   55SOL     OW   34   1.795   1.066   0.873
   55SOL    HW1   35   1.733   1.051   0.797
   55SOL    HW2   36   1.743   1.077   0.958
   56SOL     OW   37   1.227   1.550   1.506
   56SOL    HW1   38   1.233   1.473   1.570
   56SOL    HW2   39   1.175   1.524   1.426
   71SOL     OW   40   0.888   1.514   1.195
   71SOL    HW1   41   0.865   1.489   1.101
   71SOL    HW2   42   0.949   1.445   1.234
   80SOL     OW   43   1.227   1.570   0.793
   80SOL    HW1   44   1.248   1.644   0.728
   80SOL    HW2   45   1.295   1.570   0.866
   88SOL     OW   46   1.429   1.173   0.867
   88SOL    HW1   47   1.374   1.089   0.860
   88SOL    HW2   48   1.455   1.202   0.775
   95SOL     OW   49   1.754   1.223   1.588
   95SOL    HW1   50   1.845   1.184   1.575
   95SOL    HW2   51   1.762   1.319   1.612
   96SOL     OW   52   1.064   1.347   1.340
   96SOL    HW1   53   0.984   1.324   1.395
   96SOL    HW2   54   1.147   1.321   1.389
   97SOL     OW   55   1.592   1.629   1.625
   97SOL    HW1   56   1.619   1.663   1.535
   97SOL    HW2   57   1.671   1.591   1.671
   98SOL     OW   58   1.111   1.195   1.100
   98SOL    HW1   59   1.071   1.239   1.181
   98SOL    HW2   60   1.070   1.232   1.017
   99SOL     OW   61   1.638   1.099   1.079
   99SOL    HW1   62   1.643   1.180   1.138
   99SOL    HW2   63   1.552   1.101   1.028
  101SOL     OW   64   0.980   1.116   1.719
  101SOL    HW1   65   0.881   1.122   1.729
  101SOL    HW2   66   1.003   1.036   1.663
  109SOL     OW   67   1.272   1.445   1.142
  109SOL    HW1   68   1.319   1.458   1.229
  109SOL    HW2   69   1.206   1.371   1.151
  113SOL     OW   70   1.587   0.779   1.670
  113SOL    HW1   71   1.495   0.817   1.665
  113SOL    HW2   72   1.647   0.826   1.605
  122SOL     OW   73   1.728   0.935   1.854
  122SOL    HW1   74   1.682   0.928   1.765
  122SOL    HW2   75   1.666   0.979   1.920
  126SOL     OW   76   0.980   1.573   1.700
  126SOL    HW1   77   0.960   1.617   1.612
  126SOL    HW2   78   1.019   1.482   1.684
  127SOL     OW   79   1.859   1.518   1.605
  127SOL    HW1   80   1.873   1.545   1.510
  127SOL    HW2   81   1.942   1.540   1.658
  142SOL     OW   82   1.369   0.950   1.660
  142SOL    HW1   83   1.408   1.039   1.680
  142SOL    HW2   84   1.379   0.930   1.563
  147SOL     OW   85   0.930   1.678   1.465
  147SOL    HW1   86   0.906   1.660   1.370
  147SOL    HW2   87   0.960   1.772   1.475
  150SOL     OW   88   1.347   1.059   1.234
  150SOL    HW1   89   1.371   0.996   1.160
  150SOL    HW2   90   1.257   1.099   1.216
  152SOL     OW   91   1.759   1.747   1.154
  152SOL    HW1   92   1.820   1.777   1.081
  152SOL    HW2   93   1.721   1.658   1.132
  153SOL     OW   94   1.252   1.731   1.128
  153SOL    HW1   95   1.336   1.736   1.074
  153SOL    HW2   96   1.229   1.635   1.146
  155SOL     OW   97   0.688   1.662   1.716
  155SOL    HW1   98   0.632   1.743   1.725
  155SOL    HW2   99   0.740   1.666   1.630
  161SOL     OW  100   0.830   1.273   1.422
  161SOL    HW1  101   0.825   1.306   1.517
  161SOL    HW2  102   0.744   1.292   1.376
  163SOL     OW  103   1.650   1.720   1.394
  163SOL    HW1  104   1.703   1.730   1.310
  163SOL    HW2  105   1.623   1.810   1.428
  171SOL     OW  106   1.614   1.292   1.289
  171SOL    HW1  107   1.674   1.295   1.369
  171SOL    HW2  108   1.539   1.356   1.302
  180SOL     OW  109   1.440   0.856   1.398
  180SOL    HW1  110   1.383   0.908   1.335
  180SOL    HW2  111   1.536   0.868   1.374
  184SOL     OW  112   1.493   1.767   0.959
  184SOL    HW1  113   1.526   1.831   0.890
  184SOL    HW2  114   1.559   1.761   1.034
  186SOL     OW  115   1.450   1.220   1.633
  186SOL    HW1  116   1.441   1.210   1.732
  186SOL    HW2  117   1.546   1.213   1.607
  188SOL     OW  118   1.674   0.883   1.254
  188SOL    HW1  119   1.647   0.794   1.217
  188SOL    HW2  120   1.675   0.951   1.181
  192SOL     OW  121   1.730   0.934   1.517
  192SOL    HW1  122   1.768   1.025   1.532
  192SOL    HW2  123   1.722   0.917   1.418
  197SOL     OW  124   1.861   1.569   0.851
  197SOL    HW1  125   1.790   1.557   0.781
  197SOL    HW2  126   1.862   1.490   0.911
  200SOL     OW  127   0.672   1.391   1.624
  200SOL    HW1  128   0.594   1.341   1.662
  200SOL    HW2  129   0.669   1.486   1.655
  203SOL     OW  130   1.705   1.487   1.104
  203SOL    HW1  131   1.612   1.462   1.077
  203SOL    HW2  132   1.731   1.437   1.186
  219SOL     OW  133   1.555   1.511   2.565
  219SOL    HW1  134   1.498   1.495   2.646
  219SOL    HW2  135   1.496   1.521   2.485
  221SOL     OW  136   1.755   0.607   2.093
  221SOL    HW1  137   1.743   0.594   1.994
  221SOL    HW2  138   1.725   0.526   2.142
  227SOL     OW  139   1.460   1.505   3.201
  227SOL    HW1  140   1.484   1.599   3.227
  227SOL    HW2  141   1.444   1.451   3.283
  238SOL     OW  142   1.842   1.767   2.221
  238SOL    HW1  143   1.896   1.738   2.301
  238SOL    HW2  144   1.872   1.857   2.192
  240SOL     OW  145   1.689   0.922   2.474
  240SOL    HW1  146   1.784   0.893   2.482
  240SOL    HW2  147   1.681   0.987   2.399
  241SOL     OW  148   1.641   1.108   2.294
  241SOL    HW1  149   1.727   1.110   2.242
  241SOL    HW2  150   1.655   1.155   2.382
  243SOL     OW  151   0.613   1.365   2.588
  243SOL    HW1  152   0.564   1.278   2.597
  243SOL    HW2  153   0.590   1.408   2.501
  244SOL     OW  154   1.293   1.228   3.285
  244SOL    HW1  155   1.330   1.155   3.227
  244SOL    HW2  156   1.345   1.233   3.370
  247SOL     OW  157   1.525   0.999   2.052
  247SOL    HW1  158   1.462   0.923   2.065
  247SOL    HW2  159   1.573   1.017   2.138
  248SOL     OW  160   1.187   1.792   3.478
  248SOL    HW1  161   1.211   1.852   3.402
  248SOL    HW2  162   1.194   1.697   3.448
  250SOL     OW  163   1.466   1.417   2.815
  250SOL    HW1  164   1.407   1.423   2.895
  250SOL    HW2  165   1.451   1.329   2.769
  251SOL     OW  166   1.667   1.714   2.434
  251SOL    HW1  167   1.626   1.691   2.346
  251SOL    HW2  168   1.649   1.640   2.499
  254SOL     OW  169   1.576   1.662   2.169
  254SOL    HW1  170   1.665   1.708   2.172
  254SOL    HW2  171   1.555   1.638   2.074
  264SOL     OW  172   1.362   1.144   2.407
  264SOL    HW1  173   1.445   1.115   2.359
  264SOL    HW2  174   1.313   1.211   2.351
  266SOL     OW  175   1.008   1.456   2.339
  266SOL    HW1  176   0.962   1.528   2.287
  266SOL    HW2  177   1.004   1.476   2.437
  268SOL     OW  178   1.795   1.066   2.735
  268SOL    HW1  179   1.733   1.051   2.659
  268SOL    HW2  180   1.743   1.077   2.820
  269SOL     OW  181   1.227   1.550   3.368
  269SOL    HW1  182   1.233   1.473   3.432
  269SOL    HW2  183   1.175   1.524   3.288
  271SOL     OW  184   1.458   0.735   2.590
  271SOL    HW1  185   1.453   0.670   2.665
  271SOL    HW2  186   1.538   0.794   2.603
  273SOL     OW  187   1.111   1.776   2.099
  273SOL    HW1  188   1.051   1.714   2.149
  273SOL    HW2  189   1.142   1.732   2.014
  275SOL     OW  190   1.632   1.377   1.943
  275SOL    HW1  191   1.600   1.471   1.933
  275SOL    HW2  192   1.556   1.314   1.931
  276SOL     OW  193   0.464   1.743   2.185
  276SOL    HW1  194   0.497   1.782   2.271
  276SOL    HW2  195   0.540   1.736   2.120
  279SOL     OW  196   0.940   1.698   2.766
  279SOL    HW1  197   1.020   1.641   2.787
  279SOL    HW2  198   0.891   1.658   2.689
  284SOL     OW  199   0.888   1.514   3.057
  284SOL    HW1  200   0.865   1.489   2.963
  284SOL    HW2  201   0.949   1.445   3.096
  286SOL     OW  202   0.803   1.402   2.786
  286SOL    HW1  203   0.893   1.416   2.744
  286SOL    HW2  204   0.732   1.404   2.715
  289SOL     OW  205   1.434   1.188   1.903
  289SOL    HW1  206   1.466   1.112   1.960
  289SOL    HW2  207   1.342   1.215   1.933
  293SOL     OW  208   1.227   1.570   2.655
  293SOL    HW1  209   1.248   1.644   2.590
  293SOL    HW2  210   1.295   1.570   2.728
  295SOL     OW  211   1.271   1.797   2.453
  295SOL    HW1  212   1.315   1.861   2.389
  295SOL    HW2  213   1.221   1.849   2.523
  301SOL     OW  214   1.429   1.173   2.729
  301SOL    HW1  215   1.374   1.089   2.722
  301SOL    HW2  216   1.455   1.202   2.637
  303SOL     OW  217   1.857   0.833   2.239
  303SOL    HW1  218   1.899   0.769   2.303
  303SOL    HW2  219   1.819   0.782   2.161
  305SOL     OW  220   1.664   1.280   2.519
  305SOL    HW1  221   1.763   1.288   2.533
  305SOL    HW2  222   1.619   1.364   2.550
  306SOL     OW  223   1.390   0.575   1.940
  306SOL    HW1  224   1.336   0.554   2.021
  306SOL    HW2  225   1.481   0.534   1.949
  308SOL     OW  226   1.754   1.223   3.450
  308SOL    HW1  227   1.845   1.184   3.437
  308SOL    HW2  228   1.762   1.319   3.474
  309SOL     OW  229   1.064   1.347   3.202
  309SOL    HW1  230   0.984   1.324   3.257
  309SOL    HW2  231   1.147   1.321   3.251
  310SOL     OW  232   1.592   1.629   3.487
  310SOL    HW1  233   1.619   1.663   3.397
  310SOL    HW2  234   1.671   1.591   3.533
  311SOL     OW  235   1.111   1.195   2.962
  311SOL    HW1  236   1.071   1.239   3.043
  311SOL    HW2  237   1.070   1.232   2.879
  312SOL     OW  238   1.638   1.099   2.941
  312SOL    HW1  239   1.643   1.180   3.000
  312SOL    HW2  240   1.552   1.101   2.890
  321SOL     OW  241   1.252   1.348   2.250
  321SOL    HW1  242   1.302   1.425   2.290
  321SOL    HW2  243   1.157   1.350   2.282
  322SOL     OW  244   1.272   1.445   3.004
  322SOL    HW1  245   1.319   1.458   3.091
  322SOL    HW2  246   1.206   1.371   3.013
  323SOL     OW  247   1.582   0.639   2.334
  323SOL    HW1  248   1.551   0.700   2.407
  323SOL    HW2  249   1.632   0.691   2.265
  330SOL     OW  250   1.360   0.862   2.907
  330SOL    HW1  251   1.285   0.862   2.841
  330SOL    HW2  252   1.397   0.770   2.916
  340SOL     OW  253   1.859   1.518   3.467
  340SOL    HW1  254   1.873   1.545   3.372
  340SOL    HW2  255   1.942   1.540   3.520
  343SOL     OW  256   1.303   0.838   1.904
  343SOL    HW1  257   1.337   0.745   1.919
  343SOL    HW2  258   1.321   0.865   1.809
  344SOL     OW  259   1.068   1.333   2.711
  344SOL    HW1  260   1.075   1.249   2.656
  344SOL    HW2  261   1.130   1.402   2.675
  360SOL     OW  262   0.930   1.678   3.327
  360SOL    HW1  263   0.906   1.660   3.232
  360SOL    HW2  264   0.960   1.772   3.337
  363SOL     OW  265   1.347   1.059   3.096
  363SOL    HW1  266   1.371   0.996   3.022
  363SOL    HW2  267   1.257   1.099   3.078
  364SOL     OW  268   1.302   0.855   2.171
  364SOL    HW1  269   1.216   0.824   2.213
  364SOL    HW2  270   1.298   0.841   2.072
  365SOL     OW  271   1.759   1.747   3.016
  365SOL    HW1  272   1.820   1.777   2.943
  365SOL    HW2  273   1.721   1.658   2.994
  366SOL     OW  274   1.252   1.731   2.990
  366SOL    HW1  275   1.336   1.736   2.936
  366SOL    HW2  276   1.229   1.635   3.008
  370SOL     OW  277   1.388   1.573   2.339
  370SOL    HW1  278   1.455   1.585   2.265
  370SOL    HW2  279   1.348   1.662   2.362
  372SOL     OW  280   1.280   0.927   2.534
  372SOL    HW1  281   1.340   0.846   2.536
  372SOL    HW2  282   1.320   0.996   2.474
  374SOL     OW  283   0.672   1.616   2.016
  374SOL    HW1  284   0.681   1.626   1.917
  374SOL    HW2  285   0.632   1.527   2.037
  375SOL     OW  286   1.650   1.720   3.256
  375SOL    HW1  287   1.703   1.730   3.172
  375SOL    HW2  288   1.623   1.810   3.290
  378SOL     OW  289   1.194   1.612   1.893
  378SOL    HW1  290   1.200   1.519   1.930
  378SOL    HW2  291   1.135   1.612   1.813
  380SOL     OW  292   0.916   0.910   2.153
  380SOL    HW1  293   0.979   0.948   2.085
  380SOL    HW2  294   0.956   0.827   2.192
  381SOL     OW  295   1.504   1.607   1.906
  381SOL    HW1  296   1.412   1.644   1.913
  381SOL    HW2  297   1.542   1.627   1.816
  383SOL     OW  298   1.614   1.292   3.151
  383SOL    HW1  299   1.674   1.295   3.231
  383SOL    HW2  300   1.539   1.356   3.164
  384SOL     OW  301   1.039   1.098   2.558
  384SOL    HW1  302   0.969   1.051   2.612
  384SOL    HW2  303   1.098   1.030   2.515
  386SOL     OW  304   0.590   1.487   2.353
  386SOL    HW1  305   0.632   1.429   2.283
  386SOL    HW2  306   0.546   1.566   2.309
  394SOL     OW  307   1.183   1.335   1.981
  394SOL    HW1  308   1.084   1.324   1.983
  394SOL    HW2  309   1.217   1.350   2.074
  396SOL     OW  310   1.493   1.767   2.821
  396SOL    HW1  311   1.526   1.831   2.752
  396SOL    HW2  312   1.559   1.761   2.896
  398SOL     OW  313   1.450   1.220   3.495
  398SOL    HW1  314   1.441   1.210   3.594
  398SOL    HW2  315   1.546   1.213   3.469
  400SOL     OW  316   1.674   0.883   3.116
  400SOL    HW1  317   1.647   0.794   3.079
  400SOL    HW2  318   1.675   0.951   3.043
  404SOL     OW  319   1.730   0.934   3.379
  404SOL    HW1  320   1.768   1.025   3.394
  404SOL    HW2  321   1.722   0.917   3.280
  405SOL     OW  322   0.859   1.374   1.878
  405SOL    HW1  323   0.813   1.389   1.966
  405SOL    HW2  324   0.903   1.459   1.848
  406SOL     OW  325   0.661   1.790   2.815
  406SOL    HW1  326   0.615   1.878   2.802
  406SOL    HW2  327   0.760   1.802   2.808
  408SOL     OW  328   1.083   0.984   1.949
  408SOL    HW1  329   1.060   1.037   1.867
  408SOL    HW2  330   1.164   0.928   1.930
  409SOL     OW  331   1.861   1.569   2.713
  409SOL    HW1  332   1.790   1.557   2.643
  409SOL    HW2  333   1.862   1.490   2.773
  415SOL     OW  334   1.705   1.487   2.966
  415SOL    HW1  335   1.612   1.462   2.939
  415SOL    HW2  336   1.731   1.437   3.048
  417SOL     OW  337   0.812   1.586   2.549
  417SOL    HW1  338   0.844   1.596   2.455
  417SOL    HW2  339   0.733   1.524   2.551
  420SOL     OW  340   0.770   1.330   2.163
  420SOL    HW1  341   0.724   1.243   2.180
  420SOL    HW2  342   0.861   1.327   2.204
  426SOL     OW  343   0.875   1.646   2.199
  426SOL    HW1  344   0.798   1.611   2.145
  426SOL    HW2  345   0.843   1.717   2.261
  498SOL     OW  346   0.850   2.660   1.823
  498SOL    HW1  347   0.846   2.736   1.888
  498SOL    HW2  348   0.872   2.696   1.732
  500SOL     OW  349   0.686   3.023   1.803
  500SOL    HW1  350   0.746   3.102   1.817
  500SOL    HW2  351   0.600   3.054   1.762
  502SOL     OW  352   1.460   3.367   1.339
  502SOL    HW1  353   1.484   3.461   1.365
  502SOL    HW2  354   1.444   3.313   1.421
  504SOL     OW  355   1.603   2.309   0.737
  504SOL    HW1  356   1.529   2.355   0.687
  504SOL    HW2  357   1.654   2.377   0.790
  506SOL     OW  358   1.127   3.203   1.690
  506SOL    HW1  359   1.174   3.203   1.778
  506SOL    HW2  360   1.079   3.116   1.679
  511SOL     OW  361   1.594   1.976   1.480
  511SOL    HW1  362   1.576   2.043   1.408
  511SOL    HW2  363   1.591   2.022   1.569
  515SOL     OW  364   1.689   2.784   0.612
  515SOL    HW1  365   1.784   2.755   0.620
  515SOL    HW2  366   1.681   2.849   0.537
  519SOL     OW  367   1.293   3.090   1.423
  519SOL    HW1  368   1.330   3.017   1.365
  519SOL    HW2  369   1.345   3.095   1.508
  525SOL     OW  370   1.466   3.279   0.953
  525SOL    HW1  371   1.407   3.285   1.033
  525SOL    HW2  372   1.451   3.191   0.907
  528SOL     OW  373   1.281   2.207   0.944
  528SOL    HW1  374   1.195   2.157   0.931
  528SOL    HW2  375   1.343   2.153   1.000
  530SOL     OW  376   0.807   2.467   1.465
  530SOL    HW1  377   0.760   2.464   1.554
  530SOL    HW2  378   0.756   2.412   1.399
  531SOL     OW  379   1.394   2.331   1.674
  531SOL    HW1  380   1.374   2.374   1.762
  531SOL    HW2  381   1.472   2.269   1.683
  532SOL     OW  382   0.973   2.752   1.572
  532SOL    HW1  383   1.019   2.668   1.543
  532SOL    HW2  384   0.917   2.786   1.497
  533SOL     OW  385   0.991   2.272   1.242
  533SOL    HW1  386   0.914   2.306   1.296
  533SOL    HW2  387   0.957   2.221   1.163
  538SOL     OW  388   1.719   2.447   1.831
  538SOL    HW1  389   1.693   2.536   1.795
  538SOL    HW2  390   1.717   2.379   1.758
  543SOL     OW  391   1.795   2.928   0.873
  543SOL    HW1  392   1.733   2.913   0.797
  543SOL    HW2  393   1.743   2.939   0.958
  544SOL     OW  394   1.227   3.412   1.506
  544SOL    HW1  395   1.233   3.335   1.570
  544SOL    HW2  396   1.175   3.386   1.426
  546SOL     OW  397   1.458   2.597   0.728
  546SOL    HW1  398   1.453   2.532   0.803
  546SOL    HW2  399   1.538   2.656   0.741
  556SOL     OW  400   1.547   2.084   1.729
  556SOL    HW1  401   1.542   2.121   1.821
  556SOL    HW2  402   1.475   2.015   1.717
  558SOL     OW  403   0.781   2.126   1.749
  558SOL    HW1  404   0.848   2.065   1.792
  558SOL    HW2  405   0.708   2.145   1.814
  560SOL     OW  406   1.351   2.452   1.433
  560SOL    HW1  407   1.379   2.409   1.518
  560SOL    HW2  408   1.376   2.548   1.434
  562SOL     OW  409   0.922   2.365   0.899
  562SOL    HW1  410   0.897   2.356   0.803
  562SOL    HW2  411   0.970   2.283   0.930
  567SOL     OW  412   1.076   2.545   1.464
  567SOL    HW1  413   0.996   2.484   1.467
  567SOL    HW2  414   1.157   2.492   1.440
  576SOL     OW  415   1.429   3.035   0.867
  576SOL    HW1  416   1.374   2.951   0.860
  576SOL    HW2  417   1.455   3.064   0.775
  577SOL     OW  418   1.466   2.452   0.992
  577SOL    HW1  419   1.436   2.357   0.999
  577SOL    HW2  420   1.539   2.468   1.058
  583SOL     OW  421   1.754   3.085   1.588
  583SOL    HW1  422   1.845   3.046   1.575
  583SOL    HW2  423   1.762   3.181   1.612
  584SOL     OW  424   1.064   3.209   1.340
  584SOL    HW1  425   0.984   3.186   1.395
  584SOL    HW2  426   1.147   3.183   1.389
  585SOL     OW  427   1.592   3.491   1.625
  585SOL    HW1  428   1.619   3.525   1.535
  585SOL    HW2  429   1.671   3.453   1.671
  586SOL     OW  430   1.111   3.057   1.100
  586SOL    HW1  431   1.071   3.101   1.181
  586SOL    HW2  432   1.070   3.094   1.017
  587SOL     OW  433   1.638   2.961   1.079
  587SOL    HW1  434   1.643   3.042   1.138
  587SOL    HW2  435   1.552   2.963   1.028
  588SOL     OW  436   0.915   1.951   1.402
  588SOL    HW1  437   0.940   1.931   1.307
  588SOL    HW2  438   0.987   2.007   1.444
  589SOL     OW  439   0.980   2.978   1.719
  589SOL    HW1  440   0.881   2.984   1.729
  589SOL    HW2  441   1.003   2.898   1.663
  592SOL     OW  442   1.274   2.248   1.262
  592SOL    HW1  443   1.295   2.322   1.326
  592SOL    HW2  444   1.185   2.265   1.219
  597SOL     OW  445   1.272   3.307   1.142
  597SOL    HW1  446   1.319   3.320   1.229
  597SOL    HW2  447   1.206   3.233   1.151
  601SOL     OW  448   1.587   2.641   1.670
  601SOL    HW1  449   1.495   2.679   1.665
  601SOL    HW2  450   1.647   2.688   1.605
  602SOL     OW  451   1.013   1.967   1.770
  602SOL    HW1  452   1.019   2.052   1.718
  602SOL    HW2  453   1.045   1.891   1.713
  603SOL     OW  454   0.504   1.912   1.740
  603SOL    HW1  455   0.462   1.855   1.670
  603SOL    HW2  456   0.438   1.981   1.772
  605SOL     OW  457   1.360   2.724   1.045
  605SOL    HW1  458   1.285   2.724   0.979
  605SOL    HW2  459   1.397   2.632   1.054
  610SOL     OW  460   1.728   2.797   1.854
  610SOL    HW1  461   1.682   2.790   1.765
  610SOL    HW2  462   1.666   2.841   1.920
  613SOL     OW  463   1.023   2.628   0.966
  613SOL    HW1  464   1.038   2.649   1.062
  613SOL    HW2  465   0.993   2.533   0.957
  614SOL     OW  466   0.980   3.435   1.700
  614SOL    HW1  467   0.960   3.479   1.612
  614SOL    HW2  468   1.019   3.344   1.684
  615SOL     OW  469   1.859   3.380   1.605
  615SOL    HW1  470   1.873   3.407   1.510
  615SOL    HW2  471   1.942   3.402   1.658
  622SOL     OW  472   1.138   2.242   1.678
  622SOL    HW1  473   1.093   2.305   1.742
  622SOL    HW2  474   1.231   2.273   1.661
  623SOL     OW  475   1.160   2.069   1.477
  623SOL    HW1  476   1.160   2.133   1.554
  623SOL    HW2  477   1.188   2.117   1.394
  627SOL     OW  478   1.002   2.658   1.238
  627SOL    HW1  479   1.043   2.626   1.324
  627SOL    HW2  480   0.906   2.631   1.235
  630SOL     OW  481   1.369   2.812   1.660
  630SOL    HW1  482   1.408   2.901   1.680
  630SOL    HW2  483   1.379   2.792   1.563
  632SOL     OW  484   1.657   2.466   1.206
  632SOL    HW1  485   1.619   2.397   1.268
  632SOL    HW2  486   1.739   2.430   1.162
  634SOL     OW  487   0.671   2.326   1.269
  634SOL    HW1  488   0.637   2.237   1.239
  634SOL    HW2  489   0.697   2.380   1.189
  638SOL     OW  490   1.347   2.921   1.234
  638SOL    HW1  491   1.371   2.858   1.160
  638SOL    HW2  492   1.257   2.961   1.216
  645SOL     OW  493   1.726   1.997   0.523
  645SOL    HW1  494   1.799   1.980   0.456
  645SOL    HW2  495   1.695   1.910   0.561
  651SOL     OW  496   1.650   3.582   1.394
  651SOL    HW1  497   1.703   3.592   1.310
  651SOL    HW2  498   1.623   3.672   1.428
  652SOL     OW  499   1.841   2.037   0.963
  652SOL    HW1  500   1.880   1.952   0.927
  652SOL    HW2  501   1.743   2.039   0.944
  655SOL     OW  502   0.822   2.864   1.372
  655SOL    HW1  503   0.862   2.863   1.280
  655SOL    HW2  504   0.832   2.956   1.412
  659SOL     OW  505   1.614   3.154   1.289
  659SOL    HW1  506   1.674   3.157   1.369
  659SOL    HW2  507   1.539   3.218   1.302
  661SOL     OW  508   1.014   2.098   0.971
  661SOL    HW1  509   1.006   2.062   0.878
  661SOL    HW2  510   1.012   2.022   1.036
  663SOL     OW  511   1.709   2.247   1.381
  663SOL    HW1  512   1.782   2.316   1.385
  663SOL    HW2  513   1.737   2.172   1.322
  666SOL     OW  514   0.672   2.065   1.489
  666SOL    HW1  515   0.762   2.049   1.449
  666SOL    HW2  516   0.680   2.070   1.588
  668SOL     OW  517   1.440   2.718   1.398
  668SOL    HW1  518   1.383   2.770   1.335
  668SOL    HW2  519   1.536   2.730   1.374
  673SOL     OW  520   0.716   2.427   1.708
  673SOL    HW1  521   0.735   2.492   1.782
  673SOL    HW2  522   0.776   2.347   1.717
  674SOL     OW  523   1.450   3.082   1.633
  674SOL    HW1  524   1.441   3.072   1.732
  674SOL    HW2  525   1.546   3.075   1.607
  676SOL     OW  526   1.674   2.745   1.254
  676SOL    HW1  527   1.647   2.656   1.217
  676SOL    HW2  528   1.675   2.813   1.181
  679SOL     OW  529   1.777   2.204   1.642
  679SOL    HW1  530   1.760   2.235   1.548
  679SOL    HW2  531   1.693   2.167   1.680
  680SOL     OW  532   1.730   2.796   1.517
  680SOL    HW1  533   1.768   2.887   1.532
  680SOL    HW2  534   1.722   2.779   1.418
  689SOL     OW  535   1.824   2.054   1.227
  689SOL    HW1  536   1.820   1.964   1.271
  689SOL    HW2  537   1.827   2.043   1.128
  691SOL     OW  538   1.705   3.349   1.104
  691SOL    HW1  539   1.612   3.324   1.077
  691SOL    HW2  540   1.731   3.299   1.186
  694SOL     OW  541   1.424   2.076   1.112
  694SOL    HW1  542   1.476   2.011   1.167
  694SOL    HW2  543   1.375   2.139   1.173
  695SOL     OW  544   1.001   1.896   1.154
  695SOL    HW1  545   0.938   1.824   1.123
  695SOL    HW2  546   1.094   1.860   1.154
  699SOL     OW  547   1.300   2.315   0.691
  699SOL    HW1  548   1.241   2.395   0.695
  699SOL    HW2  549   1.315   2.280   0.784
  700SOL     OW  550   1.593   2.083   0.882
  700SOL    HW1  551   1.509   2.082   0.936
  700SOL    HW2  552   1.595   2.166   0.826
  707SOL     OW  553   1.555   3.373   2.565
  707SOL    HW1  554   1.498   3.357   2.646
  707SOL    HW2  555   1.496   3.383   2.485
  708SOL     OW  556   1.135   2.565   2.579
  708SOL    HW1  557   1.192   2.643   2.554
  708SOL    HW2  558   1.075   2.591   2.655
  709SOL     OW  559   1.755   2.469   2.093
  709SOL    HW1  560   1.743   2.456   1.994
  709SOL    HW2  561   1.725   2.388   2.142
  710SOL     OW  562   0.768   3.006   2.885
  710SOL    HW1  563   0.690   3.023   2.945
  710SOL    HW2  564   0.802   3.093   2.849
  712SOL     OW  565   0.685   2.874   2.527
  712SOL    HW1  566   0.754   2.858   2.597
  712SOL    HW2  567   0.612   2.931   2.565
  715SOL     OW  568   1.460   3.367   3.201
  715SOL    HW1  569   1.484   3.461   3.227
  715SOL    HW2  570   1.444   3.313   3.283
  717SOL     OW  571   1.603   2.309   2.599
  717SOL    HW1  572   1.529   2.355   2.549
  717SOL    HW2  573   1.654   2.377   2.652
  723SOL     OW  574   0.606   2.826   1.985
  723SOL    HW1  575   0.613   2.910   1.931
  723SOL    HW2  576   0.652   2.839   2.073
  724SOL     OW  577   1.594   1.976   3.342
  724SOL    HW1  578   1.576   2.043   3.270
  724SOL    HW2  579   1.591   2.022   3.431
  726SOL     OW  580   1.842   3.629   2.221
  726SOL    HW1  581   1.896   3.600   2.301
  726SOL    HW2  582   1.872   3.719   2.192
  728SOL     OW  583   1.689   2.784   2.474
  728SOL    HW1  584   1.784   2.755   2.482
  728SOL    HW2  585   1.681   2.849   2.399
  729SOL     OW  586   1.641   2.970   2.294
  729SOL    HW1  587   1.727   2.972   2.242
  729SOL    HW2  588   1.655   3.017   2.382
  732SOL     OW  589   1.293   3.090   3.285
  732SOL    HW1  590   1.330   3.017   3.227
  732SOL    HW2  591   1.345   3.095   3.370
  733SOL     OW  592   0.809   1.866   2.364
  733SOL    HW1  593   0.849   1.957   2.355
  733SOL    HW2  594   0.709   1.874   2.370
  735SOL     OW  595   1.525   2.861   2.052
  735SOL    HW1  596   1.462   2.785   2.065
  735SOL    HW2  597   1.573   2.879   2.138
  738SOL     OW  598   1.466   3.279   2.815
  738SOL    HW1  599   1.407   3.285   2.895
  738SOL    HW2  600   1.451   3.191   2.769
  739SOL     OW  601   1.667   3.576   2.434
  739SOL    HW1  602   1.626   3.553   2.346
  739SOL    HW2  603   1.649   3.502   2.499
  740SOL     OW  604   0.598   2.591   2.132
  740SOL    HW1  605   0.622   2.660   2.064
  740SOL    HW2  606   0.520   2.624   2.186
  741SOL     OW  607   1.281   2.207   2.806
  741SOL    HW1  608   1.195   2.157   2.793
  741SOL    HW2  609   1.343   2.153   2.862
  742SOL     OW  610   1.576   3.524   2.169
  742SOL    HW1  611   1.665   3.570   2.172
  742SOL    HW2  612   1.555   3.500   2.074
  744SOL     OW  613   1.394   2.331   3.536
  744SOL    HW1  614   1.374   2.374   3.624
  744SOL    HW2  615   1.472   2.269   3.545
  746SOL     OW  616   0.991   2.272   3.104
  746SOL    HW1  617   0.914   2.306   3.158
  746SOL    HW2  618   0.957   2.221   3.025
  747SOL     OW  619   1.041   2.563   2.291
  747SOL    HW1  620   1.067   2.559   2.387
  747SOL    HW2  621   0.956   2.512   2.277
  750SOL     OW  622   0.865   2.210   2.057
  750SOL    HW1  623   0.924   2.273   2.008
  750SOL    HW2  624   0.884   2.116   2.028
  751SOL     OW  625   1.719   2.447   3.693
  751SOL    HW1  626   1.693   2.536   3.657
  751SOL    HW2  627   1.717   2.379   3.620
  752SOL     OW  628   1.362   3.006   2.407
  752SOL    HW1  629   1.445   2.977   2.359
  752SOL    HW2  630   1.313   3.073   2.351
  753SOL     OW  631   0.550   2.058   2.747
  753SOL    HW1  632   0.545   2.053   2.847
  753SOL    HW2  633   0.552   2.154   2.718
  754SOL     OW  634   1.008   3.318   2.339
  754SOL    HW1  635   0.962   3.390   2.287
  754SOL    HW2  636   1.004   3.338   2.437
  756SOL     OW  637   1.795   2.928   2.735
  756SOL    HW1  638   1.733   2.913   2.659
  756SOL    HW2  639   1.743   2.939   2.820
  759SOL     OW  640   1.458   2.597   2.590
  759SOL    HW1  641   1.453   2.532   2.665
  759SOL    HW2  642   1.538   2.656   2.603
  763SOL     OW  643   1.632   3.239   1.943
  763SOL    HW1  644   1.600   3.333   1.933
  763SOL    HW2  645   1.556   3.176   1.931
  765SOL     OW  646   1.400   1.969   2.288
  765SOL    HW1  647   1.376   1.932   2.198
  765SOL    HW2  648   1.499   1.985   2.292
  769SOL     OW  649   1.547   2.084   3.591
  769SOL    HW1  650   1.542   2.121   3.683
  769SOL    HW2  651   1.475   2.015   3.579
  770SOL     OW  652   0.614   1.984   1.979
  770SOL    HW1  653   0.712   1.962   1.986
  770SOL    HW2  654   0.583   1.967   1.886
  773SOL     OW  655   1.351   2.452   3.295
  773SOL    HW1  656   1.379   2.409   3.380
  773SOL    HW2  657   1.376   2.548   3.296
  775SOL     OW  658   0.922   2.365   2.761
  775SOL    HW1  659   0.897   2.356   2.665
  775SOL    HW2  660   0.970   2.283   2.792
  776SOL     OW  661   0.539   1.926   2.374
  776SOL    HW1  662   0.458   1.927   2.432
  776SOL    HW2  663   0.542   2.009   2.319
  777SOL     OW  664   1.434   3.050   1.903
  777SOL    HW1  665   1.466   2.974   1.960
  777SOL    HW2  666   1.342   3.077   1.933
  779SOL     OW  667   0.935   2.098   2.342
  779SOL    HW1  668   0.887   2.139   2.264
  779SOL    HW2  669   1.034   2.096   2.323
  780SOL     OW  670   1.076   2.545   3.326
  780SOL    HW1  671   0.996   2.484   3.329
  780SOL    HW2  672   1.157   2.492   3.302
  781SOL     OW  673   1.227   3.432   2.655
  781SOL    HW1  674   1.248   3.506   2.590
  781SOL    HW2  675   1.295   3.432   2.728
  783SOL     OW  676   1.271   3.659   2.453
  783SOL    HW1  677   1.315   3.723   2.389
  783SOL    HW2  678   1.221   3.711   2.523
  784SOL     OW  679   1.032   2.411   1.878
  784SOL    HW1  680   0.991   2.493   1.839
  784SOL    HW2  681   1.096   2.437   1.951
  787SOL     OW  682   0.866   2.316   2.504
  787SOL    HW1  683   0.834   2.388   2.442
  787SOL    HW2  684   0.890   2.235   2.451
  788SOL     OW  685   1.017   1.901   2.615
  788SOL    HW1  686   0.945   1.906   2.546
  788SOL    HW2  687   0.993   1.832   2.684
  789SOL     OW  688   1.429   3.035   2.729
  789SOL    HW1  689   1.374   2.951   2.722
  789SOL    HW2  690   1.455   3.064   2.637
  790SOL     OW  691   1.466   2.452   2.854
  790SOL    HW1  692   1.436   2.357   2.861
  790SOL    HW2  693   1.539   2.468   2.920
  791SOL     OW  694   1.857   2.695   2.239
  791SOL    HW1  695   1.899   2.631   2.303
  791SOL    HW2  696   1.819   2.644   2.161
  793SOL     OW  697   1.664   3.142   2.519
  793SOL    HW1  698   1.763   3.150   2.533
  793SOL    HW2  699   1.619   3.226   2.550
  794SOL     OW  700   1.390   2.437   1.940
  794SOL    HW1  701   1.336   2.416   2.021
  794SOL    HW2  702   1.481   2.396   1.949
  795SOL     OW  703   0.527   2.118   2.190
  795SOL    HW1  704   0.554   2.059   2.115
  795SOL    HW2  705   0.527   2.213   2.159
  796SOL     OW  706   1.754   3.085   3.450
  796SOL    HW1  707   1.845   3.046   3.437
  796SOL    HW2  708   1.762   3.181   3.474
  799SOL     OW  709   1.111   3.057   2.962
  799SOL    HW1  710   1.071   3.101   3.043
  799SOL    HW2  711   1.070   3.094   2.879
  800SOL     OW  712   1.638   2.961   2.941
  800SOL    HW1  713   1.643   3.042   3.000
  800SOL    HW2  714   1.552   2.963   2.890
  801SOL     OW  715   0.915   1.951   3.264
  801SOL    HW1  716   0.940   1.931   3.169
  801SOL    HW2  717   0.987   2.007   3.306
  803SOL     OW  718   0.705   2.912   2.230
  803SOL    HW1  719   0.691   2.919   2.329
  803SOL    HW2  720   0.789   2.861   2.212
  805SOL     OW  721   1.274   2.248   3.124
  805SOL    HW1  722   1.295   2.322   3.188
  805SOL    HW2  723   1.185   2.265   3.081
  808SOL     OW  724   0.566   2.399   2.727
  808SOL    HW1  725   0.578   2.465   2.653
  808SOL    HW2  726   0.612   2.433   2.810
  809SOL     OW  727   1.252   3.210   2.250
  809SOL    HW1  728   1.302   3.287   2.290
  809SOL    HW2  729   1.157   3.212   2.282
  810SOL     OW  730   1.272   3.307   3.004
  810SOL    HW1  731   1.319   3.320   3.091
  810SOL    HW2  732   1.206   3.233   3.013
  811SOL     OW  733   1.582   2.501   2.334
  811SOL    HW1  734   1.551   2.562   2.407
  811SOL    HW2  735   1.632   2.553   2.265
  814SOL     OW  736   1.587   2.641   3.532
  814SOL    HW1  737   1.495   2.679   3.527
  814SOL    HW2  738   1.647   2.688   3.467
  818SOL     OW  739   1.360   2.724   2.907
  818SOL    HW1  740   1.285   2.724   2.841
  818SOL    HW2  741   1.397   2.632   2.916
  819SOL     OW  742   1.209   2.387   2.137
  819SOL    HW1  743   1.222   2.303   2.191
  819SOL    HW2  744   1.180   2.461   2.197
  822SOL     OW  745   0.732   2.496   2.926
  822SOL    HW1  746   0.791   2.470   2.850
  822SOL    HW2  747   0.704   2.592   2.915
  823SOL     OW  748   1.728   2.797   3.716
  823SOL    HW1  749   1.682   2.790   3.627
  823SOL    HW2  750   1.666   2.841   3.782
  825SOL     OW  751   1.622   2.229   2.236
  825SOL    HW1  752   1.624   2.153   2.300
  825SOL    HW2  753   1.574   2.306   2.276
  826SOL     OW  754   1.023   2.628   2.828
  826SOL    HW1  755   1.038   2.649   2.924
  826SOL    HW2  756   0.993   2.533   2.819
  830SOL     OW  757   1.540   2.136   1.987
  830SOL    HW1  758   1.479   2.061   2.010
  830SOL    HW2  759   1.562   2.188   2.070
  831SOL     OW  760   1.303   2.700   1.904
  831SOL    HW1  761   1.337   2.607   1.919
  831SOL    HW2  762   1.321   2.727   1.809
  832SOL     OW  763   1.068   3.195   2.711
  832SOL    HW1  764   1.075   3.111   2.656
  832SOL    HW2  765   1.130   3.264   2.675
  835SOL     OW  766   1.138   2.242   3.540
  835SOL    HW1  767   1.093   2.305   3.604
  835SOL    HW2  768   1.231   2.273   3.523
  836SOL     OW  769   1.160   2.069   3.339
  836SOL    HW1  770   1.160   2.133   3.416
  836SOL    HW2  771   1.188   2.117   3.256
  840SOL     OW  772   1.002   2.658   3.100
  840SOL    HW1  773   1.043   2.626   3.186
  840SOL    HW2  774   0.906   2.631   3.097
  843SOL     OW  775   1.369   2.812   3.522
  843SOL    HW1  776   1.408   2.901   3.542
  843SOL    HW2  777   1.379   2.792   3.425
  844SOL     OW  778   0.815   2.434   2.187
  844SOL    HW1  779   0.822   2.345   2.141
  844SOL    HW2  780   0.721   2.468   2.179
  845SOL     OW  781   1.657   2.466   3.068
  845SOL    HW1  782   1.619   2.397   3.130
  845SOL    HW2  783   1.739   2.430   3.024
  847SOL     OW  784   0.671   2.326   3.131
  847SOL    HW1  785   0.637   2.237   3.101
  847SOL    HW2  786   0.697   2.380   3.051
  849SOL     OW  787   0.473   2.362   2.053
  849SOL    HW1  788   0.534   2.442   2.057
  849SOL    HW2  789   0.378   2.393   2.060
  851SOL     OW  790   1.347   2.921   3.096
  851SOL    HW1  791   1.371   2.858   3.022
  851SOL    HW2  792   1.257   2.961   3.078
  852SOL     OW  793   1.302   2.717   2.171
  852SOL    HW1  794   1.216   2.686   2.213
  852SOL    HW2  795   1.298   2.703   2.072
  853SOL     OW  796   1.759   3.609   3.016
  853SOL    HW1  797   1.820   3.639   2.943
  853SOL    HW2  798   1.721   3.520   2.994
  857SOL     OW  799   1.726   1.997   2.385
  857SOL    HW1  800   1.799   1.980   2.318
  857SOL    HW2  801   1.695   1.910   2.423
  858SOL     OW  802   1.388   3.435   2.339
  858SOL    HW1  803   1.455   3.447   2.265
  858SOL    HW2  804   1.348   3.524   2.362
  860SOL     OW  805   1.280   2.789   2.534
  860SOL    HW1  806   1.340   2.708   2.536
  860SOL    HW2  807   1.320   2.858   2.474
  864SOL     OW  808   1.841   2.037   2.825
  864SOL    HW1  809   1.880   1.952   2.789
  864SOL    HW2  810   1.743   2.039   2.806
  866SOL     OW  811   1.194   3.474   1.893
  866SOL    HW1  812   1.200   3.381   1.930
  866SOL    HW2  813   1.135   3.474   1.813
  868SOL     OW  814   0.916   2.772   2.153
  868SOL    HW1  815   0.979   2.810   2.085
  868SOL    HW2  816   0.956   2.689   2.192
  869SOL     OW  817   1.504   3.469   1.906
  869SOL    HW1  818   1.412   3.506   1.913
  869SOL    HW2  819   1.542   3.489   1.816
  871SOL     OW  820   1.614   3.154   3.151
  871SOL    HW1  821   1.674   3.157   3.231
  871SOL    HW2  822   1.539   3.218   3.164
  872SOL     OW  823   1.039   2.960   2.558
  872SOL    HW1  824   0.969   2.913   2.612
  872SOL    HW2  825   1.098   2.892   2.515
  873SOL     OW  826   1.014   2.098   2.833
  873SOL    HW1  827   1.006   2.062   2.740
  873SOL    HW2  828   1.012   2.022   2.898
  875SOL     OW  829   1.709   2.247   3.243
  875SOL    HW1  830   1.782   2.316   3.247
  875SOL    HW2  831   1.737   2.172   3.184
  880SOL     OW  832   1.440   2.718   3.260
  880SOL    HW1  833   1.383   2.770   3.197
  880SOL    HW2  834   1.536   2.730   3.236
  882SOL     OW  835   1.183   3.197   1.981
  882SOL    HW1  836   1.084   3.186   1.983
  882SOL    HW2  837   1.217   3.212   2.074
  884SOL     OW  838   1.493   3.629   2.821
  884SOL    HW1  839   1.526   3.693   2.752
  884SOL    HW2  840   1.559   3.623   2.896
  886SOL     OW  841   1.450   3.082   3.495
  886SOL    HW1  842   1.441   3.072   3.594
  886SOL    HW2  843   1.546   3.075   3.469
  888SOL     OW  844   1.674   2.745   3.116
  888SOL    HW1  845   1.647   2.656   3.079
  888SOL    HW2  846   1.675   2.813   3.043
  889SOL     OW  847   1.225   2.187   2.311
  889SOL    HW1  848   1.290   2.113   2.300
  889SOL    HW2  849   1.245   2.237   2.395
  890SOL     OW  850   0.594   2.607   2.514
  890SOL    HW1  851   0.644   2.692   2.495
  890SOL    HW2  852   0.506   2.609   2.466
  891SOL     OW  853   1.777   2.204   3.504
  891SOL    HW1  854   1.760   2.235   3.410
  891SOL    HW2  855   1.693   2.167   3.542
  892SOL     OW  856   1.730   2.796   3.379
  892SOL    HW1  857   1.768   2.887   3.394
  892SOL    HW2  858   1.722   2.779   3.280
  893SOL     OW  859   0.859   3.236   1.878
  893SOL    HW1  860   0.813   3.251   1.966
  893SOL    HW2  861   0.903   3.321   1.848
  895SOL     OW  862   0.859   2.818   2.723
  895SOL    HW1  863   0.913   2.749   2.771
  895SOL    HW2  864   0.827   2.887   2.789
  896SOL     OW  865   1.083   2.846   1.949
  896SOL    HW1  866   1.060   2.899   1.867
  896SOL    HW2  867   1.164   2.790   1.930
  897SOL     OW  868   1.861   3.431   2.713
  897SOL    HW1  869   1.790   3.419   2.643
  897SOL    HW2  870   1.862   3.352   2.773
  901SOL     OW  871   1.824   2.054   3.089
  901SOL    HW1  872   1.820   1.964   3.133
  901SOL    HW2  873   1.827   2.043   2.990
  902SOL     OW  874   0.428   2.286   2.382
  902SOL    HW1  875   0.458   2.214   2.320
  902SOL    HW2  876   0.389   2.246   2.465
  903SOL     OW  877   1.705   3.349   2.966
  903SOL    HW1  878   1.612   3.324   2.939
  903SOL    HW2  879   1.731   3.299   3.048
  906SOL     OW  880   1.424   2.076   2.974
  906SOL    HW1  881   1.476   2.011   3.029
  906SOL    HW2  882   1.375   2.139   3.035
  907SOL     OW  883   1.001   1.896   3.016
  907SOL    HW1  884   0.938   1.824   2.985
  907SOL    HW2  885   1.094   1.860   3.016
  908SOL     OW  886   0.770   3.192   2.163
  908SOL    HW1  887   0.724   3.105   2.180
  908SOL    HW2  888   0.861   3.189   2.204
  910SOL     OW  889   1.352   1.914   2.030
  910SOL    HW1  890   1.387   1.873   1.946
  910SOL    HW2  891   1.262   1.876   2.050
  911SOL     OW  892   1.300   2.315   2.553
  911SOL    HW1  893   1.241   2.395   2.557
  911SOL    HW2  894   1.315   2.280   2.646
  912SOL     OW  895   1.593   2.083   2.744
  912SOL    HW1  896   1.509   2.082   2.798
  912SOL    HW2  897   1.595   2.166   2.688
  952SOL     OW  898   1.540   2.136   3.849
  952SOL    HW1  899   1.479   2.061   3.872
  952SOL    HW2  900   1.562   2.188   3.932
 1096SOL     OW  901   1.726   3.859   2.385
 1096SOL    HW1  902   1.799   3.842   2.318
 1096SOL    HW2  903   1.695   3.772   2.423
 1137SOL     OW  904   2.431   1.275   1.165
 1137SOL    HW1  905   2.338   1.268   1.128
 1137SOL    HW2  906   2.442   1.364   1.209
 1141SOL     OW  907   2.630   1.144   1.023
 1141SOL    HW1  908   2.552   1.161   1.083
 1141SOL    HW2  909   2.664   1.231   0.987
 1142SOL     OW  910   2.712   0.798   1.823
 1142SOL    HW1  911   2.708   0.874   1.888
 1142SOL    HW2  912   2.734   0.834   1.732
 1144SOL     OW  913   2.548   1.161   1.803
 1144SOL    HW1  914   2.608   1.240   1.817
 1144SOL    HW2  915   2.462   1.192   1.762
 1145SOL     OW  916   2.197   1.435   1.061
 1145SOL    HW1  917   2.119   1.404   1.008
 1145SOL    HW2  918   2.255   1.493   1.004
 1146SOL     OW  919   3.322   1.505   1.339
 1146SOL    HW1  920   3.346   1.599   1.365
 1146SOL    HW2  921   3.306   1.451   1.421
 1149SOL     OW  922   2.093   1.713   0.483
 1149SOL    HW1  923   2.127   1.790   0.537
 1149SOL    HW2  924   2.137   1.713   0.393
 1150SOL     OW  925   2.989   1.341   1.690
 1150SOL    HW1  926   3.036   1.341   1.778
 1150SOL    HW2  927   2.941   1.254   1.679
 1151SOL     OW  928   2.092   1.434   0.538
 1151SOL    HW1  929   2.066   1.530   0.538
 1151SOL    HW2  930   2.021   1.380   0.583
 1152SOL     OW  931   2.102   1.091   0.886
 1152SOL    HW1  932   2.116   1.007   0.938
 1152SOL    HW2  933   2.047   1.155   0.941
 1153SOL     OW  934   2.482   1.786   1.439
 1153SOL    HW1  935   2.390   1.769   1.474
 1153SOL    HW2  936   2.510   1.878   1.465
 1161SOL     OW  937   1.975   0.737   1.597
 1161SOL    HW1  938   2.063   0.724   1.642
 1161SOL    HW2  939   1.962   0.834   1.575
 1162SOL     OW  940   2.475   1.365   0.726
 1162SOL    HW1  941   2.426   1.278   0.735
 1162SOL    HW2  942   2.452   1.408   0.639
 1163SOL     OW  943   3.155   1.228   1.423
 1163SOL    HW1  944   3.192   1.155   1.365
 1163SOL    HW2  945   3.207   1.233   1.508
 1165SOL     OW  946   2.059   0.976   1.264
 1165SOL    HW1  947   2.148   0.931   1.250
 1165SOL    HW2  948   1.986   0.911   1.245
 1167SOL     OW  949   3.049   1.792   1.616
 1167SOL    HW1  950   3.073   1.852   1.540
 1167SOL    HW2  951   3.056   1.697   1.586
 1174SOL     OW  952   2.669   0.605   1.465
 1174SOL    HW1  953   2.622   0.602   1.554
 1174SOL    HW2  954   2.618   0.550   1.399
 1176SOL     OW  955   2.835   0.890   1.572
 1176SOL    HW1  956   2.881   0.806   1.543
 1176SOL    HW2  957   2.779   0.924   1.497
 1180SOL     OW  958   1.992   1.821   1.571
 1180SOL    HW1  959   1.982   1.806   1.670
 1180SOL    HW2  960   1.906   1.857   1.535
 1186SOL     OW  961   2.213   1.801   0.853
 1186SOL    HW1  962   2.263   1.715   0.859
 1186SOL    HW2  963   2.278   1.878   0.850
 1188SOL     OW  964   3.089   1.550   1.506
 1188SOL    HW1  965   3.095   1.473   1.570
 1188SOL    HW2  966   3.037   1.524   1.426
 1191SOL     OW  967   2.323   1.266   1.727
 1191SOL    HW1  968   2.273   1.267   1.641
 1191SOL    HW2  969   2.260   1.248   1.803
 1197SOL     OW  970   2.111   1.785   1.241
 1197SOL    HW1  971   2.168   1.720   1.291
 1197SOL    HW2  972   2.095   1.752   1.148
 1198SOL     OW  973   2.802   1.698   0.904
 1198SOL    HW1  974   2.882   1.641   0.925
 1198SOL    HW2  975   2.753   1.658   0.827
 1203SOL     OW  976   2.750   1.514   1.195
 1203SOL    HW1  977   2.727   1.489   1.101
 1203SOL    HW2  978   2.811   1.445   1.234
 1205SOL     OW  979   2.665   1.402   0.924
 1205SOL    HW1  980   2.755   1.416   0.882
 1205SOL    HW2  981   2.594   1.404   0.853
 1212SOL     OW  982   3.089   1.570   0.793
 1212SOL    HW1  983   3.110   1.644   0.728
 1212SOL    HW2  984   3.157   1.570   0.866
 1213SOL     OW  985   2.321   1.152   0.741
 1213SOL    HW1  986   2.250   1.125   0.806
 1213SOL    HW2  987   2.295   1.124   0.648
 1228SOL     OW  988   2.926   1.347   1.340
 1228SOL    HW1  989   2.846   1.324   1.395
 1228SOL    HW2  990   3.009   1.321   1.389
 1229SOL     OW  991   3.454   1.629   1.625
 1229SOL    HW1  992   3.481   1.663   1.535
 1229SOL    HW2  993   3.533   1.591   1.671
 1230SOL     OW  994   2.973   1.195   1.100
 1230SOL    HW1  995   2.933   1.239   1.181
 1230SOL    HW2  996   2.932   1.232   1.017
 1233SOL     OW  997   2.842   1.116   1.719
 1233SOL    HW1  998   2.743   1.122   1.729
 1233SOL    HW2  999   2.865   1.036   1.663
 1235SOL     OW 1000   2.272   0.813   1.251
 1235SOL    HW1 1001   2.358   0.825   1.301
 1235SOL    HW2 1002   2.230   0.726   1.278
 1237SOL     OW 1003   1.926   1.564   1.331
 1237SOL    HW1 1004   1.880   1.646   1.297
 1237SOL    HW2 1005   2.024   1.583   1.340
 1241SOL     OW 1006   3.134   1.445   1.142
 1241SOL    HW1 1007   3.181   1.458   1.229
 1241SOL    HW2 1008   3.068   1.371   1.151
 1243SOL     OW 1009   2.216   1.510   1.329
 1243SOL    HW1 1010   2.195   1.466   1.242
 1243SOL    HW2 1011   2.313   1.536   1.332
 1244SOL     OW 1012   2.264   0.751   1.598
 1244SOL    HW1 1013   2.332   0.806   1.551
 1244SOL    HW2 1014   2.304   0.663   1.625
 1248SOL     OW 1015   2.435   0.870   1.029
 1248SOL    HW1 1016   2.479   0.959   1.020
 1248SOL    HW2 1017   2.372   0.870   1.106
 1252SOL     OW 1018   1.899   1.310   1.282
 1252SOL    HW1 1019   1.952   1.261   1.350
 1252SOL    HW2 1020   1.921   1.408   1.287
 1258SOL     OW 1021   2.842   1.573   1.700
 1258SOL    HW1 1022   2.822   1.617   1.612
 1258SOL    HW2 1023   2.881   1.482   1.684
 1259SOL     OW 1024   3.721   1.518   1.605
 1259SOL    HW1 1025   3.735   1.545   1.510
 1259SOL    HW2 1026   3.804   1.540   1.658
 1260SOL     OW 1027   2.212   0.898   1.804
 1260SOL    HW1 1028   2.288   0.942   1.852
 1260SOL    HW2 1029   2.247   0.851   1.722
 1263SOL     OW 1030   2.930   1.333   0.849
 1263SOL    HW1 1031   2.937   1.249   0.794
 1263SOL    HW2 1032   2.992   1.402   0.813
 1269SOL     OW 1033   1.950   1.801   0.927
 1269SOL    HW1 1034   1.908   1.715   0.900
 1269SOL    HW2 1035   2.044   1.804   0.893
 1270SOL     OW 1036   2.366   1.568   0.910
 1270SOL    HW1 1037   2.432   1.642   0.919
 1270SOL    HW2 1038   2.410   1.489   0.868
 1271SOL     OW 1039   2.864   0.796   1.238
 1271SOL    HW1 1040   2.905   0.764   1.324
 1271SOL    HW2 1041   2.768   0.769   1.235
 1273SOL     OW 1042   2.051   0.520   1.722
 1273SOL    HW1 1043   2.110   0.480   1.652
 1273SOL    HW2 1044   1.993   0.591   1.681
 1274SOL     OW 1045   3.231   0.950   1.660
 1274SOL    HW1 1046   3.270   1.039   1.680
 1274SOL    HW2 1047   3.241   0.930   1.563
 1277SOL     OW 1048   2.114   1.564   1.744
 1277SOL    HW1 1049   2.084   1.621   1.820
 1277SOL    HW2 1050   2.107   1.467   1.770
 1279SOL     OW 1051   2.792   1.678   1.465
 1279SOL    HW1 1052   2.768   1.660   1.370
 1279SOL    HW2 1053   2.822   1.772   1.475
 1281SOL     OW 1054   2.021   1.137   1.466
 1281SOL    HW1 1055   2.043   1.076   1.542
 1281SOL    HW2 1056   2.031   1.088   1.380
 1282SOL     OW 1057   3.209   1.059   1.234
 1282SOL    HW1 1058   3.233   0.996   1.160
 1282SOL    HW2 1059   3.119   1.099   1.216
 1285SOL     OW 1060   3.114   1.731   1.128
 1285SOL    HW1 1061   3.198   1.736   1.074
 1285SOL    HW2 1062   3.091   1.635   1.146
 1286SOL     OW 1063   1.945   1.258   1.022
 1286SOL    HW1 1064   1.940   1.257   1.122
 1286SOL    HW2 1065   1.862   1.217   0.984
 1287SOL     OW 1066   2.550   1.662   1.716
 1287SOL    HW1 1067   2.494   1.743   1.725
 1287SOL    HW2 1068   2.602   1.666   1.630
 1291SOL     OW 1069   1.992   1.794   1.851
 1291SOL    HW1 1070   1.951   1.720   1.904
 1291SOL    HW2 1071   2.056   1.845   1.909
 1293SOL     OW 1072   2.692   1.273   1.422
 1293SOL    HW1 1073   2.687   1.306   1.517
 1293SOL    HW2 1074   2.606   1.292   1.376
 1295SOL     OW 1075   3.512   1.720   1.394
 1295SOL    HW1 1076   3.565   1.730   1.310
 1295SOL    HW2 1077   3.485   1.810   1.428
 1299SOL     OW 1078   2.684   1.002   1.372
 1299SOL    HW1 1079   2.724   1.001   1.280
 1299SOL    HW2 1080   2.694   1.094   1.412
 1302SOL     OW 1081   2.234   1.288   1.490
 1302SOL    HW1 1082   2.221   1.381   1.456
 1302SOL    HW2 1083   2.150   1.236   1.477
 1309SOL     OW 1084   1.967   1.013   1.726
 1309SOL    HW1 1085   1.890   0.980   1.780
 1309SOL    HW2 1086   2.052   0.983   1.768
 1315SOL     OW 1087   2.475   0.842   1.431
 1315SOL    HW1 1088   2.531   0.923   1.414
 1315SOL    HW2 1089   2.534   0.762   1.434
 1316SOL     OW 1090   3.355   1.767   0.959
 1316SOL    HW1 1091   3.388   1.831   0.890
 1316SOL    HW2 1092   3.421   1.761   1.034
 1317SOL     OW 1093   2.578   0.565   1.708
 1317SOL    HW1 1094   2.597   0.630   1.782
 1317SOL    HW2 1095   2.638   0.485   1.717
 1318SOL     OW 1096   3.312   1.220   1.633
 1318SOL    HW1 1097   3.303   1.210   1.732
 1318SOL    HW2 1098   3.408   1.213   1.607
 1319SOL     OW 1099   2.252   1.741   1.560
 1319SOL    HW1 1100   2.161   1.782   1.558
 1319SOL    HW2 1101   2.245   1.647   1.592
 1326SOL     OW 1102   2.523   1.790   0.953
 1326SOL    HW1 1103   2.477   1.878   0.940
 1326SOL    HW2 1104   2.622   1.802   0.946
 1330SOL     OW 1105   2.083   1.314   1.844
 1330SOL    HW1 1106   2.018   1.241   1.823
 1330SOL    HW2 1107   2.087   1.328   1.942
 1331SOL     OW 1108   1.941   1.240   0.653
 1331SOL    HW1 1109   1.940   1.193   0.741
 1331SOL    HW2 1110   2.023   1.212   0.602
 1332SOL     OW 1111   2.534   1.391   1.624
 1332SOL    HW1 1112   2.456   1.341   1.662
 1332SOL    HW2 1113   2.531   1.486   1.655
 1337SOL     OW 1114   2.674   1.586   0.687
 1337SOL    HW1 1115   2.706   1.596   0.593
 1337SOL    HW2 1116   2.595   1.524   0.689
 1341SOL     OW 1117   2.480   1.567   1.284
 1341SOL    HW1 1118   2.475   1.649   1.341
 1341SOL    HW2 1119   2.569   1.564   1.239
 1347SOL     OW 1120   2.092   0.628   1.975
 1347SOL    HW1 1121   1.999   0.626   2.012
 1347SOL    HW2 1122   2.093   0.589   1.883
 1350SOL     OW 1123   2.431   1.275   3.027
 1350SOL    HW1 1124   2.338   1.268   2.990
 1350SOL    HW2 1125   2.442   1.364   3.071
 1351SOL     OW 1126   3.417   1.511   2.565
 1351SOL    HW1 1127   3.360   1.495   2.646
 1351SOL    HW2 1128   3.358   1.521   2.485
 1352SOL     OW 1129   2.997   0.703   2.579
 1352SOL    HW1 1130   3.054   0.781   2.554
 1352SOL    HW2 1131   2.937   0.729   2.655
 1354SOL     OW 1132   2.630   1.144   2.885
 1354SOL    HW1 1133   2.552   1.161   2.945
 1354SOL    HW2 1134   2.664   1.231   2.849
 1356SOL     OW 1135   2.547   1.012   2.527
 1356SOL    HW1 1136   2.616   0.996   2.597
 1356SOL    HW2 1137   2.474   1.069   2.565
 1358SOL     OW 1138   2.197   1.435   2.923
 1358SOL    HW1 1139   2.119   1.404   2.870
 1358SOL    HW2 1140   2.255   1.493   2.866
 1359SOL     OW 1141   3.322   1.505   3.201
 1359SOL    HW1 1142   3.346   1.599   3.227
 1359SOL    HW2 1143   3.306   1.451   3.283
 1362SOL     OW 1144   2.093   1.713   2.345
 1362SOL    HW1 1145   2.127   1.790   2.399
 1362SOL    HW2 1146   2.137   1.713   2.255
 1364SOL     OW 1147   2.092   1.434   2.400
 1364SOL    HW1 1148   2.066   1.530   2.400
 1364SOL    HW2 1149   2.021   1.380   2.445
 1365SOL     OW 1150   2.102   1.091   2.748
 1365SOL    HW1 1151   2.116   1.007   2.800
 1365SOL    HW2 1152   2.047   1.155   2.803
 1366SOL     OW 1153   2.482   1.786   3.301
 1366SOL    HW1 1154   2.390   1.769   3.336
 1366SOL    HW2 1155   2.510   1.878   3.327
 1367SOL     OW 1156   2.468   0.964   1.985
 1367SOL    HW1 1157   2.475   1.048   1.931
 1367SOL    HW2 1158   2.514   0.977   2.073
 1369SOL     OW 1159   1.984   0.643   2.425
 1369SOL    HW1 1160   1.939   0.555   2.442
 1369SOL    HW2 1161   1.983   0.697   2.509
 1370SOL     OW 1162   3.704   1.767   2.221
 1370SOL    HW1 1163   3.758   1.738   2.301
 1370SOL    HW2 1164   3.734   1.857   2.192
 1371SOL     OW 1165   1.889   1.596   1.979
 1371SOL    HW1 1166   1.870   1.500   2.000
 1371SOL    HW2 1167   1.856   1.654   2.054
 1373SOL     OW 1168   3.503   1.108   2.294
 1373SOL    HW1 1169   3.589   1.110   2.242
 1373SOL    HW2 1170   3.517   1.155   2.382
 1375SOL     OW 1171   2.475   1.365   2.588
 1375SOL    HW1 1172   2.426   1.278   2.597
 1375SOL    HW2 1173   2.452   1.408   2.501
 1376SOL     OW 1174   3.155   1.228   3.285
 1376SOL    HW1 1175   3.192   1.155   3.227
 1376SOL    HW2 1176   3.207   1.233   3.370
 1378SOL     OW 1177   2.059   0.976   3.126
 1378SOL    HW1 1178   2.148   0.931   3.112
 1378SOL    HW2 1179   1.986   0.911   3.107
 1379SOL     OW 1180   3.387   0.999   2.052
 1379SOL    HW1 1181   3.324   0.923   2.065
 1379SOL    HW2 1182   3.435   1.017   2.138
 1380SOL     OW 1183   3.049   1.792   3.478
 1380SOL    HW1 1184   3.073   1.852   3.402
 1380SOL    HW2 1185   3.056   1.697   3.448
 1382SOL     OW 1186   3.328   1.417   2.815
 1382SOL    HW1 1187   3.269   1.423   2.895
 1382SOL    HW2 1188   3.313   1.329   2.769
 1383SOL     OW 1189   3.529   1.714   2.434
 1383SOL    HW1 1190   3.488   1.691   2.346
 1383SOL    HW2 1191   3.511   1.640   2.499
 1384SOL     OW 1192   2.460   0.729   2.132
 1384SOL    HW1 1193   2.484   0.798   2.064
 1384SOL    HW2 1194   2.382   0.762   2.186
 1386SOL     OW 1195   3.438   1.662   2.169
 1386SOL    HW1 1196   3.527   1.708   2.172
 1386SOL    HW2 1197   3.417   1.638   2.074
 1391SOL     OW 1198   2.903   0.701   2.291
 1391SOL    HW1 1199   2.929   0.697   2.387
 1391SOL    HW2 1200   2.818   0.650   2.277
 1392SOL     OW 1201   1.938   0.811   2.651
 1392SOL    HW1 1202   2.037   0.799   2.660
 1392SOL    HW2 1203   1.914   0.906   2.672
 1393SOL     OW 1204   1.992   1.821   3.433
 1393SOL    HW1 1205   1.982   1.806   3.532
 1393SOL    HW2 1206   1.906   1.857   3.397
 1396SOL     OW 1207   3.224   1.144   2.407
 1396SOL    HW1 1208   3.307   1.115   2.359
 1396SOL    HW2 1209   3.175   1.211   2.351
 1398SOL     OW 1210   2.870   1.456   2.339
 1398SOL    HW1 1211   2.824   1.528   2.287
 1398SOL    HW2 1212   2.866   1.476   2.437
 1399SOL     OW 1213   2.213   1.801   2.715
 1399SOL    HW1 1214   2.263   1.715   2.721
 1399SOL    HW2 1215   2.278   1.878   2.712
 1401SOL     OW 1216   3.089   1.550   3.368
 1401SOL    HW1 1217   3.095   1.473   3.432
 1401SOL    HW2 1218   3.037   1.524   3.288
 1402SOL     OW 1219   2.183   0.943   2.104
 1402SOL    HW1 1220   2.265   0.982   2.062
 1402SOL    HW2 1221   2.156   0.861   2.055
 1404SOL     OW 1222   2.323   1.266   3.589
 1404SOL    HW1 1223   2.273   1.267   3.503
 1404SOL    HW2 1224   2.260   1.248   3.665
 1405SOL     OW 1225   2.973   1.776   2.099
 1405SOL    HW1 1226   2.913   1.714   2.149
 1405SOL    HW2 1227   3.004   1.732   2.014
 1407SOL     OW 1228   3.494   1.377   1.943
 1407SOL    HW1 1229   3.462   1.471   1.933
 1407SOL    HW2 1230   3.418   1.314   1.931
 1408SOL     OW 1231   2.326   1.743   2.185
 1408SOL    HW1 1232   2.359   1.782   2.271
 1408SOL    HW2 1233   2.402   1.736   2.120
 1410SOL     OW 1234   2.111   1.785   3.103
 1410SOL    HW1 1235   2.168   1.720   3.153
 1410SOL    HW2 1236   2.095   1.752   3.010
 1411SOL     OW 1237   2.802   1.698   2.766
 1411SOL    HW1 1238   2.882   1.641   2.787
 1411SOL    HW2 1239   2.753   1.658   2.689
 1412SOL     OW 1240   2.244   0.700   2.342
 1412SOL    HW1 1241   2.289   0.610   2.339
 1412SOL    HW2 1242   2.150   0.689   2.375
 1416SOL     OW 1243   2.750   1.514   3.057
 1416SOL    HW1 1244   2.727   1.489   2.963
 1416SOL    HW2 1245   2.811   1.445   3.096
 1418SOL     OW 1246   2.665   1.402   2.786
 1418SOL    HW1 1247   2.755   1.416   2.744
 1418SOL    HW2 1248   2.594   1.404   2.715
 1421SOL     OW 1249   3.296   1.188   1.903
 1421SOL    HW1 1250   3.328   1.112   1.960
 1421SOL    HW2 1251   3.204   1.215   1.933
 1425SOL     OW 1252   3.089   1.570   2.655
 1425SOL    HW1 1253   3.110   1.644   2.590
 1425SOL    HW2 1254   3.157   1.570   2.728
 1426SOL     OW 1255   2.321   1.152   2.603
 1426SOL    HW1 1256   2.250   1.125   2.668
 1426SOL    HW2 1257   2.295   1.124   2.510
 1427SOL     OW 1258   3.133   1.797   2.453
 1427SOL    HW1 1259   3.177   1.861   2.389
 1427SOL    HW2 1260   3.083   1.849   2.523
 1428SOL     OW 1261   2.894   0.549   1.878
 1428SOL    HW1 1262   2.853   0.631   1.839
 1428SOL    HW2 1263   2.958   0.575   1.951
 1433SOL     OW 1264   3.291   1.173   2.729
 1433SOL    HW1 1265   3.236   1.089   2.722
 1433SOL    HW2 1266   3.317   1.202   2.637
 1436SOL     OW 1267   2.350   1.385   2.036
 1436SOL    HW1 1268   2.263   1.370   2.083
 1436SOL    HW2 1269   2.333   1.411   1.941
 1437SOL     OW 1270   3.526   1.280   2.519
 1437SOL    HW1 1271   3.625   1.288   2.533
 1437SOL    HW2 1272   3.481   1.364   2.550
 1441SOL     OW 1273   2.926   1.347   3.202
 1441SOL    HW1 1274   2.846   1.324   3.257
 1441SOL    HW2 1275   3.009   1.321   3.251
 1443SOL     OW 1276   2.973   1.195   2.962
 1443SOL    HW1 1277   2.933   1.239   3.043
 1443SOL    HW2 1278   2.932   1.232   2.879
 1447SOL     OW 1279   2.567   1.050   2.230
 1447SOL    HW1 1280   2.553   1.057   2.329
 1447SOL    HW2 1281   2.651   0.999   2.212
 1448SOL     OW 1282   2.272   0.813   3.113
 1448SOL    HW1 1283   2.358   0.825   3.163
 1448SOL    HW2 1284   2.230   0.726   3.140
 1450SOL     OW 1285   1.926   1.564   3.193
 1450SOL    HW1 1286   1.880   1.646   3.159
 1450SOL    HW2 1287   2.024   1.583   3.202
 1451SOL     OW 1288   2.229   1.100   2.363
 1451SOL    HW1 1289   2.222   1.183   2.307
 1451SOL    HW2 1290   2.233   1.020   2.303
 1452SOL     OW 1291   2.428   0.537   2.727
 1452SOL    HW1 1292   2.440   0.603   2.653
 1452SOL    HW2 1293   2.474   0.571   2.810
 1453SOL     OW 1294   3.114   1.348   2.250
 1453SOL    HW1 1295   3.164   1.425   2.290
 1453SOL    HW2 1296   3.019   1.350   2.282
 1454SOL     OW 1297   3.134   1.445   3.004
 1454SOL    HW1 1298   3.181   1.458   3.091
 1454SOL    HW2 1299   3.068   1.371   3.013
 1456SOL     OW 1300   2.216   1.510   3.191
 1456SOL    HW1 1301   2.195   1.466   3.104
 1456SOL    HW2 1302   2.313   1.536   3.194
 1461SOL     OW 1303   2.435   0.870   2.891
 1461SOL    HW1 1304   2.479   0.959   2.882
 1461SOL    HW2 1305   2.372   0.870   2.968
 1465SOL     OW 1306   1.899   1.310   3.144
 1465SOL    HW1 1307   1.952   1.261   3.212
 1465SOL    HW2 1308   1.921   1.408   3.149
 1466SOL     OW 1309   2.594   0.634   2.926
 1466SOL    HW1 1310   2.653   0.608   2.850
 1466SOL    HW2 1311   2.566   0.730   2.915
 1470SOL     OW 1312   2.885   0.766   2.828
 1470SOL    HW1 1313   2.900   0.787   2.924
 1470SOL    HW2 1314   2.855   0.671   2.819
 1471SOL     OW 1315   2.842   1.573   3.562
 1471SOL    HW1 1316   2.822   1.617   3.474
 1471SOL    HW2 1317   2.881   1.482   3.546
 1475SOL     OW 1318   3.165   0.838   1.904
 1475SOL    HW1 1319   3.199   0.745   1.919
 1475SOL    HW2 1320   3.183   0.865   1.809
 1476SOL     OW 1321   2.930   1.333   2.711
 1476SOL    HW1 1322   2.937   1.249   2.656
 1476SOL    HW2 1323   2.992   1.402   2.675
 1477SOL     OW 1324   2.181   0.810   2.811
 1477SOL    HW1 1325   2.274   0.846   2.816
 1477SOL    HW2 1326   2.175   0.725   2.863
 1481SOL     OW 1327   1.870   1.326   2.062
 1481SOL    HW1 1328   1.777   1.347   2.031
 1481SOL    HW2 1329   1.880   1.227   2.075
 1482SOL     OW 1330   1.950   1.801   2.789
 1482SOL    HW1 1331   1.908   1.715   2.762
 1482SOL    HW2 1332   2.044   1.804   2.755
 1483SOL     OW 1333   2.366   1.568   2.772
 1483SOL    HW1 1334   2.432   1.642   2.781
 1483SOL    HW2 1335   2.410   1.489   2.730
 1484SOL     OW 1336   2.864   0.796   3.100
 1484SOL    HW1 1337   2.905   0.764   3.186
 1484SOL    HW2 1338   2.768   0.769   3.097
 1488SOL     OW 1339   2.677   0.572   2.187
 1488SOL    HW1 1340   2.684   0.483   2.141
 1488SOL    HW2 1341   2.583   0.606   2.179
 1490SOL     OW 1342   2.114   1.564   3.606
 1490SOL    HW1 1343   2.084   1.621   3.682
 1490SOL    HW2 1344   2.107   1.467   3.632
 1492SOL     OW 1345   2.792   1.678   3.327
 1492SOL    HW1 1346   2.768   1.660   3.232
 1492SOL    HW2 1347   2.822   1.772   3.337
 1493SOL     OW 1348   2.335   0.500   2.053
 1493SOL    HW1 1349   2.396   0.580   2.057
 1493SOL    HW2 1350   2.240   0.531   2.060
 1494SOL     OW 1351   2.021   1.137   3.328
 1494SOL    HW1 1352   2.043   1.076   3.404
 1494SOL    HW2 1353   2.031   1.088   3.242
 1495SOL     OW 1354   3.209   1.059   3.096
 1495SOL    HW1 1355   3.233   0.996   3.022
 1495SOL    HW2 1356   3.119   1.099   3.078
 1496SOL     OW 1357   3.164   0.855   2.171
 1496SOL    HW1 1358   3.078   0.824   2.213
 1496SOL    HW2 1359   3.160   0.841   2.072
 1497SOL     OW 1360   3.621   1.747   3.016
 1497SOL    HW1 1361   3.682   1.777   2.943
 1497SOL    HW2 1362   3.583   1.658   2.994
 1498SOL     OW 1363   3.114   1.731   2.990
 1498SOL    HW1 1364   3.198   1.736   2.936
 1498SOL    HW2 1365   3.091   1.635   3.008
 1499SOL     OW 1366   1.945   1.258   2.884
 1499SOL    HW1 1367   1.940   1.257   2.984
 1499SOL    HW2 1368   1.862   1.217   2.846
 1500SOL     OW 1369   2.550   1.662   3.578
 1500SOL    HW1 1370   2.494   1.743   3.587
 1500SOL    HW2 1371   2.602   1.666   3.492
 1502SOL     OW 1372   3.250   1.573   2.339
 1502SOL    HW1 1373   3.317   1.585   2.265
 1502SOL    HW2 1374   3.210   1.662   2.362
 1503SOL     OW 1375   1.992   1.794   3.713
 1503SOL    HW1 1376   1.951   1.720   3.766
 1503SOL    HW2 1377   2.056   1.845   3.771
 1504SOL     OW 1378   3.142   0.927   2.534
 1504SOL    HW1 1379   3.202   0.846   2.536
 1504SOL    HW2 1380   3.182   0.996   2.474
 1505SOL     OW 1381   2.692   1.273   3.284
 1505SOL    HW1 1382   2.687   1.306   3.379
 1505SOL    HW2 1383   2.606   1.292   3.238
 1506SOL     OW 1384   2.534   1.616   2.016
 1506SOL    HW1 1385   2.543   1.626   1.917
 1506SOL    HW2 1386   2.494   1.527   2.037
 1507SOL     OW 1387   3.512   1.720   3.256
 1507SOL    HW1 1388   3.565   1.730   3.172
 1507SOL    HW2 1389   3.485   1.810   3.290
 1510SOL     OW 1390   3.056   1.612   1.893
 1510SOL    HW1 1391   3.062   1.519   1.930
 1510SOL    HW2 1392   2.997   1.612   1.813
 1511SOL     OW 1393   2.684   1.002   3.234
 1511SOL    HW1 1394   2.724   1.001   3.142
 1511SOL    HW2 1395   2.694   1.094   3.274
 1512SOL     OW 1396   2.778   0.910   2.153
 1512SOL    HW1 1397   2.841   0.948   2.085
 1512SOL    HW2 1398   2.818   0.827   2.192
 1513SOL     OW 1399   3.366   1.607   1.906
 1513SOL    HW1 1400   3.274   1.644   1.913
 1513SOL    HW2 1401   3.404   1.627   1.816
 1514SOL     OW 1402   2.234   1.288   3.352
 1514SOL    HW1 1403   2.221   1.381   3.318
 1514SOL    HW2 1404   2.150   1.236   3.339
 1516SOL     OW 1405   2.901   1.098   2.558
 1516SOL    HW1 1406   2.831   1.051   2.612
 1516SOL    HW2 1407   2.960   1.030   2.515
 1518SOL     OW 1408   2.452   1.487   2.353
 1518SOL    HW1 1409   2.494   1.429   2.283
 1518SOL    HW2 1410   2.408   1.566   2.309
 1520SOL     OW 1411   2.117   1.348   2.152
 1520SOL    HW1 1412   2.021   1.349   2.125
 1520SOL    HW2 1413   2.129   1.401   2.236
 1526SOL     OW 1414   3.045   1.335   1.981
 1526SOL    HW1 1415   2.946   1.324   1.983
 1526SOL    HW2 1416   3.079   1.350   2.074
 1527SOL     OW 1417   2.475   0.842   3.293
 1527SOL    HW1 1418   2.531   0.923   3.276
 1527SOL    HW2 1419   2.534   0.762   3.296
 1528SOL     OW 1420   3.355   1.767   2.821
 1528SOL    HW1 1421   3.388   1.831   2.752
 1528SOL    HW2 1422   3.421   1.761   2.896
 1531SOL     OW 1423   2.252   1.741   3.422
 1531SOL    HW1 1424   2.161   1.782   3.420
 1531SOL    HW2 1425   2.245   1.647   3.454
 1534SOL     OW 1426   2.456   0.745   2.514
 1534SOL    HW1 1427   2.506   0.830   2.495
 1534SOL    HW2 1428   2.368   0.747   2.466
 1537SOL     OW 1429   2.721   1.374   1.878
 1537SOL    HW1 1430   2.675   1.389   1.966
 1537SOL    HW2 1431   2.765   1.459   1.848
 1538SOL     OW 1432   2.523   1.790   2.815
 1538SOL    HW1 1433   2.477   1.878   2.802
 1538SOL    HW2 1434   2.622   1.802   2.808
 1539SOL     OW 1435   2.721   0.956   2.723
 1539SOL    HW1 1436   2.775   0.887   2.771
 1539SOL    HW2 1437   2.689   1.025   2.789
 1540SOL     OW 1438   2.945   0.984   1.949
 1540SOL    HW1 1439   2.922   1.037   1.867
 1540SOL    HW2 1440   3.026   0.928   1.930
 1541SOL     OW 1441   3.723   1.569   2.713
 1541SOL    HW1 1442   3.652   1.557   2.643
 1541SOL    HW2 1443   3.724   1.490   2.773
 1542SOL     OW 1444   2.083   1.314   3.706
 1542SOL    HW1 1445   2.018   1.241   3.685
 1542SOL    HW2 1446   2.087   1.328   3.804
 1543SOL     OW 1447   1.941   1.240   2.515
 1543SOL    HW1 1448   1.940   1.193   2.603
 1543SOL    HW2 1449   2.023   1.212   2.464
 1544SOL     OW 1450   2.534   1.391   3.486
 1544SOL    HW1 1451   2.456   1.341   3.524
 1544SOL    HW2 1452   2.531   1.486   3.517
 1546SOL     OW 1453   2.290   0.424   2.382
 1546SOL    HW1 1454   2.320   0.352   2.320
 1546SOL    HW2 1455   2.251   0.384   2.465
 1547SOL     OW 1456   3.567   1.487   2.966
 1547SOL    HW1 1457   3.474   1.462   2.939
 1547SOL    HW2 1458   3.593   1.437   3.048
 1549SOL     OW 1459   2.674   1.586   2.549
 1549SOL    HW1 1460   2.706   1.596   2.455
 1549SOL    HW2 1461   2.595   1.524   2.551
 1552SOL     OW 1462   2.632   1.330   2.163
 1552SOL    HW1 1463   2.586   1.243   2.180
 1552SOL    HW2 1464   2.723   1.327   2.204
 1553SOL     OW 1465   2.480   1.567   3.146
 1553SOL    HW1 1466   2.475   1.649   3.203
 1553SOL    HW2 1467   2.569   1.564   3.101
 1557SOL     OW 1468   1.901   1.077   2.162
 1557SOL    HW1 1469   2.000   1.066   2.153
 1557SOL    HW2 1470   1.861   0.991   2.194
 1558SOL     OW 1471   2.737   1.646   2.199
 1558SOL    HW1 1472   2.660   1.611   2.145
 1558SOL    HW2 1473   2.705   1.717   2.261
 1565SOL     OW 1474   1.889   1.596   3.841
 1565SOL    HW1 1475   1.870   1.500   3.862
 1565SOL    HW2 1476   1.856   1.654   3.916
 1623SOL     OW 1477   2.087   2.137   0.996
 1623SOL    HW1 1478   2.122   2.120   1.088
 1623SOL    HW2 1479   1.999   2.092   0.984
 1624SOL     OW 1480   1.881   2.230   0.647
 1624SOL    HW1 1481   1.799   2.273   0.686
 1624SOL    HW2 1482   1.853   2.157   0.584
 1625SOL     OW 1483   2.431   3.137   1.165
 1625SOL    HW1 1484   2.338   3.130   1.128
 1625SOL    HW2 1485   2.442   3.226   1.209
 1627SOL     OW 1486   2.997   2.565   0.717
 1627SOL    HW1 1487   3.054   2.643   0.692
 1627SOL    HW2 1488   2.937   2.591   0.793
 1629SOL     OW 1489   2.630   3.006   1.023
 1629SOL    HW1 1490   2.552   3.023   1.083
 1629SOL    HW2 1491   2.664   3.093   0.987
 1630SOL     OW 1492   2.712   2.660   1.823
 1630SOL    HW1 1493   2.708   2.736   1.888
 1630SOL    HW2 1494   2.734   2.696   1.732
 1631SOL     OW 1495   2.547   2.874   0.665
 1631SOL    HW1 1496   2.616   2.858   0.735
 1631SOL    HW2 1497   2.474   2.931   0.703
 1632SOL     OW 1498   2.548   3.023   1.803
 1632SOL    HW1 1499   2.608   3.102   1.817
 1632SOL    HW2 1500   2.462   3.054   1.762
 1633SOL     OW 1501   2.197   3.297   1.061
 1633SOL    HW1 1502   2.119   3.266   1.008
 1633SOL    HW2 1503   2.255   3.355   1.004
 1635SOL     OW 1504   2.300   2.254   1.499
 1635SOL    HW1 1505   2.382   2.198   1.508
 1635SOL    HW2 1506   2.219   2.196   1.503
 1638SOL     OW 1507   2.989   3.203   1.690
 1638SOL    HW1 1508   3.036   3.203   1.778
 1638SOL    HW2 1509   2.941   3.116   1.679
 1640SOL     OW 1510   2.102   2.953   0.886
 1640SOL    HW1 1511   2.116   2.869   0.938
 1640SOL    HW2 1512   2.047   3.017   0.941
 1641SOL     OW 1513   2.482   3.648   1.439
 1641SOL    HW1 1514   2.390   3.631   1.474
 1641SOL    HW2 1515   2.510   3.740   1.465
 1643SOL     OW 1516   3.456   1.976   1.480
 1643SOL    HW1 1517   3.438   2.043   1.408
 1643SOL    HW2 1518   3.453   2.022   1.569
 1644SOL     OW 1519   1.984   2.505   0.563
 1644SOL    HW1 1520   1.939   2.417   0.580
 1644SOL    HW2 1521   1.983   2.559   0.647
 1649SOL     OW 1522   1.975   2.599   1.597
 1649SOL    HW1 1523   2.063   2.586   1.642
 1649SOL    HW2 1524   1.962   2.696   1.575
 1651SOL     OW 1525   3.155   3.090   1.423
 1651SOL    HW1 1526   3.192   3.017   1.365
 1651SOL    HW2 1527   3.207   3.095   1.508
 1652SOL     OW 1528   2.671   1.866   0.502
 1652SOL    HW1 1529   2.711   1.957   0.493
 1652SOL    HW2 1530   2.571   1.874   0.508
 1653SOL     OW 1531   2.059   2.838   1.264
 1653SOL    HW1 1532   2.148   2.793   1.250
 1653SOL    HW2 1533   1.986   2.773   1.245
 1656SOL     OW 1534   2.179   2.113   1.801
 1656SOL    HW1 1535   2.250   2.184   1.807
 1656SOL    HW2 1536   2.091   2.152   1.829
 1660SOL     OW 1537   3.143   2.207   0.944
 1660SOL    HW1 1538   3.057   2.157   0.931
 1660SOL    HW2 1539   3.205   2.153   1.000
 1662SOL     OW 1540   2.669   2.467   1.465
 1662SOL    HW1 1541   2.622   2.464   1.554
 1662SOL    HW2 1542   2.618   2.412   1.399
 1663SOL     OW 1543   3.256   2.331   1.674
 1663SOL    HW1 1544   3.236   2.374   1.762
 1663SOL    HW2 1545   3.334   2.269   1.683
 1664SOL     OW 1546   2.835   2.752   1.572
 1664SOL    HW1 1547   2.881   2.668   1.543
 1664SOL    HW2 1548   2.779   2.786   1.497
 1665SOL     OW 1549   2.853   2.272   1.242
 1665SOL    HW1 1550   2.776   2.306   1.296
 1665SOL    HW2 1551   2.819   2.221   1.163
 1667SOL     OW 1552   1.938   2.673   0.789
 1667SOL    HW1 1553   2.037   2.661   0.798
 1667SOL    HW2 1554   1.914   2.768   0.810
 1668SOL     OW 1555   1.992   3.683   1.571
 1668SOL    HW1 1556   1.982   3.668   1.670
 1668SOL    HW2 1557   1.906   3.719   1.535
 1670SOL     OW 1558   3.581   2.447   1.831
 1670SOL    HW1 1559   3.555   2.536   1.795
 1670SOL    HW2 1560   3.579   2.379   1.758
 1672SOL     OW 1561   2.412   2.058   0.885
 1672SOL    HW1 1562   2.407   2.053   0.985
 1672SOL    HW2 1563   2.414   2.154   0.856
 1676SOL     OW 1564   3.089   3.412   1.506
 1676SOL    HW1 1565   3.095   3.335   1.570
 1676SOL    HW2 1566   3.037   3.386   1.426
 1679SOL     OW 1567   2.323   3.128   1.727
 1679SOL    HW1 1568   2.273   3.129   1.641
 1679SOL    HW2 1569   2.260   3.110   1.803
 1681SOL     OW 1570   2.064   2.147   1.498
 1681SOL    HW1 1571   1.984   2.207   1.485
 1681SOL    HW2 1572   2.054   2.098   1.584
 1685SOL     OW 1573   2.111   3.647   1.241
 1685SOL    HW1 1574   2.168   3.582   1.291
 1685SOL    HW2 1575   2.095   3.614   1.148
 1687SOL     OW 1576   2.244   2.562   0.480
 1687SOL    HW1 1577   2.289   2.472   0.477
 1687SOL    HW2 1578   2.150   2.551   0.513
 1688SOL     OW 1579   3.409   2.084   1.729
 1688SOL    HW1 1580   3.404   2.121   1.821
 1688SOL    HW2 1581   3.337   2.015   1.717
 1690SOL     OW 1582   2.643   2.126   1.749
 1690SOL    HW1 1583   2.710   2.065   1.792
 1690SOL    HW2 1584   2.570   2.145   1.814
 1691SOL     OW 1585   2.750   3.376   1.195
 1691SOL    HW1 1586   2.727   3.351   1.101
 1691SOL    HW2 1587   2.811   3.307   1.234
 1692SOL     OW 1588   3.213   2.452   1.433
 1692SOL    HW1 1589   3.241   2.409   1.518
 1692SOL    HW2 1590   3.238   2.548   1.434
 1693SOL     OW 1591   2.665   3.264   0.924
 1693SOL    HW1 1592   2.755   3.278   0.882
 1693SOL    HW2 1593   2.594   3.266   0.853
 1694SOL     OW 1594   2.784   2.365   0.899
 1694SOL    HW1 1595   2.759   2.356   0.803
 1694SOL    HW2 1596   2.832   2.283   0.930
 1695SOL     OW 1597   2.401   1.926   0.512
 1695SOL    HW1 1598   2.320   1.927   0.570
 1695SOL    HW2 1599   2.404   2.009   0.457
 1699SOL     OW 1600   2.938   2.545   1.464
 1699SOL    HW1 1601   2.858   2.484   1.467
 1699SOL    HW2 1602   3.019   2.492   1.440
 1701SOL     OW 1603   2.321   3.014   0.741
 1701SOL    HW1 1604   2.250   2.987   0.806
 1701SOL    HW2 1605   2.295   2.986   0.648
 1704SOL     OW 1606   1.940   2.418   1.386
 1704SOL    HW1 1607   2.032   2.417   1.345
 1704SOL    HW2 1608   1.934   2.492   1.453
 1705SOL     OW 1609   2.423   2.084   1.147
 1705SOL    HW1 1610   2.461   2.000   1.184
 1705SOL    HW2 1611   2.335   2.103   1.191
 1706SOL     OW 1612   2.728   2.316   0.642
 1706SOL    HW1 1613   2.696   2.388   0.580
 1706SOL    HW2 1614   2.752   2.235   0.589
 1707SOL     OW 1615   2.879   1.901   0.753
 1707SOL    HW1 1616   2.807   1.906   0.684
 1707SOL    HW2 1617   2.855   1.832   0.822
 1709SOL     OW 1618   3.328   2.452   0.992
 1709SOL    HW1 1619   3.298   2.357   0.999
 1709SOL    HW2 1620   3.401   2.468   1.058
 1716SOL     OW 1621   2.926   3.209   1.340
 1716SOL    HW1 1622   2.846   3.186   1.395
 1716SOL    HW2 1623   3.009   3.183   1.389
 1718SOL     OW 1624   2.973   3.057   1.100
 1718SOL    HW1 1625   2.933   3.101   1.181
 1718SOL    HW2 1626   2.932   3.094   1.017
 1720SOL     OW 1627   2.777   1.951   1.402
 1720SOL    HW1 1628   2.802   1.931   1.307
 1720SOL    HW2 1629   2.849   2.007   1.444
 1721SOL     OW 1630   2.842   2.978   1.719
 1721SOL    HW1 1631   2.743   2.984   1.729
 1721SOL    HW2 1632   2.865   2.898   1.663
 1723SOL     OW 1633   2.272   2.675   1.251
 1723SOL    HW1 1634   2.358   2.687   1.301
 1723SOL    HW2 1635   2.230   2.588   1.278
 1724SOL     OW 1636   3.136   2.248   1.262
 1724SOL    HW1 1637   3.157   2.322   1.326
 1724SOL    HW2 1638   3.047   2.265   1.219
 1725SOL     OW 1639   1.926   3.426   1.331
 1725SOL    HW1 1640   1.880   3.508   1.297
 1725SOL    HW2 1641   2.024   3.445   1.340
 1727SOL     OW 1642   2.428   2.399   0.865
 1727SOL    HW1 1643   2.440   2.465   0.791
 1727SOL    HW2 1644   2.474   2.433   0.948
 1731SOL     OW 1645   2.216   3.372   1.329
 1731SOL    HW1 1646   2.195   3.328   1.242
 1731SOL    HW2 1647   2.313   3.398   1.332
 1732SOL     OW 1648   2.264   2.613   1.598
 1732SOL    HW1 1649   2.332   2.668   1.551
 1732SOL    HW2 1650   2.304   2.525   1.625
 1733SOL     OW 1651   3.449   2.641   1.670
 1733SOL    HW1 1652   3.357   2.679   1.665
 1733SOL    HW2 1653   3.509   2.688   1.605
 1734SOL     OW 1654   2.875   1.967   1.770
 1734SOL    HW1 1655   2.881   2.052   1.718
 1734SOL    HW2 1656   2.907   1.891   1.713
 1735SOL     OW 1657   2.366   1.912   1.740
 1735SOL    HW1 1658   2.324   1.855   1.670
 1735SOL    HW2 1659   2.300   1.981   1.772
 1736SOL     OW 1660   2.435   2.732   1.029
 1736SOL    HW1 1661   2.479   2.821   1.020
 1736SOL    HW2 1662   2.372   2.732   1.106
 1737SOL     OW 1663   3.222   2.724   1.045
 1737SOL    HW1 1664   3.147   2.724   0.979
 1737SOL    HW2 1665   3.259   2.632   1.054
 1739SOL     OW 1666   2.169   2.075   1.231
 1739SOL    HW1 1667   2.146   2.112   1.321
 1739SOL    HW2 1668   2.139   1.980   1.225
 1740SOL     OW 1669   1.899   3.172   1.282
 1740SOL    HW1 1670   1.952   3.123   1.350
 1740SOL    HW2 1671   1.921   3.270   1.287
 1741SOL     OW 1672   2.594   2.496   1.064
 1741SOL    HW1 1673   2.653   2.470   0.988
 1741SOL    HW2 1674   2.566   2.592   1.053
 1742SOL     OW 1675   3.590   2.797   1.854
 1742SOL    HW1 1676   3.544   2.790   1.765
 1742SOL    HW2 1677   3.528   2.841   1.920
 1743SOL     OW 1678   2.169   1.925   0.618
 1743SOL    HW1 1679   2.158   2.019   0.651
 1743SOL    HW2 1680   2.164   1.862   0.695
 1745SOL     OW 1681   2.885   2.628   0.966
 1745SOL    HW1 1682   2.900   2.649   1.062
 1745SOL    HW2 1683   2.855   2.533   0.957
 1746SOL     OW 1684   2.842   3.435   1.700
 1746SOL    HW1 1685   2.822   3.479   1.612
 1746SOL    HW2 1686   2.881   3.344   1.684
 1748SOL     OW 1687   2.212   2.760   1.804
 1748SOL    HW1 1688   2.288   2.804   1.852
 1748SOL    HW2 1689   2.247   2.713   1.722
 1752SOL     OW 1690   2.181   2.672   0.949
 1752SOL    HW1 1691   2.274   2.708   0.954
 1752SOL    HW2 1692   2.175   2.587   1.001
 1753SOL     OW 1693   2.201   2.371   1.006
 1753SOL    HW1 1694   2.149   2.288   0.989
 1753SOL    HW2 1695   2.278   2.376   0.942
 1754SOL     OW 1696   3.000   2.242   1.678
 1754SOL    HW1 1697   2.955   2.305   1.742
 1754SOL    HW2 1698   3.093   2.273   1.661
 1755SOL     OW 1699   3.022   2.069   1.477
 1755SOL    HW1 1700   3.022   2.133   1.554
 1755SOL    HW2 1701   3.050   2.117   1.394
 1758SOL     OW 1702   2.366   3.430   0.910
 1758SOL    HW1 1703   2.432   3.504   0.919
 1758SOL    HW2 1704   2.410   3.351   0.868
 1759SOL     OW 1705   2.864   2.658   1.238
 1759SOL    HW1 1706   2.905   2.626   1.324
 1759SOL    HW2 1707   2.768   2.631   1.235
 1760SOL     OW 1708   1.902   2.406   1.114
 1760SOL    HW1 1709   1.987   2.373   1.073
 1760SOL    HW2 1710   1.915   2.421   1.212
 1761SOL     OW 1711   2.051   2.382   1.722
 1761SOL    HW1 1712   2.110   2.342   1.652
 1761SOL    HW2 1713   1.993   2.453   1.681
 1762SOL     OW 1714   3.231   2.812   1.660
 1762SOL    HW1 1715   3.270   2.901   1.680
 1762SOL    HW2 1716   3.241   2.792   1.563
 1764SOL     OW 1717   3.519   2.466   1.206
 1764SOL    HW1 1718   3.481   2.397   1.268
 1764SOL    HW2 1719   3.601   2.430   1.162
 1765SOL     OW 1720   2.114   3.426   1.744
 1765SOL    HW1 1721   2.084   3.483   1.820
 1765SOL    HW2 1722   2.107   3.329   1.770
 1766SOL     OW 1723   2.533   2.326   1.269
 1766SOL    HW1 1724   2.499   2.237   1.239
 1766SOL    HW2 1725   2.559   2.380   1.189
 1767SOL     OW 1726   2.792   3.540   1.465
 1767SOL    HW1 1727   2.768   3.522   1.370
 1767SOL    HW2 1728   2.822   3.634   1.475
 1769SOL     OW 1729   2.021   2.999   1.466
 1769SOL    HW1 1730   2.043   2.938   1.542
 1769SOL    HW2 1731   2.031   2.950   1.380
 1770SOL     OW 1732   3.209   2.921   1.234
 1770SOL    HW1 1733   3.233   2.858   1.160
 1770SOL    HW2 1734   3.119   2.961   1.216
 1774SOL     OW 1735   1.945   3.120   1.022
 1774SOL    HW1 1736   1.940   3.119   1.122
 1774SOL    HW2 1737   1.862   3.079   0.984
 1775SOL     OW 1738   2.550   3.524   1.716
 1775SOL    HW1 1739   2.494   3.605   1.725
 1775SOL    HW2 1740   2.602   3.528   1.630
 1779SOL     OW 1741   1.992   3.656   1.851
 1779SOL    HW1 1742   1.951   3.582   1.904
 1779SOL    HW2 1743   2.056   3.707   1.909
 1781SOL     OW 1744   2.692   3.135   1.422
 1781SOL    HW1 1745   2.687   3.168   1.517
 1781SOL    HW2 1746   2.606   3.154   1.376
 1785SOL     OW 1747   2.125   2.188   0.720
 1785SOL    HW1 1748   2.046   2.239   0.686
 1785SOL    HW2 1749   2.116   2.173   0.818
 1787SOL     OW 1750   2.684   2.864   1.372
 1787SOL    HW1 1751   2.724   2.863   1.280
 1787SOL    HW2 1752   2.694   2.956   1.412
 1790SOL     OW 1753   2.234   3.150   1.490
 1790SOL    HW1 1754   2.221   3.243   1.456
 1790SOL    HW2 1755   2.150   3.098   1.477
 1793SOL     OW 1756   2.876   2.098   0.971
 1793SOL    HW1 1757   2.868   2.062   0.878
 1793SOL    HW2 1758   2.874   2.022   1.036
 1795SOL     OW 1759   3.571   2.247   1.381
 1795SOL    HW1 1760   3.644   2.316   1.385
 1795SOL    HW2 1761   3.599   2.172   1.322
 1797SOL     OW 1762   1.967   2.875   1.726
 1797SOL    HW1 1763   1.890   2.842   1.780
 1797SOL    HW2 1764   2.052   2.845   1.768
 1798SOL     OW 1765   2.534   2.065   1.489
 1798SOL    HW1 1766   2.624   2.049   1.449
 1798SOL    HW2 1767   2.542   2.070   1.588
 1800SOL     OW 1768   3.302   2.718   1.398
 1800SOL    HW1 1769   3.245   2.770   1.335
 1800SOL    HW2 1770   3.398   2.730   1.374
 1803SOL     OW 1771   2.475   2.704   1.431
 1803SOL    HW1 1772   2.531   2.785   1.414
 1803SOL    HW2 1773   2.534   2.624   1.434
 1805SOL     OW 1774   2.578   2.427   1.708
 1805SOL    HW1 1775   2.597   2.492   1.782
 1805SOL    HW2 1776   2.638   2.347   1.717
 1806SOL     OW 1777   3.312   3.082   1.633
 1806SOL    HW1 1778   3.303   3.072   1.732
 1806SOL    HW2 1779   3.408   3.075   1.607
 1807SOL     OW 1780   2.252   3.603   1.560
 1807SOL    HW1 1781   2.161   3.644   1.558
 1807SOL    HW2 1782   2.245   3.509   1.592
 1808SOL     OW 1783   3.536   2.745   1.254
 1808SOL    HW1 1784   3.509   2.656   1.217
 1808SOL    HW2 1785   3.537   2.813   1.181
 1810SOL     OW 1786   2.456   2.607   0.652
 1810SOL    HW1 1787   2.506   2.692   0.633
 1810SOL    HW2 1788   2.368   2.609   0.604
 1811SOL     OW 1789   3.639   2.204   1.642
 1811SOL    HW1 1790   3.622   2.235   1.548
 1811SOL    HW2 1791   3.555   2.167   1.680
 1812SOL     OW 1792   3.592   2.796   1.517
 1812SOL    HW1 1793   3.630   2.887   1.532
 1812SOL    HW2 1794   3.584   2.779   1.418
 1815SOL     OW 1795   2.721   2.818   0.861
 1815SOL    HW1 1796   2.775   2.749   0.909
 1815SOL    HW2 1797   2.689   2.887   0.927
 1818SOL     OW 1798   2.083   3.176   1.844
 1818SOL    HW1 1799   2.018   3.103   1.823
 1818SOL    HW2 1800   2.087   3.190   1.942
 1819SOL     OW 1801   1.941   3.102   0.653
 1819SOL    HW1 1802   1.940   3.055   0.741
 1819SOL    HW2 1803   2.023   3.074   0.602
 1820SOL     OW 1804   2.534   3.253   1.624
 1820SOL    HW1 1805   2.456   3.203   1.662
 1820SOL    HW2 1806   2.531   3.348   1.655
 1821SOL     OW 1807   3.686   2.054   1.227
 1821SOL    HW1 1808   3.682   1.964   1.271
 1821SOL    HW2 1809   3.689   2.043   1.128
 1822SOL     OW 1810   2.290   2.286   0.520
 1822SOL    HW1 1811   2.320   2.214   0.458
 1822SOL    HW2 1812   2.251   2.246   0.603
 1824SOL     OW 1813   2.179   2.409   1.280
 1824SOL    HW1 1814   2.217   2.350   1.352
 1824SOL    HW2 1815   2.219   2.383   1.192
 1826SOL     OW 1816   3.286   2.076   1.112
 1826SOL    HW1 1817   3.338   2.011   1.167
 1826SOL    HW2 1818   3.237   2.139   1.173
 1827SOL     OW 1819   2.863   1.896   1.154
 1827SOL    HW1 1820   2.800   1.824   1.123
 1827SOL    HW2 1821   2.956   1.860   1.154
 1829SOL     OW 1822   2.480   3.429   1.284
 1829SOL    HW1 1823   2.475   3.511   1.341
 1829SOL    HW2 1824   2.569   3.426   1.239
 1831SOL     OW 1825   3.162   2.315   0.691
 1831SOL    HW1 1826   3.103   2.395   0.695
 1831SOL    HW2 1827   3.177   2.280   0.784
 1835SOL     OW 1828   2.092   2.490   1.975
 1835SOL    HW1 1829   1.999   2.488   2.012
 1835SOL    HW2 1830   2.093   2.451   1.883
 1836SOL     OW 1831   2.087   2.137   2.858
 1836SOL    HW1 1832   2.122   2.120   2.950
 1836SOL    HW2 1833   1.999   2.092   2.846
 1837SOL     OW 1834   1.881   2.230   2.509
 1837SOL    HW1 1835   1.799   2.273   2.548
 1837SOL    HW2 1836   1.853   2.157   2.446
 1838SOL     OW 1837   2.431   3.137   3.027
 1838SOL    HW1 1838   2.338   3.130   2.990
 1838SOL    HW2 1839   2.442   3.226   3.071
 1839SOL     OW 1840   3.417   3.373   2.565
 1839SOL    HW1 1841   3.360   3.357   2.646
 1839SOL    HW2 1842   3.358   3.383   2.485
 1840SOL     OW 1843   2.997   2.565   2.579
 1840SOL    HW1 1844   3.054   2.643   2.554
 1840SOL    HW2 1845   2.937   2.591   2.655
 1841SOL     OW 1846   3.617   2.469   2.093
 1841SOL    HW1 1847   3.605   2.456   1.994
 1841SOL    HW2 1848   3.587   2.388   2.142
 1842SOL     OW 1849   2.630   3.006   2.885
 1842SOL    HW1 1850   2.552   3.023   2.945
 1842SOL    HW2 1851   2.664   3.093   2.849
 1843SOL     OW 1852   2.712   2.660   3.685
 1843SOL    HW1 1853   2.708   2.736   3.750
 1843SOL    HW2 1854   2.734   2.696   3.594
 1844SOL     OW 1855   2.547   2.874   2.527
 1844SOL    HW1 1856   2.616   2.858   2.597
 1844SOL    HW2 1857   2.474   2.931   2.565
 1845SOL     OW 1858   2.548   3.023   3.665
 1845SOL    HW1 1859   2.608   3.102   3.679
 1845SOL    HW2 1860   2.462   3.054   3.624
 1846SOL     OW 1861   2.197   3.297   2.923
 1846SOL    HW1 1862   2.119   3.266   2.870
 1846SOL    HW2 1863   2.255   3.355   2.866
 1848SOL     OW 1864   2.300   2.254   3.361
 1848SOL    HW1 1865   2.382   2.198   3.370
 1848SOL    HW2 1866   2.219   2.196   3.365
 1849SOL     OW 1867   3.465   2.309   2.599
 1849SOL    HW1 1868   3.391   2.355   2.549
 1849SOL    HW2 1869   3.516   2.377   2.652
 1850SOL     OW 1870   2.093   3.575   2.345
 1850SOL    HW1 1871   2.127   3.652   2.399
 1850SOL    HW2 1872   2.137   3.575   2.255
 1852SOL     OW 1873   2.092   3.296   2.400
 1852SOL    HW1 1874   2.066   3.392   2.400
 1852SOL    HW2 1875   2.021   3.242   2.445
 1853SOL     OW 1876   2.102   2.953   2.748
 1853SOL    HW1 1877   2.116   2.869   2.800
 1853SOL    HW2 1878   2.047   3.017   2.803
 1855SOL     OW 1879   2.468   2.826   1.985
 1855SOL    HW1 1880   2.475   2.910   1.931
 1855SOL    HW2 1881   2.514   2.839   2.073
 1856SOL     OW 1882   3.456   1.976   3.342
 1856SOL    HW1 1883   3.438   2.043   3.270
 1856SOL    HW2 1884   3.453   2.022   3.431
 1857SOL     OW 1885   1.984   2.505   2.425
 1857SOL    HW1 1886   1.939   2.417   2.442
 1857SOL    HW2 1887   1.983   2.559   2.509
 1859SOL     OW 1888   1.889   3.458   1.979
 1859SOL    HW1 1889   1.870   3.362   2.000
 1859SOL    HW2 1890   1.856   3.516   2.054
 1860SOL     OW 1891   3.551   2.784   2.474
 1860SOL    HW1 1892   3.646   2.755   2.482
 1860SOL    HW2 1893   3.543   2.849   2.399
 1861SOL     OW 1894   3.503   2.970   2.294
 1861SOL    HW1 1895   3.589   2.972   2.242
 1861SOL    HW2 1896   3.517   3.017   2.382
 1862SOL     OW 1897   1.975   2.599   3.459
 1862SOL    HW1 1898   2.063   2.586   3.504
 1862SOL    HW2 1899   1.962   2.696   3.437
 1863SOL     OW 1900   2.475   3.227   2.588
 1863SOL    HW1 1901   2.426   3.140   2.597
 1863SOL    HW2 1902   2.452   3.270   2.501
 1864SOL     OW 1903   3.155   3.090   3.285
 1864SOL    HW1 1904   3.192   3.017   3.227
 1864SOL    HW2 1905   3.207   3.095   3.370
 1865SOL     OW 1906   2.671   1.866   2.364
 1865SOL    HW1 1907   2.711   1.957   2.355
 1865SOL    HW2 1908   2.571   1.874   2.370
 1866SOL     OW 1909   2.059   2.838   3.126
 1866SOL    HW1 1910   2.148   2.793   3.112
 1866SOL    HW2 1911   1.986   2.773   3.107
 1867SOL     OW 1912   3.387   2.861   2.052
 1867SOL    HW1 1913   3.324   2.785   2.065
 1867SOL    HW2 1914   3.435   2.879   2.138
 1869SOL     OW 1915   2.179   2.113   3.663
 1869SOL    HW1 1916   2.250   2.184   3.669
 1869SOL    HW2 1917   2.091   2.152   3.691
 1870SOL     OW 1918   3.328   3.279   2.815
 1870SOL    HW1 1919   3.269   3.285   2.895
 1870SOL    HW2 1920   3.313   3.191   2.769
 1872SOL     OW 1921   2.460   2.591   2.132
 1872SOL    HW1 1922   2.484   2.660   2.064
 1872SOL    HW2 1923   2.382   2.624   2.186
 1873SOL     OW 1924   3.143   2.207   2.806
 1873SOL    HW1 1925   3.057   2.157   2.793
 1873SOL    HW2 1926   3.205   2.153   2.862
 1875SOL     OW 1927   2.669   2.467   3.327
 1875SOL    HW1 1928   2.622   2.464   3.416
 1875SOL    HW2 1929   2.618   2.412   3.261
 1876SOL     OW 1930   3.256   2.331   3.536
 1876SOL    HW1 1931   3.236   2.374   3.624
 1876SOL    HW2 1932   3.334   2.269   3.545
 1877SOL     OW 1933   2.835   2.752   3.434
 1877SOL    HW1 1934   2.881   2.668   3.405
 1877SOL    HW2 1935   2.779   2.786   3.359
 1878SOL     OW 1936   2.853   2.272   3.104
 1878SOL    HW1 1937   2.776   2.306   3.158
 1878SOL    HW2 1938   2.819   2.221   3.025
 1879SOL     OW 1939   2.903   2.563   2.291
 1879SOL    HW1 1940   2.929   2.559   2.387
 1879SOL    HW2 1941   2.818   2.512   2.277
 1880SOL     OW 1942   1.938   2.673   2.651
 1880SOL    HW1 1943   2.037   2.661   2.660
 1880SOL    HW2 1944   1.914   2.768   2.672
 1882SOL     OW 1945   2.727   2.210   2.057
 1882SOL    HW1 1946   2.786   2.273   2.008
 1882SOL    HW2 1947   2.746   2.116   2.028
 1884SOL     OW 1948   3.224   3.006   2.407
 1884SOL    HW1 1949   3.307   2.977   2.359
 1884SOL    HW2 1950   3.175   3.073   2.351
 1885SOL     OW 1951   2.412   2.058   2.747
 1885SOL    HW1 1952   2.407   2.053   2.847
 1885SOL    HW2 1953   2.414   2.154   2.718
 1886SOL     OW 1954   2.870   3.318   2.339
 1886SOL    HW1 1955   2.824   3.390   2.287
 1886SOL    HW2 1956   2.866   3.338   2.437
 1887SOL     OW 1957   2.213   3.663   2.715
 1887SOL    HW1 1958   2.263   3.577   2.721
 1887SOL    HW2 1959   2.278   3.740   2.712
 1888SOL     OW 1960   3.657   2.928   2.735
 1888SOL    HW1 1961   3.595   2.913   2.659
 1888SOL    HW2 1962   3.605   2.939   2.820
 1890SOL     OW 1963   2.183   2.805   2.104
 1890SOL    HW1 1964   2.265   2.844   2.062
 1890SOL    HW2 1965   2.156   2.723   2.055
 1891SOL     OW 1966   3.320   2.597   2.590
 1891SOL    HW1 1967   3.315   2.532   2.665
 1891SOL    HW2 1968   3.400   2.656   2.603
 1892SOL     OW 1969   2.323   3.128   3.589
 1892SOL    HW1 1970   2.273   3.129   3.503
 1892SOL    HW2 1971   2.260   3.110   3.665
 1893SOL     OW 1972   2.973   3.638   2.099
 1893SOL    HW1 1973   2.913   3.576   2.149
 1893SOL    HW2 1974   3.004   3.594   2.014
 1894SOL     OW 1975   2.064   2.147   3.360
 1894SOL    HW1 1976   1.984   2.207   3.347
 1894SOL    HW2 1977   2.054   2.098   3.446
 1895SOL     OW 1978   3.494   3.239   1.943
 1895SOL    HW1 1979   3.462   3.333   1.933
 1895SOL    HW2 1980   3.418   3.176   1.931
 1896SOL     OW 1981   2.326   3.605   2.185
 1896SOL    HW1 1982   2.359   3.644   2.271
 1896SOL    HW2 1983   2.402   3.598   2.120
 1897SOL     OW 1984   3.262   1.969   2.288
 1897SOL    HW1 1985   3.238   1.932   2.198
 1897SOL    HW2 1986   3.361   1.985   2.292
 1898SOL     OW 1987   2.111   3.647   3.103
 1898SOL    HW1 1988   2.168   3.582   3.153
 1898SOL    HW2 1989   2.095   3.614   3.010
 1899SOL     OW 1990   2.802   3.560   2.766
 1899SOL    HW1 1991   2.882   3.503   2.787
 1899SOL    HW2 1992   2.753   3.520   2.689
 1900SOL     OW 1993   2.244   2.562   2.342
 1900SOL    HW1 1994   2.289   2.472   2.339
 1900SOL    HW2 1995   2.150   2.551   2.375
 1902SOL     OW 1996   2.476   1.984   1.979
 1902SOL    HW1 1997   2.574   1.962   1.986
 1902SOL    HW2 1998   2.445   1.967   1.886
 1903SOL     OW 1999   2.643   2.126   3.611
 1903SOL    HW1 2000   2.710   2.065   3.654
 1903SOL    HW2 2001   2.570   2.145   3.676
 1904SOL     OW 2002   2.750   3.376   3.057
 1904SOL    HW1 2003   2.727   3.351   2.963
 1904SOL    HW2 2004   2.811   3.307   3.096
 1905SOL     OW 2005   3.213   2.452   3.295
 1905SOL    HW1 2006   3.241   2.409   3.380
 1905SOL    HW2 2007   3.238   2.548   3.296
 1906SOL     OW 2008   2.665   3.264   2.786
 1906SOL    HW1 2009   2.755   3.278   2.744
 1906SOL    HW2 2010   2.594   3.266   2.715
 1907SOL     OW 2011   2.784   2.365   2.761
 1907SOL    HW1 2012   2.759   2.356   2.665
 1907SOL    HW2 2013   2.832   2.283   2.792
 1908SOL     OW 2014   2.401   1.926   2.374
 1908SOL    HW1 2015   2.320   1.927   2.432
 1908SOL    HW2 2016   2.404   2.009   2.319
 1909SOL     OW 2017   3.296   3.050   1.903
 1909SOL    HW1 2018   3.328   2.974   1.960
 1909SOL    HW2 2019   3.204   3.077   1.933
 1910SOL     OW 2020   2.159   1.897   2.033
 1910SOL    HW1 2021   2.208   1.981   2.012
 1910SOL    HW2 2022   2.221   1.832   2.078
 1911SOL     OW 2023   2.797   2.098   2.342
 1911SOL    HW1 2024   2.749   2.139   2.264
 1911SOL    HW2 2025   2.896   2.096   2.323
 1912SOL     OW 2026   2.938   2.545   3.326
 1912SOL    HW1 2027   2.858   2.484   3.329
 1912SOL    HW2 2028   3.019   2.492   3.302
 1913SOL     OW 2029   3.089   3.432   2.655
 1913SOL    HW1 2030   3.110   3.506   2.590
 1913SOL    HW2 2031   3.157   3.432   2.728
 1914SOL     OW 2032   2.321   3.014   2.603
 1914SOL    HW1 2033   2.250   2.987   2.668
 1914SOL    HW2 2034   2.295   2.986   2.510
 1916SOL     OW 2035   2.894   2.411   1.878
 1916SOL    HW1 2036   2.853   2.493   1.839
 1916SOL    HW2 2037   2.958   2.437   1.951
 1917SOL     OW 2038   1.940   2.418   3.248
 1917SOL    HW1 2039   2.032   2.417   3.207
 1917SOL    HW2 2040   1.934   2.492   3.315
 1918SOL     OW 2041   2.423   2.084   3.009
 1918SOL    HW1 2042   2.461   2.000   3.046
 1918SOL    HW2 2043   2.335   2.103   3.053
 1919SOL     OW 2044   2.728   2.316   2.504
 1919SOL    HW1 2045   2.696   2.388   2.442
 1919SOL    HW2 2046   2.752   2.235   2.451
 1920SOL     OW 2047   2.879   1.901   2.615
 1920SOL    HW1 2048   2.807   1.906   2.546
 1920SOL    HW2 2049   2.855   1.832   2.684
 1921SOL     OW 2050   3.291   3.035   2.729
 1921SOL    HW1 2051   3.236   2.951   2.722
 1921SOL    HW2 2052   3.317   3.064   2.637
 1922SOL     OW 2053   3.328   2.452   2.854
 1922SOL    HW1 2054   3.298   2.357   2.861
 1922SOL    HW2 2055   3.401   2.468   2.920
 1923SOL     OW 2056   3.719   2.695   2.239
 1923SOL    HW1 2057   3.761   2.631   2.303
 1923SOL    HW2 2058   3.681   2.644   2.161
 1924SOL     OW 2059   2.350   3.247   2.036
 1924SOL    HW1 2060   2.263   3.232   2.083
 1924SOL    HW2 2061   2.333   3.273   1.941
 1925SOL     OW 2062   3.526   3.142   2.519
 1925SOL    HW1 2063   3.625   3.150   2.533
 1925SOL    HW2 2064   3.481   3.226   2.550
 1926SOL     OW 2065   3.252   2.437   1.940
 1926SOL    HW1 2066   3.198   2.416   2.021
 1926SOL    HW2 2067   3.343   2.396   1.949
 1928SOL     OW 2068   2.926   3.209   3.202
 1928SOL    HW1 2069   2.846   3.186   3.257
 1928SOL    HW2 2070   3.009   3.183   3.251
 1930SOL     OW 2071   2.973   3.057   2.962
 1930SOL    HW1 2072   2.933   3.101   3.043
 1930SOL    HW2 2073   2.932   3.094   2.879
 1931SOL     OW 2074   3.500   2.961   2.941
 1931SOL    HW1 2075   3.505   3.042   3.000
 1931SOL    HW2 2076   3.414   2.963   2.890
 1932SOL     OW 2077   2.777   1.951   3.264
 1932SOL    HW1 2078   2.802   1.931   3.169
 1932SOL    HW2 2079   2.849   2.007   3.306
 1933SOL     OW 2080   2.842   2.978   3.581
 1933SOL    HW1 2081   2.743   2.984   3.591
 1933SOL    HW2 2082   2.865   2.898   3.525
 1934SOL     OW 2083   2.567   2.912   2.230
 1934SOL    HW1 2084   2.553   2.919   2.329
 1934SOL    HW2 2085   2.651   2.861   2.212
 1935SOL     OW 2086   2.272   2.675   3.113
 1935SOL    HW1 2087   2.358   2.687   3.163
 1935SOL    HW2 2088   2.230   2.588   3.140
 1936SOL     OW 2089   3.136   2.248   3.124
 1936SOL    HW1 2090   3.157   2.322   3.188
 1936SOL    HW2 2091   3.047   2.265   3.081
 1937SOL     OW 2092   1.926   3.426   3.193
 1937SOL    HW1 2093   1.880   3.508   3.159
 1937SOL    HW2 2094   2.024   3.445   3.202
 1938SOL     OW 2095   2.229   2.962   2.363
 1938SOL    HW1 2096   2.222   3.045   2.307
 1938SOL    HW2 2097   2.233   2.882   2.303
 1939SOL     OW 2098   2.428   2.399   2.727
 1939SOL    HW1 2099   2.440   2.465   2.653
 1939SOL    HW2 2100   2.474   2.433   2.810
 1940SOL     OW 2101   3.114   3.210   2.250
 1940SOL    HW1 2102   3.164   3.287   2.290
 1940SOL    HW2 2103   3.019   3.212   2.282
 1941SOL     OW 2104   3.134   3.307   3.004
 1941SOL    HW1 2105   3.181   3.320   3.091
 1941SOL    HW2 2106   3.068   3.233   3.013
 1942SOL     OW 2107   3.444   2.501   2.334
 1942SOL    HW1 2108   3.413   2.562   2.407
 1942SOL    HW2 2109   3.494   2.553   2.265
 1943SOL     OW 2110   2.216   3.372   3.191
 1943SOL    HW1 2111   2.195   3.328   3.104
 1943SOL    HW2 2112   2.313   3.398   3.194
 1944SOL     OW 2113   2.264   2.613   3.460
 1944SOL    HW1 2114   2.332   2.668   3.413
 1944SOL    HW2 2115   2.304   2.525   3.487
 1946SOL     OW 2116   2.875   1.967   3.632
 1946SOL    HW1 2117   2.881   2.052   3.580
 1946SOL    HW2 2118   2.907   1.891   3.575
 1947SOL     OW 2119   2.366   1.912   3.602
 1947SOL    HW1 2120   2.324   1.855   3.532
 1947SOL    HW2 2121   2.300   1.981   3.634
 1948SOL     OW 2122   2.435   2.732   2.891
 1948SOL    HW1 2123   2.479   2.821   2.882
 1948SOL    HW2 2124   2.372   2.732   2.968
 1949SOL     OW 2125   3.222   2.724   2.907
 1949SOL    HW1 2126   3.147   2.724   2.841
 1949SOL    HW2 2127   3.259   2.632   2.916
 1950SOL     OW 2128   3.071   2.387   2.137
 1950SOL    HW1 2129   3.084   2.303   2.191
 1950SOL    HW2 2130   3.042   2.461   2.197
 1951SOL     OW 2131   2.169   2.075   3.093
 1951SOL    HW1 2132   2.146   2.112   3.183
 1951SOL    HW2 2133   2.139   1.980   3.087
 1952SOL     OW 2134   1.899   3.172   3.144
 1952SOL    HW1 2135   1.952   3.123   3.212
 1952SOL    HW2 2136   1.921   3.270   3.149
 1953SOL     OW 2137   2.594   2.496   2.926
 1953SOL    HW1 2138   2.653   2.470   2.850
 1953SOL    HW2 2139   2.566   2.592   2.915
 1955SOL     OW 2140   2.169   1.925   2.480
 1955SOL    HW1 2141   2.158   2.019   2.513
 1955SOL    HW2 2142   2.164   1.862   2.557
 1956SOL     OW 2143   3.484   2.229   2.236
 1956SOL    HW1 2144   3.486   2.153   2.300
 1956SOL    HW2 2145   3.436   2.306   2.276
 1957SOL     OW 2146   2.885   2.628   2.828
 1957SOL    HW1 2147   2.900   2.649   2.924
 1957SOL    HW2 2148   2.855   2.533   2.819
 1960SOL     OW 2149   2.212   2.760   3.666
 1960SOL    HW1 2150   2.288   2.804   3.714
 1960SOL    HW2 2151   2.247   2.713   3.584
 1961SOL     OW 2152   3.402   2.136   1.987
 1961SOL    HW1 2153   3.341   2.061   2.010
 1961SOL    HW2 2154   3.424   2.188   2.070
 1962SOL     OW 2155   3.165   2.700   1.904
 1962SOL    HW1 2156   3.199   2.607   1.919
 1962SOL    HW2 2157   3.183   2.727   1.809
 1963SOL     OW 2158   2.930   3.195   2.711
 1963SOL    HW1 2159   2.937   3.111   2.656
 1963SOL    HW2 2160   2.992   3.264   2.675
 1964SOL     OW 2161   2.181   2.672   2.811
 1964SOL    HW1 2162   2.274   2.708   2.816
 1964SOL    HW2 2163   2.175   2.587   2.863
 1965SOL     OW 2164   2.201   2.371   2.868
 1965SOL    HW1 2165   2.149   2.288   2.851
 1965SOL    HW2 2166   2.278   2.376   2.804
 1966SOL     OW 2167   3.000   2.242   3.540
 1966SOL    HW1 2168   2.955   2.305   3.604
 1966SOL    HW2 2169   3.093   2.273   3.523
 1967SOL     OW 2170   3.022   2.069   3.339
 1967SOL    HW1 2171   3.022   2.133   3.416
 1967SOL    HW2 2172   3.050   2.117   3.256
 1968SOL     OW 2173   1.870   3.188   2.062
 1968SOL    HW1 2174   1.777   3.209   2.031
 1968SOL    HW2 2175   1.880   3.089   2.075
 1969SOL     OW 2176   1.950   3.663   2.789
 1969SOL    HW1 2177   1.908   3.577   2.762
 1969SOL    HW2 2178   2.044   3.666   2.755
 1970SOL     OW 2179   2.366   3.430   2.772
 1970SOL    HW1 2180   2.432   3.504   2.781
 1970SOL    HW2 2181   2.410   3.351   2.730
 1971SOL     OW 2182   2.864   2.658   3.100
 1971SOL    HW1 2183   2.905   2.626   3.186
 1971SOL    HW2 2184   2.768   2.631   3.097
 1972SOL     OW 2185   1.902   2.406   2.976
 1972SOL    HW1 2186   1.987   2.373   2.935
 1972SOL    HW2 2187   1.915   2.421   3.074
 1973SOL     OW 2188   2.051   2.382   3.584
 1973SOL    HW1 2189   2.110   2.342   3.514
 1973SOL    HW2 2190   1.993   2.453   3.543
 1975SOL     OW 2191   2.677   2.434   2.187
 1975SOL    HW1 2192   2.684   2.345   2.141
 1975SOL    HW2 2193   2.583   2.468   2.179
 1976SOL     OW 2194   3.519   2.466   3.068
 1976SOL    HW1 2195   3.481   2.397   3.130
 1976SOL    HW2 2196   3.601   2.430   3.024
 1978SOL     OW 2197   2.533   2.326   3.131
 1978SOL    HW1 2198   2.499   2.237   3.101
 1978SOL    HW2 2199   2.559   2.380   3.051
 1980SOL     OW 2200   2.335   2.362   2.053
 1980SOL    HW1 2201   2.396   2.442   2.057
 1980SOL    HW2 2202   2.240   2.393   2.060
 1981SOL     OW 2203   2.021   2.999   3.328
 1981SOL    HW1 2204   2.043   2.938   3.404
 1981SOL    HW2 2205   2.031   2.950   3.242
 1982SOL     OW 2206   3.209   2.921   3.096
 1982SOL    HW1 2207   3.233   2.858   3.022
 1982SOL    HW2 2208   3.119   2.961   3.078
 1983SOL     OW 2209   3.164   2.717   2.171
 1983SOL    HW1 2210   3.078   2.686   2.213
 1983SOL    HW2 2211   3.160   2.703   2.072
 1986SOL     OW 2212   1.945   3.120   2.884
 1986SOL    HW1 2213   1.940   3.119   2.984
 1986SOL    HW2 2214   1.862   3.079   2.846
 1988SOL     OW 2215   3.588   1.997   2.385
 1988SOL    HW1 2216   3.661   1.980   2.318
 1988SOL    HW2 2217   3.557   1.910   2.423
 1989SOL     OW 2218   3.250   3.435   2.339
 1989SOL    HW1 2219   3.317   3.447   2.265
 1989SOL    HW2 2220   3.210   3.524   2.362
 1991SOL     OW 2221   3.142   2.789   2.534
 1991SOL    HW1 2222   3.202   2.708   2.536
 1991SOL    HW2 2223   3.182   2.858   2.474
 1992SOL     OW 2224   2.692   3.135   3.284
 1992SOL    HW1 2225   2.687   3.168   3.379
 1992SOL    HW2 2226   2.606   3.154   3.238
 1993SOL     OW 2227   2.534   3.478   2.016
 1993SOL    HW1 2228   2.543   3.488   1.917
 1993SOL    HW2 2229   2.494   3.389   2.037
 1995SOL     OW 2230   3.703   2.037   2.825
 1995SOL    HW1 2231   3.742   1.952   2.789
 1995SOL    HW2 2232   3.605   2.039   2.806
 1996SOL     OW 2233   2.125   2.188   2.582
 1996SOL    HW1 2234   2.046   2.239   2.548
 1996SOL    HW2 2235   2.116   2.173   2.680
 1997SOL     OW 2236   3.056   3.474   1.893
 1997SOL    HW1 2237   3.062   3.381   1.930
 1997SOL    HW2 2238   2.997   3.474   1.813
 1998SOL     OW 2239   2.684   2.864   3.234
 1998SOL    HW1 2240   2.724   2.863   3.142
 1998SOL    HW2 2241   2.694   2.956   3.274
 1999SOL     OW 2242   2.778   2.772   2.153
 1999SOL    HW1 2243   2.841   2.810   2.085
 1999SOL    HW2 2244   2.818   2.689   2.192
 2000SOL     OW 2245   3.366   3.469   1.906
 2000SOL    HW1 2246   3.274   3.506   1.913
 2000SOL    HW2 2247   3.404   3.489   1.816
 2001SOL     OW 2248   2.234   3.150   3.352
 2001SOL    HW1 2249   2.221   3.243   3.318
 2001SOL    HW2 2250   2.150   3.098   3.339
 2003SOL     OW 2251   2.901   2.960   2.558
 2003SOL    HW1 2252   2.831   2.913   2.612
 2003SOL    HW2 2253   2.960   2.892   2.515
 2004SOL     OW 2254   2.876   2.098   2.833
 2004SOL    HW1 2255   2.868   2.062   2.740
 2004SOL    HW2 2256   2.874   2.022   2.898
 2005SOL     OW 2257   2.452   3.349   2.353
 2005SOL    HW1 2258   2.494   3.291   2.283
 2005SOL    HW2 2259   2.408   3.428   2.309
 2006SOL     OW 2260   3.571   2.247   3.243
 2006SOL    HW1 2261   3.644   2.316   3.247
 2006SOL    HW2 2262   3.599   2.172   3.184
 2007SOL     OW 2263   2.117   3.210   2.152
 2007SOL    HW1 2264   2.021   3.211   2.125
 2007SOL    HW2 2265   2.129   3.263   2.236
 2008SOL     OW 2266   1.967   2.875   3.588
 2008SOL    HW1 2267   1.890   2.842   3.642
 2008SOL    HW2 2268   2.052   2.845   3.630
 2009SOL     OW 2269   2.534   2.065   3.351
 2009SOL    HW1 2270   2.624   2.049   3.311
 2009SOL    HW2 2271   2.542   2.070   3.450
 2010SOL     OW 2272   1.937   2.207   1.895
 2010SOL    HW1 2273   1.845   2.179   1.866
 2010SOL    HW2 2274   1.968   2.284   1.839
 2011SOL     OW 2275   3.302   2.718   3.260
 2011SOL    HW1 2276   3.245   2.770   3.197
 2011SOL    HW2 2277   3.398   2.730   3.236
 2012SOL     OW 2278   3.045   3.197   1.981
 2012SOL    HW1 2279   2.946   3.186   1.983
 2012SOL    HW2 2280   3.079   3.212   2.074
 2013SOL     OW 2281   2.475   2.704   3.293
 2013SOL    HW1 2282   2.531   2.785   3.276
 2013SOL    HW2 2283   2.534   2.624   3.296
 2015SOL     OW 2284   2.578   2.427   3.570
 2015SOL    HW1 2285   2.597   2.492   3.644
 2015SOL    HW2 2286   2.638   2.347   3.579
 2018SOL     OW 2287   3.536   2.745   3.116
 2018SOL    HW1 2288   3.509   2.656   3.079
 2018SOL    HW2 2289   3.537   2.813   3.043
 2019SOL     OW 2290   3.087   2.187   2.311
 2019SOL    HW1 2291   3.152   2.113   2.300
 2019SOL    HW2 2292   3.107   2.237   2.395
 2020SOL     OW 2293   2.456   2.607   2.514
 2020SOL    HW1 2294   2.506   2.692   2.495
 2020SOL    HW2 2295   2.368   2.609   2.466
 2023SOL     OW 2296   2.721   3.236   1.878
 2023SOL    HW1 2297   2.675   3.251   1.966
 2023SOL    HW2 2298   2.765   3.321   1.848
 2024SOL     OW 2299   2.523   3.652   2.815
 2024SOL    HW1 2300   2.477   3.740   2.802
 2024SOL    HW2 2301   2.622   3.664   2.808
 2025SOL     OW 2302   2.721   2.818   2.723
 2025SOL    HW1 2303   2.775   2.749   2.771
 2025SOL    HW2 2304   2.689   2.887   2.789
 2026SOL     OW 2305   2.945   2.846   1.949
 2026SOL    HW1 2306   2.922   2.899   1.867
 2026SOL    HW2 2307   3.026   2.790   1.930
 2029SOL     OW 2308   1.941   3.102   2.515
 2029SOL    HW1 2309   1.940   3.055   2.603
 2029SOL    HW2 2310   2.023   3.074   2.464
 2030SOL     OW 2311   2.534   3.253   3.486
 2030SOL    HW1 2312   2.456   3.203   3.524
 2030SOL    HW2 2313   2.531   3.348   3.517
 2031SOL     OW 2314   3.686   2.054   3.089
 2031SOL    HW1 2315   3.682   1.964   3.133
 2031SOL    HW2 2316   3.689   2.043   2.990
 2033SOL     OW 2317   2.179   2.409   3.142
 2033SOL    HW1 2318   2.217   2.350   3.214
 2033SOL    HW2 2319   2.219   2.383   3.054
 2034SOL     OW 2320   2.674   3.448   2.549
 2034SOL    HW1 2321   2.706   3.458   2.455
 2034SOL    HW2 2322   2.595   3.386   2.551
 2035SOL     OW 2323   3.286   2.076   2.974
 2035SOL    HW1 2324   3.338   2.011   3.029
 2035SOL    HW2 2325   3.237   2.139   3.035
 2036SOL     OW 2326   2.863   1.896   3.016
 2036SOL    HW1 2327   2.800   1.824   2.985
 2036SOL    HW2 2328   2.956   1.860   3.016
 2037SOL     OW 2329   2.632   3.192   2.163
 2037SOL    HW1 2330   2.586   3.105   2.180
 2037SOL    HW2 2331   2.723   3.189   2.204
 2038SOL     OW 2332   2.480   3.429   3.146
 2038SOL    HW1 2333   2.475   3.511   3.203
 2038SOL    HW2 2334   2.569   3.426   3.101
 2039SOL     OW 2335   3.214   1.914   2.030
 2039SOL    HW1 2336   3.249   1.873   1.946
 2039SOL    HW2 2337   3.124   1.876   2.050
 2040SOL     OW 2338   3.162   2.315   2.553
 2040SOL    HW1 2339   3.103   2.395   2.557
 2040SOL    HW2 2340   3.177   2.280   2.646
 2041SOL     OW 2341   3.455   2.083   2.744
 2041SOL    HW1 2342   3.371   2.082   2.798
 2041SOL    HW2 2343   3.457   2.166   2.688
 2042SOL     OW 2344   1.901   2.939   2.162
 2042SOL    HW1 2345   2.000   2.928   2.153
 2042SOL    HW2 2346   1.861   2.853   2.194
 2043SOL     OW 2347   2.737   3.508   2.199
 2043SOL    HW1 2348   2.660   3.473   2.145
 2043SOL    HW2 2349   2.705   3.579   2.261
 2044SOL     OW 2350   2.092   2.490   3.837
 2044SOL    HW1 2351   1.999   2.488   3.874
 2044SOL    HW2 2352   2.093   2.451   3.745
 2064SOL     OW 2353   2.476   1.984   3.841
 2064SOL    HW1 2354   2.574   1.962   3.848
 2064SOL    HW2 2355   2.445   1.967   3.748
 2066SOL     OW 2356   2.159   1.897   3.895
 2066SOL    HW1 2357   2.208   1.981   3.874
 2066SOL    HW2 2358   2.221   1.832   3.940
 2070SOL     OW 2359   2.894   2.411   3.740
 2070SOL    HW1 2360   2.853   2.493   3.701
 2070SOL    HW2 2361   2.958   2.437   3.813
 2085SOL     OW 2362   2.335   2.362   3.915
 2085SOL    HW1 2363   2.396   2.442   3.919
 2085SOL    HW2 2364   2.240   2.393   3.922
 2095SOL     OW 2365   1.937   2.207   3.757
 2095SOL    HW1 2366   1.845   2.179   3.728
 2095SOL    HW2 2367   1.968   2.284   3.701
 2142SOL     OW 2368   2.366   3.774   1.740
 2142SOL    HW1 2369   2.324   3.717   1.670
 2142SOL    HW2 2370   2.300   3.843   1.772
 2183SOL     OW 2371   2.671   3.728   2.364
 2183SOL    HW1 2372   2.711   3.819   2.355
 2183SOL    HW2 2373   2.571   3.736   2.370
 2196SOL     OW 2374   2.476   3.846   1.979
 2196SOL    HW1 2375   2.574   3.824   1.986
 2196SOL    HW2 2376   2.445   3.829   1.886
 2199SOL     OW 2377   2.401   3.788   2.374
 2199SOL    HW1 2378   2.320   3.789   2.432
 2199SOL    HW2 2379   2.404   3.871   2.319
 2200SOL     OW 2380   2.159   3.759   2.033
 2200SOL    HW1 2381   2.208   3.843   2.012
 2200SOL    HW2 2382   2.221   3.694   2.078
 2214SOL     OW 2383   2.169   3.787   2.480
 2214SOL    HW1 2384   2.158   3.881   2.513
 2214SOL    HW2 2385   2.164   3.724   2.557
 2232SOL     OW 2386   1.934   3.890   2.180
 2232SOL    HW1 2387   1.917   3.973   2.126
 2232SOL    HW2 2388   2.024   3.853   2.158
 2316SOL     OW 2389   3.854   1.794   1.851
 2316SOL    HW1 2390   3.813   1.720   1.904
 2316SOL    HW2 2391   3.918   1.845   1.909
 2341SOL     OW 2392   3.751   1.596   1.979
 2341SOL    HW1 2393   3.732   1.500   2.000
 2341SOL    HW2 2394   3.718   1.654   2.054
 2375SOL     OW 2395   3.732   1.326   2.062
 2375SOL    HW1 2396   3.639   1.347   2.031
 2375SOL    HW2 2397   3.742   1.227   2.075
 2376SOL     OW 2398   3.812   1.801   2.789
 2376SOL    HW1 2399   3.770   1.715   2.762
 2376SOL    HW2 2400   3.906   1.804   2.755
 2493SOL     OW 2401   3.743   2.230   2.509
 2493SOL    HW1 2402   3.661   2.273   2.548
 2493SOL    HW2 2403   3.715   2.157   2.446
 2500SOL     OW 2404   3.846   2.505   2.425
 2500SOL    HW1 2405   3.801   2.417   2.442
 2500SOL    HW2 2406   3.845   2.559   2.509
 2506SOL     OW 2407   3.800   2.673   2.651
 2506SOL    HW1 2408   3.899   2.661   2.660
 2506SOL    HW2 2409   3.776   2.768   2.672
 2551SOL     OW 2410   3.799   2.207   1.895
 2551SOL    HW1 2411   3.707   2.179   1.866
 2551SOL    HW2 2412   3.830   2.284   1.839
 2552SOL     OW 2413   3.796   2.028   2.180
 2552SOL    HW1 2414   3.779   2.111   2.126
 2552SOL    HW2 2415   3.886   1.991   2.158
 2559SOL     OW 2416   3.763   2.939   2.162
 2559SOL    HW1 2417   3.862   2.928   2.153
 2559SOL    HW2 2418   3.723   2.853   2.194
   4.33159   4.33159   4.33159
