mobley_7326706_GMX.gro created by acpype (v: 2023.10.27) on Tue May 19 14:02:49 2026
 2384
    1MOL     C1    1   2.256   2.857   2.497
    1MOL     C2    2   2.332   2.756   2.437
    1MOL     C3    3   2.244   2.859   2.635
    1MOL     C4    4   2.392   2.661   2.519
    1MOL     C5    5   2.308   2.760   2.709
    1MOL     C6    6   2.830   2.512   2.777
    1MOL     C7    7   2.682   2.294   2.217
    1MOL     C8    8   2.717   2.427   2.723
    1MOL     C9    9   2.571   2.315   2.318
    1MOL     N1   10   2.382   2.661   2.653
    1MOL     O1   11   2.467   2.562   2.461
    1MOL     O2   12   2.635   2.509   2.642
    1MOL     O3   13   2.627   2.373   2.435
    1MOL     P1   14   2.527   2.438   2.545
    1MOL     S1   15   2.401   2.312   2.624
    1MOL    CL1   16   2.347   2.752   2.266
    1MOL    CL2   17   2.150   2.985   2.707
    1MOL    CL3   18   2.302   2.751   2.880
    1MOL     H1   19   2.208   2.932   2.435
    1MOL     H2   20   2.889   2.555   2.696
    1MOL     H3   21   2.791   2.596   2.836
    1MOL     H4   22   2.897   2.453   2.841
    1MOL     H5   23   2.730   2.389   2.192
    1MOL     H6   24   2.760   2.229   2.258
    1MOL     H7   25   2.643   2.249   2.125
    1MOL     H8   26   2.659   2.387   2.805
    1MOL     H9   27   2.758   2.345   2.663
    1MOL    H10   28   2.525   2.219   2.344
    1MOL    H11   29   2.494   2.381   2.276
   35SOL     OW   30   1.187   1.792   1.616
   35SOL    HW1   31   1.211   1.852   1.540
   35SOL    HW2   32   1.194   1.697   1.586
   95SOL     OW   33   1.754   1.223   1.588
   95SOL    HW1   34   1.845   1.184   1.575
   95SOL    HW2   35   1.762   1.319   1.612
   97SOL     OW   36   1.592   1.629   1.625
   97SOL    HW1   37   1.619   1.663   1.535
   97SOL    HW2   38   1.671   1.591   1.671
  127SOL     OW   39   1.859   1.518   1.605
  127SOL    HW1   40   1.873   1.545   1.510
  127SOL    HW2   41   1.942   1.540   1.658
  152SOL     OW   42   1.759   1.747   1.154
  152SOL    HW1   43   1.820   1.777   1.081
  152SOL    HW2   44   1.721   1.658   1.132
  163SOL     OW   45   1.650   1.720   1.394
  163SOL    HW1   46   1.703   1.730   1.310
  163SOL    HW2   47   1.623   1.810   1.428
  219SOL     OW   48   1.555   1.511   2.565
  219SOL    HW1   49   1.498   1.495   2.646
  219SOL    HW2   50   1.496   1.521   2.485
  227SOL     OW   51   1.460   1.505   3.201
  227SOL    HW1   52   1.484   1.599   3.227
  227SOL    HW2   53   1.444   1.451   3.283
  238SOL     OW   54   1.842   1.767   2.221
  238SOL    HW1   55   1.896   1.738   2.301
  238SOL    HW2   56   1.872   1.857   2.192
  241SOL     OW   57   1.641   1.108   2.294
  241SOL    HW1   58   1.727   1.110   2.242
  241SOL    HW2   59   1.655   1.155   2.382
  250SOL     OW   60   1.466   1.417   2.815
  250SOL    HW1   61   1.407   1.423   2.895
  250SOL    HW2   62   1.451   1.329   2.769
  251SOL     OW   63   1.667   1.714   2.434
  251SOL    HW1   64   1.626   1.691   2.346
  251SOL    HW2   65   1.649   1.640   2.499
  254SOL     OW   66   1.576   1.662   2.169
  254SOL    HW1   67   1.665   1.708   2.172
  254SOL    HW2   68   1.555   1.638   2.074
  268SOL     OW   69   1.795   1.066   2.735
  268SOL    HW1   70   1.733   1.051   2.659
  268SOL    HW2   71   1.743   1.077   2.820
  273SOL     OW   72   1.111   1.776   2.099
  273SOL    HW1   73   1.051   1.714   2.149
  273SOL    HW2   74   1.142   1.732   2.014
  275SOL     OW   75   1.632   1.377   1.943
  275SOL    HW1   76   1.600   1.471   1.933
  275SOL    HW2   77   1.556   1.314   1.931
  293SOL     OW   78   1.227   1.570   2.655
  293SOL    HW1   79   1.248   1.644   2.590
  293SOL    HW2   80   1.295   1.570   2.728
  295SOL     OW   81   1.271   1.797   2.453
  295SOL    HW1   82   1.315   1.861   2.389
  295SOL    HW2   83   1.221   1.849   2.523
  301SOL     OW   84   1.429   1.173   2.729
  301SOL    HW1   85   1.374   1.089   2.722
  301SOL    HW2   86   1.455   1.202   2.637
  305SOL     OW   87   1.664   1.280   2.519
  305SOL    HW1   88   1.763   1.288   2.533
  305SOL    HW2   89   1.619   1.364   2.550
  308SOL     OW   90   1.754   1.223   3.450
  308SOL    HW1   91   1.845   1.184   3.437
  308SOL    HW2   92   1.762   1.319   3.474
  310SOL     OW   93   1.592   1.629   3.487
  310SOL    HW1   94   1.619   1.663   3.397
  310SOL    HW2   95   1.671   1.591   3.533
  312SOL     OW   96   1.638   1.099   2.941
  312SOL    HW1   97   1.643   1.180   3.000
  312SOL    HW2   98   1.552   1.101   2.890
  321SOL     OW   99   1.252   1.348   2.250
  321SOL    HW1  100   1.302   1.425   2.290
  321SOL    HW2  101   1.157   1.350   2.282
  322SOL     OW  102   1.272   1.445   3.004
  322SOL    HW1  103   1.319   1.458   3.091
  322SOL    HW2  104   1.206   1.371   3.013
  340SOL     OW  105   1.859   1.518   3.467
  340SOL    HW1  106   1.873   1.545   3.372
  340SOL    HW2  107   1.942   1.540   3.520
  365SOL     OW  108   1.759   1.747   3.016
  365SOL    HW1  109   1.820   1.777   2.943
  365SOL    HW2  110   1.721   1.658   2.994
  366SOL     OW  111   1.252   1.731   2.990
  366SOL    HW1  112   1.336   1.736   2.936
  366SOL    HW2  113   1.229   1.635   3.008
  370SOL     OW  114   1.388   1.573   2.339
  370SOL    HW1  115   1.455   1.585   2.265
  370SOL    HW2  116   1.348   1.662   2.362
  375SOL     OW  117   1.650   1.720   3.256
  375SOL    HW1  118   1.703   1.730   3.172
  375SOL    HW2  119   1.623   1.810   3.290
  378SOL     OW  120   1.194   1.612   1.893
  378SOL    HW1  121   1.200   1.519   1.930
  378SOL    HW2  122   1.135   1.612   1.813
  381SOL     OW  123   1.504   1.607   1.906
  381SOL    HW1  124   1.412   1.644   1.913
  381SOL    HW2  125   1.542   1.627   1.816
  383SOL     OW  126   1.614   1.292   3.151
  383SOL    HW1  127   1.674   1.295   3.231
  383SOL    HW2  128   1.539   1.356   3.164
  396SOL     OW  129   1.493   1.767   2.821
  396SOL    HW1  130   1.526   1.831   2.752
  396SOL    HW2  131   1.559   1.761   2.896
  409SOL     OW  132   1.861   1.569   2.713
  409SOL    HW1  133   1.790   1.557   2.643
  409SOL    HW2  134   1.862   1.490   2.773
  415SOL     OW  135   1.705   1.487   2.966
  415SOL    HW1  136   1.612   1.462   2.939
  415SOL    HW2  137   1.731   1.437   3.048
  595SOL     OW  138   1.127   3.203   1.690
  595SOL    HW1  139   1.174   3.203   1.778
  595SOL    HW2  140   1.079   3.116   1.679
  600SOL     OW  141   1.594   1.976   1.480
  600SOL    HW1  142   1.576   2.043   1.408
  600SOL    HW2  143   1.591   2.022   1.569
  608SOL     OW  144   1.293   3.090   1.423
  608SOL    HW1  145   1.330   3.017   1.365
  608SOL    HW2  146   1.345   3.095   1.508
  620SOL     OW  147   1.394   2.331   1.674
  620SOL    HW1  148   1.374   2.374   1.762
  620SOL    HW2  149   1.472   2.269   1.683
  627SOL     OW  150   1.719   2.447   1.831
  627SOL    HW1  151   1.693   2.536   1.795
  627SOL    HW2  152   1.717   2.379   1.758
  645SOL     OW  153   1.547   2.084   1.729
  645SOL    HW1  154   1.542   2.121   1.821
  645SOL    HW2  155   1.475   2.015   1.717
  649SOL     OW  156   1.351   2.452   1.433
  649SOL    HW1  157   1.379   2.409   1.518
  649SOL    HW2  158   1.376   2.548   1.434
  672SOL     OW  159   1.754   3.085   1.588
  672SOL    HW1  160   1.845   3.046   1.575
  672SOL    HW2  161   1.762   3.181   1.612
  674SOL     OW  162   1.592   3.491   1.625
  674SOL    HW1  163   1.619   3.525   1.535
  674SOL    HW2  164   1.671   3.453   1.671
  676SOL     OW  165   1.638   2.961   1.079
  676SOL    HW1  166   1.643   3.042   1.138
  676SOL    HW2  167   1.552   2.963   1.028
  690SOL     OW  168   1.587   2.641   1.670
  690SOL    HW1  169   1.495   2.679   1.665
  690SOL    HW2  170   1.647   2.688   1.605
  691SOL     OW  171   1.013   1.967   1.770
  691SOL    HW1  172   1.019   2.052   1.718
  691SOL    HW2  173   1.045   1.891   1.713
  699SOL     OW  174   1.728   2.797   1.854
  699SOL    HW1  175   1.682   2.790   1.765
  699SOL    HW2  176   1.666   2.841   1.920
  704SOL     OW  177   1.859   3.380   1.605
  704SOL    HW1  178   1.873   3.407   1.510
  704SOL    HW2  179   1.942   3.402   1.658
  711SOL     OW  180   1.138   2.242   1.678
  711SOL    HW1  181   1.093   2.305   1.742
  711SOL    HW2  182   1.231   2.273   1.661
  712SOL     OW  183   1.160   2.069   1.477
  712SOL    HW1  184   1.160   2.133   1.554
  712SOL    HW2  185   1.188   2.117   1.394
  719SOL     OW  186   1.369   2.812   1.660
  719SOL    HW1  187   1.408   2.901   1.680
  719SOL    HW2  188   1.379   2.792   1.563
  721SOL     OW  189   1.657   2.466   1.206
  721SOL    HW1  190   1.619   2.397   1.268
  721SOL    HW2  191   1.739   2.430   1.162
  740SOL     OW  192   1.650   3.582   1.394
  740SOL    HW1  193   1.703   3.592   1.310
  740SOL    HW2  194   1.623   3.672   1.428
  741SOL     OW  195   1.841   2.037   0.963
  741SOL    HW1  196   1.880   1.952   0.927
  741SOL    HW2  197   1.743   2.039   0.944
  748SOL     OW  198   1.614   3.154   1.289
  748SOL    HW1  199   1.674   3.157   1.369
  748SOL    HW2  200   1.539   3.218   1.302
  752SOL     OW  201   1.709   2.247   1.381
  752SOL    HW1  202   1.782   2.316   1.385
  752SOL    HW2  203   1.737   2.172   1.322
  757SOL     OW  204   1.440   2.718   1.398
  757SOL    HW1  205   1.383   2.770   1.335
  757SOL    HW2  206   1.536   2.730   1.374
  763SOL     OW  207   1.450   3.082   1.633
  763SOL    HW1  208   1.441   3.072   1.732
  763SOL    HW2  209   1.546   3.075   1.607
  765SOL     OW  210   1.674   2.745   1.254
  765SOL    HW1  211   1.647   2.656   1.217
  765SOL    HW2  212   1.675   2.813   1.181
  768SOL     OW  213   1.777   2.204   1.642
  768SOL    HW1  214   1.760   2.235   1.548
  768SOL    HW2  215   1.693   2.167   1.680
  769SOL     OW  216   1.730   2.796   1.517
  769SOL    HW1  217   1.768   2.887   1.532
  769SOL    HW2  218   1.722   2.779   1.418
  778SOL     OW  219   1.824   2.054   1.227
  778SOL    HW1  220   1.820   1.964   1.271
  778SOL    HW2  221   1.827   2.043   1.128
  796SOL     OW  222   1.555   3.373   2.565
  796SOL    HW1  223   1.498   3.357   2.646
  796SOL    HW2  224   1.496   3.383   2.485
  797SOL     OW  225   1.135   2.565   2.579
  797SOL    HW1  226   1.192   2.643   2.554
  797SOL    HW2  227   1.075   2.591   2.655
  798SOL     OW  228   1.755   2.469   2.093
  798SOL    HW1  229   1.743   2.456   1.994
  798SOL    HW2  230   1.725   2.388   2.142
  804SOL     OW  231   1.460   3.367   3.201
  804SOL    HW1  232   1.484   3.461   3.227
  804SOL    HW2  233   1.444   3.313   3.283
  806SOL     OW  234   1.603   2.309   2.599
  806SOL    HW1  235   1.529   2.355   2.549
  806SOL    HW2  236   1.654   2.377   2.652
  813SOL     OW  237   1.594   1.976   3.342
  813SOL    HW1  238   1.576   2.043   3.270
  813SOL    HW2  239   1.591   2.022   3.431
  815SOL     OW  240   1.842   3.629   2.221
  815SOL    HW1  241   1.896   3.600   2.301
  815SOL    HW2  242   1.872   3.719   2.192
  817SOL     OW  243   1.689   2.784   2.474
  817SOL    HW1  244   1.784   2.755   2.482
  817SOL    HW2  245   1.681   2.849   2.399
  818SOL     OW  246   1.641   2.970   2.294
  818SOL    HW1  247   1.727   2.972   2.242
  818SOL    HW2  248   1.655   3.017   2.382
  821SOL     OW  249   1.293   3.090   3.285
  821SOL    HW1  250   1.330   3.017   3.227
  821SOL    HW2  251   1.345   3.095   3.370
  824SOL     OW  252   1.525   2.861   2.052
  824SOL    HW1  253   1.462   2.785   2.065
  824SOL    HW2  254   1.573   2.879   2.138
  827SOL     OW  255   1.466   3.279   2.815
  827SOL    HW1  256   1.407   3.285   2.895
  827SOL    HW2  257   1.451   3.191   2.769
  828SOL     OW  258   1.667   3.576   2.434
  828SOL    HW1  259   1.626   3.553   2.346
  828SOL    HW2  260   1.649   3.502   2.499
  830SOL     OW  261   1.281   2.207   2.806
  830SOL    HW1  262   1.195   2.157   2.793
  830SOL    HW2  263   1.343   2.153   2.862
  831SOL     OW  264   1.576   3.524   2.169
  831SOL    HW1  265   1.665   3.570   2.172
  831SOL    HW2  266   1.555   3.500   2.074
  833SOL     OW  267   1.394   2.331   3.536
  833SOL    HW1  268   1.374   2.374   3.624
  833SOL    HW2  269   1.472   2.269   3.545
  835SOL     OW  270   0.991   2.272   3.104
  835SOL    HW1  271   0.914   2.306   3.158
  835SOL    HW2  272   0.957   2.221   3.025
  836SOL     OW  273   1.041   2.563   2.291
  836SOL    HW1  274   1.067   2.559   2.387
  836SOL    HW2  275   0.956   2.512   2.277
  839SOL     OW  276   0.865   2.210   2.057
  839SOL    HW1  277   0.924   2.273   2.008
  839SOL    HW2  278   0.884   2.116   2.028
  840SOL     OW  279   1.719   2.447   3.693
  840SOL    HW1  280   1.693   2.536   3.657
  840SOL    HW2  281   1.717   2.379   3.620
  841SOL     OW  282   1.362   3.006   2.407
  841SOL    HW1  283   1.445   2.977   2.359
  841SOL    HW2  284   1.313   3.073   2.351
  843SOL     OW  285   1.008   3.318   2.339
  843SOL    HW1  286   0.962   3.390   2.287
  843SOL    HW2  287   1.004   3.338   2.437
  845SOL     OW  288   1.795   2.928   2.735
  845SOL    HW1  289   1.733   2.913   2.659
  845SOL    HW2  290   1.743   2.939   2.820
  846SOL     OW  291   1.227   3.412   3.368
  846SOL    HW1  292   1.233   3.335   3.432
  846SOL    HW2  293   1.175   3.386   3.288
  848SOL     OW  294   1.458   2.597   2.590
  848SOL    HW1  295   1.453   2.532   2.665
  848SOL    HW2  296   1.538   2.656   2.603
  852SOL     OW  297   1.632   3.239   1.943
  852SOL    HW1  298   1.600   3.333   1.933
  852SOL    HW2  299   1.556   3.176   1.931
  854SOL     OW  300   1.400   1.969   2.288
  854SOL    HW1  301   1.376   1.932   2.198
  854SOL    HW2  302   1.499   1.985   2.292
  858SOL     OW  303   1.547   2.084   3.591
  858SOL    HW1  304   1.542   2.121   3.683
  858SOL    HW2  305   1.475   2.015   3.579
  862SOL     OW  306   1.351   2.452   3.295
  862SOL    HW1  307   1.379   2.409   3.380
  862SOL    HW2  308   1.376   2.548   3.296
  864SOL     OW  309   0.922   2.365   2.761
  864SOL    HW1  310   0.897   2.356   2.665
  864SOL    HW2  311   0.970   2.283   2.792
  866SOL     OW  312   1.434   3.050   1.903
  866SOL    HW1  313   1.466   2.974   1.960
  866SOL    HW2  314   1.342   3.077   1.933
  868SOL     OW  315   0.935   2.098   2.342
  868SOL    HW1  316   0.887   2.139   2.264
  868SOL    HW2  317   1.034   2.096   2.323
  869SOL     OW  318   1.076   2.545   3.326
  869SOL    HW1  319   0.996   2.484   3.329
  869SOL    HW2  320   1.157   2.492   3.302
  870SOL     OW  321   1.227   3.432   2.655
  870SOL    HW1  322   1.248   3.506   2.590
  870SOL    HW2  323   1.295   3.432   2.728
  872SOL     OW  324   1.271   3.659   2.453
  872SOL    HW1  325   1.315   3.723   2.389
  872SOL    HW2  326   1.221   3.711   2.523
  873SOL     OW  327   1.032   2.411   1.878
  873SOL    HW1  328   0.991   2.493   1.839
  873SOL    HW2  329   1.096   2.437   1.951
  876SOL     OW  330   0.866   2.316   2.504
  876SOL    HW1  331   0.834   2.388   2.442
  876SOL    HW2  332   0.890   2.235   2.451
  877SOL     OW  333   1.017   1.901   2.615
  877SOL    HW1  334   0.945   1.906   2.546
  877SOL    HW2  335   0.993   1.832   2.684
  878SOL     OW  336   1.429   3.035   2.729
  878SOL    HW1  337   1.374   2.951   2.722
  878SOL    HW2  338   1.455   3.064   2.637
  879SOL     OW  339   1.466   2.452   2.854
  879SOL    HW1  340   1.436   2.357   2.861
  879SOL    HW2  341   1.539   2.468   2.920
  880SOL     OW  342   1.857   2.695   2.239
  880SOL    HW1  343   1.899   2.631   2.303
  880SOL    HW2  344   1.819   2.644   2.161
  882SOL     OW  345   1.664   3.142   2.519
  882SOL    HW1  346   1.763   3.150   2.533
  882SOL    HW2  347   1.619   3.226   2.550
  883SOL     OW  348   1.390   2.437   1.940
  883SOL    HW1  349   1.336   2.416   2.021
  883SOL    HW2  350   1.481   2.396   1.949
  885SOL     OW  351   1.754   3.085   3.450
  885SOL    HW1  352   1.845   3.046   3.437
  885SOL    HW2  353   1.762   3.181   3.474
  886SOL     OW  354   1.064   3.209   3.202
  886SOL    HW1  355   0.984   3.186   3.257
  886SOL    HW2  356   1.147   3.183   3.251
  887SOL     OW  357   1.592   3.491   3.487
  887SOL    HW1  358   1.619   3.525   3.397
  887SOL    HW2  359   1.671   3.453   3.533
  888SOL     OW  360   1.111   3.057   2.962
  888SOL    HW1  361   1.071   3.101   3.043
  888SOL    HW2  362   1.070   3.094   2.879
  889SOL     OW  363   1.638   2.961   2.941
  889SOL    HW1  364   1.643   3.042   3.000
  889SOL    HW2  365   1.552   2.963   2.890
  894SOL     OW  366   1.274   2.248   3.124
  894SOL    HW1  367   1.295   2.322   3.188
  894SOL    HW2  368   1.185   2.265   3.081
  898SOL     OW  369   1.252   3.210   2.250
  898SOL    HW1  370   1.302   3.287   2.290
  898SOL    HW2  371   1.157   3.212   2.282
  899SOL     OW  372   1.272   3.307   3.004
  899SOL    HW1  373   1.319   3.320   3.091
  899SOL    HW2  374   1.206   3.233   3.013
  900SOL     OW  375   1.582   2.501   2.334
  900SOL    HW1  376   1.551   2.562   2.407
  900SOL    HW2  377   1.632   2.553   2.265
  903SOL     OW  378   1.587   2.641   3.532
  903SOL    HW1  379   1.495   2.679   3.527
  903SOL    HW2  380   1.647   2.688   3.467
  907SOL     OW  381   1.360   2.724   2.907
  907SOL    HW1  382   1.285   2.724   2.841
  907SOL    HW2  383   1.397   2.632   2.916
  908SOL     OW  384   1.209   2.387   2.137
  908SOL    HW1  385   1.222   2.303   2.191
  908SOL    HW2  386   1.180   2.461   2.197
  912SOL     OW  387   1.728   2.797   3.716
  912SOL    HW1  388   1.682   2.790   3.627
  912SOL    HW2  389   1.666   2.841   3.782
  914SOL     OW  390   1.622   2.229   2.236
  914SOL    HW1  391   1.624   2.153   2.300
  914SOL    HW2  392   1.574   2.306   2.276
  915SOL     OW  393   1.023   2.628   2.828
  915SOL    HW1  394   1.038   2.649   2.924
  915SOL    HW2  395   0.993   2.533   2.819
  917SOL     OW  396   1.859   3.380   3.467
  917SOL    HW1  397   1.873   3.407   3.372
  917SOL    HW2  398   1.942   3.402   3.520
  919SOL     OW  399   1.540   2.136   1.987
  919SOL    HW1  400   1.479   2.061   2.010
  919SOL    HW2  401   1.562   2.188   2.070
  920SOL     OW  402   1.303   2.700   1.904
  920SOL    HW1  403   1.337   2.607   1.919
  920SOL    HW2  404   1.321   2.727   1.809
  921SOL     OW  405   1.068   3.195   2.711
  921SOL    HW1  406   1.075   3.111   2.656
  921SOL    HW2  407   1.130   3.264   2.675
  924SOL     OW  408   1.138   2.242   3.540
  924SOL    HW1  409   1.093   2.305   3.604
  924SOL    HW2  410   1.231   2.273   3.523
  925SOL     OW  411   1.160   2.069   3.339
  925SOL    HW1  412   1.160   2.133   3.416
  925SOL    HW2  413   1.188   2.117   3.256
  929SOL     OW  414   1.002   2.658   3.100
  929SOL    HW1  415   1.043   2.626   3.186
  929SOL    HW2  416   0.906   2.631   3.097
  932SOL     OW  417   1.369   2.812   3.522
  932SOL    HW1  418   1.408   2.901   3.542
  932SOL    HW2  419   1.379   2.792   3.425
  933SOL     OW  420   0.815   2.434   2.187
  933SOL    HW1  421   0.822   2.345   2.141
  933SOL    HW2  422   0.721   2.468   2.179
  934SOL     OW  423   1.657   2.466   3.068
  934SOL    HW1  424   1.619   2.397   3.130
  934SOL    HW2  425   1.739   2.430   3.024
  940SOL     OW  426   1.347   2.921   3.096
  940SOL    HW1  427   1.371   2.858   3.022
  940SOL    HW2  428   1.257   2.961   3.078
  941SOL     OW  429   1.302   2.717   2.171
  941SOL    HW1  430   1.216   2.686   2.213
  941SOL    HW2  431   1.298   2.703   2.072
  942SOL     OW  432   1.759   3.609   3.016
  942SOL    HW1  433   1.820   3.639   2.943
  942SOL    HW2  434   1.721   3.520   2.994
  943SOL     OW  435   1.252   3.593   2.990
  943SOL    HW1  436   1.336   3.598   2.936
  943SOL    HW2  437   1.229   3.497   3.008
  946SOL     OW  438   1.726   1.997   2.385
  946SOL    HW1  439   1.799   1.980   2.318
  946SOL    HW2  440   1.695   1.910   2.423
  947SOL     OW  441   1.388   3.435   2.339
  947SOL    HW1  442   1.455   3.447   2.265
  947SOL    HW2  443   1.348   3.524   2.362
  949SOL     OW  444   1.280   2.789   2.534
  949SOL    HW1  445   1.340   2.708   2.536
  949SOL    HW2  446   1.320   2.858   2.474
  952SOL     OW  447   1.650   3.582   3.256
  952SOL    HW1  448   1.703   3.592   3.172
  952SOL    HW2  449   1.623   3.672   3.290
  953SOL     OW  450   1.841   2.037   2.825
  953SOL    HW1  451   1.880   1.952   2.789
  953SOL    HW2  452   1.743   2.039   2.806
  955SOL     OW  453   1.194   3.474   1.893
  955SOL    HW1  454   1.200   3.381   1.930
  955SOL    HW2  455   1.135   3.474   1.813
  957SOL     OW  456   0.916   2.772   2.153
  957SOL    HW1  457   0.979   2.810   2.085
  957SOL    HW2  458   0.956   2.689   2.192
  958SOL     OW  459   1.504   3.469   1.906
  958SOL    HW1  460   1.412   3.506   1.913
  958SOL    HW2  461   1.542   3.489   1.816
  960SOL     OW  462   1.614   3.154   3.151
  960SOL    HW1  463   1.674   3.157   3.231
  960SOL    HW2  464   1.539   3.218   3.164
  961SOL     OW  465   1.039   2.960   2.558
  961SOL    HW1  466   0.969   2.913   2.612
  961SOL    HW2  467   1.098   2.892   2.515
  962SOL     OW  468   1.014   2.098   2.833
  962SOL    HW1  469   1.006   2.062   2.740
  962SOL    HW2  470   1.012   2.022   2.898
  964SOL     OW  471   1.709   2.247   3.243
  964SOL    HW1  472   1.782   2.316   3.247
  964SOL    HW2  473   1.737   2.172   3.184
  969SOL     OW  474   1.440   2.718   3.260
  969SOL    HW1  475   1.383   2.770   3.197
  969SOL    HW2  476   1.536   2.730   3.236
  971SOL     OW  477   1.183   3.197   1.981
  971SOL    HW1  478   1.084   3.186   1.983
  971SOL    HW2  479   1.217   3.212   2.074
  973SOL     OW  480   1.493   3.629   2.821
  973SOL    HW1  481   1.526   3.693   2.752
  973SOL    HW2  482   1.559   3.623   2.896
  975SOL     OW  483   1.450   3.082   3.495
  975SOL    HW1  484   1.441   3.072   3.594
  975SOL    HW2  485   1.546   3.075   3.469
  977SOL     OW  486   1.674   2.745   3.116
  977SOL    HW1  487   1.647   2.656   3.079
  977SOL    HW2  488   1.675   2.813   3.043
  978SOL     OW  489   1.225   2.187   2.311
  978SOL    HW1  490   1.290   2.113   2.300
  978SOL    HW2  491   1.245   2.237   2.395
  980SOL     OW  492   1.777   2.204   3.504
  980SOL    HW1  493   1.760   2.235   3.410
  980SOL    HW2  494   1.693   2.167   3.542
  981SOL     OW  495   1.730   2.796   3.379
  981SOL    HW1  496   1.768   2.887   3.394
  981SOL    HW2  497   1.722   2.779   3.280
  984SOL     OW  498   0.859   2.818   2.723
  984SOL    HW1  499   0.913   2.749   2.771
  984SOL    HW2  500   0.827   2.887   2.789
  985SOL     OW  501   1.083   2.846   1.949
  985SOL    HW1  502   1.060   2.899   1.867
  985SOL    HW2  503   1.164   2.790   1.930
  986SOL     OW  504   1.861   3.431   2.713
  986SOL    HW1  505   1.790   3.419   2.643
  986SOL    HW2  506   1.862   3.352   2.773
  990SOL     OW  507   1.824   2.054   3.089
  990SOL    HW1  508   1.820   1.964   3.133
  990SOL    HW2  509   1.827   2.043   2.990
  992SOL     OW  510   1.705   3.349   2.966
  992SOL    HW1  511   1.612   3.324   2.939
  992SOL    HW2  512   1.731   3.299   3.048
  995SOL     OW  513   1.424   2.076   2.974
  995SOL    HW1  514   1.476   2.011   3.029
  995SOL    HW2  515   1.375   2.139   3.035
  996SOL     OW  516   1.001   1.896   3.016
  996SOL    HW1  517   0.938   1.824   2.985
  996SOL    HW2  518   1.094   1.860   3.016
  999SOL     OW  519   1.352   1.914   2.030
  999SOL    HW1  520   1.387   1.873   1.946
  999SOL    HW2  521   1.262   1.876   2.050
 1000SOL     OW  522   1.300   2.315   2.553
 1000SOL    HW1  523   1.241   2.395   2.557
 1000SOL    HW2  524   1.315   2.280   2.646
 1001SOL     OW  525   1.593   2.083   2.744
 1001SOL    HW1  526   1.509   2.082   2.798
 1001SOL    HW2  527   1.595   2.166   2.688
 1010SOL     OW  528   1.755   2.469   3.955
 1010SOL    HW1  529   1.743   2.456   3.856
 1010SOL    HW2  530   1.725   2.388   4.004
 1027SOL     OW  531   1.525   2.861   3.914
 1027SOL    HW1  532   1.462   2.785   3.927
 1027SOL    HW2  533   1.573   2.879   4.000
 1046SOL     OW  534   1.632   3.239   3.805
 1046SOL    HW1  535   1.600   3.333   3.795
 1046SOL    HW2  536   1.556   3.176   3.793
 1056SOL     OW  537   1.434   3.050   3.765
 1056SOL    HW1  538   1.466   2.974   3.822
 1056SOL    HW2  539   1.342   3.077   3.795
 1068SOL     OW  540   1.857   2.695   4.101
 1068SOL    HW1  541   1.899   2.631   4.165
 1068SOL    HW2  542   1.819   2.644   4.023
 1071SOL     OW  543   1.390   2.437   3.802
 1071SOL    HW1  544   1.336   2.416   3.883
 1071SOL    HW2  545   1.481   2.396   3.811
 1093SOL     OW  546   1.540   2.136   3.849
 1093SOL    HW1  547   1.479   2.061   3.872
 1093SOL    HW2  548   1.562   2.188   3.932
 1094SOL     OW  549   1.303   2.700   3.766
 1094SOL    HW1  550   1.337   2.607   3.781
 1094SOL    HW2  551   1.321   2.727   3.671
 1320SOL     OW  552   1.594   3.838   3.342
 1320SOL    HW1  553   1.576   3.905   3.270
 1320SOL    HW2  554   1.591   3.884   3.431
 1348SOL     OW  555   1.400   3.831   2.288
 1348SOL    HW1  556   1.376   3.794   2.198
 1348SOL    HW2  557   1.499   3.847   2.292
 1417SOL     OW  558   1.726   3.859   2.385
 1417SOL    HW1  559   1.799   3.842   2.318
 1417SOL    HW2  560   1.695   3.772   2.423
 1420SOL     OW  561   1.841   3.899   2.825
 1420SOL    HW1  562   1.880   3.814   2.789
 1420SOL    HW2  563   1.743   3.901   2.806
 1446SOL     OW  564   1.824   3.916   3.089
 1446SOL    HW1  565   1.820   3.826   3.133
 1446SOL    HW2  566   1.827   3.905   2.990
 1452SOL     OW  567   1.352   3.776   2.030
 1452SOL    HW1  568   1.387   3.735   1.946
 1452SOL    HW2  569   1.262   3.738   2.050
 1454SOL     OW  570   1.593   3.945   2.744
 1454SOL    HW1  571   1.509   3.944   2.798
 1454SOL    HW2  572   1.595   4.028   2.688
 1574SOL     OW  573   2.548   1.161   1.803
 1574SOL    HW1  574   2.608   1.240   1.817
 1574SOL    HW2  575   2.462   1.192   1.762
 1576SOL     OW  576   3.322   1.505   1.339
 1576SOL    HW1  577   3.346   1.599   1.365
 1576SOL    HW2  578   3.306   1.451   1.421
 1580SOL     OW  579   2.989   1.341   1.690
 1580SOL    HW1  580   3.036   1.341   1.778
 1580SOL    HW2  581   2.941   1.254   1.679
 1583SOL     OW  582   2.482   1.786   1.439
 1583SOL    HW1  583   2.390   1.769   1.474
 1583SOL    HW2  584   2.510   1.878   1.465
 1597SOL     OW  585   3.049   1.792   1.616
 1597SOL    HW1  586   3.073   1.852   1.540
 1597SOL    HW2  587   3.056   1.697   1.586
 1610SOL     OW  588   1.992   1.821   1.571
 1610SOL    HW1  589   1.982   1.806   1.670
 1610SOL    HW2  590   1.906   1.857   1.535
 1618SOL     OW  591   3.089   1.550   1.506
 1618SOL    HW1  592   3.095   1.473   1.570
 1618SOL    HW2  593   3.037   1.524   1.426
 1621SOL     OW  594   2.323   1.266   1.727
 1621SOL    HW1  595   2.273   1.267   1.641
 1621SOL    HW2  596   2.260   1.248   1.803
 1627SOL     OW  597   2.111   1.785   1.241
 1627SOL    HW1  598   2.168   1.720   1.291
 1627SOL    HW2  599   2.095   1.752   1.148
 1633SOL     OW  600   2.750   1.514   1.195
 1633SOL    HW1  601   2.727   1.489   1.101
 1633SOL    HW2  602   2.811   1.445   1.234
 1658SOL     OW  603   2.926   1.347   1.340
 1658SOL    HW1  604   2.846   1.324   1.395
 1658SOL    HW2  605   3.009   1.321   1.389
 1659SOL     OW  606   3.454   1.629   1.625
 1659SOL    HW1  607   3.481   1.663   1.535
 1659SOL    HW2  608   3.533   1.591   1.671
 1663SOL     OW  609   2.842   1.116   1.719
 1663SOL    HW1  610   2.743   1.122   1.729
 1663SOL    HW2  611   2.865   1.036   1.663
 1667SOL     OW  612   1.926   1.564   1.331
 1667SOL    HW1  613   1.880   1.646   1.297
 1667SOL    HW2  614   2.024   1.583   1.340
 1673SOL     OW  615   2.216   1.510   1.329
 1673SOL    HW1  616   2.195   1.466   1.242
 1673SOL    HW2  617   2.313   1.536   1.332
 1688SOL     OW  618   2.842   1.573   1.700
 1688SOL    HW1  619   2.822   1.617   1.612
 1688SOL    HW2  620   2.881   1.482   1.684
 1706SOL     OW  621   2.114   1.564   1.744
 1706SOL    HW1  622   2.084   1.621   1.820
 1706SOL    HW2  623   2.107   1.467   1.770
 1708SOL     OW  624   2.792   1.678   1.465
 1708SOL    HW1  625   2.768   1.660   1.370
 1708SOL    HW2  626   2.822   1.772   1.475
 1714SOL     OW  627   3.114   1.731   1.128
 1714SOL    HW1  628   3.198   1.736   1.074
 1714SOL    HW2  629   3.091   1.635   1.146
 1716SOL     OW  630   2.550   1.662   1.716
 1716SOL    HW1  631   2.494   1.743   1.725
 1716SOL    HW2  632   2.602   1.666   1.630
 1720SOL     OW  633   1.992   1.794   1.851
 1720SOL    HW1  634   1.951   1.720   1.904
 1720SOL    HW2  635   2.056   1.845   1.909
 1722SOL     OW  636   2.692   1.273   1.422
 1722SOL    HW1  637   2.687   1.306   1.517
 1722SOL    HW2  638   2.606   1.292   1.376
 1724SOL     OW  639   3.512   1.720   1.394
 1724SOL    HW1  640   3.565   1.730   1.310
 1724SOL    HW2  641   3.485   1.810   1.428
 1731SOL     OW  642   2.234   1.288   1.490
 1731SOL    HW1  643   2.221   1.381   1.456
 1731SOL    HW2  644   2.150   1.236   1.477
 1746SOL     OW  645   3.312   1.220   1.633
 1746SOL    HW1  646   3.303   1.210   1.732
 1746SOL    HW2  647   3.408   1.213   1.607
 1747SOL     OW  648   2.252   1.741   1.560
 1747SOL    HW1  649   2.161   1.782   1.558
 1747SOL    HW2  650   2.245   1.647   1.592
 1754SOL     OW  651   2.523   1.790   0.953
 1754SOL    HW1  652   2.477   1.878   0.940
 1754SOL    HW2  653   2.622   1.802   0.946
 1758SOL     OW  654   2.083   1.314   1.844
 1758SOL    HW1  655   2.018   1.241   1.823
 1758SOL    HW2  656   2.087   1.328   1.942
 1760SOL     OW  657   2.534   1.391   1.624
 1760SOL    HW1  658   2.456   1.341   1.662
 1760SOL    HW2  659   2.531   1.486   1.655
 1769SOL     OW  660   2.480   1.567   1.284
 1769SOL    HW1  661   2.475   1.649   1.341
 1769SOL    HW2  662   2.569   1.564   1.239
 1778SOL     OW  663   2.431   1.275   3.027
 1778SOL    HW1  664   2.338   1.268   2.990
 1778SOL    HW2  665   2.442   1.364   3.071
 1779SOL     OW  666   3.417   1.511   2.565
 1779SOL    HW1  667   3.360   1.495   2.646
 1779SOL    HW2  668   3.358   1.521   2.485
 1782SOL     OW  669   2.630   1.144   2.885
 1782SOL    HW1  670   2.552   1.161   2.945
 1782SOL    HW2  671   2.664   1.231   2.849
 1784SOL     OW  672   2.547   1.012   2.527
 1784SOL    HW1  673   2.616   0.996   2.597
 1784SOL    HW2  674   2.474   1.069   2.565
 1785SOL     OW  675   2.548   1.161   3.665
 1785SOL    HW1  676   2.608   1.240   3.679
 1785SOL    HW2  677   2.462   1.192   3.624
 1786SOL     OW  678   2.197   1.435   2.923
 1786SOL    HW1  679   2.119   1.404   2.870
 1786SOL    HW2  680   2.255   1.493   2.866
 1787SOL     OW  681   3.322   1.505   3.201
 1787SOL    HW1  682   3.346   1.599   3.227
 1787SOL    HW2  683   3.306   1.451   3.283
 1790SOL     OW  684   2.093   1.713   2.345
 1790SOL    HW1  685   2.127   1.790   2.399
 1790SOL    HW2  686   2.137   1.713   2.255
 1791SOL     OW  687   2.989   1.341   3.552
 1791SOL    HW1  688   3.036   1.341   3.640
 1791SOL    HW2  689   2.941   1.254   3.541
 1792SOL     OW  690   2.092   1.434   2.400
 1792SOL    HW1  691   2.066   1.530   2.400
 1792SOL    HW2  692   2.021   1.380   2.445
 1793SOL     OW  693   2.102   1.091   2.748
 1793SOL    HW1  694   2.116   1.007   2.800
 1793SOL    HW2  695   2.047   1.155   2.803
 1794SOL     OW  696   2.482   1.786   3.301
 1794SOL    HW1  697   2.390   1.769   3.336
 1794SOL    HW2  698   2.510   1.878   3.327
 1795SOL     OW  699   2.468   0.964   1.985
 1795SOL    HW1  700   2.475   1.048   1.931
 1795SOL    HW2  701   2.514   0.977   2.073
 1798SOL     OW  702   3.704   1.767   2.221
 1798SOL    HW1  703   3.758   1.738   2.301
 1798SOL    HW2  704   3.734   1.857   2.192
 1799SOL     OW  705   1.889   1.596   1.979
 1799SOL    HW1  706   1.870   1.500   2.000
 1799SOL    HW2  707   1.856   1.654   2.054
 1801SOL     OW  708   3.503   1.108   2.294
 1801SOL    HW1  709   3.589   1.110   2.242
 1801SOL    HW2  710   3.517   1.155   2.382
 1803SOL     OW  711   2.475   1.365   2.588
 1803SOL    HW1  712   2.426   1.278   2.597
 1803SOL    HW2  713   2.452   1.408   2.501
 1804SOL     OW  714   3.155   1.228   3.285
 1804SOL    HW1  715   3.192   1.155   3.227
 1804SOL    HW2  716   3.207   1.233   3.370
 1806SOL     OW  717   2.059   0.976   3.126
 1806SOL    HW1  718   2.148   0.931   3.112
 1806SOL    HW2  719   1.986   0.911   3.107
 1808SOL     OW  720   3.049   1.792   3.478
 1808SOL    HW1  721   3.073   1.852   3.402
 1808SOL    HW2  722   3.056   1.697   3.448
 1810SOL     OW  723   3.328   1.417   2.815
 1810SOL    HW1  724   3.269   1.423   2.895
 1810SOL    HW2  725   3.313   1.329   2.769
 1811SOL     OW  726   3.529   1.714   2.434
 1811SOL    HW1  727   3.488   1.691   2.346
 1811SOL    HW2  728   3.511   1.640   2.499
 1814SOL     OW  729   3.438   1.662   2.169
 1814SOL    HW1  730   3.527   1.708   2.172
 1814SOL    HW2  731   3.417   1.638   2.074
 1821SOL     OW  732   1.992   1.821   3.433
 1821SOL    HW1  733   1.982   1.806   3.532
 1821SOL    HW2  734   1.906   1.857   3.397
 1824SOL     OW  735   3.224   1.144   2.407
 1824SOL    HW1  736   3.307   1.115   2.359
 1824SOL    HW2  737   3.175   1.211   2.351
 1826SOL     OW  738   2.870   1.456   2.339
 1826SOL    HW1  739   2.824   1.528   2.287
 1826SOL    HW2  740   2.866   1.476   2.437
 1827SOL     OW  741   2.213   1.801   2.715
 1827SOL    HW1  742   2.263   1.715   2.721
 1827SOL    HW2  743   2.278   1.878   2.712
 1829SOL     OW  744   3.089   1.550   3.368
 1829SOL    HW1  745   3.095   1.473   3.432
 1829SOL    HW2  746   3.037   1.524   3.288
 1830SOL     OW  747   2.183   0.943   2.104
 1830SOL    HW1  748   2.265   0.982   2.062
 1830SOL    HW2  749   2.156   0.861   2.055
 1832SOL     OW  750   2.323   1.266   3.589
 1832SOL    HW1  751   2.273   1.267   3.503
 1832SOL    HW2  752   2.260   1.248   3.665
 1833SOL     OW  753   2.973   1.776   2.099
 1833SOL    HW1  754   2.913   1.714   2.149
 1833SOL    HW2  755   3.004   1.732   2.014
 1835SOL     OW  756   3.494   1.377   1.943
 1835SOL    HW1  757   3.462   1.471   1.933
 1835SOL    HW2  758   3.418   1.314   1.931
 1836SOL     OW  759   2.326   1.743   2.185
 1836SOL    HW1  760   2.359   1.782   2.271
 1836SOL    HW2  761   2.402   1.736   2.120
 1838SOL     OW  762   2.111   1.785   3.103
 1838SOL    HW1  763   2.168   1.720   3.153
 1838SOL    HW2  764   2.095   1.752   3.010
 1839SOL     OW  765   2.802   1.698   2.766
 1839SOL    HW1  766   2.882   1.641   2.787
 1839SOL    HW2  767   2.753   1.658   2.689
 1844SOL     OW  768   2.750   1.514   3.057
 1844SOL    HW1  769   2.727   1.489   2.963
 1844SOL    HW2  770   2.811   1.445   3.096
 1846SOL     OW  771   2.665   1.402   2.786
 1846SOL    HW1  772   2.755   1.416   2.744
 1846SOL    HW2  773   2.594   1.404   2.715
 1849SOL     OW  774   3.296   1.188   1.903
 1849SOL    HW1  775   3.328   1.112   1.960
 1849SOL    HW2  776   3.204   1.215   1.933
 1853SOL     OW  777   3.089   1.570   2.655
 1853SOL    HW1  778   3.110   1.644   2.590
 1853SOL    HW2  779   3.157   1.570   2.728
 1854SOL     OW  780   2.321   1.152   2.603
 1854SOL    HW1  781   2.250   1.125   2.668
 1854SOL    HW2  782   2.295   1.124   2.510
 1855SOL     OW  783   3.133   1.797   2.453
 1855SOL    HW1  784   3.177   1.861   2.389
 1855SOL    HW2  785   3.083   1.849   2.523
 1861SOL     OW  786   3.291   1.173   2.729
 1861SOL    HW1  787   3.236   1.089   2.722
 1861SOL    HW2  788   3.317   1.202   2.637
 1864SOL     OW  789   2.350   1.385   2.036
 1864SOL    HW1  790   2.263   1.370   2.083
 1864SOL    HW2  791   2.333   1.411   1.941
 1865SOL     OW  792   3.526   1.280   2.519
 1865SOL    HW1  793   3.625   1.288   2.533
 1865SOL    HW2  794   3.481   1.364   2.550
 1869SOL     OW  795   2.926   1.347   3.202
 1869SOL    HW1  796   2.846   1.324   3.257
 1869SOL    HW2  797   3.009   1.321   3.251
 1870SOL     OW  798   3.454   1.629   3.487
 1870SOL    HW1  799   3.481   1.663   3.397
 1870SOL    HW2  800   3.533   1.591   3.533
 1871SOL     OW  801   2.973   1.195   2.962
 1871SOL    HW1  802   2.933   1.239   3.043
 1871SOL    HW2  803   2.932   1.232   2.879
 1872SOL     OW  804   3.500   1.099   2.941
 1872SOL    HW1  805   3.505   1.180   3.000
 1872SOL    HW2  806   3.414   1.101   2.890
 1874SOL     OW  807   2.842   1.116   3.581
 1874SOL    HW1  808   2.743   1.122   3.591
 1874SOL    HW2  809   2.865   1.036   3.525
 1875SOL     OW  810   2.567   1.050   2.230
 1875SOL    HW1  811   2.553   1.057   2.329
 1875SOL    HW2  812   2.651   0.999   2.212
 1878SOL     OW  813   1.926   1.564   3.193
 1878SOL    HW1  814   1.880   1.646   3.159
 1878SOL    HW2  815   2.024   1.583   3.202
 1879SOL     OW  816   2.229   1.100   2.363
 1879SOL    HW1  817   2.222   1.183   2.307
 1879SOL    HW2  818   2.233   1.020   2.303
 1881SOL     OW  819   3.114   1.348   2.250
 1881SOL    HW1  820   3.164   1.425   2.290
 1881SOL    HW2  821   3.019   1.350   2.282
 1882SOL     OW  822   3.134   1.445   3.004
 1882SOL    HW1  823   3.181   1.458   3.091
 1882SOL    HW2  824   3.068   1.371   3.013
 1884SOL     OW  825   2.216   1.510   3.191
 1884SOL    HW1  826   2.195   1.466   3.104
 1884SOL    HW2  827   2.313   1.536   3.194
 1889SOL     OW  828   2.435   0.870   2.891
 1889SOL    HW1  829   2.479   0.959   2.882
 1889SOL    HW2  830   2.372   0.870   2.968
 1893SOL     OW  831   1.899   1.310   3.144
 1893SOL    HW1  832   1.952   1.261   3.212
 1893SOL    HW2  833   1.921   1.408   3.149
 1899SOL     OW  834   2.842   1.573   3.562
 1899SOL    HW1  835   2.822   1.617   3.474
 1899SOL    HW2  836   2.881   1.482   3.546
 1904SOL     OW  837   2.930   1.333   2.711
 1904SOL    HW1  838   2.937   1.249   2.656
 1904SOL    HW2  839   2.992   1.402   2.675
 1905SOL     OW  840   2.181   0.810   2.811
 1905SOL    HW1  841   2.274   0.846   2.816
 1905SOL    HW2  842   2.175   0.725   2.863
 1909SOL     OW  843   1.870   1.326   2.062
 1909SOL    HW1  844   1.777   1.347   2.031
 1909SOL    HW2  845   1.880   1.227   2.075
 1910SOL     OW  846   1.950   1.801   2.789
 1910SOL    HW1  847   1.908   1.715   2.762
 1910SOL    HW2  848   2.044   1.804   2.755
 1911SOL     OW  849   2.366   1.568   2.772
 1911SOL    HW1  850   2.432   1.642   2.781
 1911SOL    HW2  851   2.410   1.489   2.730
 1918SOL     OW  852   2.114   1.564   3.606
 1918SOL    HW1  853   2.084   1.621   3.682
 1918SOL    HW2  854   2.107   1.467   3.632
 1920SOL     OW  855   2.792   1.678   3.327
 1920SOL    HW1  856   2.768   1.660   3.232
 1920SOL    HW2  857   2.822   1.772   3.337
 1922SOL     OW  858   2.021   1.137   3.328
 1922SOL    HW1  859   2.043   1.076   3.404
 1922SOL    HW2  860   2.031   1.088   3.242
 1923SOL     OW  861   3.209   1.059   3.096
 1923SOL    HW1  862   3.233   0.996   3.022
 1923SOL    HW2  863   3.119   1.099   3.078
 1925SOL     OW  864   3.621   1.747   3.016
 1925SOL    HW1  865   3.682   1.777   2.943
 1925SOL    HW2  866   3.583   1.658   2.994
 1926SOL     OW  867   3.114   1.731   2.990
 1926SOL    HW1  868   3.198   1.736   2.936
 1926SOL    HW2  869   3.091   1.635   3.008
 1927SOL     OW  870   1.945   1.258   2.884
 1927SOL    HW1  871   1.940   1.257   2.984
 1927SOL    HW2  872   1.862   1.217   2.846
 1928SOL     OW  873   2.550   1.662   3.578
 1928SOL    HW1  874   2.494   1.743   3.587
 1928SOL    HW2  875   2.602   1.666   3.492
 1930SOL     OW  876   3.250   1.573   2.339
 1930SOL    HW1  877   3.317   1.585   2.265
 1930SOL    HW2  878   3.210   1.662   2.362
 1931SOL     OW  879   1.992   1.794   3.713
 1931SOL    HW1  880   1.951   1.720   3.766
 1931SOL    HW2  881   2.056   1.845   3.771
 1932SOL     OW  882   3.142   0.927   2.534
 1932SOL    HW1  883   3.202   0.846   2.536
 1932SOL    HW2  884   3.182   0.996   2.474
 1933SOL     OW  885   2.692   1.273   3.284
 1933SOL    HW1  886   2.687   1.306   3.379
 1933SOL    HW2  887   2.606   1.292   3.238
 1934SOL     OW  888   2.534   1.616   2.016
 1934SOL    HW1  889   2.543   1.626   1.917
 1934SOL    HW2  890   2.494   1.527   2.037
 1935SOL     OW  891   3.512   1.720   3.256
 1935SOL    HW1  892   3.565   1.730   3.172
 1935SOL    HW2  893   3.485   1.810   3.290
 1938SOL     OW  894   3.056   1.612   1.893
 1938SOL    HW1  895   3.062   1.519   1.930
 1938SOL    HW2  896   2.997   1.612   1.813
 1939SOL     OW  897   2.684   1.002   3.234
 1939SOL    HW1  898   2.724   1.001   3.142
 1939SOL    HW2  899   2.694   1.094   3.274
 1940SOL     OW  900   2.778   0.910   2.153
 1940SOL    HW1  901   2.841   0.948   2.085
 1940SOL    HW2  902   2.818   0.827   2.192
 1941SOL     OW  903   3.366   1.607   1.906
 1941SOL    HW1  904   3.274   1.644   1.913
 1941SOL    HW2  905   3.404   1.627   1.816
 1942SOL     OW  906   2.234   1.288   3.352
 1942SOL    HW1  907   2.221   1.381   3.318
 1942SOL    HW2  908   2.150   1.236   3.339
 1943SOL     OW  909   3.476   1.292   3.151
 1943SOL    HW1  910   3.536   1.295   3.231
 1943SOL    HW2  911   3.401   1.356   3.164
 1944SOL     OW  912   2.901   1.098   2.558
 1944SOL    HW1  913   2.831   1.051   2.612
 1944SOL    HW2  914   2.960   1.030   2.515
 1946SOL     OW  915   2.452   1.487   2.353
 1946SOL    HW1  916   2.494   1.429   2.283
 1946SOL    HW2  917   2.408   1.566   2.309
 1948SOL     OW  918   2.117   1.348   2.152
 1948SOL    HW1  919   2.021   1.349   2.125
 1948SOL    HW2  920   2.129   1.401   2.236
 1954SOL     OW  921   3.045   1.335   1.981
 1954SOL    HW1  922   2.946   1.324   1.983
 1954SOL    HW2  923   3.079   1.350   2.074
 1956SOL     OW  924   3.355   1.767   2.821
 1956SOL    HW1  925   3.388   1.831   2.752
 1956SOL    HW2  926   3.421   1.761   2.896
 1959SOL     OW  927   2.252   1.741   3.422
 1959SOL    HW1  928   2.161   1.782   3.420
 1959SOL    HW2  929   2.245   1.647   3.454
 1962SOL     OW  930   2.456   0.745   2.514
 1962SOL    HW1  931   2.506   0.830   2.495
 1962SOL    HW2  932   2.368   0.747   2.466
 1965SOL     OW  933   2.721   1.374   1.878
 1965SOL    HW1  934   2.675   1.389   1.966
 1965SOL    HW2  935   2.765   1.459   1.848
 1966SOL     OW  936   2.523   1.790   2.815
 1966SOL    HW1  937   2.477   1.878   2.802
 1966SOL    HW2  938   2.622   1.802   2.808
 1967SOL     OW  939   2.721   0.956   2.723
 1967SOL    HW1  940   2.775   0.887   2.771
 1967SOL    HW2  941   2.689   1.025   2.789
 1968SOL     OW  942   2.945   0.984   1.949
 1968SOL    HW1  943   2.922   1.037   1.867
 1968SOL    HW2  944   3.026   0.928   1.930
 1969SOL     OW  945   3.723   1.569   2.713
 1969SOL    HW1  946   3.652   1.557   2.643
 1969SOL    HW2  947   3.724   1.490   2.773
 1970SOL     OW  948   2.083   1.314   3.706
 1970SOL    HW1  949   2.018   1.241   3.685
 1970SOL    HW2  950   2.087   1.328   3.804
 1971SOL     OW  951   1.941   1.240   2.515
 1971SOL    HW1  952   1.940   1.193   2.603
 1971SOL    HW2  953   2.023   1.212   2.464
 1972SOL     OW  954   2.534   1.391   3.486
 1972SOL    HW1  955   2.456   1.341   3.524
 1972SOL    HW2  956   2.531   1.486   3.517
 1975SOL     OW  957   3.567   1.487   2.966
 1975SOL    HW1  958   3.474   1.462   2.939
 1975SOL    HW2  959   3.593   1.437   3.048
 1977SOL     OW  960   2.674   1.586   2.549
 1977SOL    HW1  961   2.706   1.596   2.455
 1977SOL    HW2  962   2.595   1.524   2.551
 1980SOL     OW  963   2.632   1.330   2.163
 1980SOL    HW1  964   2.586   1.243   2.180
 1980SOL    HW2  965   2.723   1.327   2.204
 1981SOL     OW  966   2.480   1.567   3.146
 1981SOL    HW1  967   2.475   1.649   3.203
 1981SOL    HW2  968   2.569   1.564   3.101
 1985SOL     OW  969   1.901   1.077   2.162
 1985SOL    HW1  970   2.000   1.066   2.153
 1985SOL    HW2  971   1.861   0.991   2.194
 1986SOL     OW  972   2.737   1.646   2.199
 1986SOL    HW1  973   2.660   1.611   2.145
 1986SOL    HW2  974   2.705   1.717   2.261
 2004SOL     OW  975   1.889   1.596   3.841
 2004SOL    HW1  976   1.870   1.500   3.862
 2004SOL    HW2  977   1.856   1.654   3.916
 2027SOL     OW  978   2.973   1.776   3.961
 2027SOL    HW1  979   2.913   1.714   4.011
 2027SOL    HW2  980   3.004   1.732   3.876
 2029SOL     OW  981   2.326   1.743   4.047
 2029SOL    HW1  982   2.359   1.782   4.133
 2029SOL    HW2  983   2.402   1.736   3.982
 2051SOL     OW  984   2.350   1.385   3.898
 2051SOL    HW1  985   2.263   1.370   3.945
 2051SOL    HW2  986   2.333   1.411   3.803
 2099SOL     OW  987   2.534   1.616   3.878
 2099SOL    HW1  988   2.543   1.626   3.779
 2099SOL    HW2  989   2.494   1.527   3.899
 2103SOL     OW  990   3.056   1.612   3.755
 2103SOL    HW1  991   3.062   1.519   3.792
 2103SOL    HW2  992   2.997   1.612   3.675
 2106SOL     OW  993   3.366   1.607   3.768
 2106SOL    HW1  994   3.274   1.644   3.775
 2106SOL    HW2  995   3.404   1.627   3.678
 2120SOL     OW  996   2.721   1.374   3.740
 2120SOL    HW1  997   2.675   1.389   3.828
 2120SOL    HW2  998   2.765   1.459   3.710
 2137SOL     OW  999   2.737   1.646   4.061
 2137SOL    HW1 1000   2.660   1.611   4.007
 2137SOL    HW2 1001   2.705   1.717   4.123
 2139SOL     OW 1002   2.087   2.137   0.996
 2139SOL    HW1 1003   2.122   2.120   1.088
 2139SOL    HW2 1004   1.999   2.092   0.984
 2141SOL     OW 1005   2.431   3.137   1.165
 2141SOL    HW1 1006   2.338   3.130   1.128
 2141SOL    HW2 1007   2.442   3.226   1.209
 2145SOL     OW 1008   2.630   3.006   1.023
 2145SOL    HW1 1009   2.552   3.023   1.083
 2145SOL    HW2 1010   2.664   3.093   0.987
 2146SOL     OW 1011   2.712   2.660   1.823
 2146SOL    HW1 1012   2.708   2.736   1.888
 2146SOL    HW2 1013   2.734   2.696   1.732
 2148SOL     OW 1014   2.548   3.023   1.803
 2148SOL    HW1 1015   2.608   3.102   1.817
 2148SOL    HW2 1016   2.462   3.054   1.762
 2149SOL     OW 1017   2.197   3.297   1.061
 2149SOL    HW1 1018   2.119   3.266   1.008
 2149SOL    HW2 1019   2.255   3.355   1.004
 2150SOL     OW 1020   3.322   3.367   1.339
 2150SOL    HW1 1021   3.346   3.461   1.365
 2150SOL    HW2 1022   3.306   3.313   1.421
 2151SOL     OW 1023   2.300   2.254   1.499
 2151SOL    HW1 1024   2.382   2.198   1.508
 2151SOL    HW2 1025   2.219   2.196   1.503
 2154SOL     OW 1026   2.989   3.203   1.690
 2154SOL    HW1 1027   3.036   3.203   1.778
 2154SOL    HW2 1028   2.941   3.116   1.679
 2156SOL     OW 1029   2.102   2.953   0.886
 2156SOL    HW1 1030   2.116   2.869   0.938
 2156SOL    HW2 1031   2.047   3.017   0.941
 2157SOL     OW 1032   2.482   3.648   1.439
 2157SOL    HW1 1033   2.390   3.631   1.474
 2157SOL    HW2 1034   2.510   3.740   1.465
 2159SOL     OW 1035   3.456   1.976   1.480
 2159SOL    HW1 1036   3.438   2.043   1.408
 2159SOL    HW2 1037   3.453   2.022   1.569
 2165SOL     OW 1038   1.975   2.599   1.597
 2165SOL    HW1 1039   2.063   2.586   1.642
 2165SOL    HW2 1040   1.962   2.696   1.575
 2167SOL     OW 1041   3.155   3.090   1.423
 2167SOL    HW1 1042   3.192   3.017   1.365
 2167SOL    HW2 1043   3.207   3.095   1.508
 2169SOL     OW 1044   2.059   2.838   1.264
 2169SOL    HW1 1045   2.148   2.793   1.250
 2169SOL    HW2 1046   1.986   2.773   1.245
 2171SOL     OW 1047   3.049   3.654   1.616
 2171SOL    HW1 1048   3.073   3.714   1.540
 2171SOL    HW2 1049   3.056   3.559   1.586
 2172SOL     OW 1050   2.179   2.113   1.801
 2172SOL    HW1 1051   2.250   2.184   1.807
 2172SOL    HW2 1052   2.091   2.152   1.829
 2176SOL     OW 1053   3.143   2.207   0.944
 2176SOL    HW1 1054   3.057   2.157   0.931
 2176SOL    HW2 1055   3.205   2.153   1.000
 2178SOL     OW 1056   2.669   2.467   1.465
 2178SOL    HW1 1057   2.622   2.464   1.554
 2178SOL    HW2 1058   2.618   2.412   1.399
 2179SOL     OW 1059   3.256   2.331   1.674
 2179SOL    HW1 1060   3.236   2.374   1.762
 2179SOL    HW2 1061   3.334   2.269   1.683
 2180SOL     OW 1062   2.835   2.752   1.572
 2180SOL    HW1 1063   2.881   2.668   1.543
 2180SOL    HW2 1064   2.779   2.786   1.497
 2181SOL     OW 1065   2.853   2.272   1.242
 2181SOL    HW1 1066   2.776   2.306   1.296
 2181SOL    HW2 1067   2.819   2.221   1.163
 2184SOL     OW 1068   1.992   3.683   1.571
 2184SOL    HW1 1069   1.982   3.668   1.670
 2184SOL    HW2 1070   1.906   3.719   1.535
 2186SOL     OW 1071   3.581   2.447   1.831
 2186SOL    HW1 1072   3.555   2.536   1.795
 2186SOL    HW2 1073   3.579   2.379   1.758
 2188SOL     OW 1074   2.412   2.058   0.885
 2188SOL    HW1 1075   2.407   2.053   0.985
 2188SOL    HW2 1076   2.414   2.154   0.856
 2192SOL     OW 1077   3.089   3.412   1.506
 2192SOL    HW1 1078   3.095   3.335   1.570
 2192SOL    HW2 1079   3.037   3.386   1.426
 2195SOL     OW 1080   2.323   3.128   1.727
 2195SOL    HW1 1081   2.273   3.129   1.641
 2195SOL    HW2 1082   2.260   3.110   1.803
 2197SOL     OW 1083   2.064   2.147   1.498
 2197SOL    HW1 1084   1.984   2.207   1.485
 2197SOL    HW2 1085   2.054   2.098   1.584
 2201SOL     OW 1086   2.111   3.647   1.241
 2201SOL    HW1 1087   2.168   3.582   1.291
 2201SOL    HW2 1088   2.095   3.614   1.148
 2204SOL     OW 1089   3.409   2.084   1.729
 2204SOL    HW1 1090   3.404   2.121   1.821
 2204SOL    HW2 1091   3.337   2.015   1.717
 2206SOL     OW 1092   2.643   2.126   1.749
 2206SOL    HW1 1093   2.710   2.065   1.792
 2206SOL    HW2 1094   2.570   2.145   1.814
 2207SOL     OW 1095   2.750   3.376   1.195
 2207SOL    HW1 1096   2.727   3.351   1.101
 2207SOL    HW2 1097   2.811   3.307   1.234
 2208SOL     OW 1098   3.213   2.452   1.433
 2208SOL    HW1 1099   3.241   2.409   1.518
 2208SOL    HW2 1100   3.238   2.548   1.434
 2209SOL     OW 1101   2.665   3.264   0.924
 2209SOL    HW1 1102   2.755   3.278   0.882
 2209SOL    HW2 1103   2.594   3.266   0.853
 2210SOL     OW 1104   2.784   2.365   0.899
 2210SOL    HW1 1105   2.759   2.356   0.803
 2210SOL    HW2 1106   2.832   2.283   0.930
 2215SOL     OW 1107   2.938   2.545   1.464
 2215SOL    HW1 1108   2.858   2.484   1.467
 2215SOL    HW2 1109   3.019   2.492   1.440
 2220SOL     OW 1110   1.940   2.418   1.386
 2220SOL    HW1 1111   2.032   2.417   1.345
 2220SOL    HW2 1112   1.934   2.492   1.453
 2221SOL     OW 1113   2.423   2.084   1.147
 2221SOL    HW1 1114   2.461   2.000   1.184
 2221SOL    HW2 1115   2.335   2.103   1.191
 2225SOL     OW 1116   3.328   2.452   0.992
 2225SOL    HW1 1117   3.298   2.357   0.999
 2225SOL    HW2 1118   3.401   2.468   1.058
 2231SOL     OW 1119   3.616   3.085   1.588
 2231SOL    HW1 1120   3.707   3.046   1.575
 2231SOL    HW2 1121   3.624   3.181   1.612
 2232SOL     OW 1122   2.926   3.209   1.340
 2232SOL    HW1 1123   2.846   3.186   1.395
 2232SOL    HW2 1124   3.009   3.183   1.389
 2233SOL     OW 1125   3.454   3.491   1.625
 2233SOL    HW1 1126   3.481   3.525   1.535
 2233SOL    HW2 1127   3.533   3.453   1.671
 2234SOL     OW 1128   2.973   3.057   1.100
 2234SOL    HW1 1129   2.933   3.101   1.181
 2234SOL    HW2 1130   2.932   3.094   1.017
 2235SOL     OW 1131   3.500   2.961   1.079
 2235SOL    HW1 1132   3.505   3.042   1.138
 2235SOL    HW2 1133   3.414   2.963   1.028
 2236SOL     OW 1134   2.777   1.951   1.402
 2236SOL    HW1 1135   2.802   1.931   1.307
 2236SOL    HW2 1136   2.849   2.007   1.444
 2237SOL     OW 1137   2.842   2.978   1.719
 2237SOL    HW1 1138   2.743   2.984   1.729
 2237SOL    HW2 1139   2.865   2.898   1.663
 2239SOL     OW 1140   2.272   2.675   1.251
 2239SOL    HW1 1141   2.358   2.687   1.301
 2239SOL    HW2 1142   2.230   2.588   1.278
 2240SOL     OW 1143   3.136   2.248   1.262
 2240SOL    HW1 1144   3.157   2.322   1.326
 2240SOL    HW2 1145   3.047   2.265   1.219
 2241SOL     OW 1146   1.926   3.426   1.331
 2241SOL    HW1 1147   1.880   3.508   1.297
 2241SOL    HW2 1148   2.024   3.445   1.340
 2243SOL     OW 1149   2.428   2.399   0.865
 2243SOL    HW1 1150   2.440   2.465   0.791
 2243SOL    HW2 1151   2.474   2.433   0.948
 2245SOL     OW 1152   3.134   3.307   1.142
 2245SOL    HW1 1153   3.181   3.320   1.229
 2245SOL    HW2 1154   3.068   3.233   1.151
 2247SOL     OW 1155   2.216   3.372   1.329
 2247SOL    HW1 1156   2.195   3.328   1.242
 2247SOL    HW2 1157   2.313   3.398   1.332
 2248SOL     OW 1158   2.264   2.613   1.598
 2248SOL    HW1 1159   2.332   2.668   1.551
 2248SOL    HW2 1160   2.304   2.525   1.625
 2249SOL     OW 1161   3.449   2.641   1.670
 2249SOL    HW1 1162   3.357   2.679   1.665
 2249SOL    HW2 1163   3.509   2.688   1.605
 2250SOL     OW 1164   2.875   1.967   1.770
 2250SOL    HW1 1165   2.881   2.052   1.718
 2250SOL    HW2 1166   2.907   1.891   1.713
 2251SOL     OW 1167   2.366   1.912   1.740
 2251SOL    HW1 1168   2.324   1.855   1.670
 2251SOL    HW2 1169   2.300   1.981   1.772
 2252SOL     OW 1170   2.435   2.732   1.029
 2252SOL    HW1 1171   2.479   2.821   1.020
 2252SOL    HW2 1172   2.372   2.732   1.106
 2253SOL     OW 1173   3.222   2.724   1.045
 2253SOL    HW1 1174   3.147   2.724   0.979
 2253SOL    HW2 1175   3.259   2.632   1.054
 2255SOL     OW 1176   2.169   2.075   1.231
 2255SOL    HW1 1177   2.146   2.112   1.321
 2255SOL    HW2 1178   2.139   1.980   1.225
 2256SOL     OW 1179   1.899   3.172   1.282
 2256SOL    HW1 1180   1.952   3.123   1.350
 2256SOL    HW2 1181   1.921   3.270   1.287
 2257SOL     OW 1182   2.594   2.496   1.064
 2257SOL    HW1 1183   2.653   2.470   0.988
 2257SOL    HW2 1184   2.566   2.592   1.053
 2258SOL     OW 1185   3.590   2.797   1.854
 2258SOL    HW1 1186   3.544   2.790   1.765
 2258SOL    HW2 1187   3.528   2.841   1.920
 2261SOL     OW 1188   2.885   2.628   0.966
 2261SOL    HW1 1189   2.900   2.649   1.062
 2261SOL    HW2 1190   2.855   2.533   0.957
 2262SOL     OW 1191   2.842   3.435   1.700
 2262SOL    HW1 1192   2.822   3.479   1.612
 2262SOL    HW2 1193   2.881   3.344   1.684
 2263SOL     OW 1194   3.721   3.380   1.605
 2263SOL    HW1 1195   3.735   3.407   1.510
 2263SOL    HW2 1196   3.804   3.402   1.658
 2264SOL     OW 1197   2.212   2.760   1.804
 2264SOL    HW1 1198   2.288   2.804   1.852
 2264SOL    HW2 1199   2.247   2.713   1.722
 2268SOL     OW 1200   2.181   2.672   0.949
 2268SOL    HW1 1201   2.274   2.708   0.954
 2268SOL    HW2 1202   2.175   2.587   1.001
 2269SOL     OW 1203   2.201   2.371   1.006
 2269SOL    HW1 1204   2.149   2.288   0.989
 2269SOL    HW2 1205   2.278   2.376   0.942
 2270SOL     OW 1206   3.000   2.242   1.678
 2270SOL    HW1 1207   2.955   2.305   1.742
 2270SOL    HW2 1208   3.093   2.273   1.661
 2271SOL     OW 1209   3.022   2.069   1.477
 2271SOL    HW1 1210   3.022   2.133   1.554
 2271SOL    HW2 1211   3.050   2.117   1.394
 2274SOL     OW 1212   2.864   2.658   1.238
 2274SOL    HW1 1213   2.905   2.626   1.324
 2274SOL    HW2 1214   2.768   2.631   1.235
 2275SOL     OW 1215   1.902   2.406   1.114
 2275SOL    HW1 1216   1.987   2.373   1.073
 2275SOL    HW2 1217   1.915   2.421   1.212
 2276SOL     OW 1218   2.051   2.382   1.722
 2276SOL    HW1 1219   2.110   2.342   1.652
 2276SOL    HW2 1220   1.993   2.453   1.681
 2277SOL     OW 1221   3.231   2.812   1.660
 2277SOL    HW1 1222   3.270   2.901   1.680
 2277SOL    HW2 1223   3.241   2.792   1.563
 2279SOL     OW 1224   3.519   2.466   1.206
 2279SOL    HW1 1225   3.481   2.397   1.268
 2279SOL    HW2 1226   3.601   2.430   1.162
 2280SOL     OW 1227   2.114   3.426   1.744
 2280SOL    HW1 1228   2.084   3.483   1.820
 2280SOL    HW2 1229   2.107   3.329   1.770
 2281SOL     OW 1230   2.533   2.326   1.269
 2281SOL    HW1 1231   2.499   2.237   1.239
 2281SOL    HW2 1232   2.559   2.380   1.189
 2282SOL     OW 1233   2.792   3.540   1.465
 2282SOL    HW1 1234   2.768   3.522   1.370
 2282SOL    HW2 1235   2.822   3.634   1.475
 2284SOL     OW 1236   2.021   2.999   1.466
 2284SOL    HW1 1237   2.043   2.938   1.542
 2284SOL    HW2 1238   2.031   2.950   1.380
 2285SOL     OW 1239   3.209   2.921   1.234
 2285SOL    HW1 1240   3.233   2.858   1.160
 2285SOL    HW2 1241   3.119   2.961   1.216
 2289SOL     OW 1242   1.945   3.120   1.022
 2289SOL    HW1 1243   1.940   3.119   1.122
 2289SOL    HW2 1244   1.862   3.079   0.984
 2290SOL     OW 1245   2.550   3.524   1.716
 2290SOL    HW1 1246   2.494   3.605   1.725
 2290SOL    HW2 1247   2.602   3.528   1.630
 2294SOL     OW 1248   1.992   3.656   1.851
 2294SOL    HW1 1249   1.951   3.582   1.904
 2294SOL    HW2 1250   2.056   3.707   1.909
 2296SOL     OW 1251   2.692   3.135   1.422
 2296SOL    HW1 1252   2.687   3.168   1.517
 2296SOL    HW2 1253   2.606   3.154   1.376
 2302SOL     OW 1254   2.684   2.864   1.372
 2302SOL    HW1 1255   2.724   2.863   1.280
 2302SOL    HW2 1256   2.694   2.956   1.412
 2305SOL     OW 1257   2.234   3.150   1.490
 2305SOL    HW1 1258   2.221   3.243   1.456
 2305SOL    HW2 1259   2.150   3.098   1.477
 2306SOL     OW 1260   3.476   3.154   1.289
 2306SOL    HW1 1261   3.536   3.157   1.369
 2306SOL    HW2 1262   3.401   3.218   1.302
 2308SOL     OW 1263   2.876   2.098   0.971
 2308SOL    HW1 1264   2.868   2.062   0.878
 2308SOL    HW2 1265   2.874   2.022   1.036
 2310SOL     OW 1266   3.571   2.247   1.381
 2310SOL    HW1 1267   3.644   2.316   1.385
 2310SOL    HW2 1268   3.599   2.172   1.322
 2312SOL     OW 1269   1.967   2.875   1.726
 2312SOL    HW1 1270   1.890   2.842   1.780
 2312SOL    HW2 1271   2.052   2.845   1.768
 2313SOL     OW 1272   2.534   2.065   1.489
 2313SOL    HW1 1273   2.624   2.049   1.449
 2313SOL    HW2 1274   2.542   2.070   1.588
 2314SOL     OW 1275   3.302   2.718   1.398
 2314SOL    HW1 1276   3.245   2.770   1.335
 2314SOL    HW2 1277   3.398   2.730   1.374
 2317SOL     OW 1278   2.475   2.704   1.431
 2317SOL    HW1 1279   2.531   2.785   1.414
 2317SOL    HW2 1280   2.534   2.624   1.434
 2319SOL     OW 1281   2.578   2.427   1.708
 2319SOL    HW1 1282   2.597   2.492   1.782
 2319SOL    HW2 1283   2.638   2.347   1.717
 2320SOL     OW 1284   3.312   3.082   1.633
 2320SOL    HW1 1285   3.303   3.072   1.732
 2320SOL    HW2 1286   3.408   3.075   1.607
 2321SOL     OW 1287   2.252   3.603   1.560
 2321SOL    HW1 1288   2.161   3.644   1.558
 2321SOL    HW2 1289   2.245   3.509   1.592
 2322SOL     OW 1290   3.536   2.745   1.254
 2322SOL    HW1 1291   3.509   2.656   1.217
 2322SOL    HW2 1292   3.537   2.813   1.181
 2325SOL     OW 1293   3.639   2.204   1.642
 2325SOL    HW1 1294   3.622   2.235   1.548
 2325SOL    HW2 1295   3.555   2.167   1.680
 2326SOL     OW 1296   3.592   2.796   1.517
 2326SOL    HW1 1297   3.630   2.887   1.532
 2326SOL    HW2 1298   3.584   2.779   1.418
 2329SOL     OW 1299   2.721   2.818   0.861
 2329SOL    HW1 1300   2.775   2.749   0.909
 2329SOL    HW2 1301   2.689   2.887   0.927
 2332SOL     OW 1302   2.083   3.176   1.844
 2332SOL    HW1 1303   2.018   3.103   1.823
 2332SOL    HW2 1304   2.087   3.190   1.942
 2334SOL     OW 1305   2.534   3.253   1.624
 2334SOL    HW1 1306   2.456   3.203   1.662
 2334SOL    HW2 1307   2.531   3.348   1.655
 2338SOL     OW 1308   2.179   2.409   1.280
 2338SOL    HW1 1309   2.217   2.350   1.352
 2338SOL    HW2 1310   2.219   2.383   1.192
 2340SOL     OW 1311   3.286   2.076   1.112
 2340SOL    HW1 1312   3.338   2.011   1.167
 2340SOL    HW2 1313   3.237   2.139   1.173
 2341SOL     OW 1314   2.863   1.896   1.154
 2341SOL    HW1 1315   2.800   1.824   1.123
 2341SOL    HW2 1316   2.956   1.860   1.154
 2343SOL     OW 1317   2.480   3.429   1.284
 2343SOL    HW1 1318   2.475   3.511   1.341
 2343SOL    HW2 1319   2.569   3.426   1.239
 2349SOL     OW 1320   2.092   2.490   1.975
 2349SOL    HW1 1321   1.999   2.488   2.012
 2349SOL    HW2 1322   2.093   2.451   1.883
 2350SOL     OW 1323   2.087   2.137   2.858
 2350SOL    HW1 1324   2.122   2.120   2.950
 2350SOL    HW2 1325   1.999   2.092   2.846
 2351SOL     OW 1326   1.881   2.230   2.509
 2351SOL    HW1 1327   1.799   2.273   2.548
 2351SOL    HW2 1328   1.853   2.157   2.446
 2352SOL     OW 1329   2.431   3.137   3.027
 2352SOL    HW1 1330   2.338   3.130   2.990
 2352SOL    HW2 1331   2.442   3.226   3.071
 2353SOL     OW 1332   3.417   3.373   2.565
 2353SOL    HW1 1333   3.360   3.357   2.646
 2353SOL    HW2 1334   3.358   3.383   2.485
 2354SOL     OW 1335   3.617   2.469   2.093
 2354SOL    HW1 1336   3.605   2.456   1.994
 2354SOL    HW2 1337   3.587   2.388   2.142
 2355SOL     OW 1338   2.630   3.006   2.885
 2355SOL    HW1 1339   2.552   3.023   2.945
 2355SOL    HW2 1340   2.664   3.093   2.849
 2356SOL     OW 1341   2.712   2.660   3.685
 2356SOL    HW1 1342   2.708   2.736   3.750
 2356SOL    HW2 1343   2.734   2.696   3.594
 2357SOL     OW 1344   2.547   2.874   2.527
 2357SOL    HW1 1345   2.616   2.858   2.597
 2357SOL    HW2 1346   2.474   2.931   2.565
 2358SOL     OW 1347   2.548   3.023   3.665
 2358SOL    HW1 1348   2.608   3.102   3.679
 2358SOL    HW2 1349   2.462   3.054   3.624
 2359SOL     OW 1350   2.197   3.297   2.923
 2359SOL    HW1 1351   2.119   3.266   2.870
 2359SOL    HW2 1352   2.255   3.355   2.866
 2360SOL     OW 1353   3.322   3.367   3.201
 2360SOL    HW1 1354   3.346   3.461   3.227
 2360SOL    HW2 1355   3.306   3.313   3.283
 2361SOL     OW 1356   2.300   2.254   3.361
 2361SOL    HW1 1357   2.382   2.198   3.370
 2361SOL    HW2 1358   2.219   2.196   3.365
 2362SOL     OW 1359   3.465   2.309   2.599
 2362SOL    HW1 1360   3.391   2.355   2.549
 2362SOL    HW2 1361   3.516   2.377   2.652
 2363SOL     OW 1362   2.093   3.575   2.345
 2363SOL    HW1 1363   2.127   3.652   2.399
 2363SOL    HW2 1364   2.137   3.575   2.255
 2364SOL     OW 1365   2.989   3.203   3.552
 2364SOL    HW1 1366   3.036   3.203   3.640
 2364SOL    HW2 1367   2.941   3.116   3.541
 2365SOL     OW 1368   2.092   3.296   2.400
 2365SOL    HW1 1369   2.066   3.392   2.400
 2365SOL    HW2 1370   2.021   3.242   2.445
 2366SOL     OW 1371   2.482   3.648   3.301
 2366SOL    HW1 1372   2.390   3.631   3.336
 2366SOL    HW2 1373   2.510   3.740   3.327
 2367SOL     OW 1374   2.468   2.826   1.985
 2367SOL    HW1 1375   2.475   2.910   1.931
 2367SOL    HW2 1376   2.514   2.839   2.073
 2368SOL     OW 1377   3.456   1.976   3.342
 2368SOL    HW1 1378   3.438   2.043   3.270
 2368SOL    HW2 1379   3.453   2.022   3.431
 2369SOL     OW 1380   1.984   2.505   2.425
 2369SOL    HW1 1381   1.939   2.417   2.442
 2369SOL    HW2 1382   1.983   2.559   2.509
 2370SOL     OW 1383   3.704   3.629   2.221
 2370SOL    HW1 1384   3.758   3.600   2.301
 2370SOL    HW2 1385   3.734   3.719   2.192
 2371SOL     OW 1386   1.889   3.458   1.979
 2371SOL    HW1 1387   1.870   3.362   2.000
 2371SOL    HW2 1388   1.856   3.516   2.054
 2372SOL     OW 1389   3.551   2.784   2.474
 2372SOL    HW1 1390   3.646   2.755   2.482
 2372SOL    HW2 1391   3.543   2.849   2.399
 2373SOL     OW 1392   3.503   2.970   2.294
 2373SOL    HW1 1393   3.589   2.972   2.242
 2373SOL    HW2 1394   3.517   3.017   2.382
 2374SOL     OW 1395   1.975   2.599   3.459
 2374SOL    HW1 1396   2.063   2.586   3.504
 2374SOL    HW2 1397   1.962   2.696   3.437
 2375SOL     OW 1398   2.475   3.227   2.588
 2375SOL    HW1 1399   2.426   3.140   2.597
 2375SOL    HW2 1400   2.452   3.270   2.501
 2376SOL     OW 1401   3.155   3.090   3.285
 2376SOL    HW1 1402   3.192   3.017   3.227
 2376SOL    HW2 1403   3.207   3.095   3.370
 2377SOL     OW 1404   2.671   1.866   2.364
 2377SOL    HW1 1405   2.711   1.957   2.355
 2377SOL    HW2 1406   2.571   1.874   2.370
 2378SOL     OW 1407   2.059   2.838   3.126
 2378SOL    HW1 1408   2.148   2.793   3.112
 2378SOL    HW2 1409   1.986   2.773   3.107
 2379SOL     OW 1410   3.387   2.861   2.052
 2379SOL    HW1 1411   3.324   2.785   2.065
 2379SOL    HW2 1412   3.435   2.879   2.138
 2380SOL     OW 1413   3.049   3.654   3.478
 2380SOL    HW1 1414   3.073   3.714   3.402
 2380SOL    HW2 1415   3.056   3.559   3.448
 2381SOL     OW 1416   2.179   2.113   3.663
 2381SOL    HW1 1417   2.250   2.184   3.669
 2381SOL    HW2 1418   2.091   2.152   3.691
 2382SOL     OW 1419   3.328   3.279   2.815
 2382SOL    HW1 1420   3.269   3.285   2.895
 2382SOL    HW2 1421   3.313   3.191   2.769
 2383SOL     OW 1422   3.529   3.576   2.434
 2383SOL    HW1 1423   3.488   3.553   2.346
 2383SOL    HW2 1424   3.511   3.502   2.499
 2384SOL     OW 1425   3.143   2.207   2.806
 2384SOL    HW1 1426   3.057   2.157   2.793
 2384SOL    HW2 1427   3.205   2.153   2.862
 2385SOL     OW 1428   3.438   3.524   2.169
 2385SOL    HW1 1429   3.527   3.570   2.172
 2385SOL    HW2 1430   3.417   3.500   2.074
 2386SOL     OW 1431   2.669   2.467   3.327
 2386SOL    HW1 1432   2.622   2.464   3.416
 2386SOL    HW2 1433   2.618   2.412   3.261
 2387SOL     OW 1434   3.256   2.331   3.536
 2387SOL    HW1 1435   3.236   2.374   3.624
 2387SOL    HW2 1436   3.334   2.269   3.545
 2388SOL     OW 1437   2.835   2.752   3.434
 2388SOL    HW1 1438   2.881   2.668   3.405
 2388SOL    HW2 1439   2.779   2.786   3.359
 2389SOL     OW 1440   2.853   2.272   3.104
 2389SOL    HW1 1441   2.776   2.306   3.158
 2389SOL    HW2 1442   2.819   2.221   3.025
 2390SOL     OW 1443   2.903   2.563   2.291
 2390SOL    HW1 1444   2.929   2.559   2.387
 2390SOL    HW2 1445   2.818   2.512   2.277
 2391SOL     OW 1446   1.938   2.673   2.651
 2391SOL    HW1 1447   2.037   2.661   2.660
 2391SOL    HW2 1448   1.914   2.768   2.672
 2392SOL     OW 1449   1.992   3.683   3.433
 2392SOL    HW1 1450   1.982   3.668   3.532
 2392SOL    HW2 1451   1.906   3.719   3.397
 2393SOL     OW 1452   3.581   2.447   3.693
 2393SOL    HW1 1453   3.555   2.536   3.657
 2393SOL    HW2 1454   3.579   2.379   3.620
 2394SOL     OW 1455   3.224   3.006   2.407
 2394SOL    HW1 1456   3.307   2.977   2.359
 2394SOL    HW2 1457   3.175   3.073   2.351
 2395SOL     OW 1458   2.412   2.058   2.747
 2395SOL    HW1 1459   2.407   2.053   2.847
 2395SOL    HW2 1460   2.414   2.154   2.718
 2396SOL     OW 1461   2.870   3.318   2.339
 2396SOL    HW1 1462   2.824   3.390   2.287
 2396SOL    HW2 1463   2.866   3.338   2.437
 2397SOL     OW 1464   2.213   3.663   2.715
 2397SOL    HW1 1465   2.263   3.577   2.721
 2397SOL    HW2 1466   2.278   3.740   2.712
 2398SOL     OW 1467   3.657   2.928   2.735
 2398SOL    HW1 1468   3.595   2.913   2.659
 2398SOL    HW2 1469   3.605   2.939   2.820
 2399SOL     OW 1470   3.089   3.412   3.368
 2399SOL    HW1 1471   3.095   3.335   3.432
 2399SOL    HW2 1472   3.037   3.386   3.288
 2400SOL     OW 1473   2.183   2.805   2.104
 2400SOL    HW1 1474   2.265   2.844   2.062
 2400SOL    HW2 1475   2.156   2.723   2.055
 2401SOL     OW 1476   3.320   2.597   2.590
 2401SOL    HW1 1477   3.315   2.532   2.665
 2401SOL    HW2 1478   3.400   2.656   2.603
 2402SOL     OW 1479   2.323   3.128   3.589
 2402SOL    HW1 1480   2.273   3.129   3.503
 2402SOL    HW2 1481   2.260   3.110   3.665
 2403SOL     OW 1482   2.973   3.638   2.099
 2403SOL    HW1 1483   2.913   3.576   2.149
 2403SOL    HW2 1484   3.004   3.594   2.014
 2404SOL     OW 1485   2.064   2.147   3.360
 2404SOL    HW1 1486   1.984   2.207   3.347
 2404SOL    HW2 1487   2.054   2.098   3.446
 2405SOL     OW 1488   3.494   3.239   1.943
 2405SOL    HW1 1489   3.462   3.333   1.933
 2405SOL    HW2 1490   3.418   3.176   1.931
 2406SOL     OW 1491   2.326   3.605   2.185
 2406SOL    HW1 1492   2.359   3.644   2.271
 2406SOL    HW2 1493   2.402   3.598   2.120
 2407SOL     OW 1494   3.262   1.969   2.288
 2407SOL    HW1 1495   3.238   1.932   2.198
 2407SOL    HW2 1496   3.361   1.985   2.292
 2408SOL     OW 1497   2.111   3.647   3.103
 2408SOL    HW1 1498   2.168   3.582   3.153
 2408SOL    HW2 1499   2.095   3.614   3.010
 2409SOL     OW 1500   2.802   3.560   2.766
 2409SOL    HW1 1501   2.882   3.503   2.787
 2409SOL    HW2 1502   2.753   3.520   2.689
 2410SOL     OW 1503   2.244   2.562   2.342
 2410SOL    HW1 1504   2.289   2.472   2.339
 2410SOL    HW2 1505   2.150   2.551   2.375
 2411SOL     OW 1506   3.409   2.084   3.591
 2411SOL    HW1 1507   3.404   2.121   3.683
 2411SOL    HW2 1508   3.337   2.015   3.579
 2412SOL     OW 1509   2.476   1.984   1.979
 2412SOL    HW1 1510   2.574   1.962   1.986
 2412SOL    HW2 1511   2.445   1.967   1.886
 2413SOL     OW 1512   2.643   2.126   3.611
 2413SOL    HW1 1513   2.710   2.065   3.654
 2413SOL    HW2 1514   2.570   2.145   3.676
 2414SOL     OW 1515   2.750   3.376   3.057
 2414SOL    HW1 1516   2.727   3.351   2.963
 2414SOL    HW2 1517   2.811   3.307   3.096
 2415SOL     OW 1518   3.213   2.452   3.295
 2415SOL    HW1 1519   3.241   2.409   3.380
 2415SOL    HW2 1520   3.238   2.548   3.296
 2416SOL     OW 1521   2.665   3.264   2.786
 2416SOL    HW1 1522   2.755   3.278   2.744
 2416SOL    HW2 1523   2.594   3.266   2.715
 2417SOL     OW 1524   2.401   1.926   2.374
 2417SOL    HW1 1525   2.320   1.927   2.432
 2417SOL    HW2 1526   2.404   2.009   2.319
 2418SOL     OW 1527   3.296   3.050   1.903
 2418SOL    HW1 1528   3.328   2.974   1.960
 2418SOL    HW2 1529   3.204   3.077   1.933
 2419SOL     OW 1530   2.159   1.897   2.033
 2419SOL    HW1 1531   2.208   1.981   2.012
 2419SOL    HW2 1532   2.221   1.832   2.078
 2420SOL     OW 1533   2.938   2.545   3.326
 2420SOL    HW1 1534   2.858   2.484   3.329
 2420SOL    HW2 1535   3.019   2.492   3.302
 2421SOL     OW 1536   3.089   3.432   2.655
 2421SOL    HW1 1537   3.110   3.506   2.590
 2421SOL    HW2 1538   3.157   3.432   2.728
 2422SOL     OW 1539   3.133   3.659   2.453
 2422SOL    HW1 1540   3.177   3.723   2.389
 2422SOL    HW2 1541   3.083   3.711   2.523
 2423SOL     OW 1542   2.894   2.411   1.878
 2423SOL    HW1 1543   2.853   2.493   1.839
 2423SOL    HW2 1544   2.958   2.437   1.951
 2424SOL     OW 1545   1.940   2.418   3.248
 2424SOL    HW1 1546   2.032   2.417   3.207
 2424SOL    HW2 1547   1.934   2.492   3.315
 2425SOL     OW 1548   2.423   2.084   3.009
 2425SOL    HW1 1549   2.461   2.000   3.046
 2425SOL    HW2 1550   2.335   2.103   3.053
 2426SOL     OW 1551   2.879   1.901   2.615
 2426SOL    HW1 1552   2.807   1.906   2.546
 2426SOL    HW2 1553   2.855   1.832   2.684
 2427SOL     OW 1554   3.291   3.035   2.729
 2427SOL    HW1 1555   3.236   2.951   2.722
 2427SOL    HW2 1556   3.317   3.064   2.637
 2428SOL     OW 1557   3.328   2.452   2.854
 2428SOL    HW1 1558   3.298   2.357   2.861
 2428SOL    HW2 1559   3.401   2.468   2.920
 2429SOL     OW 1560   3.719   2.695   2.239
 2429SOL    HW1 1561   3.761   2.631   2.303
 2429SOL    HW2 1562   3.681   2.644   2.161
 2430SOL     OW 1563   2.350   3.247   2.036
 2430SOL    HW1 1564   2.263   3.232   2.083
 2430SOL    HW2 1565   2.333   3.273   1.941
 2431SOL     OW 1566   3.526   3.142   2.519
 2431SOL    HW1 1567   3.625   3.150   2.533
 2431SOL    HW2 1568   3.481   3.226   2.550
 2432SOL     OW 1569   3.252   2.437   1.940
 2432SOL    HW1 1570   3.198   2.416   2.021
 2432SOL    HW2 1571   3.343   2.396   1.949
 2433SOL     OW 1572   2.389   2.118   2.190
 2433SOL    HW1 1573   2.416   2.059   2.115
 2433SOL    HW2 1574   2.389   2.213   2.159
 2434SOL     OW 1575   3.616   3.085   3.450
 2434SOL    HW1 1576   3.707   3.046   3.437
 2434SOL    HW2 1577   3.624   3.181   3.474
 2435SOL     OW 1578   2.926   3.209   3.202
 2435SOL    HW1 1579   2.846   3.186   3.257
 2435SOL    HW2 1580   3.009   3.183   3.251
 2436SOL     OW 1581   3.454   3.491   3.487
 2436SOL    HW1 1582   3.481   3.525   3.397
 2436SOL    HW2 1583   3.533   3.453   3.533
 2437SOL     OW 1584   2.973   3.057   2.962
 2437SOL    HW1 1585   2.933   3.101   3.043
 2437SOL    HW2 1586   2.932   3.094   2.879
 2438SOL     OW 1587   3.500   2.961   2.941
 2438SOL    HW1 1588   3.505   3.042   3.000
 2438SOL    HW2 1589   3.414   2.963   2.890
 2439SOL     OW 1590   2.777   1.951   3.264
 2439SOL    HW1 1591   2.802   1.931   3.169
 2439SOL    HW2 1592   2.849   2.007   3.306
 2440SOL     OW 1593   2.842   2.978   3.581
 2440SOL    HW1 1594   2.743   2.984   3.591
 2440SOL    HW2 1595   2.865   2.898   3.525
 2441SOL     OW 1596   2.567   2.912   2.230
 2441SOL    HW1 1597   2.553   2.919   2.329
 2441SOL    HW2 1598   2.651   2.861   2.212
 2442SOL     OW 1599   2.272   2.675   3.113
 2442SOL    HW1 1600   2.358   2.687   3.163
 2442SOL    HW2 1601   2.230   2.588   3.140
 2443SOL     OW 1602   3.136   2.248   3.124
 2443SOL    HW1 1603   3.157   2.322   3.188
 2443SOL    HW2 1604   3.047   2.265   3.081
 2444SOL     OW 1605   1.926   3.426   3.193
 2444SOL    HW1 1606   1.880   3.508   3.159
 2444SOL    HW2 1607   2.024   3.445   3.202
 2445SOL     OW 1608   3.114   3.210   2.250
 2445SOL    HW1 1609   3.164   3.287   2.290
 2445SOL    HW2 1610   3.019   3.212   2.282
 2446SOL     OW 1611   3.134   3.307   3.004
 2446SOL    HW1 1612   3.181   3.320   3.091
 2446SOL    HW2 1613   3.068   3.233   3.013
 2447SOL     OW 1614   3.444   2.501   2.334
 2447SOL    HW1 1615   3.413   2.562   2.407
 2447SOL    HW2 1616   3.494   2.553   2.265
 2448SOL     OW 1617   2.216   3.372   3.191
 2448SOL    HW1 1618   2.195   3.328   3.104
 2448SOL    HW2 1619   2.313   3.398   3.194
 2449SOL     OW 1620   2.264   2.613   3.460
 2449SOL    HW1 1621   2.332   2.668   3.413
 2449SOL    HW2 1622   2.304   2.525   3.487
 2450SOL     OW 1623   3.449   2.641   3.532
 2450SOL    HW1 1624   3.357   2.679   3.527
 2450SOL    HW2 1625   3.509   2.688   3.467
 2451SOL     OW 1626   2.875   1.967   3.632
 2451SOL    HW1 1627   2.881   2.052   3.580
 2451SOL    HW2 1628   2.907   1.891   3.575
 2452SOL     OW 1629   2.366   1.912   3.602
 2452SOL    HW1 1630   2.324   1.855   3.532
 2452SOL    HW2 1631   2.300   1.981   3.634
 2453SOL     OW 1632   3.222   2.724   2.907
 2453SOL    HW1 1633   3.147   2.724   2.841
 2453SOL    HW2 1634   3.259   2.632   2.916
 2454SOL     OW 1635   3.071   2.387   2.137
 2454SOL    HW1 1636   3.084   2.303   2.191
 2454SOL    HW2 1637   3.042   2.461   2.197
 2455SOL     OW 1638   2.169   2.075   3.093
 2455SOL    HW1 1639   2.146   2.112   3.183
 2455SOL    HW2 1640   2.139   1.980   3.087
 2456SOL     OW 1641   1.899   3.172   3.144
 2456SOL    HW1 1642   1.952   3.123   3.212
 2456SOL    HW2 1643   1.921   3.270   3.149
 2457SOL     OW 1644   3.590   2.797   3.716
 2457SOL    HW1 1645   3.544   2.790   3.627
 2457SOL    HW2 1646   3.528   2.841   3.782
 2458SOL     OW 1647   2.169   1.925   2.480
 2458SOL    HW1 1648   2.158   2.019   2.513
 2458SOL    HW2 1649   2.164   1.862   2.557
 2459SOL     OW 1650   3.484   2.229   2.236
 2459SOL    HW1 1651   3.486   2.153   2.300
 2459SOL    HW2 1652   3.436   2.306   2.276
 2460SOL     OW 1653   2.842   3.435   3.562
 2460SOL    HW1 1654   2.822   3.479   3.474
 2460SOL    HW2 1655   2.881   3.344   3.546
 2461SOL     OW 1656   3.721   3.380   3.467
 2461SOL    HW1 1657   3.735   3.407   3.372
 2461SOL    HW2 1658   3.804   3.402   3.520
 2462SOL     OW 1659   2.212   2.760   3.666
 2462SOL    HW1 1660   2.288   2.804   3.714
 2462SOL    HW2 1661   2.247   2.713   3.584
 2463SOL     OW 1662   3.402   2.136   1.987
 2463SOL    HW1 1663   3.341   2.061   2.010
 2463SOL    HW2 1664   3.424   2.188   2.070
 2464SOL     OW 1665   3.165   2.700   1.904
 2464SOL    HW1 1666   3.199   2.607   1.919
 2464SOL    HW2 1667   3.183   2.727   1.809
 2465SOL     OW 1668   2.930   3.195   2.711
 2465SOL    HW1 1669   2.937   3.111   2.656
 2465SOL    HW2 1670   2.992   3.264   2.675
 2466SOL     OW 1671   2.201   2.371   2.868
 2466SOL    HW1 1672   2.149   2.288   2.851
 2466SOL    HW2 1673   2.278   2.376   2.804
 2467SOL     OW 1674   3.000   2.242   3.540
 2467SOL    HW1 1675   2.955   2.305   3.604
 2467SOL    HW2 1676   3.093   2.273   3.523
 2468SOL     OW 1677   3.022   2.069   3.339
 2468SOL    HW1 1678   3.022   2.133   3.416
 2468SOL    HW2 1679   3.050   2.117   3.256
 2469SOL     OW 1680   1.870   3.188   2.062
 2469SOL    HW1 1681   1.777   3.209   2.031
 2469SOL    HW2 1682   1.880   3.089   2.075
 2470SOL     OW 1683   1.950   3.663   2.789
 2470SOL    HW1 1684   1.908   3.577   2.762
 2470SOL    HW2 1685   2.044   3.666   2.755
 2471SOL     OW 1686   2.366   3.430   2.772
 2471SOL    HW1 1687   2.432   3.504   2.781
 2471SOL    HW2 1688   2.410   3.351   2.730
 2472SOL     OW 1689   2.864   2.658   3.100
 2472SOL    HW1 1690   2.905   2.626   3.186
 2472SOL    HW2 1691   2.768   2.631   3.097
 2473SOL     OW 1692   1.902   2.406   2.976
 2473SOL    HW1 1693   1.987   2.373   2.935
 2473SOL    HW2 1694   1.915   2.421   3.074
 2474SOL     OW 1695   2.051   2.382   3.584
 2474SOL    HW1 1696   2.110   2.342   3.514
 2474SOL    HW2 1697   1.993   2.453   3.543
 2475SOL     OW 1698   3.231   2.812   3.522
 2475SOL    HW1 1699   3.270   2.901   3.542
 2475SOL    HW2 1700   3.241   2.792   3.425
 2476SOL     OW 1701   3.519   2.466   3.068
 2476SOL    HW1 1702   3.481   2.397   3.130
 2476SOL    HW2 1703   3.601   2.430   3.024
 2477SOL     OW 1704   2.114   3.426   3.606
 2477SOL    HW1 1705   2.084   3.483   3.682
 2477SOL    HW2 1706   2.107   3.329   3.632
 2478SOL     OW 1707   2.533   2.326   3.131
 2478SOL    HW1 1708   2.499   2.237   3.101
 2478SOL    HW2 1709   2.559   2.380   3.051
 2479SOL     OW 1710   2.792   3.540   3.327
 2479SOL    HW1 1711   2.768   3.522   3.232
 2479SOL    HW2 1712   2.822   3.634   3.337
 2480SOL     OW 1713   2.335   2.362   2.053
 2480SOL    HW1 1714   2.396   2.442   2.057
 2480SOL    HW2 1715   2.240   2.393   2.060
 2481SOL     OW 1716   2.021   2.999   3.328
 2481SOL    HW1 1717   2.043   2.938   3.404
 2481SOL    HW2 1718   2.031   2.950   3.242
 2482SOL     OW 1719   3.209   2.921   3.096
 2482SOL    HW1 1720   3.233   2.858   3.022
 2482SOL    HW2 1721   3.119   2.961   3.078
 2483SOL     OW 1722   3.164   2.717   2.171
 2483SOL    HW1 1723   3.078   2.686   2.213
 2483SOL    HW2 1724   3.160   2.703   2.072
 2484SOL     OW 1725   3.621   3.609   3.016
 2484SOL    HW1 1726   3.682   3.639   2.943
 2484SOL    HW2 1727   3.583   3.520   2.994
 2485SOL     OW 1728   3.114   3.593   2.990
 2485SOL    HW1 1729   3.198   3.598   2.936
 2485SOL    HW2 1730   3.091   3.497   3.008
 2486SOL     OW 1731   1.945   3.120   2.884
 2486SOL    HW1 1732   1.940   3.119   2.984
 2486SOL    HW2 1733   1.862   3.079   2.846
 2487SOL     OW 1734   2.550   3.524   3.578
 2487SOL    HW1 1735   2.494   3.605   3.587
 2487SOL    HW2 1736   2.602   3.528   3.492
 2488SOL     OW 1737   3.588   1.997   2.385
 2488SOL    HW1 1738   3.661   1.980   2.318
 2488SOL    HW2 1739   3.557   1.910   2.423
 2489SOL     OW 1740   3.250   3.435   2.339
 2489SOL    HW1 1741   3.317   3.447   2.265
 2489SOL    HW2 1742   3.210   3.524   2.362
 2490SOL     OW 1743   1.992   3.656   3.713
 2490SOL    HW1 1744   1.951   3.582   3.766
 2490SOL    HW2 1745   2.056   3.707   3.771
 2491SOL     OW 1746   3.142   2.789   2.534
 2491SOL    HW1 1747   3.202   2.708   2.536
 2491SOL    HW2 1748   3.182   2.858   2.474
 2492SOL     OW 1749   2.692   3.135   3.284
 2492SOL    HW1 1750   2.687   3.168   3.379
 2492SOL    HW2 1751   2.606   3.154   3.238
 2493SOL     OW 1752   2.534   3.478   2.016
 2493SOL    HW1 1753   2.543   3.488   1.917
 2493SOL    HW2 1754   2.494   3.389   2.037
 2494SOL     OW 1755   3.512   3.582   3.256
 2494SOL    HW1 1756   3.565   3.592   3.172
 2494SOL    HW2 1757   3.485   3.672   3.290
 2495SOL     OW 1758   3.703   2.037   2.825
 2495SOL    HW1 1759   3.742   1.952   2.789
 2495SOL    HW2 1760   3.605   2.039   2.806
 2496SOL     OW 1761   2.125   2.188   2.582
 2496SOL    HW1 1762   2.046   2.239   2.548
 2496SOL    HW2 1763   2.116   2.173   2.680
 2497SOL     OW 1764   3.056   3.474   1.893
 2497SOL    HW1 1765   3.062   3.381   1.930
 2497SOL    HW2 1766   2.997   3.474   1.813
 2498SOL     OW 1767   2.684   2.864   3.234
 2498SOL    HW1 1768   2.724   2.863   3.142
 2498SOL    HW2 1769   2.694   2.956   3.274
 2499SOL     OW 1770   2.778   2.772   2.153
 2499SOL    HW1 1771   2.841   2.810   2.085
 2499SOL    HW2 1772   2.818   2.689   2.192
 2500SOL     OW 1773   3.366   3.469   1.906
 2500SOL    HW1 1774   3.274   3.506   1.913
 2500SOL    HW2 1775   3.404   3.489   1.816
 2501SOL     OW 1776   2.234   3.150   3.352
 2501SOL    HW1 1777   2.221   3.243   3.318
 2501SOL    HW2 1778   2.150   3.098   3.339
 2502SOL     OW 1779   3.476   3.154   3.151
 2502SOL    HW1 1780   3.536   3.157   3.231
 2502SOL    HW2 1781   3.401   3.218   3.164
 2503SOL     OW 1782   2.901   2.960   2.558
 2503SOL    HW1 1783   2.831   2.913   2.612
 2503SOL    HW2 1784   2.960   2.892   2.515
 2504SOL     OW 1785   2.876   2.098   2.833
 2504SOL    HW1 1786   2.868   2.062   2.740
 2504SOL    HW2 1787   2.874   2.022   2.898
 2505SOL     OW 1788   2.452   3.349   2.353
 2505SOL    HW1 1789   2.494   3.291   2.283
 2505SOL    HW2 1790   2.408   3.428   2.309
 2506SOL     OW 1791   3.571   2.247   3.243
 2506SOL    HW1 1792   3.644   2.316   3.247
 2506SOL    HW2 1793   3.599   2.172   3.184
 2507SOL     OW 1794   2.117   3.210   2.152
 2507SOL    HW1 1795   2.021   3.211   2.125
 2507SOL    HW2 1796   2.129   3.263   2.236
 2508SOL     OW 1797   1.967   2.875   3.588
 2508SOL    HW1 1798   1.890   2.842   3.642
 2508SOL    HW2 1799   2.052   2.845   3.630
 2509SOL     OW 1800   2.534   2.065   3.351
 2509SOL    HW1 1801   2.624   2.049   3.311
 2509SOL    HW2 1802   2.542   2.070   3.450
 2510SOL     OW 1803   1.937   2.207   1.895
 2510SOL    HW1 1804   1.845   2.179   1.866
 2510SOL    HW2 1805   1.968   2.284   1.839
 2511SOL     OW 1806   3.302   2.718   3.260
 2511SOL    HW1 1807   3.245   2.770   3.197
 2511SOL    HW2 1808   3.398   2.730   3.236
 2512SOL     OW 1809   1.934   2.028   2.180
 2512SOL    HW1 1810   1.917   2.111   2.126
 2512SOL    HW2 1811   2.024   1.991   2.158
 2513SOL     OW 1812   3.045   3.197   1.981
 2513SOL    HW1 1813   2.946   3.186   1.983
 2513SOL    HW2 1814   3.079   3.212   2.074
 2514SOL     OW 1815   2.475   2.704   3.293
 2514SOL    HW1 1816   2.531   2.785   3.276
 2514SOL    HW2 1817   2.534   2.624   3.296
 2515SOL     OW 1818   3.355   3.629   2.821
 2515SOL    HW1 1819   3.388   3.693   2.752
 2515SOL    HW2 1820   3.421   3.623   2.896
 2516SOL     OW 1821   2.578   2.427   3.570
 2516SOL    HW1 1822   2.597   2.492   3.644
 2516SOL    HW2 1823   2.638   2.347   3.579
 2517SOL     OW 1824   3.312   3.082   3.495
 2517SOL    HW1 1825   3.303   3.072   3.594
 2517SOL    HW2 1826   3.408   3.075   3.469
 2518SOL     OW 1827   2.252   3.603   3.422
 2518SOL    HW1 1828   2.161   3.644   3.420
 2518SOL    HW2 1829   2.245   3.509   3.454
 2519SOL     OW 1830   3.536   2.745   3.116
 2519SOL    HW1 1831   3.509   2.656   3.079
 2519SOL    HW2 1832   3.537   2.813   3.043
 2520SOL     OW 1833   3.087   2.187   2.311
 2520SOL    HW1 1834   3.152   2.113   2.300
 2520SOL    HW2 1835   3.107   2.237   2.395
 2521SOL     OW 1836   3.639   2.204   3.504
 2521SOL    HW1 1837   3.622   2.235   3.410
 2521SOL    HW2 1838   3.555   2.167   3.542
 2522SOL     OW 1839   3.592   2.796   3.379
 2522SOL    HW1 1840   3.630   2.887   3.394
 2522SOL    HW2 1841   3.584   2.779   3.280
 2523SOL     OW 1842   2.721   3.236   1.878
 2523SOL    HW1 1843   2.675   3.251   1.966
 2523SOL    HW2 1844   2.765   3.321   1.848
 2524SOL     OW 1845   2.523   3.652   2.815
 2524SOL    HW1 1846   2.477   3.740   2.802
 2524SOL    HW2 1847   2.622   3.664   2.808
 2525SOL     OW 1848   2.721   2.818   2.723
 2525SOL    HW1 1849   2.775   2.749   2.771
 2525SOL    HW2 1850   2.689   2.887   2.789
 2526SOL     OW 1851   2.945   2.846   1.949
 2526SOL    HW1 1852   2.922   2.899   1.867
 2526SOL    HW2 1853   3.026   2.790   1.930
 2527SOL     OW 1854   3.723   3.431   2.713
 2527SOL    HW1 1855   3.652   3.419   2.643
 2527SOL    HW2 1856   3.724   3.352   2.773
 2528SOL     OW 1857   2.083   3.176   3.706
 2528SOL    HW1 1858   2.018   3.103   3.685
 2528SOL    HW2 1859   2.087   3.190   3.804
 2529SOL     OW 1860   1.941   3.102   2.515
 2529SOL    HW1 1861   1.940   3.055   2.603
 2529SOL    HW2 1862   2.023   3.074   2.464
 2530SOL     OW 1863   2.534   3.253   3.486
 2530SOL    HW1 1864   2.456   3.203   3.524
 2530SOL    HW2 1865   2.531   3.348   3.517
 2531SOL     OW 1866   3.686   2.054   3.089
 2531SOL    HW1 1867   3.682   1.964   3.133
 2531SOL    HW2 1868   3.689   2.043   2.990
 2532SOL     OW 1869   2.290   2.286   2.382
 2532SOL    HW1 1870   2.320   2.214   2.320
 2532SOL    HW2 1871   2.251   2.246   2.465
 2533SOL     OW 1872   3.567   3.349   2.966
 2533SOL    HW1 1873   3.474   3.324   2.939
 2533SOL    HW2 1874   3.593   3.299   3.048
 2534SOL     OW 1875   2.179   2.409   3.142
 2534SOL    HW1 1876   2.217   2.350   3.214
 2534SOL    HW2 1877   2.219   2.383   3.054
 2535SOL     OW 1878   2.674   3.448   2.549
 2535SOL    HW1 1879   2.706   3.458   2.455
 2535SOL    HW2 1880   2.595   3.386   2.551
 2536SOL     OW 1881   3.286   2.076   2.974
 2536SOL    HW1 1882   3.338   2.011   3.029
 2536SOL    HW2 1883   3.237   2.139   3.035
 2537SOL     OW 1884   2.863   1.896   3.016
 2537SOL    HW1 1885   2.800   1.824   2.985
 2537SOL    HW2 1886   2.956   1.860   3.016
 2538SOL     OW 1887   2.632   3.192   2.163
 2538SOL    HW1 1888   2.586   3.105   2.180
 2538SOL    HW2 1889   2.723   3.189   2.204
 2539SOL     OW 1890   2.480   3.429   3.146
 2539SOL    HW1 1891   2.475   3.511   3.203
 2539SOL    HW2 1892   2.569   3.426   3.101
 2540SOL     OW 1893   3.214   1.914   2.030
 2540SOL    HW1 1894   3.249   1.873   1.946
 2540SOL    HW2 1895   3.124   1.876   2.050
 2541SOL     OW 1896   3.162   2.315   2.553
 2541SOL    HW1 1897   3.103   2.395   2.557
 2541SOL    HW2 1898   3.177   2.280   2.646
 2542SOL     OW 1899   3.455   2.083   2.744
 2542SOL    HW1 1900   3.371   2.082   2.798
 2542SOL    HW2 1901   3.457   2.166   2.688
 2543SOL     OW 1902   1.901   2.939   2.162
 2543SOL    HW1 1903   2.000   2.928   2.153
 2543SOL    HW2 1904   1.861   2.853   2.194
 2544SOL     OW 1905   2.737   3.508   2.199
 2544SOL    HW1 1906   2.660   3.473   2.145
 2544SOL    HW2 1907   2.705   3.579   2.261
 2545SOL     OW 1908   2.092   2.490   3.837
 2545SOL    HW1 1909   1.999   2.488   3.874
 2545SOL    HW2 1910   2.093   2.451   3.745
 2551SOL     OW 1911   3.617   2.469   3.955
 2551SOL    HW1 1912   3.605   2.456   3.856
 2551SOL    HW2 1913   3.587   2.388   4.004
 2559SOL     OW 1914   2.468   2.826   3.847
 2559SOL    HW1 1915   2.475   2.910   3.793
 2559SOL    HW2 1916   2.514   2.839   3.935
 2562SOL     OW 1917   1.889   3.458   3.841
 2562SOL    HW1 1918   1.870   3.362   3.862
 2562SOL    HW2 1919   1.856   3.516   3.916
 2568SOL     OW 1920   3.387   2.861   3.914
 2568SOL    HW1 1921   3.324   2.785   3.927
 2568SOL    HW2 1922   3.435   2.879   4.000
 2571SOL     OW 1923   2.460   2.591   3.994
 2571SOL    HW1 1924   2.484   2.660   3.926
 2571SOL    HW2 1925   2.382   2.624   4.048
 2575SOL     OW 1926   2.903   2.563   4.153
 2575SOL    HW1 1927   2.929   2.559   4.249
 2575SOL    HW2 1928   2.818   2.512   4.139
 2577SOL     OW 1929   2.727   2.210   3.919
 2577SOL    HW1 1930   2.786   2.273   3.870
 2577SOL    HW2 1931   2.746   2.116   3.890
 2583SOL     OW 1932   2.183   2.805   3.966
 2583SOL    HW1 1933   2.265   2.844   3.924
 2583SOL    HW2 1934   2.156   2.723   3.917
 2586SOL     OW 1935   3.494   3.239   3.805
 2586SOL    HW1 1936   3.462   3.333   3.795
 2586SOL    HW2 1937   3.418   3.176   3.793
 2591SOL     OW 1938   2.244   2.562   4.204
 2591SOL    HW1 1939   2.289   2.472   4.201
 2591SOL    HW2 1940   2.150   2.551   4.237
 2592SOL     OW 1941   2.476   1.984   3.841
 2592SOL    HW1 1942   2.574   1.962   3.848
 2592SOL    HW2 1943   2.445   1.967   3.748
 2596SOL     OW 1944   3.296   3.050   3.765
 2596SOL    HW1 1945   3.328   2.974   3.822
 2596SOL    HW2 1946   3.204   3.077   3.795
 2597SOL     OW 1947   2.159   1.897   3.895
 2597SOL    HW1 1948   2.208   1.981   3.874
 2597SOL    HW2 1949   2.221   1.832   3.940
 2598SOL     OW 1950   2.797   2.098   4.204
 2598SOL    HW1 1951   2.749   2.139   4.126
 2598SOL    HW2 1952   2.896   2.096   4.185
 2602SOL     OW 1953   2.894   2.411   3.740
 2602SOL    HW1 1954   2.853   2.493   3.701
 2602SOL    HW2 1955   2.958   2.437   3.813
 2609SOL     OW 1956   2.350   3.247   3.898
 2609SOL    HW1 1957   2.263   3.232   3.945
 2609SOL    HW2 1958   2.333   3.273   3.803
 2611SOL     OW 1959   3.252   2.437   3.802
 2611SOL    HW1 1960   3.198   2.416   3.883
 2611SOL    HW2 1961   3.343   2.396   3.811
 2612SOL     OW 1962   2.389   2.118   4.052
 2612SOL    HW1 1963   2.416   2.059   3.977
 2612SOL    HW2 1964   2.389   2.213   4.021
 2615SOL     OW 1965   2.567   2.912   4.092
 2615SOL    HW1 1966   2.553   2.919   4.191
 2615SOL    HW2 1967   2.651   2.861   4.074
 2618SOL     OW 1968   2.229   2.962   4.225
 2618SOL    HW1 1969   2.222   3.045   4.169
 2618SOL    HW2 1970   2.233   2.882   4.165
 2626SOL     OW 1971   3.071   2.387   3.999
 2626SOL    HW1 1972   3.084   2.303   4.053
 2626SOL    HW2 1973   3.042   2.461   4.059
 2633SOL     OW 1974   3.402   2.136   3.849
 2633SOL    HW1 1975   3.341   2.061   3.872
 2633SOL    HW2 1976   3.424   2.188   3.932
 2634SOL     OW 1977   3.165   2.700   3.766
 2634SOL    HW1 1978   3.199   2.607   3.781
 2634SOL    HW2 1979   3.183   2.727   3.671
 2639SOL     OW 1980   1.870   3.188   3.924
 2639SOL    HW1 1981   1.777   3.209   3.893
 2639SOL    HW2 1982   1.880   3.089   3.937
 2644SOL     OW 1983   2.677   2.434   4.049
 2644SOL    HW1 1984   2.684   2.345   4.003
 2644SOL    HW2 1985   2.583   2.468   4.041
 2648SOL     OW 1986   2.335   2.362   3.915
 2648SOL    HW1 1987   2.396   2.442   3.919
 2648SOL    HW2 1988   2.240   2.393   3.922
 2650SOL     OW 1989   3.164   2.717   4.033
 2650SOL    HW1 1990   3.078   2.686   4.075
 2650SOL    HW2 1991   3.160   2.703   3.934
 2657SOL     OW 1992   2.534   3.478   3.878
 2657SOL    HW1 1993   2.543   3.488   3.779
 2657SOL    HW2 1994   2.494   3.389   3.899
 2661SOL     OW 1995   3.056   3.474   3.755
 2661SOL    HW1 1996   3.062   3.381   3.792
 2661SOL    HW2 1997   2.997   3.474   3.675
 2663SOL     OW 1998   2.778   2.772   4.015
 2663SOL    HW1 1999   2.841   2.810   3.947
 2663SOL    HW2 2000   2.818   2.689   4.054
 2664SOL     OW 2001   3.366   3.469   3.768
 2664SOL    HW1 2002   3.274   3.506   3.775
 2664SOL    HW2 2003   3.404   3.489   3.678
 2669SOL     OW 2004   2.117   3.210   4.014
 2669SOL    HW1 2005   2.021   3.211   3.987
 2669SOL    HW2 2006   2.129   3.263   4.098
 2670SOL     OW 2007   1.937   2.207   3.757
 2670SOL    HW1 2008   1.845   2.179   3.728
 2670SOL    HW2 2009   1.968   2.284   3.701
 2671SOL     OW 2010   1.934   2.028   4.042
 2671SOL    HW1 2011   1.917   2.111   3.988
 2671SOL    HW2 2012   2.024   1.991   4.020
 2672SOL     OW 2013   3.045   3.197   3.843
 2672SOL    HW1 2014   2.946   3.186   3.845
 2672SOL    HW2 2015   3.079   3.212   3.936
 2675SOL     OW 2016   3.087   2.187   4.173
 2675SOL    HW1 2017   3.152   2.113   4.162
 2675SOL    HW2 2018   3.107   2.237   4.257
 2678SOL     OW 2019   2.721   3.236   3.740
 2678SOL    HW1 2020   2.675   3.251   3.828
 2678SOL    HW2 2021   2.765   3.321   3.710
 2681SOL     OW 2022   2.945   2.846   3.811
 2681SOL    HW1 2023   2.922   2.899   3.729
 2681SOL    HW2 2024   3.026   2.790   3.792
 2685SOL     OW 2025   2.290   2.286   4.244
 2685SOL    HW1 2026   2.320   2.214   4.182
 2685SOL    HW2 2027   2.251   2.246   4.327
 2690SOL     OW 2028   2.632   3.192   4.025
 2690SOL    HW1 2029   2.586   3.105   4.042
 2690SOL    HW2 2030   2.723   3.189   4.066
 2691SOL     OW 2031   3.214   1.914   3.892
 2691SOL    HW1 2032   3.249   1.873   3.808
 2691SOL    HW2 2033   3.124   1.876   3.912
 2694SOL     OW 2034   1.901   2.939   4.024
 2694SOL    HW1 2035   2.000   2.928   4.015
 2694SOL    HW2 2036   1.861   2.853   4.056
 2719SOL     OW 2037   2.179   3.975   1.801
 2719SOL    HW1 2038   2.250   4.046   1.807
 2719SOL    HW2 2039   2.091   4.014   1.829
 2742SOL     OW 2040   2.643   3.988   1.749
 2742SOL    HW1 2041   2.710   3.927   1.792
 2742SOL    HW2 2042   2.570   4.007   1.814
 2764SOL     OW 2043   2.777   3.813   1.402
 2764SOL    HW1 2044   2.802   3.793   1.307
 2764SOL    HW2 2045   2.849   3.869   1.444
 2774SOL     OW 2046   2.875   3.829   1.770
 2774SOL    HW1 2047   2.881   3.914   1.718
 2774SOL    HW2 2048   2.907   3.753   1.713
 2775SOL     OW 2049   2.366   3.774   1.740
 2775SOL    HW1 2050   2.324   3.717   1.670
 2775SOL    HW2 2051   2.300   3.843   1.772
 2819SOL     OW 2052   2.534   3.927   1.489
 2819SOL    HW1 2053   2.624   3.911   1.449
 2819SOL    HW2 2054   2.542   3.932   1.588
 2844SOL     OW 2055   2.087   3.999   2.858
 2844SOL    HW1 2056   2.122   3.982   2.950
 2844SOL    HW2 2057   1.999   3.954   2.846
 2845SOL     OW 2058   1.881   4.092   2.509
 2845SOL    HW1 2059   1.799   4.135   2.548
 2845SOL    HW2 2060   1.853   4.019   2.446
 2853SOL     OW 2061   2.300   4.116   3.361
 2853SOL    HW1 2062   2.382   4.060   3.370
 2853SOL    HW2 2063   2.219   4.058   3.365
 2857SOL     OW 2064   3.456   3.838   3.342
 2857SOL    HW1 2065   3.438   3.905   3.270
 2857SOL    HW2 2066   3.453   3.884   3.431
 2863SOL     OW 2067   2.671   3.728   2.364
 2863SOL    HW1 2068   2.711   3.819   2.355
 2863SOL    HW2 2069   2.571   3.736   2.370
 2869SOL     OW 2070   3.143   4.069   2.806
 2869SOL    HW1 2071   3.057   4.019   2.793
 2869SOL    HW2 2072   3.205   4.015   2.862
 2873SOL     OW 2073   2.853   4.134   3.104
 2873SOL    HW1 2074   2.776   4.168   3.158
 2873SOL    HW2 2075   2.819   4.083   3.025
 2876SOL     OW 2076   2.727   4.072   2.057
 2876SOL    HW1 2077   2.786   4.135   2.008
 2876SOL    HW2 2078   2.746   3.978   2.028
 2879SOL     OW 2079   2.412   3.920   2.747
 2879SOL    HW1 2080   2.407   3.915   2.847
 2879SOL    HW2 2081   2.414   4.016   2.718
 2883SOL     OW 2082   2.064   4.009   3.360
 2883SOL    HW1 2083   1.984   4.069   3.347
 2883SOL    HW2 2084   2.054   3.960   3.446
 2885SOL     OW 2085   3.262   3.831   2.288
 2885SOL    HW1 2086   3.238   3.794   2.198
 2885SOL    HW2 2087   3.361   3.847   2.292
 2888SOL     OW 2088   2.476   3.846   1.979
 2888SOL    HW1 2089   2.574   3.824   1.986
 2888SOL    HW2 2090   2.445   3.829   1.886
 2892SOL     OW 2091   2.784   4.227   2.761
 2892SOL    HW1 2092   2.759   4.218   2.665
 2892SOL    HW2 2093   2.832   4.145   2.792
 2893SOL     OW 2094   2.401   3.788   2.374
 2893SOL    HW1 2095   2.320   3.789   2.432
 2893SOL    HW2 2096   2.404   3.871   2.319
 2895SOL     OW 2097   2.159   3.759   2.033
 2895SOL    HW1 2098   2.208   3.843   2.012
 2895SOL    HW2 2099   2.221   3.694   2.078
 2896SOL     OW 2100   2.797   3.960   2.342
 2896SOL    HW1 2101   2.749   4.001   2.264
 2896SOL    HW2 2102   2.896   3.958   2.323
 2901SOL     OW 2103   2.423   3.946   3.009
 2901SOL    HW1 2104   2.461   3.862   3.046
 2901SOL    HW2 2105   2.335   3.965   3.053
 2902SOL     OW 2106   2.728   4.178   2.504
 2902SOL    HW1 2107   2.696   4.250   2.442
 2902SOL    HW2 2108   2.752   4.097   2.451
 2903SOL     OW 2109   2.879   3.763   2.615
 2903SOL    HW1 2110   2.807   3.768   2.546
 2903SOL    HW2 2111   2.855   3.694   2.684
 2908SOL     OW 2112   2.389   3.980   2.190
 2908SOL    HW1 2113   2.416   3.921   2.115
 2908SOL    HW2 2114   2.389   4.075   2.159
 2911SOL     OW 2115   2.777   3.813   3.264
 2911SOL    HW1 2116   2.802   3.793   3.169
 2911SOL    HW2 2117   2.849   3.869   3.306
 2915SOL     OW 2118   3.136   4.110   3.124
 2915SOL    HW1 2119   3.157   4.184   3.188
 2915SOL    HW2 2120   3.047   4.127   3.081
 2917SOL     OW 2121   2.428   4.261   2.727
 2917SOL    HW1 2122   2.440   4.327   2.653
 2917SOL    HW2 2123   2.474   4.295   2.810
 2921SOL     OW 2124   2.875   3.829   3.632
 2921SOL    HW1 2125   2.881   3.914   3.580
 2921SOL    HW2 2126   2.907   3.753   3.575
 2922SOL     OW 2127   2.366   3.774   3.602
 2922SOL    HW1 2128   2.324   3.717   3.532
 2922SOL    HW2 2129   2.300   3.843   3.634
 2926SOL     OW 2130   2.169   3.937   3.093
 2926SOL    HW1 2131   2.146   3.974   3.183
 2926SOL    HW2 2132   2.139   3.842   3.087
 2929SOL     OW 2133   2.169   3.787   2.480
 2929SOL    HW1 2134   2.158   3.881   2.513
 2929SOL    HW2 2135   2.164   3.724   2.557
 2934SOL     OW 2136   3.402   3.998   1.987
 2934SOL    HW1 2137   3.341   3.923   2.010
 2934SOL    HW2 2138   3.424   4.050   2.070
 2937SOL     OW 2139   2.201   4.233   2.868
 2937SOL    HW1 2140   2.149   4.150   2.851
 2937SOL    HW2 2141   2.278   4.238   2.804
 2939SOL     OW 2142   3.022   3.931   3.339
 2939SOL    HW1 2143   3.022   3.995   3.416
 2939SOL    HW2 2144   3.050   3.979   3.256
 2947SOL     OW 2145   2.533   4.188   3.131
 2947SOL    HW1 2146   2.499   4.099   3.101
 2947SOL    HW2 2147   2.559   4.242   3.051
 2948SOL     OW 2148   2.335   4.224   2.053
 2948SOL    HW1 2149   2.396   4.304   2.057
 2948SOL    HW2 2150   2.240   4.255   2.060
 2953SOL     OW 2151   3.588   3.859   2.385
 2953SOL    HW1 2152   3.661   3.842   2.318
 2953SOL    HW2 2153   3.557   3.772   2.423
 2957SOL     OW 2154   2.125   4.050   2.582
 2957SOL    HW1 2155   2.046   4.101   2.548
 2957SOL    HW2 2156   2.116   4.035   2.680
 2964SOL     OW 2157   2.876   3.960   2.833
 2964SOL    HW1 2158   2.868   3.924   2.740
 2964SOL    HW2 2159   2.874   3.884   2.898
 2967SOL     OW 2160   2.534   3.927   3.351
 2967SOL    HW1 2161   2.624   3.911   3.311
 2967SOL    HW2 2162   2.542   3.932   3.450
 2968SOL     OW 2163   1.937   4.069   1.895
 2968SOL    HW1 2164   1.845   4.041   1.866
 2968SOL    HW2 2165   1.968   4.146   1.839
 2970SOL     OW 2166   1.934   3.890   2.180
 2970SOL    HW1 2167   1.917   3.973   2.126
 2970SOL    HW2 2168   2.024   3.853   2.158
 2975SOL     OW 2169   3.087   4.049   2.311
 2975SOL    HW1 2170   3.152   3.975   2.300
 2975SOL    HW2 2171   3.107   4.099   2.395
 2983SOL     OW 2172   2.290   4.148   2.382
 2983SOL    HW1 2173   2.320   4.076   2.320
 2983SOL    HW2 2174   2.251   4.108   2.465
 2985SOL     OW 2175   3.286   3.938   2.974
 2985SOL    HW1 2176   3.338   3.873   3.029
 2985SOL    HW2 2177   3.237   4.001   3.035
 2986SOL     OW 2178   2.863   3.758   3.016
 2986SOL    HW1 2179   2.800   3.686   2.985
 2986SOL    HW2 2180   2.956   3.722   3.016
 2988SOL     OW 2181   3.214   3.776   2.030
 2988SOL    HW1 2182   3.249   3.735   1.946
 2988SOL    HW2 2183   3.124   3.738   2.050
 2989SOL     OW 2184   3.162   4.177   2.553
 2989SOL    HW1 2185   3.103   4.257   2.557
 2989SOL    HW2 2186   3.177   4.142   2.646
 2990SOL     OW 2187   3.455   3.945   2.744
 2990SOL    HW1 2188   3.371   3.944   2.798
 2990SOL    HW2 2189   3.457   4.028   2.688
 3132SOL     OW 2190   3.854   1.821   1.571
 3132SOL    HW1 2191   3.844   1.806   1.670
 3132SOL    HW2 2192   3.768   1.857   1.535
 3214SOL     OW 2193   3.854   1.794   1.851
 3214SOL    HW1 2194   3.813   1.720   1.904
 3214SOL    HW2 2195   3.918   1.845   1.909
 3259SOL     OW 2196   3.955   1.713   2.345
 3259SOL    HW1 2197   3.989   1.790   2.399
 3259SOL    HW2 2198   3.999   1.713   2.255
 3266SOL     OW 2199   3.751   1.596   1.979
 3266SOL    HW1 2200   3.732   1.500   2.000
 3266SOL    HW2 2201   3.718   1.654   2.054
 3281SOL     OW 2202   3.854   1.821   3.433
 3281SOL    HW1 2203   3.844   1.806   3.532
 3281SOL    HW2 2204   3.768   1.857   3.397
 3285SOL     OW 2205   4.075   1.801   2.715
 3285SOL    HW1 2206   4.125   1.715   2.721
 3285SOL    HW2 2207   4.140   1.878   2.712
 3292SOL     OW 2208   3.973   1.785   3.103
 3292SOL    HW1 2209   4.030   1.720   3.153
 3292SOL    HW2 2210   3.957   1.752   3.010
 3321SOL     OW 2211   3.788   1.564   3.193
 3321SOL    HW1 2212   3.742   1.646   3.159
 3321SOL    HW2 2213   3.886   1.583   3.202
 3345SOL     OW 2214   3.732   1.326   2.062
 3345SOL    HW1 2215   3.639   1.347   2.031
 3345SOL    HW2 2216   3.742   1.227   2.075
 3346SOL     OW 2217   3.812   1.801   2.789
 3346SOL    HW1 2218   3.770   1.715   2.762
 3346SOL    HW2 2219   3.906   1.804   2.755
 3520SOL     OW 2220   3.837   2.599   1.597
 3520SOL    HW1 2221   3.925   2.586   1.642
 3520SOL    HW2 2222   3.824   2.696   1.575
 3526SOL     OW 2223   4.041   2.113   1.801
 3526SOL    HW1 2224   4.112   2.184   1.807
 3526SOL    HW2 2225   3.953   2.152   1.829
 3543SOL     OW 2226   3.926   2.147   1.498
 3543SOL    HW1 2227   3.846   2.207   1.485
 3543SOL    HW2 2228   3.916   2.098   1.584
 3561SOL     OW 2229   3.802   2.418   1.386
 3561SOL    HW1 2230   3.894   2.417   1.345
 3561SOL    HW2 2231   3.796   2.492   1.453
 3592SOL     OW 2232   4.074   2.760   1.804
 3592SOL    HW1 2233   4.150   2.804   1.852
 3592SOL    HW2 2234   4.109   2.713   1.722
 3603SOL     OW 2235   3.913   2.382   1.722
 3603SOL    HW1 2236   3.972   2.342   1.652
 3603SOL    HW2 2237   3.855   2.453   1.681
 3609SOL     OW 2238   3.883   2.999   1.466
 3609SOL    HW1 2239   3.905   2.938   1.542
 3609SOL    HW2 2240   3.893   2.950   1.380
 3628SOL     OW 2241   3.829   2.875   1.726
 3628SOL    HW1 2242   3.752   2.842   1.780
 3628SOL    HW2 2243   3.914   2.845   1.768
 3639SOL     OW 2244   3.945   3.176   1.844
 3639SOL    HW1 2245   3.880   3.103   1.823
 3639SOL    HW2 2246   3.949   3.190   1.942
 3650SOL     OW 2247   3.954   2.490   1.975
 3650SOL    HW1 2248   3.861   2.488   2.012
 3650SOL    HW2 2249   3.955   2.451   1.883
 3651SOL     OW 2250   3.949   2.137   2.858
 3651SOL    HW1 2251   3.984   2.120   2.950
 3651SOL    HW2 2252   3.861   2.092   2.846
 3652SOL     OW 2253   3.743   2.230   2.509
 3652SOL    HW1 2254   3.661   2.273   2.548
 3652SOL    HW2 2255   3.715   2.157   2.446
 3659SOL     OW 2256   4.059   3.297   2.923
 3659SOL    HW1 2257   3.981   3.266   2.870
 3659SOL    HW2 2258   4.117   3.355   2.866
 3661SOL     OW 2259   3.955   3.575   2.345
 3661SOL    HW1 2260   3.989   3.652   2.399
 3661SOL    HW2 2261   3.999   3.575   2.255
 3663SOL     OW 2262   3.954   3.296   2.400
 3663SOL    HW1 2263   3.928   3.392   2.400
 3663SOL    HW2 2264   3.883   3.242   2.445
 3664SOL     OW 2265   3.964   2.953   2.748
 3664SOL    HW1 2266   3.978   2.869   2.800
 3664SOL    HW2 2267   3.909   3.017   2.803
 3667SOL     OW 2268   3.846   2.505   2.425
 3667SOL    HW1 2269   3.801   2.417   2.442
 3667SOL    HW2 2270   3.845   2.559   2.509
 3668SOL     OW 2271   3.751   3.458   1.979
 3668SOL    HW1 2272   3.732   3.362   2.000
 3668SOL    HW2 2273   3.718   3.516   2.054
 3669SOL     OW 2274   3.837   2.599   3.459
 3669SOL    HW1 2275   3.925   2.586   3.504
 3669SOL    HW2 2276   3.824   2.696   3.437
 3673SOL     OW 2277   3.921   2.838   3.126
 3673SOL    HW1 2278   4.010   2.793   3.112
 3673SOL    HW2 2279   3.848   2.773   3.107
 3682SOL     OW 2280   3.800   2.673   2.651
 3682SOL    HW1 2281   3.899   2.661   2.660
 3682SOL    HW2 2282   3.776   2.768   2.672
 3689SOL     OW 2283   4.045   2.805   2.104
 3689SOL    HW1 2284   4.127   2.844   2.062
 3689SOL    HW2 2285   4.018   2.723   2.055
 3692SOL     OW 2286   3.926   2.147   3.360
 3692SOL    HW1 2287   3.846   2.207   3.347
 3692SOL    HW2 2288   3.916   2.098   3.446
 3696SOL     OW 2289   4.106   2.562   2.342
 3696SOL    HW1 2290   4.151   2.472   2.339
 3696SOL    HW2 2291   4.012   2.551   2.375
 3703SOL     OW 2292   4.021   1.897   2.033
 3703SOL    HW1 2293   4.070   1.981   2.012
 3703SOL    HW2 2294   4.083   1.832   2.078
 3707SOL     OW 2295   4.183   3.014   2.603
 3707SOL    HW1 2296   4.112   2.987   2.668
 3707SOL    HW2 2297   4.157   2.986   2.510
 3710SOL     OW 2298   3.802   2.418   3.248
 3710SOL    HW1 2299   3.894   2.417   3.207
 3710SOL    HW2 2300   3.796   2.492   3.315
 3715SOL     OW 2301   4.251   2.118   2.190
 3715SOL    HW1 2302   4.278   2.059   2.115
 3715SOL    HW2 2303   4.251   2.213   2.159
 3721SOL     OW 2304   4.134   2.675   3.113
 3721SOL    HW1 2305   4.220   2.687   3.163
 3721SOL    HW2 2306   4.092   2.588   3.140
 3723SOL     OW 2307   3.788   3.426   3.193
 3723SOL    HW1 2308   3.742   3.508   3.159
 3723SOL    HW2 2309   3.886   3.445   3.202
 3724SOL     OW 2310   4.091   2.962   2.363
 3724SOL    HW1 2311   4.084   3.045   2.307
 3724SOL    HW2 2312   4.095   2.882   2.303
 3725SOL     OW 2313   4.290   2.399   2.727
 3725SOL    HW1 2314   4.302   2.465   2.653
 3725SOL    HW2 2315   4.336   2.433   2.810
 3734SOL     OW 2316   4.031   2.075   3.093
 3734SOL    HW1 2317   4.008   2.112   3.183
 3734SOL    HW2 2318   4.001   1.980   3.087
 3735SOL     OW 2319   3.761   3.172   3.144
 3735SOL    HW1 2320   3.814   3.123   3.212
 3735SOL    HW2 2321   3.783   3.270   3.149
 3737SOL     OW 2322   4.031   1.925   2.480
 3737SOL    HW1 2323   4.020   2.019   2.513
 3737SOL    HW2 2324   4.026   1.862   2.557
 3743SOL     OW 2325   4.043   2.672   2.811
 3743SOL    HW1 2326   4.136   2.708   2.816
 3743SOL    HW2 2327   4.037   2.587   2.863
 3744SOL     OW 2328   4.063   2.371   2.868
 3744SOL    HW1 2329   4.011   2.288   2.851
 3744SOL    HW2 2330   4.140   2.376   2.804
 3747SOL     OW 2331   3.732   3.188   2.062
 3747SOL    HW1 2332   3.639   3.209   2.031
 3747SOL    HW2 2333   3.742   3.089   2.075
 3748SOL     OW 2334   3.812   3.663   2.789
 3748SOL    HW1 2335   3.770   3.577   2.762
 3748SOL    HW2 2336   3.906   3.666   2.755
 3751SOL     OW 2337   3.764   2.406   2.976
 3751SOL    HW1 2338   3.849   2.373   2.935
 3751SOL    HW2 2339   3.777   2.421   3.074
 3752SOL     OW 2340   3.913   2.382   3.584
 3752SOL    HW1 2341   3.972   2.342   3.514
 3752SOL    HW2 2342   3.855   2.453   3.543
 3757SOL     OW 2343   4.197   2.362   2.053
 3757SOL    HW1 2344   4.258   2.442   2.057
 3757SOL    HW2 2345   4.102   2.393   2.060
 3758SOL     OW 2346   3.883   2.999   3.328
 3758SOL    HW1 2347   3.905   2.938   3.404
 3758SOL    HW2 2348   3.893   2.950   3.242
 3761SOL     OW 2349   3.807   3.120   2.884
 3761SOL    HW1 2350   3.802   3.119   2.984
 3761SOL    HW2 2351   3.724   3.079   2.846
 3767SOL     OW 2352   3.987   2.188   2.582
 3767SOL    HW1 2353   3.908   2.239   2.548
 3767SOL    HW2 2354   3.978   2.173   2.680
 3775SOL     OW 2355   3.979   3.210   2.152
 3775SOL    HW1 2356   3.883   3.211   2.125
 3775SOL    HW2 2357   3.991   3.263   2.236
 3776SOL     OW 2358   3.829   2.875   3.588
 3776SOL    HW1 2359   3.752   2.842   3.642
 3776SOL    HW2 2360   3.914   2.845   3.630
 3778SOL     OW 2361   3.799   2.207   1.895
 3778SOL    HW1 2362   3.707   2.179   1.866
 3778SOL    HW2 2363   3.830   2.284   1.839
 3779SOL     OW 2364   3.796   2.028   2.180
 3779SOL    HW1 2365   3.779   2.111   2.126
 3779SOL    HW2 2366   3.886   1.991   2.158
 3783SOL     OW 2367   4.318   2.607   2.514
 3783SOL    HW1 2368   4.368   2.692   2.495
 3783SOL    HW2 2369   4.230   2.609   2.466
 3789SOL     OW 2370   3.803   3.102   2.515
 3789SOL    HW1 2371   3.802   3.055   2.603
 3789SOL    HW2 2372   3.885   3.074   2.464
 3791SOL     OW 2373   4.152   2.286   2.382
 3791SOL    HW1 2374   4.182   2.214   2.320
 3791SOL    HW2 2375   4.113   2.246   2.465
 3792SOL     OW 2376   4.041   2.409   3.142
 3792SOL    HW1 2377   4.079   2.350   3.214
 3792SOL    HW2 2378   4.081   2.383   3.054
 3797SOL     OW 2379   3.763   2.939   2.162
 3797SOL    HW1 2380   3.862   2.928   2.153
 3797SOL    HW2 2381   3.723   2.853   2.194
 3889SOL     OW 2382   3.799   2.207   3.757
 3889SOL    HW1 2383   3.707   2.179   3.728
 3889SOL    HW2 2384   3.830   2.284   3.701
   5.07016   5.07016   5.07016
