; mobley_2364370_GMX.top created by acpype (v: 2023.10.27) on Thu May 21 00:09:46 2026

[ defaults ]
; nbfunc        comb-rule       gen-pairs       fudgeLJ fudgeQQ
1               2               yes             0.5     0.8333333333

; Include mobley_2364370_GMX.itp topology
#include "mobley_2364370_GMX.itp"

; Ligand position restraints
#ifdef POSRES_LIG
#include "posre_mobley_2364370.itp"
#endif


#include "/home/carla/github/Solvation-openMM/DADES/common/SOL.TIP3P.itp"

[ system ]
mobley_2364370 in water

[ molecules ]
; Compound        nmols
 mobley_2364370   1     
SOL 801
