; mobley_3982371_GMX.itp created by acpype (v: 2023.10.27) on Thu May 21 00:21:52 2026

[ atomtypes ]
;name   bond_type     mass     charge   ptype   sigma         epsilon       Amb
 c        c           0.00000  0.00000   A     3.31521e-01   4.13379e-01 ; 1.86  0.0988
 c3       c3          0.00000  0.00000   A     3.39771e-01   4.51035e-01 ; 1.91  0.1078
 o        o           0.00000  0.00000   A     3.04812e-01   6.12119e-01 ; 1.71  0.1463
 os       os          0.00000  0.00000   A     3.15610e-01   3.03758e-01 ; 1.77  0.0726
 hc       hc          0.00000  0.00000   A     2.60018e-01   8.70272e-02 ; 1.46  0.0208
 h1       h1          0.00000  0.00000   A     2.42200e-01   8.70272e-02 ; 1.36  0.0208

[ moleculetype ]
;name            nrexcl
 mobley_3982371   3

[ atoms ]
;   nr  type  resi  res  atom  cgnr     charge      mass       ; qtot   bond_type
     1    c     1   MOL    C1    1     0.632099     12.01000 ; qtot 0.632
     2   c3     1   MOL    C2    2    -0.150100     12.01000 ; qtot 0.482
     3   c3     1   MOL    C3    3     0.125700     12.01000 ; qtot 0.608
     4    o     1   MOL    O1    4    -0.543000     16.00000 ; qtot 0.065
     5   os     1   MOL    O2    5    -0.442900     16.00000 ; qtot -0.378
     6   hc     1   MOL    H1    6     0.075700      1.00800 ; qtot -0.303
     7   hc     1   MOL    H2    7     0.075700      1.00800 ; qtot -0.227
     8   hc     1   MOL    H3    8     0.075700      1.00800 ; qtot -0.151
     9   h1     1   MOL    H4    9     0.050367      1.00800 ; qtot -0.101
    10   h1     1   MOL    H5   10     0.050367      1.00800 ; qtot -0.050
    11   h1     1   MOL    H6   11     0.050367      1.00800 ; qtot 0.000

[ bonds ]
;   ai     aj funct   r             k
     1      2   1    1.5270e-01    1.9652e+05 ;     C1 - C2    
     1      4   1    1.2190e-01    4.9421e+05 ;     C1 - O1    
     1      5   1    1.3621e-01    2.9398e+05 ;     C1 - O2    
     2      6   1    1.0962e-01    2.8891e+05 ;     C2 - H1    
     2      7   1    1.0962e-01    2.8891e+05 ;     C2 - H2    
     2      8   1    1.0962e-01    2.8891e+05 ;     C2 - H3    
     3      5   1    1.4273e-01    2.3620e+05 ;     C3 - O2    
     3      9   1    1.0969e-01    2.8804e+05 ;     C3 - H4    
     3     10   1    1.0969e-01    2.8804e+05 ;     C3 - H5    
     3     11   1    1.0969e-01    2.8804e+05 ;     C3 - H6    

[ pairs ]
;   ai     aj    funct
     1      9      1 ;     C1 - H4    
     1     10      1 ;     C1 - H5    
     1     11      1 ;     C1 - H6    
     2      3      1 ;     C2 - C3    
     4      3      1 ;     O1 - C3    
     4      6      1 ;     O1 - H1    
     4      7      1 ;     O1 - H2    
     4      8      1 ;     O1 - H3    
     5      6      1 ;     O2 - H1    
     5      7      1 ;     O2 - H2    
     5      8      1 ;     O2 - H3    

[ angles ]
;   ai     aj     ak    funct   theta         cth
     1      2      6      1    1.0895e+02    3.6510e+02 ;     C1 - C2     - H1    
     1      2      7      1    1.0895e+02    3.6510e+02 ;     C1 - C2     - H2    
     1      2      8      1    1.0895e+02    3.6510e+02 ;     C1 - C2     - H3    
     1      5      3      1    1.1582e+02    7.4835e+02 ;     C1 - O2     - C3    
     2      1      4      1    1.2290e+02    6.3973e+02 ;     C2 - C1     - O1    
     2      1      5      1    1.1080e+02    6.5245e+02 ;     C2 - C1     - O2    
     4      1      5      1    1.2320e+02    8.4734e+02 ;     O1 - C1     - O2    
     5      3      9      1    1.1034e+02    4.7028e+02 ;     O2 - C3     - H4    
     5      3     10      1    1.1034e+02    4.7028e+02 ;     O2 - C3     - H5    
     5      3     11      1    1.1034e+02    4.7028e+02 ;     O2 - C3     - H6    
     6      2      7      1    1.0773e+02    2.9957e+02 ;     H1 - C2     - H2    
     6      2      8      1    1.0773e+02    2.9957e+02 ;     H1 - C2     - H3    
     7      2      8      1    1.0773e+02    2.9957e+02 ;     H2 - C2     - H3    
     9      3     10      1    1.0855e+02    2.9824e+02 ;     H4 - C3     - H5    
     9      3     11      1    1.0855e+02    2.9824e+02 ;     H4 - C3     - H6    
    10      3     11      1    1.0855e+02    2.9824e+02 ;     H5 - C3     - H6    

[ dihedrals ] ; propers
; for gromacs 4.5 or higher, using funct 9
;    i      j      k      l   func   phase     kd      pn
     1      5      3      9      9     0.00   1.60387   3 ;     C1-    O2-    C3-    H4
     1      5      3     10      9     0.00   1.60387   3 ;     C1-    O2-    C3-    H5
     1      5      3     11      9     0.00   1.60387   3 ;     C1-    O2-    C3-    H6
     2      1      5      3      9     0.00   3.13800   3 ;     C2-    C1-    O2-    C3
     2      1      5      3      9   180.00   7.90776   1 ;     C2-    C1-    O2-    C3
     2      1      5      3      9   180.00  13.76536   2 ;     C2-    C1-    O2-    C3
     4      1      2      6      9     0.00  16.86152   1 ;     O1-    C1-    C2-    H1
     4      1      2      6      9   180.00  15.31344   2 ;     O1-    C1-    C2-    H1
     4      1      2      7      9     0.00  16.86152   1 ;     O1-    C1-    C2-    H2
     4      1      2      7      9   180.00  15.31344   2 ;     O1-    C1-    C2-    H2
     4      1      2      8      9     0.00  16.86152   1 ;     O1-    C1-    C2-    H3
     4      1      2      8      9   180.00  15.31344   2 ;     O1-    C1-    C2-    H3
     4      1      5      3      9   180.00   5.85760   1 ;     O1-    C1-    O2-    C3
     4      1      5      3      9   180.00  11.29680   2 ;     O1-    C1-    O2-    C3
     5      1      2      6      9   180.00   0.00000   2 ;     O2-    C1-    C2-    H1
     5      1      2      7      9   180.00   0.00000   2 ;     O2-    C1-    C2-    H2
     5      1      2      8      9   180.00   0.00000   2 ;     O2-    C1-    C2-    H3

[ dihedrals ] ; impropers
; treated as propers in GROMACS to use correct AMBER analytical function
;    i      j      k      l   func   phase     kd      pn
     5      1      4      2      4   180.00   4.60240   2 ;     O2-    C1-    O1-    C2
