mobley_1323538_GMX.gro created by acpype (v: 2023.10.27) on Thu May 21 00:15:00 2026
 2426
    1MOL     O4    1   2.359   2.531   2.690
    1MOL     P1    2   2.430   2.483   2.566
    1MOL     O1    3   2.440   2.320   2.553
    1MOL     C1    4   2.320   2.245   2.565
    1MOL    H11    5   2.283   2.256   2.666
    1MOL    H12    6   2.246   2.284   2.494
    1MOL     C4    7   2.350   2.100   2.534
    1MOL    H41    8   2.260   2.039   2.543
    1MOL    H42    9   2.426   2.060   2.601
    1MOL    H43   10   2.390   2.089   2.433
    1MOL     O2   11   2.584   2.530   2.551
    1MOL     C2   12   2.611   2.671   2.563
    1MOL    H21   13   2.550   2.726   2.494
    1MOL    H22   14   2.589   2.704   2.666
    1MOL     C5   15   2.757   2.695   2.533
    1MOL    H51   16   2.784   2.660   2.433
    1MOL    H52   17   2.821   2.640   2.602
    1MOL    H53   18   2.782   2.800   2.541
    1MOL     O3   19   2.361   2.531   2.425
    1MOL     C3   20   2.419   2.490   2.301
    1MOL    H31   21   2.522   2.527   2.293
    1MOL    H32   22   2.421   2.381   2.296
    1MOL     C6   23   2.337   2.545   2.187
    1MOL    H61   24   2.334   2.655   2.193
    1MOL    H62   25   2.231   2.510   2.194
    1MOL    H63   26   2.378   2.520   2.090
   14SOL     OW   27   1.460   1.505   1.339
   14SOL    HW1   28   1.484   1.599   1.365
   14SOL    HW2   29   1.444   1.451   1.421
   35SOL     OW   30   1.187   1.792   1.616
   35SOL    HW1   31   1.211   1.852   1.540
   35SOL    HW2   32   1.194   1.697   1.586
   95SOL     OW   33   1.754   1.223   1.588
   95SOL    HW1   34   1.845   1.184   1.575
   95SOL    HW2   35   1.762   1.319   1.612
   97SOL     OW   36   1.592   1.629   1.625
   97SOL    HW1   37   1.619   1.663   1.535
   97SOL    HW2   38   1.671   1.591   1.671
  122SOL     OW   39   1.728   0.935   1.854
  122SOL    HW1   40   1.682   0.928   1.765
  122SOL    HW2   41   1.666   0.979   1.920
  127SOL     OW   42   1.859   1.518   1.605
  127SOL    HW1   43   1.873   1.545   1.510
  127SOL    HW2   44   1.942   1.540   1.658
  152SOL     OW   45   1.759   1.747   1.154
  152SOL    HW1   46   1.820   1.777   1.081
  152SOL    HW2   47   1.721   1.658   1.132
  163SOL     OW   48   1.650   1.720   1.394
  163SOL    HW1   49   1.703   1.730   1.310
  163SOL    HW2   50   1.623   1.810   1.428
  219SOL     OW   51   1.555   1.511   2.565
  219SOL    HW1   52   1.498   1.495   2.646
  219SOL    HW2   53   1.496   1.521   2.485
  227SOL     OW   54   1.460   1.505   3.201
  227SOL    HW1   55   1.484   1.599   3.227
  227SOL    HW2   56   1.444   1.451   3.283
  238SOL     OW   57   1.842   1.767   2.221
  238SOL    HW1   58   1.896   1.738   2.301
  238SOL    HW2   59   1.872   1.857   2.192
  240SOL     OW   60   1.689   0.922   2.474
  240SOL    HW1   61   1.784   0.893   2.482
  240SOL    HW2   62   1.681   0.987   2.399
  241SOL     OW   63   1.641   1.108   2.294
  241SOL    HW1   64   1.727   1.110   2.242
  241SOL    HW2   65   1.655   1.155   2.382
  247SOL     OW   66   1.525   0.999   2.052
  247SOL    HW1   67   1.462   0.923   2.065
  247SOL    HW2   68   1.573   1.017   2.138
  248SOL     OW   69   1.187   1.792   3.478
  248SOL    HW1   70   1.211   1.852   3.402
  248SOL    HW2   71   1.194   1.697   3.448
  250SOL     OW   72   1.466   1.417   2.815
  250SOL    HW1   73   1.407   1.423   2.895
  250SOL    HW2   74   1.451   1.329   2.769
  251SOL     OW   75   1.667   1.714   2.434
  251SOL    HW1   76   1.626   1.691   2.346
  251SOL    HW2   77   1.649   1.640   2.499
  254SOL     OW   78   1.576   1.662   2.169
  254SOL    HW1   79   1.665   1.708   2.172
  254SOL    HW2   80   1.555   1.638   2.074
  264SOL     OW   81   1.362   1.144   2.407
  264SOL    HW1   82   1.445   1.115   2.359
  264SOL    HW2   83   1.313   1.211   2.351
  266SOL     OW   84   1.008   1.456   2.339
  266SOL    HW1   85   0.962   1.528   2.287
  266SOL    HW2   86   1.004   1.476   2.437
  268SOL     OW   87   1.795   1.066   2.735
  268SOL    HW1   88   1.733   1.051   2.659
  268SOL    HW2   89   1.743   1.077   2.820
  269SOL     OW   90   1.227   1.550   3.368
  269SOL    HW1   91   1.233   1.473   3.432
  269SOL    HW2   92   1.175   1.524   3.288
  273SOL     OW   93   1.111   1.776   2.099
  273SOL    HW1   94   1.051   1.714   2.149
  273SOL    HW2   95   1.142   1.732   2.014
  275SOL     OW   96   1.632   1.377   1.943
  275SOL    HW1   97   1.600   1.471   1.933
  275SOL    HW2   98   1.556   1.314   1.931
  279SOL     OW   99   0.940   1.698   2.766
  279SOL    HW1  100   1.020   1.641   2.787
  279SOL    HW2  101   0.891   1.658   2.689
  289SOL     OW  102   1.434   1.188   1.903
  289SOL    HW1  103   1.466   1.112   1.960
  289SOL    HW2  104   1.342   1.215   1.933
  293SOL     OW  105   1.227   1.570   2.655
  293SOL    HW1  106   1.248   1.644   2.590
  293SOL    HW2  107   1.295   1.570   2.728
  295SOL     OW  108   1.271   1.797   2.453
  295SOL    HW1  109   1.315   1.861   2.389
  295SOL    HW2  110   1.221   1.849   2.523
  301SOL     OW  111   1.429   1.173   2.729
  301SOL    HW1  112   1.374   1.089   2.722
  301SOL    HW2  113   1.455   1.202   2.637
  303SOL     OW  114   1.857   0.833   2.239
  303SOL    HW1  115   1.899   0.769   2.303
  303SOL    HW2  116   1.819   0.782   2.161
  305SOL     OW  117   1.664   1.280   2.519
  305SOL    HW1  118   1.763   1.288   2.533
  305SOL    HW2  119   1.619   1.364   2.550
  308SOL     OW  120   1.754   1.223   3.450
  308SOL    HW1  121   1.845   1.184   3.437
  308SOL    HW2  122   1.762   1.319   3.474
  310SOL     OW  123   1.592   1.629   3.487
  310SOL    HW1  124   1.619   1.663   3.397
  310SOL    HW2  125   1.671   1.591   3.533
  312SOL     OW  126   1.638   1.099   2.941
  312SOL    HW1  127   1.643   1.180   3.000
  312SOL    HW2  128   1.552   1.101   2.890
  321SOL     OW  129   1.252   1.348   2.250
  321SOL    HW1  130   1.302   1.425   2.290
  321SOL    HW2  131   1.157   1.350   2.282
  322SOL     OW  132   1.272   1.445   3.004
  322SOL    HW1  133   1.319   1.458   3.091
  322SOL    HW2  134   1.206   1.371   3.013
  340SOL     OW  135   1.859   1.518   3.467
  340SOL    HW1  136   1.873   1.545   3.372
  340SOL    HW2  137   1.942   1.540   3.520
  365SOL     OW  138   1.759   1.747   3.016
  365SOL    HW1  139   1.820   1.777   2.943
  365SOL    HW2  140   1.721   1.658   2.994
  366SOL     OW  141   1.252   1.731   2.990
  366SOL    HW1  142   1.336   1.736   2.936
  366SOL    HW2  143   1.229   1.635   3.008
  370SOL     OW  144   1.388   1.573   2.339
  370SOL    HW1  145   1.455   1.585   2.265
  370SOL    HW2  146   1.348   1.662   2.362
  375SOL     OW  147   1.650   1.720   3.256
  375SOL    HW1  148   1.703   1.730   3.172
  375SOL    HW2  149   1.623   1.810   3.290
  378SOL     OW  150   1.194   1.612   1.893
  378SOL    HW1  151   1.200   1.519   1.930
  378SOL    HW2  152   1.135   1.612   1.813
  381SOL     OW  153   1.504   1.607   1.906
  381SOL    HW1  154   1.412   1.644   1.913
  381SOL    HW2  155   1.542   1.627   1.816
  383SOL     OW  156   1.614   1.292   3.151
  383SOL    HW1  157   1.674   1.295   3.231
  383SOL    HW2  158   1.539   1.356   3.164
  394SOL     OW  159   1.183   1.335   1.981
  394SOL    HW1  160   1.084   1.324   1.983
  394SOL    HW2  161   1.217   1.350   2.074
  396SOL     OW  162   1.493   1.767   2.821
  396SOL    HW1  163   1.526   1.831   2.752
  396SOL    HW2  164   1.559   1.761   2.896
  409SOL     OW  165   1.861   1.569   2.713
  409SOL    HW1  166   1.790   1.557   2.643
  409SOL    HW2  167   1.862   1.490   2.773
  415SOL     OW  168   1.705   1.487   2.966
  415SOL    HW1  169   1.612   1.462   2.939
  415SOL    HW2  170   1.731   1.437   3.048
  570SOL     OW  171   0.850   2.660   1.823
  570SOL    HW1  172   0.846   2.736   1.888
  570SOL    HW2  173   0.872   2.696   1.732
  574SOL     OW  174   1.460   3.367   1.339
  574SOL    HW1  175   1.484   3.461   1.365
  574SOL    HW2  176   1.444   3.313   1.421
  578SOL     OW  177   1.127   3.203   1.690
  578SOL    HW1  178   1.174   3.203   1.778
  578SOL    HW2  179   1.079   3.116   1.679
  583SOL     OW  180   1.594   1.976   1.480
  583SOL    HW1  181   1.576   2.043   1.408
  583SOL    HW2  182   1.591   2.022   1.569
  591SOL     OW  183   1.293   3.090   1.423
  591SOL    HW1  184   1.330   3.017   1.365
  591SOL    HW2  185   1.345   3.095   1.508
  603SOL     OW  186   1.394   2.331   1.674
  603SOL    HW1  187   1.374   2.374   1.762
  603SOL    HW2  188   1.472   2.269   1.683
  604SOL     OW  189   0.973   2.752   1.572
  604SOL    HW1  190   1.019   2.668   1.543
  604SOL    HW2  191   0.917   2.786   1.497
  610SOL     OW  192   1.719   2.447   1.831
  610SOL    HW1  193   1.693   2.536   1.795
  610SOL    HW2  194   1.717   2.379   1.758
  615SOL     OW  195   1.795   2.928   0.873
  615SOL    HW1  196   1.733   2.913   0.797
  615SOL    HW2  197   1.743   2.939   0.958
  628SOL     OW  198   1.547   2.084   1.729
  628SOL    HW1  199   1.542   2.121   1.821
  628SOL    HW2  200   1.475   2.015   1.717
  632SOL     OW  201   1.351   2.452   1.433
  632SOL    HW1  202   1.379   2.409   1.518
  632SOL    HW2  203   1.376   2.548   1.434
  639SOL     OW  204   1.076   2.545   1.464
  639SOL    HW1  205   0.996   2.484   1.467
  639SOL    HW2  206   1.157   2.492   1.440
  649SOL     OW  207   1.466   2.452   0.992
  649SOL    HW1  208   1.436   2.357   0.999
  649SOL    HW2  209   1.539   2.468   1.058
  655SOL     OW  210   1.754   3.085   1.588
  655SOL    HW1  211   1.845   3.046   1.575
  655SOL    HW2  212   1.762   3.181   1.612
  657SOL     OW  213   1.592   3.491   1.625
  657SOL    HW1  214   1.619   3.525   1.535
  657SOL    HW2  215   1.671   3.453   1.671
  659SOL     OW  216   1.638   2.961   1.079
  659SOL    HW1  217   1.643   3.042   1.138
  659SOL    HW2  218   1.552   2.963   1.028
  661SOL     OW  219   0.980   2.978   1.719
  661SOL    HW1  220   0.881   2.984   1.729
  661SOL    HW2  221   1.003   2.898   1.663
  664SOL     OW  222   1.274   2.248   1.262
  664SOL    HW1  223   1.295   2.322   1.326
  664SOL    HW2  224   1.185   2.265   1.219
  673SOL     OW  225   1.587   2.641   1.670
  673SOL    HW1  226   1.495   2.679   1.665
  673SOL    HW2  227   1.647   2.688   1.605
  674SOL     OW  228   1.013   1.967   1.770
  674SOL    HW1  229   1.019   2.052   1.718
  674SOL    HW2  230   1.045   1.891   1.713
  682SOL     OW  231   1.728   2.797   1.854
  682SOL    HW1  232   1.682   2.790   1.765
  682SOL    HW2  233   1.666   2.841   1.920
  687SOL     OW  234   1.859   3.380   1.605
  687SOL    HW1  235   1.873   3.407   1.510
  687SOL    HW2  236   1.942   3.402   1.658
  694SOL     OW  237   1.138   2.242   1.678
  694SOL    HW1  238   1.093   2.305   1.742
  694SOL    HW2  239   1.231   2.273   1.661
  695SOL     OW  240   1.160   2.069   1.477
  695SOL    HW1  241   1.160   2.133   1.554
  695SOL    HW2  242   1.188   2.117   1.394
  702SOL     OW  243   1.369   2.812   1.660
  702SOL    HW1  244   1.408   2.901   1.680
  702SOL    HW2  245   1.379   2.792   1.563
  704SOL     OW  246   1.657   2.466   1.206
  704SOL    HW1  247   1.619   2.397   1.268
  704SOL    HW2  248   1.739   2.430   1.162
  710SOL     OW  249   1.347   2.921   1.234
  710SOL    HW1  250   1.371   2.858   1.160
  710SOL    HW2  251   1.257   2.961   1.216
  723SOL     OW  252   1.650   3.582   1.394
  723SOL    HW1  253   1.703   3.592   1.310
  723SOL    HW2  254   1.623   3.672   1.428
  724SOL     OW  255   1.841   2.037   0.963
  724SOL    HW1  256   1.880   1.952   0.927
  724SOL    HW2  257   1.743   2.039   0.944
  731SOL     OW  258   1.614   3.154   1.289
  731SOL    HW1  259   1.674   3.157   1.369
  731SOL    HW2  260   1.539   3.218   1.302
  735SOL     OW  261   1.709   2.247   1.381
  735SOL    HW1  262   1.782   2.316   1.385
  735SOL    HW2  263   1.737   2.172   1.322
  740SOL     OW  264   1.440   2.718   1.398
  740SOL    HW1  265   1.383   2.770   1.335
  740SOL    HW2  266   1.536   2.730   1.374
  746SOL     OW  267   1.450   3.082   1.633
  746SOL    HW1  268   1.441   3.072   1.732
  746SOL    HW2  269   1.546   3.075   1.607
  748SOL     OW  270   1.674   2.745   1.254
  748SOL    HW1  271   1.647   2.656   1.217
  748SOL    HW2  272   1.675   2.813   1.181
  751SOL     OW  273   1.777   2.204   1.642
  751SOL    HW1  274   1.760   2.235   1.548
  751SOL    HW2  275   1.693   2.167   1.680
  752SOL     OW  276   1.730   2.796   1.517
  752SOL    HW1  277   1.768   2.887   1.532
  752SOL    HW2  278   1.722   2.779   1.418
  761SOL     OW  279   1.824   2.054   1.227
  761SOL    HW1  280   1.820   1.964   1.271
  761SOL    HW2  281   1.827   2.043   1.128
  763SOL     OW  282   1.705   3.349   1.104
  763SOL    HW1  283   1.612   3.324   1.077
  763SOL    HW2  284   1.731   3.299   1.186
  766SOL     OW  285   1.424   2.076   1.112
  766SOL    HW1  286   1.476   2.011   1.167
  766SOL    HW2  287   1.375   2.139   1.173
  779SOL     OW  288   1.555   3.373   2.565
  779SOL    HW1  289   1.498   3.357   2.646
  779SOL    HW2  290   1.496   3.383   2.485
  780SOL     OW  291   1.135   2.565   2.579
  780SOL    HW1  292   1.192   2.643   2.554
  780SOL    HW2  293   1.075   2.591   2.655
  781SOL     OW  294   1.755   2.469   2.093
  781SOL    HW1  295   1.743   2.456   1.994
  781SOL    HW2  296   1.725   2.388   2.142
  787SOL     OW  297   1.460   3.367   3.201
  787SOL    HW1  298   1.484   3.461   3.227
  787SOL    HW2  299   1.444   3.313   3.283
  789SOL     OW  300   1.603   2.309   2.599
  789SOL    HW1  301   1.529   2.355   2.549
  789SOL    HW2  302   1.654   2.377   2.652
  796SOL     OW  303   1.594   1.976   3.342
  796SOL    HW1  304   1.576   2.043   3.270
  796SOL    HW2  305   1.591   2.022   3.431
  798SOL     OW  306   1.842   3.629   2.221
  798SOL    HW1  307   1.896   3.600   2.301
  798SOL    HW2  308   1.872   3.719   2.192
  800SOL     OW  309   1.689   2.784   2.474
  800SOL    HW1  310   1.784   2.755   2.482
  800SOL    HW2  311   1.681   2.849   2.399
  801SOL     OW  312   1.641   2.970   2.294
  801SOL    HW1  313   1.727   2.972   2.242
  801SOL    HW2  314   1.655   3.017   2.382
  804SOL     OW  315   1.293   3.090   3.285
  804SOL    HW1  316   1.330   3.017   3.227
  804SOL    HW2  317   1.345   3.095   3.370
  805SOL     OW  318   0.809   1.866   2.364
  805SOL    HW1  319   0.849   1.957   2.355
  805SOL    HW2  320   0.709   1.874   2.370
  807SOL     OW  321   1.525   2.861   2.052
  807SOL    HW1  322   1.462   2.785   2.065
  807SOL    HW2  323   1.573   2.879   2.138
  810SOL     OW  324   1.466   3.279   2.815
  810SOL    HW1  325   1.407   3.285   2.895
  810SOL    HW2  326   1.451   3.191   2.769
  811SOL     OW  327   1.667   3.576   2.434
  811SOL    HW1  328   1.626   3.553   2.346
  811SOL    HW2  329   1.649   3.502   2.499
  813SOL     OW  330   1.281   2.207   2.806
  813SOL    HW1  331   1.195   2.157   2.793
  813SOL    HW2  332   1.343   2.153   2.862
  814SOL     OW  333   1.576   3.524   2.169
  814SOL    HW1  334   1.665   3.570   2.172
  814SOL    HW2  335   1.555   3.500   2.074
  816SOL     OW  336   1.394   2.331   3.536
  816SOL    HW1  337   1.374   2.374   3.624
  816SOL    HW2  338   1.472   2.269   3.545
  818SOL     OW  339   0.991   2.272   3.104
  818SOL    HW1  340   0.914   2.306   3.158
  818SOL    HW2  341   0.957   2.221   3.025
  819SOL     OW  342   1.041   2.563   2.291
  819SOL    HW1  343   1.067   2.559   2.387
  819SOL    HW2  344   0.956   2.512   2.277
  822SOL     OW  345   0.865   2.210   2.057
  822SOL    HW1  346   0.924   2.273   2.008
  822SOL    HW2  347   0.884   2.116   2.028
  823SOL     OW  348   1.719   2.447   3.693
  823SOL    HW1  349   1.693   2.536   3.657
  823SOL    HW2  350   1.717   2.379   3.620
  824SOL     OW  351   1.362   3.006   2.407
  824SOL    HW1  352   1.445   2.977   2.359
  824SOL    HW2  353   1.313   3.073   2.351
  826SOL     OW  354   1.008   3.318   2.339
  826SOL    HW1  355   0.962   3.390   2.287
  826SOL    HW2  356   1.004   3.338   2.437
  828SOL     OW  357   1.795   2.928   2.735
  828SOL    HW1  358   1.733   2.913   2.659
  828SOL    HW2  359   1.743   2.939   2.820
  831SOL     OW  360   1.458   2.597   2.590
  831SOL    HW1  361   1.453   2.532   2.665
  831SOL    HW2  362   1.538   2.656   2.603
  835SOL     OW  363   1.632   3.239   1.943
  835SOL    HW1  364   1.600   3.333   1.933
  835SOL    HW2  365   1.556   3.176   1.931
  837SOL     OW  366   1.400   1.969   2.288
  837SOL    HW1  367   1.376   1.932   2.198
  837SOL    HW2  368   1.499   1.985   2.292
  841SOL     OW  369   1.547   2.084   3.591
  841SOL    HW1  370   1.542   2.121   3.683
  841SOL    HW2  371   1.475   2.015   3.579
  845SOL     OW  372   1.351   2.452   3.295
  845SOL    HW1  373   1.379   2.409   3.380
  845SOL    HW2  374   1.376   2.548   3.296
  847SOL     OW  375   0.922   2.365   2.761
  847SOL    HW1  376   0.897   2.356   2.665
  847SOL    HW2  377   0.970   2.283   2.792
  849SOL     OW  378   1.434   3.050   1.903
  849SOL    HW1  379   1.466   2.974   1.960
  849SOL    HW2  380   1.342   3.077   1.933
  851SOL     OW  381   0.935   2.098   2.342
  851SOL    HW1  382   0.887   2.139   2.264
  851SOL    HW2  383   1.034   2.096   2.323
  852SOL     OW  384   1.076   2.545   3.326
  852SOL    HW1  385   0.996   2.484   3.329
  852SOL    HW2  386   1.157   2.492   3.302
  853SOL     OW  387   1.227   3.432   2.655
  853SOL    HW1  388   1.248   3.506   2.590
  853SOL    HW2  389   1.295   3.432   2.728
  855SOL     OW  390   1.271   3.659   2.453
  855SOL    HW1  391   1.315   3.723   2.389
  855SOL    HW2  392   1.221   3.711   2.523
  856SOL     OW  393   1.032   2.411   1.878
  856SOL    HW1  394   0.991   2.493   1.839
  856SOL    HW2  395   1.096   2.437   1.951
  859SOL     OW  396   0.866   2.316   2.504
  859SOL    HW1  397   0.834   2.388   2.442
  859SOL    HW2  398   0.890   2.235   2.451
  860SOL     OW  399   1.017   1.901   2.615
  860SOL    HW1  400   0.945   1.906   2.546
  860SOL    HW2  401   0.993   1.832   2.684
  861SOL     OW  402   1.429   3.035   2.729
  861SOL    HW1  403   1.374   2.951   2.722
  861SOL    HW2  404   1.455   3.064   2.637
  862SOL     OW  405   1.466   2.452   2.854
  862SOL    HW1  406   1.436   2.357   2.861
  862SOL    HW2  407   1.539   2.468   2.920
  863SOL     OW  408   1.857   2.695   2.239
  863SOL    HW1  409   1.899   2.631   2.303
  863SOL    HW2  410   1.819   2.644   2.161
  865SOL     OW  411   1.664   3.142   2.519
  865SOL    HW1  412   1.763   3.150   2.533
  865SOL    HW2  413   1.619   3.226   2.550
  866SOL     OW  414   1.390   2.437   1.940
  866SOL    HW1  415   1.336   2.416   2.021
  866SOL    HW2  416   1.481   2.396   1.949
  868SOL     OW  417   1.754   3.085   3.450
  868SOL    HW1  418   1.845   3.046   3.437
  868SOL    HW2  419   1.762   3.181   3.474
  869SOL     OW  420   1.064   3.209   3.202
  869SOL    HW1  421   0.984   3.186   3.257
  869SOL    HW2  422   1.147   3.183   3.251
  870SOL     OW  423   1.592   3.491   3.487
  870SOL    HW1  424   1.619   3.525   3.397
  870SOL    HW2  425   1.671   3.453   3.533
  871SOL     OW  426   1.111   3.057   2.962
  871SOL    HW1  427   1.071   3.101   3.043
  871SOL    HW2  428   1.070   3.094   2.879
  872SOL     OW  429   1.638   2.961   2.941
  872SOL    HW1  430   1.643   3.042   3.000
  872SOL    HW2  431   1.552   2.963   2.890
  877SOL     OW  432   1.274   2.248   3.124
  877SOL    HW1  433   1.295   2.322   3.188
  877SOL    HW2  434   1.185   2.265   3.081
  881SOL     OW  435   1.252   3.210   2.250
  881SOL    HW1  436   1.302   3.287   2.290
  881SOL    HW2  437   1.157   3.212   2.282
  882SOL     OW  438   1.272   3.307   3.004
  882SOL    HW1  439   1.319   3.320   3.091
  882SOL    HW2  440   1.206   3.233   3.013
  883SOL     OW  441   1.582   2.501   2.334
  883SOL    HW1  442   1.551   2.562   2.407
  883SOL    HW2  443   1.632   2.553   2.265
  886SOL     OW  444   1.587   2.641   3.532
  886SOL    HW1  445   1.495   2.679   3.527
  886SOL    HW2  446   1.647   2.688   3.467
  890SOL     OW  447   1.360   2.724   2.907
  890SOL    HW1  448   1.285   2.724   2.841
  890SOL    HW2  449   1.397   2.632   2.916
  891SOL     OW  450   1.209   2.387   2.137
  891SOL    HW1  451   1.222   2.303   2.191
  891SOL    HW2  452   1.180   2.461   2.197
  894SOL     OW  453   0.732   2.496   2.926
  894SOL    HW1  454   0.791   2.470   2.850
  894SOL    HW2  455   0.704   2.592   2.915
  895SOL     OW  456   1.728   2.797   3.716
  895SOL    HW1  457   1.682   2.790   3.627
  895SOL    HW2  458   1.666   2.841   3.782
  897SOL     OW  459   1.622   2.229   2.236
  897SOL    HW1  460   1.624   2.153   2.300
  897SOL    HW2  461   1.574   2.306   2.276
  898SOL     OW  462   1.023   2.628   2.828
  898SOL    HW1  463   1.038   2.649   2.924
  898SOL    HW2  464   0.993   2.533   2.819
  900SOL     OW  465   1.859   3.380   3.467
  900SOL    HW1  466   1.873   3.407   3.372
  900SOL    HW2  467   1.942   3.402   3.520
  902SOL     OW  468   1.540   2.136   1.987
  902SOL    HW1  469   1.479   2.061   2.010
  902SOL    HW2  470   1.562   2.188   2.070
  903SOL     OW  471   1.303   2.700   1.904
  903SOL    HW1  472   1.337   2.607   1.919
  903SOL    HW2  473   1.321   2.727   1.809
  904SOL     OW  474   1.068   3.195   2.711
  904SOL    HW1  475   1.075   3.111   2.656
  904SOL    HW2  476   1.130   3.264   2.675
  907SOL     OW  477   1.138   2.242   3.540
  907SOL    HW1  478   1.093   2.305   3.604
  907SOL    HW2  479   1.231   2.273   3.523
  908SOL     OW  480   1.160   2.069   3.339
  908SOL    HW1  481   1.160   2.133   3.416
  908SOL    HW2  482   1.188   2.117   3.256
  912SOL     OW  483   1.002   2.658   3.100
  912SOL    HW1  484   1.043   2.626   3.186
  912SOL    HW2  485   0.906   2.631   3.097
  915SOL     OW  486   1.369   2.812   3.522
  915SOL    HW1  487   1.408   2.901   3.542
  915SOL    HW2  488   1.379   2.792   3.425
  916SOL     OW  489   0.815   2.434   2.187
  916SOL    HW1  490   0.822   2.345   2.141
  916SOL    HW2  491   0.721   2.468   2.179
  917SOL     OW  492   1.657   2.466   3.068
  917SOL    HW1  493   1.619   2.397   3.130
  917SOL    HW2  494   1.739   2.430   3.024
  923SOL     OW  495   1.347   2.921   3.096
  923SOL    HW1  496   1.371   2.858   3.022
  923SOL    HW2  497   1.257   2.961   3.078
  924SOL     OW  498   1.302   2.717   2.171
  924SOL    HW1  499   1.216   2.686   2.213
  924SOL    HW2  500   1.298   2.703   2.072
  925SOL     OW  501   1.759   3.609   3.016
  925SOL    HW1  502   1.820   3.639   2.943
  925SOL    HW2  503   1.721   3.520   2.994
  926SOL     OW  504   1.252   3.593   2.990
  926SOL    HW1  505   1.336   3.598   2.936
  926SOL    HW2  506   1.229   3.497   3.008
  929SOL     OW  507   1.726   1.997   2.385
  929SOL    HW1  508   1.799   1.980   2.318
  929SOL    HW2  509   1.695   1.910   2.423
  930SOL     OW  510   1.388   3.435   2.339
  930SOL    HW1  511   1.455   3.447   2.265
  930SOL    HW2  512   1.348   3.524   2.362
  932SOL     OW  513   1.280   2.789   2.534
  932SOL    HW1  514   1.340   2.708   2.536
  932SOL    HW2  515   1.320   2.858   2.474
  935SOL     OW  516   1.650   3.582   3.256
  935SOL    HW1  517   1.703   3.592   3.172
  935SOL    HW2  518   1.623   3.672   3.290
  936SOL     OW  519   1.841   2.037   2.825
  936SOL    HW1  520   1.880   1.952   2.789
  936SOL    HW2  521   1.743   2.039   2.806
  938SOL     OW  522   1.194   3.474   1.893
  938SOL    HW1  523   1.200   3.381   1.930
  938SOL    HW2  524   1.135   3.474   1.813
  940SOL     OW  525   0.916   2.772   2.153
  940SOL    HW1  526   0.979   2.810   2.085
  940SOL    HW2  527   0.956   2.689   2.192
  941SOL     OW  528   1.504   3.469   1.906
  941SOL    HW1  529   1.412   3.506   1.913
  941SOL    HW2  530   1.542   3.489   1.816
  943SOL     OW  531   1.614   3.154   3.151
  943SOL    HW1  532   1.674   3.157   3.231
  943SOL    HW2  533   1.539   3.218   3.164
  944SOL     OW  534   1.039   2.960   2.558
  944SOL    HW1  535   0.969   2.913   2.612
  944SOL    HW2  536   1.098   2.892   2.515
  945SOL     OW  537   1.014   2.098   2.833
  945SOL    HW1  538   1.006   2.062   2.740
  945SOL    HW2  539   1.012   2.022   2.898
  947SOL     OW  540   1.709   2.247   3.243
  947SOL    HW1  541   1.782   2.316   3.247
  947SOL    HW2  542   1.737   2.172   3.184
  952SOL     OW  543   1.440   2.718   3.260
  952SOL    HW1  544   1.383   2.770   3.197
  952SOL    HW2  545   1.536   2.730   3.236
  954SOL     OW  546   1.183   3.197   1.981
  954SOL    HW1  547   1.084   3.186   1.983
  954SOL    HW2  548   1.217   3.212   2.074
  956SOL     OW  549   1.493   3.629   2.821
  956SOL    HW1  550   1.526   3.693   2.752
  956SOL    HW2  551   1.559   3.623   2.896
  958SOL     OW  552   1.450   3.082   3.495
  958SOL    HW1  553   1.441   3.072   3.594
  958SOL    HW2  554   1.546   3.075   3.469
  960SOL     OW  555   1.674   2.745   3.116
  960SOL    HW1  556   1.647   2.656   3.079
  960SOL    HW2  557   1.675   2.813   3.043
  961SOL     OW  558   1.225   2.187   2.311
  961SOL    HW1  559   1.290   2.113   2.300
  961SOL    HW2  560   1.245   2.237   2.395
  963SOL     OW  561   1.777   2.204   3.504
  963SOL    HW1  562   1.760   2.235   3.410
  963SOL    HW2  563   1.693   2.167   3.542
  964SOL     OW  564   1.730   2.796   3.379
  964SOL    HW1  565   1.768   2.887   3.394
  964SOL    HW2  566   1.722   2.779   3.280
  967SOL     OW  567   0.859   2.818   2.723
  967SOL    HW1  568   0.913   2.749   2.771
  967SOL    HW2  569   0.827   2.887   2.789
  968SOL     OW  570   1.083   2.846   1.949
  968SOL    HW1  571   1.060   2.899   1.867
  968SOL    HW2  572   1.164   2.790   1.930
  969SOL     OW  573   1.861   3.431   2.713
  969SOL    HW1  574   1.790   3.419   2.643
  969SOL    HW2  575   1.862   3.352   2.773
  973SOL     OW  576   1.824   2.054   3.089
  973SOL    HW1  577   1.820   1.964   3.133
  973SOL    HW2  578   1.827   2.043   2.990
  975SOL     OW  579   1.705   3.349   2.966
  975SOL    HW1  580   1.612   3.324   2.939
  975SOL    HW2  581   1.731   3.299   3.048
  978SOL     OW  582   1.424   2.076   2.974
  978SOL    HW1  583   1.476   2.011   3.029
  978SOL    HW2  584   1.375   2.139   3.035
  979SOL     OW  585   1.001   1.896   3.016
  979SOL    HW1  586   0.938   1.824   2.985
  979SOL    HW2  587   1.094   1.860   3.016
  982SOL     OW  588   1.352   1.914   2.030
  982SOL    HW1  589   1.387   1.873   1.946
  982SOL    HW2  590   1.262   1.876   2.050
  983SOL     OW  591   1.300   2.315   2.553
  983SOL    HW1  592   1.241   2.395   2.557
  983SOL    HW2  593   1.315   2.280   2.646
  984SOL     OW  594   1.593   2.083   2.744
  984SOL    HW1  595   1.509   2.082   2.798
  984SOL    HW2  596   1.595   2.166   2.688
  993SOL     OW  597   1.755   2.469   3.955
  993SOL    HW1  598   1.743   2.456   3.856
  993SOL    HW2  599   1.725   2.388   4.004
 1010SOL     OW  600   1.525   2.861   3.914
 1010SOL    HW1  601   1.462   2.785   3.927
 1010SOL    HW2  602   1.573   2.879   4.000
 1027SOL     OW  603   1.632   3.239   3.805
 1027SOL    HW1  604   1.600   3.333   3.795
 1027SOL    HW2  605   1.556   3.176   3.793
 1037SOL     OW  606   1.434   3.050   3.765
 1037SOL    HW1  607   1.466   2.974   3.822
 1037SOL    HW2  608   1.342   3.077   3.795
 1048SOL     OW  609   1.857   2.695   4.101
 1048SOL    HW1  610   1.899   2.631   4.165
 1048SOL    HW2  611   1.819   2.644   4.023
 1051SOL     OW  612   1.390   2.437   3.802
 1051SOL    HW1  613   1.336   2.416   3.883
 1051SOL    HW2  614   1.481   2.396   3.811
 1070SOL     OW  615   1.540   2.136   3.849
 1070SOL    HW1  616   1.479   2.061   3.872
 1070SOL    HW2  617   1.562   2.188   3.932
 1071SOL     OW  618   1.303   2.700   3.766
 1071SOL    HW1  619   1.337   2.607   3.781
 1071SOL    HW2  620   1.321   2.727   3.671
 1298SOL     OW  621   1.400   3.831   2.288
 1298SOL    HW1  622   1.376   3.794   2.198
 1298SOL    HW2  623   1.499   3.847   2.292
 1362SOL     OW  624   1.726   3.859   2.385
 1362SOL    HW1  625   1.799   3.842   2.318
 1362SOL    HW2  626   1.695   3.772   2.423
 1364SOL     OW  627   1.841   3.899   2.825
 1364SOL    HW1  628   1.880   3.814   2.789
 1364SOL    HW2  629   1.743   3.901   2.806
 1387SOL     OW  630   1.824   3.916   3.089
 1387SOL    HW1  631   1.820   3.826   3.133
 1387SOL    HW2  632   1.827   3.905   2.990
 1393SOL     OW  633   1.352   3.776   2.030
 1393SOL    HW1  634   1.387   3.735   1.946
 1393SOL    HW2  635   1.262   3.738   2.050
 1395SOL     OW  636   1.593   3.945   2.744
 1395SOL    HW1  637   1.509   3.944   2.798
 1395SOL    HW2  638   1.595   4.028   2.688
 1490SOL     OW  639   2.431   1.275   1.165
 1490SOL    HW1  640   2.338   1.268   1.128
 1490SOL    HW2  641   2.442   1.364   1.209
 1495SOL     OW  642   2.712   0.798   1.823
 1495SOL    HW1  643   2.708   0.874   1.888
 1495SOL    HW2  644   2.734   0.834   1.732
 1497SOL     OW  645   2.548   1.161   1.803
 1497SOL    HW1  646   2.608   1.240   1.817
 1497SOL    HW2  647   2.462   1.192   1.762
 1498SOL     OW  648   2.197   1.435   1.061
 1498SOL    HW1  649   2.119   1.404   1.008
 1498SOL    HW2  650   2.255   1.493   1.004
 1499SOL     OW  651   3.322   1.505   1.339
 1499SOL    HW1  652   3.346   1.599   1.365
 1499SOL    HW2  653   3.306   1.451   1.421
 1503SOL     OW  654   2.989   1.341   1.690
 1503SOL    HW1  655   3.036   1.341   1.778
 1503SOL    HW2  656   2.941   1.254   1.679
 1506SOL     OW  657   2.482   1.786   1.439
 1506SOL    HW1  658   2.390   1.769   1.474
 1506SOL    HW2  659   2.510   1.878   1.465
 1516SOL     OW  660   3.155   1.228   1.423
 1516SOL    HW1  661   3.192   1.155   1.365
 1516SOL    HW2  662   3.207   1.233   1.508
 1520SOL     OW  663   3.049   1.792   1.616
 1520SOL    HW1  664   3.073   1.852   1.540
 1520SOL    HW2  665   3.056   1.697   1.586
 1533SOL     OW  666   1.992   1.821   1.571
 1533SOL    HW1  667   1.982   1.806   1.670
 1533SOL    HW2  668   1.906   1.857   1.535
 1539SOL     OW  669   2.213   1.801   0.853
 1539SOL    HW1  670   2.263   1.715   0.859
 1539SOL    HW2  671   2.278   1.878   0.850
 1541SOL     OW  672   3.089   1.550   1.506
 1541SOL    HW1  673   3.095   1.473   1.570
 1541SOL    HW2  674   3.037   1.524   1.426
 1544SOL     OW  675   2.323   1.266   1.727
 1544SOL    HW1  676   2.273   1.267   1.641
 1544SOL    HW2  677   2.260   1.248   1.803
 1550SOL     OW  678   2.111   1.785   1.241
 1550SOL    HW1  679   2.168   1.720   1.291
 1550SOL    HW2  680   2.095   1.752   1.148
 1551SOL     OW  681   2.802   1.698   0.904
 1551SOL    HW1  682   2.882   1.641   0.925
 1551SOL    HW2  683   2.753   1.658   0.827
 1556SOL     OW  684   2.750   1.514   1.195
 1556SOL    HW1  685   2.727   1.489   1.101
 1556SOL    HW2  686   2.811   1.445   1.234
 1581SOL     OW  687   2.926   1.347   1.340
 1581SOL    HW1  688   2.846   1.324   1.395
 1581SOL    HW2  689   3.009   1.321   1.389
 1582SOL     OW  690   3.454   1.629   1.625
 1582SOL    HW1  691   3.481   1.663   1.535
 1582SOL    HW2  692   3.533   1.591   1.671
 1586SOL     OW  693   2.842   1.116   1.719
 1586SOL    HW1  694   2.743   1.122   1.729
 1586SOL    HW2  695   2.865   1.036   1.663
 1590SOL     OW  696   1.926   1.564   1.331
 1590SOL    HW1  697   1.880   1.646   1.297
 1590SOL    HW2  698   2.024   1.583   1.340
 1594SOL     OW  699   3.134   1.445   1.142
 1594SOL    HW1  700   3.181   1.458   1.229
 1594SOL    HW2  701   3.068   1.371   1.151
 1596SOL     OW  702   2.216   1.510   1.329
 1596SOL    HW1  703   2.195   1.466   1.242
 1596SOL    HW2  704   2.313   1.536   1.332
 1605SOL     OW  705   1.899   1.310   1.282
 1605SOL    HW1  706   1.952   1.261   1.350
 1605SOL    HW2  707   1.921   1.408   1.287
 1611SOL     OW  708   2.842   1.573   1.700
 1611SOL    HW1  709   2.822   1.617   1.612
 1611SOL    HW2  710   2.881   1.482   1.684
 1612SOL     OW  711   3.721   1.518   1.605
 1612SOL    HW1  712   3.735   1.545   1.510
 1612SOL    HW2  713   3.804   1.540   1.658
 1613SOL     OW  714   2.212   0.898   1.804
 1613SOL    HW1  715   2.288   0.942   1.852
 1613SOL    HW2  716   2.247   0.851   1.722
 1622SOL     OW  717   1.950   1.801   0.927
 1622SOL    HW1  718   1.908   1.715   0.900
 1622SOL    HW2  719   2.044   1.804   0.893
 1623SOL     OW  720   2.366   1.568   0.910
 1623SOL    HW1  721   2.432   1.642   0.919
 1623SOL    HW2  722   2.410   1.489   0.868
 1630SOL     OW  723   2.114   1.564   1.744
 1630SOL    HW1  724   2.084   1.621   1.820
 1630SOL    HW2  725   2.107   1.467   1.770
 1632SOL     OW  726   2.792   1.678   1.465
 1632SOL    HW1  727   2.768   1.660   1.370
 1632SOL    HW2  728   2.822   1.772   1.475
 1634SOL     OW  729   2.021   1.137   1.466
 1634SOL    HW1  730   2.043   1.076   1.542
 1634SOL    HW2  731   2.031   1.088   1.380
 1638SOL     OW  732   3.114   1.731   1.128
 1638SOL    HW1  733   3.198   1.736   1.074
 1638SOL    HW2  734   3.091   1.635   1.146
 1640SOL     OW  735   2.550   1.662   1.716
 1640SOL    HW1  736   2.494   1.743   1.725
 1640SOL    HW2  737   2.602   1.666   1.630
 1644SOL     OW  738   1.992   1.794   1.851
 1644SOL    HW1  739   1.951   1.720   1.904
 1644SOL    HW2  740   2.056   1.845   1.909
 1646SOL     OW  741   2.692   1.273   1.422
 1646SOL    HW1  742   2.687   1.306   1.517
 1646SOL    HW2  743   2.606   1.292   1.376
 1648SOL     OW  744   3.512   1.720   1.394
 1648SOL    HW1  745   3.565   1.730   1.310
 1648SOL    HW2  746   3.485   1.810   1.428
 1655SOL     OW  747   2.234   1.288   1.490
 1655SOL    HW1  748   2.221   1.381   1.456
 1655SOL    HW2  749   2.150   1.236   1.477
 1662SOL     OW  750   1.967   1.013   1.726
 1662SOL    HW1  751   1.890   0.980   1.780
 1662SOL    HW2  752   2.052   0.983   1.768
 1670SOL     OW  753   3.312   1.220   1.633
 1670SOL    HW1  754   3.303   1.210   1.732
 1670SOL    HW2  755   3.408   1.213   1.607
 1671SOL     OW  756   2.252   1.741   1.560
 1671SOL    HW1  757   2.161   1.782   1.558
 1671SOL    HW2  758   2.245   1.647   1.592
 1678SOL     OW  759   2.523   1.790   0.953
 1678SOL    HW1  760   2.477   1.878   0.940
 1678SOL    HW2  761   2.622   1.802   0.946
 1682SOL     OW  762   2.083   1.314   1.844
 1682SOL    HW1  763   2.018   1.241   1.823
 1682SOL    HW2  764   2.087   1.328   1.942
 1684SOL     OW  765   2.534   1.391   1.624
 1684SOL    HW1  766   2.456   1.341   1.662
 1684SOL    HW2  767   2.531   1.486   1.655
 1693SOL     OW  768   2.480   1.567   1.284
 1693SOL    HW1  769   2.475   1.649   1.341
 1693SOL    HW2  770   2.569   1.564   1.239
 1702SOL     OW  771   2.431   1.275   3.027
 1702SOL    HW1  772   2.338   1.268   2.990
 1702SOL    HW2  773   2.442   1.364   3.071
 1703SOL     OW  774   3.417   1.511   2.565
 1703SOL    HW1  775   3.360   1.495   2.646
 1703SOL    HW2  776   3.358   1.521   2.485
 1706SOL     OW  777   2.630   1.144   2.885
 1706SOL    HW1  778   2.552   1.161   2.945
 1706SOL    HW2  779   2.664   1.231   2.849
 1708SOL     OW  780   2.547   1.012   2.527
 1708SOL    HW1  781   2.616   0.996   2.597
 1708SOL    HW2  782   2.474   1.069   2.565
 1709SOL     OW  783   2.548   1.161   3.665
 1709SOL    HW1  784   2.608   1.240   3.679
 1709SOL    HW2  785   2.462   1.192   3.624
 1710SOL     OW  786   2.197   1.435   2.923
 1710SOL    HW1  787   2.119   1.404   2.870
 1710SOL    HW2  788   2.255   1.493   2.866
 1711SOL     OW  789   3.322   1.505   3.201
 1711SOL    HW1  790   3.346   1.599   3.227
 1711SOL    HW2  791   3.306   1.451   3.283
 1714SOL     OW  792   2.093   1.713   2.345
 1714SOL    HW1  793   2.127   1.790   2.399
 1714SOL    HW2  794   2.137   1.713   2.255
 1715SOL     OW  795   2.989   1.341   3.552
 1715SOL    HW1  796   3.036   1.341   3.640
 1715SOL    HW2  797   2.941   1.254   3.541
 1716SOL     OW  798   2.092   1.434   2.400
 1716SOL    HW1  799   2.066   1.530   2.400
 1716SOL    HW2  800   2.021   1.380   2.445
 1717SOL     OW  801   2.102   1.091   2.748
 1717SOL    HW1  802   2.116   1.007   2.800
 1717SOL    HW2  803   2.047   1.155   2.803
 1718SOL     OW  804   2.482   1.786   3.301
 1718SOL    HW1  805   2.390   1.769   3.336
 1718SOL    HW2  806   2.510   1.878   3.327
 1719SOL     OW  807   2.468   0.964   1.985
 1719SOL    HW1  808   2.475   1.048   1.931
 1719SOL    HW2  809   2.514   0.977   2.073
 1722SOL     OW  810   3.704   1.767   2.221
 1722SOL    HW1  811   3.758   1.738   2.301
 1722SOL    HW2  812   3.734   1.857   2.192
 1723SOL     OW  813   1.889   1.596   1.979
 1723SOL    HW1  814   1.870   1.500   2.000
 1723SOL    HW2  815   1.856   1.654   2.054
 1725SOL     OW  816   3.503   1.108   2.294
 1725SOL    HW1  817   3.589   1.110   2.242
 1725SOL    HW2  818   3.517   1.155   2.382
 1727SOL     OW  819   2.475   1.365   2.588
 1727SOL    HW1  820   2.426   1.278   2.597
 1727SOL    HW2  821   2.452   1.408   2.501
 1728SOL     OW  822   3.155   1.228   3.285
 1728SOL    HW1  823   3.192   1.155   3.227
 1728SOL    HW2  824   3.207   1.233   3.370
 1730SOL     OW  825   2.059   0.976   3.126
 1730SOL    HW1  826   2.148   0.931   3.112
 1730SOL    HW2  827   1.986   0.911   3.107
 1731SOL     OW  828   3.387   0.999   2.052
 1731SOL    HW1  829   3.324   0.923   2.065
 1731SOL    HW2  830   3.435   1.017   2.138
 1732SOL     OW  831   3.049   1.792   3.478
 1732SOL    HW1  832   3.073   1.852   3.402
 1732SOL    HW2  833   3.056   1.697   3.448
 1734SOL     OW  834   3.328   1.417   2.815
 1734SOL    HW1  835   3.269   1.423   2.895
 1734SOL    HW2  836   3.313   1.329   2.769
 1735SOL     OW  837   3.529   1.714   2.434
 1735SOL    HW1  838   3.488   1.691   2.346
 1735SOL    HW2  839   3.511   1.640   2.499
 1736SOL     OW  840   2.460   0.729   2.132
 1736SOL    HW1  841   2.484   0.798   2.064
 1736SOL    HW2  842   2.382   0.762   2.186
 1738SOL     OW  843   3.438   1.662   2.169
 1738SOL    HW1  844   3.527   1.708   2.172
 1738SOL    HW2  845   3.417   1.638   2.074
 1744SOL     OW  846   1.938   0.811   2.651
 1744SOL    HW1  847   2.037   0.799   2.660
 1744SOL    HW2  848   1.914   0.906   2.672
 1745SOL     OW  849   1.992   1.821   3.433
 1745SOL    HW1  850   1.982   1.806   3.532
 1745SOL    HW2  851   1.906   1.857   3.397
 1748SOL     OW  852   3.224   1.144   2.407
 1748SOL    HW1  853   3.307   1.115   2.359
 1748SOL    HW2  854   3.175   1.211   2.351
 1750SOL     OW  855   2.870   1.456   2.339
 1750SOL    HW1  856   2.824   1.528   2.287
 1750SOL    HW2  857   2.866   1.476   2.437
 1751SOL     OW  858   2.213   1.801   2.715
 1751SOL    HW1  859   2.263   1.715   2.721
 1751SOL    HW2  860   2.278   1.878   2.712
 1753SOL     OW  861   3.089   1.550   3.368
 1753SOL    HW1  862   3.095   1.473   3.432
 1753SOL    HW2  863   3.037   1.524   3.288
 1754SOL     OW  864   2.183   0.943   2.104
 1754SOL    HW1  865   2.265   0.982   2.062
 1754SOL    HW2  866   2.156   0.861   2.055
 1756SOL     OW  867   2.323   1.266   3.589
 1756SOL    HW1  868   2.273   1.267   3.503
 1756SOL    HW2  869   2.260   1.248   3.665
 1757SOL     OW  870   2.973   1.776   2.099
 1757SOL    HW1  871   2.913   1.714   2.149
 1757SOL    HW2  872   3.004   1.732   2.014
 1759SOL     OW  873   3.494   1.377   1.943
 1759SOL    HW1  874   3.462   1.471   1.933
 1759SOL    HW2  875   3.418   1.314   1.931
 1760SOL     OW  876   2.326   1.743   2.185
 1760SOL    HW1  877   2.359   1.782   2.271
 1760SOL    HW2  878   2.402   1.736   2.120
 1762SOL     OW  879   2.111   1.785   3.103
 1762SOL    HW1  880   2.168   1.720   3.153
 1762SOL    HW2  881   2.095   1.752   3.010
 1763SOL     OW  882   2.802   1.698   2.766
 1763SOL    HW1  883   2.882   1.641   2.787
 1763SOL    HW2  884   2.753   1.658   2.689
 1764SOL     OW  885   2.244   0.700   2.342
 1764SOL    HW1  886   2.289   0.610   2.339
 1764SOL    HW2  887   2.150   0.689   2.375
 1768SOL     OW  888   2.750   1.514   3.057
 1768SOL    HW1  889   2.727   1.489   2.963
 1768SOL    HW2  890   2.811   1.445   3.096
 1770SOL     OW  891   2.665   1.402   2.786
 1770SOL    HW1  892   2.755   1.416   2.744
 1770SOL    HW2  893   2.594   1.404   2.715
 1773SOL     OW  894   3.296   1.188   1.903
 1773SOL    HW1  895   3.328   1.112   1.960
 1773SOL    HW2  896   3.204   1.215   1.933
 1777SOL     OW  897   3.089   1.570   2.655
 1777SOL    HW1  898   3.110   1.644   2.590
 1777SOL    HW2  899   3.157   1.570   2.728
 1778SOL     OW  900   2.321   1.152   2.603
 1778SOL    HW1  901   2.250   1.125   2.668
 1778SOL    HW2  902   2.295   1.124   2.510
 1779SOL     OW  903   3.133   1.797   2.453
 1779SOL    HW1  904   3.177   1.861   2.389
 1779SOL    HW2  905   3.083   1.849   2.523
 1785SOL     OW  906   3.291   1.173   2.729
 1785SOL    HW1  907   3.236   1.089   2.722
 1785SOL    HW2  908   3.317   1.202   2.637
 1788SOL     OW  909   2.350   1.385   2.036
 1788SOL    HW1  910   2.263   1.370   2.083
 1788SOL    HW2  911   2.333   1.411   1.941
 1789SOL     OW  912   3.526   1.280   2.519
 1789SOL    HW1  913   3.625   1.288   2.533
 1789SOL    HW2  914   3.481   1.364   2.550
 1793SOL     OW  915   2.926   1.347   3.202
 1793SOL    HW1  916   2.846   1.324   3.257
 1793SOL    HW2  917   3.009   1.321   3.251
 1794SOL     OW  918   3.454   1.629   3.487
 1794SOL    HW1  919   3.481   1.663   3.397
 1794SOL    HW2  920   3.533   1.591   3.533
 1795SOL     OW  921   2.973   1.195   2.962
 1795SOL    HW1  922   2.933   1.239   3.043
 1795SOL    HW2  923   2.932   1.232   2.879
 1796SOL     OW  924   3.500   1.099   2.941
 1796SOL    HW1  925   3.505   1.180   3.000
 1796SOL    HW2  926   3.414   1.101   2.890
 1798SOL     OW  927   2.842   1.116   3.581
 1798SOL    HW1  928   2.743   1.122   3.591
 1798SOL    HW2  929   2.865   1.036   3.525
 1799SOL     OW  930   2.567   1.050   2.230
 1799SOL    HW1  931   2.553   1.057   2.329
 1799SOL    HW2  932   2.651   0.999   2.212
 1800SOL     OW  933   2.272   0.813   3.113
 1800SOL    HW1  934   2.358   0.825   3.163
 1800SOL    HW2  935   2.230   0.726   3.140
 1802SOL     OW  936   1.926   1.564   3.193
 1802SOL    HW1  937   1.880   1.646   3.159
 1802SOL    HW2  938   2.024   1.583   3.202
 1803SOL     OW  939   2.229   1.100   2.363
 1803SOL    HW1  940   2.222   1.183   2.307
 1803SOL    HW2  941   2.233   1.020   2.303
 1805SOL     OW  942   3.114   1.348   2.250
 1805SOL    HW1  943   3.164   1.425   2.290
 1805SOL    HW2  944   3.019   1.350   2.282
 1806SOL     OW  945   3.134   1.445   3.004
 1806SOL    HW1  946   3.181   1.458   3.091
 1806SOL    HW2  947   3.068   1.371   3.013
 1808SOL     OW  948   2.216   1.510   3.191
 1808SOL    HW1  949   2.195   1.466   3.104
 1808SOL    HW2  950   2.313   1.536   3.194
 1813SOL     OW  951   2.435   0.870   2.891
 1813SOL    HW1  952   2.479   0.959   2.882
 1813SOL    HW2  953   2.372   0.870   2.968
 1817SOL     OW  954   1.899   1.310   3.144
 1817SOL    HW1  955   1.952   1.261   3.212
 1817SOL    HW2  956   1.921   1.408   3.149
 1822SOL     OW  957   2.885   0.766   2.828
 1822SOL    HW1  958   2.900   0.787   2.924
 1822SOL    HW2  959   2.855   0.671   2.819
 1823SOL     OW  960   2.842   1.573   3.562
 1823SOL    HW1  961   2.822   1.617   3.474
 1823SOL    HW2  962   2.881   1.482   3.546
 1828SOL     OW  963   2.930   1.333   2.711
 1828SOL    HW1  964   2.937   1.249   2.656
 1828SOL    HW2  965   2.992   1.402   2.675
 1829SOL     OW  966   2.181   0.810   2.811
 1829SOL    HW1  967   2.274   0.846   2.816
 1829SOL    HW2  968   2.175   0.725   2.863
 1833SOL     OW  969   1.870   1.326   2.062
 1833SOL    HW1  970   1.777   1.347   2.031
 1833SOL    HW2  971   1.880   1.227   2.075
 1834SOL     OW  972   1.950   1.801   2.789
 1834SOL    HW1  973   1.908   1.715   2.762
 1834SOL    HW2  974   2.044   1.804   2.755
 1835SOL     OW  975   2.366   1.568   2.772
 1835SOL    HW1  976   2.432   1.642   2.781
 1835SOL    HW2  977   2.410   1.489   2.730
 1842SOL     OW  978   2.114   1.564   3.606
 1842SOL    HW1  979   2.084   1.621   3.682
 1842SOL    HW2  980   2.107   1.467   3.632
 1844SOL     OW  981   2.792   1.678   3.327
 1844SOL    HW1  982   2.768   1.660   3.232
 1844SOL    HW2  983   2.822   1.772   3.337
 1846SOL     OW  984   2.021   1.137   3.328
 1846SOL    HW1  985   2.043   1.076   3.404
 1846SOL    HW2  986   2.031   1.088   3.242
 1847SOL     OW  987   3.209   1.059   3.096
 1847SOL    HW1  988   3.233   0.996   3.022
 1847SOL    HW2  989   3.119   1.099   3.078
 1848SOL     OW  990   3.164   0.855   2.171
 1848SOL    HW1  991   3.078   0.824   2.213
 1848SOL    HW2  992   3.160   0.841   2.072
 1849SOL     OW  993   3.621   1.747   3.016
 1849SOL    HW1  994   3.682   1.777   2.943
 1849SOL    HW2  995   3.583   1.658   2.994
 1850SOL     OW  996   3.114   1.731   2.990
 1850SOL    HW1  997   3.198   1.736   2.936
 1850SOL    HW2  998   3.091   1.635   3.008
 1851SOL     OW  999   1.945   1.258   2.884
 1851SOL    HW1 1000   1.940   1.257   2.984
 1851SOL    HW2 1001   1.862   1.217   2.846
 1852SOL     OW 1002   2.550   1.662   3.578
 1852SOL    HW1 1003   2.494   1.743   3.587
 1852SOL    HW2 1004   2.602   1.666   3.492
 1854SOL     OW 1005   3.250   1.573   2.339
 1854SOL    HW1 1006   3.317   1.585   2.265
 1854SOL    HW2 1007   3.210   1.662   2.362
 1855SOL     OW 1008   1.992   1.794   3.713
 1855SOL    HW1 1009   1.951   1.720   3.766
 1855SOL    HW2 1010   2.056   1.845   3.771
 1856SOL     OW 1011   3.142   0.927   2.534
 1856SOL    HW1 1012   3.202   0.846   2.536
 1856SOL    HW2 1013   3.182   0.996   2.474
 1857SOL     OW 1014   2.692   1.273   3.284
 1857SOL    HW1 1015   2.687   1.306   3.379
 1857SOL    HW2 1016   2.606   1.292   3.238
 1858SOL     OW 1017   2.534   1.616   2.016
 1858SOL    HW1 1018   2.543   1.626   1.917
 1858SOL    HW2 1019   2.494   1.527   2.037
 1859SOL     OW 1020   3.512   1.720   3.256
 1859SOL    HW1 1021   3.565   1.730   3.172
 1859SOL    HW2 1022   3.485   1.810   3.290
 1862SOL     OW 1023   3.056   1.612   1.893
 1862SOL    HW1 1024   3.062   1.519   1.930
 1862SOL    HW2 1025   2.997   1.612   1.813
 1863SOL     OW 1026   2.684   1.002   3.234
 1863SOL    HW1 1027   2.724   1.001   3.142
 1863SOL    HW2 1028   2.694   1.094   3.274
 1864SOL     OW 1029   2.778   0.910   2.153
 1864SOL    HW1 1030   2.841   0.948   2.085
 1864SOL    HW2 1031   2.818   0.827   2.192
 1865SOL     OW 1032   3.366   1.607   1.906
 1865SOL    HW1 1033   3.274   1.644   1.913
 1865SOL    HW2 1034   3.404   1.627   1.816
 1866SOL     OW 1035   2.234   1.288   3.352
 1866SOL    HW1 1036   2.221   1.381   3.318
 1866SOL    HW2 1037   2.150   1.236   3.339
 1867SOL     OW 1038   3.476   1.292   3.151
 1867SOL    HW1 1039   3.536   1.295   3.231
 1867SOL    HW2 1040   3.401   1.356   3.164
 1868SOL     OW 1041   2.901   1.098   2.558
 1868SOL    HW1 1042   2.831   1.051   2.612
 1868SOL    HW2 1043   2.960   1.030   2.515
 1870SOL     OW 1044   2.452   1.487   2.353
 1870SOL    HW1 1045   2.494   1.429   2.283
 1870SOL    HW2 1046   2.408   1.566   2.309
 1872SOL     OW 1047   2.117   1.348   2.152
 1872SOL    HW1 1048   2.021   1.349   2.125
 1872SOL    HW2 1049   2.129   1.401   2.236
 1878SOL     OW 1050   3.045   1.335   1.981
 1878SOL    HW1 1051   2.946   1.324   1.983
 1878SOL    HW2 1052   3.079   1.350   2.074
 1880SOL     OW 1053   3.355   1.767   2.821
 1880SOL    HW1 1054   3.388   1.831   2.752
 1880SOL    HW2 1055   3.421   1.761   2.896
 1883SOL     OW 1056   2.252   1.741   3.422
 1883SOL    HW1 1057   2.161   1.782   3.420
 1883SOL    HW2 1058   2.245   1.647   3.454
 1886SOL     OW 1059   2.456   0.745   2.514
 1886SOL    HW1 1060   2.506   0.830   2.495
 1886SOL    HW2 1061   2.368   0.747   2.466
 1889SOL     OW 1062   2.721   1.374   1.878
 1889SOL    HW1 1063   2.675   1.389   1.966
 1889SOL    HW2 1064   2.765   1.459   1.848
 1890SOL     OW 1065   2.523   1.790   2.815
 1890SOL    HW1 1066   2.477   1.878   2.802
 1890SOL    HW2 1067   2.622   1.802   2.808
 1891SOL     OW 1068   2.721   0.956   2.723
 1891SOL    HW1 1069   2.775   0.887   2.771
 1891SOL    HW2 1070   2.689   1.025   2.789
 1892SOL     OW 1071   2.945   0.984   1.949
 1892SOL    HW1 1072   2.922   1.037   1.867
 1892SOL    HW2 1073   3.026   0.928   1.930
 1893SOL     OW 1074   3.723   1.569   2.713
 1893SOL    HW1 1075   3.652   1.557   2.643
 1893SOL    HW2 1076   3.724   1.490   2.773
 1894SOL     OW 1077   2.083   1.314   3.706
 1894SOL    HW1 1078   2.018   1.241   3.685
 1894SOL    HW2 1079   2.087   1.328   3.804
 1895SOL     OW 1080   1.941   1.240   2.515
 1895SOL    HW1 1081   1.940   1.193   2.603
 1895SOL    HW2 1082   2.023   1.212   2.464
 1896SOL     OW 1083   2.534   1.391   3.486
 1896SOL    HW1 1084   2.456   1.341   3.524
 1896SOL    HW2 1085   2.531   1.486   3.517
 1899SOL     OW 1086   3.567   1.487   2.966
 1899SOL    HW1 1087   3.474   1.462   2.939
 1899SOL    HW2 1088   3.593   1.437   3.048
 1901SOL     OW 1089   2.674   1.586   2.549
 1901SOL    HW1 1090   2.706   1.596   2.455
 1901SOL    HW2 1091   2.595   1.524   2.551
 1904SOL     OW 1092   2.632   1.330   2.163
 1904SOL    HW1 1093   2.586   1.243   2.180
 1904SOL    HW2 1094   2.723   1.327   2.204
 1905SOL     OW 1095   2.480   1.567   3.146
 1905SOL    HW1 1096   2.475   1.649   3.203
 1905SOL    HW2 1097   2.569   1.564   3.101
 1909SOL     OW 1098   1.901   1.077   2.162
 1909SOL    HW1 1099   2.000   1.066   2.153
 1909SOL    HW2 1100   1.861   0.991   2.194
 1910SOL     OW 1101   2.737   1.646   2.199
 1910SOL    HW1 1102   2.660   1.611   2.145
 1910SOL    HW2 1103   2.705   1.717   2.261
 1928SOL     OW 1104   1.889   1.596   3.841
 1928SOL    HW1 1105   1.870   1.500   3.862
 1928SOL    HW2 1106   1.856   1.654   3.916
 1950SOL     OW 1107   2.973   1.776   3.961
 1950SOL    HW1 1108   2.913   1.714   4.011
 1950SOL    HW2 1109   3.004   1.732   3.876
 1952SOL     OW 1110   2.326   1.743   4.047
 1952SOL    HW1 1111   2.359   1.782   4.133
 1952SOL    HW2 1112   2.402   1.736   3.982
 1973SOL     OW 1113   2.350   1.385   3.898
 1973SOL    HW1 1114   2.263   1.370   3.945
 1973SOL    HW2 1115   2.333   1.411   3.803
 2013SOL     OW 1116   2.534   1.616   3.878
 2013SOL    HW1 1117   2.543   1.626   3.779
 2013SOL    HW2 1118   2.494   1.527   3.899
 2016SOL     OW 1119   3.056   1.612   3.755
 2016SOL    HW1 1120   3.062   1.519   3.792
 2016SOL    HW2 1121   2.997   1.612   3.675
 2031SOL     OW 1122   2.721   1.374   3.740
 2031SOL    HW1 1123   2.675   1.389   3.828
 2031SOL    HW2 1124   2.765   1.459   3.710
 2048SOL     OW 1125   2.087   2.137   0.996
 2048SOL    HW1 1126   2.122   2.120   1.088
 2048SOL    HW2 1127   1.999   2.092   0.984
 2050SOL     OW 1128   2.431   3.137   1.165
 2050SOL    HW1 1129   2.338   3.130   1.128
 2050SOL    HW2 1130   2.442   3.226   1.209
 2054SOL     OW 1131   2.630   3.006   1.023
 2054SOL    HW1 1132   2.552   3.023   1.083
 2054SOL    HW2 1133   2.664   3.093   0.987
 2055SOL     OW 1134   2.712   2.660   1.823
 2055SOL    HW1 1135   2.708   2.736   1.888
 2055SOL    HW2 1136   2.734   2.696   1.732
 2057SOL     OW 1137   2.548   3.023   1.803
 2057SOL    HW1 1138   2.608   3.102   1.817
 2057SOL    HW2 1139   2.462   3.054   1.762
 2058SOL     OW 1140   2.197   3.297   1.061
 2058SOL    HW1 1141   2.119   3.266   1.008
 2058SOL    HW2 1142   2.255   3.355   1.004
 2059SOL     OW 1143   3.322   3.367   1.339
 2059SOL    HW1 1144   3.346   3.461   1.365
 2059SOL    HW2 1145   3.306   3.313   1.421
 2060SOL     OW 1146   2.300   2.254   1.499
 2060SOL    HW1 1147   2.382   2.198   1.508
 2060SOL    HW2 1148   2.219   2.196   1.503
 2063SOL     OW 1149   2.989   3.203   1.690
 2063SOL    HW1 1150   3.036   3.203   1.778
 2063SOL    HW2 1151   2.941   3.116   1.679
 2065SOL     OW 1152   2.102   2.953   0.886
 2065SOL    HW1 1153   2.116   2.869   0.938
 2065SOL    HW2 1154   2.047   3.017   0.941
 2066SOL     OW 1155   2.482   3.648   1.439
 2066SOL    HW1 1156   2.390   3.631   1.474
 2066SOL    HW2 1157   2.510   3.740   1.465
 2068SOL     OW 1158   3.456   1.976   1.480
 2068SOL    HW1 1159   3.438   2.043   1.408
 2068SOL    HW2 1160   3.453   2.022   1.569
 2074SOL     OW 1161   1.975   2.599   1.597
 2074SOL    HW1 1162   2.063   2.586   1.642
 2074SOL    HW2 1163   1.962   2.696   1.575
 2076SOL     OW 1164   3.155   3.090   1.423
 2076SOL    HW1 1165   3.192   3.017   1.365
 2076SOL    HW2 1166   3.207   3.095   1.508
 2078SOL     OW 1167   2.059   2.838   1.264
 2078SOL    HW1 1168   2.148   2.793   1.250
 2078SOL    HW2 1169   1.986   2.773   1.245
 2080SOL     OW 1170   3.049   3.654   1.616
 2080SOL    HW1 1171   3.073   3.714   1.540
 2080SOL    HW2 1172   3.056   3.559   1.586
 2081SOL     OW 1173   2.179   2.113   1.801
 2081SOL    HW1 1174   2.250   2.184   1.807
 2081SOL    HW2 1175   2.091   2.152   1.829
 2085SOL     OW 1176   3.143   2.207   0.944
 2085SOL    HW1 1177   3.057   2.157   0.931
 2085SOL    HW2 1178   3.205   2.153   1.000
 2087SOL     OW 1179   2.669   2.467   1.465
 2087SOL    HW1 1180   2.622   2.464   1.554
 2087SOL    HW2 1181   2.618   2.412   1.399
 2088SOL     OW 1182   3.256   2.331   1.674
 2088SOL    HW1 1183   3.236   2.374   1.762
 2088SOL    HW2 1184   3.334   2.269   1.683
 2089SOL     OW 1185   2.835   2.752   1.572
 2089SOL    HW1 1186   2.881   2.668   1.543
 2089SOL    HW2 1187   2.779   2.786   1.497
 2090SOL     OW 1188   2.853   2.272   1.242
 2090SOL    HW1 1189   2.776   2.306   1.296
 2090SOL    HW2 1190   2.819   2.221   1.163
 2092SOL     OW 1191   1.938   2.673   0.789
 2092SOL    HW1 1192   2.037   2.661   0.798
 2092SOL    HW2 1193   1.914   2.768   0.810
 2093SOL     OW 1194   1.992   3.683   1.571
 2093SOL    HW1 1195   1.982   3.668   1.670
 2093SOL    HW2 1196   1.906   3.719   1.535
 2095SOL     OW 1197   3.581   2.447   1.831
 2095SOL    HW1 1198   3.555   2.536   1.795
 2095SOL    HW2 1199   3.579   2.379   1.758
 2097SOL     OW 1200   2.412   2.058   0.885
 2097SOL    HW1 1201   2.407   2.053   0.985
 2097SOL    HW2 1202   2.414   2.154   0.856
 2101SOL     OW 1203   3.089   3.412   1.506
 2101SOL    HW1 1204   3.095   3.335   1.570
 2101SOL    HW2 1205   3.037   3.386   1.426
 2104SOL     OW 1206   2.323   3.128   1.727
 2104SOL    HW1 1207   2.273   3.129   1.641
 2104SOL    HW2 1208   2.260   3.110   1.803
 2106SOL     OW 1209   2.064   2.147   1.498
 2106SOL    HW1 1210   1.984   2.207   1.485
 2106SOL    HW2 1211   2.054   2.098   1.584
 2110SOL     OW 1212   2.111   3.647   1.241
 2110SOL    HW1 1213   2.168   3.582   1.291
 2110SOL    HW2 1214   2.095   3.614   1.148
 2113SOL     OW 1215   3.409   2.084   1.729
 2113SOL    HW1 1216   3.404   2.121   1.821
 2113SOL    HW2 1217   3.337   2.015   1.717
 2115SOL     OW 1218   2.643   2.126   1.749
 2115SOL    HW1 1219   2.710   2.065   1.792
 2115SOL    HW2 1220   2.570   2.145   1.814
 2116SOL     OW 1221   2.750   3.376   1.195
 2116SOL    HW1 1222   2.727   3.351   1.101
 2116SOL    HW2 1223   2.811   3.307   1.234
 2117SOL     OW 1224   3.213   2.452   1.433
 2117SOL    HW1 1225   3.241   2.409   1.518
 2117SOL    HW2 1226   3.238   2.548   1.434
 2118SOL     OW 1227   2.665   3.264   0.924
 2118SOL    HW1 1228   2.755   3.278   0.882
 2118SOL    HW2 1229   2.594   3.266   0.853
 2119SOL     OW 1230   2.784   2.365   0.899
 2119SOL    HW1 1231   2.759   2.356   0.803
 2119SOL    HW2 1232   2.832   2.283   0.930
 2124SOL     OW 1233   2.938   2.545   1.464
 2124SOL    HW1 1234   2.858   2.484   1.467
 2124SOL    HW2 1235   3.019   2.492   1.440
 2129SOL     OW 1236   1.940   2.418   1.386
 2129SOL    HW1 1237   2.032   2.417   1.345
 2129SOL    HW2 1238   1.934   2.492   1.453
 2130SOL     OW 1239   2.423   2.084   1.147
 2130SOL    HW1 1240   2.461   2.000   1.184
 2130SOL    HW2 1241   2.335   2.103   1.191
 2134SOL     OW 1242   3.328   2.452   0.992
 2134SOL    HW1 1243   3.298   2.357   0.999
 2134SOL    HW2 1244   3.401   2.468   1.058
 2140SOL     OW 1245   3.616   3.085   1.588
 2140SOL    HW1 1246   3.707   3.046   1.575
 2140SOL    HW2 1247   3.624   3.181   1.612
 2141SOL     OW 1248   2.926   3.209   1.340
 2141SOL    HW1 1249   2.846   3.186   1.395
 2141SOL    HW2 1250   3.009   3.183   1.389
 2142SOL     OW 1251   3.454   3.491   1.625
 2142SOL    HW1 1252   3.481   3.525   1.535
 2142SOL    HW2 1253   3.533   3.453   1.671
 2143SOL     OW 1254   2.973   3.057   1.100
 2143SOL    HW1 1255   2.933   3.101   1.181
 2143SOL    HW2 1256   2.932   3.094   1.017
 2145SOL     OW 1257   2.777   1.951   1.402
 2145SOL    HW1 1258   2.802   1.931   1.307
 2145SOL    HW2 1259   2.849   2.007   1.444
 2146SOL     OW 1260   2.842   2.978   1.719
 2146SOL    HW1 1261   2.743   2.984   1.729
 2146SOL    HW2 1262   2.865   2.898   1.663
 2148SOL     OW 1263   2.272   2.675   1.251
 2148SOL    HW1 1264   2.358   2.687   1.301
 2148SOL    HW2 1265   2.230   2.588   1.278
 2149SOL     OW 1266   3.136   2.248   1.262
 2149SOL    HW1 1267   3.157   2.322   1.326
 2149SOL    HW2 1268   3.047   2.265   1.219
 2150SOL     OW 1269   1.926   3.426   1.331
 2150SOL    HW1 1270   1.880   3.508   1.297
 2150SOL    HW2 1271   2.024   3.445   1.340
 2152SOL     OW 1272   2.428   2.399   0.865
 2152SOL    HW1 1273   2.440   2.465   0.791
 2152SOL    HW2 1274   2.474   2.433   0.948
 2154SOL     OW 1275   3.134   3.307   1.142
 2154SOL    HW1 1276   3.181   3.320   1.229
 2154SOL    HW2 1277   3.068   3.233   1.151
 2156SOL     OW 1278   2.216   3.372   1.329
 2156SOL    HW1 1279   2.195   3.328   1.242
 2156SOL    HW2 1280   2.313   3.398   1.332
 2157SOL     OW 1281   2.264   2.613   1.598
 2157SOL    HW1 1282   2.332   2.668   1.551
 2157SOL    HW2 1283   2.304   2.525   1.625
 2158SOL     OW 1284   3.449   2.641   1.670
 2158SOL    HW1 1285   3.357   2.679   1.665
 2158SOL    HW2 1286   3.509   2.688   1.605
 2159SOL     OW 1287   2.875   1.967   1.770
 2159SOL    HW1 1288   2.881   2.052   1.718
 2159SOL    HW2 1289   2.907   1.891   1.713
 2160SOL     OW 1290   2.366   1.912   1.740
 2160SOL    HW1 1291   2.324   1.855   1.670
 2160SOL    HW2 1292   2.300   1.981   1.772
 2161SOL     OW 1293   2.435   2.732   1.029
 2161SOL    HW1 1294   2.479   2.821   1.020
 2161SOL    HW2 1295   2.372   2.732   1.106
 2162SOL     OW 1296   3.222   2.724   1.045
 2162SOL    HW1 1297   3.147   2.724   0.979
 2162SOL    HW2 1298   3.259   2.632   1.054
 2164SOL     OW 1299   2.169   2.075   1.231
 2164SOL    HW1 1300   2.146   2.112   1.321
 2164SOL    HW2 1301   2.139   1.980   1.225
 2165SOL     OW 1302   1.899   3.172   1.282
 2165SOL    HW1 1303   1.952   3.123   1.350
 2165SOL    HW2 1304   1.921   3.270   1.287
 2166SOL     OW 1305   2.594   2.496   1.064
 2166SOL    HW1 1306   2.653   2.470   0.988
 2166SOL    HW2 1307   2.566   2.592   1.053
 2167SOL     OW 1308   3.590   2.797   1.854
 2167SOL    HW1 1309   3.544   2.790   1.765
 2167SOL    HW2 1310   3.528   2.841   1.920
 2170SOL     OW 1311   2.885   2.628   0.966
 2170SOL    HW1 1312   2.900   2.649   1.062
 2170SOL    HW2 1313   2.855   2.533   0.957
 2171SOL     OW 1314   2.842   3.435   1.700
 2171SOL    HW1 1315   2.822   3.479   1.612
 2171SOL    HW2 1316   2.881   3.344   1.684
 2172SOL     OW 1317   3.721   3.380   1.605
 2172SOL    HW1 1318   3.735   3.407   1.510
 2172SOL    HW2 1319   3.804   3.402   1.658
 2173SOL     OW 1320   2.212   2.760   1.804
 2173SOL    HW1 1321   2.288   2.804   1.852
 2173SOL    HW2 1322   2.247   2.713   1.722
 2177SOL     OW 1323   2.181   2.672   0.949
 2177SOL    HW1 1324   2.274   2.708   0.954
 2177SOL    HW2 1325   2.175   2.587   1.001
 2178SOL     OW 1326   2.201   2.371   1.006
 2178SOL    HW1 1327   2.149   2.288   0.989
 2178SOL    HW2 1328   2.278   2.376   0.942
 2179SOL     OW 1329   3.000   2.242   1.678
 2179SOL    HW1 1330   2.955   2.305   1.742
 2179SOL    HW2 1331   3.093   2.273   1.661
 2180SOL     OW 1332   3.022   2.069   1.477
 2180SOL    HW1 1333   3.022   2.133   1.554
 2180SOL    HW2 1334   3.050   2.117   1.394
 2184SOL     OW 1335   2.864   2.658   1.238
 2184SOL    HW1 1336   2.905   2.626   1.324
 2184SOL    HW2 1337   2.768   2.631   1.235
 2185SOL     OW 1338   1.902   2.406   1.114
 2185SOL    HW1 1339   1.987   2.373   1.073
 2185SOL    HW2 1340   1.915   2.421   1.212
 2186SOL     OW 1341   2.051   2.382   1.722
 2186SOL    HW1 1342   2.110   2.342   1.652
 2186SOL    HW2 1343   1.993   2.453   1.681
 2187SOL     OW 1344   3.231   2.812   1.660
 2187SOL    HW1 1345   3.270   2.901   1.680
 2187SOL    HW2 1346   3.241   2.792   1.563
 2189SOL     OW 1347   3.519   2.466   1.206
 2189SOL    HW1 1348   3.481   2.397   1.268
 2189SOL    HW2 1349   3.601   2.430   1.162
 2190SOL     OW 1350   2.114   3.426   1.744
 2190SOL    HW1 1351   2.084   3.483   1.820
 2190SOL    HW2 1352   2.107   3.329   1.770
 2191SOL     OW 1353   2.533   2.326   1.269
 2191SOL    HW1 1354   2.499   2.237   1.239
 2191SOL    HW2 1355   2.559   2.380   1.189
 2192SOL     OW 1356   2.792   3.540   1.465
 2192SOL    HW1 1357   2.768   3.522   1.370
 2192SOL    HW2 1358   2.822   3.634   1.475
 2194SOL     OW 1359   2.021   2.999   1.466
 2194SOL    HW1 1360   2.043   2.938   1.542
 2194SOL    HW2 1361   2.031   2.950   1.380
 2195SOL     OW 1362   3.209   2.921   1.234
 2195SOL    HW1 1363   3.233   2.858   1.160
 2195SOL    HW2 1364   3.119   2.961   1.216
 2199SOL     OW 1365   1.945   3.120   1.022
 2199SOL    HW1 1366   1.940   3.119   1.122
 2199SOL    HW2 1367   1.862   3.079   0.984
 2200SOL     OW 1368   2.550   3.524   1.716
 2200SOL    HW1 1369   2.494   3.605   1.725
 2200SOL    HW2 1370   2.602   3.528   1.630
 2204SOL     OW 1371   1.992   3.656   1.851
 2204SOL    HW1 1372   1.951   3.582   1.904
 2204SOL    HW2 1373   2.056   3.707   1.909
 2206SOL     OW 1374   2.692   3.135   1.422
 2206SOL    HW1 1375   2.687   3.168   1.517
 2206SOL    HW2 1376   2.606   3.154   1.376
 2210SOL     OW 1377   2.125   2.188   0.720
 2210SOL    HW1 1378   2.046   2.239   0.686
 2210SOL    HW2 1379   2.116   2.173   0.818
 2212SOL     OW 1380   2.684   2.864   1.372
 2212SOL    HW1 1381   2.724   2.863   1.280
 2212SOL    HW2 1382   2.694   2.956   1.412
 2215SOL     OW 1383   2.234   3.150   1.490
 2215SOL    HW1 1384   2.221   3.243   1.456
 2215SOL    HW2 1385   2.150   3.098   1.477
 2216SOL     OW 1386   3.476   3.154   1.289
 2216SOL    HW1 1387   3.536   3.157   1.369
 2216SOL    HW2 1388   3.401   3.218   1.302
 2218SOL     OW 1389   2.876   2.098   0.971
 2218SOL    HW1 1390   2.868   2.062   0.878
 2218SOL    HW2 1391   2.874   2.022   1.036
 2220SOL     OW 1392   3.571   2.247   1.381
 2220SOL    HW1 1393   3.644   2.316   1.385
 2220SOL    HW2 1394   3.599   2.172   1.322
 2222SOL     OW 1395   1.967   2.875   1.726
 2222SOL    HW1 1396   1.890   2.842   1.780
 2222SOL    HW2 1397   2.052   2.845   1.768
 2223SOL     OW 1398   2.534   2.065   1.489
 2223SOL    HW1 1399   2.624   2.049   1.449
 2223SOL    HW2 1400   2.542   2.070   1.588
 2224SOL     OW 1401   3.302   2.718   1.398
 2224SOL    HW1 1402   3.245   2.770   1.335
 2224SOL    HW2 1403   3.398   2.730   1.374
 2227SOL     OW 1404   2.475   2.704   1.431
 2227SOL    HW1 1405   2.531   2.785   1.414
 2227SOL    HW2 1406   2.534   2.624   1.434
 2229SOL     OW 1407   2.578   2.427   1.708
 2229SOL    HW1 1408   2.597   2.492   1.782
 2229SOL    HW2 1409   2.638   2.347   1.717
 2230SOL     OW 1410   3.312   3.082   1.633
 2230SOL    HW1 1411   3.303   3.072   1.732
 2230SOL    HW2 1412   3.408   3.075   1.607
 2231SOL     OW 1413   2.252   3.603   1.560
 2231SOL    HW1 1414   2.161   3.644   1.558
 2231SOL    HW2 1415   2.245   3.509   1.592
 2232SOL     OW 1416   3.536   2.745   1.254
 2232SOL    HW1 1417   3.509   2.656   1.217
 2232SOL    HW2 1418   3.537   2.813   1.181
 2235SOL     OW 1419   3.639   2.204   1.642
 2235SOL    HW1 1420   3.622   2.235   1.548
 2235SOL    HW2 1421   3.555   2.167   1.680
 2236SOL     OW 1422   3.592   2.796   1.517
 2236SOL    HW1 1423   3.630   2.887   1.532
 2236SOL    HW2 1424   3.584   2.779   1.418
 2239SOL     OW 1425   2.721   2.818   0.861
 2239SOL    HW1 1426   2.775   2.749   0.909
 2239SOL    HW2 1427   2.689   2.887   0.927
 2242SOL     OW 1428   2.083   3.176   1.844
 2242SOL    HW1 1429   2.018   3.103   1.823
 2242SOL    HW2 1430   2.087   3.190   1.942
 2244SOL     OW 1431   2.534   3.253   1.624
 2244SOL    HW1 1432   2.456   3.203   1.662
 2244SOL    HW2 1433   2.531   3.348   1.655
 2245SOL     OW 1434   3.686   2.054   1.227
 2245SOL    HW1 1435   3.682   1.964   1.271
 2245SOL    HW2 1436   3.689   2.043   1.128
 2248SOL     OW 1437   2.179   2.409   1.280
 2248SOL    HW1 1438   2.217   2.350   1.352
 2248SOL    HW2 1439   2.219   2.383   1.192
 2250SOL     OW 1440   3.286   2.076   1.112
 2250SOL    HW1 1441   3.338   2.011   1.167
 2250SOL    HW2 1442   3.237   2.139   1.173
 2251SOL     OW 1443   2.863   1.896   1.154
 2251SOL    HW1 1444   2.800   1.824   1.123
 2251SOL    HW2 1445   2.956   1.860   1.154
 2253SOL     OW 1446   2.480   3.429   1.284
 2253SOL    HW1 1447   2.475   3.511   1.341
 2253SOL    HW2 1448   2.569   3.426   1.239
 2259SOL     OW 1449   2.092   2.490   1.975
 2259SOL    HW1 1450   1.999   2.488   2.012
 2259SOL    HW2 1451   2.093   2.451   1.883
 2260SOL     OW 1452   2.087   2.137   2.858
 2260SOL    HW1 1453   2.122   2.120   2.950
 2260SOL    HW2 1454   1.999   2.092   2.846
 2261SOL     OW 1455   1.881   2.230   2.509
 2261SOL    HW1 1456   1.799   2.273   2.548
 2261SOL    HW2 1457   1.853   2.157   2.446
 2262SOL     OW 1458   2.431   3.137   3.027
 2262SOL    HW1 1459   2.338   3.130   2.990
 2262SOL    HW2 1460   2.442   3.226   3.071
 2263SOL     OW 1461   3.417   3.373   2.565
 2263SOL    HW1 1462   3.360   3.357   2.646
 2263SOL    HW2 1463   3.358   3.383   2.485
 2264SOL     OW 1464   3.617   2.469   2.093
 2264SOL    HW1 1465   3.605   2.456   1.994
 2264SOL    HW2 1466   3.587   2.388   2.142
 2265SOL     OW 1467   2.630   3.006   2.885
 2265SOL    HW1 1468   2.552   3.023   2.945
 2265SOL    HW2 1469   2.664   3.093   2.849
 2266SOL     OW 1470   2.712   2.660   3.685
 2266SOL    HW1 1471   2.708   2.736   3.750
 2266SOL    HW2 1472   2.734   2.696   3.594
 2267SOL     OW 1473   2.548   3.023   3.665
 2267SOL    HW1 1474   2.608   3.102   3.679
 2267SOL    HW2 1475   2.462   3.054   3.624
 2268SOL     OW 1476   2.197   3.297   2.923
 2268SOL    HW1 1477   2.119   3.266   2.870
 2268SOL    HW2 1478   2.255   3.355   2.866
 2269SOL     OW 1479   3.322   3.367   3.201
 2269SOL    HW1 1480   3.346   3.461   3.227
 2269SOL    HW2 1481   3.306   3.313   3.283
 2270SOL     OW 1482   2.300   2.254   3.361
 2270SOL    HW1 1483   2.382   2.198   3.370
 2270SOL    HW2 1484   2.219   2.196   3.365
 2271SOL     OW 1485   3.465   2.309   2.599
 2271SOL    HW1 1486   3.391   2.355   2.549
 2271SOL    HW2 1487   3.516   2.377   2.652
 2272SOL     OW 1488   2.093   3.575   2.345
 2272SOL    HW1 1489   2.127   3.652   2.399
 2272SOL    HW2 1490   2.137   3.575   2.255
 2273SOL     OW 1491   2.989   3.203   3.552
 2273SOL    HW1 1492   3.036   3.203   3.640
 2273SOL    HW2 1493   2.941   3.116   3.541
 2274SOL     OW 1494   2.092   3.296   2.400
 2274SOL    HW1 1495   2.066   3.392   2.400
 2274SOL    HW2 1496   2.021   3.242   2.445
 2275SOL     OW 1497   2.102   2.953   2.748
 2275SOL    HW1 1498   2.116   2.869   2.800
 2275SOL    HW2 1499   2.047   3.017   2.803
 2276SOL     OW 1500   2.482   3.648   3.301
 2276SOL    HW1 1501   2.390   3.631   3.336
 2276SOL    HW2 1502   2.510   3.740   3.327
 2277SOL     OW 1503   2.468   2.826   1.985
 2277SOL    HW1 1504   2.475   2.910   1.931
 2277SOL    HW2 1505   2.514   2.839   2.073
 2278SOL     OW 1506   3.456   1.976   3.342
 2278SOL    HW1 1507   3.438   2.043   3.270
 2278SOL    HW2 1508   3.453   2.022   3.431
 2279SOL     OW 1509   1.984   2.505   2.425
 2279SOL    HW1 1510   1.939   2.417   2.442
 2279SOL    HW2 1511   1.983   2.559   2.509
 2280SOL     OW 1512   3.704   3.629   2.221
 2280SOL    HW1 1513   3.758   3.600   2.301
 2280SOL    HW2 1514   3.734   3.719   2.192
 2281SOL     OW 1515   1.889   3.458   1.979
 2281SOL    HW1 1516   1.870   3.362   2.000
 2281SOL    HW2 1517   1.856   3.516   2.054
 2282SOL     OW 1518   3.551   2.784   2.474
 2282SOL    HW1 1519   3.646   2.755   2.482
 2282SOL    HW2 1520   3.543   2.849   2.399
 2283SOL     OW 1521   3.503   2.970   2.294
 2283SOL    HW1 1522   3.589   2.972   2.242
 2283SOL    HW2 1523   3.517   3.017   2.382
 2284SOL     OW 1524   1.975   2.599   3.459
 2284SOL    HW1 1525   2.063   2.586   3.504
 2284SOL    HW2 1526   1.962   2.696   3.437
 2285SOL     OW 1527   2.475   3.227   2.588
 2285SOL    HW1 1528   2.426   3.140   2.597
 2285SOL    HW2 1529   2.452   3.270   2.501
 2286SOL     OW 1530   3.155   3.090   3.285
 2286SOL    HW1 1531   3.192   3.017   3.227
 2286SOL    HW2 1532   3.207   3.095   3.370
 2287SOL     OW 1533   2.671   1.866   2.364
 2287SOL    HW1 1534   2.711   1.957   2.355
 2287SOL    HW2 1535   2.571   1.874   2.370
 2288SOL     OW 1536   2.059   2.838   3.126
 2288SOL    HW1 1537   2.148   2.793   3.112
 2288SOL    HW2 1538   1.986   2.773   3.107
 2289SOL     OW 1539   3.387   2.861   2.052
 2289SOL    HW1 1540   3.324   2.785   2.065
 2289SOL    HW2 1541   3.435   2.879   2.138
 2290SOL     OW 1542   3.049   3.654   3.478
 2290SOL    HW1 1543   3.073   3.714   3.402
 2290SOL    HW2 1544   3.056   3.559   3.448
 2291SOL     OW 1545   2.179   2.113   3.663
 2291SOL    HW1 1546   2.250   2.184   3.669
 2291SOL    HW2 1547   2.091   2.152   3.691
 2292SOL     OW 1548   3.328   3.279   2.815
 2292SOL    HW1 1549   3.269   3.285   2.895
 2292SOL    HW2 1550   3.313   3.191   2.769
 2293SOL     OW 1551   3.529   3.576   2.434
 2293SOL    HW1 1552   3.488   3.553   2.346
 2293SOL    HW2 1553   3.511   3.502   2.499
 2294SOL     OW 1554   3.143   2.207   2.806
 2294SOL    HW1 1555   3.057   2.157   2.793
 2294SOL    HW2 1556   3.205   2.153   2.862
 2295SOL     OW 1557   3.438   3.524   2.169
 2295SOL    HW1 1558   3.527   3.570   2.172
 2295SOL    HW2 1559   3.417   3.500   2.074
 2296SOL     OW 1560   2.669   2.467   3.327
 2296SOL    HW1 1561   2.622   2.464   3.416
 2296SOL    HW2 1562   2.618   2.412   3.261
 2297SOL     OW 1563   3.256   2.331   3.536
 2297SOL    HW1 1564   3.236   2.374   3.624
 2297SOL    HW2 1565   3.334   2.269   3.545
 2298SOL     OW 1566   2.835   2.752   3.434
 2298SOL    HW1 1567   2.881   2.668   3.405
 2298SOL    HW2 1568   2.779   2.786   3.359
 2299SOL     OW 1569   2.853   2.272   3.104
 2299SOL    HW1 1570   2.776   2.306   3.158
 2299SOL    HW2 1571   2.819   2.221   3.025
 2300SOL     OW 1572   2.903   2.563   2.291
 2300SOL    HW1 1573   2.929   2.559   2.387
 2300SOL    HW2 1574   2.818   2.512   2.277
 2301SOL     OW 1575   1.938   2.673   2.651
 2301SOL    HW1 1576   2.037   2.661   2.660
 2301SOL    HW2 1577   1.914   2.768   2.672
 2302SOL     OW 1578   1.992   3.683   3.433
 2302SOL    HW1 1579   1.982   3.668   3.532
 2302SOL    HW2 1580   1.906   3.719   3.397
 2303SOL     OW 1581   2.727   2.210   2.057
 2303SOL    HW1 1582   2.786   2.273   2.008
 2303SOL    HW2 1583   2.746   2.116   2.028
 2304SOL     OW 1584   3.581   2.447   3.693
 2304SOL    HW1 1585   3.555   2.536   3.657
 2304SOL    HW2 1586   3.579   2.379   3.620
 2305SOL     OW 1587   3.224   3.006   2.407
 2305SOL    HW1 1588   3.307   2.977   2.359
 2305SOL    HW2 1589   3.175   3.073   2.351
 2306SOL     OW 1590   2.870   3.318   2.339
 2306SOL    HW1 1591   2.824   3.390   2.287
 2306SOL    HW2 1592   2.866   3.338   2.437
 2307SOL     OW 1593   2.213   3.663   2.715
 2307SOL    HW1 1594   2.263   3.577   2.721
 2307SOL    HW2 1595   2.278   3.740   2.712
 2308SOL     OW 1596   3.657   2.928   2.735
 2308SOL    HW1 1597   3.595   2.913   2.659
 2308SOL    HW2 1598   3.605   2.939   2.820
 2309SOL     OW 1599   3.089   3.412   3.368
 2309SOL    HW1 1600   3.095   3.335   3.432
 2309SOL    HW2 1601   3.037   3.386   3.288
 2310SOL     OW 1602   2.183   2.805   2.104
 2310SOL    HW1 1603   2.265   2.844   2.062
 2310SOL    HW2 1604   2.156   2.723   2.055
 2311SOL     OW 1605   3.320   2.597   2.590
 2311SOL    HW1 1606   3.315   2.532   2.665
 2311SOL    HW2 1607   3.400   2.656   2.603
 2312SOL     OW 1608   2.323   3.128   3.589
 2312SOL    HW1 1609   2.273   3.129   3.503
 2312SOL    HW2 1610   2.260   3.110   3.665
 2313SOL     OW 1611   2.973   3.638   2.099
 2313SOL    HW1 1612   2.913   3.576   2.149
 2313SOL    HW2 1613   3.004   3.594   2.014
 2314SOL     OW 1614   2.064   2.147   3.360
 2314SOL    HW1 1615   1.984   2.207   3.347
 2314SOL    HW2 1616   2.054   2.098   3.446
 2315SOL     OW 1617   3.494   3.239   1.943
 2315SOL    HW1 1618   3.462   3.333   1.933
 2315SOL    HW2 1619   3.418   3.176   1.931
 2316SOL     OW 1620   2.326   3.605   2.185
 2316SOL    HW1 1621   2.359   3.644   2.271
 2316SOL    HW2 1622   2.402   3.598   2.120
 2317SOL     OW 1623   3.262   1.969   2.288
 2317SOL    HW1 1624   3.238   1.932   2.198
 2317SOL    HW2 1625   3.361   1.985   2.292
 2318SOL     OW 1626   2.111   3.647   3.103
 2318SOL    HW1 1627   2.168   3.582   3.153
 2318SOL    HW2 1628   2.095   3.614   3.010
 2319SOL     OW 1629   2.802   3.560   2.766
 2319SOL    HW1 1630   2.882   3.503   2.787
 2319SOL    HW2 1631   2.753   3.520   2.689
 2320SOL     OW 1632   3.409   2.084   3.591
 2320SOL    HW1 1633   3.404   2.121   3.683
 2320SOL    HW2 1634   3.337   2.015   3.579
 2321SOL     OW 1635   2.476   1.984   1.979
 2321SOL    HW1 1636   2.574   1.962   1.986
 2321SOL    HW2 1637   2.445   1.967   1.886
 2322SOL     OW 1638   2.643   2.126   3.611
 2322SOL    HW1 1639   2.710   2.065   3.654
 2322SOL    HW2 1640   2.570   2.145   3.676
 2323SOL     OW 1641   2.750   3.376   3.057
 2323SOL    HW1 1642   2.727   3.351   2.963
 2323SOL    HW2 1643   2.811   3.307   3.096
 2324SOL     OW 1644   3.213   2.452   3.295
 2324SOL    HW1 1645   3.241   2.409   3.380
 2324SOL    HW2 1646   3.238   2.548   3.296
 2325SOL     OW 1647   2.665   3.264   2.786
 2325SOL    HW1 1648   2.755   3.278   2.744
 2325SOL    HW2 1649   2.594   3.266   2.715
 2326SOL     OW 1650   2.784   2.365   2.761
 2326SOL    HW1 1651   2.759   2.356   2.665
 2326SOL    HW2 1652   2.832   2.283   2.792
 2327SOL     OW 1653   2.401   1.926   2.374
 2327SOL    HW1 1654   2.320   1.927   2.432
 2327SOL    HW2 1655   2.404   2.009   2.319
 2328SOL     OW 1656   3.296   3.050   1.903
 2328SOL    HW1 1657   3.328   2.974   1.960
 2328SOL    HW2 1658   3.204   3.077   1.933
 2329SOL     OW 1659   2.159   1.897   2.033
 2329SOL    HW1 1660   2.208   1.981   2.012
 2329SOL    HW2 1661   2.221   1.832   2.078
 2330SOL     OW 1662   2.797   2.098   2.342
 2330SOL    HW1 1663   2.749   2.139   2.264
 2330SOL    HW2 1664   2.896   2.096   2.323
 2331SOL     OW 1665   2.938   2.545   3.326
 2331SOL    HW1 1666   2.858   2.484   3.329
 2331SOL    HW2 1667   3.019   2.492   3.302
 2332SOL     OW 1668   3.089   3.432   2.655
 2332SOL    HW1 1669   3.110   3.506   2.590
 2332SOL    HW2 1670   3.157   3.432   2.728
 2333SOL     OW 1671   2.321   3.014   2.603
 2333SOL    HW1 1672   2.250   2.987   2.668
 2333SOL    HW2 1673   2.295   2.986   2.510
 2334SOL     OW 1674   3.133   3.659   2.453
 2334SOL    HW1 1675   3.177   3.723   2.389
 2334SOL    HW2 1676   3.083   3.711   2.523
 2335SOL     OW 1677   2.894   2.411   1.878
 2335SOL    HW1 1678   2.853   2.493   1.839
 2335SOL    HW2 1679   2.958   2.437   1.951
 2336SOL     OW 1680   1.940   2.418   3.248
 2336SOL    HW1 1681   2.032   2.417   3.207
 2336SOL    HW2 1682   1.934   2.492   3.315
 2337SOL     OW 1683   2.423   2.084   3.009
 2337SOL    HW1 1684   2.461   2.000   3.046
 2337SOL    HW2 1685   2.335   2.103   3.053
 2338SOL     OW 1686   2.728   2.316   2.504
 2338SOL    HW1 1687   2.696   2.388   2.442
 2338SOL    HW2 1688   2.752   2.235   2.451
 2339SOL     OW 1689   2.879   1.901   2.615
 2339SOL    HW1 1690   2.807   1.906   2.546
 2339SOL    HW2 1691   2.855   1.832   2.684
 2340SOL     OW 1692   3.291   3.035   2.729
 2340SOL    HW1 1693   3.236   2.951   2.722
 2340SOL    HW2 1694   3.317   3.064   2.637
 2341SOL     OW 1695   3.328   2.452   2.854
 2341SOL    HW1 1696   3.298   2.357   2.861
 2341SOL    HW2 1697   3.401   2.468   2.920
 2342SOL     OW 1698   3.719   2.695   2.239
 2342SOL    HW1 1699   3.761   2.631   2.303
 2342SOL    HW2 1700   3.681   2.644   2.161
 2343SOL     OW 1701   2.350   3.247   2.036
 2343SOL    HW1 1702   2.263   3.232   2.083
 2343SOL    HW2 1703   2.333   3.273   1.941
 2344SOL     OW 1704   3.526   3.142   2.519
 2344SOL    HW1 1705   3.625   3.150   2.533
 2344SOL    HW2 1706   3.481   3.226   2.550
 2345SOL     OW 1707   3.252   2.437   1.940
 2345SOL    HW1 1708   3.198   2.416   2.021
 2345SOL    HW2 1709   3.343   2.396   1.949
 2346SOL     OW 1710   2.389   2.118   2.190
 2346SOL    HW1 1711   2.416   2.059   2.115
 2346SOL    HW2 1712   2.389   2.213   2.159
 2347SOL     OW 1713   3.616   3.085   3.450
 2347SOL    HW1 1714   3.707   3.046   3.437
 2347SOL    HW2 1715   3.624   3.181   3.474
 2348SOL     OW 1716   2.926   3.209   3.202
 2348SOL    HW1 1717   2.846   3.186   3.257
 2348SOL    HW2 1718   3.009   3.183   3.251
 2349SOL     OW 1719   3.454   3.491   3.487
 2349SOL    HW1 1720   3.481   3.525   3.397
 2349SOL    HW2 1721   3.533   3.453   3.533
 2350SOL     OW 1722   2.973   3.057   2.962
 2350SOL    HW1 1723   2.933   3.101   3.043
 2350SOL    HW2 1724   2.932   3.094   2.879
 2351SOL     OW 1725   3.500   2.961   2.941
 2351SOL    HW1 1726   3.505   3.042   3.000
 2351SOL    HW2 1727   3.414   2.963   2.890
 2352SOL     OW 1728   2.777   1.951   3.264
 2352SOL    HW1 1729   2.802   1.931   3.169
 2352SOL    HW2 1730   2.849   2.007   3.306
 2353SOL     OW 1731   2.842   2.978   3.581
 2353SOL    HW1 1732   2.743   2.984   3.591
 2353SOL    HW2 1733   2.865   2.898   3.525
 2354SOL     OW 1734   2.567   2.912   2.230
 2354SOL    HW1 1735   2.553   2.919   2.329
 2354SOL    HW2 1736   2.651   2.861   2.212
 2355SOL     OW 1737   2.272   2.675   3.113
 2355SOL    HW1 1738   2.358   2.687   3.163
 2355SOL    HW2 1739   2.230   2.588   3.140
 2356SOL     OW 1740   3.136   2.248   3.124
 2356SOL    HW1 1741   3.157   2.322   3.188
 2356SOL    HW2 1742   3.047   2.265   3.081
 2357SOL     OW 1743   1.926   3.426   3.193
 2357SOL    HW1 1744   1.880   3.508   3.159
 2357SOL    HW2 1745   2.024   3.445   3.202
 2358SOL     OW 1746   2.229   2.962   2.363
 2358SOL    HW1 1747   2.222   3.045   2.307
 2358SOL    HW2 1748   2.233   2.882   2.303
 2359SOL     OW 1749   3.114   3.210   2.250
 2359SOL    HW1 1750   3.164   3.287   2.290
 2359SOL    HW2 1751   3.019   3.212   2.282
 2360SOL     OW 1752   3.134   3.307   3.004
 2360SOL    HW1 1753   3.181   3.320   3.091
 2360SOL    HW2 1754   3.068   3.233   3.013
 2361SOL     OW 1755   3.444   2.501   2.334
 2361SOL    HW1 1756   3.413   2.562   2.407
 2361SOL    HW2 1757   3.494   2.553   2.265
 2362SOL     OW 1758   2.216   3.372   3.191
 2362SOL    HW1 1759   2.195   3.328   3.104
 2362SOL    HW2 1760   2.313   3.398   3.194
 2363SOL     OW 1761   2.264   2.613   3.460
 2363SOL    HW1 1762   2.332   2.668   3.413
 2363SOL    HW2 1763   2.304   2.525   3.487
 2364SOL     OW 1764   3.449   2.641   3.532
 2364SOL    HW1 1765   3.357   2.679   3.527
 2364SOL    HW2 1766   3.509   2.688   3.467
 2365SOL     OW 1767   2.875   1.967   3.632
 2365SOL    HW1 1768   2.881   2.052   3.580
 2365SOL    HW2 1769   2.907   1.891   3.575
 2366SOL     OW 1770   2.366   1.912   3.602
 2366SOL    HW1 1771   2.324   1.855   3.532
 2366SOL    HW2 1772   2.300   1.981   3.634
 2367SOL     OW 1773   2.435   2.732   2.891
 2367SOL    HW1 1774   2.479   2.821   2.882
 2367SOL    HW2 1775   2.372   2.732   2.968
 2368SOL     OW 1776   3.222   2.724   2.907
 2368SOL    HW1 1777   3.147   2.724   2.841
 2368SOL    HW2 1778   3.259   2.632   2.916
 2369SOL     OW 1779   3.071   2.387   2.137
 2369SOL    HW1 1780   3.084   2.303   2.191
 2369SOL    HW2 1781   3.042   2.461   2.197
 2370SOL     OW 1782   2.169   2.075   3.093
 2370SOL    HW1 1783   2.146   2.112   3.183
 2370SOL    HW2 1784   2.139   1.980   3.087
 2371SOL     OW 1785   1.899   3.172   3.144
 2371SOL    HW1 1786   1.952   3.123   3.212
 2371SOL    HW2 1787   1.921   3.270   3.149
 2372SOL     OW 1788   2.594   2.496   2.926
 2372SOL    HW1 1789   2.653   2.470   2.850
 2372SOL    HW2 1790   2.566   2.592   2.915
 2373SOL     OW 1791   3.590   2.797   3.716
 2373SOL    HW1 1792   3.544   2.790   3.627
 2373SOL    HW2 1793   3.528   2.841   3.782
 2374SOL     OW 1794   3.484   2.229   2.236
 2374SOL    HW1 1795   3.486   2.153   2.300
 2374SOL    HW2 1796   3.436   2.306   2.276
 2375SOL     OW 1797   2.885   2.628   2.828
 2375SOL    HW1 1798   2.900   2.649   2.924
 2375SOL    HW2 1799   2.855   2.533   2.819
 2376SOL     OW 1800   2.842   3.435   3.562
 2376SOL    HW1 1801   2.822   3.479   3.474
 2376SOL    HW2 1802   2.881   3.344   3.546
 2378SOL     OW 1803   2.212   2.760   3.666
 2378SOL    HW1 1804   2.288   2.804   3.714
 2378SOL    HW2 1805   2.247   2.713   3.584
 2379SOL     OW 1806   3.402   2.136   1.987
 2379SOL    HW1 1807   3.341   2.061   2.010
 2379SOL    HW2 1808   3.424   2.188   2.070
 2380SOL     OW 1809   3.165   2.700   1.904
 2380SOL    HW1 1810   3.199   2.607   1.919
 2380SOL    HW2 1811   3.183   2.727   1.809
 2381SOL     OW 1812   2.930   3.195   2.711
 2381SOL    HW1 1813   2.937   3.111   2.656
 2381SOL    HW2 1814   2.992   3.264   2.675
 2382SOL     OW 1815   2.181   2.672   2.811
 2382SOL    HW1 1816   2.274   2.708   2.816
 2382SOL    HW2 1817   2.175   2.587   2.863
 2383SOL     OW 1818   2.201   2.371   2.868
 2383SOL    HW1 1819   2.149   2.288   2.851
 2383SOL    HW2 1820   2.278   2.376   2.804
 2384SOL     OW 1821   3.000   2.242   3.540
 2384SOL    HW1 1822   2.955   2.305   3.604
 2384SOL    HW2 1823   3.093   2.273   3.523
 2385SOL     OW 1824   3.022   2.069   3.339
 2385SOL    HW1 1825   3.022   2.133   3.416
 2385SOL    HW2 1826   3.050   2.117   3.256
 2386SOL     OW 1827   1.870   3.188   2.062
 2386SOL    HW1 1828   1.777   3.209   2.031
 2386SOL    HW2 1829   1.880   3.089   2.075
 2387SOL     OW 1830   1.950   3.663   2.789
 2387SOL    HW1 1831   1.908   3.577   2.762
 2387SOL    HW2 1832   2.044   3.666   2.755
 2388SOL     OW 1833   2.366   3.430   2.772
 2388SOL    HW1 1834   2.432   3.504   2.781
 2388SOL    HW2 1835   2.410   3.351   2.730
 2389SOL     OW 1836   2.864   2.658   3.100
 2389SOL    HW1 1837   2.905   2.626   3.186
 2389SOL    HW2 1838   2.768   2.631   3.097
 2390SOL     OW 1839   1.902   2.406   2.976
 2390SOL    HW1 1840   1.987   2.373   2.935
 2390SOL    HW2 1841   1.915   2.421   3.074
 2391SOL     OW 1842   2.051   2.382   3.584
 2391SOL    HW1 1843   2.110   2.342   3.514
 2391SOL    HW2 1844   1.993   2.453   3.543
 2392SOL     OW 1845   3.231   2.812   3.522
 2392SOL    HW1 1846   3.270   2.901   3.542
 2392SOL    HW2 1847   3.241   2.792   3.425
 2393SOL     OW 1848   2.677   2.434   2.187
 2393SOL    HW1 1849   2.684   2.345   2.141
 2393SOL    HW2 1850   2.583   2.468   2.179
 2394SOL     OW 1851   3.519   2.466   3.068
 2394SOL    HW1 1852   3.481   2.397   3.130
 2394SOL    HW2 1853   3.601   2.430   3.024
 2395SOL     OW 1854   2.114   3.426   3.606
 2395SOL    HW1 1855   2.084   3.483   3.682
 2395SOL    HW2 1856   2.107   3.329   3.632
 2396SOL     OW 1857   2.533   2.326   3.131
 2396SOL    HW1 1858   2.499   2.237   3.101
 2396SOL    HW2 1859   2.559   2.380   3.051
 2397SOL     OW 1860   2.792   3.540   3.327
 2397SOL    HW1 1861   2.768   3.522   3.232
 2397SOL    HW2 1862   2.822   3.634   3.337
 2398SOL     OW 1863   2.021   2.999   3.328
 2398SOL    HW1 1864   2.043   2.938   3.404
 2398SOL    HW2 1865   2.031   2.950   3.242
 2399SOL     OW 1866   3.209   2.921   3.096
 2399SOL    HW1 1867   3.233   2.858   3.022
 2399SOL    HW2 1868   3.119   2.961   3.078
 2400SOL     OW 1869   3.164   2.717   2.171
 2400SOL    HW1 1870   3.078   2.686   2.213
 2400SOL    HW2 1871   3.160   2.703   2.072
 2401SOL     OW 1872   3.621   3.609   3.016
 2401SOL    HW1 1873   3.682   3.639   2.943
 2401SOL    HW2 1874   3.583   3.520   2.994
 2402SOL     OW 1875   3.114   3.593   2.990
 2402SOL    HW1 1876   3.198   3.598   2.936
 2402SOL    HW2 1877   3.091   3.497   3.008
 2403SOL     OW 1878   1.945   3.120   2.884
 2403SOL    HW1 1879   1.940   3.119   2.984
 2403SOL    HW2 1880   1.862   3.079   2.846
 2404SOL     OW 1881   2.550   3.524   3.578
 2404SOL    HW1 1882   2.494   3.605   3.587
 2404SOL    HW2 1883   2.602   3.528   3.492
 2405SOL     OW 1884   3.588   1.997   2.385
 2405SOL    HW1 1885   3.661   1.980   2.318
 2405SOL    HW2 1886   3.557   1.910   2.423
 2406SOL     OW 1887   3.250   3.435   2.339
 2406SOL    HW1 1888   3.317   3.447   2.265
 2406SOL    HW2 1889   3.210   3.524   2.362
 2407SOL     OW 1890   1.992   3.656   3.713
 2407SOL    HW1 1891   1.951   3.582   3.766
 2407SOL    HW2 1892   2.056   3.707   3.771
 2408SOL     OW 1893   3.142   2.789   2.534
 2408SOL    HW1 1894   3.202   2.708   2.536
 2408SOL    HW2 1895   3.182   2.858   2.474
 2409SOL     OW 1896   2.692   3.135   3.284
 2409SOL    HW1 1897   2.687   3.168   3.379
 2409SOL    HW2 1898   2.606   3.154   3.238
 2410SOL     OW 1899   2.534   3.478   2.016
 2410SOL    HW1 1900   2.543   3.488   1.917
 2410SOL    HW2 1901   2.494   3.389   2.037
 2411SOL     OW 1902   3.512   3.582   3.256
 2411SOL    HW1 1903   3.565   3.592   3.172
 2411SOL    HW2 1904   3.485   3.672   3.290
 2412SOL     OW 1905   3.703   2.037   2.825
 2412SOL    HW1 1906   3.742   1.952   2.789
 2412SOL    HW2 1907   3.605   2.039   2.806
 2413SOL     OW 1908   2.125   2.188   2.582
 2413SOL    HW1 1909   2.046   2.239   2.548
 2413SOL    HW2 1910   2.116   2.173   2.680
 2414SOL     OW 1911   3.056   3.474   1.893
 2414SOL    HW1 1912   3.062   3.381   1.930
 2414SOL    HW2 1913   2.997   3.474   1.813
 2415SOL     OW 1914   2.684   2.864   3.234
 2415SOL    HW1 1915   2.724   2.863   3.142
 2415SOL    HW2 1916   2.694   2.956   3.274
 2416SOL     OW 1917   2.778   2.772   2.153
 2416SOL    HW1 1918   2.841   2.810   2.085
 2416SOL    HW2 1919   2.818   2.689   2.192
 2417SOL     OW 1920   3.366   3.469   1.906
 2417SOL    HW1 1921   3.274   3.506   1.913
 2417SOL    HW2 1922   3.404   3.489   1.816
 2418SOL     OW 1923   2.234   3.150   3.352
 2418SOL    HW1 1924   2.221   3.243   3.318
 2418SOL    HW2 1925   2.150   3.098   3.339
 2419SOL     OW 1926   3.476   3.154   3.151
 2419SOL    HW1 1927   3.536   3.157   3.231
 2419SOL    HW2 1928   3.401   3.218   3.164
 2420SOL     OW 1929   2.901   2.960   2.558
 2420SOL    HW1 1930   2.831   2.913   2.612
 2420SOL    HW2 1931   2.960   2.892   2.515
 2421SOL     OW 1932   2.876   2.098   2.833
 2421SOL    HW1 1933   2.868   2.062   2.740
 2421SOL    HW2 1934   2.874   2.022   2.898
 2422SOL     OW 1935   2.452   3.349   2.353
 2422SOL    HW1 1936   2.494   3.291   2.283
 2422SOL    HW2 1937   2.408   3.428   2.309
 2423SOL     OW 1938   3.571   2.247   3.243
 2423SOL    HW1 1939   3.644   2.316   3.247
 2423SOL    HW2 1940   3.599   2.172   3.184
 2424SOL     OW 1941   2.117   3.210   2.152
 2424SOL    HW1 1942   2.021   3.211   2.125
 2424SOL    HW2 1943   2.129   3.263   2.236
 2425SOL     OW 1944   1.967   2.875   3.588
 2425SOL    HW1 1945   1.890   2.842   3.642
 2425SOL    HW2 1946   2.052   2.845   3.630
 2426SOL     OW 1947   2.534   2.065   3.351
 2426SOL    HW1 1948   2.624   2.049   3.311
 2426SOL    HW2 1949   2.542   2.070   3.450
 2427SOL     OW 1950   1.937   2.207   1.895
 2427SOL    HW1 1951   1.845   2.179   1.866
 2427SOL    HW2 1952   1.968   2.284   1.839
 2428SOL     OW 1953   3.302   2.718   3.260
 2428SOL    HW1 1954   3.245   2.770   3.197
 2428SOL    HW2 1955   3.398   2.730   3.236
 2429SOL     OW 1956   1.934   2.028   2.180
 2429SOL    HW1 1957   1.917   2.111   2.126
 2429SOL    HW2 1958   2.024   1.991   2.158
 2430SOL     OW 1959   3.045   3.197   1.981
 2430SOL    HW1 1960   2.946   3.186   1.983
 2430SOL    HW2 1961   3.079   3.212   2.074
 2431SOL     OW 1962   2.475   2.704   3.293
 2431SOL    HW1 1963   2.531   2.785   3.276
 2431SOL    HW2 1964   2.534   2.624   3.296
 2432SOL     OW 1965   3.355   3.629   2.821
 2432SOL    HW1 1966   3.388   3.693   2.752
 2432SOL    HW2 1967   3.421   3.623   2.896
 2433SOL     OW 1968   2.578   2.427   3.570
 2433SOL    HW1 1969   2.597   2.492   3.644
 2433SOL    HW2 1970   2.638   2.347   3.579
 2434SOL     OW 1971   3.312   3.082   3.495
 2434SOL    HW1 1972   3.303   3.072   3.594
 2434SOL    HW2 1973   3.408   3.075   3.469
 2435SOL     OW 1974   2.252   3.603   3.422
 2435SOL    HW1 1975   2.161   3.644   3.420
 2435SOL    HW2 1976   2.245   3.509   3.454
 2436SOL     OW 1977   3.536   2.745   3.116
 2436SOL    HW1 1978   3.509   2.656   3.079
 2436SOL    HW2 1979   3.537   2.813   3.043
 2437SOL     OW 1980   3.087   2.187   2.311
 2437SOL    HW1 1981   3.152   2.113   2.300
 2437SOL    HW2 1982   3.107   2.237   2.395
 2438SOL     OW 1983   3.639   2.204   3.504
 2438SOL    HW1 1984   3.622   2.235   3.410
 2438SOL    HW2 1985   3.555   2.167   3.542
 2439SOL     OW 1986   3.592   2.796   3.379
 2439SOL    HW1 1987   3.630   2.887   3.394
 2439SOL    HW2 1988   3.584   2.779   3.280
 2440SOL     OW 1989   2.721   3.236   1.878
 2440SOL    HW1 1990   2.675   3.251   1.966
 2440SOL    HW2 1991   2.765   3.321   1.848
 2441SOL     OW 1992   2.523   3.652   2.815
 2441SOL    HW1 1993   2.477   3.740   2.802
 2441SOL    HW2 1994   2.622   3.664   2.808
 2442SOL     OW 1995   2.721   2.818   2.723
 2442SOL    HW1 1996   2.775   2.749   2.771
 2442SOL    HW2 1997   2.689   2.887   2.789
 2443SOL     OW 1998   2.945   2.846   1.949
 2443SOL    HW1 1999   2.922   2.899   1.867
 2443SOL    HW2 2000   3.026   2.790   1.930
 2444SOL     OW 2001   3.723   3.431   2.713
 2444SOL    HW1 2002   3.652   3.419   2.643
 2444SOL    HW2 2003   3.724   3.352   2.773
 2445SOL     OW 2004   2.083   3.176   3.706
 2445SOL    HW1 2005   2.018   3.103   3.685
 2445SOL    HW2 2006   2.087   3.190   3.804
 2446SOL     OW 2007   1.941   3.102   2.515
 2446SOL    HW1 2008   1.940   3.055   2.603
 2446SOL    HW2 2009   2.023   3.074   2.464
 2447SOL     OW 2010   2.534   3.253   3.486
 2447SOL    HW1 2011   2.456   3.203   3.524
 2447SOL    HW2 2012   2.531   3.348   3.517
 2448SOL     OW 2013   3.686   2.054   3.089
 2448SOL    HW1 2014   3.682   1.964   3.133
 2448SOL    HW2 2015   3.689   2.043   2.990
 2449SOL     OW 2016   3.567   3.349   2.966
 2449SOL    HW1 2017   3.474   3.324   2.939
 2449SOL    HW2 2018   3.593   3.299   3.048
 2450SOL     OW 2019   2.179   2.409   3.142
 2450SOL    HW1 2020   2.217   2.350   3.214
 2450SOL    HW2 2021   2.219   2.383   3.054
 2451SOL     OW 2022   2.674   3.448   2.549
 2451SOL    HW1 2023   2.706   3.458   2.455
 2451SOL    HW2 2024   2.595   3.386   2.551
 2452SOL     OW 2025   3.286   2.076   2.974
 2452SOL    HW1 2026   3.338   2.011   3.029
 2452SOL    HW2 2027   3.237   2.139   3.035
 2453SOL     OW 2028   2.863   1.896   3.016
 2453SOL    HW1 2029   2.800   1.824   2.985
 2453SOL    HW2 2030   2.956   1.860   3.016
 2454SOL     OW 2031   2.632   3.192   2.163
 2454SOL    HW1 2032   2.586   3.105   2.180
 2454SOL    HW2 2033   2.723   3.189   2.204
 2455SOL     OW 2034   2.480   3.429   3.146
 2455SOL    HW1 2035   2.475   3.511   3.203
 2455SOL    HW2 2036   2.569   3.426   3.101
 2456SOL     OW 2037   3.214   1.914   2.030
 2456SOL    HW1 2038   3.249   1.873   1.946
 2456SOL    HW2 2039   3.124   1.876   2.050
 2457SOL     OW 2040   3.162   2.315   2.553
 2457SOL    HW1 2041   3.103   2.395   2.557
 2457SOL    HW2 2042   3.177   2.280   2.646
 2458SOL     OW 2043   3.455   2.083   2.744
 2458SOL    HW1 2044   3.371   2.082   2.798
 2458SOL    HW2 2045   3.457   2.166   2.688
 2459SOL     OW 2046   1.901   2.939   2.162
 2459SOL    HW1 2047   2.000   2.928   2.153
 2459SOL    HW2 2048   1.861   2.853   2.194
 2460SOL     OW 2049   2.737   3.508   2.199
 2460SOL    HW1 2050   2.660   3.473   2.145
 2460SOL    HW2 2051   2.705   3.579   2.261
 2461SOL     OW 2052   2.092   2.490   3.837
 2461SOL    HW1 2053   1.999   2.488   3.874
 2461SOL    HW2 2054   2.093   2.451   3.745
 2475SOL     OW 2055   2.468   2.826   3.847
 2475SOL    HW1 2056   2.475   2.910   3.793
 2475SOL    HW2 2057   2.514   2.839   3.935
 2478SOL     OW 2058   1.889   3.458   3.841
 2478SOL    HW1 2059   1.870   3.362   3.862
 2478SOL    HW2 2060   1.856   3.516   3.916
 2484SOL     OW 2061   3.387   2.861   3.914
 2484SOL    HW1 2062   3.324   2.785   3.927
 2484SOL    HW2 2063   3.435   2.879   4.000
 2487SOL     OW 2064   2.460   2.591   3.994
 2487SOL    HW1 2065   2.484   2.660   3.926
 2487SOL    HW2 2066   2.382   2.624   4.048
 2490SOL     OW 2067   2.903   2.563   4.153
 2490SOL    HW1 2068   2.929   2.559   4.249
 2490SOL    HW2 2069   2.818   2.512   4.139
 2492SOL     OW 2070   2.727   2.210   3.919
 2492SOL    HW1 2071   2.786   2.273   3.870
 2492SOL    HW2 2072   2.746   2.116   3.890
 2498SOL     OW 2073   2.183   2.805   3.966
 2498SOL    HW1 2074   2.265   2.844   3.924
 2498SOL    HW2 2075   2.156   2.723   3.917
 2506SOL     OW 2076   2.244   2.562   4.204
 2506SOL    HW1 2077   2.289   2.472   4.201
 2506SOL    HW2 2078   2.150   2.551   4.237
 2507SOL     OW 2079   2.476   1.984   3.841
 2507SOL    HW1 2080   2.574   1.962   3.848
 2507SOL    HW2 2081   2.445   1.967   3.748
 2511SOL     OW 2082   3.296   3.050   3.765
 2511SOL    HW1 2083   3.328   2.974   3.822
 2511SOL    HW2 2084   3.204   3.077   3.795
 2512SOL     OW 2085   2.159   1.897   3.895
 2512SOL    HW1 2086   2.208   1.981   3.874
 2512SOL    HW2 2087   2.221   1.832   3.940
 2517SOL     OW 2088   2.894   2.411   3.740
 2517SOL    HW1 2089   2.853   2.493   3.701
 2517SOL    HW2 2090   2.958   2.437   3.813
 2523SOL     OW 2091   2.350   3.247   3.898
 2523SOL    HW1 2092   2.263   3.232   3.945
 2523SOL    HW2 2093   2.333   3.273   3.803
 2525SOL     OW 2094   3.252   2.437   3.802
 2525SOL    HW1 2095   3.198   2.416   3.883
 2525SOL    HW2 2096   3.343   2.396   3.811
 2526SOL     OW 2097   2.389   2.118   4.052
 2526SOL    HW1 2098   2.416   2.059   3.977
 2526SOL    HW2 2099   2.389   2.213   4.021
 2529SOL     OW 2100   2.567   2.912   4.092
 2529SOL    HW1 2101   2.553   2.919   4.191
 2529SOL    HW2 2102   2.651   2.861   4.074
 2538SOL     OW 2103   3.071   2.387   3.999
 2538SOL    HW1 2104   3.084   2.303   4.053
 2538SOL    HW2 2105   3.042   2.461   4.059
 2544SOL     OW 2106   3.402   2.136   3.849
 2544SOL    HW1 2107   3.341   2.061   3.872
 2544SOL    HW2 2108   3.424   2.188   3.932
 2545SOL     OW 2109   3.165   2.700   3.766
 2545SOL    HW1 2110   3.199   2.607   3.781
 2545SOL    HW2 2111   3.183   2.727   3.671
 2549SOL     OW 2112   1.870   3.188   3.924
 2549SOL    HW1 2113   1.777   3.209   3.893
 2549SOL    HW2 2114   1.880   3.089   3.937
 2554SOL     OW 2115   2.677   2.434   4.049
 2554SOL    HW1 2116   2.684   2.345   4.003
 2554SOL    HW2 2117   2.583   2.468   4.041
 2556SOL     OW 2118   2.335   2.362   3.915
 2556SOL    HW1 2119   2.396   2.442   3.919
 2556SOL    HW2 2120   2.240   2.393   3.922
 2557SOL     OW 2121   3.164   2.717   4.033
 2557SOL    HW1 2122   3.078   2.686   4.075
 2557SOL    HW2 2123   3.160   2.703   3.934
 2563SOL     OW 2124   2.534   3.478   3.878
 2563SOL    HW1 2125   2.543   3.488   3.779
 2563SOL    HW2 2126   2.494   3.389   3.899
 2566SOL     OW 2127   3.056   3.474   3.755
 2566SOL    HW1 2128   3.062   3.381   3.792
 2566SOL    HW2 2129   2.997   3.474   3.675
 2568SOL     OW 2130   2.778   2.772   4.015
 2568SOL    HW1 2131   2.841   2.810   3.947
 2568SOL    HW2 2132   2.818   2.689   4.054
 2573SOL     OW 2133   2.117   3.210   4.014
 2573SOL    HW1 2134   2.021   3.211   3.987
 2573SOL    HW2 2135   2.129   3.263   4.098
 2574SOL     OW 2136   1.937   2.207   3.757
 2574SOL    HW1 2137   1.845   2.179   3.728
 2574SOL    HW2 2138   1.968   2.284   3.701
 2575SOL     OW 2139   1.934   2.028   4.042
 2575SOL    HW1 2140   1.917   2.111   3.988
 2575SOL    HW2 2141   2.024   1.991   4.020
 2576SOL     OW 2142   3.045   3.197   3.843
 2576SOL    HW1 2143   2.946   3.186   3.845
 2576SOL    HW2 2144   3.079   3.212   3.936
 2581SOL     OW 2145   2.721   3.236   3.740
 2581SOL    HW1 2146   2.675   3.251   3.828
 2581SOL    HW2 2147   2.765   3.321   3.710
 2584SOL     OW 2148   2.945   2.846   3.811
 2584SOL    HW1 2149   2.922   2.899   3.729
 2584SOL    HW2 2150   3.026   2.790   3.792
 2588SOL     OW 2151   2.290   2.286   4.244
 2588SOL    HW1 2152   2.320   2.214   4.182
 2588SOL    HW2 2153   2.251   2.246   4.327
 2591SOL     OW 2154   2.632   3.192   4.025
 2591SOL    HW1 2155   2.586   3.105   4.042
 2591SOL    HW2 2156   2.723   3.189   4.066
 2592SOL     OW 2157   3.214   1.914   3.892
 2592SOL    HW1 2158   3.249   1.873   3.808
 2592SOL    HW2 2159   3.124   1.876   3.912
 2595SOL     OW 2160   1.901   2.939   4.024
 2595SOL    HW1 2161   2.000   2.928   4.015
 2595SOL    HW2 2162   1.861   2.853   4.056
 2619SOL     OW 2163   2.179   3.975   1.801
 2619SOL    HW1 2164   2.250   4.046   1.807
 2619SOL    HW2 2165   2.091   4.014   1.829
 2639SOL     OW 2166   2.643   3.988   1.749
 2639SOL    HW1 2167   2.710   3.927   1.792
 2639SOL    HW2 2168   2.570   4.007   1.814
 2659SOL     OW 2169   2.777   3.813   1.402
 2659SOL    HW1 2170   2.802   3.793   1.307
 2659SOL    HW2 2171   2.849   3.869   1.444
 2668SOL     OW 2172   2.875   3.829   1.770
 2668SOL    HW1 2173   2.881   3.914   1.718
 2668SOL    HW2 2174   2.907   3.753   1.713
 2669SOL     OW 2175   2.366   3.774   1.740
 2669SOL    HW1 2176   2.324   3.717   1.670
 2669SOL    HW2 2177   2.300   3.843   1.772
 2708SOL     OW 2178   2.534   3.927   1.489
 2708SOL    HW1 2179   2.624   3.911   1.449
 2708SOL    HW2 2180   2.542   3.932   1.588
 2733SOL     OW 2181   2.087   3.999   2.858
 2733SOL    HW1 2182   2.122   3.982   2.950
 2733SOL    HW2 2183   1.999   3.954   2.846
 2734SOL     OW 2184   1.881   4.092   2.509
 2734SOL    HW1 2185   1.799   4.135   2.548
 2734SOL    HW2 2186   1.853   4.019   2.446
 2751SOL     OW 2187   2.671   3.728   2.364
 2751SOL    HW1 2188   2.711   3.819   2.355
 2751SOL    HW2 2189   2.571   3.736   2.370
 2756SOL     OW 2190   3.143   4.069   2.806
 2756SOL    HW1 2191   3.057   4.019   2.793
 2756SOL    HW2 2192   3.205   4.015   2.862
 2763SOL     OW 2193   2.727   4.072   2.057
 2763SOL    HW1 2194   2.786   4.135   2.008
 2763SOL    HW2 2195   2.746   3.978   2.028
 2765SOL     OW 2196   2.412   3.920   2.747
 2765SOL    HW1 2197   2.407   3.915   2.847
 2765SOL    HW2 2198   2.414   4.016   2.718
 2770SOL     OW 2199   3.262   3.831   2.288
 2770SOL    HW1 2200   3.238   3.794   2.198
 2770SOL    HW2 2201   3.361   3.847   2.292
 2773SOL     OW 2202   2.476   3.846   1.979
 2773SOL    HW1 2203   2.574   3.824   1.986
 2773SOL    HW2 2204   2.445   3.829   1.886
 2777SOL     OW 2205   2.401   3.788   2.374
 2777SOL    HW1 2206   2.320   3.789   2.432
 2777SOL    HW2 2207   2.404   3.871   2.319
 2778SOL     OW 2208   2.159   3.759   2.033
 2778SOL    HW1 2209   2.208   3.843   2.012
 2778SOL    HW2 2210   2.221   3.694   2.078
 2779SOL     OW 2211   2.797   3.960   2.342
 2779SOL    HW1 2212   2.749   4.001   2.264
 2779SOL    HW2 2213   2.896   3.958   2.323
 2784SOL     OW 2214   2.423   3.946   3.009
 2784SOL    HW1 2215   2.461   3.862   3.046
 2784SOL    HW2 2216   2.335   3.965   3.053
 2785SOL     OW 2217   2.728   4.178   2.504
 2785SOL    HW1 2218   2.696   4.250   2.442
 2785SOL    HW2 2219   2.752   4.097   2.451
 2786SOL     OW 2220   2.879   3.763   2.615
 2786SOL    HW1 2221   2.807   3.768   2.546
 2786SOL    HW2 2222   2.855   3.694   2.684
 2791SOL     OW 2223   2.389   3.980   2.190
 2791SOL    HW1 2224   2.416   3.921   2.115
 2791SOL    HW2 2225   2.389   4.075   2.159
 2794SOL     OW 2226   2.777   3.813   3.264
 2794SOL    HW1 2227   2.802   3.793   3.169
 2794SOL    HW2 2228   2.849   3.869   3.306
 2804SOL     OW 2229   2.366   3.774   3.602
 2804SOL    HW1 2230   2.324   3.717   3.532
 2804SOL    HW2 2231   2.300   3.843   3.634
 2808SOL     OW 2232   2.169   3.937   3.093
 2808SOL    HW1 2233   2.146   3.974   3.183
 2808SOL    HW2 2234   2.139   3.842   3.087
 2811SOL     OW 2235   2.169   3.787   2.480
 2811SOL    HW1 2236   2.158   3.881   2.513
 2811SOL    HW2 2237   2.164   3.724   2.557
 2832SOL     OW 2238   3.588   3.859   2.385
 2832SOL    HW1 2239   3.661   3.842   2.318
 2832SOL    HW2 2240   3.557   3.772   2.423
 2835SOL     OW 2241   2.125   4.050   2.582
 2835SOL    HW1 2242   2.046   4.101   2.548
 2835SOL    HW2 2243   2.116   4.035   2.680
 2839SOL     OW 2244   2.876   3.960   2.833
 2839SOL    HW1 2245   2.868   3.924   2.740
 2839SOL    HW2 2246   2.874   3.884   2.898
 2842SOL     OW 2247   2.534   3.927   3.351
 2842SOL    HW1 2248   2.624   3.911   3.311
 2842SOL    HW2 2249   2.542   3.932   3.450
 2843SOL     OW 2250   1.937   4.069   1.895
 2843SOL    HW1 2251   1.845   4.041   1.866
 2843SOL    HW2 2252   1.968   4.146   1.839
 2845SOL     OW 2253   1.934   3.890   2.180
 2845SOL    HW1 2254   1.917   3.973   2.126
 2845SOL    HW2 2255   2.024   3.853   2.158
 2851SOL     OW 2256   3.087   4.049   2.311
 2851SOL    HW1 2257   3.152   3.975   2.300
 2851SOL    HW2 2258   3.107   4.099   2.395
 2858SOL     OW 2259   2.290   4.148   2.382
 2858SOL    HW1 2260   2.320   4.076   2.320
 2858SOL    HW2 2261   2.251   4.108   2.465
 2860SOL     OW 2262   3.286   3.938   2.974
 2860SOL    HW1 2263   3.338   3.873   3.029
 2860SOL    HW2 2264   3.237   4.001   3.035
 2861SOL     OW 2265   2.863   3.758   3.016
 2861SOL    HW1 2266   2.800   3.686   2.985
 2861SOL    HW2 2267   2.956   3.722   3.016
 2863SOL     OW 2268   3.214   3.776   2.030
 2863SOL    HW1 2269   3.249   3.735   1.946
 2863SOL    HW2 2270   3.124   3.738   2.050
 2986SOL     OW 2271   3.854   1.821   1.571
 2986SOL    HW1 2272   3.844   1.806   1.670
 2986SOL    HW2 2273   3.768   1.857   1.535
 3058SOL     OW 2274   3.854   1.794   1.851
 3058SOL    HW1 2275   3.813   1.720   1.904
 3058SOL    HW2 2276   3.918   1.845   1.909
 3101SOL     OW 2277   3.955   1.713   2.345
 3101SOL    HW1 2278   3.989   1.790   2.399
 3101SOL    HW2 2279   3.999   1.713   2.255
 3108SOL     OW 2280   3.751   1.596   1.979
 3108SOL    HW1 2281   3.732   1.500   2.000
 3108SOL    HW2 2282   3.718   1.654   2.054
 3124SOL     OW 2283   4.075   1.801   2.715
 3124SOL    HW1 2284   4.125   1.715   2.721
 3124SOL    HW2 2285   4.140   1.878   2.712
 3129SOL     OW 2286   3.973   1.785   3.103
 3129SOL    HW1 2287   4.030   1.720   3.153
 3129SOL    HW2 2288   3.957   1.752   3.010
 3154SOL     OW 2289   3.788   1.564   3.193
 3154SOL    HW1 2290   3.742   1.646   3.159
 3154SOL    HW2 2291   3.886   1.583   3.202
 3176SOL     OW 2292   3.732   1.326   2.062
 3176SOL    HW1 2293   3.639   1.347   2.031
 3176SOL    HW2 2294   3.742   1.227   2.075
 3177SOL     OW 2295   3.812   1.801   2.789
 3177SOL    HW1 2296   3.770   1.715   2.762
 3177SOL    HW2 2297   3.906   1.804   2.755
 3333SOL     OW 2298   3.837   2.599   1.597
 3333SOL    HW1 2299   3.925   2.586   1.642
 3333SOL    HW2 2300   3.824   2.696   1.575
 3337SOL     OW 2301   4.041   2.113   1.801
 3337SOL    HW1 2302   4.112   2.184   1.807
 3337SOL    HW2 2303   3.953   2.152   1.829
 3351SOL     OW 2304   3.926   2.147   1.498
 3351SOL    HW1 2305   3.846   2.207   1.485
 3351SOL    HW2 2306   3.916   2.098   1.584
 3369SOL     OW 2307   3.802   2.418   1.386
 3369SOL    HW1 2308   3.894   2.417   1.345
 3369SOL    HW2 2309   3.796   2.492   1.453
 3395SOL     OW 2310   4.074   2.760   1.804
 3395SOL    HW1 2311   4.150   2.804   1.852
 3395SOL    HW2 2312   4.109   2.713   1.722
 3406SOL     OW 2313   3.913   2.382   1.722
 3406SOL    HW1 2314   3.972   2.342   1.652
 3406SOL    HW2 2315   3.855   2.453   1.681
 3428SOL     OW 2316   3.829   2.875   1.726
 3428SOL    HW1 2317   3.752   2.842   1.780
 3428SOL    HW2 2318   3.914   2.845   1.768
 3439SOL     OW 2319   3.945   3.176   1.844
 3439SOL    HW1 2320   3.880   3.103   1.823
 3439SOL    HW2 2321   3.949   3.190   1.942
 3450SOL     OW 2322   3.954   2.490   1.975
 3450SOL    HW1 2323   3.861   2.488   2.012
 3450SOL    HW2 2324   3.955   2.451   1.883
 3451SOL     OW 2325   3.949   2.137   2.858
 3451SOL    HW1 2326   3.984   2.120   2.950
 3451SOL    HW2 2327   3.861   2.092   2.846
 3452SOL     OW 2328   3.743   2.230   2.509
 3452SOL    HW1 2329   3.661   2.273   2.548
 3452SOL    HW2 2330   3.715   2.157   2.446
 3462SOL     OW 2331   3.954   3.296   2.400
 3462SOL    HW1 2332   3.928   3.392   2.400
 3462SOL    HW2 2333   3.883   3.242   2.445
 3463SOL     OW 2334   3.964   2.953   2.748
 3463SOL    HW1 2335   3.978   2.869   2.800
 3463SOL    HW2 2336   3.909   3.017   2.803
 3466SOL     OW 2337   3.846   2.505   2.425
 3466SOL    HW1 2338   3.801   2.417   2.442
 3466SOL    HW2 2339   3.845   2.559   2.509
 3467SOL     OW 2340   3.751   3.458   1.979
 3467SOL    HW1 2341   3.732   3.362   2.000
 3467SOL    HW2 2342   3.718   3.516   2.054
 3468SOL     OW 2343   3.837   2.599   3.459
 3468SOL    HW1 2344   3.925   2.586   3.504
 3468SOL    HW2 2345   3.824   2.696   3.437
 3471SOL     OW 2346   3.921   2.838   3.126
 3471SOL    HW1 2347   4.010   2.793   3.112
 3471SOL    HW2 2348   3.848   2.773   3.107
 3478SOL     OW 2349   3.800   2.673   2.651
 3478SOL    HW1 2350   3.899   2.661   2.660
 3478SOL    HW2 2351   3.776   2.768   2.672
 3484SOL     OW 2352   4.045   2.805   2.104
 3484SOL    HW1 2353   4.127   2.844   2.062
 3484SOL    HW2 2354   4.018   2.723   2.055
 3486SOL     OW 2355   3.926   2.147   3.360
 3486SOL    HW1 2356   3.846   2.207   3.347
 3486SOL    HW2 2357   3.916   2.098   3.446
 3490SOL     OW 2358   4.106   2.562   2.342
 3490SOL    HW1 2359   4.151   2.472   2.339
 3490SOL    HW2 2360   4.012   2.551   2.375
 3497SOL     OW 2361   4.021   1.897   2.033
 3497SOL    HW1 2362   4.070   1.981   2.012
 3497SOL    HW2 2363   4.083   1.832   2.078
 3503SOL     OW 2364   3.802   2.418   3.248
 3503SOL    HW1 2365   3.894   2.417   3.207
 3503SOL    HW2 2366   3.796   2.492   3.315
 3513SOL     OW 2367   3.788   3.426   3.193
 3513SOL    HW1 2368   3.742   3.508   3.159
 3513SOL    HW2 2369   3.886   3.445   3.202
 3514SOL     OW 2370   4.091   2.962   2.363
 3514SOL    HW1 2371   4.084   3.045   2.307
 3514SOL    HW2 2372   4.095   2.882   2.303
 3523SOL     OW 2373   4.031   2.075   3.093
 3523SOL    HW1 2374   4.008   2.112   3.183
 3523SOL    HW2 2375   4.001   1.980   3.087
 3524SOL     OW 2376   3.761   3.172   3.144
 3524SOL    HW1 2377   3.814   3.123   3.212
 3524SOL    HW2 2378   3.783   3.270   3.149
 3526SOL     OW 2379   4.031   1.925   2.480
 3526SOL    HW1 2380   4.020   2.019   2.513
 3526SOL    HW2 2381   4.026   1.862   2.557
 3532SOL     OW 2382   4.043   2.672   2.811
 3532SOL    HW1 2383   4.136   2.708   2.816
 3532SOL    HW2 2384   4.037   2.587   2.863
 3533SOL     OW 2385   4.063   2.371   2.868
 3533SOL    HW1 2386   4.011   2.288   2.851
 3533SOL    HW2 2387   4.140   2.376   2.804
 3536SOL     OW 2388   3.732   3.188   2.062
 3536SOL    HW1 2389   3.639   3.209   2.031
 3536SOL    HW2 2390   3.742   3.089   2.075
 3540SOL     OW 2391   3.764   2.406   2.976
 3540SOL    HW1 2392   3.849   2.373   2.935
 3540SOL    HW2 2393   3.777   2.421   3.074
 3546SOL     OW 2394   4.197   2.362   2.053
 3546SOL    HW1 2395   4.258   2.442   2.057
 3546SOL    HW2 2396   4.102   2.393   2.060
 3547SOL     OW 2397   3.883   2.999   3.328
 3547SOL    HW1 2398   3.905   2.938   3.404
 3547SOL    HW2 2399   3.893   2.950   3.242
 3549SOL     OW 2400   3.807   3.120   2.884
 3549SOL    HW1 2401   3.802   3.119   2.984
 3549SOL    HW2 2402   3.724   3.079   2.846
 3554SOL     OW 2403   3.987   2.188   2.582
 3554SOL    HW1 2404   3.908   2.239   2.548
 3554SOL    HW2 2405   3.978   2.173   2.680
 3561SOL     OW 2406   3.979   3.210   2.152
 3561SOL    HW1 2407   3.883   3.211   2.125
 3561SOL    HW2 2408   3.991   3.263   2.236
 3564SOL     OW 2409   3.799   2.207   1.895
 3564SOL    HW1 2410   3.707   2.179   1.866
 3564SOL    HW2 2411   3.830   2.284   1.839
 3565SOL     OW 2412   3.796   2.028   2.180
 3565SOL    HW1 2413   3.779   2.111   2.126
 3565SOL    HW2 2414   3.886   1.991   2.158
 3575SOL     OW 2415   3.803   3.102   2.515
 3575SOL    HW1 2416   3.802   3.055   2.603
 3575SOL    HW2 2417   3.885   3.074   2.464
 3577SOL     OW 2418   4.152   2.286   2.382
 3577SOL    HW1 2419   4.182   2.214   2.320
 3577SOL    HW2 2420   4.113   2.246   2.465
 3578SOL     OW 2421   4.041   2.409   3.142
 3578SOL    HW1 2422   4.079   2.350   3.214
 3578SOL    HW2 2423   4.081   2.383   3.054
 3583SOL     OW 2424   3.763   2.939   2.162
 3583SOL    HW1 2425   3.862   2.928   2.153
 3583SOL    HW2 2426   3.723   2.853   2.194
   4.92283   4.92283   4.92283
