; mobley_7794077_GMX.itp created by acpype (v: 2023.10.27) on Thu May 21 00:08:19 2026

[ atomtypes ]
;name   bond_type     mass     charge   ptype   sigma         epsilon       Amb
 cc       cc          0.00000  0.00000   A     3.31521e-01   4.13379e-01 ; 1.86  0.0988
 cd       cd          0.00000  0.00000   A     3.31521e-01   4.13379e-01 ; 1.86  0.0988
 c        c           0.00000  0.00000   A     3.31521e-01   4.13379e-01 ; 1.86  0.0988
 c3       c3          0.00000  0.00000   A     3.39771e-01   4.51035e-01 ; 1.91  0.1078
 ns       ns          0.00000  0.00000   A     3.26995e-01   4.91202e-01 ; 1.84  0.1174
 o        o           0.00000  0.00000   A     3.04812e-01   6.12119e-01 ; 1.71  0.1463
 f        f           0.00000  0.00000   A     3.03422e-01   3.48109e-01 ; 1.70  0.0832
 h4       h4          0.00000  0.00000   A     2.53639e-01   6.73624e-02 ; 1.42  0.0161
 hn       hn          0.00000  0.00000   A     1.10650e-01   4.18400e-02 ; 0.62  0.0100

[ moleculetype ]
;name            nrexcl
 mobley_7794077   3

[ atoms ]
;   nr  type  resi  res  atom  cgnr     charge      mass       ; qtot   bond_type
     1   cc     1   MOL    C1    1     0.122600     12.01000 ; qtot 0.123
     2   cd     1   MOL    C2    2    -0.377400     12.01000 ; qtot -0.255
     3    c     1   MOL    C3    3     0.735700     12.01000 ; qtot 0.481
     4    c     1   MOL    C4    4     0.804499     12.01000 ; qtot 1.285
     5   c3     1   MOL    C5    5     0.723100     12.01000 ; qtot 2.008
     6   ns     1   MOL    N1    6    -0.461100     14.01000 ; qtot 1.547
     7   ns     1   MOL    N2    7    -0.580500     14.01000 ; qtot 0.967
     8    o     1   MOL    O1    8    -0.575500     16.00000 ; qtot 0.391
     9    o     1   MOL    O2    9    -0.614500     16.00000 ; qtot -0.223
    10    f     1   MOL    F1   10    -0.229633     19.00000 ; qtot -0.453
    11    f     1   MOL    F2   11    -0.229633     19.00000 ; qtot -0.682
    12    f     1   MOL    F3   12    -0.229633     19.00000 ; qtot -0.912
    13   h4     1   MOL    H1   13     0.185000      1.00800 ; qtot -0.727
    14   hn     1   MOL    H2   14     0.364500      1.00800 ; qtot -0.363
    15   hn     1   MOL    H3   15     0.362500      1.00800 ; qtot -0.000

[ bonds ]
;   ai     aj funct   r             k
     1      2   1    1.3730e-01    3.2321e+05 ;     C1 - C2    
     1      6   1    1.3804e-01    2.8065e+05 ;     C1 - N1    
     1     13   1    1.0809e-01    3.0854e+05 ;     C1 - H1    
     2      3   1    1.4728e-01    2.3273e+05 ;     C2 - C3    
     2      5   1    1.5018e-01    2.1244e+05 ;     C2 - C5    
     3      7   1    1.3798e-01    2.8122e+05 ;     C3 - N2    
     3      8   1    1.2190e-01    4.9421e+05 ;     C3 - O1    
     4      6   1    1.3798e-01    2.8122e+05 ;     C4 - N1    
     4      7   1    1.3798e-01    2.8122e+05 ;     C4 - N2    
     4      9   1    1.2190e-01    4.9421e+05 ;     C4 - O2    
     5     10   1    1.3512e-01    2.7973e+05 ;     C5 - F1    
     5     11   1    1.3512e-01    2.7973e+05 ;     C5 - F2    
     5     12   1    1.3512e-01    2.7973e+05 ;     C5 - F3    
     6     14   1    1.0132e-01    3.9630e+05 ;     N1 - H2    
     7     15   1    1.0132e-01    3.9630e+05 ;     N2 - H3    

[ pairs ]
;   ai     aj    funct
     1      7      1 ;     C1 - N2    
     1      8      1 ;     C1 - O1    
     1      9      1 ;     C1 - O2    
     1     10      1 ;     C1 - F1    
     1     11      1 ;     C1 - F2    
     1     12      1 ;     C1 - F3    
     2      4      1 ;     C2 - C4    
     2     14      1 ;     C2 - H2    
     2     15      1 ;     C2 - H3    
     3      9      1 ;     C3 - O2    
     3     10      1 ;     C3 - F1    
     3     11      1 ;     C3 - F2    
     3     12      1 ;     C3 - F3    
     4      8      1 ;     C4 - O1    
     5      7      1 ;     C5 - N2    
     5      8      1 ;     C5 - O1    
     6      3      1 ;     N1 - C3    
     6      5      1 ;     N1 - C5    
     6     15      1 ;     N1 - H3    
     7     14      1 ;     N2 - H2    
     8     15      1 ;     O1 - H3    
     9     14      1 ;     O2 - H2    
     9     15      1 ;     O2 - H3    
    13      3      1 ;     H1 - C3    
    13      4      1 ;     H1 - C4    
    13      5      1 ;     H1 - C5    
    13     14      1 ;     H1 - H2    

[ angles ]
;   ai     aj     ak    funct   theta         cth
     1      2      3      1    1.2132e+02    5.1965e+02 ;     C1 - C2     - C3    
     1      2      5      1    1.2668e+02    5.0258e+02 ;     C1 - C2     - C5    
     1      6      4      1    1.2518e+02    6.5346e+02 ;     C1 - N1     - C4    
     1      6     14      1    1.1891e+02    4.7656e+02 ;     C1 - N1     - H2    
     2      1      6      1    1.2145e+02    5.7120e+02 ;     C2 - C1     - N1    
     2      1     13      1    1.2911e+02    3.6777e+02 ;     C2 - C1     - H1    
     2      3      7      1    1.1220e+02    5.7245e+02 ;     C2 - C3     - N2    
     2      3      8      1    1.2371e+02    6.5530e+02 ;     C2 - C3     - O1    
     2      5     10      1    1.1178e+02    6.6668e+02 ;     C2 - C5     - F1    
     2      5     11      1    1.1178e+02    6.6668e+02 ;     C2 - C5     - F2    
     2      5     12      1    1.1178e+02    6.6668e+02 ;     C2 - C5     - F3    
     3      2      5      1    1.1767e+02    5.0593e+02 ;     C3 - C2     - C5    
     3      7      4      1    1.2805e+02    6.4618e+02 ;     C3 - N2     - C4    
     3      7     15      1    1.1726e+02    4.8007e+02 ;     C3 - N2     - H3    
     4      6     14      1    1.1726e+02    4.8007e+02 ;     C4 - N1     - H2    
     4      7     15      1    1.1726e+02    4.8007e+02 ;     C4 - N2     - H3    
     6      1     13      1    1.1582e+02    4.1045e+02 ;     N1 - C1     - H1    
     6      4      7      1    1.1289e+02    6.2752e+02 ;     N1 - C4     - N2    
     6      4      9      1    1.2305e+02    7.2977e+02 ;     N1 - C4     - O2    
     7      3      8      1    1.2305e+02    7.2977e+02 ;     N2 - C3     - O1    
     7      4      9      1    1.2305e+02    7.2977e+02 ;     N2 - C4     - O2    
    10      5     11      1    1.0737e+02    8.9437e+02 ;     F1 - C5     - F2    
    10      5     12      1    1.0737e+02    8.9437e+02 ;     F1 - C5     - F3    
    11      5     12      1    1.0737e+02    8.9437e+02 ;     F2 - C5     - F3    

[ dihedrals ] ; propers
; for gromacs 4.5 or higher, using funct 9
;    i      j      k      l   func   phase     kd      pn
     1      2      3      7      9   180.00  12.02900   2 ;     C1-    C2-    C3-    N2
     1      2      3      8      9   180.00  12.02900   2 ;     C1-    C2-    C3-    O1
     1      2      5     10      9     0.00   0.00000   0 ;     C1-    C2-    C5-    F1
     1      2      5     11      9     0.00   0.00000   0 ;     C1-    C2-    C5-    F2
     1      2      5     12      9     0.00   0.00000   0 ;     C1-    C2-    C5-    F3
     1      6      4      7      9   180.00  10.46000   2 ;     C1-    N1-    C4-    N2
     1      6      4      9      9   180.00  10.46000   2 ;     C1-    N1-    C4-    O2
     2      1      6      4      9   180.00   6.90360   2 ;     C2-    C1-    N1-    C4
     2      1      6     14      9   180.00   6.90360   2 ;     C2-    C1-    N1-    H2
     2      3      7      4      9   180.00  10.46000   2 ;     C2-    C3-    N2-    C4
     2      3      7     15      9   180.00  10.46000   2 ;     C2-    C3-    N2-    H3
     3      2      5     10      9     0.00   0.00000   0 ;     C3-    C2-    C5-    F1
     3      2      5     11      9     0.00   0.00000   0 ;     C3-    C2-    C5-    F2
     3      2      5     12      9     0.00   0.00000   0 ;     C3-    C2-    C5-    F3
     3      7      4      6      9   180.00  10.46000   2 ;     C3-    N2-    C4-    N1
     3      7      4      9      9   180.00  10.46000   2 ;     C3-    N2-    C4-    O2
     4      7      3      8      9   180.00  10.46000   2 ;     C4-    N2-    C3-    O1
     5      2      3      7      9   180.00  12.02900   2 ;     C5-    C2-    C3-    N2
     5      2      3      8      9   180.00  12.02900   2 ;     C5-    C2-    C3-    O1
     6      1      2      3      9   180.00  16.73600   2 ;     N1-    C1-    C2-    C3
     6      1      2      5      9   180.00  16.73600   2 ;     N1-    C1-    C2-    C5
     6      4      7     15      9   180.00  10.46000   2 ;     N1-    C4-    N2-    H3
     7      4      6     14      9   180.00  10.46000   2 ;     N2-    C4-    N1-    H2
     8      3      7     15      9     0.00   8.36800   1 ;     O1-    C3-    N2-    H3
     8      3      7     15      9   180.00  10.46000   2 ;     O1-    C3-    N2-    H3
     9      4      6     14      9     0.00   8.36800   1 ;     O2-    C4-    N1-    H2
     9      4      6     14      9   180.00  10.46000   2 ;     O2-    C4-    N1-    H2
     9      4      7     15      9     0.00   8.36800   1 ;     O2-    C4-    N2-    H3
     9      4      7     15      9   180.00  10.46000   2 ;     O2-    C4-    N2-    H3
    13      1      2      3      9   180.00  16.73600   2 ;     H1-    C1-    C2-    C3
    13      1      2      5      9   180.00  16.73600   2 ;     H1-    C1-    C2-    C5
    13      1      6      4      9   180.00   6.90360   2 ;     H1-    C1-    N1-    C4
    13      1      6     14      9   180.00   6.90360   2 ;     H1-    C1-    N1-    H2

[ dihedrals ] ; impropers
; treated as propers in GROMACS to use correct AMBER analytical function
;    i      j      k      l   func   phase     kd      pn
     1      2      5      3      4   180.00   4.60240   2 ;     C1-    C2-    C5-    C3
     2      7      3      8      4   180.00  43.93200   2 ;     C2-    N2-    C3-    O1
     3      4      7     15      4   180.00   4.60240   2 ;     C3-    C4-    N2-    H3
     4      1      6     14      4   180.00   4.60240   2 ;     C4-    C1-    N1-    H2
     6      1     13      2      4   180.00   4.60240   2 ;     N1-    C1-    H1-    C2
     6      7      4      9      4   180.00  43.93200   2 ;     N1-    N2-    C4-    O2
