; mobley_2859600_GMX.itp created by acpype (v: 2023.10.27) on Thu May 21 00:24:06 2026

[ atomtypes ]
;name   bond_type     mass     charge   ptype   sigma         epsilon       Amb
 ca       ca          0.00000  0.00000   A     3.31521e-01   4.13379e-01 ; 1.86  0.0988
 c2       c2          0.00000  0.00000   A     3.31521e-01   4.13379e-01 ; 1.86  0.0988
 ce       ce          0.00000  0.00000   A     3.31521e-01   4.13379e-01 ; 1.86  0.0988
 ha       ha          0.00000  0.00000   A     2.62548e-01   6.73624e-02 ; 1.47  0.0161

[ moleculetype ]
;name            nrexcl
 mobley_2859600   3

[ atoms ]
;   nr  type  resi  res  atom  cgnr     charge      mass       ; qtot   bond_type
     1   ca     1   MOL    C1    1    -0.127000     12.01000 ; qtot -0.127
     2   ca     1   MOL    C2    2    -0.131000     12.01000 ; qtot -0.258
     3   ca     1   MOL    C3    3    -0.131000     12.01000 ; qtot -0.389
     4   ca     1   MOL    C4    4    -0.118500     12.01000 ; qtot -0.508
     5   ca     1   MOL    C5    5    -0.118500     12.01000 ; qtot -0.626
     6   ca     1   MOL    C6    6    -0.057800     12.01000 ; qtot -0.684
     7   c2     1   MOL    C7    7    -0.209000     12.01000 ; qtot -0.893
     8   ce     1   MOL    C8    8    -0.113200     12.01000 ; qtot -1.006
     9   ha     1   MOL    H1    9     0.131000      1.00800 ; qtot -0.875
    10   ha     1   MOL    H2   10     0.131000      1.00800 ; qtot -0.744
    11   ha     1   MOL    H3   11     0.131000      1.00800 ; qtot -0.613
    12   ha     1   MOL    H4   12     0.131500      1.00800 ; qtot -0.482
    13   ha     1   MOL    H5   13     0.131500      1.00800 ; qtot -0.350
    14   ha     1   MOL    H6   14     0.113500      1.00800 ; qtot -0.237
    15   ha     1   MOL    H7   15     0.113500      1.00800 ; qtot -0.123
    16   ha     1   MOL    H8   16     0.123000      1.00800 ; qtot -0.000

[ bonds ]
;   ai     aj funct   r             k
     1      2   1    1.3986e-01    2.9644e+05 ;     C1 - C2    
     1      3   1    1.3986e-01    2.9644e+05 ;     C1 - C3    
     1      9   1    1.0860e-01    3.0183e+05 ;     C1 - H1    
     2      4   1    1.3986e-01    2.9644e+05 ;     C2 - C4    
     2     10   1    1.0860e-01    3.0183e+05 ;     C2 - H2    
     3      5   1    1.3986e-01    2.9644e+05 ;     C3 - C5    
     3     11   1    1.0860e-01    3.0183e+05 ;     C3 - H3    
     4      6   1    1.3986e-01    2.9644e+05 ;     C4 - C6    
     4     12   1    1.0860e-01    3.0183e+05 ;     C4 - H4    
     5      6   1    1.3986e-01    2.9644e+05 ;     C5 - C6    
     5     13   1    1.0860e-01    3.0183e+05 ;     C5 - H5    
     6      8   1    1.4800e-01    2.2748e+05 ;     C6 - C8    
     7      8   1    1.3457e-01    3.5505e+05 ;     C7 - C8    
     7     14   1    1.0882e-01    2.9898e+05 ;     C7 - H6    
     7     15   1    1.0882e-01    2.9898e+05 ;     C7 - H7    
     8     16   1    1.0880e-01    2.9923e+05 ;     C8 - H8    

[ pairs ]
;   ai     aj    funct
     1      6      1 ;     C1 - C6    
     1     12      1 ;     C1 - H4    
     1     13      1 ;     C1 - H5    
     2      5      1 ;     C2 - C5    
     2      8      1 ;     C2 - C8    
     2     11      1 ;     C2 - H3    
     3      4      1 ;     C3 - C4    
     3      8      1 ;     C3 - C8    
     3     10      1 ;     C3 - H2    
     4      7      1 ;     C4 - C7    
     4     13      1 ;     C4 - H5    
     4     16      1 ;     C4 - H8    
     5      7      1 ;     C5 - C7    
     5     12      1 ;     C5 - H4    
     5     16      1 ;     C5 - H8    
     6     10      1 ;     C6 - H2    
     6     11      1 ;     C6 - H3    
     6     14      1 ;     C6 - H6    
     6     15      1 ;     C6 - H7    
     8     12      1 ;     C8 - H4    
     8     13      1 ;     C8 - H5    
     9      4      1 ;     H1 - C4    
     9      5      1 ;     H1 - C5    
     9     10      1 ;     H1 - H2    
     9     11      1 ;     H1 - H3    
    10     12      1 ;     H2 - H4    
    11     13      1 ;     H3 - H5    
    14     16      1 ;     H6 - H8    
    15     16      1 ;     H7 - H8    

[ angles ]
;   ai     aj     ak    funct   theta         cth
     1      2      4      1    1.2002e+02    5.3279e+02 ;     C1 - C2     - C4    
     1      2     10      1    1.1988e+02    3.7572e+02 ;     C1 - C2     - H2    
     1      3      5      1    1.2002e+02    5.3279e+02 ;     C1 - C3     - C5    
     1      3     11      1    1.1988e+02    3.7572e+02 ;     C1 - C3     - H3    
     2      1      3      1    1.2002e+02    5.3279e+02 ;     C2 - C1     - C3    
     2      1      9      1    1.1988e+02    3.7572e+02 ;     C2 - C1     - H1    
     2      4      6      1    1.2002e+02    5.3279e+02 ;     C2 - C4     - C6    
     2      4     12      1    1.1988e+02    3.7572e+02 ;     C2 - C4     - H4    
     3      1      9      1    1.1988e+02    3.7572e+02 ;     C3 - C1     - H1    
     3      5      6      1    1.2002e+02    5.3279e+02 ;     C3 - C5     - C6    
     3      5     13      1    1.1988e+02    3.7572e+02 ;     C3 - C5     - H5    
     4      2     10      1    1.1988e+02    3.7572e+02 ;     C4 - C2     - H2    
     4      6      5      1    1.2002e+02    5.3279e+02 ;     C4 - C6     - C5    
     4      6      8      1    1.2079e+02    5.1530e+02 ;     C4 - C6     - C8    
     5      3     11      1    1.1988e+02    3.7572e+02 ;     C5 - C3     - H3    
     5      6      8      1    1.2079e+02    5.1530e+02 ;     C5 - C6     - C8    
     6      4     12      1    1.1988e+02    3.7572e+02 ;     C6 - C4     - H4    
     6      5     13      1    1.1988e+02    3.7572e+02 ;     C6 - C5     - H5    
     6      8      7      1    1.2298e+02    5.1873e+02 ;     C6 - C8     - C7    
     6      8     16      1    1.1503e+02    3.6560e+02 ;     C6 - C8     - H8    
     7      8     16      1    1.2000e+02    3.8694e+02 ;     C7 - C8     - H8    
     8      7     14      1    1.2049e+02    3.8618e+02 ;     C8 - C7     - H6    
     8      7     15      1    1.2049e+02    3.8618e+02 ;     C8 - C7     - H7    
    14      7     15      1    1.1666e+02    2.9003e+02 ;     H6 - C7     - H7    

[ dihedrals ] ; propers
; for gromacs 4.5 or higher, using funct 9
;    i      j      k      l   func   phase     kd      pn
     1      2      4      6      9   180.00  15.16700   2 ;     C1-    C2-    C4-    C6
     1      2      4     12      9   180.00  15.16700   2 ;     C1-    C2-    C4-    H4
     1      3      5      6      9   180.00  15.16700   2 ;     C1-    C3-    C5-    C6
     1      3      5     13      9   180.00  15.16700   2 ;     C1-    C3-    C5-    H5
     2      1      3      5      9   180.00  15.16700   2 ;     C2-    C1-    C3-    C5
     2      1      3     11      9   180.00  15.16700   2 ;     C2-    C1-    C3-    H3
     2      4      6      5      9   180.00  15.16700   2 ;     C2-    C4-    C6-    C5
     2      4      6      8      9   180.00  15.16700   2 ;     C2-    C4-    C6-    C8
     3      1      2      4      9   180.00  15.16700   2 ;     C3-    C1-    C2-    C4
     3      1      2     10      9   180.00  15.16700   2 ;     C3-    C1-    C2-    H2
     3      5      6      4      9   180.00  15.16700   2 ;     C3-    C5-    C6-    C4
     3      5      6      8      9   180.00  15.16700   2 ;     C3-    C5-    C6-    C8
     4      6      5     13      9   180.00  15.16700   2 ;     C4-    C6-    C5-    H5
     4      6      8      7      9   180.00   2.44764   2 ;     C4-    C6-    C8-    C7
     4      6      8     16      9   180.00   2.92880   2 ;     C4-    C6-    C8-    H8
     5      6      4     12      9   180.00  15.16700   2 ;     C5-    C6-    C4-    H4
     5      6      8      7      9   180.00   2.44764   2 ;     C5-    C6-    C8-    C7
     5      6      8     16      9   180.00   2.92880   2 ;     C5-    C6-    C8-    H8
     6      4      2     10      9   180.00  15.16700   2 ;     C6-    C4-    C2-    H2
     6      5      3     11      9   180.00  15.16700   2 ;     C6-    C5-    C3-    H3
     6      8      7     14      9   180.00  27.82360   2 ;     C6-    C8-    C7-    H6
     6      8      7     15      9   180.00  27.82360   2 ;     C6-    C8-    C7-    H7
     8      6      4     12      9   180.00  15.16700   2 ;     C8-    C6-    C4-    H4
     8      6      5     13      9   180.00  15.16700   2 ;     C8-    C6-    C5-    H5
     9      1      2      4      9   180.00  15.16700   2 ;     H1-    C1-    C2-    C4
     9      1      2     10      9   180.00  15.16700   2 ;     H1-    C1-    C2-    H2
     9      1      3      5      9   180.00  15.16700   2 ;     H1-    C1-    C3-    C5
     9      1      3     11      9   180.00  15.16700   2 ;     H1-    C1-    C3-    H3
    10      2      4     12      9   180.00  15.16700   2 ;     H2-    C2-    C4-    H4
    11      3      5     13      9   180.00  15.16700   2 ;     H3-    C3-    C5-    H5
    14      7      8     16      9   180.00  27.82360   2 ;     H6-    C7-    C8-    H8
    15      7      8     16      9   180.00  27.82360   2 ;     H7-    C7-    C8-    H8

[ dihedrals ] ; impropers
; treated as propers in GROMACS to use correct AMBER analytical function
;    i      j      k      l   func   phase     kd      pn
     1      4      2     10      4   180.00   4.60240   2 ;     C1-    C4-    C2-    H2
     1      5      3     11      4   180.00   4.60240   2 ;     C1-    C5-    C3-    H3
     2      6      4     12      4   180.00   4.60240   2 ;     C2-    C6-    C4-    H4
     3      6      5     13      4   180.00   4.60240   2 ;     C3-    C6-    C5-    H5
     4      5      6      8      4   180.00   4.60240   2 ;     C4-    C5-    C6-    C8
     7      6      8     16      4   180.00   4.60240   2 ;     C7-    C6-    C8-    H8
     8     14      7     15      4   180.00   4.60240   2 ;     C8-    H6-    C7-    H7
     9      1      3      2      4   180.00   4.60240   2 ;     H1-    C1-    C3-    C2
