mobley_1896013_GMX.gro created by acpype (v: 2023.10.27) on Thu May 21 00:09:23 2026
 2402
    1MOL     C1    1   2.226   2.447   2.366
    1MOL     C2    2   2.227   2.307   2.426
    1MOL     C3    3   2.289   2.206   2.329
    1MOL     C4    4   2.423   2.258   2.277
    1MOL     C5    5   2.412   2.401   2.224
    1MOL     O1    6   2.357   2.487   2.325
    1MOL     O2    7   2.092   2.270   2.455
    1MOL     O3    8   2.313   2.083   2.398
    1MOL     O4    9   2.472   2.174   2.173
    1MOL     O5   10   2.340   2.409   2.101
    1MOL     H1   11   2.156   2.455   2.282
    1MOL     H2   12   2.191   2.519   2.441
    1MOL     H3   13   2.283   2.307   2.520
    1MOL     H4   14   2.220   2.182   2.247
    1MOL     H5   15   2.496   2.255   2.359
    1MOL     H6   16   2.512   2.439   2.202
    1MOL     H7   17   2.059   2.336   2.519
    1MOL     H8   18   2.374   2.104   2.470
    1MOL     H9   19   2.556   2.211   2.145
    1MOL    H10   20   2.338   2.503   2.076
   14SOL     OW   21   1.460   1.505   1.339
   14SOL    HW1   22   1.484   1.599   1.365
   14SOL    HW2   23   1.444   1.451   1.421
   18SOL     OW   24   1.127   1.341   1.690
   18SOL    HW1   25   1.174   1.341   1.778
   18SOL    HW2   26   1.079   1.254   1.679
   31SOL     OW   27   1.293   1.228   1.423
   31SOL    HW1   28   1.330   1.155   1.365
   31SOL    HW2   29   1.345   1.233   1.508
   35SOL     OW   30   1.187   1.792   1.616
   35SOL    HW1   31   1.211   1.852   1.540
   35SOL    HW2   32   1.194   1.697   1.586
   56SOL     OW   33   1.227   1.550   1.506
   56SOL    HW1   34   1.233   1.473   1.570
   56SOL    HW2   35   1.175   1.524   1.426
   95SOL     OW   36   1.754   1.223   1.588
   95SOL    HW1   37   1.845   1.184   1.575
   95SOL    HW2   38   1.762   1.319   1.612
   97SOL     OW   39   1.592   1.629   1.625
   97SOL    HW1   40   1.619   1.663   1.535
   97SOL    HW2   41   1.671   1.591   1.671
  109SOL     OW   42   1.272   1.445   1.142
  109SOL    HW1   43   1.319   1.458   1.229
  109SOL    HW2   44   1.206   1.371   1.151
  122SOL     OW   45   1.728   0.935   1.854
  122SOL    HW1   46   1.682   0.928   1.765
  122SOL    HW2   47   1.666   0.979   1.920
  126SOL     OW   48   0.980   1.573   1.700
  126SOL    HW1   49   0.960   1.617   1.612
  126SOL    HW2   50   1.019   1.482   1.684
  127SOL     OW   51   1.859   1.518   1.605
  127SOL    HW1   52   1.873   1.545   1.510
  127SOL    HW2   53   1.942   1.540   1.658
  142SOL     OW   54   1.369   0.950   1.660
  142SOL    HW1   55   1.408   1.039   1.680
  142SOL    HW2   56   1.379   0.930   1.563
  147SOL     OW   57   0.930   1.678   1.465
  147SOL    HW1   58   0.906   1.660   1.370
  147SOL    HW2   59   0.960   1.772   1.475
  152SOL     OW   60   1.759   1.747   1.154
  152SOL    HW1   61   1.820   1.777   1.081
  152SOL    HW2   62   1.721   1.658   1.132
  153SOL     OW   63   1.252   1.731   1.128
  153SOL    HW1   64   1.336   1.736   1.074
  153SOL    HW2   65   1.229   1.635   1.146
  163SOL     OW   66   1.650   1.720   1.394
  163SOL    HW1   67   1.703   1.730   1.310
  163SOL    HW2   68   1.623   1.810   1.428
  171SOL     OW   69   1.614   1.292   1.289
  171SOL    HW1   70   1.674   1.295   1.369
  171SOL    HW2   71   1.539   1.356   1.302
  184SOL     OW   72   1.493   1.767   0.959
  184SOL    HW1   73   1.526   1.831   0.890
  184SOL    HW2   74   1.559   1.761   1.034
  186SOL     OW   75   1.450   1.220   1.633
  186SOL    HW1   76   1.441   1.210   1.732
  186SOL    HW2   77   1.546   1.213   1.607
  192SOL     OW   78   1.730   0.934   1.517
  192SOL    HW1   79   1.768   1.025   1.532
  192SOL    HW2   80   1.722   0.917   1.418
  197SOL     OW   81   1.861   1.569   0.851
  197SOL    HW1   82   1.790   1.557   0.781
  197SOL    HW2   83   1.862   1.490   0.911
  203SOL     OW   84   1.705   1.487   1.104
  203SOL    HW1   85   1.612   1.462   1.077
  203SOL    HW2   86   1.731   1.437   1.186
  219SOL     OW   87   1.555   1.511   2.565
  219SOL    HW1   88   1.498   1.495   2.646
  219SOL    HW2   89   1.496   1.521   2.485
  227SOL     OW   90   1.460   1.505   3.201
  227SOL    HW1   91   1.484   1.599   3.227
  227SOL    HW2   92   1.444   1.451   3.283
  238SOL     OW   93   1.842   1.767   2.221
  238SOL    HW1   94   1.896   1.738   2.301
  238SOL    HW2   95   1.872   1.857   2.192
  240SOL     OW   96   1.689   0.922   2.474
  240SOL    HW1   97   1.784   0.893   2.482
  240SOL    HW2   98   1.681   0.987   2.399
  241SOL     OW   99   1.641   1.108   2.294
  241SOL    HW1  100   1.727   1.110   2.242
  241SOL    HW2  101   1.655   1.155   2.382
  244SOL     OW  102   1.293   1.228   3.285
  244SOL    HW1  103   1.330   1.155   3.227
  244SOL    HW2  104   1.345   1.233   3.370
  247SOL     OW  105   1.525   0.999   2.052
  247SOL    HW1  106   1.462   0.923   2.065
  247SOL    HW2  107   1.573   1.017   2.138
  248SOL     OW  108   1.187   1.792   3.478
  248SOL    HW1  109   1.211   1.852   3.402
  248SOL    HW2  110   1.194   1.697   3.448
  250SOL     OW  111   1.466   1.417   2.815
  250SOL    HW1  112   1.407   1.423   2.895
  250SOL    HW2  113   1.451   1.329   2.769
  251SOL     OW  114   1.667   1.714   2.434
  251SOL    HW1  115   1.626   1.691   2.346
  251SOL    HW2  116   1.649   1.640   2.499
  254SOL     OW  117   1.576   1.662   2.169
  254SOL    HW1  118   1.665   1.708   2.172
  254SOL    HW2  119   1.555   1.638   2.074
  264SOL     OW  120   1.362   1.144   2.407
  264SOL    HW1  121   1.445   1.115   2.359
  264SOL    HW2  122   1.313   1.211   2.351
  266SOL     OW  123   1.008   1.456   2.339
  266SOL    HW1  124   0.962   1.528   2.287
  266SOL    HW2  125   1.004   1.476   2.437
  268SOL     OW  126   1.795   1.066   2.735
  268SOL    HW1  127   1.733   1.051   2.659
  268SOL    HW2  128   1.743   1.077   2.820
  269SOL     OW  129   1.227   1.550   3.368
  269SOL    HW1  130   1.233   1.473   3.432
  269SOL    HW2  131   1.175   1.524   3.288
  273SOL     OW  132   1.111   1.776   2.099
  273SOL    HW1  133   1.051   1.714   2.149
  273SOL    HW2  134   1.142   1.732   2.014
  275SOL     OW  135   1.632   1.377   1.943
  275SOL    HW1  136   1.600   1.471   1.933
  275SOL    HW2  137   1.556   1.314   1.931
  279SOL     OW  138   0.940   1.698   2.766
  279SOL    HW1  139   1.020   1.641   2.787
  279SOL    HW2  140   0.891   1.658   2.689
  284SOL     OW  141   0.888   1.514   3.057
  284SOL    HW1  142   0.865   1.489   2.963
  284SOL    HW2  143   0.949   1.445   3.096
  289SOL     OW  144   1.434   1.188   1.903
  289SOL    HW1  145   1.466   1.112   1.960
  289SOL    HW2  146   1.342   1.215   1.933
  293SOL     OW  147   1.227   1.570   2.655
  293SOL    HW1  148   1.248   1.644   2.590
  293SOL    HW2  149   1.295   1.570   2.728
  295SOL     OW  150   1.271   1.797   2.453
  295SOL    HW1  151   1.315   1.861   2.389
  295SOL    HW2  152   1.221   1.849   2.523
  301SOL     OW  153   1.429   1.173   2.729
  301SOL    HW1  154   1.374   1.089   2.722
  301SOL    HW2  155   1.455   1.202   2.637
  303SOL     OW  156   1.857   0.833   2.239
  303SOL    HW1  157   1.899   0.769   2.303
  303SOL    HW2  158   1.819   0.782   2.161
  305SOL     OW  159   1.664   1.280   2.519
  305SOL    HW1  160   1.763   1.288   2.533
  305SOL    HW2  161   1.619   1.364   2.550
  308SOL     OW  162   1.754   1.223   3.450
  308SOL    HW1  163   1.845   1.184   3.437
  308SOL    HW2  164   1.762   1.319   3.474
  310SOL     OW  165   1.592   1.629   3.487
  310SOL    HW1  166   1.619   1.663   3.397
  310SOL    HW2  167   1.671   1.591   3.533
  311SOL     OW  168   1.111   1.195   2.962
  311SOL    HW1  169   1.071   1.239   3.043
  311SOL    HW2  170   1.070   1.232   2.879
  312SOL     OW  171   1.638   1.099   2.941
  312SOL    HW1  172   1.643   1.180   3.000
  312SOL    HW2  173   1.552   1.101   2.890
  321SOL     OW  174   1.252   1.348   2.250
  321SOL    HW1  175   1.302   1.425   2.290
  321SOL    HW2  176   1.157   1.350   2.282
  322SOL     OW  177   1.272   1.445   3.004
  322SOL    HW1  178   1.319   1.458   3.091
  322SOL    HW2  179   1.206   1.371   3.013
  340SOL     OW  180   1.859   1.518   3.467
  340SOL    HW1  181   1.873   1.545   3.372
  340SOL    HW2  182   1.942   1.540   3.520
  344SOL     OW  183   1.068   1.333   2.711
  344SOL    HW1  184   1.075   1.249   2.656
  344SOL    HW2  185   1.130   1.402   2.675
  363SOL     OW  186   1.347   1.059   3.096
  363SOL    HW1  187   1.371   0.996   3.022
  363SOL    HW2  188   1.257   1.099   3.078
  364SOL     OW  189   1.302   0.855   2.171
  364SOL    HW1  190   1.216   0.824   2.213
  364SOL    HW2  191   1.298   0.841   2.072
  365SOL     OW  192   1.759   1.747   3.016
  365SOL    HW1  193   1.820   1.777   2.943
  365SOL    HW2  194   1.721   1.658   2.994
  366SOL     OW  195   1.252   1.731   2.990
  366SOL    HW1  196   1.336   1.736   2.936
  366SOL    HW2  197   1.229   1.635   3.008
  370SOL     OW  198   1.388   1.573   2.339
  370SOL    HW1  199   1.455   1.585   2.265
  370SOL    HW2  200   1.348   1.662   2.362
  372SOL     OW  201   1.280   0.927   2.534
  372SOL    HW1  202   1.340   0.846   2.536
  372SOL    HW2  203   1.320   0.996   2.474
  375SOL     OW  204   1.650   1.720   3.256
  375SOL    HW1  205   1.703   1.730   3.172
  375SOL    HW2  206   1.623   1.810   3.290
  378SOL     OW  207   1.194   1.612   1.893
  378SOL    HW1  208   1.200   1.519   1.930
  378SOL    HW2  209   1.135   1.612   1.813
  381SOL     OW  210   1.504   1.607   1.906
  381SOL    HW1  211   1.412   1.644   1.913
  381SOL    HW2  212   1.542   1.627   1.816
  383SOL     OW  213   1.614   1.292   3.151
  383SOL    HW1  214   1.674   1.295   3.231
  383SOL    HW2  215   1.539   1.356   3.164
  384SOL     OW  216   1.039   1.098   2.558
  384SOL    HW1  217   0.969   1.051   2.612
  384SOL    HW2  218   1.098   1.030   2.515
  394SOL     OW  219   1.183   1.335   1.981
  394SOL    HW1  220   1.084   1.324   1.983
  394SOL    HW2  221   1.217   1.350   2.074
  396SOL     OW  222   1.493   1.767   2.821
  396SOL    HW1  223   1.526   1.831   2.752
  396SOL    HW2  224   1.559   1.761   2.896
  400SOL     OW  225   1.674   0.883   3.116
  400SOL    HW1  226   1.647   0.794   3.079
  400SOL    HW2  227   1.675   0.951   3.043
  405SOL     OW  228   0.859   1.374   1.878
  405SOL    HW1  229   0.813   1.389   1.966
  405SOL    HW2  230   0.903   1.459   1.848
  409SOL     OW  231   1.861   1.569   2.713
  409SOL    HW1  232   1.790   1.557   2.643
  409SOL    HW2  233   1.862   1.490   2.773
  415SOL     OW  234   1.705   1.487   2.966
  415SOL    HW1  235   1.612   1.462   2.939
  415SOL    HW2  236   1.731   1.437   3.048
  417SOL     OW  237   0.812   1.586   2.549
  417SOL    HW1  238   0.844   1.596   2.455
  417SOL    HW2  239   0.733   1.524   2.551
  426SOL     OW  240   0.875   1.646   2.199
  426SOL    HW1  241   0.798   1.611   2.145
  426SOL    HW2  242   0.843   1.717   2.261
  534SOL     OW  243   0.850   2.660   1.823
  534SOL    HW1  244   0.846   2.736   1.888
  534SOL    HW2  245   0.872   2.696   1.732
  538SOL     OW  246   1.460   3.367   1.339
  538SOL    HW1  247   1.484   3.461   1.365
  538SOL    HW2  248   1.444   3.313   1.421
  540SOL     OW  249   1.603   2.309   0.737
  540SOL    HW1  250   1.529   2.355   0.687
  540SOL    HW2  251   1.654   2.377   0.790
  542SOL     OW  252   1.127   3.203   1.690
  542SOL    HW1  253   1.174   3.203   1.778
  542SOL    HW2  254   1.079   3.116   1.679
  547SOL     OW  255   1.594   1.976   1.480
  547SOL    HW1  256   1.576   2.043   1.408
  547SOL    HW2  257   1.591   2.022   1.569
  555SOL     OW  258   1.293   3.090   1.423
  555SOL    HW1  259   1.330   3.017   1.365
  555SOL    HW2  260   1.345   3.095   1.508
  564SOL     OW  261   1.281   2.207   0.944
  564SOL    HW1  262   1.195   2.157   0.931
  564SOL    HW2  263   1.343   2.153   1.000
  566SOL     OW  264   0.807   2.467   1.465
  566SOL    HW1  265   0.760   2.464   1.554
  566SOL    HW2  266   0.756   2.412   1.399
  567SOL     OW  267   1.394   2.331   1.674
  567SOL    HW1  268   1.374   2.374   1.762
  567SOL    HW2  269   1.472   2.269   1.683
  568SOL     OW  270   0.973   2.752   1.572
  568SOL    HW1  271   1.019   2.668   1.543
  568SOL    HW2  272   0.917   2.786   1.497
  569SOL     OW  273   0.991   2.272   1.242
  569SOL    HW1  274   0.914   2.306   1.296
  569SOL    HW2  275   0.957   2.221   1.163
  574SOL     OW  276   1.719   2.447   1.831
  574SOL    HW1  277   1.693   2.536   1.795
  574SOL    HW2  278   1.717   2.379   1.758
  579SOL     OW  279   1.795   2.928   0.873
  579SOL    HW1  280   1.733   2.913   0.797
  579SOL    HW2  281   1.743   2.939   0.958
  580SOL     OW  282   1.227   3.412   1.506
  580SOL    HW1  283   1.233   3.335   1.570
  580SOL    HW2  284   1.175   3.386   1.426
  592SOL     OW  285   1.547   2.084   1.729
  592SOL    HW1  286   1.542   2.121   1.821
  592SOL    HW2  287   1.475   2.015   1.717
  593SOL     OW  288   0.781   2.126   1.749
  593SOL    HW1  289   0.848   2.065   1.792
  593SOL    HW2  290   0.708   2.145   1.814
  595SOL     OW  291   1.351   2.452   1.433
  595SOL    HW1  292   1.379   2.409   1.518
  595SOL    HW2  293   1.376   2.548   1.434
  602SOL     OW  294   1.076   2.545   1.464
  602SOL    HW1  295   0.996   2.484   1.467
  602SOL    HW2  296   1.157   2.492   1.440
  612SOL     OW  297   1.466   2.452   0.992
  612SOL    HW1  298   1.436   2.357   0.999
  612SOL    HW2  299   1.539   2.468   1.058
  618SOL     OW  300   1.754   3.085   1.588
  618SOL    HW1  301   1.845   3.046   1.575
  618SOL    HW2  302   1.762   3.181   1.612
  620SOL     OW  303   1.592   3.491   1.625
  620SOL    HW1  304   1.619   3.525   1.535
  620SOL    HW2  305   1.671   3.453   1.671
  622SOL     OW  306   1.638   2.961   1.079
  622SOL    HW1  307   1.643   3.042   1.138
  622SOL    HW2  308   1.552   2.963   1.028
  623SOL     OW  309   0.915   1.951   1.402
  623SOL    HW1  310   0.940   1.931   1.307
  623SOL    HW2  311   0.987   2.007   1.444
  624SOL     OW  312   0.980   2.978   1.719
  624SOL    HW1  313   0.881   2.984   1.729
  624SOL    HW2  314   1.003   2.898   1.663
  627SOL     OW  315   1.274   2.248   1.262
  627SOL    HW1  316   1.295   2.322   1.326
  627SOL    HW2  317   1.185   2.265   1.219
  636SOL     OW  318   1.587   2.641   1.670
  636SOL    HW1  319   1.495   2.679   1.665
  636SOL    HW2  320   1.647   2.688   1.605
  637SOL     OW  321   1.013   1.967   1.770
  637SOL    HW1  322   1.019   2.052   1.718
  637SOL    HW2  323   1.045   1.891   1.713
  640SOL     OW  324   1.360   2.724   1.045
  640SOL    HW1  325   1.285   2.724   0.979
  640SOL    HW2  326   1.397   2.632   1.054
  645SOL     OW  327   1.728   2.797   1.854
  645SOL    HW1  328   1.682   2.790   1.765
  645SOL    HW2  329   1.666   2.841   1.920
  650SOL     OW  330   1.859   3.380   1.605
  650SOL    HW1  331   1.873   3.407   1.510
  650SOL    HW2  332   1.942   3.402   1.658
  657SOL     OW  333   1.138   2.242   1.678
  657SOL    HW1  334   1.093   2.305   1.742
  657SOL    HW2  335   1.231   2.273   1.661
  658SOL     OW  336   1.160   2.069   1.477
  658SOL    HW1  337   1.160   2.133   1.554
  658SOL    HW2  338   1.188   2.117   1.394
  662SOL     OW  339   1.002   2.658   1.238
  662SOL    HW1  340   1.043   2.626   1.324
  662SOL    HW2  341   0.906   2.631   1.235
  665SOL     OW  342   1.369   2.812   1.660
  665SOL    HW1  343   1.408   2.901   1.680
  665SOL    HW2  344   1.379   2.792   1.563
  667SOL     OW  345   1.657   2.466   1.206
  667SOL    HW1  346   1.619   2.397   1.268
  667SOL    HW2  347   1.739   2.430   1.162
  673SOL     OW  348   1.347   2.921   1.234
  673SOL    HW1  349   1.371   2.858   1.160
  673SOL    HW2  350   1.257   2.961   1.216
  686SOL     OW  351   1.650   3.582   1.394
  686SOL    HW1  352   1.703   3.592   1.310
  686SOL    HW2  353   1.623   3.672   1.428
  687SOL     OW  354   1.841   2.037   0.963
  687SOL    HW1  355   1.880   1.952   0.927
  687SOL    HW2  356   1.743   2.039   0.944
  694SOL     OW  357   1.614   3.154   1.289
  694SOL    HW1  358   1.674   3.157   1.369
  694SOL    HW2  359   1.539   3.218   1.302
  698SOL     OW  360   1.709   2.247   1.381
  698SOL    HW1  361   1.782   2.316   1.385
  698SOL    HW2  362   1.737   2.172   1.322
  703SOL     OW  363   1.440   2.718   1.398
  703SOL    HW1  364   1.383   2.770   1.335
  703SOL    HW2  365   1.536   2.730   1.374
  708SOL     OW  366   0.716   2.427   1.708
  708SOL    HW1  367   0.735   2.492   1.782
  708SOL    HW2  368   0.776   2.347   1.717
  709SOL     OW  369   1.450   3.082   1.633
  709SOL    HW1  370   1.441   3.072   1.732
  709SOL    HW2  371   1.546   3.075   1.607
  711SOL     OW  372   1.674   2.745   1.254
  711SOL    HW1  373   1.647   2.656   1.217
  711SOL    HW2  374   1.675   2.813   1.181
  714SOL     OW  375   1.777   2.204   1.642
  714SOL    HW1  376   1.760   2.235   1.548
  714SOL    HW2  377   1.693   2.167   1.680
  715SOL     OW  378   1.730   2.796   1.517
  715SOL    HW1  379   1.768   2.887   1.532
  715SOL    HW2  380   1.722   2.779   1.418
  724SOL     OW  381   1.824   2.054   1.227
  724SOL    HW1  382   1.820   1.964   1.271
  724SOL    HW2  383   1.827   2.043   1.128
  726SOL     OW  384   1.705   3.349   1.104
  726SOL    HW1  385   1.612   3.324   1.077
  726SOL    HW2  386   1.731   3.299   1.186
  729SOL     OW  387   1.424   2.076   1.112
  729SOL    HW1  388   1.476   2.011   1.167
  729SOL    HW2  389   1.375   2.139   1.173
  735SOL     OW  390   1.593   2.083   0.882
  735SOL    HW1  391   1.509   2.082   0.936
  735SOL    HW2  392   1.595   2.166   0.826
  742SOL     OW  393   1.555   3.373   2.565
  742SOL    HW1  394   1.498   3.357   2.646
  742SOL    HW2  395   1.496   3.383   2.485
  743SOL     OW  396   1.135   2.565   2.579
  743SOL    HW1  397   1.192   2.643   2.554
  743SOL    HW2  398   1.075   2.591   2.655
  744SOL     OW  399   1.755   2.469   2.093
  744SOL    HW1  400   1.743   2.456   1.994
  744SOL    HW2  401   1.725   2.388   2.142
  745SOL     OW  402   0.768   3.006   2.885
  745SOL    HW1  403   0.690   3.023   2.945
  745SOL    HW2  404   0.802   3.093   2.849
  747SOL     OW  405   0.685   2.874   2.527
  747SOL    HW1  406   0.754   2.858   2.597
  747SOL    HW2  407   0.612   2.931   2.565
  750SOL     OW  408   1.460   3.367   3.201
  750SOL    HW1  409   1.484   3.461   3.227
  750SOL    HW2  410   1.444   3.313   3.283
  752SOL     OW  411   1.603   2.309   2.599
  752SOL    HW1  412   1.529   2.355   2.549
  752SOL    HW2  413   1.654   2.377   2.652
  759SOL     OW  414   1.594   1.976   3.342
  759SOL    HW1  415   1.576   2.043   3.270
  759SOL    HW2  416   1.591   2.022   3.431
  761SOL     OW  417   1.842   3.629   2.221
  761SOL    HW1  418   1.896   3.600   2.301
  761SOL    HW2  419   1.872   3.719   2.192
  763SOL     OW  420   1.689   2.784   2.474
  763SOL    HW1  421   1.784   2.755   2.482
  763SOL    HW2  422   1.681   2.849   2.399
  764SOL     OW  423   1.641   2.970   2.294
  764SOL    HW1  424   1.727   2.972   2.242
  764SOL    HW2  425   1.655   3.017   2.382
  767SOL     OW  426   1.293   3.090   3.285
  767SOL    HW1  427   1.330   3.017   3.227
  767SOL    HW2  428   1.345   3.095   3.370
  768SOL     OW  429   0.809   1.866   2.364
  768SOL    HW1  430   0.849   1.957   2.355
  768SOL    HW2  431   0.709   1.874   2.370
  770SOL     OW  432   1.525   2.861   2.052
  770SOL    HW1  433   1.462   2.785   2.065
  770SOL    HW2  434   1.573   2.879   2.138
  773SOL     OW  435   1.466   3.279   2.815
  773SOL    HW1  436   1.407   3.285   2.895
  773SOL    HW2  437   1.451   3.191   2.769
  774SOL     OW  438   1.667   3.576   2.434
  774SOL    HW1  439   1.626   3.553   2.346
  774SOL    HW2  440   1.649   3.502   2.499
  775SOL     OW  441   0.598   2.591   2.132
  775SOL    HW1  442   0.622   2.660   2.064
  775SOL    HW2  443   0.520   2.624   2.186
  776SOL     OW  444   1.281   2.207   2.806
  776SOL    HW1  445   1.195   2.157   2.793
  776SOL    HW2  446   1.343   2.153   2.862
  777SOL     OW  447   1.576   3.524   2.169
  777SOL    HW1  448   1.665   3.570   2.172
  777SOL    HW2  449   1.555   3.500   2.074
  779SOL     OW  450   1.394   2.331   3.536
  779SOL    HW1  451   1.374   2.374   3.624
  779SOL    HW2  452   1.472   2.269   3.545
  781SOL     OW  453   0.991   2.272   3.104
  781SOL    HW1  454   0.914   2.306   3.158
  781SOL    HW2  455   0.957   2.221   3.025
  782SOL     OW  456   1.041   2.563   2.291
  782SOL    HW1  457   1.067   2.559   2.387
  782SOL    HW2  458   0.956   2.512   2.277
  785SOL     OW  459   0.865   2.210   2.057
  785SOL    HW1  460   0.924   2.273   2.008
  785SOL    HW2  461   0.884   2.116   2.028
  786SOL     OW  462   1.719   2.447   3.693
  786SOL    HW1  463   1.693   2.536   3.657
  786SOL    HW2  464   1.717   2.379   3.620
  787SOL     OW  465   1.362   3.006   2.407
  787SOL    HW1  466   1.445   2.977   2.359
  787SOL    HW2  467   1.313   3.073   2.351
  789SOL     OW  468   1.008   3.318   2.339
  789SOL    HW1  469   0.962   3.390   2.287
  789SOL    HW2  470   1.004   3.338   2.437
  791SOL     OW  471   1.795   2.928   2.735
  791SOL    HW1  472   1.733   2.913   2.659
  791SOL    HW2  473   1.743   2.939   2.820
  794SOL     OW  474   1.458   2.597   2.590
  794SOL    HW1  475   1.453   2.532   2.665
  794SOL    HW2  476   1.538   2.656   2.603
  798SOL     OW  477   1.632   3.239   1.943
  798SOL    HW1  478   1.600   3.333   1.933
  798SOL    HW2  479   1.556   3.176   1.931
  800SOL     OW  480   1.400   1.969   2.288
  800SOL    HW1  481   1.376   1.932   2.198
  800SOL    HW2  482   1.499   1.985   2.292
  804SOL     OW  483   1.547   2.084   3.591
  804SOL    HW1  484   1.542   2.121   3.683
  804SOL    HW2  485   1.475   2.015   3.579
  805SOL     OW  486   0.614   1.984   1.979
  805SOL    HW1  487   0.712   1.962   1.986
  805SOL    HW2  488   0.583   1.967   1.886
  808SOL     OW  489   1.351   2.452   3.295
  808SOL    HW1  490   1.379   2.409   3.380
  808SOL    HW2  491   1.376   2.548   3.296
  810SOL     OW  492   0.922   2.365   2.761
  810SOL    HW1  493   0.897   2.356   2.665
  810SOL    HW2  494   0.970   2.283   2.792
  812SOL     OW  495   1.434   3.050   1.903
  812SOL    HW1  496   1.466   2.974   1.960
  812SOL    HW2  497   1.342   3.077   1.933
  814SOL     OW  498   0.935   2.098   2.342
  814SOL    HW1  499   0.887   2.139   2.264
  814SOL    HW2  500   1.034   2.096   2.323
  815SOL     OW  501   1.076   2.545   3.326
  815SOL    HW1  502   0.996   2.484   3.329
  815SOL    HW2  503   1.157   2.492   3.302
  816SOL     OW  504   1.227   3.432   2.655
  816SOL    HW1  505   1.248   3.506   2.590
  816SOL    HW2  506   1.295   3.432   2.728
  818SOL     OW  507   1.271   3.659   2.453
  818SOL    HW1  508   1.315   3.723   2.389
  818SOL    HW2  509   1.221   3.711   2.523
  819SOL     OW  510   1.032   2.411   1.878
  819SOL    HW1  511   0.991   2.493   1.839
  819SOL    HW2  512   1.096   2.437   1.951
  822SOL     OW  513   0.866   2.316   2.504
  822SOL    HW1  514   0.834   2.388   2.442
  822SOL    HW2  515   0.890   2.235   2.451
  823SOL     OW  516   1.017   1.901   2.615
  823SOL    HW1  517   0.945   1.906   2.546
  823SOL    HW2  518   0.993   1.832   2.684
  824SOL     OW  519   1.429   3.035   2.729
  824SOL    HW1  520   1.374   2.951   2.722
  824SOL    HW2  521   1.455   3.064   2.637
  825SOL     OW  522   1.466   2.452   2.854
  825SOL    HW1  523   1.436   2.357   2.861
  825SOL    HW2  524   1.539   2.468   2.920
  826SOL     OW  525   1.857   2.695   2.239
  826SOL    HW1  526   1.899   2.631   2.303
  826SOL    HW2  527   1.819   2.644   2.161
  828SOL     OW  528   1.664   3.142   2.519
  828SOL    HW1  529   1.763   3.150   2.533
  828SOL    HW2  530   1.619   3.226   2.550
  829SOL     OW  531   1.390   2.437   1.940
  829SOL    HW1  532   1.336   2.416   2.021
  829SOL    HW2  533   1.481   2.396   1.949
  831SOL     OW  534   1.754   3.085   3.450
  831SOL    HW1  535   1.845   3.046   3.437
  831SOL    HW2  536   1.762   3.181   3.474
  832SOL     OW  537   1.064   3.209   3.202
  832SOL    HW1  538   0.984   3.186   3.257
  832SOL    HW2  539   1.147   3.183   3.251
  834SOL     OW  540   1.111   3.057   2.962
  834SOL    HW1  541   1.071   3.101   3.043
  834SOL    HW2  542   1.070   3.094   2.879
  835SOL     OW  543   1.638   2.961   2.941
  835SOL    HW1  544   1.643   3.042   3.000
  835SOL    HW2  545   1.552   2.963   2.890
  836SOL     OW  546   0.915   1.951   3.264
  836SOL    HW1  547   0.940   1.931   3.169
  836SOL    HW2  548   0.987   2.007   3.306
  838SOL     OW  549   0.705   2.912   2.230
  838SOL    HW1  550   0.691   2.919   2.329
  838SOL    HW2  551   0.789   2.861   2.212
  840SOL     OW  552   1.274   2.248   3.124
  840SOL    HW1  553   1.295   2.322   3.188
  840SOL    HW2  554   1.185   2.265   3.081
  844SOL     OW  555   1.252   3.210   2.250
  844SOL    HW1  556   1.302   3.287   2.290
  844SOL    HW2  557   1.157   3.212   2.282
  845SOL     OW  558   1.272   3.307   3.004
  845SOL    HW1  559   1.319   3.320   3.091
  845SOL    HW2  560   1.206   3.233   3.013
  846SOL     OW  561   1.582   2.501   2.334
  846SOL    HW1  562   1.551   2.562   2.407
  846SOL    HW2  563   1.632   2.553   2.265
  849SOL     OW  564   1.587   2.641   3.532
  849SOL    HW1  565   1.495   2.679   3.527
  849SOL    HW2  566   1.647   2.688   3.467
  853SOL     OW  567   1.360   2.724   2.907
  853SOL    HW1  568   1.285   2.724   2.841
  853SOL    HW2  569   1.397   2.632   2.916
  854SOL     OW  570   1.209   2.387   2.137
  854SOL    HW1  571   1.222   2.303   2.191
  854SOL    HW2  572   1.180   2.461   2.197
  857SOL     OW  573   0.732   2.496   2.926
  857SOL    HW1  574   0.791   2.470   2.850
  857SOL    HW2  575   0.704   2.592   2.915
  858SOL     OW  576   1.728   2.797   3.716
  858SOL    HW1  577   1.682   2.790   3.627
  858SOL    HW2  578   1.666   2.841   3.782
  860SOL     OW  579   1.622   2.229   2.236
  860SOL    HW1  580   1.624   2.153   2.300
  860SOL    HW2  581   1.574   2.306   2.276
  861SOL     OW  582   1.023   2.628   2.828
  861SOL    HW1  583   1.038   2.649   2.924
  861SOL    HW2  584   0.993   2.533   2.819
  863SOL     OW  585   1.859   3.380   3.467
  863SOL    HW1  586   1.873   3.407   3.372
  863SOL    HW2  587   1.942   3.402   3.520
  865SOL     OW  588   1.540   2.136   1.987
  865SOL    HW1  589   1.479   2.061   2.010
  865SOL    HW2  590   1.562   2.188   2.070
  866SOL     OW  591   1.303   2.700   1.904
  866SOL    HW1  592   1.337   2.607   1.919
  866SOL    HW2  593   1.321   2.727   1.809
  867SOL     OW  594   1.068   3.195   2.711
  867SOL    HW1  595   1.075   3.111   2.656
  867SOL    HW2  596   1.130   3.264   2.675
  870SOL     OW  597   1.138   2.242   3.540
  870SOL    HW1  598   1.093   2.305   3.604
  870SOL    HW2  599   1.231   2.273   3.523
  871SOL     OW  600   1.160   2.069   3.339
  871SOL    HW1  601   1.160   2.133   3.416
  871SOL    HW2  602   1.188   2.117   3.256
  875SOL     OW  603   1.002   2.658   3.100
  875SOL    HW1  604   1.043   2.626   3.186
  875SOL    HW2  605   0.906   2.631   3.097
  878SOL     OW  606   1.369   2.812   3.522
  878SOL    HW1  607   1.408   2.901   3.542
  878SOL    HW2  608   1.379   2.792   3.425
  879SOL     OW  609   0.815   2.434   2.187
  879SOL    HW1  610   0.822   2.345   2.141
  879SOL    HW2  611   0.721   2.468   2.179
  880SOL     OW  612   1.657   2.466   3.068
  880SOL    HW1  613   1.619   2.397   3.130
  880SOL    HW2  614   1.739   2.430   3.024
  886SOL     OW  615   1.347   2.921   3.096
  886SOL    HW1  616   1.371   2.858   3.022
  886SOL    HW2  617   1.257   2.961   3.078
  887SOL     OW  618   1.302   2.717   2.171
  887SOL    HW1  619   1.216   2.686   2.213
  887SOL    HW2  620   1.298   2.703   2.072
  888SOL     OW  621   1.759   3.609   3.016
  888SOL    HW1  622   1.820   3.639   2.943
  888SOL    HW2  623   1.721   3.520   2.994
  889SOL     OW  624   1.252   3.593   2.990
  889SOL    HW1  625   1.336   3.598   2.936
  889SOL    HW2  626   1.229   3.497   3.008
  892SOL     OW  627   1.726   1.997   2.385
  892SOL    HW1  628   1.799   1.980   2.318
  892SOL    HW2  629   1.695   1.910   2.423
  893SOL     OW  630   1.388   3.435   2.339
  893SOL    HW1  631   1.455   3.447   2.265
  893SOL    HW2  632   1.348   3.524   2.362
  895SOL     OW  633   1.280   2.789   2.534
  895SOL    HW1  634   1.340   2.708   2.536
  895SOL    HW2  635   1.320   2.858   2.474
  898SOL     OW  636   1.650   3.582   3.256
  898SOL    HW1  637   1.703   3.592   3.172
  898SOL    HW2  638   1.623   3.672   3.290
  899SOL     OW  639   1.841   2.037   2.825
  899SOL    HW1  640   1.880   1.952   2.789
  899SOL    HW2  641   1.743   2.039   2.806
  901SOL     OW  642   1.194   3.474   1.893
  901SOL    HW1  643   1.200   3.381   1.930
  901SOL    HW2  644   1.135   3.474   1.813
  903SOL     OW  645   0.916   2.772   2.153
  903SOL    HW1  646   0.979   2.810   2.085
  903SOL    HW2  647   0.956   2.689   2.192
  904SOL     OW  648   1.504   3.469   1.906
  904SOL    HW1  649   1.412   3.506   1.913
  904SOL    HW2  650   1.542   3.489   1.816
  906SOL     OW  651   1.614   3.154   3.151
  906SOL    HW1  652   1.674   3.157   3.231
  906SOL    HW2  653   1.539   3.218   3.164
  907SOL     OW  654   1.039   2.960   2.558
  907SOL    HW1  655   0.969   2.913   2.612
  907SOL    HW2  656   1.098   2.892   2.515
  908SOL     OW  657   1.014   2.098   2.833
  908SOL    HW1  658   1.006   2.062   2.740
  908SOL    HW2  659   1.012   2.022   2.898
  910SOL     OW  660   1.709   2.247   3.243
  910SOL    HW1  661   1.782   2.316   3.247
  910SOL    HW2  662   1.737   2.172   3.184
  915SOL     OW  663   1.440   2.718   3.260
  915SOL    HW1  664   1.383   2.770   3.197
  915SOL    HW2  665   1.536   2.730   3.236
  917SOL     OW  666   1.183   3.197   1.981
  917SOL    HW1  667   1.084   3.186   1.983
  917SOL    HW2  668   1.217   3.212   2.074
  919SOL     OW  669   1.493   3.629   2.821
  919SOL    HW1  670   1.526   3.693   2.752
  919SOL    HW2  671   1.559   3.623   2.896
  921SOL     OW  672   1.450   3.082   3.495
  921SOL    HW1  673   1.441   3.072   3.594
  921SOL    HW2  674   1.546   3.075   3.469
  923SOL     OW  675   1.674   2.745   3.116
  923SOL    HW1  676   1.647   2.656   3.079
  923SOL    HW2  677   1.675   2.813   3.043
  924SOL     OW  678   1.225   2.187   2.311
  924SOL    HW1  679   1.290   2.113   2.300
  924SOL    HW2  680   1.245   2.237   2.395
  925SOL     OW  681   0.594   2.607   2.514
  925SOL    HW1  682   0.644   2.692   2.495
  925SOL    HW2  683   0.506   2.609   2.466
  926SOL     OW  684   1.777   2.204   3.504
  926SOL    HW1  685   1.760   2.235   3.410
  926SOL    HW2  686   1.693   2.167   3.542
  927SOL     OW  687   1.730   2.796   3.379
  927SOL    HW1  688   1.768   2.887   3.394
  927SOL    HW2  689   1.722   2.779   3.280
  928SOL     OW  690   0.859   3.236   1.878
  928SOL    HW1  691   0.813   3.251   1.966
  928SOL    HW2  692   0.903   3.321   1.848
  930SOL     OW  693   0.859   2.818   2.723
  930SOL    HW1  694   0.913   2.749   2.771
  930SOL    HW2  695   0.827   2.887   2.789
  931SOL     OW  696   1.083   2.846   1.949
  931SOL    HW1  697   1.060   2.899   1.867
  931SOL    HW2  698   1.164   2.790   1.930
  932SOL     OW  699   1.861   3.431   2.713
  932SOL    HW1  700   1.790   3.419   2.643
  932SOL    HW2  701   1.862   3.352   2.773
  936SOL     OW  702   1.824   2.054   3.089
  936SOL    HW1  703   1.820   1.964   3.133
  936SOL    HW2  704   1.827   2.043   2.990
  938SOL     OW  705   1.705   3.349   2.966
  938SOL    HW1  706   1.612   3.324   2.939
  938SOL    HW2  707   1.731   3.299   3.048
  941SOL     OW  708   1.424   2.076   2.974
  941SOL    HW1  709   1.476   2.011   3.029
  941SOL    HW2  710   1.375   2.139   3.035
  942SOL     OW  711   1.001   1.896   3.016
  942SOL    HW1  712   0.938   1.824   2.985
  942SOL    HW2  713   1.094   1.860   3.016
  943SOL     OW  714   0.770   3.192   2.163
  943SOL    HW1  715   0.724   3.105   2.180
  943SOL    HW2  716   0.861   3.189   2.204
  945SOL     OW  717   1.352   1.914   2.030
  945SOL    HW1  718   1.387   1.873   1.946
  945SOL    HW2  719   1.262   1.876   2.050
  946SOL     OW  720   1.300   2.315   2.553
  946SOL    HW1  721   1.241   2.395   2.557
  946SOL    HW2  722   1.315   2.280   2.646
  947SOL     OW  723   1.593   2.083   2.744
  947SOL    HW1  724   1.509   2.082   2.798
  947SOL    HW2  725   1.595   2.166   2.688
  954SOL     OW  726   1.755   2.469   3.955
  954SOL    HW1  727   1.743   2.456   3.856
  954SOL    HW2  728   1.725   2.388   4.004
 1002SOL     OW  729   1.390   2.437   3.802
 1002SOL    HW1  730   1.336   2.416   3.883
 1002SOL    HW2  731   1.481   2.396   3.811
 1012SOL     OW  732   1.540   2.136   3.849
 1012SOL    HW1  733   1.479   2.061   3.872
 1012SOL    HW2  734   1.562   2.188   3.932
 1178SOL     OW  735   1.400   3.831   2.288
 1178SOL    HW1  736   1.376   3.794   2.198
 1178SOL    HW2  737   1.499   3.847   2.292
 1229SOL     OW  738   1.726   3.859   2.385
 1229SOL    HW1  739   1.799   3.842   2.318
 1229SOL    HW2  740   1.695   3.772   2.423
 1231SOL     OW  741   1.841   3.899   2.825
 1231SOL    HW1  742   1.880   3.814   2.789
 1231SOL    HW2  743   1.743   3.901   2.806
 1252SOL     OW  744   1.352   3.776   2.030
 1252SOL    HW1  745   1.387   3.735   1.946
 1252SOL    HW2  746   1.262   3.738   2.050
 1308SOL     OW  747   2.431   1.275   1.165
 1308SOL    HW1  748   2.338   1.268   1.128
 1308SOL    HW2  749   2.442   1.364   1.209
 1312SOL     OW  750   2.630   1.144   1.023
 1312SOL    HW1  751   2.552   1.161   1.083
 1312SOL    HW2  752   2.664   1.231   0.987
 1313SOL     OW  753   2.712   0.798   1.823
 1313SOL    HW1  754   2.708   0.874   1.888
 1313SOL    HW2  755   2.734   0.834   1.732
 1315SOL     OW  756   2.548   1.161   1.803
 1315SOL    HW1  757   2.608   1.240   1.817
 1315SOL    HW2  758   2.462   1.192   1.762
 1316SOL     OW  759   2.197   1.435   1.061
 1316SOL    HW1  760   2.119   1.404   1.008
 1316SOL    HW2  761   2.255   1.493   1.004
 1317SOL     OW  762   3.322   1.505   1.339
 1317SOL    HW1  763   3.346   1.599   1.365
 1317SOL    HW2  764   3.306   1.451   1.421
 1321SOL     OW  765   2.989   1.341   1.690
 1321SOL    HW1  766   3.036   1.341   1.778
 1321SOL    HW2  767   2.941   1.254   1.679
 1324SOL     OW  768   2.482   1.786   1.439
 1324SOL    HW1  769   2.390   1.769   1.474
 1324SOL    HW2  770   2.510   1.878   1.465
 1332SOL     OW  771   1.975   0.737   1.597
 1332SOL    HW1  772   2.063   0.724   1.642
 1332SOL    HW2  773   1.962   0.834   1.575
 1334SOL     OW  774   3.155   1.228   1.423
 1334SOL    HW1  775   3.192   1.155   1.365
 1334SOL    HW2  776   3.207   1.233   1.508
 1336SOL     OW  777   2.059   0.976   1.264
 1336SOL    HW1  778   2.148   0.931   1.250
 1336SOL    HW2  779   1.986   0.911   1.245
 1338SOL     OW  780   3.049   1.792   1.616
 1338SOL    HW1  781   3.073   1.852   1.540
 1338SOL    HW2  782   3.056   1.697   1.586
 1347SOL     OW  783   2.835   0.890   1.572
 1347SOL    HW1  784   2.881   0.806   1.543
 1347SOL    HW2  785   2.779   0.924   1.497
 1351SOL     OW  786   1.992   1.821   1.571
 1351SOL    HW1  787   1.982   1.806   1.670
 1351SOL    HW2  788   1.906   1.857   1.535
 1357SOL     OW  789   2.213   1.801   0.853
 1357SOL    HW1  790   2.263   1.715   0.859
 1357SOL    HW2  791   2.278   1.878   0.850
 1359SOL     OW  792   3.089   1.550   1.506
 1359SOL    HW1  793   3.095   1.473   1.570
 1359SOL    HW2  794   3.037   1.524   1.426
 1362SOL     OW  795   2.323   1.266   1.727
 1362SOL    HW1  796   2.273   1.267   1.641
 1362SOL    HW2  797   2.260   1.248   1.803
 1368SOL     OW  798   2.111   1.785   1.241
 1368SOL    HW1  799   2.168   1.720   1.291
 1368SOL    HW2  800   2.095   1.752   1.148
 1369SOL     OW  801   2.802   1.698   0.904
 1369SOL    HW1  802   2.882   1.641   0.925
 1369SOL    HW2  803   2.753   1.658   0.827
 1374SOL     OW  804   2.750   1.514   1.195
 1374SOL    HW1  805   2.727   1.489   1.101
 1374SOL    HW2  806   2.811   1.445   1.234
 1376SOL     OW  807   2.665   1.402   0.924
 1376SOL    HW1  808   2.755   1.416   0.882
 1376SOL    HW2  809   2.594   1.404   0.853
 1399SOL     OW  810   2.926   1.347   1.340
 1399SOL    HW1  811   2.846   1.324   1.395
 1399SOL    HW2  812   3.009   1.321   1.389
 1400SOL     OW  813   3.454   1.629   1.625
 1400SOL    HW1  814   3.481   1.663   1.535
 1400SOL    HW2  815   3.533   1.591   1.671
 1401SOL     OW  816   2.973   1.195   1.100
 1401SOL    HW1  817   2.933   1.239   1.181
 1401SOL    HW2  818   2.932   1.232   1.017
 1404SOL     OW  819   2.842   1.116   1.719
 1404SOL    HW1  820   2.743   1.122   1.729
 1404SOL    HW2  821   2.865   1.036   1.663
 1408SOL     OW  822   1.926   1.564   1.331
 1408SOL    HW1  823   1.880   1.646   1.297
 1408SOL    HW2  824   2.024   1.583   1.340
 1412SOL     OW  825   3.134   1.445   1.142
 1412SOL    HW1  826   3.181   1.458   1.229
 1412SOL    HW2  827   3.068   1.371   1.151
 1414SOL     OW  828   2.216   1.510   1.329
 1414SOL    HW1  829   2.195   1.466   1.242
 1414SOL    HW2  830   2.313   1.536   1.332
 1415SOL     OW  831   2.264   0.751   1.598
 1415SOL    HW1  832   2.332   0.806   1.551
 1415SOL    HW2  833   2.304   0.663   1.625
 1423SOL     OW  834   1.899   1.310   1.282
 1423SOL    HW1  835   1.952   1.261   1.350
 1423SOL    HW2  836   1.921   1.408   1.287
 1429SOL     OW  837   2.842   1.573   1.700
 1429SOL    HW1  838   2.822   1.617   1.612
 1429SOL    HW2  839   2.881   1.482   1.684
 1430SOL     OW  840   3.721   1.518   1.605
 1430SOL    HW1  841   3.735   1.545   1.510
 1430SOL    HW2  842   3.804   1.540   1.658
 1431SOL     OW  843   2.212   0.898   1.804
 1431SOL    HW1  844   2.288   0.942   1.852
 1431SOL    HW2  845   2.247   0.851   1.722
 1440SOL     OW  846   1.950   1.801   0.927
 1440SOL    HW1  847   1.908   1.715   0.900
 1440SOL    HW2  848   2.044   1.804   0.893
 1441SOL     OW  849   2.366   1.568   0.910
 1441SOL    HW1  850   2.432   1.642   0.919
 1441SOL    HW2  851   2.410   1.489   0.868
 1445SOL     OW  852   3.231   0.950   1.660
 1445SOL    HW1  853   3.270   1.039   1.680
 1445SOL    HW2  854   3.241   0.930   1.563
 1448SOL     OW  855   2.114   1.564   1.744
 1448SOL    HW1  856   2.084   1.621   1.820
 1448SOL    HW2  857   2.107   1.467   1.770
 1450SOL     OW  858   2.792   1.678   1.465
 1450SOL    HW1  859   2.768   1.660   1.370
 1450SOL    HW2  860   2.822   1.772   1.475
 1452SOL     OW  861   2.021   1.137   1.466
 1452SOL    HW1  862   2.043   1.076   1.542
 1452SOL    HW2  863   2.031   1.088   1.380
 1456SOL     OW  864   3.114   1.731   1.128
 1456SOL    HW1  865   3.198   1.736   1.074
 1456SOL    HW2  866   3.091   1.635   1.146
 1457SOL     OW  867   1.945   1.258   1.022
 1457SOL    HW1  868   1.940   1.257   1.122
 1457SOL    HW2  869   1.862   1.217   0.984
 1458SOL     OW  870   2.550   1.662   1.716
 1458SOL    HW1  871   2.494   1.743   1.725
 1458SOL    HW2  872   2.602   1.666   1.630
 1462SOL     OW  873   1.992   1.794   1.851
 1462SOL    HW1  874   1.951   1.720   1.904
 1462SOL    HW2  875   2.056   1.845   1.909
 1464SOL     OW  876   2.692   1.273   1.422
 1464SOL    HW1  877   2.687   1.306   1.517
 1464SOL    HW2  878   2.606   1.292   1.376
 1466SOL     OW  879   3.512   1.720   1.394
 1466SOL    HW1  880   3.565   1.730   1.310
 1466SOL    HW2  881   3.485   1.810   1.428
 1470SOL     OW  882   2.684   1.002   1.372
 1470SOL    HW1  883   2.724   1.001   1.280
 1470SOL    HW2  884   2.694   1.094   1.412
 1473SOL     OW  885   2.234   1.288   1.490
 1473SOL    HW1  886   2.221   1.381   1.456
 1473SOL    HW2  887   2.150   1.236   1.477
 1480SOL     OW  888   1.967   1.013   1.726
 1480SOL    HW1  889   1.890   0.980   1.780
 1480SOL    HW2  890   2.052   0.983   1.768
 1485SOL     OW  891   2.475   0.842   1.431
 1485SOL    HW1  892   2.531   0.923   1.414
 1485SOL    HW2  893   2.534   0.762   1.434
 1486SOL     OW  894   3.355   1.767   0.959
 1486SOL    HW1  895   3.388   1.831   0.890
 1486SOL    HW2  896   3.421   1.761   1.034
 1488SOL     OW  897   3.312   1.220   1.633
 1488SOL    HW1  898   3.303   1.210   1.732
 1488SOL    HW2  899   3.408   1.213   1.607
 1489SOL     OW  900   2.252   1.741   1.560
 1489SOL    HW1  901   2.161   1.782   1.558
 1489SOL    HW2  902   2.245   1.647   1.592
 1496SOL     OW  903   2.523   1.790   0.953
 1496SOL    HW1  904   2.477   1.878   0.940
 1496SOL    HW2  905   2.622   1.802   0.946
 1500SOL     OW  906   2.083   1.314   1.844
 1500SOL    HW1  907   2.018   1.241   1.823
 1500SOL    HW2  908   2.087   1.328   1.942
 1502SOL     OW  909   2.534   1.391   1.624
 1502SOL    HW1  910   2.456   1.341   1.662
 1502SOL    HW2  911   2.531   1.486   1.655
 1511SOL     OW  912   2.480   1.567   1.284
 1511SOL    HW1  913   2.475   1.649   1.341
 1511SOL    HW2  914   2.569   1.564   1.239
 1517SOL     OW  915   2.092   0.628   1.975
 1517SOL    HW1  916   1.999   0.626   2.012
 1517SOL    HW2  917   2.093   0.589   1.883
 1520SOL     OW  918   2.431   1.275   3.027
 1520SOL    HW1  919   2.338   1.268   2.990
 1520SOL    HW2  920   2.442   1.364   3.071
 1521SOL     OW  921   3.417   1.511   2.565
 1521SOL    HW1  922   3.360   1.495   2.646
 1521SOL    HW2  923   3.358   1.521   2.485
 1522SOL     OW  924   2.997   0.703   2.579
 1522SOL    HW1  925   3.054   0.781   2.554
 1522SOL    HW2  926   2.937   0.729   2.655
 1524SOL     OW  927   2.630   1.144   2.885
 1524SOL    HW1  928   2.552   1.161   2.945
 1524SOL    HW2  929   2.664   1.231   2.849
 1526SOL     OW  930   2.547   1.012   2.527
 1526SOL    HW1  931   2.616   0.996   2.597
 1526SOL    HW2  932   2.474   1.069   2.565
 1527SOL     OW  933   2.548   1.161   3.665
 1527SOL    HW1  934   2.608   1.240   3.679
 1527SOL    HW2  935   2.462   1.192   3.624
 1528SOL     OW  936   2.197   1.435   2.923
 1528SOL    HW1  937   2.119   1.404   2.870
 1528SOL    HW2  938   2.255   1.493   2.866
 1529SOL     OW  939   3.322   1.505   3.201
 1529SOL    HW1  940   3.346   1.599   3.227
 1529SOL    HW2  941   3.306   1.451   3.283
 1532SOL     OW  942   2.093   1.713   2.345
 1532SOL    HW1  943   2.127   1.790   2.399
 1532SOL    HW2  944   2.137   1.713   2.255
 1533SOL     OW  945   2.989   1.341   3.552
 1533SOL    HW1  946   3.036   1.341   3.640
 1533SOL    HW2  947   2.941   1.254   3.541
 1534SOL     OW  948   2.092   1.434   2.400
 1534SOL    HW1  949   2.066   1.530   2.400
 1534SOL    HW2  950   2.021   1.380   2.445
 1535SOL     OW  951   2.102   1.091   2.748
 1535SOL    HW1  952   2.116   1.007   2.800
 1535SOL    HW2  953   2.047   1.155   2.803
 1536SOL     OW  954   2.482   1.786   3.301
 1536SOL    HW1  955   2.390   1.769   3.336
 1536SOL    HW2  956   2.510   1.878   3.327
 1537SOL     OW  957   2.468   0.964   1.985
 1537SOL    HW1  958   2.475   1.048   1.931
 1537SOL    HW2  959   2.514   0.977   2.073
 1539SOL     OW  960   1.984   0.643   2.425
 1539SOL    HW1  961   1.939   0.555   2.442
 1539SOL    HW2  962   1.983   0.697   2.509
 1540SOL     OW  963   3.704   1.767   2.221
 1540SOL    HW1  964   3.758   1.738   2.301
 1540SOL    HW2  965   3.734   1.857   2.192
 1541SOL     OW  966   1.889   1.596   1.979
 1541SOL    HW1  967   1.870   1.500   2.000
 1541SOL    HW2  968   1.856   1.654   2.054
 1543SOL     OW  969   3.503   1.108   2.294
 1543SOL    HW1  970   3.589   1.110   2.242
 1543SOL    HW2  971   3.517   1.155   2.382
 1545SOL     OW  972   2.475   1.365   2.588
 1545SOL    HW1  973   2.426   1.278   2.597
 1545SOL    HW2  974   2.452   1.408   2.501
 1546SOL     OW  975   3.155   1.228   3.285
 1546SOL    HW1  976   3.192   1.155   3.227
 1546SOL    HW2  977   3.207   1.233   3.370
 1548SOL     OW  978   2.059   0.976   3.126
 1548SOL    HW1  979   2.148   0.931   3.112
 1548SOL    HW2  980   1.986   0.911   3.107
 1549SOL     OW  981   3.387   0.999   2.052
 1549SOL    HW1  982   3.324   0.923   2.065
 1549SOL    HW2  983   3.435   1.017   2.138
 1550SOL     OW  984   3.049   1.792   3.478
 1550SOL    HW1  985   3.073   1.852   3.402
 1550SOL    HW2  986   3.056   1.697   3.448
 1552SOL     OW  987   3.328   1.417   2.815
 1552SOL    HW1  988   3.269   1.423   2.895
 1552SOL    HW2  989   3.313   1.329   2.769
 1553SOL     OW  990   3.529   1.714   2.434
 1553SOL    HW1  991   3.488   1.691   2.346
 1553SOL    HW2  992   3.511   1.640   2.499
 1554SOL     OW  993   2.460   0.729   2.132
 1554SOL    HW1  994   2.484   0.798   2.064
 1554SOL    HW2  995   2.382   0.762   2.186
 1556SOL     OW  996   3.438   1.662   2.169
 1556SOL    HW1  997   3.527   1.708   2.172
 1556SOL    HW2  998   3.417   1.638   2.074
 1561SOL     OW  999   2.903   0.701   2.291
 1561SOL    HW1 1000   2.929   0.697   2.387
 1561SOL    HW2 1001   2.818   0.650   2.277
 1562SOL     OW 1002   1.938   0.811   2.651
 1562SOL    HW1 1003   2.037   0.799   2.660
 1562SOL    HW2 1004   1.914   0.906   2.672
 1563SOL     OW 1005   1.992   1.821   3.433
 1563SOL    HW1 1006   1.982   1.806   3.532
 1563SOL    HW2 1007   1.906   1.857   3.397
 1566SOL     OW 1008   3.224   1.144   2.407
 1566SOL    HW1 1009   3.307   1.115   2.359
 1566SOL    HW2 1010   3.175   1.211   2.351
 1568SOL     OW 1011   2.870   1.456   2.339
 1568SOL    HW1 1012   2.824   1.528   2.287
 1568SOL    HW2 1013   2.866   1.476   2.437
 1569SOL     OW 1014   2.213   1.801   2.715
 1569SOL    HW1 1015   2.263   1.715   2.721
 1569SOL    HW2 1016   2.278   1.878   2.712
 1571SOL     OW 1017   3.089   1.550   3.368
 1571SOL    HW1 1018   3.095   1.473   3.432
 1571SOL    HW2 1019   3.037   1.524   3.288
 1572SOL     OW 1020   2.183   0.943   2.104
 1572SOL    HW1 1021   2.265   0.982   2.062
 1572SOL    HW2 1022   2.156   0.861   2.055
 1574SOL     OW 1023   2.323   1.266   3.589
 1574SOL    HW1 1024   2.273   1.267   3.503
 1574SOL    HW2 1025   2.260   1.248   3.665
 1575SOL     OW 1026   2.973   1.776   2.099
 1575SOL    HW1 1027   2.913   1.714   2.149
 1575SOL    HW2 1028   3.004   1.732   2.014
 1577SOL     OW 1029   3.494   1.377   1.943
 1577SOL    HW1 1030   3.462   1.471   1.933
 1577SOL    HW2 1031   3.418   1.314   1.931
 1578SOL     OW 1032   2.326   1.743   2.185
 1578SOL    HW1 1033   2.359   1.782   2.271
 1578SOL    HW2 1034   2.402   1.736   2.120
 1580SOL     OW 1035   2.111   1.785   3.103
 1580SOL    HW1 1036   2.168   1.720   3.153
 1580SOL    HW2 1037   2.095   1.752   3.010
 1581SOL     OW 1038   2.802   1.698   2.766
 1581SOL    HW1 1039   2.882   1.641   2.787
 1581SOL    HW2 1040   2.753   1.658   2.689
 1582SOL     OW 1041   2.244   0.700   2.342
 1582SOL    HW1 1042   2.289   0.610   2.339
 1582SOL    HW2 1043   2.150   0.689   2.375
 1586SOL     OW 1044   2.750   1.514   3.057
 1586SOL    HW1 1045   2.727   1.489   2.963
 1586SOL    HW2 1046   2.811   1.445   3.096
 1588SOL     OW 1047   2.665   1.402   2.786
 1588SOL    HW1 1048   2.755   1.416   2.744
 1588SOL    HW2 1049   2.594   1.404   2.715
 1591SOL     OW 1050   3.296   1.188   1.903
 1591SOL    HW1 1051   3.328   1.112   1.960
 1591SOL    HW2 1052   3.204   1.215   1.933
 1595SOL     OW 1053   3.089   1.570   2.655
 1595SOL    HW1 1054   3.110   1.644   2.590
 1595SOL    HW2 1055   3.157   1.570   2.728
 1596SOL     OW 1056   2.321   1.152   2.603
 1596SOL    HW1 1057   2.250   1.125   2.668
 1596SOL    HW2 1058   2.295   1.124   2.510
 1597SOL     OW 1059   3.133   1.797   2.453
 1597SOL    HW1 1060   3.177   1.861   2.389
 1597SOL    HW2 1061   3.083   1.849   2.523
 1603SOL     OW 1062   3.291   1.173   2.729
 1603SOL    HW1 1063   3.236   1.089   2.722
 1603SOL    HW2 1064   3.317   1.202   2.637
 1606SOL     OW 1065   2.350   1.385   2.036
 1606SOL    HW1 1066   2.263   1.370   2.083
 1606SOL    HW2 1067   2.333   1.411   1.941
 1607SOL     OW 1068   3.526   1.280   2.519
 1607SOL    HW1 1069   3.625   1.288   2.533
 1607SOL    HW2 1070   3.481   1.364   2.550
 1611SOL     OW 1071   2.926   1.347   3.202
 1611SOL    HW1 1072   2.846   1.324   3.257
 1611SOL    HW2 1073   3.009   1.321   3.251
 1612SOL     OW 1074   3.454   1.629   3.487
 1612SOL    HW1 1075   3.481   1.663   3.397
 1612SOL    HW2 1076   3.533   1.591   3.533
 1613SOL     OW 1077   2.973   1.195   2.962
 1613SOL    HW1 1078   2.933   1.239   3.043
 1613SOL    HW2 1079   2.932   1.232   2.879
 1617SOL     OW 1080   2.567   1.050   2.230
 1617SOL    HW1 1081   2.553   1.057   2.329
 1617SOL    HW2 1082   2.651   0.999   2.212
 1618SOL     OW 1083   2.272   0.813   3.113
 1618SOL    HW1 1084   2.358   0.825   3.163
 1618SOL    HW2 1085   2.230   0.726   3.140
 1620SOL     OW 1086   1.926   1.564   3.193
 1620SOL    HW1 1087   1.880   1.646   3.159
 1620SOL    HW2 1088   2.024   1.583   3.202
 1621SOL     OW 1089   2.229   1.100   2.363
 1621SOL    HW1 1090   2.222   1.183   2.307
 1621SOL    HW2 1091   2.233   1.020   2.303
 1623SOL     OW 1092   3.114   1.348   2.250
 1623SOL    HW1 1093   3.164   1.425   2.290
 1623SOL    HW2 1094   3.019   1.350   2.282
 1624SOL     OW 1095   3.134   1.445   3.004
 1624SOL    HW1 1096   3.181   1.458   3.091
 1624SOL    HW2 1097   3.068   1.371   3.013
 1626SOL     OW 1098   2.216   1.510   3.191
 1626SOL    HW1 1099   2.195   1.466   3.104
 1626SOL    HW2 1100   2.313   1.536   3.194
 1631SOL     OW 1101   2.435   0.870   2.891
 1631SOL    HW1 1102   2.479   0.959   2.882
 1631SOL    HW2 1103   2.372   0.870   2.968
 1635SOL     OW 1104   1.899   1.310   3.144
 1635SOL    HW1 1105   1.952   1.261   3.212
 1635SOL    HW2 1106   1.921   1.408   3.149
 1640SOL     OW 1107   2.885   0.766   2.828
 1640SOL    HW1 1108   2.900   0.787   2.924
 1640SOL    HW2 1109   2.855   0.671   2.819
 1641SOL     OW 1110   2.842   1.573   3.562
 1641SOL    HW1 1111   2.822   1.617   3.474
 1641SOL    HW2 1112   2.881   1.482   3.546
 1645SOL     OW 1113   3.165   0.838   1.904
 1645SOL    HW1 1114   3.199   0.745   1.919
 1645SOL    HW2 1115   3.183   0.865   1.809
 1646SOL     OW 1116   2.930   1.333   2.711
 1646SOL    HW1 1117   2.937   1.249   2.656
 1646SOL    HW2 1118   2.992   1.402   2.675
 1647SOL     OW 1119   2.181   0.810   2.811
 1647SOL    HW1 1120   2.274   0.846   2.816
 1647SOL    HW2 1121   2.175   0.725   2.863
 1651SOL     OW 1122   1.870   1.326   2.062
 1651SOL    HW1 1123   1.777   1.347   2.031
 1651SOL    HW2 1124   1.880   1.227   2.075
 1652SOL     OW 1125   1.950   1.801   2.789
 1652SOL    HW1 1126   1.908   1.715   2.762
 1652SOL    HW2 1127   2.044   1.804   2.755
 1653SOL     OW 1128   2.366   1.568   2.772
 1653SOL    HW1 1129   2.432   1.642   2.781
 1653SOL    HW2 1130   2.410   1.489   2.730
 1654SOL     OW 1131   2.864   0.796   3.100
 1654SOL    HW1 1132   2.905   0.764   3.186
 1654SOL    HW2 1133   2.768   0.769   3.097
 1658SOL     OW 1134   2.677   0.572   2.187
 1658SOL    HW1 1135   2.684   0.483   2.141
 1658SOL    HW2 1136   2.583   0.606   2.179
 1660SOL     OW 1137   2.114   1.564   3.606
 1660SOL    HW1 1138   2.084   1.621   3.682
 1660SOL    HW2 1139   2.107   1.467   3.632
 1662SOL     OW 1140   2.792   1.678   3.327
 1662SOL    HW1 1141   2.768   1.660   3.232
 1662SOL    HW2 1142   2.822   1.772   3.337
 1664SOL     OW 1143   2.021   1.137   3.328
 1664SOL    HW1 1144   2.043   1.076   3.404
 1664SOL    HW2 1145   2.031   1.088   3.242
 1665SOL     OW 1146   3.209   1.059   3.096
 1665SOL    HW1 1147   3.233   0.996   3.022
 1665SOL    HW2 1148   3.119   1.099   3.078
 1666SOL     OW 1149   3.164   0.855   2.171
 1666SOL    HW1 1150   3.078   0.824   2.213
 1666SOL    HW2 1151   3.160   0.841   2.072
 1667SOL     OW 1152   3.621   1.747   3.016
 1667SOL    HW1 1153   3.682   1.777   2.943
 1667SOL    HW2 1154   3.583   1.658   2.994
 1668SOL     OW 1155   3.114   1.731   2.990
 1668SOL    HW1 1156   3.198   1.736   2.936
 1668SOL    HW2 1157   3.091   1.635   3.008
 1669SOL     OW 1158   1.945   1.258   2.884
 1669SOL    HW1 1159   1.940   1.257   2.984
 1669SOL    HW2 1160   1.862   1.217   2.846
 1670SOL     OW 1161   2.550   1.662   3.578
 1670SOL    HW1 1162   2.494   1.743   3.587
 1670SOL    HW2 1163   2.602   1.666   3.492
 1672SOL     OW 1164   3.250   1.573   2.339
 1672SOL    HW1 1165   3.317   1.585   2.265
 1672SOL    HW2 1166   3.210   1.662   2.362
 1673SOL     OW 1167   1.992   1.794   3.713
 1673SOL    HW1 1168   1.951   1.720   3.766
 1673SOL    HW2 1169   2.056   1.845   3.771
 1674SOL     OW 1170   3.142   0.927   2.534
 1674SOL    HW1 1171   3.202   0.846   2.536
 1674SOL    HW2 1172   3.182   0.996   2.474
 1675SOL     OW 1173   2.692   1.273   3.284
 1675SOL    HW1 1174   2.687   1.306   3.379
 1675SOL    HW2 1175   2.606   1.292   3.238
 1676SOL     OW 1176   2.534   1.616   2.016
 1676SOL    HW1 1177   2.543   1.626   1.917
 1676SOL    HW2 1178   2.494   1.527   2.037
 1677SOL     OW 1179   3.512   1.720   3.256
 1677SOL    HW1 1180   3.565   1.730   3.172
 1677SOL    HW2 1181   3.485   1.810   3.290
 1680SOL     OW 1182   3.056   1.612   1.893
 1680SOL    HW1 1183   3.062   1.519   1.930
 1680SOL    HW2 1184   2.997   1.612   1.813
 1681SOL     OW 1185   2.684   1.002   3.234
 1681SOL    HW1 1186   2.724   1.001   3.142
 1681SOL    HW2 1187   2.694   1.094   3.274
 1682SOL     OW 1188   2.778   0.910   2.153
 1682SOL    HW1 1189   2.841   0.948   2.085
 1682SOL    HW2 1190   2.818   0.827   2.192
 1683SOL     OW 1191   3.366   1.607   1.906
 1683SOL    HW1 1192   3.274   1.644   1.913
 1683SOL    HW2 1193   3.404   1.627   1.816
 1684SOL     OW 1194   2.234   1.288   3.352
 1684SOL    HW1 1195   2.221   1.381   3.318
 1684SOL    HW2 1196   2.150   1.236   3.339
 1685SOL     OW 1197   3.476   1.292   3.151
 1685SOL    HW1 1198   3.536   1.295   3.231
 1685SOL    HW2 1199   3.401   1.356   3.164
 1686SOL     OW 1200   2.901   1.098   2.558
 1686SOL    HW1 1201   2.831   1.051   2.612
 1686SOL    HW2 1202   2.960   1.030   2.515
 1688SOL     OW 1203   2.452   1.487   2.353
 1688SOL    HW1 1204   2.494   1.429   2.283
 1688SOL    HW2 1205   2.408   1.566   2.309
 1690SOL     OW 1206   2.117   1.348   2.152
 1690SOL    HW1 1207   2.021   1.349   2.125
 1690SOL    HW2 1208   2.129   1.401   2.236
 1696SOL     OW 1209   3.045   1.335   1.981
 1696SOL    HW1 1210   2.946   1.324   1.983
 1696SOL    HW2 1211   3.079   1.350   2.074
 1697SOL     OW 1212   2.475   0.842   3.293
 1697SOL    HW1 1213   2.531   0.923   3.276
 1697SOL    HW2 1214   2.534   0.762   3.296
 1698SOL     OW 1215   3.355   1.767   2.821
 1698SOL    HW1 1216   3.388   1.831   2.752
 1698SOL    HW2 1217   3.421   1.761   2.896
 1701SOL     OW 1218   2.252   1.741   3.422
 1701SOL    HW1 1219   2.161   1.782   3.420
 1701SOL    HW2 1220   2.245   1.647   3.454
 1704SOL     OW 1221   2.456   0.745   2.514
 1704SOL    HW1 1222   2.506   0.830   2.495
 1704SOL    HW2 1223   2.368   0.747   2.466
 1707SOL     OW 1224   2.721   1.374   1.878
 1707SOL    HW1 1225   2.675   1.389   1.966
 1707SOL    HW2 1226   2.765   1.459   1.848
 1708SOL     OW 1227   2.523   1.790   2.815
 1708SOL    HW1 1228   2.477   1.878   2.802
 1708SOL    HW2 1229   2.622   1.802   2.808
 1709SOL     OW 1230   2.721   0.956   2.723
 1709SOL    HW1 1231   2.775   0.887   2.771
 1709SOL    HW2 1232   2.689   1.025   2.789
 1710SOL     OW 1233   2.945   0.984   1.949
 1710SOL    HW1 1234   2.922   1.037   1.867
 1710SOL    HW2 1235   3.026   0.928   1.930
 1711SOL     OW 1236   3.723   1.569   2.713
 1711SOL    HW1 1237   3.652   1.557   2.643
 1711SOL    HW2 1238   3.724   1.490   2.773
 1712SOL     OW 1239   2.083   1.314   3.706
 1712SOL    HW1 1240   2.018   1.241   3.685
 1712SOL    HW2 1241   2.087   1.328   3.804
 1713SOL     OW 1242   1.941   1.240   2.515
 1713SOL    HW1 1243   1.940   1.193   2.603
 1713SOL    HW2 1244   2.023   1.212   2.464
 1714SOL     OW 1245   2.534   1.391   3.486
 1714SOL    HW1 1246   2.456   1.341   3.524
 1714SOL    HW2 1247   2.531   1.486   3.517
 1717SOL     OW 1248   3.567   1.487   2.966
 1717SOL    HW1 1249   3.474   1.462   2.939
 1717SOL    HW2 1250   3.593   1.437   3.048
 1719SOL     OW 1251   2.674   1.586   2.549
 1719SOL    HW1 1252   2.706   1.596   2.455
 1719SOL    HW2 1253   2.595   1.524   2.551
 1722SOL     OW 1254   2.632   1.330   2.163
 1722SOL    HW1 1255   2.586   1.243   2.180
 1722SOL    HW2 1256   2.723   1.327   2.204
 1723SOL     OW 1257   2.480   1.567   3.146
 1723SOL    HW1 1258   2.475   1.649   3.203
 1723SOL    HW2 1259   2.569   1.564   3.101
 1727SOL     OW 1260   1.901   1.077   2.162
 1727SOL    HW1 1261   2.000   1.066   2.153
 1727SOL    HW2 1262   1.861   0.991   2.194
 1728SOL     OW 1263   2.737   1.646   2.199
 1728SOL    HW1 1264   2.660   1.611   2.145
 1728SOL    HW2 1265   2.705   1.717   2.261
 1744SOL     OW 1266   1.889   1.596   3.841
 1744SOL    HW1 1267   1.870   1.500   3.862
 1744SOL    HW2 1268   1.856   1.654   3.916
 1802SOL     OW 1269   2.534   1.616   3.878
 1802SOL    HW1 1270   2.543   1.626   3.779
 1802SOL    HW2 1271   2.494   1.527   3.899
 1805SOL     OW 1272   3.056   1.612   3.755
 1805SOL    HW1 1273   3.062   1.519   3.792
 1805SOL    HW2 1274   2.997   1.612   3.675
 1816SOL     OW 1275   2.721   1.374   3.740
 1816SOL    HW1 1276   2.675   1.389   3.828
 1816SOL    HW2 1277   2.765   1.459   3.710
 1830SOL     OW 1278   2.087   2.137   0.996
 1830SOL    HW1 1279   2.122   2.120   1.088
 1830SOL    HW2 1280   1.999   2.092   0.984
 1831SOL     OW 1281   1.881   2.230   0.647
 1831SOL    HW1 1282   1.799   2.273   0.686
 1831SOL    HW2 1283   1.853   2.157   0.584
 1832SOL     OW 1284   2.431   3.137   1.165
 1832SOL    HW1 1285   2.338   3.130   1.128
 1832SOL    HW2 1286   2.442   3.226   1.209
 1834SOL     OW 1287   2.997   2.565   0.717
 1834SOL    HW1 1288   3.054   2.643   0.692
 1834SOL    HW2 1289   2.937   2.591   0.793
 1836SOL     OW 1290   2.630   3.006   1.023
 1836SOL    HW1 1291   2.552   3.023   1.083
 1836SOL    HW2 1292   2.664   3.093   0.987
 1837SOL     OW 1293   2.712   2.660   1.823
 1837SOL    HW1 1294   2.708   2.736   1.888
 1837SOL    HW2 1295   2.734   2.696   1.732
 1838SOL     OW 1296   2.547   2.874   0.665
 1838SOL    HW1 1297   2.616   2.858   0.735
 1838SOL    HW2 1298   2.474   2.931   0.703
 1839SOL     OW 1299   2.548   3.023   1.803
 1839SOL    HW1 1300   2.608   3.102   1.817
 1839SOL    HW2 1301   2.462   3.054   1.762
 1840SOL     OW 1302   2.197   3.297   1.061
 1840SOL    HW1 1303   2.119   3.266   1.008
 1840SOL    HW2 1304   2.255   3.355   1.004
 1841SOL     OW 1305   3.322   3.367   1.339
 1841SOL    HW1 1306   3.346   3.461   1.365
 1841SOL    HW2 1307   3.306   3.313   1.421
 1842SOL     OW 1308   2.300   2.254   1.499
 1842SOL    HW1 1309   2.382   2.198   1.508
 1842SOL    HW2 1310   2.219   2.196   1.503
 1845SOL     OW 1311   2.989   3.203   1.690
 1845SOL    HW1 1312   3.036   3.203   1.778
 1845SOL    HW2 1313   2.941   3.116   1.679
 1847SOL     OW 1314   2.102   2.953   0.886
 1847SOL    HW1 1315   2.116   2.869   0.938
 1847SOL    HW2 1316   2.047   3.017   0.941
 1848SOL     OW 1317   2.482   3.648   1.439
 1848SOL    HW1 1318   2.390   3.631   1.474
 1848SOL    HW2 1319   2.510   3.740   1.465
 1850SOL     OW 1320   3.456   1.976   1.480
 1850SOL    HW1 1321   3.438   2.043   1.408
 1850SOL    HW2 1322   3.453   2.022   1.569
 1851SOL     OW 1323   1.984   2.505   0.563
 1851SOL    HW1 1324   1.939   2.417   0.580
 1851SOL    HW2 1325   1.983   2.559   0.647
 1856SOL     OW 1326   1.975   2.599   1.597
 1856SOL    HW1 1327   2.063   2.586   1.642
 1856SOL    HW2 1328   1.962   2.696   1.575
 1858SOL     OW 1329   3.155   3.090   1.423
 1858SOL    HW1 1330   3.192   3.017   1.365
 1858SOL    HW2 1331   3.207   3.095   1.508
 1860SOL     OW 1332   2.059   2.838   1.264
 1860SOL    HW1 1333   2.148   2.793   1.250
 1860SOL    HW2 1334   1.986   2.773   1.245
 1862SOL     OW 1335   3.049   3.654   1.616
 1862SOL    HW1 1336   3.073   3.714   1.540
 1862SOL    HW2 1337   3.056   3.559   1.586
 1863SOL     OW 1338   2.179   2.113   1.801
 1863SOL    HW1 1339   2.250   2.184   1.807
 1863SOL    HW2 1340   2.091   2.152   1.829
 1867SOL     OW 1341   3.143   2.207   0.944
 1867SOL    HW1 1342   3.057   2.157   0.931
 1867SOL    HW2 1343   3.205   2.153   1.000
 1869SOL     OW 1344   2.669   2.467   1.465
 1869SOL    HW1 1345   2.622   2.464   1.554
 1869SOL    HW2 1346   2.618   2.412   1.399
 1870SOL     OW 1347   3.256   2.331   1.674
 1870SOL    HW1 1348   3.236   2.374   1.762
 1870SOL    HW2 1349   3.334   2.269   1.683
 1871SOL     OW 1350   2.835   2.752   1.572
 1871SOL    HW1 1351   2.881   2.668   1.543
 1871SOL    HW2 1352   2.779   2.786   1.497
 1872SOL     OW 1353   2.853   2.272   1.242
 1872SOL    HW1 1354   2.776   2.306   1.296
 1872SOL    HW2 1355   2.819   2.221   1.163
 1874SOL     OW 1356   1.938   2.673   0.789
 1874SOL    HW1 1357   2.037   2.661   0.798
 1874SOL    HW2 1358   1.914   2.768   0.810
 1875SOL     OW 1359   1.992   3.683   1.571
 1875SOL    HW1 1360   1.982   3.668   1.670
 1875SOL    HW2 1361   1.906   3.719   1.535
 1877SOL     OW 1362   3.581   2.447   1.831
 1877SOL    HW1 1363   3.555   2.536   1.795
 1877SOL    HW2 1364   3.579   2.379   1.758
 1879SOL     OW 1365   2.412   2.058   0.885
 1879SOL    HW1 1366   2.407   2.053   0.985
 1879SOL    HW2 1367   2.414   2.154   0.856
 1883SOL     OW 1368   3.089   3.412   1.506
 1883SOL    HW1 1369   3.095   3.335   1.570
 1883SOL    HW2 1370   3.037   3.386   1.426
 1886SOL     OW 1371   2.323   3.128   1.727
 1886SOL    HW1 1372   2.273   3.129   1.641
 1886SOL    HW2 1373   2.260   3.110   1.803
 1888SOL     OW 1374   2.064   2.147   1.498
 1888SOL    HW1 1375   1.984   2.207   1.485
 1888SOL    HW2 1376   2.054   2.098   1.584
 1892SOL     OW 1377   2.111   3.647   1.241
 1892SOL    HW1 1378   2.168   3.582   1.291
 1892SOL    HW2 1379   2.095   3.614   1.148
 1895SOL     OW 1380   3.409   2.084   1.729
 1895SOL    HW1 1381   3.404   2.121   1.821
 1895SOL    HW2 1382   3.337   2.015   1.717
 1896SOL     OW 1383   2.643   2.126   1.749
 1896SOL    HW1 1384   2.710   2.065   1.792
 1896SOL    HW2 1385   2.570   2.145   1.814
 1897SOL     OW 1386   2.750   3.376   1.195
 1897SOL    HW1 1387   2.727   3.351   1.101
 1897SOL    HW2 1388   2.811   3.307   1.234
 1898SOL     OW 1389   3.213   2.452   1.433
 1898SOL    HW1 1390   3.241   2.409   1.518
 1898SOL    HW2 1391   3.238   2.548   1.434
 1899SOL     OW 1392   2.665   3.264   0.924
 1899SOL    HW1 1393   2.755   3.278   0.882
 1899SOL    HW2 1394   2.594   3.266   0.853
 1900SOL     OW 1395   2.784   2.365   0.899
 1900SOL    HW1 1396   2.759   2.356   0.803
 1900SOL    HW2 1397   2.832   2.283   0.930
 1905SOL     OW 1398   2.938   2.545   1.464
 1905SOL    HW1 1399   2.858   2.484   1.467
 1905SOL    HW2 1400   3.019   2.492   1.440
 1907SOL     OW 1401   2.321   3.014   0.741
 1907SOL    HW1 1402   2.250   2.987   0.806
 1907SOL    HW2 1403   2.295   2.986   0.648
 1910SOL     OW 1404   1.940   2.418   1.386
 1910SOL    HW1 1405   2.032   2.417   1.345
 1910SOL    HW2 1406   1.934   2.492   1.453
 1911SOL     OW 1407   2.423   2.084   1.147
 1911SOL    HW1 1408   2.461   2.000   1.184
 1911SOL    HW2 1409   2.335   2.103   1.191
 1912SOL     OW 1410   2.728   2.316   0.642
 1912SOL    HW1 1411   2.696   2.388   0.580
 1912SOL    HW2 1412   2.752   2.235   0.589
 1913SOL     OW 1413   2.879   1.901   0.753
 1913SOL    HW1 1414   2.807   1.906   0.684
 1913SOL    HW2 1415   2.855   1.832   0.822
 1915SOL     OW 1416   3.328   2.452   0.992
 1915SOL    HW1 1417   3.298   2.357   0.999
 1915SOL    HW2 1418   3.401   2.468   1.058
 1921SOL     OW 1419   3.616   3.085   1.588
 1921SOL    HW1 1420   3.707   3.046   1.575
 1921SOL    HW2 1421   3.624   3.181   1.612
 1922SOL     OW 1422   2.926   3.209   1.340
 1922SOL    HW1 1423   2.846   3.186   1.395
 1922SOL    HW2 1424   3.009   3.183   1.389
 1923SOL     OW 1425   3.454   3.491   1.625
 1923SOL    HW1 1426   3.481   3.525   1.535
 1923SOL    HW2 1427   3.533   3.453   1.671
 1924SOL     OW 1428   2.973   3.057   1.100
 1924SOL    HW1 1429   2.933   3.101   1.181
 1924SOL    HW2 1430   2.932   3.094   1.017
 1926SOL     OW 1431   2.777   1.951   1.402
 1926SOL    HW1 1432   2.802   1.931   1.307
 1926SOL    HW2 1433   2.849   2.007   1.444
 1927SOL     OW 1434   2.842   2.978   1.719
 1927SOL    HW1 1435   2.743   2.984   1.729
 1927SOL    HW2 1436   2.865   2.898   1.663
 1929SOL     OW 1437   2.272   2.675   1.251
 1929SOL    HW1 1438   2.358   2.687   1.301
 1929SOL    HW2 1439   2.230   2.588   1.278
 1930SOL     OW 1440   3.136   2.248   1.262
 1930SOL    HW1 1441   3.157   2.322   1.326
 1930SOL    HW2 1442   3.047   2.265   1.219
 1931SOL     OW 1443   1.926   3.426   1.331
 1931SOL    HW1 1444   1.880   3.508   1.297
 1931SOL    HW2 1445   2.024   3.445   1.340
 1933SOL     OW 1446   2.428   2.399   0.865
 1933SOL    HW1 1447   2.440   2.465   0.791
 1933SOL    HW2 1448   2.474   2.433   0.948
 1935SOL     OW 1449   3.134   3.307   1.142
 1935SOL    HW1 1450   3.181   3.320   1.229
 1935SOL    HW2 1451   3.068   3.233   1.151
 1937SOL     OW 1452   2.216   3.372   1.329
 1937SOL    HW1 1453   2.195   3.328   1.242
 1937SOL    HW2 1454   2.313   3.398   1.332
 1938SOL     OW 1455   2.264   2.613   1.598
 1938SOL    HW1 1456   2.332   2.668   1.551
 1938SOL    HW2 1457   2.304   2.525   1.625
 1939SOL     OW 1458   3.449   2.641   1.670
 1939SOL    HW1 1459   3.357   2.679   1.665
 1939SOL    HW2 1460   3.509   2.688   1.605
 1940SOL     OW 1461   2.875   1.967   1.770
 1940SOL    HW1 1462   2.881   2.052   1.718
 1940SOL    HW2 1463   2.907   1.891   1.713
 1941SOL     OW 1464   2.366   1.912   1.740
 1941SOL    HW1 1465   2.324   1.855   1.670
 1941SOL    HW2 1466   2.300   1.981   1.772
 1942SOL     OW 1467   2.435   2.732   1.029
 1942SOL    HW1 1468   2.479   2.821   1.020
 1942SOL    HW2 1469   2.372   2.732   1.106
 1943SOL     OW 1470   3.222   2.724   1.045
 1943SOL    HW1 1471   3.147   2.724   0.979
 1943SOL    HW2 1472   3.259   2.632   1.054
 1945SOL     OW 1473   2.169   2.075   1.231
 1945SOL    HW1 1474   2.146   2.112   1.321
 1945SOL    HW2 1475   2.139   1.980   1.225
 1946SOL     OW 1476   1.899   3.172   1.282
 1946SOL    HW1 1477   1.952   3.123   1.350
 1946SOL    HW2 1478   1.921   3.270   1.287
 1947SOL     OW 1479   2.594   2.496   1.064
 1947SOL    HW1 1480   2.653   2.470   0.988
 1947SOL    HW2 1481   2.566   2.592   1.053
 1948SOL     OW 1482   3.590   2.797   1.854
 1948SOL    HW1 1483   3.544   2.790   1.765
 1948SOL    HW2 1484   3.528   2.841   1.920
 1949SOL     OW 1485   2.169   1.925   0.618
 1949SOL    HW1 1486   2.158   2.019   0.651
 1949SOL    HW2 1487   2.164   1.862   0.695
 1951SOL     OW 1488   2.885   2.628   0.966
 1951SOL    HW1 1489   2.900   2.649   1.062
 1951SOL    HW2 1490   2.855   2.533   0.957
 1952SOL     OW 1491   2.842   3.435   1.700
 1952SOL    HW1 1492   2.822   3.479   1.612
 1952SOL    HW2 1493   2.881   3.344   1.684
 1954SOL     OW 1494   2.212   2.760   1.804
 1954SOL    HW1 1495   2.288   2.804   1.852
 1954SOL    HW2 1496   2.247   2.713   1.722
 1958SOL     OW 1497   2.181   2.672   0.949
 1958SOL    HW1 1498   2.274   2.708   0.954
 1958SOL    HW2 1499   2.175   2.587   1.001
 1959SOL     OW 1500   2.201   2.371   1.006
 1959SOL    HW1 1501   2.149   2.288   0.989
 1959SOL    HW2 1502   2.278   2.376   0.942
 1960SOL     OW 1503   3.000   2.242   1.678
 1960SOL    HW1 1504   2.955   2.305   1.742
 1960SOL    HW2 1505   3.093   2.273   1.661
 1961SOL     OW 1506   3.022   2.069   1.477
 1961SOL    HW1 1507   3.022   2.133   1.554
 1961SOL    HW2 1508   3.050   2.117   1.394
 1964SOL     OW 1509   2.366   3.430   0.910
 1964SOL    HW1 1510   2.432   3.504   0.919
 1964SOL    HW2 1511   2.410   3.351   0.868
 1965SOL     OW 1512   2.864   2.658   1.238
 1965SOL    HW1 1513   2.905   2.626   1.324
 1965SOL    HW2 1514   2.768   2.631   1.235
 1966SOL     OW 1515   1.902   2.406   1.114
 1966SOL    HW1 1516   1.987   2.373   1.073
 1966SOL    HW2 1517   1.915   2.421   1.212
 1967SOL     OW 1518   2.051   2.382   1.722
 1967SOL    HW1 1519   2.110   2.342   1.652
 1967SOL    HW2 1520   1.993   2.453   1.681
 1968SOL     OW 1521   3.231   2.812   1.660
 1968SOL    HW1 1522   3.270   2.901   1.680
 1968SOL    HW2 1523   3.241   2.792   1.563
 1970SOL     OW 1524   3.519   2.466   1.206
 1970SOL    HW1 1525   3.481   2.397   1.268
 1970SOL    HW2 1526   3.601   2.430   1.162
 1971SOL     OW 1527   2.114   3.426   1.744
 1971SOL    HW1 1528   2.084   3.483   1.820
 1971SOL    HW2 1529   2.107   3.329   1.770
 1972SOL     OW 1530   2.533   2.326   1.269
 1972SOL    HW1 1531   2.499   2.237   1.239
 1972SOL    HW2 1532   2.559   2.380   1.189
 1973SOL     OW 1533   2.792   3.540   1.465
 1973SOL    HW1 1534   2.768   3.522   1.370
 1973SOL    HW2 1535   2.822   3.634   1.475
 1975SOL     OW 1536   2.021   2.999   1.466
 1975SOL    HW1 1537   2.043   2.938   1.542
 1975SOL    HW2 1538   2.031   2.950   1.380
 1976SOL     OW 1539   3.209   2.921   1.234
 1976SOL    HW1 1540   3.233   2.858   1.160
 1976SOL    HW2 1541   3.119   2.961   1.216
 1980SOL     OW 1542   1.945   3.120   1.022
 1980SOL    HW1 1543   1.940   3.119   1.122
 1980SOL    HW2 1544   1.862   3.079   0.984
 1981SOL     OW 1545   2.550   3.524   1.716
 1981SOL    HW1 1546   2.494   3.605   1.725
 1981SOL    HW2 1547   2.602   3.528   1.630
 1985SOL     OW 1548   1.992   3.656   1.851
 1985SOL    HW1 1549   1.951   3.582   1.904
 1985SOL    HW2 1550   2.056   3.707   1.909
 1987SOL     OW 1551   2.692   3.135   1.422
 1987SOL    HW1 1552   2.687   3.168   1.517
 1987SOL    HW2 1553   2.606   3.154   1.376
 1991SOL     OW 1554   2.125   2.188   0.720
 1991SOL    HW1 1555   2.046   2.239   0.686
 1991SOL    HW2 1556   2.116   2.173   0.818
 1993SOL     OW 1557   2.684   2.864   1.372
 1993SOL    HW1 1558   2.724   2.863   1.280
 1993SOL    HW2 1559   2.694   2.956   1.412
 1996SOL     OW 1560   2.234   3.150   1.490
 1996SOL    HW1 1561   2.221   3.243   1.456
 1996SOL    HW2 1562   2.150   3.098   1.477
 1997SOL     OW 1563   3.476   3.154   1.289
 1997SOL    HW1 1564   3.536   3.157   1.369
 1997SOL    HW2 1565   3.401   3.218   1.302
 1999SOL     OW 1566   2.876   2.098   0.971
 1999SOL    HW1 1567   2.868   2.062   0.878
 1999SOL    HW2 1568   2.874   2.022   1.036
 2001SOL     OW 1569   3.571   2.247   1.381
 2001SOL    HW1 1570   3.644   2.316   1.385
 2001SOL    HW2 1571   3.599   2.172   1.322
 2003SOL     OW 1572   1.967   2.875   1.726
 2003SOL    HW1 1573   1.890   2.842   1.780
 2003SOL    HW2 1574   2.052   2.845   1.768
 2004SOL     OW 1575   2.534   2.065   1.489
 2004SOL    HW1 1576   2.624   2.049   1.449
 2004SOL    HW2 1577   2.542   2.070   1.588
 2005SOL     OW 1578   3.302   2.718   1.398
 2005SOL    HW1 1579   3.245   2.770   1.335
 2005SOL    HW2 1580   3.398   2.730   1.374
 2008SOL     OW 1581   2.475   2.704   1.431
 2008SOL    HW1 1582   2.531   2.785   1.414
 2008SOL    HW2 1583   2.534   2.624   1.434
 2010SOL     OW 1584   2.578   2.427   1.708
 2010SOL    HW1 1585   2.597   2.492   1.782
 2010SOL    HW2 1586   2.638   2.347   1.717
 2011SOL     OW 1587   3.312   3.082   1.633
 2011SOL    HW1 1588   3.303   3.072   1.732
 2011SOL    HW2 1589   3.408   3.075   1.607
 2012SOL     OW 1590   2.252   3.603   1.560
 2012SOL    HW1 1591   2.161   3.644   1.558
 2012SOL    HW2 1592   2.245   3.509   1.592
 2013SOL     OW 1593   3.536   2.745   1.254
 2013SOL    HW1 1594   3.509   2.656   1.217
 2013SOL    HW2 1595   3.537   2.813   1.181
 2015SOL     OW 1596   2.456   2.607   0.652
 2015SOL    HW1 1597   2.506   2.692   0.633
 2015SOL    HW2 1598   2.368   2.609   0.604
 2016SOL     OW 1599   3.639   2.204   1.642
 2016SOL    HW1 1600   3.622   2.235   1.548
 2016SOL    HW2 1601   3.555   2.167   1.680
 2017SOL     OW 1602   3.592   2.796   1.517
 2017SOL    HW1 1603   3.630   2.887   1.532
 2017SOL    HW2 1604   3.584   2.779   1.418
 2020SOL     OW 1605   2.721   2.818   0.861
 2020SOL    HW1 1606   2.775   2.749   0.909
 2020SOL    HW2 1607   2.689   2.887   0.927
 2023SOL     OW 1608   2.083   3.176   1.844
 2023SOL    HW1 1609   2.018   3.103   1.823
 2023SOL    HW2 1610   2.087   3.190   1.942
 2025SOL     OW 1611   2.534   3.253   1.624
 2025SOL    HW1 1612   2.456   3.203   1.662
 2025SOL    HW2 1613   2.531   3.348   1.655
 2026SOL     OW 1614   3.686   2.054   1.227
 2026SOL    HW1 1615   3.682   1.964   1.271
 2026SOL    HW2 1616   3.689   2.043   1.128
 2027SOL     OW 1617   2.290   2.286   0.520
 2027SOL    HW1 1618   2.320   2.214   0.458
 2027SOL    HW2 1619   2.251   2.246   0.603
 2029SOL     OW 1620   2.179   2.409   1.280
 2029SOL    HW1 1621   2.217   2.350   1.352
 2029SOL    HW2 1622   2.219   2.383   1.192
 2031SOL     OW 1623   3.286   2.076   1.112
 2031SOL    HW1 1624   3.338   2.011   1.167
 2031SOL    HW2 1625   3.237   2.139   1.173
 2032SOL     OW 1626   2.863   1.896   1.154
 2032SOL    HW1 1627   2.800   1.824   1.123
 2032SOL    HW2 1628   2.956   1.860   1.154
 2034SOL     OW 1629   2.480   3.429   1.284
 2034SOL    HW1 1630   2.475   3.511   1.341
 2034SOL    HW2 1631   2.569   3.426   1.239
 2040SOL     OW 1632   2.092   2.490   1.975
 2040SOL    HW1 1633   1.999   2.488   2.012
 2040SOL    HW2 1634   2.093   2.451   1.883
 2041SOL     OW 1635   2.087   2.137   2.858
 2041SOL    HW1 1636   2.122   2.120   2.950
 2041SOL    HW2 1637   1.999   2.092   2.846
 2042SOL     OW 1638   1.881   2.230   2.509
 2042SOL    HW1 1639   1.799   2.273   2.548
 2042SOL    HW2 1640   1.853   2.157   2.446
 2043SOL     OW 1641   2.431   3.137   3.027
 2043SOL    HW1 1642   2.338   3.130   2.990
 2043SOL    HW2 1643   2.442   3.226   3.071
 2044SOL     OW 1644   3.417   3.373   2.565
 2044SOL    HW1 1645   3.360   3.357   2.646
 2044SOL    HW2 1646   3.358   3.383   2.485
 2045SOL     OW 1647   2.997   2.565   2.579
 2045SOL    HW1 1648   3.054   2.643   2.554
 2045SOL    HW2 1649   2.937   2.591   2.655
 2046SOL     OW 1650   3.617   2.469   2.093
 2046SOL    HW1 1651   3.605   2.456   1.994
 2046SOL    HW2 1652   3.587   2.388   2.142
 2047SOL     OW 1653   2.630   3.006   2.885
 2047SOL    HW1 1654   2.552   3.023   2.945
 2047SOL    HW2 1655   2.664   3.093   2.849
 2048SOL     OW 1656   2.712   2.660   3.685
 2048SOL    HW1 1657   2.708   2.736   3.750
 2048SOL    HW2 1658   2.734   2.696   3.594
 2049SOL     OW 1659   2.547   2.874   2.527
 2049SOL    HW1 1660   2.616   2.858   2.597
 2049SOL    HW2 1661   2.474   2.931   2.565
 2050SOL     OW 1662   2.548   3.023   3.665
 2050SOL    HW1 1663   2.608   3.102   3.679
 2050SOL    HW2 1664   2.462   3.054   3.624
 2051SOL     OW 1665   2.197   3.297   2.923
 2051SOL    HW1 1666   2.119   3.266   2.870
 2051SOL    HW2 1667   2.255   3.355   2.866
 2052SOL     OW 1668   3.322   3.367   3.201
 2052SOL    HW1 1669   3.346   3.461   3.227
 2052SOL    HW2 1670   3.306   3.313   3.283
 2053SOL     OW 1671   2.300   2.254   3.361
 2053SOL    HW1 1672   2.382   2.198   3.370
 2053SOL    HW2 1673   2.219   2.196   3.365
 2054SOL     OW 1674   3.465   2.309   2.599
 2054SOL    HW1 1675   3.391   2.355   2.549
 2054SOL    HW2 1676   3.516   2.377   2.652
 2055SOL     OW 1677   2.093   3.575   2.345
 2055SOL    HW1 1678   2.127   3.652   2.399
 2055SOL    HW2 1679   2.137   3.575   2.255
 2056SOL     OW 1680   2.989   3.203   3.552
 2056SOL    HW1 1681   3.036   3.203   3.640
 2056SOL    HW2 1682   2.941   3.116   3.541
 2057SOL     OW 1683   2.092   3.296   2.400
 2057SOL    HW1 1684   2.066   3.392   2.400
 2057SOL    HW2 1685   2.021   3.242   2.445
 2058SOL     OW 1686   2.102   2.953   2.748
 2058SOL    HW1 1687   2.116   2.869   2.800
 2058SOL    HW2 1688   2.047   3.017   2.803
 2059SOL     OW 1689   2.482   3.648   3.301
 2059SOL    HW1 1690   2.390   3.631   3.336
 2059SOL    HW2 1691   2.510   3.740   3.327
 2060SOL     OW 1692   2.468   2.826   1.985
 2060SOL    HW1 1693   2.475   2.910   1.931
 2060SOL    HW2 1694   2.514   2.839   2.073
 2061SOL     OW 1695   3.456   1.976   3.342
 2061SOL    HW1 1696   3.438   2.043   3.270
 2061SOL    HW2 1697   3.453   2.022   3.431
 2062SOL     OW 1698   1.984   2.505   2.425
 2062SOL    HW1 1699   1.939   2.417   2.442
 2062SOL    HW2 1700   1.983   2.559   2.509
 2064SOL     OW 1701   1.889   3.458   1.979
 2064SOL    HW1 1702   1.870   3.362   2.000
 2064SOL    HW2 1703   1.856   3.516   2.054
 2065SOL     OW 1704   3.551   2.784   2.474
 2065SOL    HW1 1705   3.646   2.755   2.482
 2065SOL    HW2 1706   3.543   2.849   2.399
 2066SOL     OW 1707   3.503   2.970   2.294
 2066SOL    HW1 1708   3.589   2.972   2.242
 2066SOL    HW2 1709   3.517   3.017   2.382
 2067SOL     OW 1710   1.975   2.599   3.459
 2067SOL    HW1 1711   2.063   2.586   3.504
 2067SOL    HW2 1712   1.962   2.696   3.437
 2068SOL     OW 1713   2.475   3.227   2.588
 2068SOL    HW1 1714   2.426   3.140   2.597
 2068SOL    HW2 1715   2.452   3.270   2.501
 2069SOL     OW 1716   3.155   3.090   3.285
 2069SOL    HW1 1717   3.192   3.017   3.227
 2069SOL    HW2 1718   3.207   3.095   3.370
 2070SOL     OW 1719   2.671   1.866   2.364
 2070SOL    HW1 1720   2.711   1.957   2.355
 2070SOL    HW2 1721   2.571   1.874   2.370
 2071SOL     OW 1722   2.059   2.838   3.126
 2071SOL    HW1 1723   2.148   2.793   3.112
 2071SOL    HW2 1724   1.986   2.773   3.107
 2072SOL     OW 1725   3.387   2.861   2.052
 2072SOL    HW1 1726   3.324   2.785   2.065
 2072SOL    HW2 1727   3.435   2.879   2.138
 2074SOL     OW 1728   2.179   2.113   3.663
 2074SOL    HW1 1729   2.250   2.184   3.669
 2074SOL    HW2 1730   2.091   2.152   3.691
 2075SOL     OW 1731   3.328   3.279   2.815
 2075SOL    HW1 1732   3.269   3.285   2.895
 2075SOL    HW2 1733   3.313   3.191   2.769
 2076SOL     OW 1734   3.529   3.576   2.434
 2076SOL    HW1 1735   3.488   3.553   2.346
 2076SOL    HW2 1736   3.511   3.502   2.499
 2077SOL     OW 1737   2.460   2.591   2.132
 2077SOL    HW1 1738   2.484   2.660   2.064
 2077SOL    HW2 1739   2.382   2.624   2.186
 2078SOL     OW 1740   3.143   2.207   2.806
 2078SOL    HW1 1741   3.057   2.157   2.793
 2078SOL    HW2 1742   3.205   2.153   2.862
 2079SOL     OW 1743   3.438   3.524   2.169
 2079SOL    HW1 1744   3.527   3.570   2.172
 2079SOL    HW2 1745   3.417   3.500   2.074
 2080SOL     OW 1746   2.669   2.467   3.327
 2080SOL    HW1 1747   2.622   2.464   3.416
 2080SOL    HW2 1748   2.618   2.412   3.261
 2081SOL     OW 1749   3.256   2.331   3.536
 2081SOL    HW1 1750   3.236   2.374   3.624
 2081SOL    HW2 1751   3.334   2.269   3.545
 2082SOL     OW 1752   2.835   2.752   3.434
 2082SOL    HW1 1753   2.881   2.668   3.405
 2082SOL    HW2 1754   2.779   2.786   3.359
 2083SOL     OW 1755   2.853   2.272   3.104
 2083SOL    HW1 1756   2.776   2.306   3.158
 2083SOL    HW2 1757   2.819   2.221   3.025
 2084SOL     OW 1758   2.903   2.563   2.291
 2084SOL    HW1 1759   2.929   2.559   2.387
 2084SOL    HW2 1760   2.818   2.512   2.277
 2085SOL     OW 1761   1.938   2.673   2.651
 2085SOL    HW1 1762   2.037   2.661   2.660
 2085SOL    HW2 1763   1.914   2.768   2.672
 2086SOL     OW 1764   1.992   3.683   3.433
 2086SOL    HW1 1765   1.982   3.668   3.532
 2086SOL    HW2 1766   1.906   3.719   3.397
 2087SOL     OW 1767   2.727   2.210   2.057
 2087SOL    HW1 1768   2.786   2.273   2.008
 2087SOL    HW2 1769   2.746   2.116   2.028
 2089SOL     OW 1770   3.224   3.006   2.407
 2089SOL    HW1 1771   3.307   2.977   2.359
 2089SOL    HW2 1772   3.175   3.073   2.351
 2090SOL     OW 1773   2.412   2.058   2.747
 2090SOL    HW1 1774   2.407   2.053   2.847
 2090SOL    HW2 1775   2.414   2.154   2.718
 2091SOL     OW 1776   2.870   3.318   2.339
 2091SOL    HW1 1777   2.824   3.390   2.287
 2091SOL    HW2 1778   2.866   3.338   2.437
 2092SOL     OW 1779   2.213   3.663   2.715
 2092SOL    HW1 1780   2.263   3.577   2.721
 2092SOL    HW2 1781   2.278   3.740   2.712
 2093SOL     OW 1782   3.657   2.928   2.735
 2093SOL    HW1 1783   3.595   2.913   2.659
 2093SOL    HW2 1784   3.605   2.939   2.820
 2094SOL     OW 1785   3.089   3.412   3.368
 2094SOL    HW1 1786   3.095   3.335   3.432
 2094SOL    HW2 1787   3.037   3.386   3.288
 2095SOL     OW 1788   2.183   2.805   2.104
 2095SOL    HW1 1789   2.265   2.844   2.062
 2095SOL    HW2 1790   2.156   2.723   2.055
 2096SOL     OW 1791   3.320   2.597   2.590
 2096SOL    HW1 1792   3.315   2.532   2.665
 2096SOL    HW2 1793   3.400   2.656   2.603
 2097SOL     OW 1794   2.323   3.128   3.589
 2097SOL    HW1 1795   2.273   3.129   3.503
 2097SOL    HW2 1796   2.260   3.110   3.665
 2098SOL     OW 1797   2.973   3.638   2.099
 2098SOL    HW1 1798   2.913   3.576   2.149
 2098SOL    HW2 1799   3.004   3.594   2.014
 2099SOL     OW 1800   2.064   2.147   3.360
 2099SOL    HW1 1801   1.984   2.207   3.347
 2099SOL    HW2 1802   2.054   2.098   3.446
 2100SOL     OW 1803   3.494   3.239   1.943
 2100SOL    HW1 1804   3.462   3.333   1.933
 2100SOL    HW2 1805   3.418   3.176   1.931
 2101SOL     OW 1806   2.326   3.605   2.185
 2101SOL    HW1 1807   2.359   3.644   2.271
 2101SOL    HW2 1808   2.402   3.598   2.120
 2102SOL     OW 1809   3.262   1.969   2.288
 2102SOL    HW1 1810   3.238   1.932   2.198
 2102SOL    HW2 1811   3.361   1.985   2.292
 2103SOL     OW 1812   2.111   3.647   3.103
 2103SOL    HW1 1813   2.168   3.582   3.153
 2103SOL    HW2 1814   2.095   3.614   3.010
 2104SOL     OW 1815   2.802   3.560   2.766
 2104SOL    HW1 1816   2.882   3.503   2.787
 2104SOL    HW2 1817   2.753   3.520   2.689
 2105SOL     OW 1818   3.409   2.084   3.591
 2105SOL    HW1 1819   3.404   2.121   3.683
 2105SOL    HW2 1820   3.337   2.015   3.579
 2106SOL     OW 1821   2.476   1.984   1.979
 2106SOL    HW1 1822   2.574   1.962   1.986
 2106SOL    HW2 1823   2.445   1.967   1.886
 2107SOL     OW 1824   2.643   2.126   3.611
 2107SOL    HW1 1825   2.710   2.065   3.654
 2107SOL    HW2 1826   2.570   2.145   3.676
 2108SOL     OW 1827   2.750   3.376   3.057
 2108SOL    HW1 1828   2.727   3.351   2.963
 2108SOL    HW2 1829   2.811   3.307   3.096
 2109SOL     OW 1830   3.213   2.452   3.295
 2109SOL    HW1 1831   3.241   2.409   3.380
 2109SOL    HW2 1832   3.238   2.548   3.296
 2110SOL     OW 1833   2.665   3.264   2.786
 2110SOL    HW1 1834   2.755   3.278   2.744
 2110SOL    HW2 1835   2.594   3.266   2.715
 2111SOL     OW 1836   2.784   2.365   2.761
 2111SOL    HW1 1837   2.759   2.356   2.665
 2111SOL    HW2 1838   2.832   2.283   2.792
 2112SOL     OW 1839   3.296   3.050   1.903
 2112SOL    HW1 1840   3.328   2.974   1.960
 2112SOL    HW2 1841   3.204   3.077   1.933
 2113SOL     OW 1842   2.159   1.897   2.033
 2113SOL    HW1 1843   2.208   1.981   2.012
 2113SOL    HW2 1844   2.221   1.832   2.078
 2114SOL     OW 1845   2.797   2.098   2.342
 2114SOL    HW1 1846   2.749   2.139   2.264
 2114SOL    HW2 1847   2.896   2.096   2.323
 2115SOL     OW 1848   2.938   2.545   3.326
 2115SOL    HW1 1849   2.858   2.484   3.329
 2115SOL    HW2 1850   3.019   2.492   3.302
 2116SOL     OW 1851   3.089   3.432   2.655
 2116SOL    HW1 1852   3.110   3.506   2.590
 2116SOL    HW2 1853   3.157   3.432   2.728
 2117SOL     OW 1854   2.321   3.014   2.603
 2117SOL    HW1 1855   2.250   2.987   2.668
 2117SOL    HW2 1856   2.295   2.986   2.510
 2118SOL     OW 1857   3.133   3.659   2.453
 2118SOL    HW1 1858   3.177   3.723   2.389
 2118SOL    HW2 1859   3.083   3.711   2.523
 2119SOL     OW 1860   2.894   2.411   1.878
 2119SOL    HW1 1861   2.853   2.493   1.839
 2119SOL    HW2 1862   2.958   2.437   1.951
 2120SOL     OW 1863   1.940   2.418   3.248
 2120SOL    HW1 1864   2.032   2.417   3.207
 2120SOL    HW2 1865   1.934   2.492   3.315
 2121SOL     OW 1866   2.423   2.084   3.009
 2121SOL    HW1 1867   2.461   2.000   3.046
 2121SOL    HW2 1868   2.335   2.103   3.053
 2122SOL     OW 1869   2.728   2.316   2.504
 2122SOL    HW1 1870   2.696   2.388   2.442
 2122SOL    HW2 1871   2.752   2.235   2.451
 2123SOL     OW 1872   2.879   1.901   2.615
 2123SOL    HW1 1873   2.807   1.906   2.546
 2123SOL    HW2 1874   2.855   1.832   2.684
 2124SOL     OW 1875   3.291   3.035   2.729
 2124SOL    HW1 1876   3.236   2.951   2.722
 2124SOL    HW2 1877   3.317   3.064   2.637
 2125SOL     OW 1878   3.328   2.452   2.854
 2125SOL    HW1 1879   3.298   2.357   2.861
 2125SOL    HW2 1880   3.401   2.468   2.920
 2126SOL     OW 1881   3.719   2.695   2.239
 2126SOL    HW1 1882   3.761   2.631   2.303
 2126SOL    HW2 1883   3.681   2.644   2.161
 2127SOL     OW 1884   2.350   3.247   2.036
 2127SOL    HW1 1885   2.263   3.232   2.083
 2127SOL    HW2 1886   2.333   3.273   1.941
 2128SOL     OW 1887   3.526   3.142   2.519
 2128SOL    HW1 1888   3.625   3.150   2.533
 2128SOL    HW2 1889   3.481   3.226   2.550
 2129SOL     OW 1890   3.252   2.437   1.940
 2129SOL    HW1 1891   3.198   2.416   2.021
 2129SOL    HW2 1892   3.343   2.396   1.949
 2131SOL     OW 1893   2.926   3.209   3.202
 2131SOL    HW1 1894   2.846   3.186   3.257
 2131SOL    HW2 1895   3.009   3.183   3.251
 2133SOL     OW 1896   2.973   3.057   2.962
 2133SOL    HW1 1897   2.933   3.101   3.043
 2133SOL    HW2 1898   2.932   3.094   2.879
 2134SOL     OW 1899   3.500   2.961   2.941
 2134SOL    HW1 1900   3.505   3.042   3.000
 2134SOL    HW2 1901   3.414   2.963   2.890
 2135SOL     OW 1902   2.777   1.951   3.264
 2135SOL    HW1 1903   2.802   1.931   3.169
 2135SOL    HW2 1904   2.849   2.007   3.306
 2136SOL     OW 1905   2.842   2.978   3.581
 2136SOL    HW1 1906   2.743   2.984   3.591
 2136SOL    HW2 1907   2.865   2.898   3.525
 2137SOL     OW 1908   2.567   2.912   2.230
 2137SOL    HW1 1909   2.553   2.919   2.329
 2137SOL    HW2 1910   2.651   2.861   2.212
 2138SOL     OW 1911   2.272   2.675   3.113
 2138SOL    HW1 1912   2.358   2.687   3.163
 2138SOL    HW2 1913   2.230   2.588   3.140
 2139SOL     OW 1914   3.136   2.248   3.124
 2139SOL    HW1 1915   3.157   2.322   3.188
 2139SOL    HW2 1916   3.047   2.265   3.081
 2140SOL     OW 1917   1.926   3.426   3.193
 2140SOL    HW1 1918   1.880   3.508   3.159
 2140SOL    HW2 1919   2.024   3.445   3.202
 2141SOL     OW 1920   2.229   2.962   2.363
 2141SOL    HW1 1921   2.222   3.045   2.307
 2141SOL    HW2 1922   2.233   2.882   2.303
 2142SOL     OW 1923   2.428   2.399   2.727
 2142SOL    HW1 1924   2.440   2.465   2.653
 2142SOL    HW2 1925   2.474   2.433   2.810
 2143SOL     OW 1926   3.114   3.210   2.250
 2143SOL    HW1 1927   3.164   3.287   2.290
 2143SOL    HW2 1928   3.019   3.212   2.282
 2144SOL     OW 1929   3.134   3.307   3.004
 2144SOL    HW1 1930   3.181   3.320   3.091
 2144SOL    HW2 1931   3.068   3.233   3.013
 2145SOL     OW 1932   3.444   2.501   2.334
 2145SOL    HW1 1933   3.413   2.562   2.407
 2145SOL    HW2 1934   3.494   2.553   2.265
 2146SOL     OW 1935   2.216   3.372   3.191
 2146SOL    HW1 1936   2.195   3.328   3.104
 2146SOL    HW2 1937   2.313   3.398   3.194
 2147SOL     OW 1938   2.264   2.613   3.460
 2147SOL    HW1 1939   2.332   2.668   3.413
 2147SOL    HW2 1940   2.304   2.525   3.487
 2148SOL     OW 1941   3.449   2.641   3.532
 2148SOL    HW1 1942   3.357   2.679   3.527
 2148SOL    HW2 1943   3.509   2.688   3.467
 2149SOL     OW 1944   2.875   1.967   3.632
 2149SOL    HW1 1945   2.881   2.052   3.580
 2149SOL    HW2 1946   2.907   1.891   3.575
 2150SOL     OW 1947   2.366   1.912   3.602
 2150SOL    HW1 1948   2.324   1.855   3.532
 2150SOL    HW2 1949   2.300   1.981   3.634
 2151SOL     OW 1950   2.435   2.732   2.891
 2151SOL    HW1 1951   2.479   2.821   2.882
 2151SOL    HW2 1952   2.372   2.732   2.968
 2152SOL     OW 1953   3.222   2.724   2.907
 2152SOL    HW1 1954   3.147   2.724   2.841
 2152SOL    HW2 1955   3.259   2.632   2.916
 2153SOL     OW 1956   3.071   2.387   2.137
 2153SOL    HW1 1957   3.084   2.303   2.191
 2153SOL    HW2 1958   3.042   2.461   2.197
 2154SOL     OW 1959   2.169   2.075   3.093
 2154SOL    HW1 1960   2.146   2.112   3.183
 2154SOL    HW2 1961   2.139   1.980   3.087
 2155SOL     OW 1962   1.899   3.172   3.144
 2155SOL    HW1 1963   1.952   3.123   3.212
 2155SOL    HW2 1964   1.921   3.270   3.149
 2156SOL     OW 1965   2.594   2.496   2.926
 2156SOL    HW1 1966   2.653   2.470   2.850
 2156SOL    HW2 1967   2.566   2.592   2.915
 2158SOL     OW 1968   2.169   1.925   2.480
 2158SOL    HW1 1969   2.158   2.019   2.513
 2158SOL    HW2 1970   2.164   1.862   2.557
 2159SOL     OW 1971   3.484   2.229   2.236
 2159SOL    HW1 1972   3.486   2.153   2.300
 2159SOL    HW2 1973   3.436   2.306   2.276
 2160SOL     OW 1974   2.885   2.628   2.828
 2160SOL    HW1 1975   2.900   2.649   2.924
 2160SOL    HW2 1976   2.855   2.533   2.819
 2161SOL     OW 1977   2.842   3.435   3.562
 2161SOL    HW1 1978   2.822   3.479   3.474
 2161SOL    HW2 1979   2.881   3.344   3.546
 2163SOL     OW 1980   2.212   2.760   3.666
 2163SOL    HW1 1981   2.288   2.804   3.714
 2163SOL    HW2 1982   2.247   2.713   3.584
 2164SOL     OW 1983   3.402   2.136   1.987
 2164SOL    HW1 1984   3.341   2.061   2.010
 2164SOL    HW2 1985   3.424   2.188   2.070
 2165SOL     OW 1986   3.165   2.700   1.904
 2165SOL    HW1 1987   3.199   2.607   1.919
 2165SOL    HW2 1988   3.183   2.727   1.809
 2166SOL     OW 1989   2.930   3.195   2.711
 2166SOL    HW1 1990   2.937   3.111   2.656
 2166SOL    HW2 1991   2.992   3.264   2.675
 2167SOL     OW 1992   2.181   2.672   2.811
 2167SOL    HW1 1993   2.274   2.708   2.816
 2167SOL    HW2 1994   2.175   2.587   2.863
 2168SOL     OW 1995   2.201   2.371   2.868
 2168SOL    HW1 1996   2.149   2.288   2.851
 2168SOL    HW2 1997   2.278   2.376   2.804
 2169SOL     OW 1998   3.000   2.242   3.540
 2169SOL    HW1 1999   2.955   2.305   3.604
 2169SOL    HW2 2000   3.093   2.273   3.523
 2170SOL     OW 2001   3.022   2.069   3.339
 2170SOL    HW1 2002   3.022   2.133   3.416
 2170SOL    HW2 2003   3.050   2.117   3.256
 2171SOL     OW 2004   1.870   3.188   2.062
 2171SOL    HW1 2005   1.777   3.209   2.031
 2171SOL    HW2 2006   1.880   3.089   2.075
 2172SOL     OW 2007   1.950   3.663   2.789
 2172SOL    HW1 2008   1.908   3.577   2.762
 2172SOL    HW2 2009   2.044   3.666   2.755
 2173SOL     OW 2010   2.366   3.430   2.772
 2173SOL    HW1 2011   2.432   3.504   2.781
 2173SOL    HW2 2012   2.410   3.351   2.730
 2174SOL     OW 2013   2.864   2.658   3.100
 2174SOL    HW1 2014   2.905   2.626   3.186
 2174SOL    HW2 2015   2.768   2.631   3.097
 2175SOL     OW 2016   1.902   2.406   2.976
 2175SOL    HW1 2017   1.987   2.373   2.935
 2175SOL    HW2 2018   1.915   2.421   3.074
 2176SOL     OW 2019   2.051   2.382   3.584
 2176SOL    HW1 2020   2.110   2.342   3.514
 2176SOL    HW2 2021   1.993   2.453   3.543
 2177SOL     OW 2022   3.231   2.812   3.522
 2177SOL    HW1 2023   3.270   2.901   3.542
 2177SOL    HW2 2024   3.241   2.792   3.425
 2178SOL     OW 2025   3.519   2.466   3.068
 2178SOL    HW1 2026   3.481   2.397   3.130
 2178SOL    HW2 2027   3.601   2.430   3.024
 2179SOL     OW 2028   2.114   3.426   3.606
 2179SOL    HW1 2029   2.084   3.483   3.682
 2179SOL    HW2 2030   2.107   3.329   3.632
 2180SOL     OW 2031   2.533   2.326   3.131
 2180SOL    HW1 2032   2.499   2.237   3.101
 2180SOL    HW2 2033   2.559   2.380   3.051
 2181SOL     OW 2034   2.792   3.540   3.327
 2181SOL    HW1 2035   2.768   3.522   3.232
 2181SOL    HW2 2036   2.822   3.634   3.337
 2182SOL     OW 2037   2.021   2.999   3.328
 2182SOL    HW1 2038   2.043   2.938   3.404
 2182SOL    HW2 2039   2.031   2.950   3.242
 2183SOL     OW 2040   3.209   2.921   3.096
 2183SOL    HW1 2041   3.233   2.858   3.022
 2183SOL    HW2 2042   3.119   2.961   3.078
 2184SOL     OW 2043   3.164   2.717   2.171
 2184SOL    HW1 2044   3.078   2.686   2.213
 2184SOL    HW2 2045   3.160   2.703   2.072
 2186SOL     OW 2046   3.114   3.593   2.990
 2186SOL    HW1 2047   3.198   3.598   2.936
 2186SOL    HW2 2048   3.091   3.497   3.008
 2187SOL     OW 2049   1.945   3.120   2.884
 2187SOL    HW1 2050   1.940   3.119   2.984
 2187SOL    HW2 2051   1.862   3.079   2.846
 2188SOL     OW 2052   2.550   3.524   3.578
 2188SOL    HW1 2053   2.494   3.605   3.587
 2188SOL    HW2 2054   2.602   3.528   3.492
 2189SOL     OW 2055   3.588   1.997   2.385
 2189SOL    HW1 2056   3.661   1.980   2.318
 2189SOL    HW2 2057   3.557   1.910   2.423
 2190SOL     OW 2058   3.250   3.435   2.339
 2190SOL    HW1 2059   3.317   3.447   2.265
 2190SOL    HW2 2060   3.210   3.524   2.362
 2192SOL     OW 2061   3.142   2.789   2.534
 2192SOL    HW1 2062   3.202   2.708   2.536
 2192SOL    HW2 2063   3.182   2.858   2.474
 2193SOL     OW 2064   2.692   3.135   3.284
 2193SOL    HW1 2065   2.687   3.168   3.379
 2193SOL    HW2 2066   2.606   3.154   3.238
 2194SOL     OW 2067   2.534   3.478   2.016
 2194SOL    HW1 2068   2.543   3.488   1.917
 2194SOL    HW2 2069   2.494   3.389   2.037
 2196SOL     OW 2070   3.703   2.037   2.825
 2196SOL    HW1 2071   3.742   1.952   2.789
 2196SOL    HW2 2072   3.605   2.039   2.806
 2197SOL     OW 2073   3.056   3.474   1.893
 2197SOL    HW1 2074   3.062   3.381   1.930
 2197SOL    HW2 2075   2.997   3.474   1.813
 2198SOL     OW 2076   2.684   2.864   3.234
 2198SOL    HW1 2077   2.724   2.863   3.142
 2198SOL    HW2 2078   2.694   2.956   3.274
 2199SOL     OW 2079   2.778   2.772   2.153
 2199SOL    HW1 2080   2.841   2.810   2.085
 2199SOL    HW2 2081   2.818   2.689   2.192
 2200SOL     OW 2082   3.366   3.469   1.906
 2200SOL    HW1 2083   3.274   3.506   1.913
 2200SOL    HW2 2084   3.404   3.489   1.816
 2201SOL     OW 2085   2.234   3.150   3.352
 2201SOL    HW1 2086   2.221   3.243   3.318
 2201SOL    HW2 2087   2.150   3.098   3.339
 2202SOL     OW 2088   3.476   3.154   3.151
 2202SOL    HW1 2089   3.536   3.157   3.231
 2202SOL    HW2 2090   3.401   3.218   3.164
 2203SOL     OW 2091   2.901   2.960   2.558
 2203SOL    HW1 2092   2.831   2.913   2.612
 2203SOL    HW2 2093   2.960   2.892   2.515
 2204SOL     OW 2094   2.876   2.098   2.833
 2204SOL    HW1 2095   2.868   2.062   2.740
 2204SOL    HW2 2096   2.874   2.022   2.898
 2205SOL     OW 2097   2.452   3.349   2.353
 2205SOL    HW1 2098   2.494   3.291   2.283
 2205SOL    HW2 2099   2.408   3.428   2.309
 2206SOL     OW 2100   3.571   2.247   3.243
 2206SOL    HW1 2101   3.644   2.316   3.247
 2206SOL    HW2 2102   3.599   2.172   3.184
 2207SOL     OW 2103   2.117   3.210   2.152
 2207SOL    HW1 2104   2.021   3.211   2.125
 2207SOL    HW2 2105   2.129   3.263   2.236
 2208SOL     OW 2106   1.967   2.875   3.588
 2208SOL    HW1 2107   1.890   2.842   3.642
 2208SOL    HW2 2108   2.052   2.845   3.630
 2209SOL     OW 2109   2.534   2.065   3.351
 2209SOL    HW1 2110   2.624   2.049   3.311
 2209SOL    HW2 2111   2.542   2.070   3.450
 2210SOL     OW 2112   1.937   2.207   1.895
 2210SOL    HW1 2113   1.845   2.179   1.866
 2210SOL    HW2 2114   1.968   2.284   1.839
 2211SOL     OW 2115   3.302   2.718   3.260
 2211SOL    HW1 2116   3.245   2.770   3.197
 2211SOL    HW2 2117   3.398   2.730   3.236
 2212SOL     OW 2118   1.934   2.028   2.180
 2212SOL    HW1 2119   1.917   2.111   2.126
 2212SOL    HW2 2120   2.024   1.991   2.158
 2213SOL     OW 2121   3.045   3.197   1.981
 2213SOL    HW1 2122   2.946   3.186   1.983
 2213SOL    HW2 2123   3.079   3.212   2.074
 2214SOL     OW 2124   2.475   2.704   3.293
 2214SOL    HW1 2125   2.531   2.785   3.276
 2214SOL    HW2 2126   2.534   2.624   3.296
 2215SOL     OW 2127   3.355   3.629   2.821
 2215SOL    HW1 2128   3.388   3.693   2.752
 2215SOL    HW2 2129   3.421   3.623   2.896
 2216SOL     OW 2130   2.578   2.427   3.570
 2216SOL    HW1 2131   2.597   2.492   3.644
 2216SOL    HW2 2132   2.638   2.347   3.579
 2217SOL     OW 2133   3.312   3.082   3.495
 2217SOL    HW1 2134   3.303   3.072   3.594
 2217SOL    HW2 2135   3.408   3.075   3.469
 2218SOL     OW 2136   2.252   3.603   3.422
 2218SOL    HW1 2137   2.161   3.644   3.420
 2218SOL    HW2 2138   2.245   3.509   3.454
 2219SOL     OW 2139   3.536   2.745   3.116
 2219SOL    HW1 2140   3.509   2.656   3.079
 2219SOL    HW2 2141   3.537   2.813   3.043
 2220SOL     OW 2142   3.087   2.187   2.311
 2220SOL    HW1 2143   3.152   2.113   2.300
 2220SOL    HW2 2144   3.107   2.237   2.395
 2221SOL     OW 2145   2.456   2.607   2.514
 2221SOL    HW1 2146   2.506   2.692   2.495
 2221SOL    HW2 2147   2.368   2.609   2.466
 2222SOL     OW 2148   3.639   2.204   3.504
 2222SOL    HW1 2149   3.622   2.235   3.410
 2222SOL    HW2 2150   3.555   2.167   3.542
 2223SOL     OW 2151   3.592   2.796   3.379
 2223SOL    HW1 2152   3.630   2.887   3.394
 2223SOL    HW2 2153   3.584   2.779   3.280
 2224SOL     OW 2154   2.721   3.236   1.878
 2224SOL    HW1 2155   2.675   3.251   1.966
 2224SOL    HW2 2156   2.765   3.321   1.848
 2225SOL     OW 2157   2.523   3.652   2.815
 2225SOL    HW1 2158   2.477   3.740   2.802
 2225SOL    HW2 2159   2.622   3.664   2.808
 2226SOL     OW 2160   2.721   2.818   2.723
 2226SOL    HW1 2161   2.775   2.749   2.771
 2226SOL    HW2 2162   2.689   2.887   2.789
 2227SOL     OW 2163   2.945   2.846   1.949
 2227SOL    HW1 2164   2.922   2.899   1.867
 2227SOL    HW2 2165   3.026   2.790   1.930
 2229SOL     OW 2166   2.083   3.176   3.706
 2229SOL    HW1 2167   2.018   3.103   3.685
 2229SOL    HW2 2168   2.087   3.190   3.804
 2230SOL     OW 2169   1.941   3.102   2.515
 2230SOL    HW1 2170   1.940   3.055   2.603
 2230SOL    HW2 2171   2.023   3.074   2.464
 2231SOL     OW 2172   2.534   3.253   3.486
 2231SOL    HW1 2173   2.456   3.203   3.524
 2231SOL    HW2 2174   2.531   3.348   3.517
 2232SOL     OW 2175   3.686   2.054   3.089
 2232SOL    HW1 2176   3.682   1.964   3.133
 2232SOL    HW2 2177   3.689   2.043   2.990
 2233SOL     OW 2178   3.567   3.349   2.966
 2233SOL    HW1 2179   3.474   3.324   2.939
 2233SOL    HW2 2180   3.593   3.299   3.048
 2234SOL     OW 2181   2.179   2.409   3.142
 2234SOL    HW1 2182   2.217   2.350   3.214
 2234SOL    HW2 2183   2.219   2.383   3.054
 2235SOL     OW 2184   2.674   3.448   2.549
 2235SOL    HW1 2185   2.706   3.458   2.455
 2235SOL    HW2 2186   2.595   3.386   2.551
 2236SOL     OW 2187   3.286   2.076   2.974
 2236SOL    HW1 2188   3.338   2.011   3.029
 2236SOL    HW2 2189   3.237   2.139   3.035
 2237SOL     OW 2190   2.863   1.896   3.016
 2237SOL    HW1 2191   2.800   1.824   2.985
 2237SOL    HW2 2192   2.956   1.860   3.016
 2238SOL     OW 2193   2.632   3.192   2.163
 2238SOL    HW1 2194   2.586   3.105   2.180
 2238SOL    HW2 2195   2.723   3.189   2.204
 2239SOL     OW 2196   2.480   3.429   3.146
 2239SOL    HW1 2197   2.475   3.511   3.203
 2239SOL    HW2 2198   2.569   3.426   3.101
 2240SOL     OW 2199   3.214   1.914   2.030
 2240SOL    HW1 2200   3.249   1.873   1.946
 2240SOL    HW2 2201   3.124   1.876   2.050
 2241SOL     OW 2202   3.162   2.315   2.553
 2241SOL    HW1 2203   3.103   2.395   2.557
 2241SOL    HW2 2204   3.177   2.280   2.646
 2242SOL     OW 2205   3.455   2.083   2.744
 2242SOL    HW1 2206   3.371   2.082   2.798
 2242SOL    HW2 2207   3.457   2.166   2.688
 2243SOL     OW 2208   1.901   2.939   2.162
 2243SOL    HW1 2209   2.000   2.928   2.153
 2243SOL    HW2 2210   1.861   2.853   2.194
 2244SOL     OW 2211   2.737   3.508   2.199
 2244SOL    HW1 2212   2.660   3.473   2.145
 2244SOL    HW2 2213   2.705   3.579   2.261
 2245SOL     OW 2214   2.092   2.490   3.837
 2245SOL    HW1 2215   1.999   2.488   3.874
 2245SOL    HW2 2216   2.093   2.451   3.745
 2257SOL     OW 2217   2.468   2.826   3.847
 2257SOL    HW1 2218   2.475   2.910   3.793
 2257SOL    HW2 2219   2.514   2.839   3.935
 2267SOL     OW 2220   2.460   2.591   3.994
 2267SOL    HW1 2221   2.484   2.660   3.926
 2267SOL    HW2 2222   2.382   2.624   4.048
 2272SOL     OW 2223   2.727   2.210   3.919
 2272SOL    HW1 2224   2.786   2.273   3.870
 2272SOL    HW2 2225   2.746   2.116   3.890
 2278SOL     OW 2226   2.183   2.805   3.966
 2278SOL    HW1 2227   2.265   2.844   3.924
 2278SOL    HW2 2228   2.156   2.723   3.917
 2285SOL     OW 2229   2.476   1.984   3.841
 2285SOL    HW1 2230   2.574   1.962   3.848
 2285SOL    HW2 2231   2.445   1.967   3.748
 2288SOL     OW 2232   2.159   1.897   3.895
 2288SOL    HW1 2233   2.208   1.981   3.874
 2288SOL    HW2 2234   2.221   1.832   3.940
 2292SOL     OW 2235   2.894   2.411   3.740
 2292SOL    HW1 2236   2.853   2.493   3.701
 2292SOL    HW2 2237   2.958   2.437   3.813
 2298SOL     OW 2238   3.252   2.437   3.802
 2298SOL    HW1 2239   3.198   2.416   3.883
 2298SOL    HW2 2240   3.343   2.396   3.811
 2299SOL     OW 2241   2.389   2.118   4.052
 2299SOL    HW1 2242   2.416   2.059   3.977
 2299SOL    HW2 2243   2.389   2.213   4.021
 2309SOL     OW 2244   3.165   2.700   3.766
 2309SOL    HW1 2245   3.199   2.607   3.781
 2309SOL    HW2 2246   3.183   2.727   3.671
 2313SOL     OW 2247   2.677   2.434   4.049
 2313SOL    HW1 2248   2.684   2.345   4.003
 2313SOL    HW2 2249   2.583   2.468   4.041
 2314SOL     OW 2250   2.335   2.362   3.915
 2314SOL    HW1 2251   2.396   2.442   3.919
 2314SOL    HW2 2252   2.240   2.393   3.922
 2328SOL     OW 2253   1.937   2.207   3.757
 2328SOL    HW1 2254   1.845   2.179   3.728
 2328SOL    HW2 2255   1.968   2.284   3.701
 2329SOL     OW 2256   1.934   2.028   4.042
 2329SOL    HW1 2257   1.917   2.111   3.988
 2329SOL    HW2 2258   2.024   1.991   4.020
 2333SOL     OW 2259   2.721   3.236   3.740
 2333SOL    HW1 2260   2.675   3.251   3.828
 2333SOL    HW2 2261   2.765   3.321   3.710
 2336SOL     OW 2262   2.945   2.846   3.811
 2336SOL    HW1 2263   2.922   2.899   3.729
 2336SOL    HW2 2264   3.026   2.790   3.792
 2359SOL     OW 2265   2.179   3.975   1.801
 2359SOL    HW1 2266   2.250   4.046   1.807
 2359SOL    HW2 2267   2.091   4.014   1.829
 2375SOL     OW 2268   2.643   3.988   1.749
 2375SOL    HW1 2269   2.710   3.927   1.792
 2375SOL    HW2 2270   2.570   4.007   1.814
 2400SOL     OW 2271   2.875   3.829   1.770
 2400SOL    HW1 2272   2.881   3.914   1.718
 2400SOL    HW2 2273   2.907   3.753   1.713
 2401SOL     OW 2274   2.366   3.774   1.740
 2401SOL    HW1 2275   2.324   3.717   1.670
 2401SOL    HW2 2276   2.300   3.843   1.772
 2448SOL     OW 2277   2.087   3.999   2.858
 2448SOL    HW1 2278   2.122   3.982   2.950
 2448SOL    HW2 2279   1.999   3.954   2.846
 2459SOL     OW 2280   2.671   3.728   2.364
 2459SOL    HW1 2281   2.711   3.819   2.355
 2459SOL    HW2 2282   2.571   3.736   2.370
 2470SOL     OW 2283   2.412   3.920   2.747
 2470SOL    HW1 2284   2.407   3.915   2.847
 2470SOL    HW2 2285   2.414   4.016   2.718
 2473SOL     OW 2286   3.262   3.831   2.288
 2473SOL    HW1 2287   3.238   3.794   2.198
 2473SOL    HW2 2288   3.361   3.847   2.292
 2476SOL     OW 2289   2.476   3.846   1.979
 2476SOL    HW1 2290   2.574   3.824   1.986
 2476SOL    HW2 2291   2.445   3.829   1.886
 2480SOL     OW 2292   2.401   3.788   2.374
 2480SOL    HW1 2293   2.320   3.789   2.432
 2480SOL    HW2 2294   2.404   3.871   2.319
 2481SOL     OW 2295   2.159   3.759   2.033
 2481SOL    HW1 2296   2.208   3.843   2.012
 2481SOL    HW2 2297   2.221   3.694   2.078
 2482SOL     OW 2298   2.797   3.960   2.342
 2482SOL    HW1 2299   2.749   4.001   2.264
 2482SOL    HW2 2300   2.896   3.958   2.323
 2487SOL     OW 2301   2.423   3.946   3.009
 2487SOL    HW1 2302   2.461   3.862   3.046
 2487SOL    HW2 2303   2.335   3.965   3.053
 2489SOL     OW 2304   2.879   3.763   2.615
 2489SOL    HW1 2305   2.807   3.768   2.546
 2489SOL    HW2 2306   2.855   3.694   2.684
 2493SOL     OW 2307   2.389   3.980   2.190
 2493SOL    HW1 2308   2.416   3.921   2.115
 2493SOL    HW2 2309   2.389   4.075   2.159
 2510SOL     OW 2310   2.169   3.787   2.480
 2510SOL    HW1 2311   2.158   3.881   2.513
 2510SOL    HW2 2312   2.164   3.724   2.557
 2527SOL     OW 2313   2.125   4.050   2.582
 2527SOL    HW1 2314   2.046   4.101   2.548
 2527SOL    HW2 2315   2.116   4.035   2.680
 2535SOL     OW 2316   1.934   3.890   2.180
 2535SOL    HW1 2317   1.917   3.973   2.126
 2535SOL    HW2 2318   2.024   3.853   2.158
 2546SOL     OW 2319   2.863   3.758   3.016
 2546SOL    HW1 2320   2.800   3.686   2.985
 2546SOL    HW2 2321   2.956   3.722   3.016
 2547SOL     OW 2322   3.214   3.776   2.030
 2547SOL    HW1 2323   3.249   3.735   1.946
 2547SOL    HW2 2324   3.124   3.738   2.050
 2625SOL     OW 2325   3.854   1.821   1.571
 2625SOL    HW1 2326   3.844   1.806   1.670
 2625SOL    HW2 2327   3.768   1.857   1.535
 2676SOL     OW 2328   3.854   1.794   1.851
 2676SOL    HW1 2329   3.813   1.720   1.904
 2676SOL    HW2 2330   3.918   1.845   1.909
 2711SOL     OW 2331   3.955   1.713   2.345
 2711SOL    HW1 2332   3.989   1.790   2.399
 2711SOL    HW2 2333   3.999   1.713   2.255
 2717SOL     OW 2334   3.751   1.596   1.979
 2717SOL    HW1 2335   3.732   1.500   2.000
 2717SOL    HW2 2336   3.718   1.654   2.054
 2764SOL     OW 2337   3.732   1.326   2.062
 2764SOL    HW1 2338   3.639   1.347   2.031
 2764SOL    HW2 2339   3.742   1.227   2.075
 2765SOL     OW 2340   3.812   1.801   2.789
 2765SOL    HW1 2341   3.770   1.715   2.762
 2765SOL    HW2 2342   3.906   1.804   2.755
 2863SOL     OW 2343   3.837   2.599   1.597
 2863SOL    HW1 2344   3.925   2.586   1.642
 2863SOL    HW2 2345   3.824   2.696   1.575
 2886SOL     OW 2346   3.802   2.418   1.386
 2886SOL    HW1 2347   3.894   2.417   1.345
 2886SOL    HW2 2348   3.796   2.492   1.453
 2912SOL     OW 2349   3.913   2.382   1.722
 2912SOL    HW1 2350   3.972   2.342   1.652
 2912SOL    HW2 2351   3.855   2.453   1.681
 2930SOL     OW 2352   3.829   2.875   1.726
 2930SOL    HW1 2353   3.752   2.842   1.780
 2930SOL    HW2 2354   3.914   2.845   1.768
 2946SOL     OW 2355   3.954   2.490   1.975
 2946SOL    HW1 2356   3.861   2.488   2.012
 2946SOL    HW2 2357   3.955   2.451   1.883
 2947SOL     OW 2358   3.949   2.137   2.858
 2947SOL    HW1 2359   3.984   2.120   2.950
 2947SOL    HW2 2360   3.861   2.092   2.846
 2948SOL     OW 2361   3.743   2.230   2.509
 2948SOL    HW1 2362   3.661   2.273   2.548
 2948SOL    HW2 2363   3.715   2.157   2.446
 2960SOL     OW 2364   3.846   2.505   2.425
 2960SOL    HW1 2365   3.801   2.417   2.442
 2960SOL    HW2 2366   3.845   2.559   2.509
 2969SOL     OW 2367   3.800   2.673   2.651
 2969SOL    HW1 2368   3.899   2.661   2.660
 2969SOL    HW2 2369   3.776   2.768   2.672
 2984SOL     OW 2370   4.021   1.897   2.033
 2984SOL    HW1 2371   4.070   1.981   2.012
 2984SOL    HW2 2372   4.083   1.832   2.078
 2986SOL     OW 2373   3.802   2.418   3.248
 2986SOL    HW1 2374   3.894   2.417   3.207
 2986SOL    HW2 2375   3.796   2.492   3.315
 3002SOL     OW 2376   4.031   1.925   2.480
 3002SOL    HW1 2377   4.020   2.019   2.513
 3002SOL    HW2 2378   4.026   1.862   2.557
 3008SOL     OW 2379   3.732   3.188   2.062
 3008SOL    HW1 2380   3.639   3.209   2.031
 3008SOL    HW2 2381   3.742   3.089   2.075
 3011SOL     OW 2382   3.764   2.406   2.976
 3011SOL    HW1 2383   3.849   2.373   2.935
 3011SOL    HW2 2384   3.777   2.421   3.074
 3018SOL     OW 2385   3.807   3.120   2.884
 3018SOL    HW1 2386   3.802   3.119   2.984
 3018SOL    HW2 2387   3.724   3.079   2.846
 3024SOL     OW 2388   3.987   2.188   2.582
 3024SOL    HW1 2389   3.908   2.239   2.548
 3024SOL    HW2 2390   3.978   2.173   2.680
 3031SOL     OW 2391   3.799   2.207   1.895
 3031SOL    HW1 2392   3.707   2.179   1.866
 3031SOL    HW2 2393   3.830   2.284   1.839
 3032SOL     OW 2394   3.796   2.028   2.180
 3032SOL    HW1 2395   3.779   2.111   2.126
 3032SOL    HW2 2396   3.886   1.991   2.158
 3039SOL     OW 2397   3.803   3.102   2.515
 3039SOL    HW1 2398   3.802   3.055   2.603
 3039SOL    HW2 2399   3.885   3.074   2.464
 3045SOL     OW 2400   3.763   2.939   2.162
 3045SOL    HW1 2401   3.862   2.928   2.153
 3045SOL    HW2 2402   3.723   2.853   2.194
   4.63444   4.63444   4.63444
