mobley_6632459_GMX.gro created by acpype (v: 2023.10.27) on Tue May 19 12:56:56 2026
 2392
    1MOL     C1    1   2.113   2.138   2.168
    1MOL     C2    2   2.310   2.289   2.213
    1MOL     C3    3   2.201   2.202   2.273
    1MOL     O1    4   2.127   2.151   2.047
    1MOL     H1    5   2.030   2.076   2.208
    1MOL     H2    6   2.267   2.370   2.153
    1MOL     H3    7   2.375   2.230   2.147
    1MOL     H4    8   2.371   2.333   2.292
    1MOL     H5    9   2.246   2.122   2.332
    1MOL     H6   10   2.137   2.262   2.338
    6SOL     OW   11   1.555   1.511   0.703
    6SOL    HW1   12   1.498   1.495   0.784
    6SOL    HW2   13   1.496   1.521   0.623
   14SOL     OW   14   1.460   1.505   1.339
   14SOL    HW1   15   1.484   1.599   1.365
   14SOL    HW2   16   1.444   1.451   1.421
   18SOL     OW   17   1.127   1.341   1.690
   18SOL    HW1   18   1.174   1.341   1.778
   18SOL    HW2   19   1.079   1.254   1.679
   31SOL     OW   20   1.293   1.228   1.423
   31SOL    HW1   21   1.330   1.155   1.365
   31SOL    HW2   22   1.345   1.233   1.508
   35SOL     OW   23   1.187   1.792   1.616
   35SOL    HW1   24   1.211   1.852   1.540
   35SOL    HW2   25   1.194   1.697   1.586
   37SOL     OW   26   1.466   1.417   0.953
   37SOL    HW1   27   1.407   1.423   1.033
   37SOL    HW2   28   1.451   1.329   0.907
   50SOL     OW   29   1.719   0.585   1.831
   50SOL    HW1   30   1.693   0.674   1.795
   50SOL    HW2   31   1.717   0.517   1.758
   56SOL     OW   32   1.227   1.550   1.506
   56SOL    HW1   33   1.233   1.473   1.570
   56SOL    HW2   34   1.175   1.524   1.426
   95SOL     OW   35   1.754   1.223   1.588
   95SOL    HW1   36   1.845   1.184   1.575
   95SOL    HW2   37   1.762   1.319   1.612
   96SOL     OW   38   1.064   1.347   1.340
   96SOL    HW1   39   0.984   1.324   1.395
   96SOL    HW2   40   1.147   1.321   1.389
   97SOL     OW   41   1.592   1.629   1.625
   97SOL    HW1   42   1.619   1.663   1.535
   97SOL    HW2   43   1.671   1.591   1.671
   99SOL     OW   44   1.638   1.099   1.079
   99SOL    HW1   45   1.643   1.180   1.138
   99SOL    HW2   46   1.552   1.101   1.028
  101SOL     OW   47   0.980   1.116   1.719
  101SOL    HW1   48   0.881   1.122   1.729
  101SOL    HW2   49   1.003   1.036   1.663
  109SOL     OW   50   1.272   1.445   1.142
  109SOL    HW1   51   1.319   1.458   1.229
  109SOL    HW2   52   1.206   1.371   1.151
  113SOL     OW   53   1.587   0.779   1.670
  113SOL    HW1   54   1.495   0.817   1.665
  113SOL    HW2   55   1.647   0.826   1.605
  122SOL     OW   56   1.728   0.935   1.854
  122SOL    HW1   57   1.682   0.928   1.765
  122SOL    HW2   58   1.666   0.979   1.920
  126SOL     OW   59   0.980   1.573   1.700
  126SOL    HW1   60   0.960   1.617   1.612
  126SOL    HW2   61   1.019   1.482   1.684
  127SOL     OW   62   1.859   1.518   1.605
  127SOL    HW1   63   1.873   1.545   1.510
  127SOL    HW2   64   1.942   1.540   1.658
  142SOL     OW   65   1.369   0.950   1.660
  142SOL    HW1   66   1.408   1.039   1.680
  142SOL    HW2   67   1.379   0.930   1.563
  147SOL     OW   68   0.930   1.678   1.465
  147SOL    HW1   69   0.906   1.660   1.370
  147SOL    HW2   70   0.960   1.772   1.475
  150SOL     OW   71   1.347   1.059   1.234
  150SOL    HW1   72   1.371   0.996   1.160
  150SOL    HW2   73   1.257   1.099   1.216
  152SOL     OW   74   1.759   1.747   1.154
  152SOL    HW1   75   1.820   1.777   1.081
  152SOL    HW2   76   1.721   1.658   1.132
  153SOL     OW   77   1.252   1.731   1.128
  153SOL    HW1   78   1.336   1.736   1.074
  153SOL    HW2   79   1.229   1.635   1.146
  155SOL     OW   80   0.688   1.662   1.716
  155SOL    HW1   81   0.632   1.743   1.725
  155SOL    HW2   82   0.740   1.666   1.630
  163SOL     OW   83   1.650   1.720   1.394
  163SOL    HW1   84   1.703   1.730   1.310
  163SOL    HW2   85   1.623   1.810   1.428
  171SOL     OW   86   1.614   1.292   1.289
  171SOL    HW1   87   1.674   1.295   1.369
  171SOL    HW2   88   1.539   1.356   1.302
  180SOL     OW   89   1.440   0.856   1.398
  180SOL    HW1   90   1.383   0.908   1.335
  180SOL    HW2   91   1.536   0.868   1.374
  184SOL     OW   92   1.493   1.767   0.959
  184SOL    HW1   93   1.526   1.831   0.890
  184SOL    HW2   94   1.559   1.761   1.034
  186SOL     OW   95   1.450   1.220   1.633
  186SOL    HW1   96   1.441   1.210   1.732
  186SOL    HW2   97   1.546   1.213   1.607
  188SOL     OW   98   1.674   0.883   1.254
  188SOL    HW1   99   1.647   0.794   1.217
  188SOL    HW2  100   1.675   0.951   1.181
  192SOL     OW  101   1.730   0.934   1.517
  192SOL    HW1  102   1.768   1.025   1.532
  192SOL    HW2  103   1.722   0.917   1.418
  197SOL     OW  104   1.861   1.569   0.851
  197SOL    HW1  105   1.790   1.557   0.781
  197SOL    HW2  106   1.862   1.490   0.911
  203SOL     OW  107   1.705   1.487   1.104
  203SOL    HW1  108   1.612   1.462   1.077
  203SOL    HW2  109   1.731   1.437   1.186
  219SOL     OW  110   1.555   1.511   2.565
  219SOL    HW1  111   1.498   1.495   2.646
  219SOL    HW2  112   1.496   1.521   2.485
  221SOL     OW  113   1.755   0.607   2.093
  221SOL    HW1  114   1.743   0.594   1.994
  221SOL    HW2  115   1.725   0.526   2.142
  227SOL     OW  116   1.460   1.505   3.201
  227SOL    HW1  117   1.484   1.599   3.227
  227SOL    HW2  118   1.444   1.451   3.283
  238SOL     OW  119   1.842   1.767   2.221
  238SOL    HW1  120   1.896   1.738   2.301
  238SOL    HW2  121   1.872   1.857   2.192
  240SOL     OW  122   1.689   0.922   2.474
  240SOL    HW1  123   1.784   0.893   2.482
  240SOL    HW2  124   1.681   0.987   2.399
  241SOL     OW  125   1.641   1.108   2.294
  241SOL    HW1  126   1.727   1.110   2.242
  241SOL    HW2  127   1.655   1.155   2.382
  244SOL     OW  128   1.293   1.228   3.285
  244SOL    HW1  129   1.330   1.155   3.227
  244SOL    HW2  130   1.345   1.233   3.370
  247SOL     OW  131   1.525   0.999   2.052
  247SOL    HW1  132   1.462   0.923   2.065
  247SOL    HW2  133   1.573   1.017   2.138
  248SOL     OW  134   1.187   1.792   3.478
  248SOL    HW1  135   1.211   1.852   3.402
  248SOL    HW2  136   1.194   1.697   3.448
  250SOL     OW  137   1.466   1.417   2.815
  250SOL    HW1  138   1.407   1.423   2.895
  250SOL    HW2  139   1.451   1.329   2.769
  251SOL     OW  140   1.667   1.714   2.434
  251SOL    HW1  141   1.626   1.691   2.346
  251SOL    HW2  142   1.649   1.640   2.499
  254SOL     OW  143   1.576   1.662   2.169
  254SOL    HW1  144   1.665   1.708   2.172
  254SOL    HW2  145   1.555   1.638   2.074
  264SOL     OW  146   1.362   1.144   2.407
  264SOL    HW1  147   1.445   1.115   2.359
  264SOL    HW2  148   1.313   1.211   2.351
  266SOL     OW  149   1.008   1.456   2.339
  266SOL    HW1  150   0.962   1.528   2.287
  266SOL    HW2  151   1.004   1.476   2.437
  268SOL     OW  152   1.795   1.066   2.735
  268SOL    HW1  153   1.733   1.051   2.659
  268SOL    HW2  154   1.743   1.077   2.820
  269SOL     OW  155   1.227   1.550   3.368
  269SOL    HW1  156   1.233   1.473   3.432
  269SOL    HW2  157   1.175   1.524   3.288
  271SOL     OW  158   1.458   0.735   2.590
  271SOL    HW1  159   1.453   0.670   2.665
  271SOL    HW2  160   1.538   0.794   2.603
  273SOL     OW  161   1.111   1.776   2.099
  273SOL    HW1  162   1.051   1.714   2.149
  273SOL    HW2  163   1.142   1.732   2.014
  275SOL     OW  164   1.632   1.377   1.943
  275SOL    HW1  165   1.600   1.471   1.933
  275SOL    HW2  166   1.556   1.314   1.931
  279SOL     OW  167   0.940   1.698   2.766
  279SOL    HW1  168   1.020   1.641   2.787
  279SOL    HW2  169   0.891   1.658   2.689
  284SOL     OW  170   0.888   1.514   3.057
  284SOL    HW1  171   0.865   1.489   2.963
  284SOL    HW2  172   0.949   1.445   3.096
  286SOL     OW  173   0.803   1.402   2.786
  286SOL    HW1  174   0.893   1.416   2.744
  286SOL    HW2  175   0.732   1.404   2.715
  289SOL     OW  176   1.434   1.188   1.903
  289SOL    HW1  177   1.466   1.112   1.960
  289SOL    HW2  178   1.342   1.215   1.933
  293SOL     OW  179   1.227   1.570   2.655
  293SOL    HW1  180   1.248   1.644   2.590
  293SOL    HW2  181   1.295   1.570   2.728
  295SOL     OW  182   1.271   1.797   2.453
  295SOL    HW1  183   1.315   1.861   2.389
  295SOL    HW2  184   1.221   1.849   2.523
  301SOL     OW  185   1.429   1.173   2.729
  301SOL    HW1  186   1.374   1.089   2.722
  301SOL    HW2  187   1.455   1.202   2.637
  303SOL     OW  188   1.857   0.833   2.239
  303SOL    HW1  189   1.899   0.769   2.303
  303SOL    HW2  190   1.819   0.782   2.161
  305SOL     OW  191   1.664   1.280   2.519
  305SOL    HW1  192   1.763   1.288   2.533
  305SOL    HW2  193   1.619   1.364   2.550
  308SOL     OW  194   1.754   1.223   3.450
  308SOL    HW1  195   1.845   1.184   3.437
  308SOL    HW2  196   1.762   1.319   3.474
  309SOL     OW  197   1.064   1.347   3.202
  309SOL    HW1  198   0.984   1.324   3.257
  309SOL    HW2  199   1.147   1.321   3.251
  310SOL     OW  200   1.592   1.629   3.487
  310SOL    HW1  201   1.619   1.663   3.397
  310SOL    HW2  202   1.671   1.591   3.533
  311SOL     OW  203   1.111   1.195   2.962
  311SOL    HW1  204   1.071   1.239   3.043
  311SOL    HW2  205   1.070   1.232   2.879
  312SOL     OW  206   1.638   1.099   2.941
  312SOL    HW1  207   1.643   1.180   3.000
  312SOL    HW2  208   1.552   1.101   2.890
  321SOL     OW  209   1.252   1.348   2.250
  321SOL    HW1  210   1.302   1.425   2.290
  321SOL    HW2  211   1.157   1.350   2.282
  322SOL     OW  212   1.272   1.445   3.004
  322SOL    HW1  213   1.319   1.458   3.091
  322SOL    HW2  214   1.206   1.371   3.013
  323SOL     OW  215   1.582   0.639   2.334
  323SOL    HW1  216   1.551   0.700   2.407
  323SOL    HW2  217   1.632   0.691   2.265
  330SOL     OW  218   1.360   0.862   2.907
  330SOL    HW1  219   1.285   0.862   2.841
  330SOL    HW2  220   1.397   0.770   2.916
  340SOL     OW  221   1.859   1.518   3.467
  340SOL    HW1  222   1.873   1.545   3.372
  340SOL    HW2  223   1.942   1.540   3.520
  343SOL     OW  224   1.303   0.838   1.904
  343SOL    HW1  225   1.337   0.745   1.919
  343SOL    HW2  226   1.321   0.865   1.809
  344SOL     OW  227   1.068   1.333   2.711
  344SOL    HW1  228   1.075   1.249   2.656
  344SOL    HW2  229   1.130   1.402   2.675
  360SOL     OW  230   0.930   1.678   3.327
  360SOL    HW1  231   0.906   1.660   3.232
  360SOL    HW2  232   0.960   1.772   3.337
  363SOL     OW  233   1.347   1.059   3.096
  363SOL    HW1  234   1.371   0.996   3.022
  363SOL    HW2  235   1.257   1.099   3.078
  364SOL     OW  236   1.302   0.855   2.171
  364SOL    HW1  237   1.216   0.824   2.213
  364SOL    HW2  238   1.298   0.841   2.072
  365SOL     OW  239   1.759   1.747   3.016
  365SOL    HW1  240   1.820   1.777   2.943
  365SOL    HW2  241   1.721   1.658   2.994
  366SOL     OW  242   1.252   1.731   2.990
  366SOL    HW1  243   1.336   1.736   2.936
  366SOL    HW2  244   1.229   1.635   3.008
  370SOL     OW  245   1.388   1.573   2.339
  370SOL    HW1  246   1.455   1.585   2.265
  370SOL    HW2  247   1.348   1.662   2.362
  372SOL     OW  248   1.280   0.927   2.534
  372SOL    HW1  249   1.340   0.846   2.536
  372SOL    HW2  250   1.320   0.996   2.474
  374SOL     OW  251   0.672   1.616   2.016
  374SOL    HW1  252   0.681   1.626   1.917
  374SOL    HW2  253   0.632   1.527   2.037
  375SOL     OW  254   1.650   1.720   3.256
  375SOL    HW1  255   1.703   1.730   3.172
  375SOL    HW2  256   1.623   1.810   3.290
  378SOL     OW  257   1.194   1.612   1.893
  378SOL    HW1  258   1.200   1.519   1.930
  378SOL    HW2  259   1.135   1.612   1.813
  381SOL     OW  260   1.504   1.607   1.906
  381SOL    HW1  261   1.412   1.644   1.913
  381SOL    HW2  262   1.542   1.627   1.816
  383SOL     OW  263   1.614   1.292   3.151
  383SOL    HW1  264   1.674   1.295   3.231
  383SOL    HW2  265   1.539   1.356   3.164
  384SOL     OW  266   1.039   1.098   2.558
  384SOL    HW1  267   0.969   1.051   2.612
  384SOL    HW2  268   1.098   1.030   2.515
  386SOL     OW  269   0.590   1.487   2.353
  386SOL    HW1  270   0.632   1.429   2.283
  386SOL    HW2  271   0.546   1.566   2.309
  394SOL     OW  272   1.183   1.335   1.981
  394SOL    HW1  273   1.084   1.324   1.983
  394SOL    HW2  274   1.217   1.350   2.074
  396SOL     OW  275   1.493   1.767   2.821
  396SOL    HW1  276   1.526   1.831   2.752
  396SOL    HW2  277   1.559   1.761   2.896
  398SOL     OW  278   1.450   1.220   3.495
  398SOL    HW1  279   1.441   1.210   3.594
  398SOL    HW2  280   1.546   1.213   3.469
  400SOL     OW  281   1.674   0.883   3.116
  400SOL    HW1  282   1.647   0.794   3.079
  400SOL    HW2  283   1.675   0.951   3.043
  404SOL     OW  284   1.730   0.934   3.379
  404SOL    HW1  285   1.768   1.025   3.394
  404SOL    HW2  286   1.722   0.917   3.280
  405SOL     OW  287   0.859   1.374   1.878
  405SOL    HW1  288   0.813   1.389   1.966
  405SOL    HW2  289   0.903   1.459   1.848
  406SOL     OW  290   0.661   1.790   2.815
  406SOL    HW1  291   0.615   1.878   2.802
  406SOL    HW2  292   0.760   1.802   2.808
  408SOL     OW  293   1.083   0.984   1.949
  408SOL    HW1  294   1.060   1.037   1.867
  408SOL    HW2  295   1.164   0.928   1.930
  409SOL     OW  296   1.861   1.569   2.713
  409SOL    HW1  297   1.790   1.557   2.643
  409SOL    HW2  298   1.862   1.490   2.773
  415SOL     OW  299   1.705   1.487   2.966
  415SOL    HW1  300   1.612   1.462   2.939
  415SOL    HW2  301   1.731   1.437   3.048
  417SOL     OW  302   0.812   1.586   2.549
  417SOL    HW1  303   0.844   1.596   2.455
  417SOL    HW2  304   0.733   1.524   2.551
  420SOL     OW  305   0.770   1.330   2.163
  420SOL    HW1  306   0.724   1.243   2.180
  420SOL    HW2  307   0.861   1.327   2.204
  426SOL     OW  308   0.875   1.646   2.199
  426SOL    HW1  309   0.798   1.611   2.145
  426SOL    HW2  310   0.843   1.717   2.261
  514SOL     OW  311   0.850   2.660   1.823
  514SOL    HW1  312   0.846   2.736   1.888
  514SOL    HW2  313   0.872   2.696   1.732
  516SOL     OW  314   0.686   3.023   1.803
  516SOL    HW1  315   0.746   3.102   1.817
  516SOL    HW2  316   0.600   3.054   1.762
  518SOL     OW  317   1.460   3.367   1.339
  518SOL    HW1  318   1.484   3.461   1.365
  518SOL    HW2  319   1.444   3.313   1.421
  520SOL     OW  320   1.603   2.309   0.737
  520SOL    HW1  321   1.529   2.355   0.687
  520SOL    HW2  322   1.654   2.377   0.790
  522SOL     OW  323   1.127   3.203   1.690
  522SOL    HW1  324   1.174   3.203   1.778
  522SOL    HW2  325   1.079   3.116   1.679
  527SOL     OW  326   1.594   1.976   1.480
  527SOL    HW1  327   1.576   2.043   1.408
  527SOL    HW2  328   1.591   2.022   1.569
  531SOL     OW  329   1.689   2.784   0.612
  531SOL    HW1  330   1.784   2.755   0.620
  531SOL    HW2  331   1.681   2.849   0.537
  535SOL     OW  332   1.293   3.090   1.423
  535SOL    HW1  333   1.330   3.017   1.365
  535SOL    HW2  334   1.345   3.095   1.508
  544SOL     OW  335   1.281   2.207   0.944
  544SOL    HW1  336   1.195   2.157   0.931
  544SOL    HW2  337   1.343   2.153   1.000
  546SOL     OW  338   0.807   2.467   1.465
  546SOL    HW1  339   0.760   2.464   1.554
  546SOL    HW2  340   0.756   2.412   1.399
  547SOL     OW  341   1.394   2.331   1.674
  547SOL    HW1  342   1.374   2.374   1.762
  547SOL    HW2  343   1.472   2.269   1.683
  548SOL     OW  344   0.973   2.752   1.572
  548SOL    HW1  345   1.019   2.668   1.543
  548SOL    HW2  346   0.917   2.786   1.497
  549SOL     OW  347   0.991   2.272   1.242
  549SOL    HW1  348   0.914   2.306   1.296
  549SOL    HW2  349   0.957   2.221   1.163
  554SOL     OW  350   1.719   2.447   1.831
  554SOL    HW1  351   1.693   2.536   1.795
  554SOL    HW2  352   1.717   2.379   1.758
  559SOL     OW  353   1.795   2.928   0.873
  559SOL    HW1  354   1.733   2.913   0.797
  559SOL    HW2  355   1.743   2.939   0.958
  560SOL     OW  356   1.227   3.412   1.506
  560SOL    HW1  357   1.233   3.335   1.570
  560SOL    HW2  358   1.175   3.386   1.426
  562SOL     OW  359   1.458   2.597   0.728
  562SOL    HW1  360   1.453   2.532   0.803
  562SOL    HW2  361   1.538   2.656   0.741
  572SOL     OW  362   1.547   2.084   1.729
  572SOL    HW1  363   1.542   2.121   1.821
  572SOL    HW2  364   1.475   2.015   1.717
  574SOL     OW  365   0.781   2.126   1.749
  574SOL    HW1  366   0.848   2.065   1.792
  574SOL    HW2  367   0.708   2.145   1.814
  576SOL     OW  368   1.351   2.452   1.433
  576SOL    HW1  369   1.379   2.409   1.518
  576SOL    HW2  370   1.376   2.548   1.434
  582SOL     OW  371   1.076   2.545   1.464
  582SOL    HW1  372   0.996   2.484   1.467
  582SOL    HW2  373   1.157   2.492   1.440
  591SOL     OW  374   1.429   3.035   0.867
  591SOL    HW1  375   1.374   2.951   0.860
  591SOL    HW2  376   1.455   3.064   0.775
  592SOL     OW  377   1.466   2.452   0.992
  592SOL    HW1  378   1.436   2.357   0.999
  592SOL    HW2  379   1.539   2.468   1.058
  598SOL     OW  380   1.754   3.085   1.588
  598SOL    HW1  381   1.845   3.046   1.575
  598SOL    HW2  382   1.762   3.181   1.612
  599SOL     OW  383   1.064   3.209   1.340
  599SOL    HW1  384   0.984   3.186   1.395
  599SOL    HW2  385   1.147   3.183   1.389
  600SOL     OW  386   1.592   3.491   1.625
  600SOL    HW1  387   1.619   3.525   1.535
  600SOL    HW2  388   1.671   3.453   1.671
  601SOL     OW  389   1.111   3.057   1.100
  601SOL    HW1  390   1.071   3.101   1.181
  601SOL    HW2  391   1.070   3.094   1.017
  602SOL     OW  392   1.638   2.961   1.079
  602SOL    HW1  393   1.643   3.042   1.138
  602SOL    HW2  394   1.552   2.963   1.028
  603SOL     OW  395   0.915   1.951   1.402
  603SOL    HW1  396   0.940   1.931   1.307
  603SOL    HW2  397   0.987   2.007   1.444
  604SOL     OW  398   0.980   2.978   1.719
  604SOL    HW1  399   0.881   2.984   1.729
  604SOL    HW2  400   1.003   2.898   1.663
  607SOL     OW  401   1.274   2.248   1.262
  607SOL    HW1  402   1.295   2.322   1.326
  607SOL    HW2  403   1.185   2.265   1.219
  612SOL     OW  404   1.272   3.307   1.142
  612SOL    HW1  405   1.319   3.320   1.229
  612SOL    HW2  406   1.206   3.233   1.151
  616SOL     OW  407   1.587   2.641   1.670
  616SOL    HW1  408   1.495   2.679   1.665
  616SOL    HW2  409   1.647   2.688   1.605
  617SOL     OW  410   1.013   1.967   1.770
  617SOL    HW1  411   1.019   2.052   1.718
  617SOL    HW2  412   1.045   1.891   1.713
  620SOL     OW  413   1.360   2.724   1.045
  620SOL    HW1  414   1.285   2.724   0.979
  620SOL    HW2  415   1.397   2.632   1.054
  625SOL     OW  416   1.728   2.797   1.854
  625SOL    HW1  417   1.682   2.790   1.765
  625SOL    HW2  418   1.666   2.841   1.920
  628SOL     OW  419   1.023   2.628   0.966
  628SOL    HW1  420   1.038   2.649   1.062
  628SOL    HW2  421   0.993   2.533   0.957
  630SOL     OW  422   1.859   3.380   1.605
  630SOL    HW1  423   1.873   3.407   1.510
  630SOL    HW2  424   1.942   3.402   1.658
  637SOL     OW  425   1.138   2.242   1.678
  637SOL    HW1  426   1.093   2.305   1.742
  637SOL    HW2  427   1.231   2.273   1.661
  638SOL     OW  428   1.160   2.069   1.477
  638SOL    HW1  429   1.160   2.133   1.554
  638SOL    HW2  430   1.188   2.117   1.394
  642SOL     OW  431   1.002   2.658   1.238
  642SOL    HW1  432   1.043   2.626   1.324
  642SOL    HW2  433   0.906   2.631   1.235
  645SOL     OW  434   1.369   2.812   1.660
  645SOL    HW1  435   1.408   2.901   1.680
  645SOL    HW2  436   1.379   2.792   1.563
  647SOL     OW  437   1.657   2.466   1.206
  647SOL    HW1  438   1.619   2.397   1.268
  647SOL    HW2  439   1.739   2.430   1.162
  653SOL     OW  440   1.347   2.921   1.234
  653SOL    HW1  441   1.371   2.858   1.160
  653SOL    HW2  442   1.257   2.961   1.216
  660SOL     OW  443   1.726   1.997   0.523
  660SOL    HW1  444   1.799   1.980   0.456
  660SOL    HW2  445   1.695   1.910   0.561
  666SOL     OW  446   1.650   3.582   1.394
  666SOL    HW1  447   1.703   3.592   1.310
  666SOL    HW2  448   1.623   3.672   1.428
  667SOL     OW  449   1.841   2.037   0.963
  667SOL    HW1  450   1.880   1.952   0.927
  667SOL    HW2  451   1.743   2.039   0.944
  670SOL     OW  452   0.822   2.864   1.372
  670SOL    HW1  453   0.862   2.863   1.280
  670SOL    HW2  454   0.832   2.956   1.412
  674SOL     OW  455   1.614   3.154   1.289
  674SOL    HW1  456   1.674   3.157   1.369
  674SOL    HW2  457   1.539   3.218   1.302
  676SOL     OW  458   1.014   2.098   0.971
  676SOL    HW1  459   1.006   2.062   0.878
  676SOL    HW2  460   1.012   2.022   1.036
  678SOL     OW  461   1.709   2.247   1.381
  678SOL    HW1  462   1.782   2.316   1.385
  678SOL    HW2  463   1.737   2.172   1.322
  681SOL     OW  464   0.672   2.065   1.489
  681SOL    HW1  465   0.762   2.049   1.449
  681SOL    HW2  466   0.680   2.070   1.588
  683SOL     OW  467   1.440   2.718   1.398
  683SOL    HW1  468   1.383   2.770   1.335
  683SOL    HW2  469   1.536   2.730   1.374
  688SOL     OW  470   0.716   2.427   1.708
  688SOL    HW1  471   0.735   2.492   1.782
  688SOL    HW2  472   0.776   2.347   1.717
  689SOL     OW  473   1.450   3.082   1.633
  689SOL    HW1  474   1.441   3.072   1.732
  689SOL    HW2  475   1.546   3.075   1.607
  691SOL     OW  476   1.674   2.745   1.254
  691SOL    HW1  477   1.647   2.656   1.217
  691SOL    HW2  478   1.675   2.813   1.181
  694SOL     OW  479   1.777   2.204   1.642
  694SOL    HW1  480   1.760   2.235   1.548
  694SOL    HW2  481   1.693   2.167   1.680
  695SOL     OW  482   1.730   2.796   1.517
  695SOL    HW1  483   1.768   2.887   1.532
  695SOL    HW2  484   1.722   2.779   1.418
  704SOL     OW  485   1.824   2.054   1.227
  704SOL    HW1  486   1.820   1.964   1.271
  704SOL    HW2  487   1.827   2.043   1.128
  706SOL     OW  488   1.705   3.349   1.104
  706SOL    HW1  489   1.612   3.324   1.077
  706SOL    HW2  490   1.731   3.299   1.186
  709SOL     OW  491   1.424   2.076   1.112
  709SOL    HW1  492   1.476   2.011   1.167
  709SOL    HW2  493   1.375   2.139   1.173
  710SOL     OW  494   1.001   1.896   1.154
  710SOL    HW1  495   0.938   1.824   1.123
  710SOL    HW2  496   1.094   1.860   1.154
  714SOL     OW  497   1.300   2.315   0.691
  714SOL    HW1  498   1.241   2.395   0.695
  714SOL    HW2  499   1.315   2.280   0.784
  715SOL     OW  500   1.593   2.083   0.882
  715SOL    HW1  501   1.509   2.082   0.936
  715SOL    HW2  502   1.595   2.166   0.826
  722SOL     OW  503   1.555   3.373   2.565
  722SOL    HW1  504   1.498   3.357   2.646
  722SOL    HW2  505   1.496   3.383   2.485
  723SOL     OW  506   1.135   2.565   2.579
  723SOL    HW1  507   1.192   2.643   2.554
  723SOL    HW2  508   1.075   2.591   2.655
  724SOL     OW  509   1.755   2.469   2.093
  724SOL    HW1  510   1.743   2.456   1.994
  724SOL    HW2  511   1.725   2.388   2.142
  725SOL     OW  512   0.768   3.006   2.885
  725SOL    HW1  513   0.690   3.023   2.945
  725SOL    HW2  514   0.802   3.093   2.849
  727SOL     OW  515   0.685   2.874   2.527
  727SOL    HW1  516   0.754   2.858   2.597
  727SOL    HW2  517   0.612   2.931   2.565
  730SOL     OW  518   1.460   3.367   3.201
  730SOL    HW1  519   1.484   3.461   3.227
  730SOL    HW2  520   1.444   3.313   3.283
  732SOL     OW  521   1.603   2.309   2.599
  732SOL    HW1  522   1.529   2.355   2.549
  732SOL    HW2  523   1.654   2.377   2.652
  738SOL     OW  524   0.606   2.826   1.985
  738SOL    HW1  525   0.613   2.910   1.931
  738SOL    HW2  526   0.652   2.839   2.073
  739SOL     OW  527   1.594   1.976   3.342
  739SOL    HW1  528   1.576   2.043   3.270
  739SOL    HW2  529   1.591   2.022   3.431
  741SOL     OW  530   1.842   3.629   2.221
  741SOL    HW1  531   1.896   3.600   2.301
  741SOL    HW2  532   1.872   3.719   2.192
  743SOL     OW  533   1.689   2.784   2.474
  743SOL    HW1  534   1.784   2.755   2.482
  743SOL    HW2  535   1.681   2.849   2.399
  744SOL     OW  536   1.641   2.970   2.294
  744SOL    HW1  537   1.727   2.972   2.242
  744SOL    HW2  538   1.655   3.017   2.382
  747SOL     OW  539   1.293   3.090   3.285
  747SOL    HW1  540   1.330   3.017   3.227
  747SOL    HW2  541   1.345   3.095   3.370
  748SOL     OW  542   0.809   1.866   2.364
  748SOL    HW1  543   0.849   1.957   2.355
  748SOL    HW2  544   0.709   1.874   2.370
  750SOL     OW  545   1.525   2.861   2.052
  750SOL    HW1  546   1.462   2.785   2.065
  750SOL    HW2  547   1.573   2.879   2.138
  753SOL     OW  548   1.466   3.279   2.815
  753SOL    HW1  549   1.407   3.285   2.895
  753SOL    HW2  550   1.451   3.191   2.769
  754SOL     OW  551   1.667   3.576   2.434
  754SOL    HW1  552   1.626   3.553   2.346
  754SOL    HW2  553   1.649   3.502   2.499
  755SOL     OW  554   0.598   2.591   2.132
  755SOL    HW1  555   0.622   2.660   2.064
  755SOL    HW2  556   0.520   2.624   2.186
  756SOL     OW  557   1.281   2.207   2.806
  756SOL    HW1  558   1.195   2.157   2.793
  756SOL    HW2  559   1.343   2.153   2.862
  757SOL     OW  560   1.576   3.524   2.169
  757SOL    HW1  561   1.665   3.570   2.172
  757SOL    HW2  562   1.555   3.500   2.074
  759SOL     OW  563   1.394   2.331   3.536
  759SOL    HW1  564   1.374   2.374   3.624
  759SOL    HW2  565   1.472   2.269   3.545
  761SOL     OW  566   0.991   2.272   3.104
  761SOL    HW1  567   0.914   2.306   3.158
  761SOL    HW2  568   0.957   2.221   3.025
  762SOL     OW  569   1.041   2.563   2.291
  762SOL    HW1  570   1.067   2.559   2.387
  762SOL    HW2  571   0.956   2.512   2.277
  765SOL     OW  572   0.865   2.210   2.057
  765SOL    HW1  573   0.924   2.273   2.008
  765SOL    HW2  574   0.884   2.116   2.028
  766SOL     OW  575   1.719   2.447   3.693
  766SOL    HW1  576   1.693   2.536   3.657
  766SOL    HW2  577   1.717   2.379   3.620
  767SOL     OW  578   1.362   3.006   2.407
  767SOL    HW1  579   1.445   2.977   2.359
  767SOL    HW2  580   1.313   3.073   2.351
  768SOL     OW  581   0.550   2.058   2.747
  768SOL    HW1  582   0.545   2.053   2.847
  768SOL    HW2  583   0.552   2.154   2.718
  769SOL     OW  584   1.008   3.318   2.339
  769SOL    HW1  585   0.962   3.390   2.287
  769SOL    HW2  586   1.004   3.338   2.437
  771SOL     OW  587   1.795   2.928   2.735
  771SOL    HW1  588   1.733   2.913   2.659
  771SOL    HW2  589   1.743   2.939   2.820
  774SOL     OW  590   1.458   2.597   2.590
  774SOL    HW1  591   1.453   2.532   2.665
  774SOL    HW2  592   1.538   2.656   2.603
  778SOL     OW  593   1.632   3.239   1.943
  778SOL    HW1  594   1.600   3.333   1.933
  778SOL    HW2  595   1.556   3.176   1.931
  780SOL     OW  596   1.400   1.969   2.288
  780SOL    HW1  597   1.376   1.932   2.198
  780SOL    HW2  598   1.499   1.985   2.292
  784SOL     OW  599   1.547   2.084   3.591
  784SOL    HW1  600   1.542   2.121   3.683
  784SOL    HW2  601   1.475   2.015   3.579
  785SOL     OW  602   0.614   1.984   1.979
  785SOL    HW1  603   0.712   1.962   1.986
  785SOL    HW2  604   0.583   1.967   1.886
  788SOL     OW  605   1.351   2.452   3.295
  788SOL    HW1  606   1.379   2.409   3.380
  788SOL    HW2  607   1.376   2.548   3.296
  790SOL     OW  608   0.922   2.365   2.761
  790SOL    HW1  609   0.897   2.356   2.665
  790SOL    HW2  610   0.970   2.283   2.792
  791SOL     OW  611   0.539   1.926   2.374
  791SOL    HW1  612   0.458   1.927   2.432
  791SOL    HW2  613   0.542   2.009   2.319
  792SOL     OW  614   1.434   3.050   1.903
  792SOL    HW1  615   1.466   2.974   1.960
  792SOL    HW2  616   1.342   3.077   1.933
  794SOL     OW  617   0.935   2.098   2.342
  794SOL    HW1  618   0.887   2.139   2.264
  794SOL    HW2  619   1.034   2.096   2.323
  795SOL     OW  620   1.076   2.545   3.326
  795SOL    HW1  621   0.996   2.484   3.329
  795SOL    HW2  622   1.157   2.492   3.302
  796SOL     OW  623   1.227   3.432   2.655
  796SOL    HW1  624   1.248   3.506   2.590
  796SOL    HW2  625   1.295   3.432   2.728
  798SOL     OW  626   1.271   3.659   2.453
  798SOL    HW1  627   1.315   3.723   2.389
  798SOL    HW2  628   1.221   3.711   2.523
  799SOL     OW  629   1.032   2.411   1.878
  799SOL    HW1  630   0.991   2.493   1.839
  799SOL    HW2  631   1.096   2.437   1.951
  802SOL     OW  632   0.866   2.316   2.504
  802SOL    HW1  633   0.834   2.388   2.442
  802SOL    HW2  634   0.890   2.235   2.451
  803SOL     OW  635   1.017   1.901   2.615
  803SOL    HW1  636   0.945   1.906   2.546
  803SOL    HW2  637   0.993   1.832   2.684
  804SOL     OW  638   1.429   3.035   2.729
  804SOL    HW1  639   1.374   2.951   2.722
  804SOL    HW2  640   1.455   3.064   2.637
  805SOL     OW  641   1.466   2.452   2.854
  805SOL    HW1  642   1.436   2.357   2.861
  805SOL    HW2  643   1.539   2.468   2.920
  806SOL     OW  644   1.857   2.695   2.239
  806SOL    HW1  645   1.899   2.631   2.303
  806SOL    HW2  646   1.819   2.644   2.161
  808SOL     OW  647   1.664   3.142   2.519
  808SOL    HW1  648   1.763   3.150   2.533
  808SOL    HW2  649   1.619   3.226   2.550
  809SOL     OW  650   1.390   2.437   1.940
  809SOL    HW1  651   1.336   2.416   2.021
  809SOL    HW2  652   1.481   2.396   1.949
  810SOL     OW  653   0.527   2.118   2.190
  810SOL    HW1  654   0.554   2.059   2.115
  810SOL    HW2  655   0.527   2.213   2.159
  811SOL     OW  656   1.754   3.085   3.450
  811SOL    HW1  657   1.845   3.046   3.437
  811SOL    HW2  658   1.762   3.181   3.474
  814SOL     OW  659   1.111   3.057   2.962
  814SOL    HW1  660   1.071   3.101   3.043
  814SOL    HW2  661   1.070   3.094   2.879
  815SOL     OW  662   1.638   2.961   2.941
  815SOL    HW1  663   1.643   3.042   3.000
  815SOL    HW2  664   1.552   2.963   2.890
  816SOL     OW  665   0.915   1.951   3.264
  816SOL    HW1  666   0.940   1.931   3.169
  816SOL    HW2  667   0.987   2.007   3.306
  818SOL     OW  668   0.705   2.912   2.230
  818SOL    HW1  669   0.691   2.919   2.329
  818SOL    HW2  670   0.789   2.861   2.212
  820SOL     OW  671   1.274   2.248   3.124
  820SOL    HW1  672   1.295   2.322   3.188
  820SOL    HW2  673   1.185   2.265   3.081
  823SOL     OW  674   0.566   2.399   2.727
  823SOL    HW1  675   0.578   2.465   2.653
  823SOL    HW2  676   0.612   2.433   2.810
  824SOL     OW  677   1.252   3.210   2.250
  824SOL    HW1  678   1.302   3.287   2.290
  824SOL    HW2  679   1.157   3.212   2.282
  825SOL     OW  680   1.272   3.307   3.004
  825SOL    HW1  681   1.319   3.320   3.091
  825SOL    HW2  682   1.206   3.233   3.013
  826SOL     OW  683   1.582   2.501   2.334
  826SOL    HW1  684   1.551   2.562   2.407
  826SOL    HW2  685   1.632   2.553   2.265
  829SOL     OW  686   1.587   2.641   3.532
  829SOL    HW1  687   1.495   2.679   3.527
  829SOL    HW2  688   1.647   2.688   3.467
  833SOL     OW  689   1.360   2.724   2.907
  833SOL    HW1  690   1.285   2.724   2.841
  833SOL    HW2  691   1.397   2.632   2.916
  834SOL     OW  692   1.209   2.387   2.137
  834SOL    HW1  693   1.222   2.303   2.191
  834SOL    HW2  694   1.180   2.461   2.197
  837SOL     OW  695   0.732   2.496   2.926
  837SOL    HW1  696   0.791   2.470   2.850
  837SOL    HW2  697   0.704   2.592   2.915
  838SOL     OW  698   1.728   2.797   3.716
  838SOL    HW1  699   1.682   2.790   3.627
  838SOL    HW2  700   1.666   2.841   3.782
  840SOL     OW  701   1.622   2.229   2.236
  840SOL    HW1  702   1.624   2.153   2.300
  840SOL    HW2  703   1.574   2.306   2.276
  841SOL     OW  704   1.023   2.628   2.828
  841SOL    HW1  705   1.038   2.649   2.924
  841SOL    HW2  706   0.993   2.533   2.819
  843SOL     OW  707   1.859   3.380   3.467
  843SOL    HW1  708   1.873   3.407   3.372
  843SOL    HW2  709   1.942   3.402   3.520
  845SOL     OW  710   1.540   2.136   1.987
  845SOL    HW1  711   1.479   2.061   2.010
  845SOL    HW2  712   1.562   2.188   2.070
  846SOL     OW  713   1.303   2.700   1.904
  846SOL    HW1  714   1.337   2.607   1.919
  846SOL    HW2  715   1.321   2.727   1.809
  847SOL     OW  716   1.068   3.195   2.711
  847SOL    HW1  717   1.075   3.111   2.656
  847SOL    HW2  718   1.130   3.264   2.675
  850SOL     OW  719   1.138   2.242   3.540
  850SOL    HW1  720   1.093   2.305   3.604
  850SOL    HW2  721   1.231   2.273   3.523
  851SOL     OW  722   1.160   2.069   3.339
  851SOL    HW1  723   1.160   2.133   3.416
  851SOL    HW2  724   1.188   2.117   3.256
  855SOL     OW  725   1.002   2.658   3.100
  855SOL    HW1  726   1.043   2.626   3.186
  855SOL    HW2  727   0.906   2.631   3.097
  858SOL     OW  728   1.369   2.812   3.522
  858SOL    HW1  729   1.408   2.901   3.542
  858SOL    HW2  730   1.379   2.792   3.425
  859SOL     OW  731   0.815   2.434   2.187
  859SOL    HW1  732   0.822   2.345   2.141
  859SOL    HW2  733   0.721   2.468   2.179
  860SOL     OW  734   1.657   2.466   3.068
  860SOL    HW1  735   1.619   2.397   3.130
  860SOL    HW2  736   1.739   2.430   3.024
  862SOL     OW  737   0.671   2.326   3.131
  862SOL    HW1  738   0.637   2.237   3.101
  862SOL    HW2  739   0.697   2.380   3.051
  864SOL     OW  740   0.473   2.362   2.053
  864SOL    HW1  741   0.534   2.442   2.057
  864SOL    HW2  742   0.378   2.393   2.060
  866SOL     OW  743   1.347   2.921   3.096
  866SOL    HW1  744   1.371   2.858   3.022
  866SOL    HW2  745   1.257   2.961   3.078
  867SOL     OW  746   1.302   2.717   2.171
  867SOL    HW1  747   1.216   2.686   2.213
  867SOL    HW2  748   1.298   2.703   2.072
  868SOL     OW  749   1.759   3.609   3.016
  868SOL    HW1  750   1.820   3.639   2.943
  868SOL    HW2  751   1.721   3.520   2.994
  872SOL     OW  752   1.726   1.997   2.385
  872SOL    HW1  753   1.799   1.980   2.318
  872SOL    HW2  754   1.695   1.910   2.423
  873SOL     OW  755   1.388   3.435   2.339
  873SOL    HW1  756   1.455   3.447   2.265
  873SOL    HW2  757   1.348   3.524   2.362
  875SOL     OW  758   1.280   2.789   2.534
  875SOL    HW1  759   1.340   2.708   2.536
  875SOL    HW2  760   1.320   2.858   2.474
  879SOL     OW  761   1.841   2.037   2.825
  879SOL    HW1  762   1.880   1.952   2.789
  879SOL    HW2  763   1.743   2.039   2.806
  881SOL     OW  764   1.194   3.474   1.893
  881SOL    HW1  765   1.200   3.381   1.930
  881SOL    HW2  766   1.135   3.474   1.813
  883SOL     OW  767   0.916   2.772   2.153
  883SOL    HW1  768   0.979   2.810   2.085
  883SOL    HW2  769   0.956   2.689   2.192
  884SOL     OW  770   1.504   3.469   1.906
  884SOL    HW1  771   1.412   3.506   1.913
  884SOL    HW2  772   1.542   3.489   1.816
  886SOL     OW  773   1.614   3.154   3.151
  886SOL    HW1  774   1.674   3.157   3.231
  886SOL    HW2  775   1.539   3.218   3.164
  887SOL     OW  776   1.039   2.960   2.558
  887SOL    HW1  777   0.969   2.913   2.612
  887SOL    HW2  778   1.098   2.892   2.515
  888SOL     OW  779   1.014   2.098   2.833
  888SOL    HW1  780   1.006   2.062   2.740
  888SOL    HW2  781   1.012   2.022   2.898
  890SOL     OW  782   1.709   2.247   3.243
  890SOL    HW1  783   1.782   2.316   3.247
  890SOL    HW2  784   1.737   2.172   3.184
  895SOL     OW  785   1.440   2.718   3.260
  895SOL    HW1  786   1.383   2.770   3.197
  895SOL    HW2  787   1.536   2.730   3.236
  897SOL     OW  788   1.183   3.197   1.981
  897SOL    HW1  789   1.084   3.186   1.983
  897SOL    HW2  790   1.217   3.212   2.074
  899SOL     OW  791   1.493   3.629   2.821
  899SOL    HW1  792   1.526   3.693   2.752
  899SOL    HW2  793   1.559   3.623   2.896
  901SOL     OW  794   1.450   3.082   3.495
  901SOL    HW1  795   1.441   3.072   3.594
  901SOL    HW2  796   1.546   3.075   3.469
  903SOL     OW  797   1.674   2.745   3.116
  903SOL    HW1  798   1.647   2.656   3.079
  903SOL    HW2  799   1.675   2.813   3.043
  904SOL     OW  800   1.225   2.187   2.311
  904SOL    HW1  801   1.290   2.113   2.300
  904SOL    HW2  802   1.245   2.237   2.395
  905SOL     OW  803   0.594   2.607   2.514
  905SOL    HW1  804   0.644   2.692   2.495
  905SOL    HW2  805   0.506   2.609   2.466
  906SOL     OW  806   1.777   2.204   3.504
  906SOL    HW1  807   1.760   2.235   3.410
  906SOL    HW2  808   1.693   2.167   3.542
  907SOL     OW  809   1.730   2.796   3.379
  907SOL    HW1  810   1.768   2.887   3.394
  907SOL    HW2  811   1.722   2.779   3.280
  908SOL     OW  812   0.859   3.236   1.878
  908SOL    HW1  813   0.813   3.251   1.966
  908SOL    HW2  814   0.903   3.321   1.848
  910SOL     OW  815   0.859   2.818   2.723
  910SOL    HW1  816   0.913   2.749   2.771
  910SOL    HW2  817   0.827   2.887   2.789
  911SOL     OW  818   1.083   2.846   1.949
  911SOL    HW1  819   1.060   2.899   1.867
  911SOL    HW2  820   1.164   2.790   1.930
  912SOL     OW  821   1.861   3.431   2.713
  912SOL    HW1  822   1.790   3.419   2.643
  912SOL    HW2  823   1.862   3.352   2.773
  916SOL     OW  824   1.824   2.054   3.089
  916SOL    HW1  825   1.820   1.964   3.133
  916SOL    HW2  826   1.827   2.043   2.990
  917SOL     OW  827   0.428   2.286   2.382
  917SOL    HW1  828   0.458   2.214   2.320
  917SOL    HW2  829   0.389   2.246   2.465
  918SOL     OW  830   1.705   3.349   2.966
  918SOL    HW1  831   1.612   3.324   2.939
  918SOL    HW2  832   1.731   3.299   3.048
  921SOL     OW  833   1.424   2.076   2.974
  921SOL    HW1  834   1.476   2.011   3.029
  921SOL    HW2  835   1.375   2.139   3.035
  922SOL     OW  836   1.001   1.896   3.016
  922SOL    HW1  837   0.938   1.824   2.985
  922SOL    HW2  838   1.094   1.860   3.016
  923SOL     OW  839   0.770   3.192   2.163
  923SOL    HW1  840   0.724   3.105   2.180
  923SOL    HW2  841   0.861   3.189   2.204
  925SOL     OW  842   1.352   1.914   2.030
  925SOL    HW1  843   1.387   1.873   1.946
  925SOL    HW2  844   1.262   1.876   2.050
  926SOL     OW  845   1.300   2.315   2.553
  926SOL    HW1  846   1.241   2.395   2.557
  926SOL    HW2  847   1.315   2.280   2.646
  927SOL     OW  848   1.593   2.083   2.744
  927SOL    HW1  849   1.509   2.082   2.798
  927SOL    HW2  850   1.595   2.166   2.688
  979SOL     OW  851   1.540   2.136   3.849
  979SOL    HW1  852   1.479   2.061   3.872
  979SOL    HW2  853   1.562   2.188   3.932
 1150SOL     OW  854   1.726   3.859   2.385
 1150SOL    HW1  855   1.799   3.842   2.318
 1150SOL    HW2  856   1.695   3.772   2.423
 1168SOL     OW  857   1.352   3.776   2.030
 1168SOL    HW1  858   1.387   3.735   1.946
 1168SOL    HW2  859   1.262   3.738   2.050
 1206SOL     OW  860   2.431   1.275   1.165
 1206SOL    HW1  861   2.338   1.268   1.128
 1206SOL    HW2  862   2.442   1.364   1.209
 1210SOL     OW  863   2.630   1.144   1.023
 1210SOL    HW1  864   2.552   1.161   1.083
 1210SOL    HW2  865   2.664   1.231   0.987
 1211SOL     OW  866   2.712   0.798   1.823
 1211SOL    HW1  867   2.708   0.874   1.888
 1211SOL    HW2  868   2.734   0.834   1.732
 1213SOL     OW  869   2.548   1.161   1.803
 1213SOL    HW1  870   2.608   1.240   1.817
 1213SOL    HW2  871   2.462   1.192   1.762
 1214SOL     OW  872   2.197   1.435   1.061
 1214SOL    HW1  873   2.119   1.404   1.008
 1214SOL    HW2  874   2.255   1.493   1.004
 1215SOL     OW  875   3.322   1.505   1.339
 1215SOL    HW1  876   3.346   1.599   1.365
 1215SOL    HW2  877   3.306   1.451   1.421
 1219SOL     OW  878   2.989   1.341   1.690
 1219SOL    HW1  879   3.036   1.341   1.778
 1219SOL    HW2  880   2.941   1.254   1.679
 1221SOL     OW  881   2.102   1.091   0.886
 1221SOL    HW1  882   2.116   1.007   0.938
 1221SOL    HW2  883   2.047   1.155   0.941
 1222SOL     OW  884   2.482   1.786   1.439
 1222SOL    HW1  885   2.390   1.769   1.474
 1222SOL    HW2  886   2.510   1.878   1.465
 1230SOL     OW  887   1.975   0.737   1.597
 1230SOL    HW1  888   2.063   0.724   1.642
 1230SOL    HW2  889   1.962   0.834   1.575
 1231SOL     OW  890   2.475   1.365   0.726
 1231SOL    HW1  891   2.426   1.278   0.735
 1231SOL    HW2  892   2.452   1.408   0.639
 1232SOL     OW  893   3.155   1.228   1.423
 1232SOL    HW1  894   3.192   1.155   1.365
 1232SOL    HW2  895   3.207   1.233   1.508
 1234SOL     OW  896   2.059   0.976   1.264
 1234SOL    HW1  897   2.148   0.931   1.250
 1234SOL    HW2  898   1.986   0.911   1.245
 1236SOL     OW  899   3.049   1.792   1.616
 1236SOL    HW1  900   3.073   1.852   1.540
 1236SOL    HW2  901   3.056   1.697   1.586
 1245SOL     OW  902   2.835   0.890   1.572
 1245SOL    HW1  903   2.881   0.806   1.543
 1245SOL    HW2  904   2.779   0.924   1.497
 1249SOL     OW  905   1.992   1.821   1.571
 1249SOL    HW1  906   1.982   1.806   1.670
 1249SOL    HW2  907   1.906   1.857   1.535
 1255SOL     OW  908   2.213   1.801   0.853
 1255SOL    HW1  909   2.263   1.715   0.859
 1255SOL    HW2  910   2.278   1.878   0.850
 1257SOL     OW  911   3.089   1.550   1.506
 1257SOL    HW1  912   3.095   1.473   1.570
 1257SOL    HW2  913   3.037   1.524   1.426
 1260SOL     OW  914   2.323   1.266   1.727
 1260SOL    HW1  915   2.273   1.267   1.641
 1260SOL    HW2  916   2.260   1.248   1.803
 1266SOL     OW  917   2.111   1.785   1.241
 1266SOL    HW1  918   2.168   1.720   1.291
 1266SOL    HW2  919   2.095   1.752   1.148
 1267SOL     OW  920   2.802   1.698   0.904
 1267SOL    HW1  921   2.882   1.641   0.925
 1267SOL    HW2  922   2.753   1.658   0.827
 1272SOL     OW  923   2.750   1.514   1.195
 1272SOL    HW1  924   2.727   1.489   1.101
 1272SOL    HW2  925   2.811   1.445   1.234
 1274SOL     OW  926   2.665   1.402   0.924
 1274SOL    HW1  927   2.755   1.416   0.882
 1274SOL    HW2  928   2.594   1.404   0.853
 1281SOL     OW  929   3.089   1.570   0.793
 1281SOL    HW1  930   3.110   1.644   0.728
 1281SOL    HW2  931   3.157   1.570   0.866
 1297SOL     OW  932   2.926   1.347   1.340
 1297SOL    HW1  933   2.846   1.324   1.395
 1297SOL    HW2  934   3.009   1.321   1.389
 1298SOL     OW  935   3.454   1.629   1.625
 1298SOL    HW1  936   3.481   1.663   1.535
 1298SOL    HW2  937   3.533   1.591   1.671
 1299SOL     OW  938   2.973   1.195   1.100
 1299SOL    HW1  939   2.933   1.239   1.181
 1299SOL    HW2  940   2.932   1.232   1.017
 1302SOL     OW  941   2.842   1.116   1.719
 1302SOL    HW1  942   2.743   1.122   1.729
 1302SOL    HW2  943   2.865   1.036   1.663
 1304SOL     OW  944   2.272   0.813   1.251
 1304SOL    HW1  945   2.358   0.825   1.301
 1304SOL    HW2  946   2.230   0.726   1.278
 1306SOL     OW  947   1.926   1.564   1.331
 1306SOL    HW1  948   1.880   1.646   1.297
 1306SOL    HW2  949   2.024   1.583   1.340
 1310SOL     OW  950   3.134   1.445   1.142
 1310SOL    HW1  951   3.181   1.458   1.229
 1310SOL    HW2  952   3.068   1.371   1.151
 1312SOL     OW  953   2.216   1.510   1.329
 1312SOL    HW1  954   2.195   1.466   1.242
 1312SOL    HW2  955   2.313   1.536   1.332
 1313SOL     OW  956   2.264   0.751   1.598
 1313SOL    HW1  957   2.332   0.806   1.551
 1313SOL    HW2  958   2.304   0.663   1.625
 1321SOL     OW  959   1.899   1.310   1.282
 1321SOL    HW1  960   1.952   1.261   1.350
 1321SOL    HW2  961   1.921   1.408   1.287
 1327SOL     OW  962   2.842   1.573   1.700
 1327SOL    HW1  963   2.822   1.617   1.612
 1327SOL    HW2  964   2.881   1.482   1.684
 1328SOL     OW  965   3.721   1.518   1.605
 1328SOL    HW1  966   3.735   1.545   1.510
 1328SOL    HW2  967   3.804   1.540   1.658
 1329SOL     OW  968   2.212   0.898   1.804
 1329SOL    HW1  969   2.288   0.942   1.852
 1329SOL    HW2  970   2.247   0.851   1.722
 1332SOL     OW  971   2.930   1.333   0.849
 1332SOL    HW1  972   2.937   1.249   0.794
 1332SOL    HW2  973   2.992   1.402   0.813
 1338SOL     OW  974   1.950   1.801   0.927
 1338SOL    HW1  975   1.908   1.715   0.900
 1338SOL    HW2  976   2.044   1.804   0.893
 1339SOL     OW  977   2.366   1.568   0.910
 1339SOL    HW1  978   2.432   1.642   0.919
 1339SOL    HW2  979   2.410   1.489   0.868
 1342SOL     OW  980   2.051   0.520   1.722
 1342SOL    HW1  981   2.110   0.480   1.652
 1342SOL    HW2  982   1.993   0.591   1.681
 1343SOL     OW  983   3.231   0.950   1.660
 1343SOL    HW1  984   3.270   1.039   1.680
 1343SOL    HW2  985   3.241   0.930   1.563
 1346SOL     OW  986   2.114   1.564   1.744
 1346SOL    HW1  987   2.084   1.621   1.820
 1346SOL    HW2  988   2.107   1.467   1.770
 1348SOL     OW  989   2.792   1.678   1.465
 1348SOL    HW1  990   2.768   1.660   1.370
 1348SOL    HW2  991   2.822   1.772   1.475
 1350SOL     OW  992   2.021   1.137   1.466
 1350SOL    HW1  993   2.043   1.076   1.542
 1350SOL    HW2  994   2.031   1.088   1.380
 1354SOL     OW  995   3.114   1.731   1.128
 1354SOL    HW1  996   3.198   1.736   1.074
 1354SOL    HW2  997   3.091   1.635   1.146
 1355SOL     OW  998   1.945   1.258   1.022
 1355SOL    HW1  999   1.940   1.257   1.122
 1355SOL    HW2 1000   1.862   1.217   0.984
 1356SOL     OW 1001   2.550   1.662   1.716
 1356SOL    HW1 1002   2.494   1.743   1.725
 1356SOL    HW2 1003   2.602   1.666   1.630
 1360SOL     OW 1004   1.992   1.794   1.851
 1360SOL    HW1 1005   1.951   1.720   1.904
 1360SOL    HW2 1006   2.056   1.845   1.909
 1362SOL     OW 1007   2.692   1.273   1.422
 1362SOL    HW1 1008   2.687   1.306   1.517
 1362SOL    HW2 1009   2.606   1.292   1.376
 1364SOL     OW 1010   3.512   1.720   1.394
 1364SOL    HW1 1011   3.565   1.730   1.310
 1364SOL    HW2 1012   3.485   1.810   1.428
 1368SOL     OW 1013   2.684   1.002   1.372
 1368SOL    HW1 1014   2.724   1.001   1.280
 1368SOL    HW2 1015   2.694   1.094   1.412
 1371SOL     OW 1016   2.234   1.288   1.490
 1371SOL    HW1 1017   2.221   1.381   1.456
 1371SOL    HW2 1018   2.150   1.236   1.477
 1378SOL     OW 1019   1.967   1.013   1.726
 1378SOL    HW1 1020   1.890   0.980   1.780
 1378SOL    HW2 1021   2.052   0.983   1.768
 1383SOL     OW 1022   2.475   0.842   1.431
 1383SOL    HW1 1023   2.531   0.923   1.414
 1383SOL    HW2 1024   2.534   0.762   1.434
 1384SOL     OW 1025   3.355   1.767   0.959
 1384SOL    HW1 1026   3.388   1.831   0.890
 1384SOL    HW2 1027   3.421   1.761   1.034
 1385SOL     OW 1028   2.578   0.565   1.708
 1385SOL    HW1 1029   2.597   0.630   1.782
 1385SOL    HW2 1030   2.638   0.485   1.717
 1386SOL     OW 1031   3.312   1.220   1.633
 1386SOL    HW1 1032   3.303   1.210   1.732
 1386SOL    HW2 1033   3.408   1.213   1.607
 1387SOL     OW 1034   2.252   1.741   1.560
 1387SOL    HW1 1035   2.161   1.782   1.558
 1387SOL    HW2 1036   2.245   1.647   1.592
 1394SOL     OW 1037   2.523   1.790   0.953
 1394SOL    HW1 1038   2.477   1.878   0.940
 1394SOL    HW2 1039   2.622   1.802   0.946
 1398SOL     OW 1040   2.083   1.314   1.844
 1398SOL    HW1 1041   2.018   1.241   1.823
 1398SOL    HW2 1042   2.087   1.328   1.942
 1400SOL     OW 1043   2.534   1.391   1.624
 1400SOL    HW1 1044   2.456   1.341   1.662
 1400SOL    HW2 1045   2.531   1.486   1.655
 1405SOL     OW 1046   2.674   1.586   0.687
 1405SOL    HW1 1047   2.706   1.596   0.593
 1405SOL    HW2 1048   2.595   1.524   0.689
 1409SOL     OW 1049   2.480   1.567   1.284
 1409SOL    HW1 1050   2.475   1.649   1.341
 1409SOL    HW2 1051   2.569   1.564   1.239
 1415SOL     OW 1052   2.092   0.628   1.975
 1415SOL    HW1 1053   1.999   0.626   2.012
 1415SOL    HW2 1054   2.093   0.589   1.883
 1418SOL     OW 1055   2.431   1.275   3.027
 1418SOL    HW1 1056   2.338   1.268   2.990
 1418SOL    HW2 1057   2.442   1.364   3.071
 1419SOL     OW 1058   3.417   1.511   2.565
 1419SOL    HW1 1059   3.360   1.495   2.646
 1419SOL    HW2 1060   3.358   1.521   2.485
 1420SOL     OW 1061   2.997   0.703   2.579
 1420SOL    HW1 1062   3.054   0.781   2.554
 1420SOL    HW2 1063   2.937   0.729   2.655
 1422SOL     OW 1064   2.630   1.144   2.885
 1422SOL    HW1 1065   2.552   1.161   2.945
 1422SOL    HW2 1066   2.664   1.231   2.849
 1424SOL     OW 1067   2.547   1.012   2.527
 1424SOL    HW1 1068   2.616   0.996   2.597
 1424SOL    HW2 1069   2.474   1.069   2.565
 1426SOL     OW 1070   2.197   1.435   2.923
 1426SOL    HW1 1071   2.119   1.404   2.870
 1426SOL    HW2 1072   2.255   1.493   2.866
 1427SOL     OW 1073   3.322   1.505   3.201
 1427SOL    HW1 1074   3.346   1.599   3.227
 1427SOL    HW2 1075   3.306   1.451   3.283
 1430SOL     OW 1076   2.093   1.713   2.345
 1430SOL    HW1 1077   2.127   1.790   2.399
 1430SOL    HW2 1078   2.137   1.713   2.255
 1431SOL     OW 1079   2.989   1.341   3.552
 1431SOL    HW1 1080   3.036   1.341   3.640
 1431SOL    HW2 1081   2.941   1.254   3.541
 1432SOL     OW 1082   2.092   1.434   2.400
 1432SOL    HW1 1083   2.066   1.530   2.400
 1432SOL    HW2 1084   2.021   1.380   2.445
 1433SOL     OW 1085   2.102   1.091   2.748
 1433SOL    HW1 1086   2.116   1.007   2.800
 1433SOL    HW2 1087   2.047   1.155   2.803
 1434SOL     OW 1088   2.482   1.786   3.301
 1434SOL    HW1 1089   2.390   1.769   3.336
 1434SOL    HW2 1090   2.510   1.878   3.327
 1435SOL     OW 1091   2.468   0.964   1.985
 1435SOL    HW1 1092   2.475   1.048   1.931
 1435SOL    HW2 1093   2.514   0.977   2.073
 1437SOL     OW 1094   1.984   0.643   2.425
 1437SOL    HW1 1095   1.939   0.555   2.442
 1437SOL    HW2 1096   1.983   0.697   2.509
 1438SOL     OW 1097   3.704   1.767   2.221
 1438SOL    HW1 1098   3.758   1.738   2.301
 1438SOL    HW2 1099   3.734   1.857   2.192
 1439SOL     OW 1100   1.889   1.596   1.979
 1439SOL    HW1 1101   1.870   1.500   2.000
 1439SOL    HW2 1102   1.856   1.654   2.054
 1441SOL     OW 1103   3.503   1.108   2.294
 1441SOL    HW1 1104   3.589   1.110   2.242
 1441SOL    HW2 1105   3.517   1.155   2.382
 1443SOL     OW 1106   2.475   1.365   2.588
 1443SOL    HW1 1107   2.426   1.278   2.597
 1443SOL    HW2 1108   2.452   1.408   2.501
 1444SOL     OW 1109   3.155   1.228   3.285
 1444SOL    HW1 1110   3.192   1.155   3.227
 1444SOL    HW2 1111   3.207   1.233   3.370
 1446SOL     OW 1112   2.059   0.976   3.126
 1446SOL    HW1 1113   2.148   0.931   3.112
 1446SOL    HW2 1114   1.986   0.911   3.107
 1447SOL     OW 1115   3.387   0.999   2.052
 1447SOL    HW1 1116   3.324   0.923   2.065
 1447SOL    HW2 1117   3.435   1.017   2.138
 1448SOL     OW 1118   3.049   1.792   3.478
 1448SOL    HW1 1119   3.073   1.852   3.402
 1448SOL    HW2 1120   3.056   1.697   3.448
 1450SOL     OW 1121   3.328   1.417   2.815
 1450SOL    HW1 1122   3.269   1.423   2.895
 1450SOL    HW2 1123   3.313   1.329   2.769
 1451SOL     OW 1124   3.529   1.714   2.434
 1451SOL    HW1 1125   3.488   1.691   2.346
 1451SOL    HW2 1126   3.511   1.640   2.499
 1452SOL     OW 1127   2.460   0.729   2.132
 1452SOL    HW1 1128   2.484   0.798   2.064
 1452SOL    HW2 1129   2.382   0.762   2.186
 1454SOL     OW 1130   3.438   1.662   2.169
 1454SOL    HW1 1131   3.527   1.708   2.172
 1454SOL    HW2 1132   3.417   1.638   2.074
 1459SOL     OW 1133   2.903   0.701   2.291
 1459SOL    HW1 1134   2.929   0.697   2.387
 1459SOL    HW2 1135   2.818   0.650   2.277
 1460SOL     OW 1136   1.938   0.811   2.651
 1460SOL    HW1 1137   2.037   0.799   2.660
 1460SOL    HW2 1138   1.914   0.906   2.672
 1461SOL     OW 1139   1.992   1.821   3.433
 1461SOL    HW1 1140   1.982   1.806   3.532
 1461SOL    HW2 1141   1.906   1.857   3.397
 1464SOL     OW 1142   3.224   1.144   2.407
 1464SOL    HW1 1143   3.307   1.115   2.359
 1464SOL    HW2 1144   3.175   1.211   2.351
 1466SOL     OW 1145   2.870   1.456   2.339
 1466SOL    HW1 1146   2.824   1.528   2.287
 1466SOL    HW2 1147   2.866   1.476   2.437
 1467SOL     OW 1148   2.213   1.801   2.715
 1467SOL    HW1 1149   2.263   1.715   2.721
 1467SOL    HW2 1150   2.278   1.878   2.712
 1469SOL     OW 1151   3.089   1.550   3.368
 1469SOL    HW1 1152   3.095   1.473   3.432
 1469SOL    HW2 1153   3.037   1.524   3.288
 1470SOL     OW 1154   2.183   0.943   2.104
 1470SOL    HW1 1155   2.265   0.982   2.062
 1470SOL    HW2 1156   2.156   0.861   2.055
 1472SOL     OW 1157   2.323   1.266   3.589
 1472SOL    HW1 1158   2.273   1.267   3.503
 1472SOL    HW2 1159   2.260   1.248   3.665
 1473SOL     OW 1160   2.973   1.776   2.099
 1473SOL    HW1 1161   2.913   1.714   2.149
 1473SOL    HW2 1162   3.004   1.732   2.014
 1475SOL     OW 1163   3.494   1.377   1.943
 1475SOL    HW1 1164   3.462   1.471   1.933
 1475SOL    HW2 1165   3.418   1.314   1.931
 1476SOL     OW 1166   2.326   1.743   2.185
 1476SOL    HW1 1167   2.359   1.782   2.271
 1476SOL    HW2 1168   2.402   1.736   2.120
 1478SOL     OW 1169   2.111   1.785   3.103
 1478SOL    HW1 1170   2.168   1.720   3.153
 1478SOL    HW2 1171   2.095   1.752   3.010
 1479SOL     OW 1172   2.802   1.698   2.766
 1479SOL    HW1 1173   2.882   1.641   2.787
 1479SOL    HW2 1174   2.753   1.658   2.689
 1480SOL     OW 1175   2.244   0.700   2.342
 1480SOL    HW1 1176   2.289   0.610   2.339
 1480SOL    HW2 1177   2.150   0.689   2.375
 1484SOL     OW 1178   2.750   1.514   3.057
 1484SOL    HW1 1179   2.727   1.489   2.963
 1484SOL    HW2 1180   2.811   1.445   3.096
 1486SOL     OW 1181   2.665   1.402   2.786
 1486SOL    HW1 1182   2.755   1.416   2.744
 1486SOL    HW2 1183   2.594   1.404   2.715
 1489SOL     OW 1184   3.296   1.188   1.903
 1489SOL    HW1 1185   3.328   1.112   1.960
 1489SOL    HW2 1186   3.204   1.215   1.933
 1493SOL     OW 1187   3.089   1.570   2.655
 1493SOL    HW1 1188   3.110   1.644   2.590
 1493SOL    HW2 1189   3.157   1.570   2.728
 1494SOL     OW 1190   2.321   1.152   2.603
 1494SOL    HW1 1191   2.250   1.125   2.668
 1494SOL    HW2 1192   2.295   1.124   2.510
 1495SOL     OW 1193   3.133   1.797   2.453
 1495SOL    HW1 1194   3.177   1.861   2.389
 1495SOL    HW2 1195   3.083   1.849   2.523
 1501SOL     OW 1196   3.291   1.173   2.729
 1501SOL    HW1 1197   3.236   1.089   2.722
 1501SOL    HW2 1198   3.317   1.202   2.637
 1504SOL     OW 1199   2.350   1.385   2.036
 1504SOL    HW1 1200   2.263   1.370   2.083
 1504SOL    HW2 1201   2.333   1.411   1.941
 1505SOL     OW 1202   3.526   1.280   2.519
 1505SOL    HW1 1203   3.625   1.288   2.533
 1505SOL    HW2 1204   3.481   1.364   2.550
 1509SOL     OW 1205   2.926   1.347   3.202
 1509SOL    HW1 1206   2.846   1.324   3.257
 1509SOL    HW2 1207   3.009   1.321   3.251
 1511SOL     OW 1208   2.973   1.195   2.962
 1511SOL    HW1 1209   2.933   1.239   3.043
 1511SOL    HW2 1210   2.932   1.232   2.879
 1515SOL     OW 1211   2.567   1.050   2.230
 1515SOL    HW1 1212   2.553   1.057   2.329
 1515SOL    HW2 1213   2.651   0.999   2.212
 1516SOL     OW 1214   2.272   0.813   3.113
 1516SOL    HW1 1215   2.358   0.825   3.163
 1516SOL    HW2 1216   2.230   0.726   3.140
 1518SOL     OW 1217   1.926   1.564   3.193
 1518SOL    HW1 1218   1.880   1.646   3.159
 1518SOL    HW2 1219   2.024   1.583   3.202
 1519SOL     OW 1220   2.229   1.100   2.363
 1519SOL    HW1 1221   2.222   1.183   2.307
 1519SOL    HW2 1222   2.233   1.020   2.303
 1520SOL     OW 1223   2.428   0.537   2.727
 1520SOL    HW1 1224   2.440   0.603   2.653
 1520SOL    HW2 1225   2.474   0.571   2.810
 1521SOL     OW 1226   3.114   1.348   2.250
 1521SOL    HW1 1227   3.164   1.425   2.290
 1521SOL    HW2 1228   3.019   1.350   2.282
 1522SOL     OW 1229   3.134   1.445   3.004
 1522SOL    HW1 1230   3.181   1.458   3.091
 1522SOL    HW2 1231   3.068   1.371   3.013
 1524SOL     OW 1232   2.216   1.510   3.191
 1524SOL    HW1 1233   2.195   1.466   3.104
 1524SOL    HW2 1234   2.313   1.536   3.194
 1529SOL     OW 1235   2.435   0.870   2.891
 1529SOL    HW1 1236   2.479   0.959   2.882
 1529SOL    HW2 1237   2.372   0.870   2.968
 1533SOL     OW 1238   1.899   1.310   3.144
 1533SOL    HW1 1239   1.952   1.261   3.212
 1533SOL    HW2 1240   1.921   1.408   3.149
 1534SOL     OW 1241   2.594   0.634   2.926
 1534SOL    HW1 1242   2.653   0.608   2.850
 1534SOL    HW2 1243   2.566   0.730   2.915
 1538SOL     OW 1244   2.885   0.766   2.828
 1538SOL    HW1 1245   2.900   0.787   2.924
 1538SOL    HW2 1246   2.855   0.671   2.819
 1539SOL     OW 1247   2.842   1.573   3.562
 1539SOL    HW1 1248   2.822   1.617   3.474
 1539SOL    HW2 1249   2.881   1.482   3.546
 1543SOL     OW 1250   3.165   0.838   1.904
 1543SOL    HW1 1251   3.199   0.745   1.919
 1543SOL    HW2 1252   3.183   0.865   1.809
 1544SOL     OW 1253   2.930   1.333   2.711
 1544SOL    HW1 1254   2.937   1.249   2.656
 1544SOL    HW2 1255   2.992   1.402   2.675
 1545SOL     OW 1256   2.181   0.810   2.811
 1545SOL    HW1 1257   2.274   0.846   2.816
 1545SOL    HW2 1258   2.175   0.725   2.863
 1549SOL     OW 1259   1.870   1.326   2.062
 1549SOL    HW1 1260   1.777   1.347   2.031
 1549SOL    HW2 1261   1.880   1.227   2.075
 1550SOL     OW 1262   1.950   1.801   2.789
 1550SOL    HW1 1263   1.908   1.715   2.762
 1550SOL    HW2 1264   2.044   1.804   2.755
 1551SOL     OW 1265   2.366   1.568   2.772
 1551SOL    HW1 1266   2.432   1.642   2.781
 1551SOL    HW2 1267   2.410   1.489   2.730
 1552SOL     OW 1268   2.864   0.796   3.100
 1552SOL    HW1 1269   2.905   0.764   3.186
 1552SOL    HW2 1270   2.768   0.769   3.097
 1556SOL     OW 1271   2.677   0.572   2.187
 1556SOL    HW1 1272   2.684   0.483   2.141
 1556SOL    HW2 1273   2.583   0.606   2.179
 1558SOL     OW 1274   2.114   1.564   3.606
 1558SOL    HW1 1275   2.084   1.621   3.682
 1558SOL    HW2 1276   2.107   1.467   3.632
 1560SOL     OW 1277   2.792   1.678   3.327
 1560SOL    HW1 1278   2.768   1.660   3.232
 1560SOL    HW2 1279   2.822   1.772   3.337
 1561SOL     OW 1280   2.335   0.500   2.053
 1561SOL    HW1 1281   2.396   0.580   2.057
 1561SOL    HW2 1282   2.240   0.531   2.060
 1562SOL     OW 1283   2.021   1.137   3.328
 1562SOL    HW1 1284   2.043   1.076   3.404
 1562SOL    HW2 1285   2.031   1.088   3.242
 1563SOL     OW 1286   3.209   1.059   3.096
 1563SOL    HW1 1287   3.233   0.996   3.022
 1563SOL    HW2 1288   3.119   1.099   3.078
 1564SOL     OW 1289   3.164   0.855   2.171
 1564SOL    HW1 1290   3.078   0.824   2.213
 1564SOL    HW2 1291   3.160   0.841   2.072
 1565SOL     OW 1292   3.621   1.747   3.016
 1565SOL    HW1 1293   3.682   1.777   2.943
 1565SOL    HW2 1294   3.583   1.658   2.994
 1566SOL     OW 1295   3.114   1.731   2.990
 1566SOL    HW1 1296   3.198   1.736   2.936
 1566SOL    HW2 1297   3.091   1.635   3.008
 1567SOL     OW 1298   1.945   1.258   2.884
 1567SOL    HW1 1299   1.940   1.257   2.984
 1567SOL    HW2 1300   1.862   1.217   2.846
 1568SOL     OW 1301   2.550   1.662   3.578
 1568SOL    HW1 1302   2.494   1.743   3.587
 1568SOL    HW2 1303   2.602   1.666   3.492
 1570SOL     OW 1304   3.250   1.573   2.339
 1570SOL    HW1 1305   3.317   1.585   2.265
 1570SOL    HW2 1306   3.210   1.662   2.362
 1571SOL     OW 1307   1.992   1.794   3.713
 1571SOL    HW1 1308   1.951   1.720   3.766
 1571SOL    HW2 1309   2.056   1.845   3.771
 1572SOL     OW 1310   3.142   0.927   2.534
 1572SOL    HW1 1311   3.202   0.846   2.536
 1572SOL    HW2 1312   3.182   0.996   2.474
 1573SOL     OW 1313   2.692   1.273   3.284
 1573SOL    HW1 1314   2.687   1.306   3.379
 1573SOL    HW2 1315   2.606   1.292   3.238
 1574SOL     OW 1316   2.534   1.616   2.016
 1574SOL    HW1 1317   2.543   1.626   1.917
 1574SOL    HW2 1318   2.494   1.527   2.037
 1575SOL     OW 1319   3.512   1.720   3.256
 1575SOL    HW1 1320   3.565   1.730   3.172
 1575SOL    HW2 1321   3.485   1.810   3.290
 1578SOL     OW 1322   3.056   1.612   1.893
 1578SOL    HW1 1323   3.062   1.519   1.930
 1578SOL    HW2 1324   2.997   1.612   1.813
 1579SOL     OW 1325   2.684   1.002   3.234
 1579SOL    HW1 1326   2.724   1.001   3.142
 1579SOL    HW2 1327   2.694   1.094   3.274
 1580SOL     OW 1328   2.778   0.910   2.153
 1580SOL    HW1 1329   2.841   0.948   2.085
 1580SOL    HW2 1330   2.818   0.827   2.192
 1581SOL     OW 1331   3.366   1.607   1.906
 1581SOL    HW1 1332   3.274   1.644   1.913
 1581SOL    HW2 1333   3.404   1.627   1.816
 1582SOL     OW 1334   2.234   1.288   3.352
 1582SOL    HW1 1335   2.221   1.381   3.318
 1582SOL    HW2 1336   2.150   1.236   3.339
 1584SOL     OW 1337   2.901   1.098   2.558
 1584SOL    HW1 1338   2.831   1.051   2.612
 1584SOL    HW2 1339   2.960   1.030   2.515
 1586SOL     OW 1340   2.452   1.487   2.353
 1586SOL    HW1 1341   2.494   1.429   2.283
 1586SOL    HW2 1342   2.408   1.566   2.309
 1588SOL     OW 1343   2.117   1.348   2.152
 1588SOL    HW1 1344   2.021   1.349   2.125
 1588SOL    HW2 1345   2.129   1.401   2.236
 1594SOL     OW 1346   3.045   1.335   1.981
 1594SOL    HW1 1347   2.946   1.324   1.983
 1594SOL    HW2 1348   3.079   1.350   2.074
 1595SOL     OW 1349   2.475   0.842   3.293
 1595SOL    HW1 1350   2.531   0.923   3.276
 1595SOL    HW2 1351   2.534   0.762   3.296
 1596SOL     OW 1352   3.355   1.767   2.821
 1596SOL    HW1 1353   3.388   1.831   2.752
 1596SOL    HW2 1354   3.421   1.761   2.896
 1599SOL     OW 1355   2.252   1.741   3.422
 1599SOL    HW1 1356   2.161   1.782   3.420
 1599SOL    HW2 1357   2.245   1.647   3.454
 1602SOL     OW 1358   2.456   0.745   2.514
 1602SOL    HW1 1359   2.506   0.830   2.495
 1602SOL    HW2 1360   2.368   0.747   2.466
 1605SOL     OW 1361   2.721   1.374   1.878
 1605SOL    HW1 1362   2.675   1.389   1.966
 1605SOL    HW2 1363   2.765   1.459   1.848
 1606SOL     OW 1364   2.523   1.790   2.815
 1606SOL    HW1 1365   2.477   1.878   2.802
 1606SOL    HW2 1366   2.622   1.802   2.808
 1607SOL     OW 1367   2.721   0.956   2.723
 1607SOL    HW1 1368   2.775   0.887   2.771
 1607SOL    HW2 1369   2.689   1.025   2.789
 1608SOL     OW 1370   2.945   0.984   1.949
 1608SOL    HW1 1371   2.922   1.037   1.867
 1608SOL    HW2 1372   3.026   0.928   1.930
 1609SOL     OW 1373   3.723   1.569   2.713
 1609SOL    HW1 1374   3.652   1.557   2.643
 1609SOL    HW2 1375   3.724   1.490   2.773
 1610SOL     OW 1376   2.083   1.314   3.706
 1610SOL    HW1 1377   2.018   1.241   3.685
 1610SOL    HW2 1378   2.087   1.328   3.804
 1611SOL     OW 1379   1.941   1.240   2.515
 1611SOL    HW1 1380   1.940   1.193   2.603
 1611SOL    HW2 1381   2.023   1.212   2.464
 1612SOL     OW 1382   2.534   1.391   3.486
 1612SOL    HW1 1383   2.456   1.341   3.524
 1612SOL    HW2 1384   2.531   1.486   3.517
 1615SOL     OW 1385   3.567   1.487   2.966
 1615SOL    HW1 1386   3.474   1.462   2.939
 1615SOL    HW2 1387   3.593   1.437   3.048
 1617SOL     OW 1388   2.674   1.586   2.549
 1617SOL    HW1 1389   2.706   1.596   2.455
 1617SOL    HW2 1390   2.595   1.524   2.551
 1620SOL     OW 1391   2.632   1.330   2.163
 1620SOL    HW1 1392   2.586   1.243   2.180
 1620SOL    HW2 1393   2.723   1.327   2.204
 1621SOL     OW 1394   2.480   1.567   3.146
 1621SOL    HW1 1395   2.475   1.649   3.203
 1621SOL    HW2 1396   2.569   1.564   3.101
 1625SOL     OW 1397   1.901   1.077   2.162
 1625SOL    HW1 1398   2.000   1.066   2.153
 1625SOL    HW2 1399   1.861   0.991   2.194
 1626SOL     OW 1400   2.737   1.646   2.199
 1626SOL    HW1 1401   2.660   1.611   2.145
 1626SOL    HW2 1402   2.705   1.717   2.261
 1634SOL     OW 1403   1.889   1.596   3.841
 1634SOL    HW1 1404   1.870   1.500   3.862
 1634SOL    HW2 1405   1.856   1.654   3.916
 1684SOL     OW 1406   2.534   1.616   3.878
 1684SOL    HW1 1407   2.543   1.626   3.779
 1684SOL    HW2 1408   2.494   1.527   3.899
 1707SOL     OW 1409   2.087   2.137   0.996
 1707SOL    HW1 1410   2.122   2.120   1.088
 1707SOL    HW2 1411   1.999   2.092   0.984
 1708SOL     OW 1412   1.881   2.230   0.647
 1708SOL    HW1 1413   1.799   2.273   0.686
 1708SOL    HW2 1414   1.853   2.157   0.584
 1709SOL     OW 1415   2.431   3.137   1.165
 1709SOL    HW1 1416   2.338   3.130   1.128
 1709SOL    HW2 1417   2.442   3.226   1.209
 1711SOL     OW 1418   2.997   2.565   0.717
 1711SOL    HW1 1419   3.054   2.643   0.692
 1711SOL    HW2 1420   2.937   2.591   0.793
 1713SOL     OW 1421   2.630   3.006   1.023
 1713SOL    HW1 1422   2.552   3.023   1.083
 1713SOL    HW2 1423   2.664   3.093   0.987
 1714SOL     OW 1424   2.712   2.660   1.823
 1714SOL    HW1 1425   2.708   2.736   1.888
 1714SOL    HW2 1426   2.734   2.696   1.732
 1715SOL     OW 1427   2.547   2.874   0.665
 1715SOL    HW1 1428   2.616   2.858   0.735
 1715SOL    HW2 1429   2.474   2.931   0.703
 1716SOL     OW 1430   2.548   3.023   1.803
 1716SOL    HW1 1431   2.608   3.102   1.817
 1716SOL    HW2 1432   2.462   3.054   1.762
 1717SOL     OW 1433   2.197   3.297   1.061
 1717SOL    HW1 1434   2.119   3.266   1.008
 1717SOL    HW2 1435   2.255   3.355   1.004
 1719SOL     OW 1436   2.300   2.254   1.499
 1719SOL    HW1 1437   2.382   2.198   1.508
 1719SOL    HW2 1438   2.219   2.196   1.503
 1722SOL     OW 1439   2.989   3.203   1.690
 1722SOL    HW1 1440   3.036   3.203   1.778
 1722SOL    HW2 1441   2.941   3.116   1.679
 1724SOL     OW 1442   2.102   2.953   0.886
 1724SOL    HW1 1443   2.116   2.869   0.938
 1724SOL    HW2 1444   2.047   3.017   0.941
 1725SOL     OW 1445   2.482   3.648   1.439
 1725SOL    HW1 1446   2.390   3.631   1.474
 1725SOL    HW2 1447   2.510   3.740   1.465
 1727SOL     OW 1448   3.456   1.976   1.480
 1727SOL    HW1 1449   3.438   2.043   1.408
 1727SOL    HW2 1450   3.453   2.022   1.569
 1728SOL     OW 1451   1.984   2.505   0.563
 1728SOL    HW1 1452   1.939   2.417   0.580
 1728SOL    HW2 1453   1.983   2.559   0.647
 1733SOL     OW 1454   1.975   2.599   1.597
 1733SOL    HW1 1455   2.063   2.586   1.642
 1733SOL    HW2 1456   1.962   2.696   1.575
 1735SOL     OW 1457   3.155   3.090   1.423
 1735SOL    HW1 1458   3.192   3.017   1.365
 1735SOL    HW2 1459   3.207   3.095   1.508
 1737SOL     OW 1460   2.059   2.838   1.264
 1737SOL    HW1 1461   2.148   2.793   1.250
 1737SOL    HW2 1462   1.986   2.773   1.245
 1739SOL     OW 1463   3.049   3.654   1.616
 1739SOL    HW1 1464   3.073   3.714   1.540
 1739SOL    HW2 1465   3.056   3.559   1.586
 1740SOL     OW 1466   2.179   2.113   1.801
 1740SOL    HW1 1467   2.250   2.184   1.807
 1740SOL    HW2 1468   2.091   2.152   1.829
 1744SOL     OW 1469   3.143   2.207   0.944
 1744SOL    HW1 1470   3.057   2.157   0.931
 1744SOL    HW2 1471   3.205   2.153   1.000
 1746SOL     OW 1472   2.669   2.467   1.465
 1746SOL    HW1 1473   2.622   2.464   1.554
 1746SOL    HW2 1474   2.618   2.412   1.399
 1747SOL     OW 1475   3.256   2.331   1.674
 1747SOL    HW1 1476   3.236   2.374   1.762
 1747SOL    HW2 1477   3.334   2.269   1.683
 1748SOL     OW 1478   2.835   2.752   1.572
 1748SOL    HW1 1479   2.881   2.668   1.543
 1748SOL    HW2 1480   2.779   2.786   1.497
 1749SOL     OW 1481   2.853   2.272   1.242
 1749SOL    HW1 1482   2.776   2.306   1.296
 1749SOL    HW2 1483   2.819   2.221   1.163
 1751SOL     OW 1484   1.938   2.673   0.789
 1751SOL    HW1 1485   2.037   2.661   0.798
 1751SOL    HW2 1486   1.914   2.768   0.810
 1752SOL     OW 1487   1.992   3.683   1.571
 1752SOL    HW1 1488   1.982   3.668   1.670
 1752SOL    HW2 1489   1.906   3.719   1.535
 1754SOL     OW 1490   3.581   2.447   1.831
 1754SOL    HW1 1491   3.555   2.536   1.795
 1754SOL    HW2 1492   3.579   2.379   1.758
 1756SOL     OW 1493   2.412   2.058   0.885
 1756SOL    HW1 1494   2.407   2.053   0.985
 1756SOL    HW2 1495   2.414   2.154   0.856
 1760SOL     OW 1496   3.089   3.412   1.506
 1760SOL    HW1 1497   3.095   3.335   1.570
 1760SOL    HW2 1498   3.037   3.386   1.426
 1763SOL     OW 1499   2.323   3.128   1.727
 1763SOL    HW1 1500   2.273   3.129   1.641
 1763SOL    HW2 1501   2.260   3.110   1.803
 1765SOL     OW 1502   2.064   2.147   1.498
 1765SOL    HW1 1503   1.984   2.207   1.485
 1765SOL    HW2 1504   2.054   2.098   1.584
 1769SOL     OW 1505   2.111   3.647   1.241
 1769SOL    HW1 1506   2.168   3.582   1.291
 1769SOL    HW2 1507   2.095   3.614   1.148
 1771SOL     OW 1508   2.244   2.562   0.480
 1771SOL    HW1 1509   2.289   2.472   0.477
 1771SOL    HW2 1510   2.150   2.551   0.513
 1772SOL     OW 1511   3.409   2.084   1.729
 1772SOL    HW1 1512   3.404   2.121   1.821
 1772SOL    HW2 1513   3.337   2.015   1.717
 1774SOL     OW 1514   2.643   2.126   1.749
 1774SOL    HW1 1515   2.710   2.065   1.792
 1774SOL    HW2 1516   2.570   2.145   1.814
 1775SOL     OW 1517   2.750   3.376   1.195
 1775SOL    HW1 1518   2.727   3.351   1.101
 1775SOL    HW2 1519   2.811   3.307   1.234
 1776SOL     OW 1520   3.213   2.452   1.433
 1776SOL    HW1 1521   3.241   2.409   1.518
 1776SOL    HW2 1522   3.238   2.548   1.434
 1777SOL     OW 1523   2.665   3.264   0.924
 1777SOL    HW1 1524   2.755   3.278   0.882
 1777SOL    HW2 1525   2.594   3.266   0.853
 1778SOL     OW 1526   2.784   2.365   0.899
 1778SOL    HW1 1527   2.759   2.356   0.803
 1778SOL    HW2 1528   2.832   2.283   0.930
 1779SOL     OW 1529   2.401   1.926   0.512
 1779SOL    HW1 1530   2.320   1.927   0.570
 1779SOL    HW2 1531   2.404   2.009   0.457
 1782SOL     OW 1532   2.938   2.545   1.464
 1782SOL    HW1 1533   2.858   2.484   1.467
 1782SOL    HW2 1534   3.019   2.492   1.440
 1784SOL     OW 1535   2.321   3.014   0.741
 1784SOL    HW1 1536   2.250   2.987   0.806
 1784SOL    HW2 1537   2.295   2.986   0.648
 1787SOL     OW 1538   1.940   2.418   1.386
 1787SOL    HW1 1539   2.032   2.417   1.345
 1787SOL    HW2 1540   1.934   2.492   1.453
 1788SOL     OW 1541   2.423   2.084   1.147
 1788SOL    HW1 1542   2.461   2.000   1.184
 1788SOL    HW2 1543   2.335   2.103   1.191
 1789SOL     OW 1544   2.728   2.316   0.642
 1789SOL    HW1 1545   2.696   2.388   0.580
 1789SOL    HW2 1546   2.752   2.235   0.589
 1790SOL     OW 1547   2.879   1.901   0.753
 1790SOL    HW1 1548   2.807   1.906   0.684
 1790SOL    HW2 1549   2.855   1.832   0.822
 1792SOL     OW 1550   3.328   2.452   0.992
 1792SOL    HW1 1551   3.298   2.357   0.999
 1792SOL    HW2 1552   3.401   2.468   1.058
 1798SOL     OW 1553   3.616   3.085   1.588
 1798SOL    HW1 1554   3.707   3.046   1.575
 1798SOL    HW2 1555   3.624   3.181   1.612
 1799SOL     OW 1556   2.926   3.209   1.340
 1799SOL    HW1 1557   2.846   3.186   1.395
 1799SOL    HW2 1558   3.009   3.183   1.389
 1801SOL     OW 1559   2.973   3.057   1.100
 1801SOL    HW1 1560   2.933   3.101   1.181
 1801SOL    HW2 1561   2.932   3.094   1.017
 1803SOL     OW 1562   2.777   1.951   1.402
 1803SOL    HW1 1563   2.802   1.931   1.307
 1803SOL    HW2 1564   2.849   2.007   1.444
 1804SOL     OW 1565   2.842   2.978   1.719
 1804SOL    HW1 1566   2.743   2.984   1.729
 1804SOL    HW2 1567   2.865   2.898   1.663
 1806SOL     OW 1568   2.272   2.675   1.251
 1806SOL    HW1 1569   2.358   2.687   1.301
 1806SOL    HW2 1570   2.230   2.588   1.278
 1807SOL     OW 1571   3.136   2.248   1.262
 1807SOL    HW1 1572   3.157   2.322   1.326
 1807SOL    HW2 1573   3.047   2.265   1.219
 1808SOL     OW 1574   1.926   3.426   1.331
 1808SOL    HW1 1575   1.880   3.508   1.297
 1808SOL    HW2 1576   2.024   3.445   1.340
 1810SOL     OW 1577   2.428   2.399   0.865
 1810SOL    HW1 1578   2.440   2.465   0.791
 1810SOL    HW2 1579   2.474   2.433   0.948
 1812SOL     OW 1580   3.134   3.307   1.142
 1812SOL    HW1 1581   3.181   3.320   1.229
 1812SOL    HW2 1582   3.068   3.233   1.151
 1814SOL     OW 1583   2.216   3.372   1.329
 1814SOL    HW1 1584   2.195   3.328   1.242
 1814SOL    HW2 1585   2.313   3.398   1.332
 1815SOL     OW 1586   2.264   2.613   1.598
 1815SOL    HW1 1587   2.332   2.668   1.551
 1815SOL    HW2 1588   2.304   2.525   1.625
 1816SOL     OW 1589   3.449   2.641   1.670
 1816SOL    HW1 1590   3.357   2.679   1.665
 1816SOL    HW2 1591   3.509   2.688   1.605
 1817SOL     OW 1592   2.875   1.967   1.770
 1817SOL    HW1 1593   2.881   2.052   1.718
 1817SOL    HW2 1594   2.907   1.891   1.713
 1818SOL     OW 1595   2.366   1.912   1.740
 1818SOL    HW1 1596   2.324   1.855   1.670
 1818SOL    HW2 1597   2.300   1.981   1.772
 1819SOL     OW 1598   2.435   2.732   1.029
 1819SOL    HW1 1599   2.479   2.821   1.020
 1819SOL    HW2 1600   2.372   2.732   1.106
 1820SOL     OW 1601   3.222   2.724   1.045
 1820SOL    HW1 1602   3.147   2.724   0.979
 1820SOL    HW2 1603   3.259   2.632   1.054
 1822SOL     OW 1604   2.169   2.075   1.231
 1822SOL    HW1 1605   2.146   2.112   1.321
 1822SOL    HW2 1606   2.139   1.980   1.225
 1823SOL     OW 1607   1.899   3.172   1.282
 1823SOL    HW1 1608   1.952   3.123   1.350
 1823SOL    HW2 1609   1.921   3.270   1.287
 1824SOL     OW 1610   2.594   2.496   1.064
 1824SOL    HW1 1611   2.653   2.470   0.988
 1824SOL    HW2 1612   2.566   2.592   1.053
 1825SOL     OW 1613   3.590   2.797   1.854
 1825SOL    HW1 1614   3.544   2.790   1.765
 1825SOL    HW2 1615   3.528   2.841   1.920
 1826SOL     OW 1616   2.169   1.925   0.618
 1826SOL    HW1 1617   2.158   2.019   0.651
 1826SOL    HW2 1618   2.164   1.862   0.695
 1828SOL     OW 1619   2.885   2.628   0.966
 1828SOL    HW1 1620   2.900   2.649   1.062
 1828SOL    HW2 1621   2.855   2.533   0.957
 1829SOL     OW 1622   2.842   3.435   1.700
 1829SOL    HW1 1623   2.822   3.479   1.612
 1829SOL    HW2 1624   2.881   3.344   1.684
 1831SOL     OW 1625   2.212   2.760   1.804
 1831SOL    HW1 1626   2.288   2.804   1.852
 1831SOL    HW2 1627   2.247   2.713   1.722
 1835SOL     OW 1628   2.181   2.672   0.949
 1835SOL    HW1 1629   2.274   2.708   0.954
 1835SOL    HW2 1630   2.175   2.587   1.001
 1836SOL     OW 1631   2.201   2.371   1.006
 1836SOL    HW1 1632   2.149   2.288   0.989
 1836SOL    HW2 1633   2.278   2.376   0.942
 1837SOL     OW 1634   3.000   2.242   1.678
 1837SOL    HW1 1635   2.955   2.305   1.742
 1837SOL    HW2 1636   3.093   2.273   1.661
 1838SOL     OW 1637   3.022   2.069   1.477
 1838SOL    HW1 1638   3.022   2.133   1.554
 1838SOL    HW2 1639   3.050   2.117   1.394
 1841SOL     OW 1640   2.366   3.430   0.910
 1841SOL    HW1 1641   2.432   3.504   0.919
 1841SOL    HW2 1642   2.410   3.351   0.868
 1842SOL     OW 1643   2.864   2.658   1.238
 1842SOL    HW1 1644   2.905   2.626   1.324
 1842SOL    HW2 1645   2.768   2.631   1.235
 1843SOL     OW 1646   1.902   2.406   1.114
 1843SOL    HW1 1647   1.987   2.373   1.073
 1843SOL    HW2 1648   1.915   2.421   1.212
 1844SOL     OW 1649   2.051   2.382   1.722
 1844SOL    HW1 1650   2.110   2.342   1.652
 1844SOL    HW2 1651   1.993   2.453   1.681
 1845SOL     OW 1652   3.231   2.812   1.660
 1845SOL    HW1 1653   3.270   2.901   1.680
 1845SOL    HW2 1654   3.241   2.792   1.563
 1847SOL     OW 1655   3.519   2.466   1.206
 1847SOL    HW1 1656   3.481   2.397   1.268
 1847SOL    HW2 1657   3.601   2.430   1.162
 1848SOL     OW 1658   2.114   3.426   1.744
 1848SOL    HW1 1659   2.084   3.483   1.820
 1848SOL    HW2 1660   2.107   3.329   1.770
 1849SOL     OW 1661   2.533   2.326   1.269
 1849SOL    HW1 1662   2.499   2.237   1.239
 1849SOL    HW2 1663   2.559   2.380   1.189
 1850SOL     OW 1664   2.792   3.540   1.465
 1850SOL    HW1 1665   2.768   3.522   1.370
 1850SOL    HW2 1666   2.822   3.634   1.475
 1852SOL     OW 1667   2.021   2.999   1.466
 1852SOL    HW1 1668   2.043   2.938   1.542
 1852SOL    HW2 1669   2.031   2.950   1.380
 1853SOL     OW 1670   3.209   2.921   1.234
 1853SOL    HW1 1671   3.233   2.858   1.160
 1853SOL    HW2 1672   3.119   2.961   1.216
 1857SOL     OW 1673   1.945   3.120   1.022
 1857SOL    HW1 1674   1.940   3.119   1.122
 1857SOL    HW2 1675   1.862   3.079   0.984
 1858SOL     OW 1676   2.550   3.524   1.716
 1858SOL    HW1 1677   2.494   3.605   1.725
 1858SOL    HW2 1678   2.602   3.528   1.630
 1862SOL     OW 1679   1.992   3.656   1.851
 1862SOL    HW1 1680   1.951   3.582   1.904
 1862SOL    HW2 1681   2.056   3.707   1.909
 1864SOL     OW 1682   2.692   3.135   1.422
 1864SOL    HW1 1683   2.687   3.168   1.517
 1864SOL    HW2 1684   2.606   3.154   1.376
 1868SOL     OW 1685   2.125   2.188   0.720
 1868SOL    HW1 1686   2.046   2.239   0.686
 1868SOL    HW2 1687   2.116   2.173   0.818
 1870SOL     OW 1688   2.684   2.864   1.372
 1870SOL    HW1 1689   2.724   2.863   1.280
 1870SOL    HW2 1690   2.694   2.956   1.412
 1873SOL     OW 1691   2.234   3.150   1.490
 1873SOL    HW1 1692   2.221   3.243   1.456
 1873SOL    HW2 1693   2.150   3.098   1.477
 1876SOL     OW 1694   2.876   2.098   0.971
 1876SOL    HW1 1695   2.868   2.062   0.878
 1876SOL    HW2 1696   2.874   2.022   1.036
 1878SOL     OW 1697   3.571   2.247   1.381
 1878SOL    HW1 1698   3.644   2.316   1.385
 1878SOL    HW2 1699   3.599   2.172   1.322
 1880SOL     OW 1700   1.967   2.875   1.726
 1880SOL    HW1 1701   1.890   2.842   1.780
 1880SOL    HW2 1702   2.052   2.845   1.768
 1881SOL     OW 1703   2.534   2.065   1.489
 1881SOL    HW1 1704   2.624   2.049   1.449
 1881SOL    HW2 1705   2.542   2.070   1.588
 1883SOL     OW 1706   3.302   2.718   1.398
 1883SOL    HW1 1707   3.245   2.770   1.335
 1883SOL    HW2 1708   3.398   2.730   1.374
 1885SOL     OW 1709   2.475   2.704   1.431
 1885SOL    HW1 1710   2.531   2.785   1.414
 1885SOL    HW2 1711   2.534   2.624   1.434
 1887SOL     OW 1712   2.578   2.427   1.708
 1887SOL    HW1 1713   2.597   2.492   1.782
 1887SOL    HW2 1714   2.638   2.347   1.717
 1888SOL     OW 1715   3.312   3.082   1.633
 1888SOL    HW1 1716   3.303   3.072   1.732
 1888SOL    HW2 1717   3.408   3.075   1.607
 1889SOL     OW 1718   2.252   3.603   1.560
 1889SOL    HW1 1719   2.161   3.644   1.558
 1889SOL    HW2 1720   2.245   3.509   1.592
 1890SOL     OW 1721   3.536   2.745   1.254
 1890SOL    HW1 1722   3.509   2.656   1.217
 1890SOL    HW2 1723   3.537   2.813   1.181
 1892SOL     OW 1724   2.456   2.607   0.652
 1892SOL    HW1 1725   2.506   2.692   0.633
 1892SOL    HW2 1726   2.368   2.609   0.604
 1893SOL     OW 1727   3.639   2.204   1.642
 1893SOL    HW1 1728   3.622   2.235   1.548
 1893SOL    HW2 1729   3.555   2.167   1.680
 1894SOL     OW 1730   3.592   2.796   1.517
 1894SOL    HW1 1731   3.630   2.887   1.532
 1894SOL    HW2 1732   3.584   2.779   1.418
 1897SOL     OW 1733   2.721   2.818   0.861
 1897SOL    HW1 1734   2.775   2.749   0.909
 1897SOL    HW2 1735   2.689   2.887   0.927
 1900SOL     OW 1736   2.083   3.176   1.844
 1900SOL    HW1 1737   2.018   3.103   1.823
 1900SOL    HW2 1738   2.087   3.190   1.942
 1902SOL     OW 1739   2.534   3.253   1.624
 1902SOL    HW1 1740   2.456   3.203   1.662
 1902SOL    HW2 1741   2.531   3.348   1.655
 1903SOL     OW 1742   3.686   2.054   1.227
 1903SOL    HW1 1743   3.682   1.964   1.271
 1903SOL    HW2 1744   3.689   2.043   1.128
 1904SOL     OW 1745   2.290   2.286   0.520
 1904SOL    HW1 1746   2.320   2.214   0.458
 1904SOL    HW2 1747   2.251   2.246   0.603
 1906SOL     OW 1748   2.179   2.409   1.280
 1906SOL    HW1 1749   2.217   2.350   1.352
 1906SOL    HW2 1750   2.219   2.383   1.192
 1908SOL     OW 1751   3.286   2.076   1.112
 1908SOL    HW1 1752   3.338   2.011   1.167
 1908SOL    HW2 1753   3.237   2.139   1.173
 1909SOL     OW 1754   2.863   1.896   1.154
 1909SOL    HW1 1755   2.800   1.824   1.123
 1909SOL    HW2 1756   2.956   1.860   1.154
 1911SOL     OW 1757   2.480   3.429   1.284
 1911SOL    HW1 1758   2.475   3.511   1.341
 1911SOL    HW2 1759   2.569   3.426   1.239
 1913SOL     OW 1760   3.162   2.315   0.691
 1913SOL    HW1 1761   3.103   2.395   0.695
 1913SOL    HW2 1762   3.177   2.280   0.784
 1917SOL     OW 1763   2.092   2.490   1.975
 1917SOL    HW1 1764   1.999   2.488   2.012
 1917SOL    HW2 1765   2.093   2.451   1.883
 1918SOL     OW 1766   2.087   2.137   2.858
 1918SOL    HW1 1767   2.122   2.120   2.950
 1918SOL    HW2 1768   1.999   2.092   2.846
 1919SOL     OW 1769   1.881   2.230   2.509
 1919SOL    HW1 1770   1.799   2.273   2.548
 1919SOL    HW2 1771   1.853   2.157   2.446
 1920SOL     OW 1772   2.431   3.137   3.027
 1920SOL    HW1 1773   2.338   3.130   2.990
 1920SOL    HW2 1774   2.442   3.226   3.071
 1921SOL     OW 1775   3.417   3.373   2.565
 1921SOL    HW1 1776   3.360   3.357   2.646
 1921SOL    HW2 1777   3.358   3.383   2.485
 1922SOL     OW 1778   2.997   2.565   2.579
 1922SOL    HW1 1779   3.054   2.643   2.554
 1922SOL    HW2 1780   2.937   2.591   2.655
 1923SOL     OW 1781   3.617   2.469   2.093
 1923SOL    HW1 1782   3.605   2.456   1.994
 1923SOL    HW2 1783   3.587   2.388   2.142
 1924SOL     OW 1784   2.630   3.006   2.885
 1924SOL    HW1 1785   2.552   3.023   2.945
 1924SOL    HW2 1786   2.664   3.093   2.849
 1925SOL     OW 1787   2.712   2.660   3.685
 1925SOL    HW1 1788   2.708   2.736   3.750
 1925SOL    HW2 1789   2.734   2.696   3.594
 1926SOL     OW 1790   2.547   2.874   2.527
 1926SOL    HW1 1791   2.616   2.858   2.597
 1926SOL    HW2 1792   2.474   2.931   2.565
 1927SOL     OW 1793   2.548   3.023   3.665
 1927SOL    HW1 1794   2.608   3.102   3.679
 1927SOL    HW2 1795   2.462   3.054   3.624
 1928SOL     OW 1796   2.197   3.297   2.923
 1928SOL    HW1 1797   2.119   3.266   2.870
 1928SOL    HW2 1798   2.255   3.355   2.866
 1930SOL     OW 1799   2.300   2.254   3.361
 1930SOL    HW1 1800   2.382   2.198   3.370
 1930SOL    HW2 1801   2.219   2.196   3.365
 1931SOL     OW 1802   3.465   2.309   2.599
 1931SOL    HW1 1803   3.391   2.355   2.549
 1931SOL    HW2 1804   3.516   2.377   2.652
 1932SOL     OW 1805   2.093   3.575   2.345
 1932SOL    HW1 1806   2.127   3.652   2.399
 1932SOL    HW2 1807   2.137   3.575   2.255
 1934SOL     OW 1808   2.092   3.296   2.400
 1934SOL    HW1 1809   2.066   3.392   2.400
 1934SOL    HW2 1810   2.021   3.242   2.445
 1935SOL     OW 1811   2.102   2.953   2.748
 1935SOL    HW1 1812   2.116   2.869   2.800
 1935SOL    HW2 1813   2.047   3.017   2.803
 1937SOL     OW 1814   2.468   2.826   1.985
 1937SOL    HW1 1815   2.475   2.910   1.931
 1937SOL    HW2 1816   2.514   2.839   2.073
 1938SOL     OW 1817   3.456   1.976   3.342
 1938SOL    HW1 1818   3.438   2.043   3.270
 1938SOL    HW2 1819   3.453   2.022   3.431
 1939SOL     OW 1820   1.984   2.505   2.425
 1939SOL    HW1 1821   1.939   2.417   2.442
 1939SOL    HW2 1822   1.983   2.559   2.509
 1941SOL     OW 1823   1.889   3.458   1.979
 1941SOL    HW1 1824   1.870   3.362   2.000
 1941SOL    HW2 1825   1.856   3.516   2.054
 1942SOL     OW 1826   3.551   2.784   2.474
 1942SOL    HW1 1827   3.646   2.755   2.482
 1942SOL    HW2 1828   3.543   2.849   2.399
 1943SOL     OW 1829   3.503   2.970   2.294
 1943SOL    HW1 1830   3.589   2.972   2.242
 1943SOL    HW2 1831   3.517   3.017   2.382
 1944SOL     OW 1832   1.975   2.599   3.459
 1944SOL    HW1 1833   2.063   2.586   3.504
 1944SOL    HW2 1834   1.962   2.696   3.437
 1945SOL     OW 1835   2.475   3.227   2.588
 1945SOL    HW1 1836   2.426   3.140   2.597
 1945SOL    HW2 1837   2.452   3.270   2.501
 1946SOL     OW 1838   3.155   3.090   3.285
 1946SOL    HW1 1839   3.192   3.017   3.227
 1946SOL    HW2 1840   3.207   3.095   3.370
 1947SOL     OW 1841   2.671   1.866   2.364
 1947SOL    HW1 1842   2.711   1.957   2.355
 1947SOL    HW2 1843   2.571   1.874   2.370
 1948SOL     OW 1844   2.059   2.838   3.126
 1948SOL    HW1 1845   2.148   2.793   3.112
 1948SOL    HW2 1846   1.986   2.773   3.107
 1949SOL     OW 1847   3.387   2.861   2.052
 1949SOL    HW1 1848   3.324   2.785   2.065
 1949SOL    HW2 1849   3.435   2.879   2.138
 1951SOL     OW 1850   2.179   2.113   3.663
 1951SOL    HW1 1851   2.250   2.184   3.669
 1951SOL    HW2 1852   2.091   2.152   3.691
 1952SOL     OW 1853   3.328   3.279   2.815
 1952SOL    HW1 1854   3.269   3.285   2.895
 1952SOL    HW2 1855   3.313   3.191   2.769
 1954SOL     OW 1856   2.460   2.591   2.132
 1954SOL    HW1 1857   2.484   2.660   2.064
 1954SOL    HW2 1858   2.382   2.624   2.186
 1955SOL     OW 1859   3.143   2.207   2.806
 1955SOL    HW1 1860   3.057   2.157   2.793
 1955SOL    HW2 1861   3.205   2.153   2.862
 1956SOL     OW 1862   3.438   3.524   2.169
 1956SOL    HW1 1863   3.527   3.570   2.172
 1956SOL    HW2 1864   3.417   3.500   2.074
 1957SOL     OW 1865   2.669   2.467   3.327
 1957SOL    HW1 1866   2.622   2.464   3.416
 1957SOL    HW2 1867   2.618   2.412   3.261
 1958SOL     OW 1868   3.256   2.331   3.536
 1958SOL    HW1 1869   3.236   2.374   3.624
 1958SOL    HW2 1870   3.334   2.269   3.545
 1959SOL     OW 1871   2.835   2.752   3.434
 1959SOL    HW1 1872   2.881   2.668   3.405
 1959SOL    HW2 1873   2.779   2.786   3.359
 1960SOL     OW 1874   2.853   2.272   3.104
 1960SOL    HW1 1875   2.776   2.306   3.158
 1960SOL    HW2 1876   2.819   2.221   3.025
 1961SOL     OW 1877   2.903   2.563   2.291
 1961SOL    HW1 1878   2.929   2.559   2.387
 1961SOL    HW2 1879   2.818   2.512   2.277
 1962SOL     OW 1880   1.938   2.673   2.651
 1962SOL    HW1 1881   2.037   2.661   2.660
 1962SOL    HW2 1882   1.914   2.768   2.672
 1964SOL     OW 1883   2.727   2.210   2.057
 1964SOL    HW1 1884   2.786   2.273   2.008
 1964SOL    HW2 1885   2.746   2.116   2.028
 1966SOL     OW 1886   3.224   3.006   2.407
 1966SOL    HW1 1887   3.307   2.977   2.359
 1966SOL    HW2 1888   3.175   3.073   2.351
 1967SOL     OW 1889   2.412   2.058   2.747
 1967SOL    HW1 1890   2.407   2.053   2.847
 1967SOL    HW2 1891   2.414   2.154   2.718
 1968SOL     OW 1892   2.870   3.318   2.339
 1968SOL    HW1 1893   2.824   3.390   2.287
 1968SOL    HW2 1894   2.866   3.338   2.437
 1969SOL     OW 1895   2.213   3.663   2.715
 1969SOL    HW1 1896   2.263   3.577   2.721
 1969SOL    HW2 1897   2.278   3.740   2.712
 1970SOL     OW 1898   3.657   2.928   2.735
 1970SOL    HW1 1899   3.595   2.913   2.659
 1970SOL    HW2 1900   3.605   2.939   2.820
 1972SOL     OW 1901   2.183   2.805   2.104
 1972SOL    HW1 1902   2.265   2.844   2.062
 1972SOL    HW2 1903   2.156   2.723   2.055
 1973SOL     OW 1904   3.320   2.597   2.590
 1973SOL    HW1 1905   3.315   2.532   2.665
 1973SOL    HW2 1906   3.400   2.656   2.603
 1974SOL     OW 1907   2.323   3.128   3.589
 1974SOL    HW1 1908   2.273   3.129   3.503
 1974SOL    HW2 1909   2.260   3.110   3.665
 1975SOL     OW 1910   2.973   3.638   2.099
 1975SOL    HW1 1911   2.913   3.576   2.149
 1975SOL    HW2 1912   3.004   3.594   2.014
 1976SOL     OW 1913   2.064   2.147   3.360
 1976SOL    HW1 1914   1.984   2.207   3.347
 1976SOL    HW2 1915   2.054   2.098   3.446
 1977SOL     OW 1916   3.494   3.239   1.943
 1977SOL    HW1 1917   3.462   3.333   1.933
 1977SOL    HW2 1918   3.418   3.176   1.931
 1978SOL     OW 1919   2.326   3.605   2.185
 1978SOL    HW1 1920   2.359   3.644   2.271
 1978SOL    HW2 1921   2.402   3.598   2.120
 1979SOL     OW 1922   3.262   1.969   2.288
 1979SOL    HW1 1923   3.238   1.932   2.198
 1979SOL    HW2 1924   3.361   1.985   2.292
 1980SOL     OW 1925   2.111   3.647   3.103
 1980SOL    HW1 1926   2.168   3.582   3.153
 1980SOL    HW2 1927   2.095   3.614   3.010
 1981SOL     OW 1928   2.802   3.560   2.766
 1981SOL    HW1 1929   2.882   3.503   2.787
 1981SOL    HW2 1930   2.753   3.520   2.689
 1982SOL     OW 1931   2.244   2.562   2.342
 1982SOL    HW1 1932   2.289   2.472   2.339
 1982SOL    HW2 1933   2.150   2.551   2.375
 1984SOL     OW 1934   2.476   1.984   1.979
 1984SOL    HW1 1935   2.574   1.962   1.986
 1984SOL    HW2 1936   2.445   1.967   1.886
 1985SOL     OW 1937   2.643   2.126   3.611
 1985SOL    HW1 1938   2.710   2.065   3.654
 1985SOL    HW2 1939   2.570   2.145   3.676
 1986SOL     OW 1940   2.750   3.376   3.057
 1986SOL    HW1 1941   2.727   3.351   2.963
 1986SOL    HW2 1942   2.811   3.307   3.096
 1987SOL     OW 1943   3.213   2.452   3.295
 1987SOL    HW1 1944   3.241   2.409   3.380
 1987SOL    HW2 1945   3.238   2.548   3.296
 1988SOL     OW 1946   2.665   3.264   2.786
 1988SOL    HW1 1947   2.755   3.278   2.744
 1988SOL    HW2 1948   2.594   3.266   2.715
 1989SOL     OW 1949   2.784   2.365   2.761
 1989SOL    HW1 1950   2.759   2.356   2.665
 1989SOL    HW2 1951   2.832   2.283   2.792
 1990SOL     OW 1952   2.401   1.926   2.374
 1990SOL    HW1 1953   2.320   1.927   2.432
 1990SOL    HW2 1954   2.404   2.009   2.319
 1991SOL     OW 1955   3.296   3.050   1.903
 1991SOL    HW1 1956   3.328   2.974   1.960
 1991SOL    HW2 1957   3.204   3.077   1.933
 1992SOL     OW 1958   2.159   1.897   2.033
 1992SOL    HW1 1959   2.208   1.981   2.012
 1992SOL    HW2 1960   2.221   1.832   2.078
 1993SOL     OW 1961   2.797   2.098   2.342
 1993SOL    HW1 1962   2.749   2.139   2.264
 1993SOL    HW2 1963   2.896   2.096   2.323
 1994SOL     OW 1964   2.938   2.545   3.326
 1994SOL    HW1 1965   2.858   2.484   3.329
 1994SOL    HW2 1966   3.019   2.492   3.302
 1995SOL     OW 1967   3.089   3.432   2.655
 1995SOL    HW1 1968   3.110   3.506   2.590
 1995SOL    HW2 1969   3.157   3.432   2.728
 1996SOL     OW 1970   2.321   3.014   2.603
 1996SOL    HW1 1971   2.250   2.987   2.668
 1996SOL    HW2 1972   2.295   2.986   2.510
 1997SOL     OW 1973   3.133   3.659   2.453
 1997SOL    HW1 1974   3.177   3.723   2.389
 1997SOL    HW2 1975   3.083   3.711   2.523
 1998SOL     OW 1976   2.894   2.411   1.878
 1998SOL    HW1 1977   2.853   2.493   1.839
 1998SOL    HW2 1978   2.958   2.437   1.951
 1999SOL     OW 1979   1.940   2.418   3.248
 1999SOL    HW1 1980   2.032   2.417   3.207
 1999SOL    HW2 1981   1.934   2.492   3.315
 2000SOL     OW 1982   2.423   2.084   3.009
 2000SOL    HW1 1983   2.461   2.000   3.046
 2000SOL    HW2 1984   2.335   2.103   3.053
 2001SOL     OW 1985   2.728   2.316   2.504
 2001SOL    HW1 1986   2.696   2.388   2.442
 2001SOL    HW2 1987   2.752   2.235   2.451
 2002SOL     OW 1988   2.879   1.901   2.615
 2002SOL    HW1 1989   2.807   1.906   2.546
 2002SOL    HW2 1990   2.855   1.832   2.684
 2003SOL     OW 1991   3.291   3.035   2.729
 2003SOL    HW1 1992   3.236   2.951   2.722
 2003SOL    HW2 1993   3.317   3.064   2.637
 2004SOL     OW 1994   3.328   2.452   2.854
 2004SOL    HW1 1995   3.298   2.357   2.861
 2004SOL    HW2 1996   3.401   2.468   2.920
 2005SOL     OW 1997   3.719   2.695   2.239
 2005SOL    HW1 1998   3.761   2.631   2.303
 2005SOL    HW2 1999   3.681   2.644   2.161
 2006SOL     OW 2000   2.350   3.247   2.036
 2006SOL    HW1 2001   2.263   3.232   2.083
 2006SOL    HW2 2002   2.333   3.273   1.941
 2007SOL     OW 2003   3.526   3.142   2.519
 2007SOL    HW1 2004   3.625   3.150   2.533
 2007SOL    HW2 2005   3.481   3.226   2.550
 2008SOL     OW 2006   3.252   2.437   1.940
 2008SOL    HW1 2007   3.198   2.416   2.021
 2008SOL    HW2 2008   3.343   2.396   1.949
 2010SOL     OW 2009   2.926   3.209   3.202
 2010SOL    HW1 2010   2.846   3.186   3.257
 2010SOL    HW2 2011   3.009   3.183   3.251
 2012SOL     OW 2012   2.973   3.057   2.962
 2012SOL    HW1 2013   2.933   3.101   3.043
 2012SOL    HW2 2014   2.932   3.094   2.879
 2013SOL     OW 2015   3.500   2.961   2.941
 2013SOL    HW1 2016   3.505   3.042   3.000
 2013SOL    HW2 2017   3.414   2.963   2.890
 2014SOL     OW 2018   2.777   1.951   3.264
 2014SOL    HW1 2019   2.802   1.931   3.169
 2014SOL    HW2 2020   2.849   2.007   3.306
 2015SOL     OW 2021   2.842   2.978   3.581
 2015SOL    HW1 2022   2.743   2.984   3.591
 2015SOL    HW2 2023   2.865   2.898   3.525
 2016SOL     OW 2024   2.567   2.912   2.230
 2016SOL    HW1 2025   2.553   2.919   2.329
 2016SOL    HW2 2026   2.651   2.861   2.212
 2017SOL     OW 2027   2.272   2.675   3.113
 2017SOL    HW1 2028   2.358   2.687   3.163
 2017SOL    HW2 2029   2.230   2.588   3.140
 2018SOL     OW 2030   3.136   2.248   3.124
 2018SOL    HW1 2031   3.157   2.322   3.188
 2018SOL    HW2 2032   3.047   2.265   3.081
 2019SOL     OW 2033   1.926   3.426   3.193
 2019SOL    HW1 2034   1.880   3.508   3.159
 2019SOL    HW2 2035   2.024   3.445   3.202
 2020SOL     OW 2036   2.229   2.962   2.363
 2020SOL    HW1 2037   2.222   3.045   2.307
 2020SOL    HW2 2038   2.233   2.882   2.303
 2021SOL     OW 2039   2.428   2.399   2.727
 2021SOL    HW1 2040   2.440   2.465   2.653
 2021SOL    HW2 2041   2.474   2.433   2.810
 2022SOL     OW 2042   3.114   3.210   2.250
 2022SOL    HW1 2043   3.164   3.287   2.290
 2022SOL    HW2 2044   3.019   3.212   2.282
 2023SOL     OW 2045   3.134   3.307   3.004
 2023SOL    HW1 2046   3.181   3.320   3.091
 2023SOL    HW2 2047   3.068   3.233   3.013
 2024SOL     OW 2048   3.444   2.501   2.334
 2024SOL    HW1 2049   3.413   2.562   2.407
 2024SOL    HW2 2050   3.494   2.553   2.265
 2025SOL     OW 2051   2.216   3.372   3.191
 2025SOL    HW1 2052   2.195   3.328   3.104
 2025SOL    HW2 2053   2.313   3.398   3.194
 2026SOL     OW 2054   2.264   2.613   3.460
 2026SOL    HW1 2055   2.332   2.668   3.413
 2026SOL    HW2 2056   2.304   2.525   3.487
 2028SOL     OW 2057   2.875   1.967   3.632
 2028SOL    HW1 2058   2.881   2.052   3.580
 2028SOL    HW2 2059   2.907   1.891   3.575
 2029SOL     OW 2060   2.366   1.912   3.602
 2029SOL    HW1 2061   2.324   1.855   3.532
 2029SOL    HW2 2062   2.300   1.981   3.634
 2030SOL     OW 2063   2.435   2.732   2.891
 2030SOL    HW1 2064   2.479   2.821   2.882
 2030SOL    HW2 2065   2.372   2.732   2.968
 2031SOL     OW 2066   3.222   2.724   2.907
 2031SOL    HW1 2067   3.147   2.724   2.841
 2031SOL    HW2 2068   3.259   2.632   2.916
 2032SOL     OW 2069   3.071   2.387   2.137
 2032SOL    HW1 2070   3.084   2.303   2.191
 2032SOL    HW2 2071   3.042   2.461   2.197
 2033SOL     OW 2072   2.169   2.075   3.093
 2033SOL    HW1 2073   2.146   2.112   3.183
 2033SOL    HW2 2074   2.139   1.980   3.087
 2034SOL     OW 2075   1.899   3.172   3.144
 2034SOL    HW1 2076   1.952   3.123   3.212
 2034SOL    HW2 2077   1.921   3.270   3.149
 2035SOL     OW 2078   2.594   2.496   2.926
 2035SOL    HW1 2079   2.653   2.470   2.850
 2035SOL    HW2 2080   2.566   2.592   2.915
 2037SOL     OW 2081   2.169   1.925   2.480
 2037SOL    HW1 2082   2.158   2.019   2.513
 2037SOL    HW2 2083   2.164   1.862   2.557
 2038SOL     OW 2084   3.484   2.229   2.236
 2038SOL    HW1 2085   3.486   2.153   2.300
 2038SOL    HW2 2086   3.436   2.306   2.276
 2039SOL     OW 2087   2.885   2.628   2.828
 2039SOL    HW1 2088   2.900   2.649   2.924
 2039SOL    HW2 2089   2.855   2.533   2.819
 2042SOL     OW 2090   2.212   2.760   3.666
 2042SOL    HW1 2091   2.288   2.804   3.714
 2042SOL    HW2 2092   2.247   2.713   3.584
 2043SOL     OW 2093   3.402   2.136   1.987
 2043SOL    HW1 2094   3.341   2.061   2.010
 2043SOL    HW2 2095   3.424   2.188   2.070
 2044SOL     OW 2096   3.165   2.700   1.904
 2044SOL    HW1 2097   3.199   2.607   1.919
 2044SOL    HW2 2098   3.183   2.727   1.809
 2045SOL     OW 2099   2.930   3.195   2.711
 2045SOL    HW1 2100   2.937   3.111   2.656
 2045SOL    HW2 2101   2.992   3.264   2.675
 2046SOL     OW 2102   2.181   2.672   2.811
 2046SOL    HW1 2103   2.274   2.708   2.816
 2046SOL    HW2 2104   2.175   2.587   2.863
 2047SOL     OW 2105   2.201   2.371   2.868
 2047SOL    HW1 2106   2.149   2.288   2.851
 2047SOL    HW2 2107   2.278   2.376   2.804
 2048SOL     OW 2108   3.000   2.242   3.540
 2048SOL    HW1 2109   2.955   2.305   3.604
 2048SOL    HW2 2110   3.093   2.273   3.523
 2049SOL     OW 2111   3.022   2.069   3.339
 2049SOL    HW1 2112   3.022   2.133   3.416
 2049SOL    HW2 2113   3.050   2.117   3.256
 2050SOL     OW 2114   1.870   3.188   2.062
 2050SOL    HW1 2115   1.777   3.209   2.031
 2050SOL    HW2 2116   1.880   3.089   2.075
 2051SOL     OW 2117   1.950   3.663   2.789
 2051SOL    HW1 2118   1.908   3.577   2.762
 2051SOL    HW2 2119   2.044   3.666   2.755
 2052SOL     OW 2120   2.366   3.430   2.772
 2052SOL    HW1 2121   2.432   3.504   2.781
 2052SOL    HW2 2122   2.410   3.351   2.730
 2053SOL     OW 2123   2.864   2.658   3.100
 2053SOL    HW1 2124   2.905   2.626   3.186
 2053SOL    HW2 2125   2.768   2.631   3.097
 2054SOL     OW 2126   1.902   2.406   2.976
 2054SOL    HW1 2127   1.987   2.373   2.935
 2054SOL    HW2 2128   1.915   2.421   3.074
 2055SOL     OW 2129   2.051   2.382   3.584
 2055SOL    HW1 2130   2.110   2.342   3.514
 2055SOL    HW2 2131   1.993   2.453   3.543
 2056SOL     OW 2132   3.231   2.812   3.522
 2056SOL    HW1 2133   3.270   2.901   3.542
 2056SOL    HW2 2134   3.241   2.792   3.425
 2057SOL     OW 2135   2.677   2.434   2.187
 2057SOL    HW1 2136   2.684   2.345   2.141
 2057SOL    HW2 2137   2.583   2.468   2.179
 2058SOL     OW 2138   3.519   2.466   3.068
 2058SOL    HW1 2139   3.481   2.397   3.130
 2058SOL    HW2 2140   3.601   2.430   3.024
 2060SOL     OW 2141   2.533   2.326   3.131
 2060SOL    HW1 2142   2.499   2.237   3.101
 2060SOL    HW2 2143   2.559   2.380   3.051
 2062SOL     OW 2144   2.021   2.999   3.328
 2062SOL    HW1 2145   2.043   2.938   3.404
 2062SOL    HW2 2146   2.031   2.950   3.242
 2063SOL     OW 2147   3.209   2.921   3.096
 2063SOL    HW1 2148   3.233   2.858   3.022
 2063SOL    HW2 2149   3.119   2.961   3.078
 2064SOL     OW 2150   3.164   2.717   2.171
 2064SOL    HW1 2151   3.078   2.686   2.213
 2064SOL    HW2 2152   3.160   2.703   2.072
 2067SOL     OW 2153   1.945   3.120   2.884
 2067SOL    HW1 2154   1.940   3.119   2.984
 2067SOL    HW2 2155   1.862   3.079   2.846
 2069SOL     OW 2156   3.588   1.997   2.385
 2069SOL    HW1 2157   3.661   1.980   2.318
 2069SOL    HW2 2158   3.557   1.910   2.423
 2070SOL     OW 2159   3.250   3.435   2.339
 2070SOL    HW1 2160   3.317   3.447   2.265
 2070SOL    HW2 2161   3.210   3.524   2.362
 2072SOL     OW 2162   3.142   2.789   2.534
 2072SOL    HW1 2163   3.202   2.708   2.536
 2072SOL    HW2 2164   3.182   2.858   2.474
 2073SOL     OW 2165   2.692   3.135   3.284
 2073SOL    HW1 2166   2.687   3.168   3.379
 2073SOL    HW2 2167   2.606   3.154   3.238
 2074SOL     OW 2168   2.534   3.478   2.016
 2074SOL    HW1 2169   2.543   3.488   1.917
 2074SOL    HW2 2170   2.494   3.389   2.037
 2076SOL     OW 2171   3.703   2.037   2.825
 2076SOL    HW1 2172   3.742   1.952   2.789
 2076SOL    HW2 2173   3.605   2.039   2.806
 2077SOL     OW 2174   2.125   2.188   2.582
 2077SOL    HW1 2175   2.046   2.239   2.548
 2077SOL    HW2 2176   2.116   2.173   2.680
 2078SOL     OW 2177   3.056   3.474   1.893
 2078SOL    HW1 2178   3.062   3.381   1.930
 2078SOL    HW2 2179   2.997   3.474   1.813
 2079SOL     OW 2180   2.684   2.864   3.234
 2079SOL    HW1 2181   2.724   2.863   3.142
 2079SOL    HW2 2182   2.694   2.956   3.274
 2080SOL     OW 2183   2.778   2.772   2.153
 2080SOL    HW1 2184   2.841   2.810   2.085
 2080SOL    HW2 2185   2.818   2.689   2.192
 2081SOL     OW 2186   3.366   3.469   1.906
 2081SOL    HW1 2187   3.274   3.506   1.913
 2081SOL    HW2 2188   3.404   3.489   1.816
 2082SOL     OW 2189   2.234   3.150   3.352
 2082SOL    HW1 2190   2.221   3.243   3.318
 2082SOL    HW2 2191   2.150   3.098   3.339
 2084SOL     OW 2192   2.901   2.960   2.558
 2084SOL    HW1 2193   2.831   2.913   2.612
 2084SOL    HW2 2194   2.960   2.892   2.515
 2085SOL     OW 2195   2.876   2.098   2.833
 2085SOL    HW1 2196   2.868   2.062   2.740
 2085SOL    HW2 2197   2.874   2.022   2.898
 2086SOL     OW 2198   2.452   3.349   2.353
 2086SOL    HW1 2199   2.494   3.291   2.283
 2086SOL    HW2 2200   2.408   3.428   2.309
 2087SOL     OW 2201   3.571   2.247   3.243
 2087SOL    HW1 2202   3.644   2.316   3.247
 2087SOL    HW2 2203   3.599   2.172   3.184
 2088SOL     OW 2204   2.117   3.210   2.152
 2088SOL    HW1 2205   2.021   3.211   2.125
 2088SOL    HW2 2206   2.129   3.263   2.236
 2089SOL     OW 2207   1.967   2.875   3.588
 2089SOL    HW1 2208   1.890   2.842   3.642
 2089SOL    HW2 2209   2.052   2.845   3.630
 2090SOL     OW 2210   2.534   2.065   3.351
 2090SOL    HW1 2211   2.624   2.049   3.311
 2090SOL    HW2 2212   2.542   2.070   3.450
 2091SOL     OW 2213   1.937   2.207   1.895
 2091SOL    HW1 2214   1.845   2.179   1.866
 2091SOL    HW2 2215   1.968   2.284   1.839
 2092SOL     OW 2216   3.302   2.718   3.260
 2092SOL    HW1 2217   3.245   2.770   3.197
 2092SOL    HW2 2218   3.398   2.730   3.236
 2093SOL     OW 2219   3.045   3.197   1.981
 2093SOL    HW1 2220   2.946   3.186   1.983
 2093SOL    HW2 2221   3.079   3.212   2.074
 2094SOL     OW 2222   2.475   2.704   3.293
 2094SOL    HW1 2223   2.531   2.785   3.276
 2094SOL    HW2 2224   2.534   2.624   3.296
 2096SOL     OW 2225   2.578   2.427   3.570
 2096SOL    HW1 2226   2.597   2.492   3.644
 2096SOL    HW2 2227   2.638   2.347   3.579
 2099SOL     OW 2228   3.536   2.745   3.116
 2099SOL    HW1 2229   3.509   2.656   3.079
 2099SOL    HW2 2230   3.537   2.813   3.043
 2100SOL     OW 2231   3.087   2.187   2.311
 2100SOL    HW1 2232   3.152   2.113   2.300
 2100SOL    HW2 2233   3.107   2.237   2.395
 2101SOL     OW 2234   2.456   2.607   2.514
 2101SOL    HW1 2235   2.506   2.692   2.495
 2101SOL    HW2 2236   2.368   2.609   2.466
 2104SOL     OW 2237   2.721   3.236   1.878
 2104SOL    HW1 2238   2.675   3.251   1.966
 2104SOL    HW2 2239   2.765   3.321   1.848
 2105SOL     OW 2240   2.523   3.652   2.815
 2105SOL    HW1 2241   2.477   3.740   2.802
 2105SOL    HW2 2242   2.622   3.664   2.808
 2106SOL     OW 2243   2.721   2.818   2.723
 2106SOL    HW1 2244   2.775   2.749   2.771
 2106SOL    HW2 2245   2.689   2.887   2.789
 2107SOL     OW 2246   2.945   2.846   1.949
 2107SOL    HW1 2247   2.922   2.899   1.867
 2107SOL    HW2 2248   3.026   2.790   1.930
 2109SOL     OW 2249   2.083   3.176   3.706
 2109SOL    HW1 2250   2.018   3.103   3.685
 2109SOL    HW2 2251   2.087   3.190   3.804
 2110SOL     OW 2252   1.941   3.102   2.515
 2110SOL    HW1 2253   1.940   3.055   2.603
 2110SOL    HW2 2254   2.023   3.074   2.464
 2111SOL     OW 2255   2.534   3.253   3.486
 2111SOL    HW1 2256   2.456   3.203   3.524
 2111SOL    HW2 2257   2.531   3.348   3.517
 2112SOL     OW 2258   3.686   2.054   3.089
 2112SOL    HW1 2259   3.682   1.964   3.133
 2112SOL    HW2 2260   3.689   2.043   2.990
 2114SOL     OW 2261   2.179   2.409   3.142
 2114SOL    HW1 2262   2.217   2.350   3.214
 2114SOL    HW2 2263   2.219   2.383   3.054
 2115SOL     OW 2264   2.674   3.448   2.549
 2115SOL    HW1 2265   2.706   3.458   2.455
 2115SOL    HW2 2266   2.595   3.386   2.551
 2116SOL     OW 2267   3.286   2.076   2.974
 2116SOL    HW1 2268   3.338   2.011   3.029
 2116SOL    HW2 2269   3.237   2.139   3.035
 2117SOL     OW 2270   2.863   1.896   3.016
 2117SOL    HW1 2271   2.800   1.824   2.985
 2117SOL    HW2 2272   2.956   1.860   3.016
 2118SOL     OW 2273   2.632   3.192   2.163
 2118SOL    HW1 2274   2.586   3.105   2.180
 2118SOL    HW2 2275   2.723   3.189   2.204
 2119SOL     OW 2276   2.480   3.429   3.146
 2119SOL    HW1 2277   2.475   3.511   3.203
 2119SOL    HW2 2278   2.569   3.426   3.101
 2120SOL     OW 2279   3.214   1.914   2.030
 2120SOL    HW1 2280   3.249   1.873   1.946
 2120SOL    HW2 2281   3.124   1.876   2.050
 2121SOL     OW 2282   3.162   2.315   2.553
 2121SOL    HW1 2283   3.103   2.395   2.557
 2121SOL    HW2 2284   3.177   2.280   2.646
 2122SOL     OW 2285   3.455   2.083   2.744
 2122SOL    HW1 2286   3.371   2.082   2.798
 2122SOL    HW2 2287   3.457   2.166   2.688
 2123SOL     OW 2288   1.901   2.939   2.162
 2123SOL    HW1 2289   2.000   2.928   2.153
 2123SOL    HW2 2290   1.861   2.853   2.194
 2124SOL     OW 2291   2.737   3.508   2.199
 2124SOL    HW1 2292   2.660   3.473   2.145
 2124SOL    HW2 2293   2.705   3.579   2.261
 2125SOL     OW 2294   2.092   2.490   3.837
 2125SOL    HW1 2295   1.999   2.488   3.874
 2125SOL    HW2 2296   2.093   2.451   3.745
 2129SOL     OW 2297   2.468   2.826   3.847
 2129SOL    HW1 2298   2.475   2.910   3.793
 2129SOL    HW2 2299   2.514   2.839   3.935
 2143SOL     OW 2300   2.727   2.210   3.919
 2143SOL    HW1 2301   2.786   2.273   3.870
 2143SOL    HW2 2302   2.746   2.116   3.890
 2154SOL     OW 2303   2.476   1.984   3.841
 2154SOL    HW1 2304   2.574   1.962   3.848
 2154SOL    HW2 2305   2.445   1.967   3.748
 2157SOL     OW 2306   2.159   1.897   3.895
 2157SOL    HW1 2307   2.208   1.981   3.874
 2157SOL    HW2 2308   2.221   1.832   3.940
 2161SOL     OW 2309   2.894   2.411   3.740
 2161SOL    HW1 2310   2.853   2.493   3.701
 2161SOL    HW2 2311   2.958   2.437   3.813
 2178SOL     OW 2312   2.335   2.362   3.915
 2178SOL    HW1 2313   2.396   2.442   3.919
 2178SOL    HW2 2314   2.240   2.393   3.922
 2189SOL     OW 2315   1.937   2.207   3.757
 2189SOL    HW1 2316   1.845   2.179   3.728
 2189SOL    HW2 2317   1.968   2.284   3.701
 2244SOL     OW 2318   2.875   3.829   1.770
 2244SOL    HW1 2319   2.881   3.914   1.718
 2244SOL    HW2 2320   2.907   3.753   1.713
 2245SOL     OW 2321   2.366   3.774   1.740
 2245SOL    HW1 2322   2.324   3.717   1.670
 2245SOL    HW2 2323   2.300   3.843   1.772
 2291SOL     OW 2324   2.671   3.728   2.364
 2291SOL    HW1 2325   2.711   3.819   2.355
 2291SOL    HW2 2326   2.571   3.736   2.370
 2300SOL     OW 2327   2.412   3.920   2.747
 2300SOL    HW1 2328   2.407   3.915   2.847
 2300SOL    HW2 2329   2.414   4.016   2.718
 2305SOL     OW 2330   2.476   3.846   1.979
 2305SOL    HW1 2331   2.574   3.824   1.986
 2305SOL    HW2 2332   2.445   3.829   1.886
 2309SOL     OW 2333   2.401   3.788   2.374
 2309SOL    HW1 2334   2.320   3.789   2.432
 2309SOL    HW2 2335   2.404   3.871   2.319
 2310SOL     OW 2336   2.159   3.759   2.033
 2310SOL    HW1 2337   2.208   3.843   2.012
 2310SOL    HW2 2338   2.221   3.694   2.078
 2317SOL     OW 2339   2.879   3.763   2.615
 2317SOL    HW1 2340   2.807   3.768   2.546
 2317SOL    HW2 2341   2.855   3.694   2.684
 2319SOL     OW 2342   2.389   3.980   2.190
 2319SOL    HW1 2343   2.416   3.921   2.115
 2319SOL    HW2 2344   2.389   4.075   2.159
 2329SOL     OW 2345   2.169   3.787   2.480
 2329SOL    HW1 2346   2.158   3.881   2.513
 2329SOL    HW2 2347   2.164   3.724   2.557
 2350SOL     OW 2348   1.934   3.890   2.180
 2350SOL    HW1 2349   1.917   3.973   2.126
 2350SOL    HW2 2350   2.024   3.853   2.158
 2455SOL     OW 2351   3.854   1.794   1.851
 2455SOL    HW1 2352   3.813   1.720   1.904
 2455SOL    HW2 2353   3.918   1.845   1.909
 2483SOL     OW 2354   3.751   1.596   1.979
 2483SOL    HW1 2355   3.732   1.500   2.000
 2483SOL    HW2 2356   3.718   1.654   2.054
 2523SOL     OW 2357   3.732   1.326   2.062
 2523SOL    HW1 2358   3.639   1.347   2.031
 2523SOL    HW2 2359   3.742   1.227   2.075
 2524SOL     OW 2360   3.812   1.801   2.789
 2524SOL    HW1 2361   3.770   1.715   2.762
 2524SOL    HW2 2362   3.906   1.804   2.755
 2596SOL     OW 2363   3.837   2.599   1.597
 2596SOL    HW1 2364   3.925   2.586   1.642
 2596SOL    HW2 2365   3.824   2.696   1.575
 2639SOL     OW 2366   3.913   2.382   1.722
 2639SOL    HW1 2367   3.972   2.342   1.652
 2639SOL    HW2 2368   3.855   2.453   1.681
 2663SOL     OW 2369   3.954   2.490   1.975
 2663SOL    HW1 2370   3.861   2.488   2.012
 2663SOL    HW2 2371   3.955   2.451   1.883
 2665SOL     OW 2372   3.743   2.230   2.509
 2665SOL    HW1 2373   3.661   2.273   2.548
 2665SOL    HW2 2374   3.715   2.157   2.446
 2673SOL     OW 2375   3.846   2.505   2.425
 2673SOL    HW1 2376   3.801   2.417   2.442
 2673SOL    HW2 2377   3.845   2.559   2.509
 2681SOL     OW 2378   3.800   2.673   2.651
 2681SOL    HW1 2379   3.899   2.661   2.660
 2681SOL    HW2 2380   3.776   2.768   2.672
 2718SOL     OW 2381   3.764   2.406   2.976
 2718SOL    HW1 2382   3.849   2.373   2.935
 2718SOL    HW2 2383   3.777   2.421   3.074
 2733SOL     OW 2384   3.799   2.207   1.895
 2733SOL    HW1 2385   3.707   2.179   1.866
 2733SOL    HW2 2386   3.830   2.284   1.839
 2734SOL     OW 2387   3.796   2.028   2.180
 2734SOL    HW1 2388   3.779   2.111   2.126
 2734SOL    HW2 2389   3.886   1.991   2.158
 2743SOL     OW 2390   3.763   2.939   2.162
 2743SOL    HW1 2391   3.862   2.928   2.153
 2743SOL    HW2 2392   3.723   2.853   2.194
   4.43518   4.43518   4.43518
