mobley_3144334_GMX.gro created by acpype (v: 2023.10.27) on Thu May 21 00:17:25 2026
 2401
    1MOL     C1    1   2.348   2.342   2.186
    1MOL     C2    2   2.242   2.400   2.254
    1MOL     C3    3   2.449   2.278   2.396
    1MOL     C4    4   2.452   2.281   2.257
    1MOL     C5    5   2.238   2.396   2.394
    1MOL     C6    6   2.342   2.336   2.465
    1MOL     C7    7   2.566   2.219   2.183
    1MOL     C8    8   2.123   2.459   2.465
    1MOL     O1    9   2.340   2.332   2.601
    1MOL     H1   10   2.350   2.345   2.077
    1MOL     H2   11   2.161   2.447   2.198
    1MOL     H3   12   2.529   2.230   2.451
    1MOL     H4   13   2.644   2.187   2.254
    1MOL     H5   14   2.534   2.131   2.125
    1MOL     H6   15   2.611   2.289   2.112
    1MOL     H7   16   2.131   2.440   2.573
    1MOL     H8   17   2.120   2.568   2.449
    1MOL     H9   18   2.028   2.419   2.429
    1MOL    H10   19   2.277   2.398   2.633
   14SOL     OW   20   1.460   1.505   1.339
   14SOL    HW1   21   1.484   1.599   1.365
   14SOL    HW2   22   1.444   1.451   1.421
   18SOL     OW   23   1.127   1.341   1.690
   18SOL    HW1   24   1.174   1.341   1.778
   18SOL    HW2   25   1.079   1.254   1.679
   31SOL     OW   26   1.293   1.228   1.423
   31SOL    HW1   27   1.330   1.155   1.365
   31SOL    HW2   28   1.345   1.233   1.508
   35SOL     OW   29   1.187   1.792   1.616
   35SOL    HW1   30   1.211   1.852   1.540
   35SOL    HW2   31   1.194   1.697   1.586
   56SOL     OW   32   1.227   1.550   1.506
   56SOL    HW1   33   1.233   1.473   1.570
   56SOL    HW2   34   1.175   1.524   1.426
   95SOL     OW   35   1.754   1.223   1.588
   95SOL    HW1   36   1.845   1.184   1.575
   95SOL    HW2   37   1.762   1.319   1.612
   97SOL     OW   38   1.592   1.629   1.625
   97SOL    HW1   39   1.619   1.663   1.535
   97SOL    HW2   40   1.671   1.591   1.671
  122SOL     OW   41   1.728   0.935   1.854
  122SOL    HW1   42   1.682   0.928   1.765
  122SOL    HW2   43   1.666   0.979   1.920
  126SOL     OW   44   0.980   1.573   1.700
  126SOL    HW1   45   0.960   1.617   1.612
  126SOL    HW2   46   1.019   1.482   1.684
  127SOL     OW   47   1.859   1.518   1.605
  127SOL    HW1   48   1.873   1.545   1.510
  127SOL    HW2   49   1.942   1.540   1.658
  147SOL     OW   50   0.930   1.678   1.465
  147SOL    HW1   51   0.906   1.660   1.370
  147SOL    HW2   52   0.960   1.772   1.475
  152SOL     OW   53   1.759   1.747   1.154
  152SOL    HW1   54   1.820   1.777   1.081
  152SOL    HW2   55   1.721   1.658   1.132
  153SOL     OW   56   1.252   1.731   1.128
  153SOL    HW1   57   1.336   1.736   1.074
  153SOL    HW2   58   1.229   1.635   1.146
  163SOL     OW   59   1.650   1.720   1.394
  163SOL    HW1   60   1.703   1.730   1.310
  163SOL    HW2   61   1.623   1.810   1.428
  171SOL     OW   62   1.614   1.292   1.289
  171SOL    HW1   63   1.674   1.295   1.369
  171SOL    HW2   64   1.539   1.356   1.302
  184SOL     OW   65   1.493   1.767   0.959
  184SOL    HW1   66   1.526   1.831   0.890
  184SOL    HW2   67   1.559   1.761   1.034
  186SOL     OW   68   1.450   1.220   1.633
  186SOL    HW1   69   1.441   1.210   1.732
  186SOL    HW2   70   1.546   1.213   1.607
  192SOL     OW   71   1.730   0.934   1.517
  192SOL    HW1   72   1.768   1.025   1.532
  192SOL    HW2   73   1.722   0.917   1.418
  197SOL     OW   74   1.861   1.569   0.851
  197SOL    HW1   75   1.790   1.557   0.781
  197SOL    HW2   76   1.862   1.490   0.911
  203SOL     OW   77   1.705   1.487   1.104
  203SOL    HW1   78   1.612   1.462   1.077
  203SOL    HW2   79   1.731   1.437   1.186
  219SOL     OW   80   1.555   1.511   2.565
  219SOL    HW1   81   1.498   1.495   2.646
  219SOL    HW2   82   1.496   1.521   2.485
  227SOL     OW   83   1.460   1.505   3.201
  227SOL    HW1   84   1.484   1.599   3.227
  227SOL    HW2   85   1.444   1.451   3.283
  238SOL     OW   86   1.842   1.767   2.221
  238SOL    HW1   87   1.896   1.738   2.301
  238SOL    HW2   88   1.872   1.857   2.192
  240SOL     OW   89   1.689   0.922   2.474
  240SOL    HW1   90   1.784   0.893   2.482
  240SOL    HW2   91   1.681   0.987   2.399
  241SOL     OW   92   1.641   1.108   2.294
  241SOL    HW1   93   1.727   1.110   2.242
  241SOL    HW2   94   1.655   1.155   2.382
  244SOL     OW   95   1.293   1.228   3.285
  244SOL    HW1   96   1.330   1.155   3.227
  244SOL    HW2   97   1.345   1.233   3.370
  247SOL     OW   98   1.525   0.999   2.052
  247SOL    HW1   99   1.462   0.923   2.065
  247SOL    HW2  100   1.573   1.017   2.138
  248SOL     OW  101   1.187   1.792   3.478
  248SOL    HW1  102   1.211   1.852   3.402
  248SOL    HW2  103   1.194   1.697   3.448
  250SOL     OW  104   1.466   1.417   2.815
  250SOL    HW1  105   1.407   1.423   2.895
  250SOL    HW2  106   1.451   1.329   2.769
  251SOL     OW  107   1.667   1.714   2.434
  251SOL    HW1  108   1.626   1.691   2.346
  251SOL    HW2  109   1.649   1.640   2.499
  254SOL     OW  110   1.576   1.662   2.169
  254SOL    HW1  111   1.665   1.708   2.172
  254SOL    HW2  112   1.555   1.638   2.074
  264SOL     OW  113   1.362   1.144   2.407
  264SOL    HW1  114   1.445   1.115   2.359
  264SOL    HW2  115   1.313   1.211   2.351
  266SOL     OW  116   1.008   1.456   2.339
  266SOL    HW1  117   0.962   1.528   2.287
  266SOL    HW2  118   1.004   1.476   2.437
  268SOL     OW  119   1.795   1.066   2.735
  268SOL    HW1  120   1.733   1.051   2.659
  268SOL    HW2  121   1.743   1.077   2.820
  269SOL     OW  122   1.227   1.550   3.368
  269SOL    HW1  123   1.233   1.473   3.432
  269SOL    HW2  124   1.175   1.524   3.288
  273SOL     OW  125   1.111   1.776   2.099
  273SOL    HW1  126   1.051   1.714   2.149
  273SOL    HW2  127   1.142   1.732   2.014
  275SOL     OW  128   1.632   1.377   1.943
  275SOL    HW1  129   1.600   1.471   1.933
  275SOL    HW2  130   1.556   1.314   1.931
  279SOL     OW  131   0.940   1.698   2.766
  279SOL    HW1  132   1.020   1.641   2.787
  279SOL    HW2  133   0.891   1.658   2.689
  289SOL     OW  134   1.434   1.188   1.903
  289SOL    HW1  135   1.466   1.112   1.960
  289SOL    HW2  136   1.342   1.215   1.933
  293SOL     OW  137   1.227   1.570   2.655
  293SOL    HW1  138   1.248   1.644   2.590
  293SOL    HW2  139   1.295   1.570   2.728
  295SOL     OW  140   1.271   1.797   2.453
  295SOL    HW1  141   1.315   1.861   2.389
  295SOL    HW2  142   1.221   1.849   2.523
  301SOL     OW  143   1.429   1.173   2.729
  301SOL    HW1  144   1.374   1.089   2.722
  301SOL    HW2  145   1.455   1.202   2.637
  303SOL     OW  146   1.857   0.833   2.239
  303SOL    HW1  147   1.899   0.769   2.303
  303SOL    HW2  148   1.819   0.782   2.161
  305SOL     OW  149   1.664   1.280   2.519
  305SOL    HW1  150   1.763   1.288   2.533
  305SOL    HW2  151   1.619   1.364   2.550
  308SOL     OW  152   1.754   1.223   3.450
  308SOL    HW1  153   1.845   1.184   3.437
  308SOL    HW2  154   1.762   1.319   3.474
  310SOL     OW  155   1.592   1.629   3.487
  310SOL    HW1  156   1.619   1.663   3.397
  310SOL    HW2  157   1.671   1.591   3.533
  311SOL     OW  158   1.111   1.195   2.962
  311SOL    HW1  159   1.071   1.239   3.043
  311SOL    HW2  160   1.070   1.232   2.879
  312SOL     OW  161   1.638   1.099   2.941
  312SOL    HW1  162   1.643   1.180   3.000
  312SOL    HW2  163   1.552   1.101   2.890
  321SOL     OW  164   1.252   1.348   2.250
  321SOL    HW1  165   1.302   1.425   2.290
  321SOL    HW2  166   1.157   1.350   2.282
  322SOL     OW  167   1.272   1.445   3.004
  322SOL    HW1  168   1.319   1.458   3.091
  322SOL    HW2  169   1.206   1.371   3.013
  340SOL     OW  170   1.859   1.518   3.467
  340SOL    HW1  171   1.873   1.545   3.372
  340SOL    HW2  172   1.942   1.540   3.520
  344SOL     OW  173   1.068   1.333   2.711
  344SOL    HW1  174   1.075   1.249   2.656
  344SOL    HW2  175   1.130   1.402   2.675
  363SOL     OW  176   1.347   1.059   3.096
  363SOL    HW1  177   1.371   0.996   3.022
  363SOL    HW2  178   1.257   1.099   3.078
  365SOL     OW  179   1.759   1.747   3.016
  365SOL    HW1  180   1.820   1.777   2.943
  365SOL    HW2  181   1.721   1.658   2.994
  366SOL     OW  182   1.252   1.731   2.990
  366SOL    HW1  183   1.336   1.736   2.936
  366SOL    HW2  184   1.229   1.635   3.008
  370SOL     OW  185   1.388   1.573   2.339
  370SOL    HW1  186   1.455   1.585   2.265
  370SOL    HW2  187   1.348   1.662   2.362
  372SOL     OW  188   1.280   0.927   2.534
  372SOL    HW1  189   1.340   0.846   2.536
  372SOL    HW2  190   1.320   0.996   2.474
  375SOL     OW  191   1.650   1.720   3.256
  375SOL    HW1  192   1.703   1.730   3.172
  375SOL    HW2  193   1.623   1.810   3.290
  378SOL     OW  194   1.194   1.612   1.893
  378SOL    HW1  195   1.200   1.519   1.930
  378SOL    HW2  196   1.135   1.612   1.813
  381SOL     OW  197   1.504   1.607   1.906
  381SOL    HW1  198   1.412   1.644   1.913
  381SOL    HW2  199   1.542   1.627   1.816
  383SOL     OW  200   1.614   1.292   3.151
  383SOL    HW1  201   1.674   1.295   3.231
  383SOL    HW2  202   1.539   1.356   3.164
  394SOL     OW  203   1.183   1.335   1.981
  394SOL    HW1  204   1.084   1.324   1.983
  394SOL    HW2  205   1.217   1.350   2.074
  396SOL     OW  206   1.493   1.767   2.821
  396SOL    HW1  207   1.526   1.831   2.752
  396SOL    HW2  208   1.559   1.761   2.896
  400SOL     OW  209   1.674   0.883   3.116
  400SOL    HW1  210   1.647   0.794   3.079
  400SOL    HW2  211   1.675   0.951   3.043
  409SOL     OW  212   1.861   1.569   2.713
  409SOL    HW1  213   1.790   1.557   2.643
  409SOL    HW2  214   1.862   1.490   2.773
  415SOL     OW  215   1.705   1.487   2.966
  415SOL    HW1  216   1.612   1.462   2.939
  415SOL    HW2  217   1.731   1.437   3.048
  417SOL     OW  218   0.812   1.586   2.549
  417SOL    HW1  219   0.844   1.596   2.455
  417SOL    HW2  220   0.733   1.524   2.551
  426SOL     OW  221   0.875   1.646   2.199
  426SOL    HW1  222   0.798   1.611   2.145
  426SOL    HW2  223   0.843   1.717   2.261
  538SOL     OW  224   0.850   2.660   1.823
  538SOL    HW1  225   0.846   2.736   1.888
  538SOL    HW2  226   0.872   2.696   1.732
  542SOL     OW  227   1.460   3.367   1.339
  542SOL    HW1  228   1.484   3.461   1.365
  542SOL    HW2  229   1.444   3.313   1.421
  544SOL     OW  230   1.603   2.309   0.737
  544SOL    HW1  231   1.529   2.355   0.687
  544SOL    HW2  232   1.654   2.377   0.790
  546SOL     OW  233   1.127   3.203   1.690
  546SOL    HW1  234   1.174   3.203   1.778
  546SOL    HW2  235   1.079   3.116   1.679
  551SOL     OW  236   1.594   1.976   1.480
  551SOL    HW1  237   1.576   2.043   1.408
  551SOL    HW2  238   1.591   2.022   1.569
  559SOL     OW  239   1.293   3.090   1.423
  559SOL    HW1  240   1.330   3.017   1.365
  559SOL    HW2  241   1.345   3.095   1.508
  568SOL     OW  242   1.281   2.207   0.944
  568SOL    HW1  243   1.195   2.157   0.931
  568SOL    HW2  244   1.343   2.153   1.000
  570SOL     OW  245   0.807   2.467   1.465
  570SOL    HW1  246   0.760   2.464   1.554
  570SOL    HW2  247   0.756   2.412   1.399
  571SOL     OW  248   1.394   2.331   1.674
  571SOL    HW1  249   1.374   2.374   1.762
  571SOL    HW2  250   1.472   2.269   1.683
  572SOL     OW  251   0.973   2.752   1.572
  572SOL    HW1  252   1.019   2.668   1.543
  572SOL    HW2  253   0.917   2.786   1.497
  573SOL     OW  254   0.991   2.272   1.242
  573SOL    HW1  255   0.914   2.306   1.296
  573SOL    HW2  256   0.957   2.221   1.163
  578SOL     OW  257   1.719   2.447   1.831
  578SOL    HW1  258   1.693   2.536   1.795
  578SOL    HW2  259   1.717   2.379   1.758
  583SOL     OW  260   1.795   2.928   0.873
  583SOL    HW1  261   1.733   2.913   0.797
  583SOL    HW2  262   1.743   2.939   0.958
  584SOL     OW  263   1.227   3.412   1.506
  584SOL    HW1  264   1.233   3.335   1.570
  584SOL    HW2  265   1.175   3.386   1.426
  596SOL     OW  266   1.547   2.084   1.729
  596SOL    HW1  267   1.542   2.121   1.821
  596SOL    HW2  268   1.475   2.015   1.717
  597SOL     OW  269   0.781   2.126   1.749
  597SOL    HW1  270   0.848   2.065   1.792
  597SOL    HW2  271   0.708   2.145   1.814
  599SOL     OW  272   1.351   2.452   1.433
  599SOL    HW1  273   1.379   2.409   1.518
  599SOL    HW2  274   1.376   2.548   1.434
  606SOL     OW  275   1.076   2.545   1.464
  606SOL    HW1  276   0.996   2.484   1.467
  606SOL    HW2  277   1.157   2.492   1.440
  616SOL     OW  278   1.466   2.452   0.992
  616SOL    HW1  279   1.436   2.357   0.999
  616SOL    HW2  280   1.539   2.468   1.058
  622SOL     OW  281   1.754   3.085   1.588
  622SOL    HW1  282   1.845   3.046   1.575
  622SOL    HW2  283   1.762   3.181   1.612
  624SOL     OW  284   1.592   3.491   1.625
  624SOL    HW1  285   1.619   3.525   1.535
  624SOL    HW2  286   1.671   3.453   1.671
  626SOL     OW  287   1.638   2.961   1.079
  626SOL    HW1  288   1.643   3.042   1.138
  626SOL    HW2  289   1.552   2.963   1.028
  627SOL     OW  290   0.915   1.951   1.402
  627SOL    HW1  291   0.940   1.931   1.307
  627SOL    HW2  292   0.987   2.007   1.444
  628SOL     OW  293   0.980   2.978   1.719
  628SOL    HW1  294   0.881   2.984   1.729
  628SOL    HW2  295   1.003   2.898   1.663
  631SOL     OW  296   1.274   2.248   1.262
  631SOL    HW1  297   1.295   2.322   1.326
  631SOL    HW2  298   1.185   2.265   1.219
  640SOL     OW  299   1.587   2.641   1.670
  640SOL    HW1  300   1.495   2.679   1.665
  640SOL    HW2  301   1.647   2.688   1.605
  641SOL     OW  302   1.013   1.967   1.770
  641SOL    HW1  303   1.019   2.052   1.718
  641SOL    HW2  304   1.045   1.891   1.713
  644SOL     OW  305   1.360   2.724   1.045
  644SOL    HW1  306   1.285   2.724   0.979
  644SOL    HW2  307   1.397   2.632   1.054
  649SOL     OW  308   1.728   2.797   1.854
  649SOL    HW1  309   1.682   2.790   1.765
  649SOL    HW2  310   1.666   2.841   1.920
  654SOL     OW  311   1.859   3.380   1.605
  654SOL    HW1  312   1.873   3.407   1.510
  654SOL    HW2  313   1.942   3.402   1.658
  661SOL     OW  314   1.138   2.242   1.678
  661SOL    HW1  315   1.093   2.305   1.742
  661SOL    HW2  316   1.231   2.273   1.661
  662SOL     OW  317   1.160   2.069   1.477
  662SOL    HW1  318   1.160   2.133   1.554
  662SOL    HW2  319   1.188   2.117   1.394
  666SOL     OW  320   1.002   2.658   1.238
  666SOL    HW1  321   1.043   2.626   1.324
  666SOL    HW2  322   0.906   2.631   1.235
  669SOL     OW  323   1.369   2.812   1.660
  669SOL    HW1  324   1.408   2.901   1.680
  669SOL    HW2  325   1.379   2.792   1.563
  671SOL     OW  326   1.657   2.466   1.206
  671SOL    HW1  327   1.619   2.397   1.268
  671SOL    HW2  328   1.739   2.430   1.162
  677SOL     OW  329   1.347   2.921   1.234
  677SOL    HW1  330   1.371   2.858   1.160
  677SOL    HW2  331   1.257   2.961   1.216
  690SOL     OW  332   1.650   3.582   1.394
  690SOL    HW1  333   1.703   3.592   1.310
  690SOL    HW2  334   1.623   3.672   1.428
  691SOL     OW  335   1.841   2.037   0.963
  691SOL    HW1  336   1.880   1.952   0.927
  691SOL    HW2  337   1.743   2.039   0.944
  698SOL     OW  338   1.614   3.154   1.289
  698SOL    HW1  339   1.674   3.157   1.369
  698SOL    HW2  340   1.539   3.218   1.302
  702SOL     OW  341   1.709   2.247   1.381
  702SOL    HW1  342   1.782   2.316   1.385
  702SOL    HW2  343   1.737   2.172   1.322
  707SOL     OW  344   1.440   2.718   1.398
  707SOL    HW1  345   1.383   2.770   1.335
  707SOL    HW2  346   1.536   2.730   1.374
  712SOL     OW  347   0.716   2.427   1.708
  712SOL    HW1  348   0.735   2.492   1.782
  712SOL    HW2  349   0.776   2.347   1.717
  713SOL     OW  350   1.450   3.082   1.633
  713SOL    HW1  351   1.441   3.072   1.732
  713SOL    HW2  352   1.546   3.075   1.607
  715SOL     OW  353   1.674   2.745   1.254
  715SOL    HW1  354   1.647   2.656   1.217
  715SOL    HW2  355   1.675   2.813   1.181
  718SOL     OW  356   1.777   2.204   1.642
  718SOL    HW1  357   1.760   2.235   1.548
  718SOL    HW2  358   1.693   2.167   1.680
  719SOL     OW  359   1.730   2.796   1.517
  719SOL    HW1  360   1.768   2.887   1.532
  719SOL    HW2  361   1.722   2.779   1.418
  728SOL     OW  362   1.824   2.054   1.227
  728SOL    HW1  363   1.820   1.964   1.271
  728SOL    HW2  364   1.827   2.043   1.128
  730SOL     OW  365   1.705   3.349   1.104
  730SOL    HW1  366   1.612   3.324   1.077
  730SOL    HW2  367   1.731   3.299   1.186
  733SOL     OW  368   1.424   2.076   1.112
  733SOL    HW1  369   1.476   2.011   1.167
  733SOL    HW2  370   1.375   2.139   1.173
  739SOL     OW  371   1.593   2.083   0.882
  739SOL    HW1  372   1.509   2.082   0.936
  739SOL    HW2  373   1.595   2.166   0.826
  746SOL     OW  374   1.555   3.373   2.565
  746SOL    HW1  375   1.498   3.357   2.646
  746SOL    HW2  376   1.496   3.383   2.485
  747SOL     OW  377   1.135   2.565   2.579
  747SOL    HW1  378   1.192   2.643   2.554
  747SOL    HW2  379   1.075   2.591   2.655
  748SOL     OW  380   1.755   2.469   2.093
  748SOL    HW1  381   1.743   2.456   1.994
  748SOL    HW2  382   1.725   2.388   2.142
  749SOL     OW  383   0.768   3.006   2.885
  749SOL    HW1  384   0.690   3.023   2.945
  749SOL    HW2  385   0.802   3.093   2.849
  751SOL     OW  386   0.685   2.874   2.527
  751SOL    HW1  387   0.754   2.858   2.597
  751SOL    HW2  388   0.612   2.931   2.565
  754SOL     OW  389   1.460   3.367   3.201
  754SOL    HW1  390   1.484   3.461   3.227
  754SOL    HW2  391   1.444   3.313   3.283
  756SOL     OW  392   1.603   2.309   2.599
  756SOL    HW1  393   1.529   2.355   2.549
  756SOL    HW2  394   1.654   2.377   2.652
  763SOL     OW  395   1.594   1.976   3.342
  763SOL    HW1  396   1.576   2.043   3.270
  763SOL    HW2  397   1.591   2.022   3.431
  765SOL     OW  398   1.842   3.629   2.221
  765SOL    HW1  399   1.896   3.600   2.301
  765SOL    HW2  400   1.872   3.719   2.192
  767SOL     OW  401   1.689   2.784   2.474
  767SOL    HW1  402   1.784   2.755   2.482
  767SOL    HW2  403   1.681   2.849   2.399
  768SOL     OW  404   1.641   2.970   2.294
  768SOL    HW1  405   1.727   2.972   2.242
  768SOL    HW2  406   1.655   3.017   2.382
  771SOL     OW  407   1.293   3.090   3.285
  771SOL    HW1  408   1.330   3.017   3.227
  771SOL    HW2  409   1.345   3.095   3.370
  772SOL     OW  410   0.809   1.866   2.364
  772SOL    HW1  411   0.849   1.957   2.355
  772SOL    HW2  412   0.709   1.874   2.370
  774SOL     OW  413   1.525   2.861   2.052
  774SOL    HW1  414   1.462   2.785   2.065
  774SOL    HW2  415   1.573   2.879   2.138
  777SOL     OW  416   1.466   3.279   2.815
  777SOL    HW1  417   1.407   3.285   2.895
  777SOL    HW2  418   1.451   3.191   2.769
  778SOL     OW  419   1.667   3.576   2.434
  778SOL    HW1  420   1.626   3.553   2.346
  778SOL    HW2  421   1.649   3.502   2.499
  779SOL     OW  422   0.598   2.591   2.132
  779SOL    HW1  423   0.622   2.660   2.064
  779SOL    HW2  424   0.520   2.624   2.186
  780SOL     OW  425   1.281   2.207   2.806
  780SOL    HW1  426   1.195   2.157   2.793
  780SOL    HW2  427   1.343   2.153   2.862
  781SOL     OW  428   1.576   3.524   2.169
  781SOL    HW1  429   1.665   3.570   2.172
  781SOL    HW2  430   1.555   3.500   2.074
  783SOL     OW  431   1.394   2.331   3.536
  783SOL    HW1  432   1.374   2.374   3.624
  783SOL    HW2  433   1.472   2.269   3.545
  784SOL     OW  434   0.973   2.752   3.434
  784SOL    HW1  435   1.019   2.668   3.405
  784SOL    HW2  436   0.917   2.786   3.359
  785SOL     OW  437   0.991   2.272   3.104
  785SOL    HW1  438   0.914   2.306   3.158
  785SOL    HW2  439   0.957   2.221   3.025
  786SOL     OW  440   1.041   2.563   2.291
  786SOL    HW1  441   1.067   2.559   2.387
  786SOL    HW2  442   0.956   2.512   2.277
  789SOL     OW  443   0.865   2.210   2.057
  789SOL    HW1  444   0.924   2.273   2.008
  789SOL    HW2  445   0.884   2.116   2.028
  790SOL     OW  446   1.719   2.447   3.693
  790SOL    HW1  447   1.693   2.536   3.657
  790SOL    HW2  448   1.717   2.379   3.620
  791SOL     OW  449   1.362   3.006   2.407
  791SOL    HW1  450   1.445   2.977   2.359
  791SOL    HW2  451   1.313   3.073   2.351
  793SOL     OW  452   1.008   3.318   2.339
  793SOL    HW1  453   0.962   3.390   2.287
  793SOL    HW2  454   1.004   3.338   2.437
  795SOL     OW  455   1.795   2.928   2.735
  795SOL    HW1  456   1.733   2.913   2.659
  795SOL    HW2  457   1.743   2.939   2.820
  798SOL     OW  458   1.458   2.597   2.590
  798SOL    HW1  459   1.453   2.532   2.665
  798SOL    HW2  460   1.538   2.656   2.603
  802SOL     OW  461   1.632   3.239   1.943
  802SOL    HW1  462   1.600   3.333   1.933
  802SOL    HW2  463   1.556   3.176   1.931
  804SOL     OW  464   1.400   1.969   2.288
  804SOL    HW1  465   1.376   1.932   2.198
  804SOL    HW2  466   1.499   1.985   2.292
  808SOL     OW  467   1.547   2.084   3.591
  808SOL    HW1  468   1.542   2.121   3.683
  808SOL    HW2  469   1.475   2.015   3.579
  812SOL     OW  470   1.351   2.452   3.295
  812SOL    HW1  471   1.379   2.409   3.380
  812SOL    HW2  472   1.376   2.548   3.296
  814SOL     OW  473   0.922   2.365   2.761
  814SOL    HW1  474   0.897   2.356   2.665
  814SOL    HW2  475   0.970   2.283   2.792
  816SOL     OW  476   1.434   3.050   1.903
  816SOL    HW1  477   1.466   2.974   1.960
  816SOL    HW2  478   1.342   3.077   1.933
  818SOL     OW  479   0.935   2.098   2.342
  818SOL    HW1  480   0.887   2.139   2.264
  818SOL    HW2  481   1.034   2.096   2.323
  819SOL     OW  482   1.076   2.545   3.326
  819SOL    HW1  483   0.996   2.484   3.329
  819SOL    HW2  484   1.157   2.492   3.302
  820SOL     OW  485   1.227   3.432   2.655
  820SOL    HW1  486   1.248   3.506   2.590
  820SOL    HW2  487   1.295   3.432   2.728
  822SOL     OW  488   1.271   3.659   2.453
  822SOL    HW1  489   1.315   3.723   2.389
  822SOL    HW2  490   1.221   3.711   2.523
  823SOL     OW  491   1.032   2.411   1.878
  823SOL    HW1  492   0.991   2.493   1.839
  823SOL    HW2  493   1.096   2.437   1.951
  826SOL     OW  494   0.866   2.316   2.504
  826SOL    HW1  495   0.834   2.388   2.442
  826SOL    HW2  496   0.890   2.235   2.451
  827SOL     OW  497   1.017   1.901   2.615
  827SOL    HW1  498   0.945   1.906   2.546
  827SOL    HW2  499   0.993   1.832   2.684
  828SOL     OW  500   1.429   3.035   2.729
  828SOL    HW1  501   1.374   2.951   2.722
  828SOL    HW2  502   1.455   3.064   2.637
  829SOL     OW  503   1.466   2.452   2.854
  829SOL    HW1  504   1.436   2.357   2.861
  829SOL    HW2  505   1.539   2.468   2.920
  830SOL     OW  506   1.857   2.695   2.239
  830SOL    HW1  507   1.899   2.631   2.303
  830SOL    HW2  508   1.819   2.644   2.161
  832SOL     OW  509   1.664   3.142   2.519
  832SOL    HW1  510   1.763   3.150   2.533
  832SOL    HW2  511   1.619   3.226   2.550
  833SOL     OW  512   1.390   2.437   1.940
  833SOL    HW1  513   1.336   2.416   2.021
  833SOL    HW2  514   1.481   2.396   1.949
  835SOL     OW  515   1.754   3.085   3.450
  835SOL    HW1  516   1.845   3.046   3.437
  835SOL    HW2  517   1.762   3.181   3.474
  836SOL     OW  518   1.064   3.209   3.202
  836SOL    HW1  519   0.984   3.186   3.257
  836SOL    HW2  520   1.147   3.183   3.251
  837SOL     OW  521   1.592   3.491   3.487
  837SOL    HW1  522   1.619   3.525   3.397
  837SOL    HW2  523   1.671   3.453   3.533
  838SOL     OW  524   1.111   3.057   2.962
  838SOL    HW1  525   1.071   3.101   3.043
  838SOL    HW2  526   1.070   3.094   2.879
  839SOL     OW  527   1.638   2.961   2.941
  839SOL    HW1  528   1.643   3.042   3.000
  839SOL    HW2  529   1.552   2.963   2.890
  840SOL     OW  530   0.915   1.951   3.264
  840SOL    HW1  531   0.940   1.931   3.169
  840SOL    HW2  532   0.987   2.007   3.306
  842SOL     OW  533   0.705   2.912   2.230
  842SOL    HW1  534   0.691   2.919   2.329
  842SOL    HW2  535   0.789   2.861   2.212
  844SOL     OW  536   1.274   2.248   3.124
  844SOL    HW1  537   1.295   2.322   3.188
  844SOL    HW2  538   1.185   2.265   3.081
  848SOL     OW  539   1.252   3.210   2.250
  848SOL    HW1  540   1.302   3.287   2.290
  848SOL    HW2  541   1.157   3.212   2.282
  849SOL     OW  542   1.272   3.307   3.004
  849SOL    HW1  543   1.319   3.320   3.091
  849SOL    HW2  544   1.206   3.233   3.013
  850SOL     OW  545   1.582   2.501   2.334
  850SOL    HW1  546   1.551   2.562   2.407
  850SOL    HW2  547   1.632   2.553   2.265
  853SOL     OW  548   1.587   2.641   3.532
  853SOL    HW1  549   1.495   2.679   3.527
  853SOL    HW2  550   1.647   2.688   3.467
  857SOL     OW  551   1.360   2.724   2.907
  857SOL    HW1  552   1.285   2.724   2.841
  857SOL    HW2  553   1.397   2.632   2.916
  858SOL     OW  554   1.209   2.387   2.137
  858SOL    HW1  555   1.222   2.303   2.191
  858SOL    HW2  556   1.180   2.461   2.197
  861SOL     OW  557   0.732   2.496   2.926
  861SOL    HW1  558   0.791   2.470   2.850
  861SOL    HW2  559   0.704   2.592   2.915
  862SOL     OW  560   1.728   2.797   3.716
  862SOL    HW1  561   1.682   2.790   3.627
  862SOL    HW2  562   1.666   2.841   3.782
  864SOL     OW  563   1.622   2.229   2.236
  864SOL    HW1  564   1.624   2.153   2.300
  864SOL    HW2  565   1.574   2.306   2.276
  865SOL     OW  566   1.023   2.628   2.828
  865SOL    HW1  567   1.038   2.649   2.924
  865SOL    HW2  568   0.993   2.533   2.819
  867SOL     OW  569   1.859   3.380   3.467
  867SOL    HW1  570   1.873   3.407   3.372
  867SOL    HW2  571   1.942   3.402   3.520
  869SOL     OW  572   1.540   2.136   1.987
  869SOL    HW1  573   1.479   2.061   2.010
  869SOL    HW2  574   1.562   2.188   2.070
  870SOL     OW  575   1.303   2.700   1.904
  870SOL    HW1  576   1.337   2.607   1.919
  870SOL    HW2  577   1.321   2.727   1.809
  871SOL     OW  578   1.068   3.195   2.711
  871SOL    HW1  579   1.075   3.111   2.656
  871SOL    HW2  580   1.130   3.264   2.675
  874SOL     OW  581   1.138   2.242   3.540
  874SOL    HW1  582   1.093   2.305   3.604
  874SOL    HW2  583   1.231   2.273   3.523
  875SOL     OW  584   1.160   2.069   3.339
  875SOL    HW1  585   1.160   2.133   3.416
  875SOL    HW2  586   1.188   2.117   3.256
  879SOL     OW  587   1.002   2.658   3.100
  879SOL    HW1  588   1.043   2.626   3.186
  879SOL    HW2  589   0.906   2.631   3.097
  882SOL     OW  590   1.369   2.812   3.522
  882SOL    HW1  591   1.408   2.901   3.542
  882SOL    HW2  592   1.379   2.792   3.425
  883SOL     OW  593   0.815   2.434   2.187
  883SOL    HW1  594   0.822   2.345   2.141
  883SOL    HW2  595   0.721   2.468   2.179
  884SOL     OW  596   1.657   2.466   3.068
  884SOL    HW1  597   1.619   2.397   3.130
  884SOL    HW2  598   1.739   2.430   3.024
  890SOL     OW  599   1.347   2.921   3.096
  890SOL    HW1  600   1.371   2.858   3.022
  890SOL    HW2  601   1.257   2.961   3.078
  891SOL     OW  602   1.302   2.717   2.171
  891SOL    HW1  603   1.216   2.686   2.213
  891SOL    HW2  604   1.298   2.703   2.072
  892SOL     OW  605   1.759   3.609   3.016
  892SOL    HW1  606   1.820   3.639   2.943
  892SOL    HW2  607   1.721   3.520   2.994
  893SOL     OW  608   1.252   3.593   2.990
  893SOL    HW1  609   1.336   3.598   2.936
  893SOL    HW2  610   1.229   3.497   3.008
  896SOL     OW  611   1.726   1.997   2.385
  896SOL    HW1  612   1.799   1.980   2.318
  896SOL    HW2  613   1.695   1.910   2.423
  897SOL     OW  614   1.388   3.435   2.339
  897SOL    HW1  615   1.455   3.447   2.265
  897SOL    HW2  616   1.348   3.524   2.362
  899SOL     OW  617   1.280   2.789   2.534
  899SOL    HW1  618   1.340   2.708   2.536
  899SOL    HW2  619   1.320   2.858   2.474
  902SOL     OW  620   1.650   3.582   3.256
  902SOL    HW1  621   1.703   3.592   3.172
  902SOL    HW2  622   1.623   3.672   3.290
  903SOL     OW  623   1.841   2.037   2.825
  903SOL    HW1  624   1.880   1.952   2.789
  903SOL    HW2  625   1.743   2.039   2.806
  905SOL     OW  626   1.194   3.474   1.893
  905SOL    HW1  627   1.200   3.381   1.930
  905SOL    HW2  628   1.135   3.474   1.813
  907SOL     OW  629   0.916   2.772   2.153
  907SOL    HW1  630   0.979   2.810   2.085
  907SOL    HW2  631   0.956   2.689   2.192
  908SOL     OW  632   1.504   3.469   1.906
  908SOL    HW1  633   1.412   3.506   1.913
  908SOL    HW2  634   1.542   3.489   1.816
  910SOL     OW  635   1.614   3.154   3.151
  910SOL    HW1  636   1.674   3.157   3.231
  910SOL    HW2  637   1.539   3.218   3.164
  911SOL     OW  638   1.039   2.960   2.558
  911SOL    HW1  639   0.969   2.913   2.612
  911SOL    HW2  640   1.098   2.892   2.515
  912SOL     OW  641   1.014   2.098   2.833
  912SOL    HW1  642   1.006   2.062   2.740
  912SOL    HW2  643   1.012   2.022   2.898
  914SOL     OW  644   1.709   2.247   3.243
  914SOL    HW1  645   1.782   2.316   3.247
  914SOL    HW2  646   1.737   2.172   3.184
  919SOL     OW  647   1.440   2.718   3.260
  919SOL    HW1  648   1.383   2.770   3.197
  919SOL    HW2  649   1.536   2.730   3.236
  921SOL     OW  650   1.183   3.197   1.981
  921SOL    HW1  651   1.084   3.186   1.983
  921SOL    HW2  652   1.217   3.212   2.074
  923SOL     OW  653   1.493   3.629   2.821
  923SOL    HW1  654   1.526   3.693   2.752
  923SOL    HW2  655   1.559   3.623   2.896
  925SOL     OW  656   1.450   3.082   3.495
  925SOL    HW1  657   1.441   3.072   3.594
  925SOL    HW2  658   1.546   3.075   3.469
  927SOL     OW  659   1.674   2.745   3.116
  927SOL    HW1  660   1.647   2.656   3.079
  927SOL    HW2  661   1.675   2.813   3.043
  928SOL     OW  662   1.225   2.187   2.311
  928SOL    HW1  663   1.290   2.113   2.300
  928SOL    HW2  664   1.245   2.237   2.395
  929SOL     OW  665   0.594   2.607   2.514
  929SOL    HW1  666   0.644   2.692   2.495
  929SOL    HW2  667   0.506   2.609   2.466
  930SOL     OW  668   1.777   2.204   3.504
  930SOL    HW1  669   1.760   2.235   3.410
  930SOL    HW2  670   1.693   2.167   3.542
  931SOL     OW  671   1.730   2.796   3.379
  931SOL    HW1  672   1.768   2.887   3.394
  931SOL    HW2  673   1.722   2.779   3.280
  932SOL     OW  674   0.859   3.236   1.878
  932SOL    HW1  675   0.813   3.251   1.966
  932SOL    HW2  676   0.903   3.321   1.848
  934SOL     OW  677   0.859   2.818   2.723
  934SOL    HW1  678   0.913   2.749   2.771
  934SOL    HW2  679   0.827   2.887   2.789
  935SOL     OW  680   1.083   2.846   1.949
  935SOL    HW1  681   1.060   2.899   1.867
  935SOL    HW2  682   1.164   2.790   1.930
  936SOL     OW  683   1.861   3.431   2.713
  936SOL    HW1  684   1.790   3.419   2.643
  936SOL    HW2  685   1.862   3.352   2.773
  940SOL     OW  686   1.824   2.054   3.089
  940SOL    HW1  687   1.820   1.964   3.133
  940SOL    HW2  688   1.827   2.043   2.990
  942SOL     OW  689   1.705   3.349   2.966
  942SOL    HW1  690   1.612   3.324   2.939
  942SOL    HW2  691   1.731   3.299   3.048
  945SOL     OW  692   1.424   2.076   2.974
  945SOL    HW1  693   1.476   2.011   3.029
  945SOL    HW2  694   1.375   2.139   3.035
  946SOL     OW  695   1.001   1.896   3.016
  946SOL    HW1  696   0.938   1.824   2.985
  946SOL    HW2  697   1.094   1.860   3.016
  947SOL     OW  698   0.770   3.192   2.163
  947SOL    HW1  699   0.724   3.105   2.180
  947SOL    HW2  700   0.861   3.189   2.204
  949SOL     OW  701   1.352   1.914   2.030
  949SOL    HW1  702   1.387   1.873   1.946
  949SOL    HW2  703   1.262   1.876   2.050
  950SOL     OW  704   1.300   2.315   2.553
  950SOL    HW1  705   1.241   2.395   2.557
  950SOL    HW2  706   1.315   2.280   2.646
  951SOL     OW  707   1.593   2.083   2.744
  951SOL    HW1  708   1.509   2.082   2.798
  951SOL    HW2  709   1.595   2.166   2.688
  958SOL     OW  710   1.755   2.469   3.955
  958SOL    HW1  711   1.743   2.456   3.856
  958SOL    HW2  712   1.725   2.388   4.004
 1006SOL     OW  713   1.390   2.437   3.802
 1006SOL    HW1  714   1.336   2.416   3.883
 1006SOL    HW2  715   1.481   2.396   3.811
 1017SOL     OW  716   1.540   2.136   3.849
 1017SOL    HW1  717   1.479   2.061   3.872
 1017SOL    HW2  718   1.562   2.188   3.932
 1018SOL     OW  719   1.303   2.700   3.766
 1018SOL    HW1  720   1.337   2.607   3.781
 1018SOL    HW2  721   1.321   2.727   3.671
 1189SOL     OW  722   1.400   3.831   2.288
 1189SOL    HW1  723   1.376   3.794   2.198
 1189SOL    HW2  724   1.499   3.847   2.292
 1241SOL     OW  725   1.726   3.859   2.385
 1241SOL    HW1  726   1.799   3.842   2.318
 1241SOL    HW2  727   1.695   3.772   2.423
 1243SOL     OW  728   1.841   3.899   2.825
 1243SOL    HW1  729   1.880   3.814   2.789
 1243SOL    HW2  730   1.743   3.901   2.806
 1265SOL     OW  731   1.352   3.776   2.030
 1265SOL    HW1  732   1.387   3.735   1.946
 1265SOL    HW2  733   1.262   3.738   2.050
 1325SOL     OW  734   2.431   1.275   1.165
 1325SOL    HW1  735   2.338   1.268   1.128
 1325SOL    HW2  736   2.442   1.364   1.209
 1330SOL     OW  737   2.712   0.798   1.823
 1330SOL    HW1  738   2.708   0.874   1.888
 1330SOL    HW2  739   2.734   0.834   1.732
 1332SOL     OW  740   2.548   1.161   1.803
 1332SOL    HW1  741   2.608   1.240   1.817
 1332SOL    HW2  742   2.462   1.192   1.762
 1333SOL     OW  743   2.197   1.435   1.061
 1333SOL    HW1  744   2.119   1.404   1.008
 1333SOL    HW2  745   2.255   1.493   1.004
 1334SOL     OW  746   3.322   1.505   1.339
 1334SOL    HW1  747   3.346   1.599   1.365
 1334SOL    HW2  748   3.306   1.451   1.421
 1338SOL     OW  749   2.989   1.341   1.690
 1338SOL    HW1  750   3.036   1.341   1.778
 1338SOL    HW2  751   2.941   1.254   1.679
 1341SOL     OW  752   2.482   1.786   1.439
 1341SOL    HW1  753   2.390   1.769   1.474
 1341SOL    HW2  754   2.510   1.878   1.465
 1351SOL     OW  755   3.155   1.228   1.423
 1351SOL    HW1  756   3.192   1.155   1.365
 1351SOL    HW2  757   3.207   1.233   1.508
 1353SOL     OW  758   2.059   0.976   1.264
 1353SOL    HW1  759   2.148   0.931   1.250
 1353SOL    HW2  760   1.986   0.911   1.245
 1355SOL     OW  761   3.049   1.792   1.616
 1355SOL    HW1  762   3.073   1.852   1.540
 1355SOL    HW2  763   3.056   1.697   1.586
 1364SOL     OW  764   2.835   0.890   1.572
 1364SOL    HW1  765   2.881   0.806   1.543
 1364SOL    HW2  766   2.779   0.924   1.497
 1368SOL     OW  767   1.992   1.821   1.571
 1368SOL    HW1  768   1.982   1.806   1.670
 1368SOL    HW2  769   1.906   1.857   1.535
 1374SOL     OW  770   2.213   1.801   0.853
 1374SOL    HW1  771   2.263   1.715   0.859
 1374SOL    HW2  772   2.278   1.878   0.850
 1376SOL     OW  773   3.089   1.550   1.506
 1376SOL    HW1  774   3.095   1.473   1.570
 1376SOL    HW2  775   3.037   1.524   1.426
 1379SOL     OW  776   2.323   1.266   1.727
 1379SOL    HW1  777   2.273   1.267   1.641
 1379SOL    HW2  778   2.260   1.248   1.803
 1385SOL     OW  779   2.111   1.785   1.241
 1385SOL    HW1  780   2.168   1.720   1.291
 1385SOL    HW2  781   2.095   1.752   1.148
 1386SOL     OW  782   2.802   1.698   0.904
 1386SOL    HW1  783   2.882   1.641   0.925
 1386SOL    HW2  784   2.753   1.658   0.827
 1391SOL     OW  785   2.750   1.514   1.195
 1391SOL    HW1  786   2.727   1.489   1.101
 1391SOL    HW2  787   2.811   1.445   1.234
 1393SOL     OW  788   2.665   1.402   0.924
 1393SOL    HW1  789   2.755   1.416   0.882
 1393SOL    HW2  790   2.594   1.404   0.853
 1416SOL     OW  791   2.926   1.347   1.340
 1416SOL    HW1  792   2.846   1.324   1.395
 1416SOL    HW2  793   3.009   1.321   1.389
 1417SOL     OW  794   3.454   1.629   1.625
 1417SOL    HW1  795   3.481   1.663   1.535
 1417SOL    HW2  796   3.533   1.591   1.671
 1421SOL     OW  797   2.842   1.116   1.719
 1421SOL    HW1  798   2.743   1.122   1.729
 1421SOL    HW2  799   2.865   1.036   1.663
 1425SOL     OW  800   1.926   1.564   1.331
 1425SOL    HW1  801   1.880   1.646   1.297
 1425SOL    HW2  802   2.024   1.583   1.340
 1429SOL     OW  803   3.134   1.445   1.142
 1429SOL    HW1  804   3.181   1.458   1.229
 1429SOL    HW2  805   3.068   1.371   1.151
 1431SOL     OW  806   2.216   1.510   1.329
 1431SOL    HW1  807   2.195   1.466   1.242
 1431SOL    HW2  808   2.313   1.536   1.332
 1432SOL     OW  809   2.264   0.751   1.598
 1432SOL    HW1  810   2.332   0.806   1.551
 1432SOL    HW2  811   2.304   0.663   1.625
 1440SOL     OW  812   1.899   1.310   1.282
 1440SOL    HW1  813   1.952   1.261   1.350
 1440SOL    HW2  814   1.921   1.408   1.287
 1446SOL     OW  815   2.842   1.573   1.700
 1446SOL    HW1  816   2.822   1.617   1.612
 1446SOL    HW2  817   2.881   1.482   1.684
 1447SOL     OW  818   3.721   1.518   1.605
 1447SOL    HW1  819   3.735   1.545   1.510
 1447SOL    HW2  820   3.804   1.540   1.658
 1448SOL     OW  821   2.212   0.898   1.804
 1448SOL    HW1  822   2.288   0.942   1.852
 1448SOL    HW2  823   2.247   0.851   1.722
 1457SOL     OW  824   1.950   1.801   0.927
 1457SOL    HW1  825   1.908   1.715   0.900
 1457SOL    HW2  826   2.044   1.804   0.893
 1458SOL     OW  827   2.366   1.568   0.910
 1458SOL    HW1  828   2.432   1.642   0.919
 1458SOL    HW2  829   2.410   1.489   0.868
 1462SOL     OW  830   3.231   0.950   1.660
 1462SOL    HW1  831   3.270   1.039   1.680
 1462SOL    HW2  832   3.241   0.930   1.563
 1465SOL     OW  833   2.114   1.564   1.744
 1465SOL    HW1  834   2.084   1.621   1.820
 1465SOL    HW2  835   2.107   1.467   1.770
 1467SOL     OW  836   2.792   1.678   1.465
 1467SOL    HW1  837   2.768   1.660   1.370
 1467SOL    HW2  838   2.822   1.772   1.475
 1469SOL     OW  839   2.021   1.137   1.466
 1469SOL    HW1  840   2.043   1.076   1.542
 1469SOL    HW2  841   2.031   1.088   1.380
 1473SOL     OW  842   3.114   1.731   1.128
 1473SOL    HW1  843   3.198   1.736   1.074
 1473SOL    HW2  844   3.091   1.635   1.146
 1474SOL     OW  845   1.945   1.258   1.022
 1474SOL    HW1  846   1.940   1.257   1.122
 1474SOL    HW2  847   1.862   1.217   0.984
 1475SOL     OW  848   2.550   1.662   1.716
 1475SOL    HW1  849   2.494   1.743   1.725
 1475SOL    HW2  850   2.602   1.666   1.630
 1479SOL     OW  851   1.992   1.794   1.851
 1479SOL    HW1  852   1.951   1.720   1.904
 1479SOL    HW2  853   2.056   1.845   1.909
 1481SOL     OW  854   2.692   1.273   1.422
 1481SOL    HW1  855   2.687   1.306   1.517
 1481SOL    HW2  856   2.606   1.292   1.376
 1483SOL     OW  857   3.512   1.720   1.394
 1483SOL    HW1  858   3.565   1.730   1.310
 1483SOL    HW2  859   3.485   1.810   1.428
 1487SOL     OW  860   2.684   1.002   1.372
 1487SOL    HW1  861   2.724   1.001   1.280
 1487SOL    HW2  862   2.694   1.094   1.412
 1490SOL     OW  863   2.234   1.288   1.490
 1490SOL    HW1  864   2.221   1.381   1.456
 1490SOL    HW2  865   2.150   1.236   1.477
 1497SOL     OW  866   1.967   1.013   1.726
 1497SOL    HW1  867   1.890   0.980   1.780
 1497SOL    HW2  868   2.052   0.983   1.768
 1501SOL     OW  869   2.475   0.842   1.431
 1501SOL    HW1  870   2.531   0.923   1.414
 1501SOL    HW2  871   2.534   0.762   1.434
 1504SOL     OW  872   3.312   1.220   1.633
 1504SOL    HW1  873   3.303   1.210   1.732
 1504SOL    HW2  874   3.408   1.213   1.607
 1505SOL     OW  875   2.252   1.741   1.560
 1505SOL    HW1  876   2.161   1.782   1.558
 1505SOL    HW2  877   2.245   1.647   1.592
 1512SOL     OW  878   2.523   1.790   0.953
 1512SOL    HW1  879   2.477   1.878   0.940
 1512SOL    HW2  880   2.622   1.802   0.946
 1516SOL     OW  881   2.083   1.314   1.844
 1516SOL    HW1  882   2.018   1.241   1.823
 1516SOL    HW2  883   2.087   1.328   1.942
 1518SOL     OW  884   2.534   1.391   1.624
 1518SOL    HW1  885   2.456   1.341   1.662
 1518SOL    HW2  886   2.531   1.486   1.655
 1527SOL     OW  887   2.480   1.567   1.284
 1527SOL    HW1  888   2.475   1.649   1.341
 1527SOL    HW2  889   2.569   1.564   1.239
 1533SOL     OW  890   2.092   0.628   1.975
 1533SOL    HW1  891   1.999   0.626   2.012
 1533SOL    HW2  892   2.093   0.589   1.883
 1536SOL     OW  893   2.431   1.275   3.027
 1536SOL    HW1  894   2.338   1.268   2.990
 1536SOL    HW2  895   2.442   1.364   3.071
 1537SOL     OW  896   3.417   1.511   2.565
 1537SOL    HW1  897   3.360   1.495   2.646
 1537SOL    HW2  898   3.358   1.521   2.485
 1538SOL     OW  899   2.997   0.703   2.579
 1538SOL    HW1  900   3.054   0.781   2.554
 1538SOL    HW2  901   2.937   0.729   2.655
 1540SOL     OW  902   2.630   1.144   2.885
 1540SOL    HW1  903   2.552   1.161   2.945
 1540SOL    HW2  904   2.664   1.231   2.849
 1542SOL     OW  905   2.547   1.012   2.527
 1542SOL    HW1  906   2.616   0.996   2.597
 1542SOL    HW2  907   2.474   1.069   2.565
 1543SOL     OW  908   2.548   1.161   3.665
 1543SOL    HW1  909   2.608   1.240   3.679
 1543SOL    HW2  910   2.462   1.192   3.624
 1544SOL     OW  911   2.197   1.435   2.923
 1544SOL    HW1  912   2.119   1.404   2.870
 1544SOL    HW2  913   2.255   1.493   2.866
 1545SOL     OW  914   3.322   1.505   3.201
 1545SOL    HW1  915   3.346   1.599   3.227
 1545SOL    HW2  916   3.306   1.451   3.283
 1548SOL     OW  917   2.093   1.713   2.345
 1548SOL    HW1  918   2.127   1.790   2.399
 1548SOL    HW2  919   2.137   1.713   2.255
 1549SOL     OW  920   2.989   1.341   3.552
 1549SOL    HW1  921   3.036   1.341   3.640
 1549SOL    HW2  922   2.941   1.254   3.541
 1550SOL     OW  923   2.092   1.434   2.400
 1550SOL    HW1  924   2.066   1.530   2.400
 1550SOL    HW2  925   2.021   1.380   2.445
 1551SOL     OW  926   2.102   1.091   2.748
 1551SOL    HW1  927   2.116   1.007   2.800
 1551SOL    HW2  928   2.047   1.155   2.803
 1552SOL     OW  929   2.482   1.786   3.301
 1552SOL    HW1  930   2.390   1.769   3.336
 1552SOL    HW2  931   2.510   1.878   3.327
 1553SOL     OW  932   2.468   0.964   1.985
 1553SOL    HW1  933   2.475   1.048   1.931
 1553SOL    HW2  934   2.514   0.977   2.073
 1555SOL     OW  935   1.984   0.643   2.425
 1555SOL    HW1  936   1.939   0.555   2.442
 1555SOL    HW2  937   1.983   0.697   2.509
 1556SOL     OW  938   3.704   1.767   2.221
 1556SOL    HW1  939   3.758   1.738   2.301
 1556SOL    HW2  940   3.734   1.857   2.192
 1557SOL     OW  941   1.889   1.596   1.979
 1557SOL    HW1  942   1.870   1.500   2.000
 1557SOL    HW2  943   1.856   1.654   2.054
 1559SOL     OW  944   3.503   1.108   2.294
 1559SOL    HW1  945   3.589   1.110   2.242
 1559SOL    HW2  946   3.517   1.155   2.382
 1561SOL     OW  947   2.475   1.365   2.588
 1561SOL    HW1  948   2.426   1.278   2.597
 1561SOL    HW2  949   2.452   1.408   2.501
 1562SOL     OW  950   3.155   1.228   3.285
 1562SOL    HW1  951   3.192   1.155   3.227
 1562SOL    HW2  952   3.207   1.233   3.370
 1564SOL     OW  953   2.059   0.976   3.126
 1564SOL    HW1  954   2.148   0.931   3.112
 1564SOL    HW2  955   1.986   0.911   3.107
 1565SOL     OW  956   3.387   0.999   2.052
 1565SOL    HW1  957   3.324   0.923   2.065
 1565SOL    HW2  958   3.435   1.017   2.138
 1566SOL     OW  959   3.049   1.792   3.478
 1566SOL    HW1  960   3.073   1.852   3.402
 1566SOL    HW2  961   3.056   1.697   3.448
 1568SOL     OW  962   3.328   1.417   2.815
 1568SOL    HW1  963   3.269   1.423   2.895
 1568SOL    HW2  964   3.313   1.329   2.769
 1569SOL     OW  965   3.529   1.714   2.434
 1569SOL    HW1  966   3.488   1.691   2.346
 1569SOL    HW2  967   3.511   1.640   2.499
 1570SOL     OW  968   2.460   0.729   2.132
 1570SOL    HW1  969   2.484   0.798   2.064
 1570SOL    HW2  970   2.382   0.762   2.186
 1572SOL     OW  971   3.438   1.662   2.169
 1572SOL    HW1  972   3.527   1.708   2.172
 1572SOL    HW2  973   3.417   1.638   2.074
 1577SOL     OW  974   2.903   0.701   2.291
 1577SOL    HW1  975   2.929   0.697   2.387
 1577SOL    HW2  976   2.818   0.650   2.277
 1578SOL     OW  977   1.938   0.811   2.651
 1578SOL    HW1  978   2.037   0.799   2.660
 1578SOL    HW2  979   1.914   0.906   2.672
 1579SOL     OW  980   1.992   1.821   3.433
 1579SOL    HW1  981   1.982   1.806   3.532
 1579SOL    HW2  982   1.906   1.857   3.397
 1582SOL     OW  983   3.224   1.144   2.407
 1582SOL    HW1  984   3.307   1.115   2.359
 1582SOL    HW2  985   3.175   1.211   2.351
 1584SOL     OW  986   2.870   1.456   2.339
 1584SOL    HW1  987   2.824   1.528   2.287
 1584SOL    HW2  988   2.866   1.476   2.437
 1585SOL     OW  989   2.213   1.801   2.715
 1585SOL    HW1  990   2.263   1.715   2.721
 1585SOL    HW2  991   2.278   1.878   2.712
 1587SOL     OW  992   3.089   1.550   3.368
 1587SOL    HW1  993   3.095   1.473   3.432
 1587SOL    HW2  994   3.037   1.524   3.288
 1588SOL     OW  995   2.183   0.943   2.104
 1588SOL    HW1  996   2.265   0.982   2.062
 1588SOL    HW2  997   2.156   0.861   2.055
 1590SOL     OW  998   2.323   1.266   3.589
 1590SOL    HW1  999   2.273   1.267   3.503
 1590SOL    HW2 1000   2.260   1.248   3.665
 1591SOL     OW 1001   2.973   1.776   2.099
 1591SOL    HW1 1002   2.913   1.714   2.149
 1591SOL    HW2 1003   3.004   1.732   2.014
 1593SOL     OW 1004   3.494   1.377   1.943
 1593SOL    HW1 1005   3.462   1.471   1.933
 1593SOL    HW2 1006   3.418   1.314   1.931
 1594SOL     OW 1007   2.326   1.743   2.185
 1594SOL    HW1 1008   2.359   1.782   2.271
 1594SOL    HW2 1009   2.402   1.736   2.120
 1596SOL     OW 1010   2.111   1.785   3.103
 1596SOL    HW1 1011   2.168   1.720   3.153
 1596SOL    HW2 1012   2.095   1.752   3.010
 1597SOL     OW 1013   2.802   1.698   2.766
 1597SOL    HW1 1014   2.882   1.641   2.787
 1597SOL    HW2 1015   2.753   1.658   2.689
 1598SOL     OW 1016   2.244   0.700   2.342
 1598SOL    HW1 1017   2.289   0.610   2.339
 1598SOL    HW2 1018   2.150   0.689   2.375
 1602SOL     OW 1019   2.750   1.514   3.057
 1602SOL    HW1 1020   2.727   1.489   2.963
 1602SOL    HW2 1021   2.811   1.445   3.096
 1604SOL     OW 1022   2.665   1.402   2.786
 1604SOL    HW1 1023   2.755   1.416   2.744
 1604SOL    HW2 1024   2.594   1.404   2.715
 1607SOL     OW 1025   3.296   1.188   1.903
 1607SOL    HW1 1026   3.328   1.112   1.960
 1607SOL    HW2 1027   3.204   1.215   1.933
 1611SOL     OW 1028   3.089   1.570   2.655
 1611SOL    HW1 1029   3.110   1.644   2.590
 1611SOL    HW2 1030   3.157   1.570   2.728
 1612SOL     OW 1031   2.321   1.152   2.603
 1612SOL    HW1 1032   2.250   1.125   2.668
 1612SOL    HW2 1033   2.295   1.124   2.510
 1613SOL     OW 1034   3.133   1.797   2.453
 1613SOL    HW1 1035   3.177   1.861   2.389
 1613SOL    HW2 1036   3.083   1.849   2.523
 1619SOL     OW 1037   3.291   1.173   2.729
 1619SOL    HW1 1038   3.236   1.089   2.722
 1619SOL    HW2 1039   3.317   1.202   2.637
 1622SOL     OW 1040   2.350   1.385   2.036
 1622SOL    HW1 1041   2.263   1.370   2.083
 1622SOL    HW2 1042   2.333   1.411   1.941
 1623SOL     OW 1043   3.526   1.280   2.519
 1623SOL    HW1 1044   3.625   1.288   2.533
 1623SOL    HW2 1045   3.481   1.364   2.550
 1627SOL     OW 1046   2.926   1.347   3.202
 1627SOL    HW1 1047   2.846   1.324   3.257
 1627SOL    HW2 1048   3.009   1.321   3.251
 1628SOL     OW 1049   3.454   1.629   3.487
 1628SOL    HW1 1050   3.481   1.663   3.397
 1628SOL    HW2 1051   3.533   1.591   3.533
 1629SOL     OW 1052   2.973   1.195   2.962
 1629SOL    HW1 1053   2.933   1.239   3.043
 1629SOL    HW2 1054   2.932   1.232   2.879
 1633SOL     OW 1055   2.567   1.050   2.230
 1633SOL    HW1 1056   2.553   1.057   2.329
 1633SOL    HW2 1057   2.651   0.999   2.212
 1634SOL     OW 1058   2.272   0.813   3.113
 1634SOL    HW1 1059   2.358   0.825   3.163
 1634SOL    HW2 1060   2.230   0.726   3.140
 1636SOL     OW 1061   1.926   1.564   3.193
 1636SOL    HW1 1062   1.880   1.646   3.159
 1636SOL    HW2 1063   2.024   1.583   3.202
 1637SOL     OW 1064   2.229   1.100   2.363
 1637SOL    HW1 1065   2.222   1.183   2.307
 1637SOL    HW2 1066   2.233   1.020   2.303
 1639SOL     OW 1067   3.114   1.348   2.250
 1639SOL    HW1 1068   3.164   1.425   2.290
 1639SOL    HW2 1069   3.019   1.350   2.282
 1640SOL     OW 1070   3.134   1.445   3.004
 1640SOL    HW1 1071   3.181   1.458   3.091
 1640SOL    HW2 1072   3.068   1.371   3.013
 1642SOL     OW 1073   2.216   1.510   3.191
 1642SOL    HW1 1074   2.195   1.466   3.104
 1642SOL    HW2 1075   2.313   1.536   3.194
 1647SOL     OW 1076   2.435   0.870   2.891
 1647SOL    HW1 1077   2.479   0.959   2.882
 1647SOL    HW2 1078   2.372   0.870   2.968
 1651SOL     OW 1079   1.899   1.310   3.144
 1651SOL    HW1 1080   1.952   1.261   3.212
 1651SOL    HW2 1081   1.921   1.408   3.149
 1656SOL     OW 1082   2.885   0.766   2.828
 1656SOL    HW1 1083   2.900   0.787   2.924
 1656SOL    HW2 1084   2.855   0.671   2.819
 1657SOL     OW 1085   2.842   1.573   3.562
 1657SOL    HW1 1086   2.822   1.617   3.474
 1657SOL    HW2 1087   2.881   1.482   3.546
 1661SOL     OW 1088   3.165   0.838   1.904
 1661SOL    HW1 1089   3.199   0.745   1.919
 1661SOL    HW2 1090   3.183   0.865   1.809
 1662SOL     OW 1091   2.930   1.333   2.711
 1662SOL    HW1 1092   2.937   1.249   2.656
 1662SOL    HW2 1093   2.992   1.402   2.675
 1663SOL     OW 1094   2.181   0.810   2.811
 1663SOL    HW1 1095   2.274   0.846   2.816
 1663SOL    HW2 1096   2.175   0.725   2.863
 1667SOL     OW 1097   1.870   1.326   2.062
 1667SOL    HW1 1098   1.777   1.347   2.031
 1667SOL    HW2 1099   1.880   1.227   2.075
 1668SOL     OW 1100   1.950   1.801   2.789
 1668SOL    HW1 1101   1.908   1.715   2.762
 1668SOL    HW2 1102   2.044   1.804   2.755
 1669SOL     OW 1103   2.366   1.568   2.772
 1669SOL    HW1 1104   2.432   1.642   2.781
 1669SOL    HW2 1105   2.410   1.489   2.730
 1670SOL     OW 1106   2.864   0.796   3.100
 1670SOL    HW1 1107   2.905   0.764   3.186
 1670SOL    HW2 1108   2.768   0.769   3.097
 1676SOL     OW 1109   2.114   1.564   3.606
 1676SOL    HW1 1110   2.084   1.621   3.682
 1676SOL    HW2 1111   2.107   1.467   3.632
 1678SOL     OW 1112   2.792   1.678   3.327
 1678SOL    HW1 1113   2.768   1.660   3.232
 1678SOL    HW2 1114   2.822   1.772   3.337
 1680SOL     OW 1115   2.021   1.137   3.328
 1680SOL    HW1 1116   2.043   1.076   3.404
 1680SOL    HW2 1117   2.031   1.088   3.242
 1681SOL     OW 1118   3.209   1.059   3.096
 1681SOL    HW1 1119   3.233   0.996   3.022
 1681SOL    HW2 1120   3.119   1.099   3.078
 1682SOL     OW 1121   3.164   0.855   2.171
 1682SOL    HW1 1122   3.078   0.824   2.213
 1682SOL    HW2 1123   3.160   0.841   2.072
 1683SOL     OW 1124   3.621   1.747   3.016
 1683SOL    HW1 1125   3.682   1.777   2.943
 1683SOL    HW2 1126   3.583   1.658   2.994
 1684SOL     OW 1127   3.114   1.731   2.990
 1684SOL    HW1 1128   3.198   1.736   2.936
 1684SOL    HW2 1129   3.091   1.635   3.008
 1685SOL     OW 1130   1.945   1.258   2.884
 1685SOL    HW1 1131   1.940   1.257   2.984
 1685SOL    HW2 1132   1.862   1.217   2.846
 1686SOL     OW 1133   2.550   1.662   3.578
 1686SOL    HW1 1134   2.494   1.743   3.587
 1686SOL    HW2 1135   2.602   1.666   3.492
 1688SOL     OW 1136   3.250   1.573   2.339
 1688SOL    HW1 1137   3.317   1.585   2.265
 1688SOL    HW2 1138   3.210   1.662   2.362
 1689SOL     OW 1139   1.992   1.794   3.713
 1689SOL    HW1 1140   1.951   1.720   3.766
 1689SOL    HW2 1141   2.056   1.845   3.771
 1690SOL     OW 1142   3.142   0.927   2.534
 1690SOL    HW1 1143   3.202   0.846   2.536
 1690SOL    HW2 1144   3.182   0.996   2.474
 1691SOL     OW 1145   2.692   1.273   3.284
 1691SOL    HW1 1146   2.687   1.306   3.379
 1691SOL    HW2 1147   2.606   1.292   3.238
 1692SOL     OW 1148   2.534   1.616   2.016
 1692SOL    HW1 1149   2.543   1.626   1.917
 1692SOL    HW2 1150   2.494   1.527   2.037
 1693SOL     OW 1151   3.512   1.720   3.256
 1693SOL    HW1 1152   3.565   1.730   3.172
 1693SOL    HW2 1153   3.485   1.810   3.290
 1696SOL     OW 1154   3.056   1.612   1.893
 1696SOL    HW1 1155   3.062   1.519   1.930
 1696SOL    HW2 1156   2.997   1.612   1.813
 1697SOL     OW 1157   2.684   1.002   3.234
 1697SOL    HW1 1158   2.724   1.001   3.142
 1697SOL    HW2 1159   2.694   1.094   3.274
 1698SOL     OW 1160   2.778   0.910   2.153
 1698SOL    HW1 1161   2.841   0.948   2.085
 1698SOL    HW2 1162   2.818   0.827   2.192
 1699SOL     OW 1163   3.366   1.607   1.906
 1699SOL    HW1 1164   3.274   1.644   1.913
 1699SOL    HW2 1165   3.404   1.627   1.816
 1700SOL     OW 1166   2.234   1.288   3.352
 1700SOL    HW1 1167   2.221   1.381   3.318
 1700SOL    HW2 1168   2.150   1.236   3.339
 1701SOL     OW 1169   3.476   1.292   3.151
 1701SOL    HW1 1170   3.536   1.295   3.231
 1701SOL    HW2 1171   3.401   1.356   3.164
 1702SOL     OW 1172   2.901   1.098   2.558
 1702SOL    HW1 1173   2.831   1.051   2.612
 1702SOL    HW2 1174   2.960   1.030   2.515
 1704SOL     OW 1175   2.452   1.487   2.353
 1704SOL    HW1 1176   2.494   1.429   2.283
 1704SOL    HW2 1177   2.408   1.566   2.309
 1706SOL     OW 1178   2.117   1.348   2.152
 1706SOL    HW1 1179   2.021   1.349   2.125
 1706SOL    HW2 1180   2.129   1.401   2.236
 1712SOL     OW 1181   3.045   1.335   1.981
 1712SOL    HW1 1182   2.946   1.324   1.983
 1712SOL    HW2 1183   3.079   1.350   2.074
 1713SOL     OW 1184   2.475   0.842   3.293
 1713SOL    HW1 1185   2.531   0.923   3.276
 1713SOL    HW2 1186   2.534   0.762   3.296
 1714SOL     OW 1187   3.355   1.767   2.821
 1714SOL    HW1 1188   3.388   1.831   2.752
 1714SOL    HW2 1189   3.421   1.761   2.896
 1717SOL     OW 1190   2.252   1.741   3.422
 1717SOL    HW1 1191   2.161   1.782   3.420
 1717SOL    HW2 1192   2.245   1.647   3.454
 1720SOL     OW 1193   2.456   0.745   2.514
 1720SOL    HW1 1194   2.506   0.830   2.495
 1720SOL    HW2 1195   2.368   0.747   2.466
 1723SOL     OW 1196   2.721   1.374   1.878
 1723SOL    HW1 1197   2.675   1.389   1.966
 1723SOL    HW2 1198   2.765   1.459   1.848
 1724SOL     OW 1199   2.523   1.790   2.815
 1724SOL    HW1 1200   2.477   1.878   2.802
 1724SOL    HW2 1201   2.622   1.802   2.808
 1725SOL     OW 1202   2.721   0.956   2.723
 1725SOL    HW1 1203   2.775   0.887   2.771
 1725SOL    HW2 1204   2.689   1.025   2.789
 1726SOL     OW 1205   2.945   0.984   1.949
 1726SOL    HW1 1206   2.922   1.037   1.867
 1726SOL    HW2 1207   3.026   0.928   1.930
 1727SOL     OW 1208   3.723   1.569   2.713
 1727SOL    HW1 1209   3.652   1.557   2.643
 1727SOL    HW2 1210   3.724   1.490   2.773
 1728SOL     OW 1211   2.083   1.314   3.706
 1728SOL    HW1 1212   2.018   1.241   3.685
 1728SOL    HW2 1213   2.087   1.328   3.804
 1729SOL     OW 1214   1.941   1.240   2.515
 1729SOL    HW1 1215   1.940   1.193   2.603
 1729SOL    HW2 1216   2.023   1.212   2.464
 1730SOL     OW 1217   2.534   1.391   3.486
 1730SOL    HW1 1218   2.456   1.341   3.524
 1730SOL    HW2 1219   2.531   1.486   3.517
 1733SOL     OW 1220   3.567   1.487   2.966
 1733SOL    HW1 1221   3.474   1.462   2.939
 1733SOL    HW2 1222   3.593   1.437   3.048
 1735SOL     OW 1223   2.674   1.586   2.549
 1735SOL    HW1 1224   2.706   1.596   2.455
 1735SOL    HW2 1225   2.595   1.524   2.551
 1738SOL     OW 1226   2.632   1.330   2.163
 1738SOL    HW1 1227   2.586   1.243   2.180
 1738SOL    HW2 1228   2.723   1.327   2.204
 1739SOL     OW 1229   2.480   1.567   3.146
 1739SOL    HW1 1230   2.475   1.649   3.203
 1739SOL    HW2 1231   2.569   1.564   3.101
 1743SOL     OW 1232   1.901   1.077   2.162
 1743SOL    HW1 1233   2.000   1.066   2.153
 1743SOL    HW2 1234   1.861   0.991   2.194
 1744SOL     OW 1235   2.737   1.646   2.199
 1744SOL    HW1 1236   2.660   1.611   2.145
 1744SOL    HW2 1237   2.705   1.717   2.261
 1759SOL     OW 1238   1.889   1.596   3.841
 1759SOL    HW1 1239   1.870   1.500   3.862
 1759SOL    HW2 1240   1.856   1.654   3.916
 1820SOL     OW 1241   2.534   1.616   3.878
 1820SOL    HW1 1242   2.543   1.626   3.779
 1820SOL    HW2 1243   2.494   1.527   3.899
 1823SOL     OW 1244   3.056   1.612   3.755
 1823SOL    HW1 1245   3.062   1.519   3.792
 1823SOL    HW2 1246   2.997   1.612   3.675
 1834SOL     OW 1247   2.721   1.374   3.740
 1834SOL    HW1 1248   2.675   1.389   3.828
 1834SOL    HW2 1249   2.765   1.459   3.710
 1850SOL     OW 1250   2.087   2.137   0.996
 1850SOL    HW1 1251   2.122   2.120   1.088
 1850SOL    HW2 1252   1.999   2.092   0.984
 1851SOL     OW 1253   1.881   2.230   0.647
 1851SOL    HW1 1254   1.799   2.273   0.686
 1851SOL    HW2 1255   1.853   2.157   0.584
 1852SOL     OW 1256   2.431   3.137   1.165
 1852SOL    HW1 1257   2.338   3.130   1.128
 1852SOL    HW2 1258   2.442   3.226   1.209
 1854SOL     OW 1259   2.997   2.565   0.717
 1854SOL    HW1 1260   3.054   2.643   0.692
 1854SOL    HW2 1261   2.937   2.591   0.793
 1856SOL     OW 1262   2.630   3.006   1.023
 1856SOL    HW1 1263   2.552   3.023   1.083
 1856SOL    HW2 1264   2.664   3.093   0.987
 1857SOL     OW 1265   2.712   2.660   1.823
 1857SOL    HW1 1266   2.708   2.736   1.888
 1857SOL    HW2 1267   2.734   2.696   1.732
 1858SOL     OW 1268   2.547   2.874   0.665
 1858SOL    HW1 1269   2.616   2.858   0.735
 1858SOL    HW2 1270   2.474   2.931   0.703
 1859SOL     OW 1271   2.548   3.023   1.803
 1859SOL    HW1 1272   2.608   3.102   1.817
 1859SOL    HW2 1273   2.462   3.054   1.762
 1860SOL     OW 1274   2.197   3.297   1.061
 1860SOL    HW1 1275   2.119   3.266   1.008
 1860SOL    HW2 1276   2.255   3.355   1.004
 1861SOL     OW 1277   3.322   3.367   1.339
 1861SOL    HW1 1278   3.346   3.461   1.365
 1861SOL    HW2 1279   3.306   3.313   1.421
 1862SOL     OW 1280   2.300   2.254   1.499
 1862SOL    HW1 1281   2.382   2.198   1.508
 1862SOL    HW2 1282   2.219   2.196   1.503
 1865SOL     OW 1283   2.989   3.203   1.690
 1865SOL    HW1 1284   3.036   3.203   1.778
 1865SOL    HW2 1285   2.941   3.116   1.679
 1867SOL     OW 1286   2.102   2.953   0.886
 1867SOL    HW1 1287   2.116   2.869   0.938
 1867SOL    HW2 1288   2.047   3.017   0.941
 1868SOL     OW 1289   2.482   3.648   1.439
 1868SOL    HW1 1290   2.390   3.631   1.474
 1868SOL    HW2 1291   2.510   3.740   1.465
 1870SOL     OW 1292   3.456   1.976   1.480
 1870SOL    HW1 1293   3.438   2.043   1.408
 1870SOL    HW2 1294   3.453   2.022   1.569
 1876SOL     OW 1295   1.975   2.599   1.597
 1876SOL    HW1 1296   2.063   2.586   1.642
 1876SOL    HW2 1297   1.962   2.696   1.575
 1878SOL     OW 1298   3.155   3.090   1.423
 1878SOL    HW1 1299   3.192   3.017   1.365
 1878SOL    HW2 1300   3.207   3.095   1.508
 1880SOL     OW 1301   2.059   2.838   1.264
 1880SOL    HW1 1302   2.148   2.793   1.250
 1880SOL    HW2 1303   1.986   2.773   1.245
 1882SOL     OW 1304   3.049   3.654   1.616
 1882SOL    HW1 1305   3.073   3.714   1.540
 1882SOL    HW2 1306   3.056   3.559   1.586
 1883SOL     OW 1307   2.179   2.113   1.801
 1883SOL    HW1 1308   2.250   2.184   1.807
 1883SOL    HW2 1309   2.091   2.152   1.829
 1887SOL     OW 1310   3.143   2.207   0.944
 1887SOL    HW1 1311   3.057   2.157   0.931
 1887SOL    HW2 1312   3.205   2.153   1.000
 1889SOL     OW 1313   2.669   2.467   1.465
 1889SOL    HW1 1314   2.622   2.464   1.554
 1889SOL    HW2 1315   2.618   2.412   1.399
 1890SOL     OW 1316   3.256   2.331   1.674
 1890SOL    HW1 1317   3.236   2.374   1.762
 1890SOL    HW2 1318   3.334   2.269   1.683
 1891SOL     OW 1319   2.835   2.752   1.572
 1891SOL    HW1 1320   2.881   2.668   1.543
 1891SOL    HW2 1321   2.779   2.786   1.497
 1892SOL     OW 1322   2.853   2.272   1.242
 1892SOL    HW1 1323   2.776   2.306   1.296
 1892SOL    HW2 1324   2.819   2.221   1.163
 1894SOL     OW 1325   1.938   2.673   0.789
 1894SOL    HW1 1326   2.037   2.661   0.798
 1894SOL    HW2 1327   1.914   2.768   0.810
 1895SOL     OW 1328   1.992   3.683   1.571
 1895SOL    HW1 1329   1.982   3.668   1.670
 1895SOL    HW2 1330   1.906   3.719   1.535
 1897SOL     OW 1331   3.581   2.447   1.831
 1897SOL    HW1 1332   3.555   2.536   1.795
 1897SOL    HW2 1333   3.579   2.379   1.758
 1899SOL     OW 1334   2.412   2.058   0.885
 1899SOL    HW1 1335   2.407   2.053   0.985
 1899SOL    HW2 1336   2.414   2.154   0.856
 1903SOL     OW 1337   3.089   3.412   1.506
 1903SOL    HW1 1338   3.095   3.335   1.570
 1903SOL    HW2 1339   3.037   3.386   1.426
 1906SOL     OW 1340   2.323   3.128   1.727
 1906SOL    HW1 1341   2.273   3.129   1.641
 1906SOL    HW2 1342   2.260   3.110   1.803
 1908SOL     OW 1343   2.064   2.147   1.498
 1908SOL    HW1 1344   1.984   2.207   1.485
 1908SOL    HW2 1345   2.054   2.098   1.584
 1912SOL     OW 1346   2.111   3.647   1.241
 1912SOL    HW1 1347   2.168   3.582   1.291
 1912SOL    HW2 1348   2.095   3.614   1.148
 1915SOL     OW 1349   3.409   2.084   1.729
 1915SOL    HW1 1350   3.404   2.121   1.821
 1915SOL    HW2 1351   3.337   2.015   1.717
 1916SOL     OW 1352   2.643   2.126   1.749
 1916SOL    HW1 1353   2.710   2.065   1.792
 1916SOL    HW2 1354   2.570   2.145   1.814
 1917SOL     OW 1355   2.750   3.376   1.195
 1917SOL    HW1 1356   2.727   3.351   1.101
 1917SOL    HW2 1357   2.811   3.307   1.234
 1918SOL     OW 1358   3.213   2.452   1.433
 1918SOL    HW1 1359   3.241   2.409   1.518
 1918SOL    HW2 1360   3.238   2.548   1.434
 1919SOL     OW 1361   2.665   3.264   0.924
 1919SOL    HW1 1362   2.755   3.278   0.882
 1919SOL    HW2 1363   2.594   3.266   0.853
 1920SOL     OW 1364   2.784   2.365   0.899
 1920SOL    HW1 1365   2.759   2.356   0.803
 1920SOL    HW2 1366   2.832   2.283   0.930
 1925SOL     OW 1367   2.938   2.545   1.464
 1925SOL    HW1 1368   2.858   2.484   1.467
 1925SOL    HW2 1369   3.019   2.492   1.440
 1927SOL     OW 1370   2.321   3.014   0.741
 1927SOL    HW1 1371   2.250   2.987   0.806
 1927SOL    HW2 1372   2.295   2.986   0.648
 1930SOL     OW 1373   1.940   2.418   1.386
 1930SOL    HW1 1374   2.032   2.417   1.345
 1930SOL    HW2 1375   1.934   2.492   1.453
 1931SOL     OW 1376   2.423   2.084   1.147
 1931SOL    HW1 1377   2.461   2.000   1.184
 1931SOL    HW2 1378   2.335   2.103   1.191
 1932SOL     OW 1379   2.728   2.316   0.642
 1932SOL    HW1 1380   2.696   2.388   0.580
 1932SOL    HW2 1381   2.752   2.235   0.589
 1933SOL     OW 1382   2.879   1.901   0.753
 1933SOL    HW1 1383   2.807   1.906   0.684
 1933SOL    HW2 1384   2.855   1.832   0.822
 1935SOL     OW 1385   3.328   2.452   0.992
 1935SOL    HW1 1386   3.298   2.357   0.999
 1935SOL    HW2 1387   3.401   2.468   1.058
 1941SOL     OW 1388   3.616   3.085   1.588
 1941SOL    HW1 1389   3.707   3.046   1.575
 1941SOL    HW2 1390   3.624   3.181   1.612
 1942SOL     OW 1391   2.926   3.209   1.340
 1942SOL    HW1 1392   2.846   3.186   1.395
 1942SOL    HW2 1393   3.009   3.183   1.389
 1943SOL     OW 1394   3.454   3.491   1.625
 1943SOL    HW1 1395   3.481   3.525   1.535
 1943SOL    HW2 1396   3.533   3.453   1.671
 1944SOL     OW 1397   2.973   3.057   1.100
 1944SOL    HW1 1398   2.933   3.101   1.181
 1944SOL    HW2 1399   2.932   3.094   1.017
 1946SOL     OW 1400   2.777   1.951   1.402
 1946SOL    HW1 1401   2.802   1.931   1.307
 1946SOL    HW2 1402   2.849   2.007   1.444
 1947SOL     OW 1403   2.842   2.978   1.719
 1947SOL    HW1 1404   2.743   2.984   1.729
 1947SOL    HW2 1405   2.865   2.898   1.663
 1949SOL     OW 1406   2.272   2.675   1.251
 1949SOL    HW1 1407   2.358   2.687   1.301
 1949SOL    HW2 1408   2.230   2.588   1.278
 1950SOL     OW 1409   3.136   2.248   1.262
 1950SOL    HW1 1410   3.157   2.322   1.326
 1950SOL    HW2 1411   3.047   2.265   1.219
 1951SOL     OW 1412   1.926   3.426   1.331
 1951SOL    HW1 1413   1.880   3.508   1.297
 1951SOL    HW2 1414   2.024   3.445   1.340
 1953SOL     OW 1415   2.428   2.399   0.865
 1953SOL    HW1 1416   2.440   2.465   0.791
 1953SOL    HW2 1417   2.474   2.433   0.948
 1955SOL     OW 1418   3.134   3.307   1.142
 1955SOL    HW1 1419   3.181   3.320   1.229
 1955SOL    HW2 1420   3.068   3.233   1.151
 1957SOL     OW 1421   2.216   3.372   1.329
 1957SOL    HW1 1422   2.195   3.328   1.242
 1957SOL    HW2 1423   2.313   3.398   1.332
 1958SOL     OW 1424   2.264   2.613   1.598
 1958SOL    HW1 1425   2.332   2.668   1.551
 1958SOL    HW2 1426   2.304   2.525   1.625
 1959SOL     OW 1427   3.449   2.641   1.670
 1959SOL    HW1 1428   3.357   2.679   1.665
 1959SOL    HW2 1429   3.509   2.688   1.605
 1960SOL     OW 1430   2.875   1.967   1.770
 1960SOL    HW1 1431   2.881   2.052   1.718
 1960SOL    HW2 1432   2.907   1.891   1.713
 1961SOL     OW 1433   2.366   1.912   1.740
 1961SOL    HW1 1434   2.324   1.855   1.670
 1961SOL    HW2 1435   2.300   1.981   1.772
 1962SOL     OW 1436   2.435   2.732   1.029
 1962SOL    HW1 1437   2.479   2.821   1.020
 1962SOL    HW2 1438   2.372   2.732   1.106
 1963SOL     OW 1439   3.222   2.724   1.045
 1963SOL    HW1 1440   3.147   2.724   0.979
 1963SOL    HW2 1441   3.259   2.632   1.054
 1965SOL     OW 1442   2.169   2.075   1.231
 1965SOL    HW1 1443   2.146   2.112   1.321
 1965SOL    HW2 1444   2.139   1.980   1.225
 1966SOL     OW 1445   1.899   3.172   1.282
 1966SOL    HW1 1446   1.952   3.123   1.350
 1966SOL    HW2 1447   1.921   3.270   1.287
 1967SOL     OW 1448   2.594   2.496   1.064
 1967SOL    HW1 1449   2.653   2.470   0.988
 1967SOL    HW2 1450   2.566   2.592   1.053
 1968SOL     OW 1451   3.590   2.797   1.854
 1968SOL    HW1 1452   3.544   2.790   1.765
 1968SOL    HW2 1453   3.528   2.841   1.920
 1969SOL     OW 1454   2.169   1.925   0.618
 1969SOL    HW1 1455   2.158   2.019   0.651
 1969SOL    HW2 1456   2.164   1.862   0.695
 1971SOL     OW 1457   2.885   2.628   0.966
 1971SOL    HW1 1458   2.900   2.649   1.062
 1971SOL    HW2 1459   2.855   2.533   0.957
 1972SOL     OW 1460   2.842   3.435   1.700
 1972SOL    HW1 1461   2.822   3.479   1.612
 1972SOL    HW2 1462   2.881   3.344   1.684
 1974SOL     OW 1463   2.212   2.760   1.804
 1974SOL    HW1 1464   2.288   2.804   1.852
 1974SOL    HW2 1465   2.247   2.713   1.722
 1978SOL     OW 1466   2.181   2.672   0.949
 1978SOL    HW1 1467   2.274   2.708   0.954
 1978SOL    HW2 1468   2.175   2.587   1.001
 1979SOL     OW 1469   2.201   2.371   1.006
 1979SOL    HW1 1470   2.149   2.288   0.989
 1979SOL    HW2 1471   2.278   2.376   0.942
 1980SOL     OW 1472   3.000   2.242   1.678
 1980SOL    HW1 1473   2.955   2.305   1.742
 1980SOL    HW2 1474   3.093   2.273   1.661
 1981SOL     OW 1475   3.022   2.069   1.477
 1981SOL    HW1 1476   3.022   2.133   1.554
 1981SOL    HW2 1477   3.050   2.117   1.394
 1984SOL     OW 1478   2.366   3.430   0.910
 1984SOL    HW1 1479   2.432   3.504   0.919
 1984SOL    HW2 1480   2.410   3.351   0.868
 1985SOL     OW 1481   2.864   2.658   1.238
 1985SOL    HW1 1482   2.905   2.626   1.324
 1985SOL    HW2 1483   2.768   2.631   1.235
 1986SOL     OW 1484   1.902   2.406   1.114
 1986SOL    HW1 1485   1.987   2.373   1.073
 1986SOL    HW2 1486   1.915   2.421   1.212
 1987SOL     OW 1487   2.051   2.382   1.722
 1987SOL    HW1 1488   2.110   2.342   1.652
 1987SOL    HW2 1489   1.993   2.453   1.681
 1988SOL     OW 1490   3.231   2.812   1.660
 1988SOL    HW1 1491   3.270   2.901   1.680
 1988SOL    HW2 1492   3.241   2.792   1.563
 1990SOL     OW 1493   3.519   2.466   1.206
 1990SOL    HW1 1494   3.481   2.397   1.268
 1990SOL    HW2 1495   3.601   2.430   1.162
 1991SOL     OW 1496   2.114   3.426   1.744
 1991SOL    HW1 1497   2.084   3.483   1.820
 1991SOL    HW2 1498   2.107   3.329   1.770
 1992SOL     OW 1499   2.533   2.326   1.269
 1992SOL    HW1 1500   2.499   2.237   1.239
 1992SOL    HW2 1501   2.559   2.380   1.189
 1993SOL     OW 1502   2.792   3.540   1.465
 1993SOL    HW1 1503   2.768   3.522   1.370
 1993SOL    HW2 1504   2.822   3.634   1.475
 1995SOL     OW 1505   2.021   2.999   1.466
 1995SOL    HW1 1506   2.043   2.938   1.542
 1995SOL    HW2 1507   2.031   2.950   1.380
 1996SOL     OW 1508   3.209   2.921   1.234
 1996SOL    HW1 1509   3.233   2.858   1.160
 1996SOL    HW2 1510   3.119   2.961   1.216
 2000SOL     OW 1511   1.945   3.120   1.022
 2000SOL    HW1 1512   1.940   3.119   1.122
 2000SOL    HW2 1513   1.862   3.079   0.984
 2001SOL     OW 1514   2.550   3.524   1.716
 2001SOL    HW1 1515   2.494   3.605   1.725
 2001SOL    HW2 1516   2.602   3.528   1.630
 2005SOL     OW 1517   1.992   3.656   1.851
 2005SOL    HW1 1518   1.951   3.582   1.904
 2005SOL    HW2 1519   2.056   3.707   1.909
 2007SOL     OW 1520   2.692   3.135   1.422
 2007SOL    HW1 1521   2.687   3.168   1.517
 2007SOL    HW2 1522   2.606   3.154   1.376
 2011SOL     OW 1523   2.125   2.188   0.720
 2011SOL    HW1 1524   2.046   2.239   0.686
 2011SOL    HW2 1525   2.116   2.173   0.818
 2013SOL     OW 1526   2.684   2.864   1.372
 2013SOL    HW1 1527   2.724   2.863   1.280
 2013SOL    HW2 1528   2.694   2.956   1.412
 2016SOL     OW 1529   2.234   3.150   1.490
 2016SOL    HW1 1530   2.221   3.243   1.456
 2016SOL    HW2 1531   2.150   3.098   1.477
 2017SOL     OW 1532   3.476   3.154   1.289
 2017SOL    HW1 1533   3.536   3.157   1.369
 2017SOL    HW2 1534   3.401   3.218   1.302
 2019SOL     OW 1535   2.876   2.098   0.971
 2019SOL    HW1 1536   2.868   2.062   0.878
 2019SOL    HW2 1537   2.874   2.022   1.036
 2021SOL     OW 1538   3.571   2.247   1.381
 2021SOL    HW1 1539   3.644   2.316   1.385
 2021SOL    HW2 1540   3.599   2.172   1.322
 2023SOL     OW 1541   1.967   2.875   1.726
 2023SOL    HW1 1542   1.890   2.842   1.780
 2023SOL    HW2 1543   2.052   2.845   1.768
 2024SOL     OW 1544   2.534   2.065   1.489
 2024SOL    HW1 1545   2.624   2.049   1.449
 2024SOL    HW2 1546   2.542   2.070   1.588
 2025SOL     OW 1547   3.302   2.718   1.398
 2025SOL    HW1 1548   3.245   2.770   1.335
 2025SOL    HW2 1549   3.398   2.730   1.374
 2028SOL     OW 1550   2.475   2.704   1.431
 2028SOL    HW1 1551   2.531   2.785   1.414
 2028SOL    HW2 1552   2.534   2.624   1.434
 2030SOL     OW 1553   2.578   2.427   1.708
 2030SOL    HW1 1554   2.597   2.492   1.782
 2030SOL    HW2 1555   2.638   2.347   1.717
 2031SOL     OW 1556   3.312   3.082   1.633
 2031SOL    HW1 1557   3.303   3.072   1.732
 2031SOL    HW2 1558   3.408   3.075   1.607
 2032SOL     OW 1559   2.252   3.603   1.560
 2032SOL    HW1 1560   2.161   3.644   1.558
 2032SOL    HW2 1561   2.245   3.509   1.592
 2033SOL     OW 1562   3.536   2.745   1.254
 2033SOL    HW1 1563   3.509   2.656   1.217
 2033SOL    HW2 1564   3.537   2.813   1.181
 2035SOL     OW 1565   2.456   2.607   0.652
 2035SOL    HW1 1566   2.506   2.692   0.633
 2035SOL    HW2 1567   2.368   2.609   0.604
 2036SOL     OW 1568   3.639   2.204   1.642
 2036SOL    HW1 1569   3.622   2.235   1.548
 2036SOL    HW2 1570   3.555   2.167   1.680
 2037SOL     OW 1571   3.592   2.796   1.517
 2037SOL    HW1 1572   3.630   2.887   1.532
 2037SOL    HW2 1573   3.584   2.779   1.418
 2040SOL     OW 1574   2.721   2.818   0.861
 2040SOL    HW1 1575   2.775   2.749   0.909
 2040SOL    HW2 1576   2.689   2.887   0.927
 2043SOL     OW 1577   2.083   3.176   1.844
 2043SOL    HW1 1578   2.018   3.103   1.823
 2043SOL    HW2 1579   2.087   3.190   1.942
 2045SOL     OW 1580   2.534   3.253   1.624
 2045SOL    HW1 1581   2.456   3.203   1.662
 2045SOL    HW2 1582   2.531   3.348   1.655
 2046SOL     OW 1583   3.686   2.054   1.227
 2046SOL    HW1 1584   3.682   1.964   1.271
 2046SOL    HW2 1585   3.689   2.043   1.128
 2049SOL     OW 1586   2.179   2.409   1.280
 2049SOL    HW1 1587   2.217   2.350   1.352
 2049SOL    HW2 1588   2.219   2.383   1.192
 2051SOL     OW 1589   3.286   2.076   1.112
 2051SOL    HW1 1590   3.338   2.011   1.167
 2051SOL    HW2 1591   3.237   2.139   1.173
 2052SOL     OW 1592   2.863   1.896   1.154
 2052SOL    HW1 1593   2.800   1.824   1.123
 2052SOL    HW2 1594   2.956   1.860   1.154
 2054SOL     OW 1595   2.480   3.429   1.284
 2054SOL    HW1 1596   2.475   3.511   1.341
 2054SOL    HW2 1597   2.569   3.426   1.239
 2060SOL     OW 1598   2.092   2.490   1.975
 2060SOL    HW1 1599   1.999   2.488   2.012
 2060SOL    HW2 1600   2.093   2.451   1.883
 2061SOL     OW 1601   2.087   2.137   2.858
 2061SOL    HW1 1602   2.122   2.120   2.950
 2061SOL    HW2 1603   1.999   2.092   2.846
 2062SOL     OW 1604   1.881   2.230   2.509
 2062SOL    HW1 1605   1.799   2.273   2.548
 2062SOL    HW2 1606   1.853   2.157   2.446
 2063SOL     OW 1607   2.431   3.137   3.027
 2063SOL    HW1 1608   2.338   3.130   2.990
 2063SOL    HW2 1609   2.442   3.226   3.071
 2064SOL     OW 1610   3.417   3.373   2.565
 2064SOL    HW1 1611   3.360   3.357   2.646
 2064SOL    HW2 1612   3.358   3.383   2.485
 2065SOL     OW 1613   2.997   2.565   2.579
 2065SOL    HW1 1614   3.054   2.643   2.554
 2065SOL    HW2 1615   2.937   2.591   2.655
 2066SOL     OW 1616   3.617   2.469   2.093
 2066SOL    HW1 1617   3.605   2.456   1.994
 2066SOL    HW2 1618   3.587   2.388   2.142
 2067SOL     OW 1619   2.630   3.006   2.885
 2067SOL    HW1 1620   2.552   3.023   2.945
 2067SOL    HW2 1621   2.664   3.093   2.849
 2068SOL     OW 1622   2.712   2.660   3.685
 2068SOL    HW1 1623   2.708   2.736   3.750
 2068SOL    HW2 1624   2.734   2.696   3.594
 2069SOL     OW 1625   2.547   2.874   2.527
 2069SOL    HW1 1626   2.616   2.858   2.597
 2069SOL    HW2 1627   2.474   2.931   2.565
 2070SOL     OW 1628   2.548   3.023   3.665
 2070SOL    HW1 1629   2.608   3.102   3.679
 2070SOL    HW2 1630   2.462   3.054   3.624
 2071SOL     OW 1631   2.197   3.297   2.923
 2071SOL    HW1 1632   2.119   3.266   2.870
 2071SOL    HW2 1633   2.255   3.355   2.866
 2072SOL     OW 1634   3.322   3.367   3.201
 2072SOL    HW1 1635   3.346   3.461   3.227
 2072SOL    HW2 1636   3.306   3.313   3.283
 2073SOL     OW 1637   2.300   2.254   3.361
 2073SOL    HW1 1638   2.382   2.198   3.370
 2073SOL    HW2 1639   2.219   2.196   3.365
 2074SOL     OW 1640   3.465   2.309   2.599
 2074SOL    HW1 1641   3.391   2.355   2.549
 2074SOL    HW2 1642   3.516   2.377   2.652
 2075SOL     OW 1643   2.093   3.575   2.345
 2075SOL    HW1 1644   2.127   3.652   2.399
 2075SOL    HW2 1645   2.137   3.575   2.255
 2076SOL     OW 1646   2.989   3.203   3.552
 2076SOL    HW1 1647   3.036   3.203   3.640
 2076SOL    HW2 1648   2.941   3.116   3.541
 2077SOL     OW 1649   2.092   3.296   2.400
 2077SOL    HW1 1650   2.066   3.392   2.400
 2077SOL    HW2 1651   2.021   3.242   2.445
 2078SOL     OW 1652   2.102   2.953   2.748
 2078SOL    HW1 1653   2.116   2.869   2.800
 2078SOL    HW2 1654   2.047   3.017   2.803
 2079SOL     OW 1655   2.482   3.648   3.301
 2079SOL    HW1 1656   2.390   3.631   3.336
 2079SOL    HW2 1657   2.510   3.740   3.327
 2080SOL     OW 1658   2.468   2.826   1.985
 2080SOL    HW1 1659   2.475   2.910   1.931
 2080SOL    HW2 1660   2.514   2.839   2.073
 2081SOL     OW 1661   3.456   1.976   3.342
 2081SOL    HW1 1662   3.438   2.043   3.270
 2081SOL    HW2 1663   3.453   2.022   3.431
 2083SOL     OW 1664   1.889   3.458   1.979
 2083SOL    HW1 1665   1.870   3.362   2.000
 2083SOL    HW2 1666   1.856   3.516   2.054
 2084SOL     OW 1667   3.551   2.784   2.474
 2084SOL    HW1 1668   3.646   2.755   2.482
 2084SOL    HW2 1669   3.543   2.849   2.399
 2085SOL     OW 1670   3.503   2.970   2.294
 2085SOL    HW1 1671   3.589   2.972   2.242
 2085SOL    HW2 1672   3.517   3.017   2.382
 2086SOL     OW 1673   1.975   2.599   3.459
 2086SOL    HW1 1674   2.063   2.586   3.504
 2086SOL    HW2 1675   1.962   2.696   3.437
 2087SOL     OW 1676   2.475   3.227   2.588
 2087SOL    HW1 1677   2.426   3.140   2.597
 2087SOL    HW2 1678   2.452   3.270   2.501
 2088SOL     OW 1679   3.155   3.090   3.285
 2088SOL    HW1 1680   3.192   3.017   3.227
 2088SOL    HW2 1681   3.207   3.095   3.370
 2089SOL     OW 1682   2.671   1.866   2.364
 2089SOL    HW1 1683   2.711   1.957   2.355
 2089SOL    HW2 1684   2.571   1.874   2.370
 2090SOL     OW 1685   2.059   2.838   3.126
 2090SOL    HW1 1686   2.148   2.793   3.112
 2090SOL    HW2 1687   1.986   2.773   3.107
 2091SOL     OW 1688   3.387   2.861   2.052
 2091SOL    HW1 1689   3.324   2.785   2.065
 2091SOL    HW2 1690   3.435   2.879   2.138
 2093SOL     OW 1691   2.179   2.113   3.663
 2093SOL    HW1 1692   2.250   2.184   3.669
 2093SOL    HW2 1693   2.091   2.152   3.691
 2094SOL     OW 1694   3.328   3.279   2.815
 2094SOL    HW1 1695   3.269   3.285   2.895
 2094SOL    HW2 1696   3.313   3.191   2.769
 2095SOL     OW 1697   3.529   3.576   2.434
 2095SOL    HW1 1698   3.488   3.553   2.346
 2095SOL    HW2 1699   3.511   3.502   2.499
 2096SOL     OW 1700   2.460   2.591   2.132
 2096SOL    HW1 1701   2.484   2.660   2.064
 2096SOL    HW2 1702   2.382   2.624   2.186
 2097SOL     OW 1703   3.143   2.207   2.806
 2097SOL    HW1 1704   3.057   2.157   2.793
 2097SOL    HW2 1705   3.205   2.153   2.862
 2098SOL     OW 1706   3.438   3.524   2.169
 2098SOL    HW1 1707   3.527   3.570   2.172
 2098SOL    HW2 1708   3.417   3.500   2.074
 2099SOL     OW 1709   2.669   2.467   3.327
 2099SOL    HW1 1710   2.622   2.464   3.416
 2099SOL    HW2 1711   2.618   2.412   3.261
 2100SOL     OW 1712   3.256   2.331   3.536
 2100SOL    HW1 1713   3.236   2.374   3.624
 2100SOL    HW2 1714   3.334   2.269   3.545
 2101SOL     OW 1715   2.835   2.752   3.434
 2101SOL    HW1 1716   2.881   2.668   3.405
 2101SOL    HW2 1717   2.779   2.786   3.359
 2102SOL     OW 1718   2.853   2.272   3.104
 2102SOL    HW1 1719   2.776   2.306   3.158
 2102SOL    HW2 1720   2.819   2.221   3.025
 2103SOL     OW 1721   2.903   2.563   2.291
 2103SOL    HW1 1722   2.929   2.559   2.387
 2103SOL    HW2 1723   2.818   2.512   2.277
 2104SOL     OW 1724   1.938   2.673   2.651
 2104SOL    HW1 1725   2.037   2.661   2.660
 2104SOL    HW2 1726   1.914   2.768   2.672
 2105SOL     OW 1727   1.992   3.683   3.433
 2105SOL    HW1 1728   1.982   3.668   3.532
 2105SOL    HW2 1729   1.906   3.719   3.397
 2107SOL     OW 1730   3.224   3.006   2.407
 2107SOL    HW1 1731   3.307   2.977   2.359
 2107SOL    HW2 1732   3.175   3.073   2.351
 2108SOL     OW 1733   2.412   2.058   2.747
 2108SOL    HW1 1734   2.407   2.053   2.847
 2108SOL    HW2 1735   2.414   2.154   2.718
 2109SOL     OW 1736   2.870   3.318   2.339
 2109SOL    HW1 1737   2.824   3.390   2.287
 2109SOL    HW2 1738   2.866   3.338   2.437
 2110SOL     OW 1739   2.213   3.663   2.715
 2110SOL    HW1 1740   2.263   3.577   2.721
 2110SOL    HW2 1741   2.278   3.740   2.712
 2111SOL     OW 1742   3.657   2.928   2.735
 2111SOL    HW1 1743   3.595   2.913   2.659
 2111SOL    HW2 1744   3.605   2.939   2.820
 2112SOL     OW 1745   3.089   3.412   3.368
 2112SOL    HW1 1746   3.095   3.335   3.432
 2112SOL    HW2 1747   3.037   3.386   3.288
 2113SOL     OW 1748   2.183   2.805   2.104
 2113SOL    HW1 1749   2.265   2.844   2.062
 2113SOL    HW2 1750   2.156   2.723   2.055
 2114SOL     OW 1751   3.320   2.597   2.590
 2114SOL    HW1 1752   3.315   2.532   2.665
 2114SOL    HW2 1753   3.400   2.656   2.603
 2115SOL     OW 1754   2.323   3.128   3.589
 2115SOL    HW1 1755   2.273   3.129   3.503
 2115SOL    HW2 1756   2.260   3.110   3.665
 2116SOL     OW 1757   2.973   3.638   2.099
 2116SOL    HW1 1758   2.913   3.576   2.149
 2116SOL    HW2 1759   3.004   3.594   2.014
 2117SOL     OW 1760   2.064   2.147   3.360
 2117SOL    HW1 1761   1.984   2.207   3.347
 2117SOL    HW2 1762   2.054   2.098   3.446
 2118SOL     OW 1763   3.494   3.239   1.943
 2118SOL    HW1 1764   3.462   3.333   1.933
 2118SOL    HW2 1765   3.418   3.176   1.931
 2119SOL     OW 1766   2.326   3.605   2.185
 2119SOL    HW1 1767   2.359   3.644   2.271
 2119SOL    HW2 1768   2.402   3.598   2.120
 2120SOL     OW 1769   3.262   1.969   2.288
 2120SOL    HW1 1770   3.238   1.932   2.198
 2120SOL    HW2 1771   3.361   1.985   2.292
 2121SOL     OW 1772   2.111   3.647   3.103
 2121SOL    HW1 1773   2.168   3.582   3.153
 2121SOL    HW2 1774   2.095   3.614   3.010
 2122SOL     OW 1775   2.802   3.560   2.766
 2122SOL    HW1 1776   2.882   3.503   2.787
 2122SOL    HW2 1777   2.753   3.520   2.689
 2123SOL     OW 1778   3.409   2.084   3.591
 2123SOL    HW1 1779   3.404   2.121   3.683
 2123SOL    HW2 1780   3.337   2.015   3.579
 2124SOL     OW 1781   2.476   1.984   1.979
 2124SOL    HW1 1782   2.574   1.962   1.986
 2124SOL    HW2 1783   2.445   1.967   1.886
 2125SOL     OW 1784   2.643   2.126   3.611
 2125SOL    HW1 1785   2.710   2.065   3.654
 2125SOL    HW2 1786   2.570   2.145   3.676
 2126SOL     OW 1787   2.750   3.376   3.057
 2126SOL    HW1 1788   2.727   3.351   2.963
 2126SOL    HW2 1789   2.811   3.307   3.096
 2127SOL     OW 1790   3.213   2.452   3.295
 2127SOL    HW1 1791   3.241   2.409   3.380
 2127SOL    HW2 1792   3.238   2.548   3.296
 2128SOL     OW 1793   2.665   3.264   2.786
 2128SOL    HW1 1794   2.755   3.278   2.744
 2128SOL    HW2 1795   2.594   3.266   2.715
 2129SOL     OW 1796   2.784   2.365   2.761
 2129SOL    HW1 1797   2.759   2.356   2.665
 2129SOL    HW2 1798   2.832   2.283   2.792
 2130SOL     OW 1799   2.401   1.926   2.374
 2130SOL    HW1 1800   2.320   1.927   2.432
 2130SOL    HW2 1801   2.404   2.009   2.319
 2131SOL     OW 1802   3.296   3.050   1.903
 2131SOL    HW1 1803   3.328   2.974   1.960
 2131SOL    HW2 1804   3.204   3.077   1.933
 2132SOL     OW 1805   2.159   1.897   2.033
 2132SOL    HW1 1806   2.208   1.981   2.012
 2132SOL    HW2 1807   2.221   1.832   2.078
 2133SOL     OW 1808   2.938   2.545   3.326
 2133SOL    HW1 1809   2.858   2.484   3.329
 2133SOL    HW2 1810   3.019   2.492   3.302
 2134SOL     OW 1811   3.089   3.432   2.655
 2134SOL    HW1 1812   3.110   3.506   2.590
 2134SOL    HW2 1813   3.157   3.432   2.728
 2135SOL     OW 1814   2.321   3.014   2.603
 2135SOL    HW1 1815   2.250   2.987   2.668
 2135SOL    HW2 1816   2.295   2.986   2.510
 2136SOL     OW 1817   3.133   3.659   2.453
 2136SOL    HW1 1818   3.177   3.723   2.389
 2136SOL    HW2 1819   3.083   3.711   2.523
 2137SOL     OW 1820   2.894   2.411   1.878
 2137SOL    HW1 1821   2.853   2.493   1.839
 2137SOL    HW2 1822   2.958   2.437   1.951
 2138SOL     OW 1823   1.940   2.418   3.248
 2138SOL    HW1 1824   2.032   2.417   3.207
 2138SOL    HW2 1825   1.934   2.492   3.315
 2139SOL     OW 1826   2.423   2.084   3.009
 2139SOL    HW1 1827   2.461   2.000   3.046
 2139SOL    HW2 1828   2.335   2.103   3.053
 2140SOL     OW 1829   2.728   2.316   2.504
 2140SOL    HW1 1830   2.696   2.388   2.442
 2140SOL    HW2 1831   2.752   2.235   2.451
 2141SOL     OW 1832   2.879   1.901   2.615
 2141SOL    HW1 1833   2.807   1.906   2.546
 2141SOL    HW2 1834   2.855   1.832   2.684
 2142SOL     OW 1835   3.291   3.035   2.729
 2142SOL    HW1 1836   3.236   2.951   2.722
 2142SOL    HW2 1837   3.317   3.064   2.637
 2143SOL     OW 1838   3.328   2.452   2.854
 2143SOL    HW1 1839   3.298   2.357   2.861
 2143SOL    HW2 1840   3.401   2.468   2.920
 2144SOL     OW 1841   3.719   2.695   2.239
 2144SOL    HW1 1842   3.761   2.631   2.303
 2144SOL    HW2 1843   3.681   2.644   2.161
 2145SOL     OW 1844   2.350   3.247   2.036
 2145SOL    HW1 1845   2.263   3.232   2.083
 2145SOL    HW2 1846   2.333   3.273   1.941
 2146SOL     OW 1847   3.526   3.142   2.519
 2146SOL    HW1 1848   3.625   3.150   2.533
 2146SOL    HW2 1849   3.481   3.226   2.550
 2147SOL     OW 1850   3.252   2.437   1.940
 2147SOL    HW1 1851   3.198   2.416   2.021
 2147SOL    HW2 1852   3.343   2.396   1.949
 2149SOL     OW 1853   2.926   3.209   3.202
 2149SOL    HW1 1854   2.846   3.186   3.257
 2149SOL    HW2 1855   3.009   3.183   3.251
 2151SOL     OW 1856   2.973   3.057   2.962
 2151SOL    HW1 1857   2.933   3.101   3.043
 2151SOL    HW2 1858   2.932   3.094   2.879
 2152SOL     OW 1859   3.500   2.961   2.941
 2152SOL    HW1 1860   3.505   3.042   3.000
 2152SOL    HW2 1861   3.414   2.963   2.890
 2153SOL     OW 1862   2.777   1.951   3.264
 2153SOL    HW1 1863   2.802   1.931   3.169
 2153SOL    HW2 1864   2.849   2.007   3.306
 2154SOL     OW 1865   2.842   2.978   3.581
 2154SOL    HW1 1866   2.743   2.984   3.591
 2154SOL    HW2 1867   2.865   2.898   3.525
 2155SOL     OW 1868   2.567   2.912   2.230
 2155SOL    HW1 1869   2.553   2.919   2.329
 2155SOL    HW2 1870   2.651   2.861   2.212
 2156SOL     OW 1871   2.272   2.675   3.113
 2156SOL    HW1 1872   2.358   2.687   3.163
 2156SOL    HW2 1873   2.230   2.588   3.140
 2157SOL     OW 1874   3.136   2.248   3.124
 2157SOL    HW1 1875   3.157   2.322   3.188
 2157SOL    HW2 1876   3.047   2.265   3.081
 2158SOL     OW 1877   1.926   3.426   3.193
 2158SOL    HW1 1878   1.880   3.508   3.159
 2158SOL    HW2 1879   2.024   3.445   3.202
 2159SOL     OW 1880   2.229   2.962   2.363
 2159SOL    HW1 1881   2.222   3.045   2.307
 2159SOL    HW2 1882   2.233   2.882   2.303
 2160SOL     OW 1883   3.114   3.210   2.250
 2160SOL    HW1 1884   3.164   3.287   2.290
 2160SOL    HW2 1885   3.019   3.212   2.282
 2161SOL     OW 1886   3.134   3.307   3.004
 2161SOL    HW1 1887   3.181   3.320   3.091
 2161SOL    HW2 1888   3.068   3.233   3.013
 2162SOL     OW 1889   3.444   2.501   2.334
 2162SOL    HW1 1890   3.413   2.562   2.407
 2162SOL    HW2 1891   3.494   2.553   2.265
 2163SOL     OW 1892   2.216   3.372   3.191
 2163SOL    HW1 1893   2.195   3.328   3.104
 2163SOL    HW2 1894   2.313   3.398   3.194
 2164SOL     OW 1895   2.264   2.613   3.460
 2164SOL    HW1 1896   2.332   2.668   3.413
 2164SOL    HW2 1897   2.304   2.525   3.487
 2165SOL     OW 1898   3.449   2.641   3.532
 2165SOL    HW1 1899   3.357   2.679   3.527
 2165SOL    HW2 1900   3.509   2.688   3.467
 2166SOL     OW 1901   2.875   1.967   3.632
 2166SOL    HW1 1902   2.881   2.052   3.580
 2166SOL    HW2 1903   2.907   1.891   3.575
 2167SOL     OW 1904   2.366   1.912   3.602
 2167SOL    HW1 1905   2.324   1.855   3.532
 2167SOL    HW2 1906   2.300   1.981   3.634
 2168SOL     OW 1907   2.435   2.732   2.891
 2168SOL    HW1 1908   2.479   2.821   2.882
 2168SOL    HW2 1909   2.372   2.732   2.968
 2169SOL     OW 1910   3.222   2.724   2.907
 2169SOL    HW1 1911   3.147   2.724   2.841
 2169SOL    HW2 1912   3.259   2.632   2.916
 2170SOL     OW 1913   3.071   2.387   2.137
 2170SOL    HW1 1914   3.084   2.303   2.191
 2170SOL    HW2 1915   3.042   2.461   2.197
 2171SOL     OW 1916   2.169   2.075   3.093
 2171SOL    HW1 1917   2.146   2.112   3.183
 2171SOL    HW2 1918   2.139   1.980   3.087
 2172SOL     OW 1919   1.899   3.172   3.144
 2172SOL    HW1 1920   1.952   3.123   3.212
 2172SOL    HW2 1921   1.921   3.270   3.149
 2173SOL     OW 1922   2.594   2.496   2.926
 2173SOL    HW1 1923   2.653   2.470   2.850
 2173SOL    HW2 1924   2.566   2.592   2.915
 2175SOL     OW 1925   2.169   1.925   2.480
 2175SOL    HW1 1926   2.158   2.019   2.513
 2175SOL    HW2 1927   2.164   1.862   2.557
 2176SOL     OW 1928   3.484   2.229   2.236
 2176SOL    HW1 1929   3.486   2.153   2.300
 2176SOL    HW2 1930   3.436   2.306   2.276
 2177SOL     OW 1931   2.885   2.628   2.828
 2177SOL    HW1 1932   2.900   2.649   2.924
 2177SOL    HW2 1933   2.855   2.533   2.819
 2178SOL     OW 1934   2.842   3.435   3.562
 2178SOL    HW1 1935   2.822   3.479   3.474
 2178SOL    HW2 1936   2.881   3.344   3.546
 2180SOL     OW 1937   2.212   2.760   3.666
 2180SOL    HW1 1938   2.288   2.804   3.714
 2180SOL    HW2 1939   2.247   2.713   3.584
 2181SOL     OW 1940   3.402   2.136   1.987
 2181SOL    HW1 1941   3.341   2.061   2.010
 2181SOL    HW2 1942   3.424   2.188   2.070
 2182SOL     OW 1943   3.165   2.700   1.904
 2182SOL    HW1 1944   3.199   2.607   1.919
 2182SOL    HW2 1945   3.183   2.727   1.809
 2183SOL     OW 1946   2.930   3.195   2.711
 2183SOL    HW1 1947   2.937   3.111   2.656
 2183SOL    HW2 1948   2.992   3.264   2.675
 2184SOL     OW 1949   2.181   2.672   2.811
 2184SOL    HW1 1950   2.274   2.708   2.816
 2184SOL    HW2 1951   2.175   2.587   2.863
 2185SOL     OW 1952   2.201   2.371   2.868
 2185SOL    HW1 1953   2.149   2.288   2.851
 2185SOL    HW2 1954   2.278   2.376   2.804
 2186SOL     OW 1955   3.000   2.242   3.540
 2186SOL    HW1 1956   2.955   2.305   3.604
 2186SOL    HW2 1957   3.093   2.273   3.523
 2187SOL     OW 1958   3.022   2.069   3.339
 2187SOL    HW1 1959   3.022   2.133   3.416
 2187SOL    HW2 1960   3.050   2.117   3.256
 2188SOL     OW 1961   1.870   3.188   2.062
 2188SOL    HW1 1962   1.777   3.209   2.031
 2188SOL    HW2 1963   1.880   3.089   2.075
 2189SOL     OW 1964   1.950   3.663   2.789
 2189SOL    HW1 1965   1.908   3.577   2.762
 2189SOL    HW2 1966   2.044   3.666   2.755
 2190SOL     OW 1967   2.366   3.430   2.772
 2190SOL    HW1 1968   2.432   3.504   2.781
 2190SOL    HW2 1969   2.410   3.351   2.730
 2191SOL     OW 1970   2.864   2.658   3.100
 2191SOL    HW1 1971   2.905   2.626   3.186
 2191SOL    HW2 1972   2.768   2.631   3.097
 2192SOL     OW 1973   1.902   2.406   2.976
 2192SOL    HW1 1974   1.987   2.373   2.935
 2192SOL    HW2 1975   1.915   2.421   3.074
 2193SOL     OW 1976   2.051   2.382   3.584
 2193SOL    HW1 1977   2.110   2.342   3.514
 2193SOL    HW2 1978   1.993   2.453   3.543
 2194SOL     OW 1979   3.231   2.812   3.522
 2194SOL    HW1 1980   3.270   2.901   3.542
 2194SOL    HW2 1981   3.241   2.792   3.425
 2195SOL     OW 1982   3.519   2.466   3.068
 2195SOL    HW1 1983   3.481   2.397   3.130
 2195SOL    HW2 1984   3.601   2.430   3.024
 2196SOL     OW 1985   2.114   3.426   3.606
 2196SOL    HW1 1986   2.084   3.483   3.682
 2196SOL    HW2 1987   2.107   3.329   3.632
 2197SOL     OW 1988   2.533   2.326   3.131
 2197SOL    HW1 1989   2.499   2.237   3.101
 2197SOL    HW2 1990   2.559   2.380   3.051
 2198SOL     OW 1991   2.792   3.540   3.327
 2198SOL    HW1 1992   2.768   3.522   3.232
 2198SOL    HW2 1993   2.822   3.634   3.337
 2199SOL     OW 1994   2.021   2.999   3.328
 2199SOL    HW1 1995   2.043   2.938   3.404
 2199SOL    HW2 1996   2.031   2.950   3.242
 2200SOL     OW 1997   3.209   2.921   3.096
 2200SOL    HW1 1998   3.233   2.858   3.022
 2200SOL    HW2 1999   3.119   2.961   3.078
 2201SOL     OW 2000   3.164   2.717   2.171
 2201SOL    HW1 2001   3.078   2.686   2.213
 2201SOL    HW2 2002   3.160   2.703   2.072
 2203SOL     OW 2003   3.114   3.593   2.990
 2203SOL    HW1 2004   3.198   3.598   2.936
 2203SOL    HW2 2005   3.091   3.497   3.008
 2204SOL     OW 2006   1.945   3.120   2.884
 2204SOL    HW1 2007   1.940   3.119   2.984
 2204SOL    HW2 2008   1.862   3.079   2.846
 2205SOL     OW 2009   2.550   3.524   3.578
 2205SOL    HW1 2010   2.494   3.605   3.587
 2205SOL    HW2 2011   2.602   3.528   3.492
 2206SOL     OW 2012   3.588   1.997   2.385
 2206SOL    HW1 2013   3.661   1.980   2.318
 2206SOL    HW2 2014   3.557   1.910   2.423
 2207SOL     OW 2015   3.250   3.435   2.339
 2207SOL    HW1 2016   3.317   3.447   2.265
 2207SOL    HW2 2017   3.210   3.524   2.362
 2209SOL     OW 2018   3.142   2.789   2.534
 2209SOL    HW1 2019   3.202   2.708   2.536
 2209SOL    HW2 2020   3.182   2.858   2.474
 2210SOL     OW 2021   2.692   3.135   3.284
 2210SOL    HW1 2022   2.687   3.168   3.379
 2210SOL    HW2 2023   2.606   3.154   3.238
 2211SOL     OW 2024   2.534   3.478   2.016
 2211SOL    HW1 2025   2.543   3.488   1.917
 2211SOL    HW2 2026   2.494   3.389   2.037
 2213SOL     OW 2027   3.703   2.037   2.825
 2213SOL    HW1 2028   3.742   1.952   2.789
 2213SOL    HW2 2029   3.605   2.039   2.806
 2214SOL     OW 2030   2.125   2.188   2.582
 2214SOL    HW1 2031   2.046   2.239   2.548
 2214SOL    HW2 2032   2.116   2.173   2.680
 2215SOL     OW 2033   3.056   3.474   1.893
 2215SOL    HW1 2034   3.062   3.381   1.930
 2215SOL    HW2 2035   2.997   3.474   1.813
 2216SOL     OW 2036   2.684   2.864   3.234
 2216SOL    HW1 2037   2.724   2.863   3.142
 2216SOL    HW2 2038   2.694   2.956   3.274
 2217SOL     OW 2039   2.778   2.772   2.153
 2217SOL    HW1 2040   2.841   2.810   2.085
 2217SOL    HW2 2041   2.818   2.689   2.192
 2218SOL     OW 2042   3.366   3.469   1.906
 2218SOL    HW1 2043   3.274   3.506   1.913
 2218SOL    HW2 2044   3.404   3.489   1.816
 2219SOL     OW 2045   2.234   3.150   3.352
 2219SOL    HW1 2046   2.221   3.243   3.318
 2219SOL    HW2 2047   2.150   3.098   3.339
 2220SOL     OW 2048   3.476   3.154   3.151
 2220SOL    HW1 2049   3.536   3.157   3.231
 2220SOL    HW2 2050   3.401   3.218   3.164
 2221SOL     OW 2051   2.901   2.960   2.558
 2221SOL    HW1 2052   2.831   2.913   2.612
 2221SOL    HW2 2053   2.960   2.892   2.515
 2222SOL     OW 2054   2.876   2.098   2.833
 2222SOL    HW1 2055   2.868   2.062   2.740
 2222SOL    HW2 2056   2.874   2.022   2.898
 2223SOL     OW 2057   2.452   3.349   2.353
 2223SOL    HW1 2058   2.494   3.291   2.283
 2223SOL    HW2 2059   2.408   3.428   2.309
 2224SOL     OW 2060   3.571   2.247   3.243
 2224SOL    HW1 2061   3.644   2.316   3.247
 2224SOL    HW2 2062   3.599   2.172   3.184
 2225SOL     OW 2063   2.117   3.210   2.152
 2225SOL    HW1 2064   2.021   3.211   2.125
 2225SOL    HW2 2065   2.129   3.263   2.236
 2226SOL     OW 2066   1.967   2.875   3.588
 2226SOL    HW1 2067   1.890   2.842   3.642
 2226SOL    HW2 2068   2.052   2.845   3.630
 2227SOL     OW 2069   2.534   2.065   3.351
 2227SOL    HW1 2070   2.624   2.049   3.311
 2227SOL    HW2 2071   2.542   2.070   3.450
 2228SOL     OW 2072   1.937   2.207   1.895
 2228SOL    HW1 2073   1.845   2.179   1.866
 2228SOL    HW2 2074   1.968   2.284   1.839
 2229SOL     OW 2075   3.302   2.718   3.260
 2229SOL    HW1 2076   3.245   2.770   3.197
 2229SOL    HW2 2077   3.398   2.730   3.236
 2230SOL     OW 2078   1.934   2.028   2.180
 2230SOL    HW1 2079   1.917   2.111   2.126
 2230SOL    HW2 2080   2.024   1.991   2.158
 2231SOL     OW 2081   3.045   3.197   1.981
 2231SOL    HW1 2082   2.946   3.186   1.983
 2231SOL    HW2 2083   3.079   3.212   2.074
 2232SOL     OW 2084   2.475   2.704   3.293
 2232SOL    HW1 2085   2.531   2.785   3.276
 2232SOL    HW2 2086   2.534   2.624   3.296
 2233SOL     OW 2087   3.355   3.629   2.821
 2233SOL    HW1 2088   3.388   3.693   2.752
 2233SOL    HW2 2089   3.421   3.623   2.896
 2234SOL     OW 2090   2.578   2.427   3.570
 2234SOL    HW1 2091   2.597   2.492   3.644
 2234SOL    HW2 2092   2.638   2.347   3.579
 2235SOL     OW 2093   3.312   3.082   3.495
 2235SOL    HW1 2094   3.303   3.072   3.594
 2235SOL    HW2 2095   3.408   3.075   3.469
 2236SOL     OW 2096   2.252   3.603   3.422
 2236SOL    HW1 2097   2.161   3.644   3.420
 2236SOL    HW2 2098   2.245   3.509   3.454
 2237SOL     OW 2099   3.536   2.745   3.116
 2237SOL    HW1 2100   3.509   2.656   3.079
 2237SOL    HW2 2101   3.537   2.813   3.043
 2238SOL     OW 2102   3.087   2.187   2.311
 2238SOL    HW1 2103   3.152   2.113   2.300
 2238SOL    HW2 2104   3.107   2.237   2.395
 2239SOL     OW 2105   2.456   2.607   2.514
 2239SOL    HW1 2106   2.506   2.692   2.495
 2239SOL    HW2 2107   2.368   2.609   2.466
 2240SOL     OW 2108   3.639   2.204   3.504
 2240SOL    HW1 2109   3.622   2.235   3.410
 2240SOL    HW2 2110   3.555   2.167   3.542
 2241SOL     OW 2111   3.592   2.796   3.379
 2241SOL    HW1 2112   3.630   2.887   3.394
 2241SOL    HW2 2113   3.584   2.779   3.280
 2242SOL     OW 2114   2.721   3.236   1.878
 2242SOL    HW1 2115   2.675   3.251   1.966
 2242SOL    HW2 2116   2.765   3.321   1.848
 2243SOL     OW 2117   2.523   3.652   2.815
 2243SOL    HW1 2118   2.477   3.740   2.802
 2243SOL    HW2 2119   2.622   3.664   2.808
 2244SOL     OW 2120   2.721   2.818   2.723
 2244SOL    HW1 2121   2.775   2.749   2.771
 2244SOL    HW2 2122   2.689   2.887   2.789
 2245SOL     OW 2123   2.945   2.846   1.949
 2245SOL    HW1 2124   2.922   2.899   1.867
 2245SOL    HW2 2125   3.026   2.790   1.930
 2246SOL     OW 2126   3.723   3.431   2.713
 2246SOL    HW1 2127   3.652   3.419   2.643
 2246SOL    HW2 2128   3.724   3.352   2.773
 2247SOL     OW 2129   2.083   3.176   3.706
 2247SOL    HW1 2130   2.018   3.103   3.685
 2247SOL    HW2 2131   2.087   3.190   3.804
 2248SOL     OW 2132   1.941   3.102   2.515
 2248SOL    HW1 2133   1.940   3.055   2.603
 2248SOL    HW2 2134   2.023   3.074   2.464
 2249SOL     OW 2135   2.534   3.253   3.486
 2249SOL    HW1 2136   2.456   3.203   3.524
 2249SOL    HW2 2137   2.531   3.348   3.517
 2250SOL     OW 2138   3.686   2.054   3.089
 2250SOL    HW1 2139   3.682   1.964   3.133
 2250SOL    HW2 2140   3.689   2.043   2.990
 2251SOL     OW 2141   3.567   3.349   2.966
 2251SOL    HW1 2142   3.474   3.324   2.939
 2251SOL    HW2 2143   3.593   3.299   3.048
 2252SOL     OW 2144   2.179   2.409   3.142
 2252SOL    HW1 2145   2.217   2.350   3.214
 2252SOL    HW2 2146   2.219   2.383   3.054
 2253SOL     OW 2147   2.674   3.448   2.549
 2253SOL    HW1 2148   2.706   3.458   2.455
 2253SOL    HW2 2149   2.595   3.386   2.551
 2254SOL     OW 2150   3.286   2.076   2.974
 2254SOL    HW1 2151   3.338   2.011   3.029
 2254SOL    HW2 2152   3.237   2.139   3.035
 2255SOL     OW 2153   2.863   1.896   3.016
 2255SOL    HW1 2154   2.800   1.824   2.985
 2255SOL    HW2 2155   2.956   1.860   3.016
 2256SOL     OW 2156   2.632   3.192   2.163
 2256SOL    HW1 2157   2.586   3.105   2.180
 2256SOL    HW2 2158   2.723   3.189   2.204
 2257SOL     OW 2159   2.480   3.429   3.146
 2257SOL    HW1 2160   2.475   3.511   3.203
 2257SOL    HW2 2161   2.569   3.426   3.101
 2258SOL     OW 2162   3.214   1.914   2.030
 2258SOL    HW1 2163   3.249   1.873   1.946
 2258SOL    HW2 2164   3.124   1.876   2.050
 2259SOL     OW 2165   3.162   2.315   2.553
 2259SOL    HW1 2166   3.103   2.395   2.557
 2259SOL    HW2 2167   3.177   2.280   2.646
 2260SOL     OW 2168   3.455   2.083   2.744
 2260SOL    HW1 2169   3.371   2.082   2.798
 2260SOL    HW2 2170   3.457   2.166   2.688
 2261SOL     OW 2171   1.901   2.939   2.162
 2261SOL    HW1 2172   2.000   2.928   2.153
 2261SOL    HW2 2173   1.861   2.853   2.194
 2262SOL     OW 2174   2.737   3.508   2.199
 2262SOL    HW1 2175   2.660   3.473   2.145
 2262SOL    HW2 2176   2.705   3.579   2.261
 2263SOL     OW 2177   2.092   2.490   3.837
 2263SOL    HW1 2178   1.999   2.488   3.874
 2263SOL    HW2 2179   2.093   2.451   3.745
 2274SOL     OW 2180   2.468   2.826   3.847
 2274SOL    HW1 2181   2.475   2.910   3.793
 2274SOL    HW2 2182   2.514   2.839   3.935
 2285SOL     OW 2183   2.460   2.591   3.994
 2285SOL    HW1 2184   2.484   2.660   3.926
 2285SOL    HW2 2185   2.382   2.624   4.048
 2290SOL     OW 2186   2.727   2.210   3.919
 2290SOL    HW1 2187   2.786   2.273   3.870
 2290SOL    HW2 2188   2.746   2.116   3.890
 2296SOL     OW 2189   2.183   2.805   3.966
 2296SOL    HW1 2190   2.265   2.844   3.924
 2296SOL    HW2 2191   2.156   2.723   3.917
 2303SOL     OW 2192   2.476   1.984   3.841
 2303SOL    HW1 2193   2.574   1.962   3.848
 2303SOL    HW2 2194   2.445   1.967   3.748
 2306SOL     OW 2195   2.159   1.897   3.895
 2306SOL    HW1 2196   2.208   1.981   3.874
 2306SOL    HW2 2197   2.221   1.832   3.940
 2310SOL     OW 2198   2.894   2.411   3.740
 2310SOL    HW1 2199   2.853   2.493   3.701
 2310SOL    HW2 2200   2.958   2.437   3.813
 2314SOL     OW 2201   2.350   3.247   3.898
 2314SOL    HW1 2202   2.263   3.232   3.945
 2314SOL    HW2 2203   2.333   3.273   3.803
 2316SOL     OW 2204   3.252   2.437   3.802
 2316SOL    HW1 2205   3.198   2.416   3.883
 2316SOL    HW2 2206   3.343   2.396   3.811
 2317SOL     OW 2207   2.389   2.118   4.052
 2317SOL    HW1 2208   2.416   2.059   3.977
 2317SOL    HW2 2209   2.389   2.213   4.021
 2328SOL     OW 2210   3.165   2.700   3.766
 2328SOL    HW1 2211   3.199   2.607   3.781
 2328SOL    HW2 2212   3.183   2.727   3.671
 2333SOL     OW 2213   2.677   2.434   4.049
 2333SOL    HW1 2214   2.684   2.345   4.003
 2333SOL    HW2 2215   2.583   2.468   4.041
 2334SOL     OW 2216   2.335   2.362   3.915
 2334SOL    HW1 2217   2.396   2.442   3.919
 2334SOL    HW2 2218   2.240   2.393   3.922
 2343SOL     OW 2219   2.778   2.772   4.015
 2343SOL    HW1 2220   2.841   2.810   3.947
 2343SOL    HW2 2221   2.818   2.689   4.054
 2348SOL     OW 2222   1.937   2.207   3.757
 2348SOL    HW1 2223   1.845   2.179   3.728
 2348SOL    HW2 2224   1.968   2.284   3.701
 2349SOL     OW 2225   1.934   2.028   4.042
 2349SOL    HW1 2226   1.917   2.111   3.988
 2349SOL    HW2 2227   2.024   1.991   4.020
 2353SOL     OW 2228   2.721   3.236   3.740
 2353SOL    HW1 2229   2.675   3.251   3.828
 2353SOL    HW2 2230   2.765   3.321   3.710
 2356SOL     OW 2231   2.945   2.846   3.811
 2356SOL    HW1 2232   2.922   2.899   3.729
 2356SOL    HW2 2233   3.026   2.790   3.792
 2380SOL     OW 2234   2.179   3.975   1.801
 2380SOL    HW1 2235   2.250   4.046   1.807
 2380SOL    HW2 2236   2.091   4.014   1.829
 2397SOL     OW 2237   2.643   3.988   1.749
 2397SOL    HW1 2238   2.710   3.927   1.792
 2397SOL    HW2 2239   2.570   4.007   1.814
 2413SOL     OW 2240   2.777   3.813   1.402
 2413SOL    HW1 2241   2.802   3.793   1.307
 2413SOL    HW2 2242   2.849   3.869   1.444
 2420SOL     OW 2243   2.875   3.829   1.770
 2420SOL    HW1 2244   2.881   3.914   1.718
 2420SOL    HW2 2245   2.907   3.753   1.713
 2421SOL     OW 2246   2.366   3.774   1.740
 2421SOL    HW1 2247   2.324   3.717   1.670
 2421SOL    HW2 2248   2.300   3.843   1.772
 2472SOL     OW 2249   2.087   3.999   2.858
 2472SOL    HW1 2250   2.122   3.982   2.950
 2472SOL    HW2 2251   1.999   3.954   2.846
 2483SOL     OW 2252   2.671   3.728   2.364
 2483SOL    HW1 2253   2.711   3.819   2.355
 2483SOL    HW2 2254   2.571   3.736   2.370
 2493SOL     OW 2255   2.727   4.072   2.057
 2493SOL    HW1 2256   2.786   4.135   2.008
 2493SOL    HW2 2257   2.746   3.978   2.028
 2495SOL     OW 2258   2.412   3.920   2.747
 2495SOL    HW1 2259   2.407   3.915   2.847
 2495SOL    HW2 2260   2.414   4.016   2.718
 2498SOL     OW 2261   3.262   3.831   2.288
 2498SOL    HW1 2262   3.238   3.794   2.198
 2498SOL    HW2 2263   3.361   3.847   2.292
 2501SOL     OW 2264   2.476   3.846   1.979
 2501SOL    HW1 2265   2.574   3.824   1.986
 2501SOL    HW2 2266   2.445   3.829   1.886
 2505SOL     OW 2267   2.401   3.788   2.374
 2505SOL    HW1 2268   2.320   3.789   2.432
 2505SOL    HW2 2269   2.404   3.871   2.319
 2506SOL     OW 2270   2.159   3.759   2.033
 2506SOL    HW1 2271   2.208   3.843   2.012
 2506SOL    HW2 2272   2.221   3.694   2.078
 2507SOL     OW 2273   2.797   3.960   2.342
 2507SOL    HW1 2274   2.749   4.001   2.264
 2507SOL    HW2 2275   2.896   3.958   2.323
 2511SOL     OW 2276   2.423   3.946   3.009
 2511SOL    HW1 2277   2.461   3.862   3.046
 2511SOL    HW2 2278   2.335   3.965   3.053
 2513SOL     OW 2279   2.879   3.763   2.615
 2513SOL    HW1 2280   2.807   3.768   2.546
 2513SOL    HW2 2281   2.855   3.694   2.684
 2517SOL     OW 2282   2.389   3.980   2.190
 2517SOL    HW1 2283   2.416   3.921   2.115
 2517SOL    HW2 2284   2.389   4.075   2.159
 2518SOL     OW 2285   2.777   3.813   3.264
 2518SOL    HW1 2286   2.802   3.793   3.169
 2518SOL    HW2 2287   2.849   3.869   3.306
 2530SOL     OW 2288   2.169   3.937   3.093
 2530SOL    HW1 2289   2.146   3.974   3.183
 2530SOL    HW2 2290   2.139   3.842   3.087
 2533SOL     OW 2291   2.169   3.787   2.480
 2533SOL    HW1 2292   2.158   3.881   2.513
 2533SOL    HW2 2293   2.164   3.724   2.557
 2553SOL     OW 2294   2.125   4.050   2.582
 2553SOL    HW1 2295   2.046   4.101   2.548
 2553SOL    HW2 2296   2.116   4.035   2.680
 2555SOL     OW 2297   2.876   3.960   2.833
 2555SOL    HW1 2298   2.868   3.924   2.740
 2555SOL    HW2 2299   2.874   3.884   2.898
 2561SOL     OW 2300   1.934   3.890   2.180
 2561SOL    HW1 2301   1.917   3.973   2.126
 2561SOL    HW2 2302   2.024   3.853   2.158
 2573SOL     OW 2303   2.863   3.758   3.016
 2573SOL    HW1 2304   2.800   3.686   2.985
 2573SOL    HW2 2305   2.956   3.722   3.016
 2574SOL     OW 2306   3.214   3.776   2.030
 2574SOL    HW1 2307   3.249   3.735   1.946
 2574SOL    HW2 2308   3.124   3.738   2.050
 2656SOL     OW 2309   3.854   1.821   1.571
 2656SOL    HW1 2310   3.844   1.806   1.670
 2656SOL    HW2 2311   3.768   1.857   1.535
 2711SOL     OW 2312   3.854   1.794   1.851
 2711SOL    HW1 2313   3.813   1.720   1.904
 2711SOL    HW2 2314   3.918   1.845   1.909
 2749SOL     OW 2315   3.955   1.713   2.345
 2749SOL    HW1 2316   3.989   1.790   2.399
 2749SOL    HW2 2317   3.999   1.713   2.255
 2755SOL     OW 2318   3.751   1.596   1.979
 2755SOL    HW1 2319   3.732   1.500   2.000
 2755SOL    HW2 2320   3.718   1.654   2.054
 2806SOL     OW 2321   3.732   1.326   2.062
 2806SOL    HW1 2322   3.639   1.347   2.031
 2806SOL    HW2 2323   3.742   1.227   2.075
 2807SOL     OW 2324   3.812   1.801   2.789
 2807SOL    HW1 2325   3.770   1.715   2.762
 2807SOL    HW2 2326   3.906   1.804   2.755
 2922SOL     OW 2327   3.837   2.599   1.597
 2922SOL    HW1 2328   3.925   2.586   1.642
 2922SOL    HW2 2329   3.824   2.696   1.575
 2926SOL     OW 2330   4.041   2.113   1.801
 2926SOL    HW1 2331   4.112   2.184   1.807
 2926SOL    HW2 2332   3.953   2.152   1.829
 2948SOL     OW 2333   3.802   2.418   1.386
 2948SOL    HW1 2334   3.894   2.417   1.345
 2948SOL    HW2 2335   3.796   2.492   1.453
 2975SOL     OW 2336   3.913   2.382   1.722
 2975SOL    HW1 2337   3.972   2.342   1.652
 2975SOL    HW2 2338   3.855   2.453   1.681
 2993SOL     OW 2339   3.829   2.875   1.726
 2993SOL    HW1 2340   3.752   2.842   1.780
 2993SOL    HW2 2341   3.914   2.845   1.768
 3013SOL     OW 2342   3.954   2.490   1.975
 3013SOL    HW1 2343   3.861   2.488   2.012
 3013SOL    HW2 2344   3.955   2.451   1.883
 3014SOL     OW 2345   3.949   2.137   2.858
 3014SOL    HW1 2346   3.984   2.120   2.950
 3014SOL    HW2 2347   3.861   2.092   2.846
 3015SOL     OW 2348   3.743   2.230   2.509
 3015SOL    HW1 2349   3.661   2.273   2.548
 3015SOL    HW2 2350   3.715   2.157   2.446
 3025SOL     OW 2351   3.964   2.953   2.748
 3025SOL    HW1 2352   3.978   2.869   2.800
 3025SOL    HW2 2353   3.909   3.017   2.803
 3028SOL     OW 2354   3.846   2.505   2.425
 3028SOL    HW1 2355   3.801   2.417   2.442
 3028SOL    HW2 2356   3.845   2.559   2.509
 3037SOL     OW 2357   3.800   2.673   2.651
 3037SOL    HW1 2358   3.899   2.661   2.660
 3037SOL    HW2 2359   3.776   2.768   2.672
 3043SOL     OW 2360   4.045   2.805   2.104
 3043SOL    HW1 2361   4.127   2.844   2.062
 3043SOL    HW2 2362   4.018   2.723   2.055
 3049SOL     OW 2363   4.106   2.562   2.342
 3049SOL    HW1 2364   4.151   2.472   2.339
 3049SOL    HW2 2365   4.012   2.551   2.375
 3055SOL     OW 2366   4.021   1.897   2.033
 3055SOL    HW1 2367   4.070   1.981   2.012
 3055SOL    HW2 2368   4.083   1.832   2.078
 3057SOL     OW 2369   3.802   2.418   3.248
 3057SOL    HW1 2370   3.894   2.417   3.207
 3057SOL    HW2 2371   3.796   2.492   3.315
 3074SOL     OW 2372   4.031   1.925   2.480
 3074SOL    HW1 2373   4.020   2.019   2.513
 3074SOL    HW2 2374   4.026   1.862   2.557
 3078SOL     OW 2375   4.043   2.672   2.811
 3078SOL    HW1 2376   4.136   2.708   2.816
 3078SOL    HW2 2377   4.037   2.587   2.863
 3080SOL     OW 2378   3.732   3.188   2.062
 3080SOL    HW1 2379   3.639   3.209   2.031
 3080SOL    HW2 2380   3.742   3.089   2.075
 3083SOL     OW 2381   3.764   2.406   2.976
 3083SOL    HW1 2382   3.849   2.373   2.935
 3083SOL    HW2 2383   3.777   2.421   3.074
 3090SOL     OW 2384   3.807   3.120   2.884
 3090SOL    HW1 2385   3.802   3.119   2.984
 3090SOL    HW2 2386   3.724   3.079   2.846
 3096SOL     OW 2387   3.987   2.188   2.582
 3096SOL    HW1 2388   3.908   2.239   2.548
 3096SOL    HW2 2389   3.978   2.173   2.680
 3103SOL     OW 2390   3.799   2.207   1.895
 3103SOL    HW1 2391   3.707   2.179   1.866
 3103SOL    HW2 2392   3.830   2.284   1.839
 3104SOL     OW 2393   3.796   2.028   2.180
 3104SOL    HW1 2394   3.779   2.111   2.126
 3104SOL    HW2 2395   3.886   1.991   2.158
 3112SOL     OW 2396   3.803   3.102   2.515
 3112SOL    HW1 2397   3.802   3.055   2.603
 3112SOL    HW2 2398   3.885   3.074   2.464
 3120SOL     OW 2399   3.763   2.939   2.162
 3120SOL    HW1 2400   3.862   2.928   2.153
 3120SOL    HW2 2401   3.723   2.853   2.194
   4.68362   4.68362   4.68362
