mobley_9974966_GMX.gro created by acpype (v: 2023.10.27) on Thu May 21 00:11:00 2026
 2397
    1MOL     C1    1   2.336   2.182   2.449
    1MOL     C2    2   2.268   2.124   2.213
    1MOL     C3    3   2.501   2.481   2.341
    1MOL     C4    4   2.306   2.626   2.408
    1MOL     C5    5   2.336   2.227   2.303
    1MOL     C6    6   2.358   2.484   2.396
    1MOL     S1    7   2.251   2.387   2.288
    1MOL     H1    8   2.390   2.087   2.459
    1MOL     H2    9   2.387   2.256   2.513
    1MOL     H3   10   2.235   2.167   2.487
    1MOL     H4   11   2.320   2.027   2.220
    1MOL     H5   12   2.269   2.155   2.108
    1MOL     H6   13   2.164   2.106   2.243
    1MOL     H7   14   2.568   2.537   2.408
    1MOL     H8   15   2.540   2.379   2.335
    1MOL     H9   16   2.507   2.527   2.242
    1MOL    H10   17   2.369   2.684   2.475
    1MOL    H11   18   2.204   2.627   2.448
    1MOL    H12   19   2.305   2.677   2.311
    1MOL    H13   20   2.439   2.241   2.269
    1MOL    H14   21   2.357   2.436   2.495
   14SOL     OW   22   1.460   1.505   1.339
   14SOL    HW1   23   1.484   1.599   1.365
   14SOL    HW2   24   1.444   1.451   1.421
   18SOL     OW   25   1.127   1.341   1.690
   18SOL    HW1   26   1.174   1.341   1.778
   18SOL    HW2   27   1.079   1.254   1.679
   35SOL     OW   28   1.187   1.792   1.616
   35SOL    HW1   29   1.211   1.852   1.540
   35SOL    HW2   30   1.194   1.697   1.586
   56SOL     OW   31   1.227   1.550   1.506
   56SOL    HW1   32   1.233   1.473   1.570
   56SOL    HW2   33   1.175   1.524   1.426
   95SOL     OW   34   1.754   1.223   1.588
   95SOL    HW1   35   1.845   1.184   1.575
   95SOL    HW2   36   1.762   1.319   1.612
   97SOL     OW   37   1.592   1.629   1.625
   97SOL    HW1   38   1.619   1.663   1.535
   97SOL    HW2   39   1.671   1.591   1.671
  122SOL     OW   40   1.728   0.935   1.854
  122SOL    HW1   41   1.682   0.928   1.765
  122SOL    HW2   42   1.666   0.979   1.920
  126SOL     OW   43   0.980   1.573   1.700
  126SOL    HW1   44   0.960   1.617   1.612
  126SOL    HW2   45   1.019   1.482   1.684
  127SOL     OW   46   1.859   1.518   1.605
  127SOL    HW1   47   1.873   1.545   1.510
  127SOL    HW2   48   1.942   1.540   1.658
  152SOL     OW   49   1.759   1.747   1.154
  152SOL    HW1   50   1.820   1.777   1.081
  152SOL    HW2   51   1.721   1.658   1.132
  153SOL     OW   52   1.252   1.731   1.128
  153SOL    HW1   53   1.336   1.736   1.074
  153SOL    HW2   54   1.229   1.635   1.146
  163SOL     OW   55   1.650   1.720   1.394
  163SOL    HW1   56   1.703   1.730   1.310
  163SOL    HW2   57   1.623   1.810   1.428
  171SOL     OW   58   1.614   1.292   1.289
  171SOL    HW1   59   1.674   1.295   1.369
  171SOL    HW2   60   1.539   1.356   1.302
  184SOL     OW   61   1.493   1.767   0.959
  184SOL    HW1   62   1.526   1.831   0.890
  184SOL    HW2   63   1.559   1.761   1.034
  186SOL     OW   64   1.450   1.220   1.633
  186SOL    HW1   65   1.441   1.210   1.732
  186SOL    HW2   66   1.546   1.213   1.607
  192SOL     OW   67   1.730   0.934   1.517
  192SOL    HW1   68   1.768   1.025   1.532
  192SOL    HW2   69   1.722   0.917   1.418
  197SOL     OW   70   1.861   1.569   0.851
  197SOL    HW1   71   1.790   1.557   0.781
  197SOL    HW2   72   1.862   1.490   0.911
  203SOL     OW   73   1.705   1.487   1.104
  203SOL    HW1   74   1.612   1.462   1.077
  203SOL    HW2   75   1.731   1.437   1.186
  219SOL     OW   76   1.555   1.511   2.565
  219SOL    HW1   77   1.498   1.495   2.646
  219SOL    HW2   78   1.496   1.521   2.485
  227SOL     OW   79   1.460   1.505   3.201
  227SOL    HW1   80   1.484   1.599   3.227
  227SOL    HW2   81   1.444   1.451   3.283
  238SOL     OW   82   1.842   1.767   2.221
  238SOL    HW1   83   1.896   1.738   2.301
  238SOL    HW2   84   1.872   1.857   2.192
  240SOL     OW   85   1.689   0.922   2.474
  240SOL    HW1   86   1.784   0.893   2.482
  240SOL    HW2   87   1.681   0.987   2.399
  241SOL     OW   88   1.641   1.108   2.294
  241SOL    HW1   89   1.727   1.110   2.242
  241SOL    HW2   90   1.655   1.155   2.382
  247SOL     OW   91   1.525   0.999   2.052
  247SOL    HW1   92   1.462   0.923   2.065
  247SOL    HW2   93   1.573   1.017   2.138
  248SOL     OW   94   1.187   1.792   3.478
  248SOL    HW1   95   1.211   1.852   3.402
  248SOL    HW2   96   1.194   1.697   3.448
  250SOL     OW   97   1.466   1.417   2.815
  250SOL    HW1   98   1.407   1.423   2.895
  250SOL    HW2   99   1.451   1.329   2.769
  251SOL     OW  100   1.667   1.714   2.434
  251SOL    HW1  101   1.626   1.691   2.346
  251SOL    HW2  102   1.649   1.640   2.499
  254SOL     OW  103   1.576   1.662   2.169
  254SOL    HW1  104   1.665   1.708   2.172
  254SOL    HW2  105   1.555   1.638   2.074
  264SOL     OW  106   1.362   1.144   2.407
  264SOL    HW1  107   1.445   1.115   2.359
  264SOL    HW2  108   1.313   1.211   2.351
  266SOL     OW  109   1.008   1.456   2.339
  266SOL    HW1  110   0.962   1.528   2.287
  266SOL    HW2  111   1.004   1.476   2.437
  268SOL     OW  112   1.795   1.066   2.735
  268SOL    HW1  113   1.733   1.051   2.659
  268SOL    HW2  114   1.743   1.077   2.820
  269SOL     OW  115   1.227   1.550   3.368
  269SOL    HW1  116   1.233   1.473   3.432
  269SOL    HW2  117   1.175   1.524   3.288
  273SOL     OW  118   1.111   1.776   2.099
  273SOL    HW1  119   1.051   1.714   2.149
  273SOL    HW2  120   1.142   1.732   2.014
  275SOL     OW  121   1.632   1.377   1.943
  275SOL    HW1  122   1.600   1.471   1.933
  275SOL    HW2  123   1.556   1.314   1.931
  279SOL     OW  124   0.940   1.698   2.766
  279SOL    HW1  125   1.020   1.641   2.787
  279SOL    HW2  126   0.891   1.658   2.689
  289SOL     OW  127   1.434   1.188   1.903
  289SOL    HW1  128   1.466   1.112   1.960
  289SOL    HW2  129   1.342   1.215   1.933
  293SOL     OW  130   1.227   1.570   2.655
  293SOL    HW1  131   1.248   1.644   2.590
  293SOL    HW2  132   1.295   1.570   2.728
  295SOL     OW  133   1.271   1.797   2.453
  295SOL    HW1  134   1.315   1.861   2.389
  295SOL    HW2  135   1.221   1.849   2.523
  301SOL     OW  136   1.429   1.173   2.729
  301SOL    HW1  137   1.374   1.089   2.722
  301SOL    HW2  138   1.455   1.202   2.637
  303SOL     OW  139   1.857   0.833   2.239
  303SOL    HW1  140   1.899   0.769   2.303
  303SOL    HW2  141   1.819   0.782   2.161
  305SOL     OW  142   1.664   1.280   2.519
  305SOL    HW1  143   1.763   1.288   2.533
  305SOL    HW2  144   1.619   1.364   2.550
  308SOL     OW  145   1.754   1.223   3.450
  308SOL    HW1  146   1.845   1.184   3.437
  308SOL    HW2  147   1.762   1.319   3.474
  310SOL     OW  148   1.592   1.629   3.487
  310SOL    HW1  149   1.619   1.663   3.397
  310SOL    HW2  150   1.671   1.591   3.533
  312SOL     OW  151   1.638   1.099   2.941
  312SOL    HW1  152   1.643   1.180   3.000
  312SOL    HW2  153   1.552   1.101   2.890
  321SOL     OW  154   1.252   1.348   2.250
  321SOL    HW1  155   1.302   1.425   2.290
  321SOL    HW2  156   1.157   1.350   2.282
  322SOL     OW  157   1.272   1.445   3.004
  322SOL    HW1  158   1.319   1.458   3.091
  322SOL    HW2  159   1.206   1.371   3.013
  340SOL     OW  160   1.859   1.518   3.467
  340SOL    HW1  161   1.873   1.545   3.372
  340SOL    HW2  162   1.942   1.540   3.520
  344SOL     OW  163   1.068   1.333   2.711
  344SOL    HW1  164   1.075   1.249   2.656
  344SOL    HW2  165   1.130   1.402   2.675
  363SOL     OW  166   1.347   1.059   3.096
  363SOL    HW1  167   1.371   0.996   3.022
  363SOL    HW2  168   1.257   1.099   3.078
  365SOL     OW  169   1.759   1.747   3.016
  365SOL    HW1  170   1.820   1.777   2.943
  365SOL    HW2  171   1.721   1.658   2.994
  366SOL     OW  172   1.252   1.731   2.990
  366SOL    HW1  173   1.336   1.736   2.936
  366SOL    HW2  174   1.229   1.635   3.008
  370SOL     OW  175   1.388   1.573   2.339
  370SOL    HW1  176   1.455   1.585   2.265
  370SOL    HW2  177   1.348   1.662   2.362
  372SOL     OW  178   1.280   0.927   2.534
  372SOL    HW1  179   1.340   0.846   2.536
  372SOL    HW2  180   1.320   0.996   2.474
  375SOL     OW  181   1.650   1.720   3.256
  375SOL    HW1  182   1.703   1.730   3.172
  375SOL    HW2  183   1.623   1.810   3.290
  378SOL     OW  184   1.194   1.612   1.893
  378SOL    HW1  185   1.200   1.519   1.930
  378SOL    HW2  186   1.135   1.612   1.813
  381SOL     OW  187   1.504   1.607   1.906
  381SOL    HW1  188   1.412   1.644   1.913
  381SOL    HW2  189   1.542   1.627   1.816
  383SOL     OW  190   1.614   1.292   3.151
  383SOL    HW1  191   1.674   1.295   3.231
  383SOL    HW2  192   1.539   1.356   3.164
  394SOL     OW  193   1.183   1.335   1.981
  394SOL    HW1  194   1.084   1.324   1.983
  394SOL    HW2  195   1.217   1.350   2.074
  396SOL     OW  196   1.493   1.767   2.821
  396SOL    HW1  197   1.526   1.831   2.752
  396SOL    HW2  198   1.559   1.761   2.896
  400SOL     OW  199   1.674   0.883   3.116
  400SOL    HW1  200   1.647   0.794   3.079
  400SOL    HW2  201   1.675   0.951   3.043
  409SOL     OW  202   1.861   1.569   2.713
  409SOL    HW1  203   1.790   1.557   2.643
  409SOL    HW2  204   1.862   1.490   2.773
  415SOL     OW  205   1.705   1.487   2.966
  415SOL    HW1  206   1.612   1.462   2.939
  415SOL    HW2  207   1.731   1.437   3.048
  417SOL     OW  208   0.812   1.586   2.549
  417SOL    HW1  209   0.844   1.596   2.455
  417SOL    HW2  210   0.733   1.524   2.551
  426SOL     OW  211   0.875   1.646   2.199
  426SOL    HW1  212   0.798   1.611   2.145
  426SOL    HW2  213   0.843   1.717   2.261
  542SOL     OW  214   0.850   2.660   1.823
  542SOL    HW1  215   0.846   2.736   1.888
  542SOL    HW2  216   0.872   2.696   1.732
  546SOL     OW  217   1.460   3.367   1.339
  546SOL    HW1  218   1.484   3.461   1.365
  546SOL    HW2  219   1.444   3.313   1.421
  548SOL     OW  220   1.603   2.309   0.737
  548SOL    HW1  221   1.529   2.355   0.687
  548SOL    HW2  222   1.654   2.377   0.790
  550SOL     OW  223   1.127   3.203   1.690
  550SOL    HW1  224   1.174   3.203   1.778
  550SOL    HW2  225   1.079   3.116   1.679
  555SOL     OW  226   1.594   1.976   1.480
  555SOL    HW1  227   1.576   2.043   1.408
  555SOL    HW2  228   1.591   2.022   1.569
  563SOL     OW  229   1.293   3.090   1.423
  563SOL    HW1  230   1.330   3.017   1.365
  563SOL    HW2  231   1.345   3.095   1.508
  572SOL     OW  232   1.281   2.207   0.944
  572SOL    HW1  233   1.195   2.157   0.931
  572SOL    HW2  234   1.343   2.153   1.000
  574SOL     OW  235   0.807   2.467   1.465
  574SOL    HW1  236   0.760   2.464   1.554
  574SOL    HW2  237   0.756   2.412   1.399
  575SOL     OW  238   1.394   2.331   1.674
  575SOL    HW1  239   1.374   2.374   1.762
  575SOL    HW2  240   1.472   2.269   1.683
  576SOL     OW  241   0.973   2.752   1.572
  576SOL    HW1  242   1.019   2.668   1.543
  576SOL    HW2  243   0.917   2.786   1.497
  577SOL     OW  244   0.991   2.272   1.242
  577SOL    HW1  245   0.914   2.306   1.296
  577SOL    HW2  246   0.957   2.221   1.163
  582SOL     OW  247   1.719   2.447   1.831
  582SOL    HW1  248   1.693   2.536   1.795
  582SOL    HW2  249   1.717   2.379   1.758
  587SOL     OW  250   1.795   2.928   0.873
  587SOL    HW1  251   1.733   2.913   0.797
  587SOL    HW2  252   1.743   2.939   0.958
  588SOL     OW  253   1.227   3.412   1.506
  588SOL    HW1  254   1.233   3.335   1.570
  588SOL    HW2  255   1.175   3.386   1.426
  600SOL     OW  256   1.547   2.084   1.729
  600SOL    HW1  257   1.542   2.121   1.821
  600SOL    HW2  258   1.475   2.015   1.717
  601SOL     OW  259   0.781   2.126   1.749
  601SOL    HW1  260   0.848   2.065   1.792
  601SOL    HW2  261   0.708   2.145   1.814
  603SOL     OW  262   1.351   2.452   1.433
  603SOL    HW1  263   1.379   2.409   1.518
  603SOL    HW2  264   1.376   2.548   1.434
  610SOL     OW  265   1.076   2.545   1.464
  610SOL    HW1  266   0.996   2.484   1.467
  610SOL    HW2  267   1.157   2.492   1.440
  620SOL     OW  268   1.466   2.452   0.992
  620SOL    HW1  269   1.436   2.357   0.999
  620SOL    HW2  270   1.539   2.468   1.058
  626SOL     OW  271   1.754   3.085   1.588
  626SOL    HW1  272   1.845   3.046   1.575
  626SOL    HW2  273   1.762   3.181   1.612
  628SOL     OW  274   1.592   3.491   1.625
  628SOL    HW1  275   1.619   3.525   1.535
  628SOL    HW2  276   1.671   3.453   1.671
  630SOL     OW  277   1.638   2.961   1.079
  630SOL    HW1  278   1.643   3.042   1.138
  630SOL    HW2  279   1.552   2.963   1.028
  631SOL     OW  280   0.915   1.951   1.402
  631SOL    HW1  281   0.940   1.931   1.307
  631SOL    HW2  282   0.987   2.007   1.444
  632SOL     OW  283   0.980   2.978   1.719
  632SOL    HW1  284   0.881   2.984   1.729
  632SOL    HW2  285   1.003   2.898   1.663
  635SOL     OW  286   1.274   2.248   1.262
  635SOL    HW1  287   1.295   2.322   1.326
  635SOL    HW2  288   1.185   2.265   1.219
  644SOL     OW  289   1.587   2.641   1.670
  644SOL    HW1  290   1.495   2.679   1.665
  644SOL    HW2  291   1.647   2.688   1.605
  645SOL     OW  292   1.013   1.967   1.770
  645SOL    HW1  293   1.019   2.052   1.718
  645SOL    HW2  294   1.045   1.891   1.713
  648SOL     OW  295   1.360   2.724   1.045
  648SOL    HW1  296   1.285   2.724   0.979
  648SOL    HW2  297   1.397   2.632   1.054
  653SOL     OW  298   1.728   2.797   1.854
  653SOL    HW1  299   1.682   2.790   1.765
  653SOL    HW2  300   1.666   2.841   1.920
  658SOL     OW  301   1.859   3.380   1.605
  658SOL    HW1  302   1.873   3.407   1.510
  658SOL    HW2  303   1.942   3.402   1.658
  665SOL     OW  304   1.138   2.242   1.678
  665SOL    HW1  305   1.093   2.305   1.742
  665SOL    HW2  306   1.231   2.273   1.661
  666SOL     OW  307   1.160   2.069   1.477
  666SOL    HW1  308   1.160   2.133   1.554
  666SOL    HW2  309   1.188   2.117   1.394
  670SOL     OW  310   1.002   2.658   1.238
  670SOL    HW1  311   1.043   2.626   1.324
  670SOL    HW2  312   0.906   2.631   1.235
  673SOL     OW  313   1.369   2.812   1.660
  673SOL    HW1  314   1.408   2.901   1.680
  673SOL    HW2  315   1.379   2.792   1.563
  675SOL     OW  316   1.657   2.466   1.206
  675SOL    HW1  317   1.619   2.397   1.268
  675SOL    HW2  318   1.739   2.430   1.162
  681SOL     OW  319   1.347   2.921   1.234
  681SOL    HW1  320   1.371   2.858   1.160
  681SOL    HW2  321   1.257   2.961   1.216
  694SOL     OW  322   1.650   3.582   1.394
  694SOL    HW1  323   1.703   3.592   1.310
  694SOL    HW2  324   1.623   3.672   1.428
  695SOL     OW  325   1.841   2.037   0.963
  695SOL    HW1  326   1.880   1.952   0.927
  695SOL    HW2  327   1.743   2.039   0.944
  702SOL     OW  328   1.614   3.154   1.289
  702SOL    HW1  329   1.674   3.157   1.369
  702SOL    HW2  330   1.539   3.218   1.302
  706SOL     OW  331   1.709   2.247   1.381
  706SOL    HW1  332   1.782   2.316   1.385
  706SOL    HW2  333   1.737   2.172   1.322
  711SOL     OW  334   1.440   2.718   1.398
  711SOL    HW1  335   1.383   2.770   1.335
  711SOL    HW2  336   1.536   2.730   1.374
  716SOL     OW  337   0.716   2.427   1.708
  716SOL    HW1  338   0.735   2.492   1.782
  716SOL    HW2  339   0.776   2.347   1.717
  717SOL     OW  340   1.450   3.082   1.633
  717SOL    HW1  341   1.441   3.072   1.732
  717SOL    HW2  342   1.546   3.075   1.607
  719SOL     OW  343   1.674   2.745   1.254
  719SOL    HW1  344   1.647   2.656   1.217
  719SOL    HW2  345   1.675   2.813   1.181
  722SOL     OW  346   1.777   2.204   1.642
  722SOL    HW1  347   1.760   2.235   1.548
  722SOL    HW2  348   1.693   2.167   1.680
  723SOL     OW  349   1.730   2.796   1.517
  723SOL    HW1  350   1.768   2.887   1.532
  723SOL    HW2  351   1.722   2.779   1.418
  732SOL     OW  352   1.824   2.054   1.227
  732SOL    HW1  353   1.820   1.964   1.271
  732SOL    HW2  354   1.827   2.043   1.128
  734SOL     OW  355   1.705   3.349   1.104
  734SOL    HW1  356   1.612   3.324   1.077
  734SOL    HW2  357   1.731   3.299   1.186
  737SOL     OW  358   1.424   2.076   1.112
  737SOL    HW1  359   1.476   2.011   1.167
  737SOL    HW2  360   1.375   2.139   1.173
  743SOL     OW  361   1.593   2.083   0.882
  743SOL    HW1  362   1.509   2.082   0.936
  743SOL    HW2  363   1.595   2.166   0.826
  750SOL     OW  364   1.555   3.373   2.565
  750SOL    HW1  365   1.498   3.357   2.646
  750SOL    HW2  366   1.496   3.383   2.485
  751SOL     OW  367   1.135   2.565   2.579
  751SOL    HW1  368   1.192   2.643   2.554
  751SOL    HW2  369   1.075   2.591   2.655
  752SOL     OW  370   1.755   2.469   2.093
  752SOL    HW1  371   1.743   2.456   1.994
  752SOL    HW2  372   1.725   2.388   2.142
  753SOL     OW  373   0.768   3.006   2.885
  753SOL    HW1  374   0.690   3.023   2.945
  753SOL    HW2  375   0.802   3.093   2.849
  755SOL     OW  376   0.685   2.874   2.527
  755SOL    HW1  377   0.754   2.858   2.597
  755SOL    HW2  378   0.612   2.931   2.565
  758SOL     OW  379   1.460   3.367   3.201
  758SOL    HW1  380   1.484   3.461   3.227
  758SOL    HW2  381   1.444   3.313   3.283
  760SOL     OW  382   1.603   2.309   2.599
  760SOL    HW1  383   1.529   2.355   2.549
  760SOL    HW2  384   1.654   2.377   2.652
  767SOL     OW  385   1.594   1.976   3.342
  767SOL    HW1  386   1.576   2.043   3.270
  767SOL    HW2  387   1.591   2.022   3.431
  769SOL     OW  388   1.842   3.629   2.221
  769SOL    HW1  389   1.896   3.600   2.301
  769SOL    HW2  390   1.872   3.719   2.192
  771SOL     OW  391   1.689   2.784   2.474
  771SOL    HW1  392   1.784   2.755   2.482
  771SOL    HW2  393   1.681   2.849   2.399
  772SOL     OW  394   1.641   2.970   2.294
  772SOL    HW1  395   1.727   2.972   2.242
  772SOL    HW2  396   1.655   3.017   2.382
  775SOL     OW  397   1.293   3.090   3.285
  775SOL    HW1  398   1.330   3.017   3.227
  775SOL    HW2  399   1.345   3.095   3.370
  776SOL     OW  400   0.809   1.866   2.364
  776SOL    HW1  401   0.849   1.957   2.355
  776SOL    HW2  402   0.709   1.874   2.370
  778SOL     OW  403   1.525   2.861   2.052
  778SOL    HW1  404   1.462   2.785   2.065
  778SOL    HW2  405   1.573   2.879   2.138
  781SOL     OW  406   1.466   3.279   2.815
  781SOL    HW1  407   1.407   3.285   2.895
  781SOL    HW2  408   1.451   3.191   2.769
  782SOL     OW  409   1.667   3.576   2.434
  782SOL    HW1  410   1.626   3.553   2.346
  782SOL    HW2  411   1.649   3.502   2.499
  783SOL     OW  412   0.598   2.591   2.132
  783SOL    HW1  413   0.622   2.660   2.064
  783SOL    HW2  414   0.520   2.624   2.186
  784SOL     OW  415   1.281   2.207   2.806
  784SOL    HW1  416   1.195   2.157   2.793
  784SOL    HW2  417   1.343   2.153   2.862
  785SOL     OW  418   1.576   3.524   2.169
  785SOL    HW1  419   1.665   3.570   2.172
  785SOL    HW2  420   1.555   3.500   2.074
  787SOL     OW  421   1.394   2.331   3.536
  787SOL    HW1  422   1.374   2.374   3.624
  787SOL    HW2  423   1.472   2.269   3.545
  788SOL     OW  424   0.973   2.752   3.434
  788SOL    HW1  425   1.019   2.668   3.405
  788SOL    HW2  426   0.917   2.786   3.359
  789SOL     OW  427   0.991   2.272   3.104
  789SOL    HW1  428   0.914   2.306   3.158
  789SOL    HW2  429   0.957   2.221   3.025
  790SOL     OW  430   1.041   2.563   2.291
  790SOL    HW1  431   1.067   2.559   2.387
  790SOL    HW2  432   0.956   2.512   2.277
  793SOL     OW  433   0.865   2.210   2.057
  793SOL    HW1  434   0.924   2.273   2.008
  793SOL    HW2  435   0.884   2.116   2.028
  794SOL     OW  436   1.719   2.447   3.693
  794SOL    HW1  437   1.693   2.536   3.657
  794SOL    HW2  438   1.717   2.379   3.620
  795SOL     OW  439   1.362   3.006   2.407
  795SOL    HW1  440   1.445   2.977   2.359
  795SOL    HW2  441   1.313   3.073   2.351
  797SOL     OW  442   1.008   3.318   2.339
  797SOL    HW1  443   0.962   3.390   2.287
  797SOL    HW2  444   1.004   3.338   2.437
  799SOL     OW  445   1.795   2.928   2.735
  799SOL    HW1  446   1.733   2.913   2.659
  799SOL    HW2  447   1.743   2.939   2.820
  802SOL     OW  448   1.458   2.597   2.590
  802SOL    HW1  449   1.453   2.532   2.665
  802SOL    HW2  450   1.538   2.656   2.603
  806SOL     OW  451   1.632   3.239   1.943
  806SOL    HW1  452   1.600   3.333   1.933
  806SOL    HW2  453   1.556   3.176   1.931
  808SOL     OW  454   1.400   1.969   2.288
  808SOL    HW1  455   1.376   1.932   2.198
  808SOL    HW2  456   1.499   1.985   2.292
  812SOL     OW  457   1.547   2.084   3.591
  812SOL    HW1  458   1.542   2.121   3.683
  812SOL    HW2  459   1.475   2.015   3.579
  816SOL     OW  460   1.351   2.452   3.295
  816SOL    HW1  461   1.379   2.409   3.380
  816SOL    HW2  462   1.376   2.548   3.296
  818SOL     OW  463   0.922   2.365   2.761
  818SOL    HW1  464   0.897   2.356   2.665
  818SOL    HW2  465   0.970   2.283   2.792
  820SOL     OW  466   1.434   3.050   1.903
  820SOL    HW1  467   1.466   2.974   1.960
  820SOL    HW2  468   1.342   3.077   1.933
  822SOL     OW  469   0.935   2.098   2.342
  822SOL    HW1  470   0.887   2.139   2.264
  822SOL    HW2  471   1.034   2.096   2.323
  823SOL     OW  472   1.076   2.545   3.326
  823SOL    HW1  473   0.996   2.484   3.329
  823SOL    HW2  474   1.157   2.492   3.302
  824SOL     OW  475   1.227   3.432   2.655
  824SOL    HW1  476   1.248   3.506   2.590
  824SOL    HW2  477   1.295   3.432   2.728
  826SOL     OW  478   1.271   3.659   2.453
  826SOL    HW1  479   1.315   3.723   2.389
  826SOL    HW2  480   1.221   3.711   2.523
  827SOL     OW  481   1.032   2.411   1.878
  827SOL    HW1  482   0.991   2.493   1.839
  827SOL    HW2  483   1.096   2.437   1.951
  830SOL     OW  484   0.866   2.316   2.504
  830SOL    HW1  485   0.834   2.388   2.442
  830SOL    HW2  486   0.890   2.235   2.451
  831SOL     OW  487   1.017   1.901   2.615
  831SOL    HW1  488   0.945   1.906   2.546
  831SOL    HW2  489   0.993   1.832   2.684
  832SOL     OW  490   1.429   3.035   2.729
  832SOL    HW1  491   1.374   2.951   2.722
  832SOL    HW2  492   1.455   3.064   2.637
  833SOL     OW  493   1.466   2.452   2.854
  833SOL    HW1  494   1.436   2.357   2.861
  833SOL    HW2  495   1.539   2.468   2.920
  834SOL     OW  496   1.857   2.695   2.239
  834SOL    HW1  497   1.899   2.631   2.303
  834SOL    HW2  498   1.819   2.644   2.161
  836SOL     OW  499   1.664   3.142   2.519
  836SOL    HW1  500   1.763   3.150   2.533
  836SOL    HW2  501   1.619   3.226   2.550
  837SOL     OW  502   1.390   2.437   1.940
  837SOL    HW1  503   1.336   2.416   2.021
  837SOL    HW2  504   1.481   2.396   1.949
  839SOL     OW  505   1.754   3.085   3.450
  839SOL    HW1  506   1.845   3.046   3.437
  839SOL    HW2  507   1.762   3.181   3.474
  840SOL     OW  508   1.064   3.209   3.202
  840SOL    HW1  509   0.984   3.186   3.257
  840SOL    HW2  510   1.147   3.183   3.251
  841SOL     OW  511   1.592   3.491   3.487
  841SOL    HW1  512   1.619   3.525   3.397
  841SOL    HW2  513   1.671   3.453   3.533
  842SOL     OW  514   1.111   3.057   2.962
  842SOL    HW1  515   1.071   3.101   3.043
  842SOL    HW2  516   1.070   3.094   2.879
  843SOL     OW  517   1.638   2.961   2.941
  843SOL    HW1  518   1.643   3.042   3.000
  843SOL    HW2  519   1.552   2.963   2.890
  844SOL     OW  520   0.915   1.951   3.264
  844SOL    HW1  521   0.940   1.931   3.169
  844SOL    HW2  522   0.987   2.007   3.306
  846SOL     OW  523   0.705   2.912   2.230
  846SOL    HW1  524   0.691   2.919   2.329
  846SOL    HW2  525   0.789   2.861   2.212
  848SOL     OW  526   1.274   2.248   3.124
  848SOL    HW1  527   1.295   2.322   3.188
  848SOL    HW2  528   1.185   2.265   3.081
  852SOL     OW  529   1.252   3.210   2.250
  852SOL    HW1  530   1.302   3.287   2.290
  852SOL    HW2  531   1.157   3.212   2.282
  853SOL     OW  532   1.272   3.307   3.004
  853SOL    HW1  533   1.319   3.320   3.091
  853SOL    HW2  534   1.206   3.233   3.013
  854SOL     OW  535   1.582   2.501   2.334
  854SOL    HW1  536   1.551   2.562   2.407
  854SOL    HW2  537   1.632   2.553   2.265
  857SOL     OW  538   1.587   2.641   3.532
  857SOL    HW1  539   1.495   2.679   3.527
  857SOL    HW2  540   1.647   2.688   3.467
  861SOL     OW  541   1.360   2.724   2.907
  861SOL    HW1  542   1.285   2.724   2.841
  861SOL    HW2  543   1.397   2.632   2.916
  862SOL     OW  544   1.209   2.387   2.137
  862SOL    HW1  545   1.222   2.303   2.191
  862SOL    HW2  546   1.180   2.461   2.197
  865SOL     OW  547   0.732   2.496   2.926
  865SOL    HW1  548   0.791   2.470   2.850
  865SOL    HW2  549   0.704   2.592   2.915
  866SOL     OW  550   1.728   2.797   3.716
  866SOL    HW1  551   1.682   2.790   3.627
  866SOL    HW2  552   1.666   2.841   3.782
  868SOL     OW  553   1.622   2.229   2.236
  868SOL    HW1  554   1.624   2.153   2.300
  868SOL    HW2  555   1.574   2.306   2.276
  869SOL     OW  556   1.023   2.628   2.828
  869SOL    HW1  557   1.038   2.649   2.924
  869SOL    HW2  558   0.993   2.533   2.819
  871SOL     OW  559   1.859   3.380   3.467
  871SOL    HW1  560   1.873   3.407   3.372
  871SOL    HW2  561   1.942   3.402   3.520
  873SOL     OW  562   1.540   2.136   1.987
  873SOL    HW1  563   1.479   2.061   2.010
  873SOL    HW2  564   1.562   2.188   2.070
  874SOL     OW  565   1.303   2.700   1.904
  874SOL    HW1  566   1.337   2.607   1.919
  874SOL    HW2  567   1.321   2.727   1.809
  875SOL     OW  568   1.068   3.195   2.711
  875SOL    HW1  569   1.075   3.111   2.656
  875SOL    HW2  570   1.130   3.264   2.675
  878SOL     OW  571   1.138   2.242   3.540
  878SOL    HW1  572   1.093   2.305   3.604
  878SOL    HW2  573   1.231   2.273   3.523
  879SOL     OW  574   1.160   2.069   3.339
  879SOL    HW1  575   1.160   2.133   3.416
  879SOL    HW2  576   1.188   2.117   3.256
  883SOL     OW  577   1.002   2.658   3.100
  883SOL    HW1  578   1.043   2.626   3.186
  883SOL    HW2  579   0.906   2.631   3.097
  886SOL     OW  580   1.369   2.812   3.522
  886SOL    HW1  581   1.408   2.901   3.542
  886SOL    HW2  582   1.379   2.792   3.425
  887SOL     OW  583   0.815   2.434   2.187
  887SOL    HW1  584   0.822   2.345   2.141
  887SOL    HW2  585   0.721   2.468   2.179
  888SOL     OW  586   1.657   2.466   3.068
  888SOL    HW1  587   1.619   2.397   3.130
  888SOL    HW2  588   1.739   2.430   3.024
  894SOL     OW  589   1.347   2.921   3.096
  894SOL    HW1  590   1.371   2.858   3.022
  894SOL    HW2  591   1.257   2.961   3.078
  895SOL     OW  592   1.302   2.717   2.171
  895SOL    HW1  593   1.216   2.686   2.213
  895SOL    HW2  594   1.298   2.703   2.072
  896SOL     OW  595   1.759   3.609   3.016
  896SOL    HW1  596   1.820   3.639   2.943
  896SOL    HW2  597   1.721   3.520   2.994
  897SOL     OW  598   1.252   3.593   2.990
  897SOL    HW1  599   1.336   3.598   2.936
  897SOL    HW2  600   1.229   3.497   3.008
  900SOL     OW  601   1.726   1.997   2.385
  900SOL    HW1  602   1.799   1.980   2.318
  900SOL    HW2  603   1.695   1.910   2.423
  901SOL     OW  604   1.388   3.435   2.339
  901SOL    HW1  605   1.455   3.447   2.265
  901SOL    HW2  606   1.348   3.524   2.362
  903SOL     OW  607   1.280   2.789   2.534
  903SOL    HW1  608   1.340   2.708   2.536
  903SOL    HW2  609   1.320   2.858   2.474
  906SOL     OW  610   1.650   3.582   3.256
  906SOL    HW1  611   1.703   3.592   3.172
  906SOL    HW2  612   1.623   3.672   3.290
  907SOL     OW  613   1.841   2.037   2.825
  907SOL    HW1  614   1.880   1.952   2.789
  907SOL    HW2  615   1.743   2.039   2.806
  909SOL     OW  616   1.194   3.474   1.893
  909SOL    HW1  617   1.200   3.381   1.930
  909SOL    HW2  618   1.135   3.474   1.813
  911SOL     OW  619   0.916   2.772   2.153
  911SOL    HW1  620   0.979   2.810   2.085
  911SOL    HW2  621   0.956   2.689   2.192
  912SOL     OW  622   1.504   3.469   1.906
  912SOL    HW1  623   1.412   3.506   1.913
  912SOL    HW2  624   1.542   3.489   1.816
  914SOL     OW  625   1.614   3.154   3.151
  914SOL    HW1  626   1.674   3.157   3.231
  914SOL    HW2  627   1.539   3.218   3.164
  915SOL     OW  628   1.039   2.960   2.558
  915SOL    HW1  629   0.969   2.913   2.612
  915SOL    HW2  630   1.098   2.892   2.515
  916SOL     OW  631   1.014   2.098   2.833
  916SOL    HW1  632   1.006   2.062   2.740
  916SOL    HW2  633   1.012   2.022   2.898
  918SOL     OW  634   1.709   2.247   3.243
  918SOL    HW1  635   1.782   2.316   3.247
  918SOL    HW2  636   1.737   2.172   3.184
  923SOL     OW  637   1.440   2.718   3.260
  923SOL    HW1  638   1.383   2.770   3.197
  923SOL    HW2  639   1.536   2.730   3.236
  925SOL     OW  640   1.183   3.197   1.981
  925SOL    HW1  641   1.084   3.186   1.983
  925SOL    HW2  642   1.217   3.212   2.074
  927SOL     OW  643   1.493   3.629   2.821
  927SOL    HW1  644   1.526   3.693   2.752
  927SOL    HW2  645   1.559   3.623   2.896
  929SOL     OW  646   1.450   3.082   3.495
  929SOL    HW1  647   1.441   3.072   3.594
  929SOL    HW2  648   1.546   3.075   3.469
  931SOL     OW  649   1.674   2.745   3.116
  931SOL    HW1  650   1.647   2.656   3.079
  931SOL    HW2  651   1.675   2.813   3.043
  932SOL     OW  652   1.225   2.187   2.311
  932SOL    HW1  653   1.290   2.113   2.300
  932SOL    HW2  654   1.245   2.237   2.395
  933SOL     OW  655   0.594   2.607   2.514
  933SOL    HW1  656   0.644   2.692   2.495
  933SOL    HW2  657   0.506   2.609   2.466
  934SOL     OW  658   1.777   2.204   3.504
  934SOL    HW1  659   1.760   2.235   3.410
  934SOL    HW2  660   1.693   2.167   3.542
  935SOL     OW  661   1.730   2.796   3.379
  935SOL    HW1  662   1.768   2.887   3.394
  935SOL    HW2  663   1.722   2.779   3.280
  936SOL     OW  664   0.859   3.236   1.878
  936SOL    HW1  665   0.813   3.251   1.966
  936SOL    HW2  666   0.903   3.321   1.848
  938SOL     OW  667   0.859   2.818   2.723
  938SOL    HW1  668   0.913   2.749   2.771
  938SOL    HW2  669   0.827   2.887   2.789
  939SOL     OW  670   1.083   2.846   1.949
  939SOL    HW1  671   1.060   2.899   1.867
  939SOL    HW2  672   1.164   2.790   1.930
  940SOL     OW  673   1.861   3.431   2.713
  940SOL    HW1  674   1.790   3.419   2.643
  940SOL    HW2  675   1.862   3.352   2.773
  944SOL     OW  676   1.824   2.054   3.089
  944SOL    HW1  677   1.820   1.964   3.133
  944SOL    HW2  678   1.827   2.043   2.990
  946SOL     OW  679   1.705   3.349   2.966
  946SOL    HW1  680   1.612   3.324   2.939
  946SOL    HW2  681   1.731   3.299   3.048
  949SOL     OW  682   1.424   2.076   2.974
  949SOL    HW1  683   1.476   2.011   3.029
  949SOL    HW2  684   1.375   2.139   3.035
  950SOL     OW  685   1.001   1.896   3.016
  950SOL    HW1  686   0.938   1.824   2.985
  950SOL    HW2  687   1.094   1.860   3.016
  953SOL     OW  688   1.352   1.914   2.030
  953SOL    HW1  689   1.387   1.873   1.946
  953SOL    HW2  690   1.262   1.876   2.050
  954SOL     OW  691   1.300   2.315   2.553
  954SOL    HW1  692   1.241   2.395   2.557
  954SOL    HW2  693   1.315   2.280   2.646
  955SOL     OW  694   1.593   2.083   2.744
  955SOL    HW1  695   1.509   2.082   2.798
  955SOL    HW2  696   1.595   2.166   2.688
  962SOL     OW  697   1.755   2.469   3.955
  962SOL    HW1  698   1.743   2.456   3.856
  962SOL    HW2  699   1.725   2.388   4.004
 1011SOL     OW  700   1.390   2.437   3.802
 1011SOL    HW1  701   1.336   2.416   3.883
 1011SOL    HW2  702   1.481   2.396   3.811
 1022SOL     OW  703   1.540   2.136   3.849
 1022SOL    HW1  704   1.479   2.061   3.872
 1022SOL    HW2  705   1.562   2.188   3.932
 1023SOL     OW  706   1.303   2.700   3.766
 1023SOL    HW1  707   1.337   2.607   3.781
 1023SOL    HW2  708   1.321   2.727   3.671
 1202SOL     OW  709   1.400   3.831   2.288
 1202SOL    HW1  710   1.376   3.794   2.198
 1202SOL    HW2  711   1.499   3.847   2.292
 1257SOL     OW  712   1.726   3.859   2.385
 1257SOL    HW1  713   1.799   3.842   2.318
 1257SOL    HW2  714   1.695   3.772   2.423
 1259SOL     OW  715   1.841   3.899   2.825
 1259SOL    HW1  716   1.880   3.814   2.789
 1259SOL    HW2  717   1.743   3.901   2.806
 1281SOL     OW  718   1.352   3.776   2.030
 1281SOL    HW1  719   1.387   3.735   1.946
 1281SOL    HW2  720   1.262   3.738   2.050
 1343SOL     OW  721   2.431   1.275   1.165
 1343SOL    HW1  722   2.338   1.268   1.128
 1343SOL    HW2  723   2.442   1.364   1.209
 1348SOL     OW  724   2.712   0.798   1.823
 1348SOL    HW1  725   2.708   0.874   1.888
 1348SOL    HW2  726   2.734   0.834   1.732
 1350SOL     OW  727   2.548   1.161   1.803
 1350SOL    HW1  728   2.608   1.240   1.817
 1350SOL    HW2  729   2.462   1.192   1.762
 1351SOL     OW  730   2.197   1.435   1.061
 1351SOL    HW1  731   2.119   1.404   1.008
 1351SOL    HW2  732   2.255   1.493   1.004
 1352SOL     OW  733   3.322   1.505   1.339
 1352SOL    HW1  734   3.346   1.599   1.365
 1352SOL    HW2  735   3.306   1.451   1.421
 1356SOL     OW  736   2.989   1.341   1.690
 1356SOL    HW1  737   3.036   1.341   1.778
 1356SOL    HW2  738   2.941   1.254   1.679
 1359SOL     OW  739   2.482   1.786   1.439
 1359SOL    HW1  740   2.390   1.769   1.474
 1359SOL    HW2  741   2.510   1.878   1.465
 1368SOL     OW  742   3.155   1.228   1.423
 1368SOL    HW1  743   3.192   1.155   1.365
 1368SOL    HW2  744   3.207   1.233   1.508
 1370SOL     OW  745   2.059   0.976   1.264
 1370SOL    HW1  746   2.148   0.931   1.250
 1370SOL    HW2  747   1.986   0.911   1.245
 1372SOL     OW  748   3.049   1.792   1.616
 1372SOL    HW1  749   3.073   1.852   1.540
 1372SOL    HW2  750   3.056   1.697   1.586
 1381SOL     OW  751   2.835   0.890   1.572
 1381SOL    HW1  752   2.881   0.806   1.543
 1381SOL    HW2  753   2.779   0.924   1.497
 1385SOL     OW  754   1.992   1.821   1.571
 1385SOL    HW1  755   1.982   1.806   1.670
 1385SOL    HW2  756   1.906   1.857   1.535
 1391SOL     OW  757   2.213   1.801   0.853
 1391SOL    HW1  758   2.263   1.715   0.859
 1391SOL    HW2  759   2.278   1.878   0.850
 1393SOL     OW  760   3.089   1.550   1.506
 1393SOL    HW1  761   3.095   1.473   1.570
 1393SOL    HW2  762   3.037   1.524   1.426
 1396SOL     OW  763   2.323   1.266   1.727
 1396SOL    HW1  764   2.273   1.267   1.641
 1396SOL    HW2  765   2.260   1.248   1.803
 1402SOL     OW  766   2.111   1.785   1.241
 1402SOL    HW1  767   2.168   1.720   1.291
 1402SOL    HW2  768   2.095   1.752   1.148
 1403SOL     OW  769   2.802   1.698   0.904
 1403SOL    HW1  770   2.882   1.641   0.925
 1403SOL    HW2  771   2.753   1.658   0.827
 1408SOL     OW  772   2.750   1.514   1.195
 1408SOL    HW1  773   2.727   1.489   1.101
 1408SOL    HW2  774   2.811   1.445   1.234
 1410SOL     OW  775   2.665   1.402   0.924
 1410SOL    HW1  776   2.755   1.416   0.882
 1410SOL    HW2  777   2.594   1.404   0.853
 1433SOL     OW  778   2.926   1.347   1.340
 1433SOL    HW1  779   2.846   1.324   1.395
 1433SOL    HW2  780   3.009   1.321   1.389
 1434SOL     OW  781   3.454   1.629   1.625
 1434SOL    HW1  782   3.481   1.663   1.535
 1434SOL    HW2  783   3.533   1.591   1.671
 1438SOL     OW  784   2.842   1.116   1.719
 1438SOL    HW1  785   2.743   1.122   1.729
 1438SOL    HW2  786   2.865   1.036   1.663
 1442SOL     OW  787   1.926   1.564   1.331
 1442SOL    HW1  788   1.880   1.646   1.297
 1442SOL    HW2  789   2.024   1.583   1.340
 1446SOL     OW  790   3.134   1.445   1.142
 1446SOL    HW1  791   3.181   1.458   1.229
 1446SOL    HW2  792   3.068   1.371   1.151
 1448SOL     OW  793   2.216   1.510   1.329
 1448SOL    HW1  794   2.195   1.466   1.242
 1448SOL    HW2  795   2.313   1.536   1.332
 1449SOL     OW  796   2.264   0.751   1.598
 1449SOL    HW1  797   2.332   0.806   1.551
 1449SOL    HW2  798   2.304   0.663   1.625
 1457SOL     OW  799   1.899   1.310   1.282
 1457SOL    HW1  800   1.952   1.261   1.350
 1457SOL    HW2  801   1.921   1.408   1.287
 1463SOL     OW  802   2.842   1.573   1.700
 1463SOL    HW1  803   2.822   1.617   1.612
 1463SOL    HW2  804   2.881   1.482   1.684
 1464SOL     OW  805   3.721   1.518   1.605
 1464SOL    HW1  806   3.735   1.545   1.510
 1464SOL    HW2  807   3.804   1.540   1.658
 1465SOL     OW  808   2.212   0.898   1.804
 1465SOL    HW1  809   2.288   0.942   1.852
 1465SOL    HW2  810   2.247   0.851   1.722
 1474SOL     OW  811   1.950   1.801   0.927
 1474SOL    HW1  812   1.908   1.715   0.900
 1474SOL    HW2  813   2.044   1.804   0.893
 1475SOL     OW  814   2.366   1.568   0.910
 1475SOL    HW1  815   2.432   1.642   0.919
 1475SOL    HW2  816   2.410   1.489   0.868
 1479SOL     OW  817   3.231   0.950   1.660
 1479SOL    HW1  818   3.270   1.039   1.680
 1479SOL    HW2  819   3.241   0.930   1.563
 1482SOL     OW  820   2.114   1.564   1.744
 1482SOL    HW1  821   2.084   1.621   1.820
 1482SOL    HW2  822   2.107   1.467   1.770
 1484SOL     OW  823   2.792   1.678   1.465
 1484SOL    HW1  824   2.768   1.660   1.370
 1484SOL    HW2  825   2.822   1.772   1.475
 1486SOL     OW  826   2.021   1.137   1.466
 1486SOL    HW1  827   2.043   1.076   1.542
 1486SOL    HW2  828   2.031   1.088   1.380
 1490SOL     OW  829   3.114   1.731   1.128
 1490SOL    HW1  830   3.198   1.736   1.074
 1490SOL    HW2  831   3.091   1.635   1.146
 1491SOL     OW  832   1.945   1.258   1.022
 1491SOL    HW1  833   1.940   1.257   1.122
 1491SOL    HW2  834   1.862   1.217   0.984
 1492SOL     OW  835   2.550   1.662   1.716
 1492SOL    HW1  836   2.494   1.743   1.725
 1492SOL    HW2  837   2.602   1.666   1.630
 1496SOL     OW  838   1.992   1.794   1.851
 1496SOL    HW1  839   1.951   1.720   1.904
 1496SOL    HW2  840   2.056   1.845   1.909
 1498SOL     OW  841   2.692   1.273   1.422
 1498SOL    HW1  842   2.687   1.306   1.517
 1498SOL    HW2  843   2.606   1.292   1.376
 1500SOL     OW  844   3.512   1.720   1.394
 1500SOL    HW1  845   3.565   1.730   1.310
 1500SOL    HW2  846   3.485   1.810   1.428
 1504SOL     OW  847   2.684   1.002   1.372
 1504SOL    HW1  848   2.724   1.001   1.280
 1504SOL    HW2  849   2.694   1.094   1.412
 1507SOL     OW  850   2.234   1.288   1.490
 1507SOL    HW1  851   2.221   1.381   1.456
 1507SOL    HW2  852   2.150   1.236   1.477
 1514SOL     OW  853   1.967   1.013   1.726
 1514SOL    HW1  854   1.890   0.980   1.780
 1514SOL    HW2  855   2.052   0.983   1.768
 1518SOL     OW  856   2.475   0.842   1.431
 1518SOL    HW1  857   2.531   0.923   1.414
 1518SOL    HW2  858   2.534   0.762   1.434
 1521SOL     OW  859   3.312   1.220   1.633
 1521SOL    HW1  860   3.303   1.210   1.732
 1521SOL    HW2  861   3.408   1.213   1.607
 1522SOL     OW  862   2.252   1.741   1.560
 1522SOL    HW1  863   2.161   1.782   1.558
 1522SOL    HW2  864   2.245   1.647   1.592
 1529SOL     OW  865   2.523   1.790   0.953
 1529SOL    HW1  866   2.477   1.878   0.940
 1529SOL    HW2  867   2.622   1.802   0.946
 1533SOL     OW  868   2.083   1.314   1.844
 1533SOL    HW1  869   2.018   1.241   1.823
 1533SOL    HW2  870   2.087   1.328   1.942
 1535SOL     OW  871   2.534   1.391   1.624
 1535SOL    HW1  872   2.456   1.341   1.662
 1535SOL    HW2  873   2.531   1.486   1.655
 1544SOL     OW  874   2.480   1.567   1.284
 1544SOL    HW1  875   2.475   1.649   1.341
 1544SOL    HW2  876   2.569   1.564   1.239
 1550SOL     OW  877   2.092   0.628   1.975
 1550SOL    HW1  878   1.999   0.626   2.012
 1550SOL    HW2  879   2.093   0.589   1.883
 1553SOL     OW  880   2.431   1.275   3.027
 1553SOL    HW1  881   2.338   1.268   2.990
 1553SOL    HW2  882   2.442   1.364   3.071
 1554SOL     OW  883   3.417   1.511   2.565
 1554SOL    HW1  884   3.360   1.495   2.646
 1554SOL    HW2  885   3.358   1.521   2.485
 1555SOL     OW  886   2.997   0.703   2.579
 1555SOL    HW1  887   3.054   0.781   2.554
 1555SOL    HW2  888   2.937   0.729   2.655
 1557SOL     OW  889   2.630   1.144   2.885
 1557SOL    HW1  890   2.552   1.161   2.945
 1557SOL    HW2  891   2.664   1.231   2.849
 1559SOL     OW  892   2.547   1.012   2.527
 1559SOL    HW1  893   2.616   0.996   2.597
 1559SOL    HW2  894   2.474   1.069   2.565
 1560SOL     OW  895   2.548   1.161   3.665
 1560SOL    HW1  896   2.608   1.240   3.679
 1560SOL    HW2  897   2.462   1.192   3.624
 1561SOL     OW  898   2.197   1.435   2.923
 1561SOL    HW1  899   2.119   1.404   2.870
 1561SOL    HW2  900   2.255   1.493   2.866
 1562SOL     OW  901   3.322   1.505   3.201
 1562SOL    HW1  902   3.346   1.599   3.227
 1562SOL    HW2  903   3.306   1.451   3.283
 1565SOL     OW  904   2.093   1.713   2.345
 1565SOL    HW1  905   2.127   1.790   2.399
 1565SOL    HW2  906   2.137   1.713   2.255
 1566SOL     OW  907   2.989   1.341   3.552
 1566SOL    HW1  908   3.036   1.341   3.640
 1566SOL    HW2  909   2.941   1.254   3.541
 1567SOL     OW  910   2.092   1.434   2.400
 1567SOL    HW1  911   2.066   1.530   2.400
 1567SOL    HW2  912   2.021   1.380   2.445
 1568SOL     OW  913   2.102   1.091   2.748
 1568SOL    HW1  914   2.116   1.007   2.800
 1568SOL    HW2  915   2.047   1.155   2.803
 1569SOL     OW  916   2.482   1.786   3.301
 1569SOL    HW1  917   2.390   1.769   3.336
 1569SOL    HW2  918   2.510   1.878   3.327
 1570SOL     OW  919   2.468   0.964   1.985
 1570SOL    HW1  920   2.475   1.048   1.931
 1570SOL    HW2  921   2.514   0.977   2.073
 1572SOL     OW  922   1.984   0.643   2.425
 1572SOL    HW1  923   1.939   0.555   2.442
 1572SOL    HW2  924   1.983   0.697   2.509
 1573SOL     OW  925   3.704   1.767   2.221
 1573SOL    HW1  926   3.758   1.738   2.301
 1573SOL    HW2  927   3.734   1.857   2.192
 1574SOL     OW  928   1.889   1.596   1.979
 1574SOL    HW1  929   1.870   1.500   2.000
 1574SOL    HW2  930   1.856   1.654   2.054
 1576SOL     OW  931   3.503   1.108   2.294
 1576SOL    HW1  932   3.589   1.110   2.242
 1576SOL    HW2  933   3.517   1.155   2.382
 1578SOL     OW  934   2.475   1.365   2.588
 1578SOL    HW1  935   2.426   1.278   2.597
 1578SOL    HW2  936   2.452   1.408   2.501
 1579SOL     OW  937   3.155   1.228   3.285
 1579SOL    HW1  938   3.192   1.155   3.227
 1579SOL    HW2  939   3.207   1.233   3.370
 1581SOL     OW  940   2.059   0.976   3.126
 1581SOL    HW1  941   2.148   0.931   3.112
 1581SOL    HW2  942   1.986   0.911   3.107
 1582SOL     OW  943   3.387   0.999   2.052
 1582SOL    HW1  944   3.324   0.923   2.065
 1582SOL    HW2  945   3.435   1.017   2.138
 1583SOL     OW  946   3.049   1.792   3.478
 1583SOL    HW1  947   3.073   1.852   3.402
 1583SOL    HW2  948   3.056   1.697   3.448
 1585SOL     OW  949   3.328   1.417   2.815
 1585SOL    HW1  950   3.269   1.423   2.895
 1585SOL    HW2  951   3.313   1.329   2.769
 1586SOL     OW  952   3.529   1.714   2.434
 1586SOL    HW1  953   3.488   1.691   2.346
 1586SOL    HW2  954   3.511   1.640   2.499
 1587SOL     OW  955   2.460   0.729   2.132
 1587SOL    HW1  956   2.484   0.798   2.064
 1587SOL    HW2  957   2.382   0.762   2.186
 1589SOL     OW  958   3.438   1.662   2.169
 1589SOL    HW1  959   3.527   1.708   2.172
 1589SOL    HW2  960   3.417   1.638   2.074
 1594SOL     OW  961   2.903   0.701   2.291
 1594SOL    HW1  962   2.929   0.697   2.387
 1594SOL    HW2  963   2.818   0.650   2.277
 1595SOL     OW  964   1.938   0.811   2.651
 1595SOL    HW1  965   2.037   0.799   2.660
 1595SOL    HW2  966   1.914   0.906   2.672
 1596SOL     OW  967   1.992   1.821   3.433
 1596SOL    HW1  968   1.982   1.806   3.532
 1596SOL    HW2  969   1.906   1.857   3.397
 1599SOL     OW  970   3.224   1.144   2.407
 1599SOL    HW1  971   3.307   1.115   2.359
 1599SOL    HW2  972   3.175   1.211   2.351
 1601SOL     OW  973   2.870   1.456   2.339
 1601SOL    HW1  974   2.824   1.528   2.287
 1601SOL    HW2  975   2.866   1.476   2.437
 1602SOL     OW  976   2.213   1.801   2.715
 1602SOL    HW1  977   2.263   1.715   2.721
 1602SOL    HW2  978   2.278   1.878   2.712
 1604SOL     OW  979   3.089   1.550   3.368
 1604SOL    HW1  980   3.095   1.473   3.432
 1604SOL    HW2  981   3.037   1.524   3.288
 1605SOL     OW  982   2.183   0.943   2.104
 1605SOL    HW1  983   2.265   0.982   2.062
 1605SOL    HW2  984   2.156   0.861   2.055
 1607SOL     OW  985   2.323   1.266   3.589
 1607SOL    HW1  986   2.273   1.267   3.503
 1607SOL    HW2  987   2.260   1.248   3.665
 1608SOL     OW  988   2.973   1.776   2.099
 1608SOL    HW1  989   2.913   1.714   2.149
 1608SOL    HW2  990   3.004   1.732   2.014
 1610SOL     OW  991   3.494   1.377   1.943
 1610SOL    HW1  992   3.462   1.471   1.933
 1610SOL    HW2  993   3.418   1.314   1.931
 1611SOL     OW  994   2.326   1.743   2.185
 1611SOL    HW1  995   2.359   1.782   2.271
 1611SOL    HW2  996   2.402   1.736   2.120
 1613SOL     OW  997   2.111   1.785   3.103
 1613SOL    HW1  998   2.168   1.720   3.153
 1613SOL    HW2  999   2.095   1.752   3.010
 1614SOL     OW 1000   2.802   1.698   2.766
 1614SOL    HW1 1001   2.882   1.641   2.787
 1614SOL    HW2 1002   2.753   1.658   2.689
 1615SOL     OW 1003   2.244   0.700   2.342
 1615SOL    HW1 1004   2.289   0.610   2.339
 1615SOL    HW2 1005   2.150   0.689   2.375
 1619SOL     OW 1006   2.750   1.514   3.057
 1619SOL    HW1 1007   2.727   1.489   2.963
 1619SOL    HW2 1008   2.811   1.445   3.096
 1621SOL     OW 1009   2.665   1.402   2.786
 1621SOL    HW1 1010   2.755   1.416   2.744
 1621SOL    HW2 1011   2.594   1.404   2.715
 1624SOL     OW 1012   3.296   1.188   1.903
 1624SOL    HW1 1013   3.328   1.112   1.960
 1624SOL    HW2 1014   3.204   1.215   1.933
 1628SOL     OW 1015   3.089   1.570   2.655
 1628SOL    HW1 1016   3.110   1.644   2.590
 1628SOL    HW2 1017   3.157   1.570   2.728
 1629SOL     OW 1018   2.321   1.152   2.603
 1629SOL    HW1 1019   2.250   1.125   2.668
 1629SOL    HW2 1020   2.295   1.124   2.510
 1630SOL     OW 1021   3.133   1.797   2.453
 1630SOL    HW1 1022   3.177   1.861   2.389
 1630SOL    HW2 1023   3.083   1.849   2.523
 1636SOL     OW 1024   3.291   1.173   2.729
 1636SOL    HW1 1025   3.236   1.089   2.722
 1636SOL    HW2 1026   3.317   1.202   2.637
 1639SOL     OW 1027   2.350   1.385   2.036
 1639SOL    HW1 1028   2.263   1.370   2.083
 1639SOL    HW2 1029   2.333   1.411   1.941
 1640SOL     OW 1030   3.526   1.280   2.519
 1640SOL    HW1 1031   3.625   1.288   2.533
 1640SOL    HW2 1032   3.481   1.364   2.550
 1644SOL     OW 1033   2.926   1.347   3.202
 1644SOL    HW1 1034   2.846   1.324   3.257
 1644SOL    HW2 1035   3.009   1.321   3.251
 1645SOL     OW 1036   3.454   1.629   3.487
 1645SOL    HW1 1037   3.481   1.663   3.397
 1645SOL    HW2 1038   3.533   1.591   3.533
 1646SOL     OW 1039   2.973   1.195   2.962
 1646SOL    HW1 1040   2.933   1.239   3.043
 1646SOL    HW2 1041   2.932   1.232   2.879
 1647SOL     OW 1042   3.500   1.099   2.941
 1647SOL    HW1 1043   3.505   1.180   3.000
 1647SOL    HW2 1044   3.414   1.101   2.890
 1650SOL     OW 1045   2.567   1.050   2.230
 1650SOL    HW1 1046   2.553   1.057   2.329
 1650SOL    HW2 1047   2.651   0.999   2.212
 1651SOL     OW 1048   2.272   0.813   3.113
 1651SOL    HW1 1049   2.358   0.825   3.163
 1651SOL    HW2 1050   2.230   0.726   3.140
 1653SOL     OW 1051   1.926   1.564   3.193
 1653SOL    HW1 1052   1.880   1.646   3.159
 1653SOL    HW2 1053   2.024   1.583   3.202
 1654SOL     OW 1054   2.229   1.100   2.363
 1654SOL    HW1 1055   2.222   1.183   2.307
 1654SOL    HW2 1056   2.233   1.020   2.303
 1656SOL     OW 1057   3.114   1.348   2.250
 1656SOL    HW1 1058   3.164   1.425   2.290
 1656SOL    HW2 1059   3.019   1.350   2.282
 1657SOL     OW 1060   3.134   1.445   3.004
 1657SOL    HW1 1061   3.181   1.458   3.091
 1657SOL    HW2 1062   3.068   1.371   3.013
 1659SOL     OW 1063   2.216   1.510   3.191
 1659SOL    HW1 1064   2.195   1.466   3.104
 1659SOL    HW2 1065   2.313   1.536   3.194
 1664SOL     OW 1066   2.435   0.870   2.891
 1664SOL    HW1 1067   2.479   0.959   2.882
 1664SOL    HW2 1068   2.372   0.870   2.968
 1668SOL     OW 1069   1.899   1.310   3.144
 1668SOL    HW1 1070   1.952   1.261   3.212
 1668SOL    HW2 1071   1.921   1.408   3.149
 1673SOL     OW 1072   2.885   0.766   2.828
 1673SOL    HW1 1073   2.900   0.787   2.924
 1673SOL    HW2 1074   2.855   0.671   2.819
 1674SOL     OW 1075   2.842   1.573   3.562
 1674SOL    HW1 1076   2.822   1.617   3.474
 1674SOL    HW2 1077   2.881   1.482   3.546
 1678SOL     OW 1078   3.165   0.838   1.904
 1678SOL    HW1 1079   3.199   0.745   1.919
 1678SOL    HW2 1080   3.183   0.865   1.809
 1679SOL     OW 1081   2.930   1.333   2.711
 1679SOL    HW1 1082   2.937   1.249   2.656
 1679SOL    HW2 1083   2.992   1.402   2.675
 1680SOL     OW 1084   2.181   0.810   2.811
 1680SOL    HW1 1085   2.274   0.846   2.816
 1680SOL    HW2 1086   2.175   0.725   2.863
 1684SOL     OW 1087   1.870   1.326   2.062
 1684SOL    HW1 1088   1.777   1.347   2.031
 1684SOL    HW2 1089   1.880   1.227   2.075
 1685SOL     OW 1090   1.950   1.801   2.789
 1685SOL    HW1 1091   1.908   1.715   2.762
 1685SOL    HW2 1092   2.044   1.804   2.755
 1686SOL     OW 1093   2.366   1.568   2.772
 1686SOL    HW1 1094   2.432   1.642   2.781
 1686SOL    HW2 1095   2.410   1.489   2.730
 1693SOL     OW 1096   2.114   1.564   3.606
 1693SOL    HW1 1097   2.084   1.621   3.682
 1693SOL    HW2 1098   2.107   1.467   3.632
 1695SOL     OW 1099   2.792   1.678   3.327
 1695SOL    HW1 1100   2.768   1.660   3.232
 1695SOL    HW2 1101   2.822   1.772   3.337
 1697SOL     OW 1102   2.021   1.137   3.328
 1697SOL    HW1 1103   2.043   1.076   3.404
 1697SOL    HW2 1104   2.031   1.088   3.242
 1698SOL     OW 1105   3.209   1.059   3.096
 1698SOL    HW1 1106   3.233   0.996   3.022
 1698SOL    HW2 1107   3.119   1.099   3.078
 1699SOL     OW 1108   3.164   0.855   2.171
 1699SOL    HW1 1109   3.078   0.824   2.213
 1699SOL    HW2 1110   3.160   0.841   2.072
 1700SOL     OW 1111   3.621   1.747   3.016
 1700SOL    HW1 1112   3.682   1.777   2.943
 1700SOL    HW2 1113   3.583   1.658   2.994
 1701SOL     OW 1114   3.114   1.731   2.990
 1701SOL    HW1 1115   3.198   1.736   2.936
 1701SOL    HW2 1116   3.091   1.635   3.008
 1702SOL     OW 1117   1.945   1.258   2.884
 1702SOL    HW1 1118   1.940   1.257   2.984
 1702SOL    HW2 1119   1.862   1.217   2.846
 1703SOL     OW 1120   2.550   1.662   3.578
 1703SOL    HW1 1121   2.494   1.743   3.587
 1703SOL    HW2 1122   2.602   1.666   3.492
 1705SOL     OW 1123   3.250   1.573   2.339
 1705SOL    HW1 1124   3.317   1.585   2.265
 1705SOL    HW2 1125   3.210   1.662   2.362
 1706SOL     OW 1126   1.992   1.794   3.713
 1706SOL    HW1 1127   1.951   1.720   3.766
 1706SOL    HW2 1128   2.056   1.845   3.771
 1707SOL     OW 1129   3.142   0.927   2.534
 1707SOL    HW1 1130   3.202   0.846   2.536
 1707SOL    HW2 1131   3.182   0.996   2.474
 1708SOL     OW 1132   2.692   1.273   3.284
 1708SOL    HW1 1133   2.687   1.306   3.379
 1708SOL    HW2 1134   2.606   1.292   3.238
 1709SOL     OW 1135   2.534   1.616   2.016
 1709SOL    HW1 1136   2.543   1.626   1.917
 1709SOL    HW2 1137   2.494   1.527   2.037
 1710SOL     OW 1138   3.512   1.720   3.256
 1710SOL    HW1 1139   3.565   1.730   3.172
 1710SOL    HW2 1140   3.485   1.810   3.290
 1713SOL     OW 1141   3.056   1.612   1.893
 1713SOL    HW1 1142   3.062   1.519   1.930
 1713SOL    HW2 1143   2.997   1.612   1.813
 1714SOL     OW 1144   2.684   1.002   3.234
 1714SOL    HW1 1145   2.724   1.001   3.142
 1714SOL    HW2 1146   2.694   1.094   3.274
 1715SOL     OW 1147   2.778   0.910   2.153
 1715SOL    HW1 1148   2.841   0.948   2.085
 1715SOL    HW2 1149   2.818   0.827   2.192
 1716SOL     OW 1150   3.366   1.607   1.906
 1716SOL    HW1 1151   3.274   1.644   1.913
 1716SOL    HW2 1152   3.404   1.627   1.816
 1717SOL     OW 1153   2.234   1.288   3.352
 1717SOL    HW1 1154   2.221   1.381   3.318
 1717SOL    HW2 1155   2.150   1.236   3.339
 1718SOL     OW 1156   3.476   1.292   3.151
 1718SOL    HW1 1157   3.536   1.295   3.231
 1718SOL    HW2 1158   3.401   1.356   3.164
 1719SOL     OW 1159   2.901   1.098   2.558
 1719SOL    HW1 1160   2.831   1.051   2.612
 1719SOL    HW2 1161   2.960   1.030   2.515
 1721SOL     OW 1162   2.452   1.487   2.353
 1721SOL    HW1 1163   2.494   1.429   2.283
 1721SOL    HW2 1164   2.408   1.566   2.309
 1723SOL     OW 1165   2.117   1.348   2.152
 1723SOL    HW1 1166   2.021   1.349   2.125
 1723SOL    HW2 1167   2.129   1.401   2.236
 1729SOL     OW 1168   3.045   1.335   1.981
 1729SOL    HW1 1169   2.946   1.324   1.983
 1729SOL    HW2 1170   3.079   1.350   2.074
 1730SOL     OW 1171   2.475   0.842   3.293
 1730SOL    HW1 1172   2.531   0.923   3.276
 1730SOL    HW2 1173   2.534   0.762   3.296
 1731SOL     OW 1174   3.355   1.767   2.821
 1731SOL    HW1 1175   3.388   1.831   2.752
 1731SOL    HW2 1176   3.421   1.761   2.896
 1734SOL     OW 1177   2.252   1.741   3.422
 1734SOL    HW1 1178   2.161   1.782   3.420
 1734SOL    HW2 1179   2.245   1.647   3.454
 1737SOL     OW 1180   2.456   0.745   2.514
 1737SOL    HW1 1181   2.506   0.830   2.495
 1737SOL    HW2 1182   2.368   0.747   2.466
 1740SOL     OW 1183   2.721   1.374   1.878
 1740SOL    HW1 1184   2.675   1.389   1.966
 1740SOL    HW2 1185   2.765   1.459   1.848
 1741SOL     OW 1186   2.523   1.790   2.815
 1741SOL    HW1 1187   2.477   1.878   2.802
 1741SOL    HW2 1188   2.622   1.802   2.808
 1742SOL     OW 1189   2.721   0.956   2.723
 1742SOL    HW1 1190   2.775   0.887   2.771
 1742SOL    HW2 1191   2.689   1.025   2.789
 1743SOL     OW 1192   2.945   0.984   1.949
 1743SOL    HW1 1193   2.922   1.037   1.867
 1743SOL    HW2 1194   3.026   0.928   1.930
 1744SOL     OW 1195   3.723   1.569   2.713
 1744SOL    HW1 1196   3.652   1.557   2.643
 1744SOL    HW2 1197   3.724   1.490   2.773
 1745SOL     OW 1198   2.083   1.314   3.706
 1745SOL    HW1 1199   2.018   1.241   3.685
 1745SOL    HW2 1200   2.087   1.328   3.804
 1746SOL     OW 1201   1.941   1.240   2.515
 1746SOL    HW1 1202   1.940   1.193   2.603
 1746SOL    HW2 1203   2.023   1.212   2.464
 1747SOL     OW 1204   2.534   1.391   3.486
 1747SOL    HW1 1205   2.456   1.341   3.524
 1747SOL    HW2 1206   2.531   1.486   3.517
 1750SOL     OW 1207   3.567   1.487   2.966
 1750SOL    HW1 1208   3.474   1.462   2.939
 1750SOL    HW2 1209   3.593   1.437   3.048
 1752SOL     OW 1210   2.674   1.586   2.549
 1752SOL    HW1 1211   2.706   1.596   2.455
 1752SOL    HW2 1212   2.595   1.524   2.551
 1755SOL     OW 1213   2.632   1.330   2.163
 1755SOL    HW1 1214   2.586   1.243   2.180
 1755SOL    HW2 1215   2.723   1.327   2.204
 1756SOL     OW 1216   2.480   1.567   3.146
 1756SOL    HW1 1217   2.475   1.649   3.203
 1756SOL    HW2 1218   2.569   1.564   3.101
 1760SOL     OW 1219   1.901   1.077   2.162
 1760SOL    HW1 1220   2.000   1.066   2.153
 1760SOL    HW2 1221   1.861   0.991   2.194
 1761SOL     OW 1222   2.737   1.646   2.199
 1761SOL    HW1 1223   2.660   1.611   2.145
 1761SOL    HW2 1224   2.705   1.717   2.261
 1776SOL     OW 1225   1.889   1.596   3.841
 1776SOL    HW1 1226   1.870   1.500   3.862
 1776SOL    HW2 1227   1.856   1.654   3.916
 1840SOL     OW 1228   2.534   1.616   3.878
 1840SOL    HW1 1229   2.543   1.626   3.779
 1840SOL    HW2 1230   2.494   1.527   3.899
 1843SOL     OW 1231   3.056   1.612   3.755
 1843SOL    HW1 1232   3.062   1.519   3.792
 1843SOL    HW2 1233   2.997   1.612   3.675
 1855SOL     OW 1234   2.721   1.374   3.740
 1855SOL    HW1 1235   2.675   1.389   3.828
 1855SOL    HW2 1236   2.765   1.459   3.710
 1871SOL     OW 1237   2.087   2.137   0.996
 1871SOL    HW1 1238   2.122   2.120   1.088
 1871SOL    HW2 1239   1.999   2.092   0.984
 1872SOL     OW 1240   1.881   2.230   0.647
 1872SOL    HW1 1241   1.799   2.273   0.686
 1872SOL    HW2 1242   1.853   2.157   0.584
 1873SOL     OW 1243   2.431   3.137   1.165
 1873SOL    HW1 1244   2.338   3.130   1.128
 1873SOL    HW2 1245   2.442   3.226   1.209
 1875SOL     OW 1246   2.997   2.565   0.717
 1875SOL    HW1 1247   3.054   2.643   0.692
 1875SOL    HW2 1248   2.937   2.591   0.793
 1877SOL     OW 1249   2.630   3.006   1.023
 1877SOL    HW1 1250   2.552   3.023   1.083
 1877SOL    HW2 1251   2.664   3.093   0.987
 1878SOL     OW 1252   2.712   2.660   1.823
 1878SOL    HW1 1253   2.708   2.736   1.888
 1878SOL    HW2 1254   2.734   2.696   1.732
 1879SOL     OW 1255   2.547   2.874   0.665
 1879SOL    HW1 1256   2.616   2.858   0.735
 1879SOL    HW2 1257   2.474   2.931   0.703
 1880SOL     OW 1258   2.548   3.023   1.803
 1880SOL    HW1 1259   2.608   3.102   1.817
 1880SOL    HW2 1260   2.462   3.054   1.762
 1881SOL     OW 1261   2.197   3.297   1.061
 1881SOL    HW1 1262   2.119   3.266   1.008
 1881SOL    HW2 1263   2.255   3.355   1.004
 1882SOL     OW 1264   3.322   3.367   1.339
 1882SOL    HW1 1265   3.346   3.461   1.365
 1882SOL    HW2 1266   3.306   3.313   1.421
 1883SOL     OW 1267   2.300   2.254   1.499
 1883SOL    HW1 1268   2.382   2.198   1.508
 1883SOL    HW2 1269   2.219   2.196   1.503
 1886SOL     OW 1270   2.989   3.203   1.690
 1886SOL    HW1 1271   3.036   3.203   1.778
 1886SOL    HW2 1272   2.941   3.116   1.679
 1888SOL     OW 1273   2.102   2.953   0.886
 1888SOL    HW1 1274   2.116   2.869   0.938
 1888SOL    HW2 1275   2.047   3.017   0.941
 1889SOL     OW 1276   2.482   3.648   1.439
 1889SOL    HW1 1277   2.390   3.631   1.474
 1889SOL    HW2 1278   2.510   3.740   1.465
 1891SOL     OW 1279   3.456   1.976   1.480
 1891SOL    HW1 1280   3.438   2.043   1.408
 1891SOL    HW2 1281   3.453   2.022   1.569
 1896SOL     OW 1282   1.975   2.599   1.597
 1896SOL    HW1 1283   2.063   2.586   1.642
 1896SOL    HW2 1284   1.962   2.696   1.575
 1898SOL     OW 1285   3.155   3.090   1.423
 1898SOL    HW1 1286   3.192   3.017   1.365
 1898SOL    HW2 1287   3.207   3.095   1.508
 1900SOL     OW 1288   2.059   2.838   1.264
 1900SOL    HW1 1289   2.148   2.793   1.250
 1900SOL    HW2 1290   1.986   2.773   1.245
 1902SOL     OW 1291   3.049   3.654   1.616
 1902SOL    HW1 1292   3.073   3.714   1.540
 1902SOL    HW2 1293   3.056   3.559   1.586
 1903SOL     OW 1294   2.179   2.113   1.801
 1903SOL    HW1 1295   2.250   2.184   1.807
 1903SOL    HW2 1296   2.091   2.152   1.829
 1907SOL     OW 1297   3.143   2.207   0.944
 1907SOL    HW1 1298   3.057   2.157   0.931
 1907SOL    HW2 1299   3.205   2.153   1.000
 1909SOL     OW 1300   2.669   2.467   1.465
 1909SOL    HW1 1301   2.622   2.464   1.554
 1909SOL    HW2 1302   2.618   2.412   1.399
 1910SOL     OW 1303   3.256   2.331   1.674
 1910SOL    HW1 1304   3.236   2.374   1.762
 1910SOL    HW2 1305   3.334   2.269   1.683
 1911SOL     OW 1306   2.835   2.752   1.572
 1911SOL    HW1 1307   2.881   2.668   1.543
 1911SOL    HW2 1308   2.779   2.786   1.497
 1912SOL     OW 1309   2.853   2.272   1.242
 1912SOL    HW1 1310   2.776   2.306   1.296
 1912SOL    HW2 1311   2.819   2.221   1.163
 1914SOL     OW 1312   1.938   2.673   0.789
 1914SOL    HW1 1313   2.037   2.661   0.798
 1914SOL    HW2 1314   1.914   2.768   0.810
 1915SOL     OW 1315   1.992   3.683   1.571
 1915SOL    HW1 1316   1.982   3.668   1.670
 1915SOL    HW2 1317   1.906   3.719   1.535
 1917SOL     OW 1318   3.581   2.447   1.831
 1917SOL    HW1 1319   3.555   2.536   1.795
 1917SOL    HW2 1320   3.579   2.379   1.758
 1919SOL     OW 1321   2.412   2.058   0.885
 1919SOL    HW1 1322   2.407   2.053   0.985
 1919SOL    HW2 1323   2.414   2.154   0.856
 1923SOL     OW 1324   3.089   3.412   1.506
 1923SOL    HW1 1325   3.095   3.335   1.570
 1923SOL    HW2 1326   3.037   3.386   1.426
 1926SOL     OW 1327   2.323   3.128   1.727
 1926SOL    HW1 1328   2.273   3.129   1.641
 1926SOL    HW2 1329   2.260   3.110   1.803
 1928SOL     OW 1330   2.064   2.147   1.498
 1928SOL    HW1 1331   1.984   2.207   1.485
 1928SOL    HW2 1332   2.054   2.098   1.584
 1932SOL     OW 1333   2.111   3.647   1.241
 1932SOL    HW1 1334   2.168   3.582   1.291
 1932SOL    HW2 1335   2.095   3.614   1.148
 1935SOL     OW 1336   3.409   2.084   1.729
 1935SOL    HW1 1337   3.404   2.121   1.821
 1935SOL    HW2 1338   3.337   2.015   1.717
 1936SOL     OW 1339   2.643   2.126   1.749
 1936SOL    HW1 1340   2.710   2.065   1.792
 1936SOL    HW2 1341   2.570   2.145   1.814
 1937SOL     OW 1342   2.750   3.376   1.195
 1937SOL    HW1 1343   2.727   3.351   1.101
 1937SOL    HW2 1344   2.811   3.307   1.234
 1938SOL     OW 1345   3.213   2.452   1.433
 1938SOL    HW1 1346   3.241   2.409   1.518
 1938SOL    HW2 1347   3.238   2.548   1.434
 1939SOL     OW 1348   2.665   3.264   0.924
 1939SOL    HW1 1349   2.755   3.278   0.882
 1939SOL    HW2 1350   2.594   3.266   0.853
 1940SOL     OW 1351   2.784   2.365   0.899
 1940SOL    HW1 1352   2.759   2.356   0.803
 1940SOL    HW2 1353   2.832   2.283   0.930
 1945SOL     OW 1354   2.938   2.545   1.464
 1945SOL    HW1 1355   2.858   2.484   1.467
 1945SOL    HW2 1356   3.019   2.492   1.440
 1947SOL     OW 1357   2.321   3.014   0.741
 1947SOL    HW1 1358   2.250   2.987   0.806
 1947SOL    HW2 1359   2.295   2.986   0.648
 1950SOL     OW 1360   1.940   2.418   1.386
 1950SOL    HW1 1361   2.032   2.417   1.345
 1950SOL    HW2 1362   1.934   2.492   1.453
 1951SOL     OW 1363   2.423   2.084   1.147
 1951SOL    HW1 1364   2.461   2.000   1.184
 1951SOL    HW2 1365   2.335   2.103   1.191
 1952SOL     OW 1366   2.728   2.316   0.642
 1952SOL    HW1 1367   2.696   2.388   0.580
 1952SOL    HW2 1368   2.752   2.235   0.589
 1953SOL     OW 1369   2.879   1.901   0.753
 1953SOL    HW1 1370   2.807   1.906   0.684
 1953SOL    HW2 1371   2.855   1.832   0.822
 1955SOL     OW 1372   3.328   2.452   0.992
 1955SOL    HW1 1373   3.298   2.357   0.999
 1955SOL    HW2 1374   3.401   2.468   1.058
 1961SOL     OW 1375   3.616   3.085   1.588
 1961SOL    HW1 1376   3.707   3.046   1.575
 1961SOL    HW2 1377   3.624   3.181   1.612
 1962SOL     OW 1378   2.926   3.209   1.340
 1962SOL    HW1 1379   2.846   3.186   1.395
 1962SOL    HW2 1380   3.009   3.183   1.389
 1963SOL     OW 1381   3.454   3.491   1.625
 1963SOL    HW1 1382   3.481   3.525   1.535
 1963SOL    HW2 1383   3.533   3.453   1.671
 1964SOL     OW 1384   2.973   3.057   1.100
 1964SOL    HW1 1385   2.933   3.101   1.181
 1964SOL    HW2 1386   2.932   3.094   1.017
 1966SOL     OW 1387   2.777   1.951   1.402
 1966SOL    HW1 1388   2.802   1.931   1.307
 1966SOL    HW2 1389   2.849   2.007   1.444
 1967SOL     OW 1390   2.842   2.978   1.719
 1967SOL    HW1 1391   2.743   2.984   1.729
 1967SOL    HW2 1392   2.865   2.898   1.663
 1969SOL     OW 1393   2.272   2.675   1.251
 1969SOL    HW1 1394   2.358   2.687   1.301
 1969SOL    HW2 1395   2.230   2.588   1.278
 1970SOL     OW 1396   3.136   2.248   1.262
 1970SOL    HW1 1397   3.157   2.322   1.326
 1970SOL    HW2 1398   3.047   2.265   1.219
 1971SOL     OW 1399   1.926   3.426   1.331
 1971SOL    HW1 1400   1.880   3.508   1.297
 1971SOL    HW2 1401   2.024   3.445   1.340
 1973SOL     OW 1402   2.428   2.399   0.865
 1973SOL    HW1 1403   2.440   2.465   0.791
 1973SOL    HW2 1404   2.474   2.433   0.948
 1975SOL     OW 1405   3.134   3.307   1.142
 1975SOL    HW1 1406   3.181   3.320   1.229
 1975SOL    HW2 1407   3.068   3.233   1.151
 1977SOL     OW 1408   2.216   3.372   1.329
 1977SOL    HW1 1409   2.195   3.328   1.242
 1977SOL    HW2 1410   2.313   3.398   1.332
 1978SOL     OW 1411   2.264   2.613   1.598
 1978SOL    HW1 1412   2.332   2.668   1.551
 1978SOL    HW2 1413   2.304   2.525   1.625
 1979SOL     OW 1414   3.449   2.641   1.670
 1979SOL    HW1 1415   3.357   2.679   1.665
 1979SOL    HW2 1416   3.509   2.688   1.605
 1980SOL     OW 1417   2.875   1.967   1.770
 1980SOL    HW1 1418   2.881   2.052   1.718
 1980SOL    HW2 1419   2.907   1.891   1.713
 1981SOL     OW 1420   2.366   1.912   1.740
 1981SOL    HW1 1421   2.324   1.855   1.670
 1981SOL    HW2 1422   2.300   1.981   1.772
 1982SOL     OW 1423   2.435   2.732   1.029
 1982SOL    HW1 1424   2.479   2.821   1.020
 1982SOL    HW2 1425   2.372   2.732   1.106
 1983SOL     OW 1426   3.222   2.724   1.045
 1983SOL    HW1 1427   3.147   2.724   0.979
 1983SOL    HW2 1428   3.259   2.632   1.054
 1985SOL     OW 1429   2.169   2.075   1.231
 1985SOL    HW1 1430   2.146   2.112   1.321
 1985SOL    HW2 1431   2.139   1.980   1.225
 1986SOL     OW 1432   1.899   3.172   1.282
 1986SOL    HW1 1433   1.952   3.123   1.350
 1986SOL    HW2 1434   1.921   3.270   1.287
 1987SOL     OW 1435   2.594   2.496   1.064
 1987SOL    HW1 1436   2.653   2.470   0.988
 1987SOL    HW2 1437   2.566   2.592   1.053
 1988SOL     OW 1438   3.590   2.797   1.854
 1988SOL    HW1 1439   3.544   2.790   1.765
 1988SOL    HW2 1440   3.528   2.841   1.920
 1989SOL     OW 1441   2.169   1.925   0.618
 1989SOL    HW1 1442   2.158   2.019   0.651
 1989SOL    HW2 1443   2.164   1.862   0.695
 1991SOL     OW 1444   2.885   2.628   0.966
 1991SOL    HW1 1445   2.900   2.649   1.062
 1991SOL    HW2 1446   2.855   2.533   0.957
 1992SOL     OW 1447   2.842   3.435   1.700
 1992SOL    HW1 1448   2.822   3.479   1.612
 1992SOL    HW2 1449   2.881   3.344   1.684
 1994SOL     OW 1450   2.212   2.760   1.804
 1994SOL    HW1 1451   2.288   2.804   1.852
 1994SOL    HW2 1452   2.247   2.713   1.722
 1998SOL     OW 1453   2.181   2.672   0.949
 1998SOL    HW1 1454   2.274   2.708   0.954
 1998SOL    HW2 1455   2.175   2.587   1.001
 1999SOL     OW 1456   2.201   2.371   1.006
 1999SOL    HW1 1457   2.149   2.288   0.989
 1999SOL    HW2 1458   2.278   2.376   0.942
 2000SOL     OW 1459   3.000   2.242   1.678
 2000SOL    HW1 1460   2.955   2.305   1.742
 2000SOL    HW2 1461   3.093   2.273   1.661
 2001SOL     OW 1462   3.022   2.069   1.477
 2001SOL    HW1 1463   3.022   2.133   1.554
 2001SOL    HW2 1464   3.050   2.117   1.394
 2005SOL     OW 1465   2.864   2.658   1.238
 2005SOL    HW1 1466   2.905   2.626   1.324
 2005SOL    HW2 1467   2.768   2.631   1.235
 2006SOL     OW 1468   1.902   2.406   1.114
 2006SOL    HW1 1469   1.987   2.373   1.073
 2006SOL    HW2 1470   1.915   2.421   1.212
 2007SOL     OW 1471   2.051   2.382   1.722
 2007SOL    HW1 1472   2.110   2.342   1.652
 2007SOL    HW2 1473   1.993   2.453   1.681
 2008SOL     OW 1474   3.231   2.812   1.660
 2008SOL    HW1 1475   3.270   2.901   1.680
 2008SOL    HW2 1476   3.241   2.792   1.563
 2010SOL     OW 1477   3.519   2.466   1.206
 2010SOL    HW1 1478   3.481   2.397   1.268
 2010SOL    HW2 1479   3.601   2.430   1.162
 2011SOL     OW 1480   2.114   3.426   1.744
 2011SOL    HW1 1481   2.084   3.483   1.820
 2011SOL    HW2 1482   2.107   3.329   1.770
 2012SOL     OW 1483   2.533   2.326   1.269
 2012SOL    HW1 1484   2.499   2.237   1.239
 2012SOL    HW2 1485   2.559   2.380   1.189
 2013SOL     OW 1486   2.792   3.540   1.465
 2013SOL    HW1 1487   2.768   3.522   1.370
 2013SOL    HW2 1488   2.822   3.634   1.475
 2015SOL     OW 1489   2.021   2.999   1.466
 2015SOL    HW1 1490   2.043   2.938   1.542
 2015SOL    HW2 1491   2.031   2.950   1.380
 2016SOL     OW 1492   3.209   2.921   1.234
 2016SOL    HW1 1493   3.233   2.858   1.160
 2016SOL    HW2 1494   3.119   2.961   1.216
 2020SOL     OW 1495   1.945   3.120   1.022
 2020SOL    HW1 1496   1.940   3.119   1.122
 2020SOL    HW2 1497   1.862   3.079   0.984
 2021SOL     OW 1498   2.550   3.524   1.716
 2021SOL    HW1 1499   2.494   3.605   1.725
 2021SOL    HW2 1500   2.602   3.528   1.630
 2025SOL     OW 1501   1.992   3.656   1.851
 2025SOL    HW1 1502   1.951   3.582   1.904
 2025SOL    HW2 1503   2.056   3.707   1.909
 2027SOL     OW 1504   2.692   3.135   1.422
 2027SOL    HW1 1505   2.687   3.168   1.517
 2027SOL    HW2 1506   2.606   3.154   1.376
 2031SOL     OW 1507   2.125   2.188   0.720
 2031SOL    HW1 1508   2.046   2.239   0.686
 2031SOL    HW2 1509   2.116   2.173   0.818
 2033SOL     OW 1510   2.684   2.864   1.372
 2033SOL    HW1 1511   2.724   2.863   1.280
 2033SOL    HW2 1512   2.694   2.956   1.412
 2036SOL     OW 1513   2.234   3.150   1.490
 2036SOL    HW1 1514   2.221   3.243   1.456
 2036SOL    HW2 1515   2.150   3.098   1.477
 2037SOL     OW 1516   3.476   3.154   1.289
 2037SOL    HW1 1517   3.536   3.157   1.369
 2037SOL    HW2 1518   3.401   3.218   1.302
 2039SOL     OW 1519   2.876   2.098   0.971
 2039SOL    HW1 1520   2.868   2.062   0.878
 2039SOL    HW2 1521   2.874   2.022   1.036
 2041SOL     OW 1522   3.571   2.247   1.381
 2041SOL    HW1 1523   3.644   2.316   1.385
 2041SOL    HW2 1524   3.599   2.172   1.322
 2043SOL     OW 1525   1.967   2.875   1.726
 2043SOL    HW1 1526   1.890   2.842   1.780
 2043SOL    HW2 1527   2.052   2.845   1.768
 2044SOL     OW 1528   2.534   2.065   1.489
 2044SOL    HW1 1529   2.624   2.049   1.449
 2044SOL    HW2 1530   2.542   2.070   1.588
 2045SOL     OW 1531   3.302   2.718   1.398
 2045SOL    HW1 1532   3.245   2.770   1.335
 2045SOL    HW2 1533   3.398   2.730   1.374
 2048SOL     OW 1534   2.475   2.704   1.431
 2048SOL    HW1 1535   2.531   2.785   1.414
 2048SOL    HW2 1536   2.534   2.624   1.434
 2050SOL     OW 1537   2.578   2.427   1.708
 2050SOL    HW1 1538   2.597   2.492   1.782
 2050SOL    HW2 1539   2.638   2.347   1.717
 2051SOL     OW 1540   3.312   3.082   1.633
 2051SOL    HW1 1541   3.303   3.072   1.732
 2051SOL    HW2 1542   3.408   3.075   1.607
 2052SOL     OW 1543   2.252   3.603   1.560
 2052SOL    HW1 1544   2.161   3.644   1.558
 2052SOL    HW2 1545   2.245   3.509   1.592
 2053SOL     OW 1546   3.536   2.745   1.254
 2053SOL    HW1 1547   3.509   2.656   1.217
 2053SOL    HW2 1548   3.537   2.813   1.181
 2055SOL     OW 1549   2.456   2.607   0.652
 2055SOL    HW1 1550   2.506   2.692   0.633
 2055SOL    HW2 1551   2.368   2.609   0.604
 2056SOL     OW 1552   3.639   2.204   1.642
 2056SOL    HW1 1553   3.622   2.235   1.548
 2056SOL    HW2 1554   3.555   2.167   1.680
 2057SOL     OW 1555   3.592   2.796   1.517
 2057SOL    HW1 1556   3.630   2.887   1.532
 2057SOL    HW2 1557   3.584   2.779   1.418
 2060SOL     OW 1558   2.721   2.818   0.861
 2060SOL    HW1 1559   2.775   2.749   0.909
 2060SOL    HW2 1560   2.689   2.887   0.927
 2063SOL     OW 1561   2.083   3.176   1.844
 2063SOL    HW1 1562   2.018   3.103   1.823
 2063SOL    HW2 1563   2.087   3.190   1.942
 2065SOL     OW 1564   2.534   3.253   1.624
 2065SOL    HW1 1565   2.456   3.203   1.662
 2065SOL    HW2 1566   2.531   3.348   1.655
 2066SOL     OW 1567   3.686   2.054   1.227
 2066SOL    HW1 1568   3.682   1.964   1.271
 2066SOL    HW2 1569   3.689   2.043   1.128
 2069SOL     OW 1570   2.179   2.409   1.280
 2069SOL    HW1 1571   2.217   2.350   1.352
 2069SOL    HW2 1572   2.219   2.383   1.192
 2071SOL     OW 1573   3.286   2.076   1.112
 2071SOL    HW1 1574   3.338   2.011   1.167
 2071SOL    HW2 1575   3.237   2.139   1.173
 2072SOL     OW 1576   2.863   1.896   1.154
 2072SOL    HW1 1577   2.800   1.824   1.123
 2072SOL    HW2 1578   2.956   1.860   1.154
 2074SOL     OW 1579   2.480   3.429   1.284
 2074SOL    HW1 1580   2.475   3.511   1.341
 2074SOL    HW2 1581   2.569   3.426   1.239
 2080SOL     OW 1582   2.092   2.490   1.975
 2080SOL    HW1 1583   1.999   2.488   2.012
 2080SOL    HW2 1584   2.093   2.451   1.883
 2081SOL     OW 1585   2.087   2.137   2.858
 2081SOL    HW1 1586   2.122   2.120   2.950
 2081SOL    HW2 1587   1.999   2.092   2.846
 2082SOL     OW 1588   1.881   2.230   2.509
 2082SOL    HW1 1589   1.799   2.273   2.548
 2082SOL    HW2 1590   1.853   2.157   2.446
 2083SOL     OW 1591   2.431   3.137   3.027
 2083SOL    HW1 1592   2.338   3.130   2.990
 2083SOL    HW2 1593   2.442   3.226   3.071
 2084SOL     OW 1594   3.417   3.373   2.565
 2084SOL    HW1 1595   3.360   3.357   2.646
 2084SOL    HW2 1596   3.358   3.383   2.485
 2085SOL     OW 1597   2.997   2.565   2.579
 2085SOL    HW1 1598   3.054   2.643   2.554
 2085SOL    HW2 1599   2.937   2.591   2.655
 2086SOL     OW 1600   3.617   2.469   2.093
 2086SOL    HW1 1601   3.605   2.456   1.994
 2086SOL    HW2 1602   3.587   2.388   2.142
 2087SOL     OW 1603   2.630   3.006   2.885
 2087SOL    HW1 1604   2.552   3.023   2.945
 2087SOL    HW2 1605   2.664   3.093   2.849
 2088SOL     OW 1606   2.712   2.660   3.685
 2088SOL    HW1 1607   2.708   2.736   3.750
 2088SOL    HW2 1608   2.734   2.696   3.594
 2089SOL     OW 1609   2.547   2.874   2.527
 2089SOL    HW1 1610   2.616   2.858   2.597
 2089SOL    HW2 1611   2.474   2.931   2.565
 2090SOL     OW 1612   2.548   3.023   3.665
 2090SOL    HW1 1613   2.608   3.102   3.679
 2090SOL    HW2 1614   2.462   3.054   3.624
 2091SOL     OW 1615   2.197   3.297   2.923
 2091SOL    HW1 1616   2.119   3.266   2.870
 2091SOL    HW2 1617   2.255   3.355   2.866
 2092SOL     OW 1618   3.322   3.367   3.201
 2092SOL    HW1 1619   3.346   3.461   3.227
 2092SOL    HW2 1620   3.306   3.313   3.283
 2093SOL     OW 1621   2.300   2.254   3.361
 2093SOL    HW1 1622   2.382   2.198   3.370
 2093SOL    HW2 1623   2.219   2.196   3.365
 2094SOL     OW 1624   3.465   2.309   2.599
 2094SOL    HW1 1625   3.391   2.355   2.549
 2094SOL    HW2 1626   3.516   2.377   2.652
 2095SOL     OW 1627   2.093   3.575   2.345
 2095SOL    HW1 1628   2.127   3.652   2.399
 2095SOL    HW2 1629   2.137   3.575   2.255
 2096SOL     OW 1630   2.989   3.203   3.552
 2096SOL    HW1 1631   3.036   3.203   3.640
 2096SOL    HW2 1632   2.941   3.116   3.541
 2097SOL     OW 1633   2.092   3.296   2.400
 2097SOL    HW1 1634   2.066   3.392   2.400
 2097SOL    HW2 1635   2.021   3.242   2.445
 2098SOL     OW 1636   2.102   2.953   2.748
 2098SOL    HW1 1637   2.116   2.869   2.800
 2098SOL    HW2 1638   2.047   3.017   2.803
 2099SOL     OW 1639   2.482   3.648   3.301
 2099SOL    HW1 1640   2.390   3.631   3.336
 2099SOL    HW2 1641   2.510   3.740   3.327
 2100SOL     OW 1642   2.468   2.826   1.985
 2100SOL    HW1 1643   2.475   2.910   1.931
 2100SOL    HW2 1644   2.514   2.839   2.073
 2101SOL     OW 1645   3.456   1.976   3.342
 2101SOL    HW1 1646   3.438   2.043   3.270
 2101SOL    HW2 1647   3.453   2.022   3.431
 2102SOL     OW 1648   1.984   2.505   2.425
 2102SOL    HW1 1649   1.939   2.417   2.442
 2102SOL    HW2 1650   1.983   2.559   2.509
 2104SOL     OW 1651   1.889   3.458   1.979
 2104SOL    HW1 1652   1.870   3.362   2.000
 2104SOL    HW2 1653   1.856   3.516   2.054
 2105SOL     OW 1654   3.551   2.784   2.474
 2105SOL    HW1 1655   3.646   2.755   2.482
 2105SOL    HW2 1656   3.543   2.849   2.399
 2106SOL     OW 1657   3.503   2.970   2.294
 2106SOL    HW1 1658   3.589   2.972   2.242
 2106SOL    HW2 1659   3.517   3.017   2.382
 2107SOL     OW 1660   1.975   2.599   3.459
 2107SOL    HW1 1661   2.063   2.586   3.504
 2107SOL    HW2 1662   1.962   2.696   3.437
 2108SOL     OW 1663   2.475   3.227   2.588
 2108SOL    HW1 1664   2.426   3.140   2.597
 2108SOL    HW2 1665   2.452   3.270   2.501
 2109SOL     OW 1666   3.155   3.090   3.285
 2109SOL    HW1 1667   3.192   3.017   3.227
 2109SOL    HW2 1668   3.207   3.095   3.370
 2110SOL     OW 1669   2.671   1.866   2.364
 2110SOL    HW1 1670   2.711   1.957   2.355
 2110SOL    HW2 1671   2.571   1.874   2.370
 2111SOL     OW 1672   2.059   2.838   3.126
 2111SOL    HW1 1673   2.148   2.793   3.112
 2111SOL    HW2 1674   1.986   2.773   3.107
 2112SOL     OW 1675   3.387   2.861   2.052
 2112SOL    HW1 1676   3.324   2.785   2.065
 2112SOL    HW2 1677   3.435   2.879   2.138
 2114SOL     OW 1678   2.179   2.113   3.663
 2114SOL    HW1 1679   2.250   2.184   3.669
 2114SOL    HW2 1680   2.091   2.152   3.691
 2115SOL     OW 1681   3.328   3.279   2.815
 2115SOL    HW1 1682   3.269   3.285   2.895
 2115SOL    HW2 1683   3.313   3.191   2.769
 2116SOL     OW 1684   3.529   3.576   2.434
 2116SOL    HW1 1685   3.488   3.553   2.346
 2116SOL    HW2 1686   3.511   3.502   2.499
 2117SOL     OW 1687   3.143   2.207   2.806
 2117SOL    HW1 1688   3.057   2.157   2.793
 2117SOL    HW2 1689   3.205   2.153   2.862
 2118SOL     OW 1690   3.438   3.524   2.169
 2118SOL    HW1 1691   3.527   3.570   2.172
 2118SOL    HW2 1692   3.417   3.500   2.074
 2119SOL     OW 1693   2.669   2.467   3.327
 2119SOL    HW1 1694   2.622   2.464   3.416
 2119SOL    HW2 1695   2.618   2.412   3.261
 2120SOL     OW 1696   3.256   2.331   3.536
 2120SOL    HW1 1697   3.236   2.374   3.624
 2120SOL    HW2 1698   3.334   2.269   3.545
 2121SOL     OW 1699   2.835   2.752   3.434
 2121SOL    HW1 1700   2.881   2.668   3.405
 2121SOL    HW2 1701   2.779   2.786   3.359
 2122SOL     OW 1702   2.853   2.272   3.104
 2122SOL    HW1 1703   2.776   2.306   3.158
 2122SOL    HW2 1704   2.819   2.221   3.025
 2123SOL     OW 1705   2.903   2.563   2.291
 2123SOL    HW1 1706   2.929   2.559   2.387
 2123SOL    HW2 1707   2.818   2.512   2.277
 2124SOL     OW 1708   1.938   2.673   2.651
 2124SOL    HW1 1709   2.037   2.661   2.660
 2124SOL    HW2 1710   1.914   2.768   2.672
 2125SOL     OW 1711   1.992   3.683   3.433
 2125SOL    HW1 1712   1.982   3.668   3.532
 2125SOL    HW2 1713   1.906   3.719   3.397
 2126SOL     OW 1714   2.727   2.210   2.057
 2126SOL    HW1 1715   2.786   2.273   2.008
 2126SOL    HW2 1716   2.746   2.116   2.028
 2128SOL     OW 1717   3.224   3.006   2.407
 2128SOL    HW1 1718   3.307   2.977   2.359
 2128SOL    HW2 1719   3.175   3.073   2.351
 2129SOL     OW 1720   2.412   2.058   2.747
 2129SOL    HW1 1721   2.407   2.053   2.847
 2129SOL    HW2 1722   2.414   2.154   2.718
 2130SOL     OW 1723   2.870   3.318   2.339
 2130SOL    HW1 1724   2.824   3.390   2.287
 2130SOL    HW2 1725   2.866   3.338   2.437
 2131SOL     OW 1726   2.213   3.663   2.715
 2131SOL    HW1 1727   2.263   3.577   2.721
 2131SOL    HW2 1728   2.278   3.740   2.712
 2132SOL     OW 1729   3.657   2.928   2.735
 2132SOL    HW1 1730   3.595   2.913   2.659
 2132SOL    HW2 1731   3.605   2.939   2.820
 2133SOL     OW 1732   3.089   3.412   3.368
 2133SOL    HW1 1733   3.095   3.335   3.432
 2133SOL    HW2 1734   3.037   3.386   3.288
 2134SOL     OW 1735   2.183   2.805   2.104
 2134SOL    HW1 1736   2.265   2.844   2.062
 2134SOL    HW2 1737   2.156   2.723   2.055
 2135SOL     OW 1738   3.320   2.597   2.590
 2135SOL    HW1 1739   3.315   2.532   2.665
 2135SOL    HW2 1740   3.400   2.656   2.603
 2136SOL     OW 1741   2.323   3.128   3.589
 2136SOL    HW1 1742   2.273   3.129   3.503
 2136SOL    HW2 1743   2.260   3.110   3.665
 2137SOL     OW 1744   2.973   3.638   2.099
 2137SOL    HW1 1745   2.913   3.576   2.149
 2137SOL    HW2 1746   3.004   3.594   2.014
 2138SOL     OW 1747   2.064   2.147   3.360
 2138SOL    HW1 1748   1.984   2.207   3.347
 2138SOL    HW2 1749   2.054   2.098   3.446
 2139SOL     OW 1750   3.494   3.239   1.943
 2139SOL    HW1 1751   3.462   3.333   1.933
 2139SOL    HW2 1752   3.418   3.176   1.931
 2140SOL     OW 1753   2.326   3.605   2.185
 2140SOL    HW1 1754   2.359   3.644   2.271
 2140SOL    HW2 1755   2.402   3.598   2.120
 2141SOL     OW 1756   3.262   1.969   2.288
 2141SOL    HW1 1757   3.238   1.932   2.198
 2141SOL    HW2 1758   3.361   1.985   2.292
 2142SOL     OW 1759   2.111   3.647   3.103
 2142SOL    HW1 1760   2.168   3.582   3.153
 2142SOL    HW2 1761   2.095   3.614   3.010
 2143SOL     OW 1762   2.802   3.560   2.766
 2143SOL    HW1 1763   2.882   3.503   2.787
 2143SOL    HW2 1764   2.753   3.520   2.689
 2144SOL     OW 1765   3.409   2.084   3.591
 2144SOL    HW1 1766   3.404   2.121   3.683
 2144SOL    HW2 1767   3.337   2.015   3.579
 2145SOL     OW 1768   2.476   1.984   1.979
 2145SOL    HW1 1769   2.574   1.962   1.986
 2145SOL    HW2 1770   2.445   1.967   1.886
 2146SOL     OW 1771   2.643   2.126   3.611
 2146SOL    HW1 1772   2.710   2.065   3.654
 2146SOL    HW2 1773   2.570   2.145   3.676
 2147SOL     OW 1774   2.750   3.376   3.057
 2147SOL    HW1 1775   2.727   3.351   2.963
 2147SOL    HW2 1776   2.811   3.307   3.096
 2148SOL     OW 1777   3.213   2.452   3.295
 2148SOL    HW1 1778   3.241   2.409   3.380
 2148SOL    HW2 1779   3.238   2.548   3.296
 2149SOL     OW 1780   2.665   3.264   2.786
 2149SOL    HW1 1781   2.755   3.278   2.744
 2149SOL    HW2 1782   2.594   3.266   2.715
 2150SOL     OW 1783   2.784   2.365   2.761
 2150SOL    HW1 1784   2.759   2.356   2.665
 2150SOL    HW2 1785   2.832   2.283   2.792
 2151SOL     OW 1786   3.296   3.050   1.903
 2151SOL    HW1 1787   3.328   2.974   1.960
 2151SOL    HW2 1788   3.204   3.077   1.933
 2152SOL     OW 1789   2.159   1.897   2.033
 2152SOL    HW1 1790   2.208   1.981   2.012
 2152SOL    HW2 1791   2.221   1.832   2.078
 2153SOL     OW 1792   2.797   2.098   2.342
 2153SOL    HW1 1793   2.749   2.139   2.264
 2153SOL    HW2 1794   2.896   2.096   2.323
 2154SOL     OW 1795   2.938   2.545   3.326
 2154SOL    HW1 1796   2.858   2.484   3.329
 2154SOL    HW2 1797   3.019   2.492   3.302
 2155SOL     OW 1798   3.089   3.432   2.655
 2155SOL    HW1 1799   3.110   3.506   2.590
 2155SOL    HW2 1800   3.157   3.432   2.728
 2156SOL     OW 1801   2.321   3.014   2.603
 2156SOL    HW1 1802   2.250   2.987   2.668
 2156SOL    HW2 1803   2.295   2.986   2.510
 2157SOL     OW 1804   3.133   3.659   2.453
 2157SOL    HW1 1805   3.177   3.723   2.389
 2157SOL    HW2 1806   3.083   3.711   2.523
 2158SOL     OW 1807   2.894   2.411   1.878
 2158SOL    HW1 1808   2.853   2.493   1.839
 2158SOL    HW2 1809   2.958   2.437   1.951
 2159SOL     OW 1810   1.940   2.418   3.248
 2159SOL    HW1 1811   2.032   2.417   3.207
 2159SOL    HW2 1812   1.934   2.492   3.315
 2160SOL     OW 1813   2.423   2.084   3.009
 2160SOL    HW1 1814   2.461   2.000   3.046
 2160SOL    HW2 1815   2.335   2.103   3.053
 2161SOL     OW 1816   2.728   2.316   2.504
 2161SOL    HW1 1817   2.696   2.388   2.442
 2161SOL    HW2 1818   2.752   2.235   2.451
 2162SOL     OW 1819   2.879   1.901   2.615
 2162SOL    HW1 1820   2.807   1.906   2.546
 2162SOL    HW2 1821   2.855   1.832   2.684
 2163SOL     OW 1822   3.291   3.035   2.729
 2163SOL    HW1 1823   3.236   2.951   2.722
 2163SOL    HW2 1824   3.317   3.064   2.637
 2164SOL     OW 1825   3.328   2.452   2.854
 2164SOL    HW1 1826   3.298   2.357   2.861
 2164SOL    HW2 1827   3.401   2.468   2.920
 2165SOL     OW 1828   3.719   2.695   2.239
 2165SOL    HW1 1829   3.761   2.631   2.303
 2165SOL    HW2 1830   3.681   2.644   2.161
 2166SOL     OW 1831   2.350   3.247   2.036
 2166SOL    HW1 1832   2.263   3.232   2.083
 2166SOL    HW2 1833   2.333   3.273   1.941
 2167SOL     OW 1834   3.526   3.142   2.519
 2167SOL    HW1 1835   3.625   3.150   2.533
 2167SOL    HW2 1836   3.481   3.226   2.550
 2168SOL     OW 1837   3.252   2.437   1.940
 2168SOL    HW1 1838   3.198   2.416   2.021
 2168SOL    HW2 1839   3.343   2.396   1.949
 2170SOL     OW 1840   2.926   3.209   3.202
 2170SOL    HW1 1841   2.846   3.186   3.257
 2170SOL    HW2 1842   3.009   3.183   3.251
 2172SOL     OW 1843   2.973   3.057   2.962
 2172SOL    HW1 1844   2.933   3.101   3.043
 2172SOL    HW2 1845   2.932   3.094   2.879
 2173SOL     OW 1846   3.500   2.961   2.941
 2173SOL    HW1 1847   3.505   3.042   3.000
 2173SOL    HW2 1848   3.414   2.963   2.890
 2174SOL     OW 1849   2.777   1.951   3.264
 2174SOL    HW1 1850   2.802   1.931   3.169
 2174SOL    HW2 1851   2.849   2.007   3.306
 2175SOL     OW 1852   2.842   2.978   3.581
 2175SOL    HW1 1853   2.743   2.984   3.591
 2175SOL    HW2 1854   2.865   2.898   3.525
 2176SOL     OW 1855   2.567   2.912   2.230
 2176SOL    HW1 1856   2.553   2.919   2.329
 2176SOL    HW2 1857   2.651   2.861   2.212
 2177SOL     OW 1858   2.272   2.675   3.113
 2177SOL    HW1 1859   2.358   2.687   3.163
 2177SOL    HW2 1860   2.230   2.588   3.140
 2178SOL     OW 1861   3.136   2.248   3.124
 2178SOL    HW1 1862   3.157   2.322   3.188
 2178SOL    HW2 1863   3.047   2.265   3.081
 2179SOL     OW 1864   1.926   3.426   3.193
 2179SOL    HW1 1865   1.880   3.508   3.159
 2179SOL    HW2 1866   2.024   3.445   3.202
 2180SOL     OW 1867   2.229   2.962   2.363
 2180SOL    HW1 1868   2.222   3.045   2.307
 2180SOL    HW2 1869   2.233   2.882   2.303
 2181SOL     OW 1870   2.428   2.399   2.727
 2181SOL    HW1 1871   2.440   2.465   2.653
 2181SOL    HW2 1872   2.474   2.433   2.810
 2182SOL     OW 1873   3.114   3.210   2.250
 2182SOL    HW1 1874   3.164   3.287   2.290
 2182SOL    HW2 1875   3.019   3.212   2.282
 2183SOL     OW 1876   3.134   3.307   3.004
 2183SOL    HW1 1877   3.181   3.320   3.091
 2183SOL    HW2 1878   3.068   3.233   3.013
 2184SOL     OW 1879   3.444   2.501   2.334
 2184SOL    HW1 1880   3.413   2.562   2.407
 2184SOL    HW2 1881   3.494   2.553   2.265
 2185SOL     OW 1882   2.216   3.372   3.191
 2185SOL    HW1 1883   2.195   3.328   3.104
 2185SOL    HW2 1884   2.313   3.398   3.194
 2186SOL     OW 1885   2.264   2.613   3.460
 2186SOL    HW1 1886   2.332   2.668   3.413
 2186SOL    HW2 1887   2.304   2.525   3.487
 2187SOL     OW 1888   3.449   2.641   3.532
 2187SOL    HW1 1889   3.357   2.679   3.527
 2187SOL    HW2 1890   3.509   2.688   3.467
 2188SOL     OW 1891   2.875   1.967   3.632
 2188SOL    HW1 1892   2.881   2.052   3.580
 2188SOL    HW2 1893   2.907   1.891   3.575
 2189SOL     OW 1894   2.366   1.912   3.602
 2189SOL    HW1 1895   2.324   1.855   3.532
 2189SOL    HW2 1896   2.300   1.981   3.634
 2190SOL     OW 1897   2.435   2.732   2.891
 2190SOL    HW1 1898   2.479   2.821   2.882
 2190SOL    HW2 1899   2.372   2.732   2.968
 2191SOL     OW 1900   3.222   2.724   2.907
 2191SOL    HW1 1901   3.147   2.724   2.841
 2191SOL    HW2 1902   3.259   2.632   2.916
 2192SOL     OW 1903   3.071   2.387   2.137
 2192SOL    HW1 1904   3.084   2.303   2.191
 2192SOL    HW2 1905   3.042   2.461   2.197
 2193SOL     OW 1906   2.169   2.075   3.093
 2193SOL    HW1 1907   2.146   2.112   3.183
 2193SOL    HW2 1908   2.139   1.980   3.087
 2194SOL     OW 1909   1.899   3.172   3.144
 2194SOL    HW1 1910   1.952   3.123   3.212
 2194SOL    HW2 1911   1.921   3.270   3.149
 2195SOL     OW 1912   2.594   2.496   2.926
 2195SOL    HW1 1913   2.653   2.470   2.850
 2195SOL    HW2 1914   2.566   2.592   2.915
 2197SOL     OW 1915   2.169   1.925   2.480
 2197SOL    HW1 1916   2.158   2.019   2.513
 2197SOL    HW2 1917   2.164   1.862   2.557
 2198SOL     OW 1918   3.484   2.229   2.236
 2198SOL    HW1 1919   3.486   2.153   2.300
 2198SOL    HW2 1920   3.436   2.306   2.276
 2199SOL     OW 1921   2.885   2.628   2.828
 2199SOL    HW1 1922   2.900   2.649   2.924
 2199SOL    HW2 1923   2.855   2.533   2.819
 2200SOL     OW 1924   2.842   3.435   3.562
 2200SOL    HW1 1925   2.822   3.479   3.474
 2200SOL    HW2 1926   2.881   3.344   3.546
 2202SOL     OW 1927   2.212   2.760   3.666
 2202SOL    HW1 1928   2.288   2.804   3.714
 2202SOL    HW2 1929   2.247   2.713   3.584
 2203SOL     OW 1930   3.402   2.136   1.987
 2203SOL    HW1 1931   3.341   2.061   2.010
 2203SOL    HW2 1932   3.424   2.188   2.070
 2204SOL     OW 1933   3.165   2.700   1.904
 2204SOL    HW1 1934   3.199   2.607   1.919
 2204SOL    HW2 1935   3.183   2.727   1.809
 2205SOL     OW 1936   2.930   3.195   2.711
 2205SOL    HW1 1937   2.937   3.111   2.656
 2205SOL    HW2 1938   2.992   3.264   2.675
 2206SOL     OW 1939   2.181   2.672   2.811
 2206SOL    HW1 1940   2.274   2.708   2.816
 2206SOL    HW2 1941   2.175   2.587   2.863
 2207SOL     OW 1942   2.201   2.371   2.868
 2207SOL    HW1 1943   2.149   2.288   2.851
 2207SOL    HW2 1944   2.278   2.376   2.804
 2208SOL     OW 1945   3.000   2.242   3.540
 2208SOL    HW1 1946   2.955   2.305   3.604
 2208SOL    HW2 1947   3.093   2.273   3.523
 2209SOL     OW 1948   3.022   2.069   3.339
 2209SOL    HW1 1949   3.022   2.133   3.416
 2209SOL    HW2 1950   3.050   2.117   3.256
 2210SOL     OW 1951   1.870   3.188   2.062
 2210SOL    HW1 1952   1.777   3.209   2.031
 2210SOL    HW2 1953   1.880   3.089   2.075
 2211SOL     OW 1954   1.950   3.663   2.789
 2211SOL    HW1 1955   1.908   3.577   2.762
 2211SOL    HW2 1956   2.044   3.666   2.755
 2212SOL     OW 1957   2.366   3.430   2.772
 2212SOL    HW1 1958   2.432   3.504   2.781
 2212SOL    HW2 1959   2.410   3.351   2.730
 2213SOL     OW 1960   2.864   2.658   3.100
 2213SOL    HW1 1961   2.905   2.626   3.186
 2213SOL    HW2 1962   2.768   2.631   3.097
 2214SOL     OW 1963   1.902   2.406   2.976
 2214SOL    HW1 1964   1.987   2.373   2.935
 2214SOL    HW2 1965   1.915   2.421   3.074
 2215SOL     OW 1966   2.051   2.382   3.584
 2215SOL    HW1 1967   2.110   2.342   3.514
 2215SOL    HW2 1968   1.993   2.453   3.543
 2216SOL     OW 1969   3.231   2.812   3.522
 2216SOL    HW1 1970   3.270   2.901   3.542
 2216SOL    HW2 1971   3.241   2.792   3.425
 2217SOL     OW 1972   3.519   2.466   3.068
 2217SOL    HW1 1973   3.481   2.397   3.130
 2217SOL    HW2 1974   3.601   2.430   3.024
 2218SOL     OW 1975   2.114   3.426   3.606
 2218SOL    HW1 1976   2.084   3.483   3.682
 2218SOL    HW2 1977   2.107   3.329   3.632
 2219SOL     OW 1978   2.533   2.326   3.131
 2219SOL    HW1 1979   2.499   2.237   3.101
 2219SOL    HW2 1980   2.559   2.380   3.051
 2220SOL     OW 1981   2.792   3.540   3.327
 2220SOL    HW1 1982   2.768   3.522   3.232
 2220SOL    HW2 1983   2.822   3.634   3.337
 2221SOL     OW 1984   2.335   2.362   2.053
 2221SOL    HW1 1985   2.396   2.442   2.057
 2221SOL    HW2 1986   2.240   2.393   2.060
 2222SOL     OW 1987   2.021   2.999   3.328
 2222SOL    HW1 1988   2.043   2.938   3.404
 2222SOL    HW2 1989   2.031   2.950   3.242
 2223SOL     OW 1990   3.209   2.921   3.096
 2223SOL    HW1 1991   3.233   2.858   3.022
 2223SOL    HW2 1992   3.119   2.961   3.078
 2224SOL     OW 1993   3.164   2.717   2.171
 2224SOL    HW1 1994   3.078   2.686   2.213
 2224SOL    HW2 1995   3.160   2.703   2.072
 2226SOL     OW 1996   3.114   3.593   2.990
 2226SOL    HW1 1997   3.198   3.598   2.936
 2226SOL    HW2 1998   3.091   3.497   3.008
 2227SOL     OW 1999   1.945   3.120   2.884
 2227SOL    HW1 2000   1.940   3.119   2.984
 2227SOL    HW2 2001   1.862   3.079   2.846
 2228SOL     OW 2002   2.550   3.524   3.578
 2228SOL    HW1 2003   2.494   3.605   3.587
 2228SOL    HW2 2004   2.602   3.528   3.492
 2229SOL     OW 2005   3.588   1.997   2.385
 2229SOL    HW1 2006   3.661   1.980   2.318
 2229SOL    HW2 2007   3.557   1.910   2.423
 2230SOL     OW 2008   3.250   3.435   2.339
 2230SOL    HW1 2009   3.317   3.447   2.265
 2230SOL    HW2 2010   3.210   3.524   2.362
 2232SOL     OW 2011   3.142   2.789   2.534
 2232SOL    HW1 2012   3.202   2.708   2.536
 2232SOL    HW2 2013   3.182   2.858   2.474
 2233SOL     OW 2014   2.692   3.135   3.284
 2233SOL    HW1 2015   2.687   3.168   3.379
 2233SOL    HW2 2016   2.606   3.154   3.238
 2234SOL     OW 2017   2.534   3.478   2.016
 2234SOL    HW1 2018   2.543   3.488   1.917
 2234SOL    HW2 2019   2.494   3.389   2.037
 2236SOL     OW 2020   3.703   2.037   2.825
 2236SOL    HW1 2021   3.742   1.952   2.789
 2236SOL    HW2 2022   3.605   2.039   2.806
 2237SOL     OW 2023   3.056   3.474   1.893
 2237SOL    HW1 2024   3.062   3.381   1.930
 2237SOL    HW2 2025   2.997   3.474   1.813
 2238SOL     OW 2026   2.684   2.864   3.234
 2238SOL    HW1 2027   2.724   2.863   3.142
 2238SOL    HW2 2028   2.694   2.956   3.274
 2239SOL     OW 2029   2.778   2.772   2.153
 2239SOL    HW1 2030   2.841   2.810   2.085
 2239SOL    HW2 2031   2.818   2.689   2.192
 2240SOL     OW 2032   3.366   3.469   1.906
 2240SOL    HW1 2033   3.274   3.506   1.913
 2240SOL    HW2 2034   3.404   3.489   1.816
 2241SOL     OW 2035   2.234   3.150   3.352
 2241SOL    HW1 2036   2.221   3.243   3.318
 2241SOL    HW2 2037   2.150   3.098   3.339
 2242SOL     OW 2038   3.476   3.154   3.151
 2242SOL    HW1 2039   3.536   3.157   3.231
 2242SOL    HW2 2040   3.401   3.218   3.164
 2243SOL     OW 2041   2.901   2.960   2.558
 2243SOL    HW1 2042   2.831   2.913   2.612
 2243SOL    HW2 2043   2.960   2.892   2.515
 2244SOL     OW 2044   2.876   2.098   2.833
 2244SOL    HW1 2045   2.868   2.062   2.740
 2244SOL    HW2 2046   2.874   2.022   2.898
 2245SOL     OW 2047   2.452   3.349   2.353
 2245SOL    HW1 2048   2.494   3.291   2.283
 2245SOL    HW2 2049   2.408   3.428   2.309
 2246SOL     OW 2050   3.571   2.247   3.243
 2246SOL    HW1 2051   3.644   2.316   3.247
 2246SOL    HW2 2052   3.599   2.172   3.184
 2247SOL     OW 2053   2.117   3.210   2.152
 2247SOL    HW1 2054   2.021   3.211   2.125
 2247SOL    HW2 2055   2.129   3.263   2.236
 2248SOL     OW 2056   1.967   2.875   3.588
 2248SOL    HW1 2057   1.890   2.842   3.642
 2248SOL    HW2 2058   2.052   2.845   3.630
 2249SOL     OW 2059   2.534   2.065   3.351
 2249SOL    HW1 2060   2.624   2.049   3.311
 2249SOL    HW2 2061   2.542   2.070   3.450
 2250SOL     OW 2062   1.937   2.207   1.895
 2250SOL    HW1 2063   1.845   2.179   1.866
 2250SOL    HW2 2064   1.968   2.284   1.839
 2251SOL     OW 2065   3.302   2.718   3.260
 2251SOL    HW1 2066   3.245   2.770   3.197
 2251SOL    HW2 2067   3.398   2.730   3.236
 2252SOL     OW 2068   1.934   2.028   2.180
 2252SOL    HW1 2069   1.917   2.111   2.126
 2252SOL    HW2 2070   2.024   1.991   2.158
 2253SOL     OW 2071   3.045   3.197   1.981
 2253SOL    HW1 2072   2.946   3.186   1.983
 2253SOL    HW2 2073   3.079   3.212   2.074
 2254SOL     OW 2074   2.475   2.704   3.293
 2254SOL    HW1 2075   2.531   2.785   3.276
 2254SOL    HW2 2076   2.534   2.624   3.296
 2255SOL     OW 2077   3.355   3.629   2.821
 2255SOL    HW1 2078   3.388   3.693   2.752
 2255SOL    HW2 2079   3.421   3.623   2.896
 2256SOL     OW 2080   2.578   2.427   3.570
 2256SOL    HW1 2081   2.597   2.492   3.644
 2256SOL    HW2 2082   2.638   2.347   3.579
 2257SOL     OW 2083   3.312   3.082   3.495
 2257SOL    HW1 2084   3.303   3.072   3.594
 2257SOL    HW2 2085   3.408   3.075   3.469
 2258SOL     OW 2086   2.252   3.603   3.422
 2258SOL    HW1 2087   2.161   3.644   3.420
 2258SOL    HW2 2088   2.245   3.509   3.454
 2259SOL     OW 2089   3.536   2.745   3.116
 2259SOL    HW1 2090   3.509   2.656   3.079
 2259SOL    HW2 2091   3.537   2.813   3.043
 2260SOL     OW 2092   3.087   2.187   2.311
 2260SOL    HW1 2093   3.152   2.113   2.300
 2260SOL    HW2 2094   3.107   2.237   2.395
 2261SOL     OW 2095   3.639   2.204   3.504
 2261SOL    HW1 2096   3.622   2.235   3.410
 2261SOL    HW2 2097   3.555   2.167   3.542
 2262SOL     OW 2098   3.592   2.796   3.379
 2262SOL    HW1 2099   3.630   2.887   3.394
 2262SOL    HW2 2100   3.584   2.779   3.280
 2263SOL     OW 2101   2.721   3.236   1.878
 2263SOL    HW1 2102   2.675   3.251   1.966
 2263SOL    HW2 2103   2.765   3.321   1.848
 2264SOL     OW 2104   2.523   3.652   2.815
 2264SOL    HW1 2105   2.477   3.740   2.802
 2264SOL    HW2 2106   2.622   3.664   2.808
 2265SOL     OW 2107   2.721   2.818   2.723
 2265SOL    HW1 2108   2.775   2.749   2.771
 2265SOL    HW2 2109   2.689   2.887   2.789
 2266SOL     OW 2110   2.945   2.846   1.949
 2266SOL    HW1 2111   2.922   2.899   1.867
 2266SOL    HW2 2112   3.026   2.790   1.930
 2267SOL     OW 2113   3.723   3.431   2.713
 2267SOL    HW1 2114   3.652   3.419   2.643
 2267SOL    HW2 2115   3.724   3.352   2.773
 2268SOL     OW 2116   2.083   3.176   3.706
 2268SOL    HW1 2117   2.018   3.103   3.685
 2268SOL    HW2 2118   2.087   3.190   3.804
 2269SOL     OW 2119   1.941   3.102   2.515
 2269SOL    HW1 2120   1.940   3.055   2.603
 2269SOL    HW2 2121   2.023   3.074   2.464
 2270SOL     OW 2122   2.534   3.253   3.486
 2270SOL    HW1 2123   2.456   3.203   3.524
 2270SOL    HW2 2124   2.531   3.348   3.517
 2271SOL     OW 2125   3.686   2.054   3.089
 2271SOL    HW1 2126   3.682   1.964   3.133
 2271SOL    HW2 2127   3.689   2.043   2.990
 2272SOL     OW 2128   3.567   3.349   2.966
 2272SOL    HW1 2129   3.474   3.324   2.939
 2272SOL    HW2 2130   3.593   3.299   3.048
 2273SOL     OW 2131   2.179   2.409   3.142
 2273SOL    HW1 2132   2.217   2.350   3.214
 2273SOL    HW2 2133   2.219   2.383   3.054
 2274SOL     OW 2134   2.674   3.448   2.549
 2274SOL    HW1 2135   2.706   3.458   2.455
 2274SOL    HW2 2136   2.595   3.386   2.551
 2275SOL     OW 2137   3.286   2.076   2.974
 2275SOL    HW1 2138   3.338   2.011   3.029
 2275SOL    HW2 2139   3.237   2.139   3.035
 2276SOL     OW 2140   2.863   1.896   3.016
 2276SOL    HW1 2141   2.800   1.824   2.985
 2276SOL    HW2 2142   2.956   1.860   3.016
 2277SOL     OW 2143   2.632   3.192   2.163
 2277SOL    HW1 2144   2.586   3.105   2.180
 2277SOL    HW2 2145   2.723   3.189   2.204
 2278SOL     OW 2146   2.480   3.429   3.146
 2278SOL    HW1 2147   2.475   3.511   3.203
 2278SOL    HW2 2148   2.569   3.426   3.101
 2279SOL     OW 2149   3.214   1.914   2.030
 2279SOL    HW1 2150   3.249   1.873   1.946
 2279SOL    HW2 2151   3.124   1.876   2.050
 2280SOL     OW 2152   3.162   2.315   2.553
 2280SOL    HW1 2153   3.103   2.395   2.557
 2280SOL    HW2 2154   3.177   2.280   2.646
 2281SOL     OW 2155   3.455   2.083   2.744
 2281SOL    HW1 2156   3.371   2.082   2.798
 2281SOL    HW2 2157   3.457   2.166   2.688
 2282SOL     OW 2158   1.901   2.939   2.162
 2282SOL    HW1 2159   2.000   2.928   2.153
 2282SOL    HW2 2160   1.861   2.853   2.194
 2283SOL     OW 2161   2.737   3.508   2.199
 2283SOL    HW1 2162   2.660   3.473   2.145
 2283SOL    HW2 2163   2.705   3.579   2.261
 2284SOL     OW 2164   2.092   2.490   3.837
 2284SOL    HW1 2165   1.999   2.488   3.874
 2284SOL    HW2 2166   2.093   2.451   3.745
 2295SOL     OW 2167   2.468   2.826   3.847
 2295SOL    HW1 2168   2.475   2.910   3.793
 2295SOL    HW2 2169   2.514   2.839   3.935
 2306SOL     OW 2170   2.460   2.591   3.994
 2306SOL    HW1 2171   2.484   2.660   3.926
 2306SOL    HW2 2172   2.382   2.624   4.048
 2311SOL     OW 2173   2.727   2.210   3.919
 2311SOL    HW1 2174   2.786   2.273   3.870
 2311SOL    HW2 2175   2.746   2.116   3.890
 2317SOL     OW 2176   2.183   2.805   3.966
 2317SOL    HW1 2177   2.265   2.844   3.924
 2317SOL    HW2 2178   2.156   2.723   3.917
 2324SOL     OW 2179   2.476   1.984   3.841
 2324SOL    HW1 2180   2.574   1.962   3.848
 2324SOL    HW2 2181   2.445   1.967   3.748
 2327SOL     OW 2182   2.159   1.897   3.895
 2327SOL    HW1 2183   2.208   1.981   3.874
 2327SOL    HW2 2184   2.221   1.832   3.940
 2332SOL     OW 2185   2.894   2.411   3.740
 2332SOL    HW1 2186   2.853   2.493   3.701
 2332SOL    HW2 2187   2.958   2.437   3.813
 2336SOL     OW 2188   2.350   3.247   3.898
 2336SOL    HW1 2189   2.263   3.232   3.945
 2336SOL    HW2 2190   2.333   3.273   3.803
 2338SOL     OW 2191   3.252   2.437   3.802
 2338SOL    HW1 2192   3.198   2.416   3.883
 2338SOL    HW2 2193   3.343   2.396   3.811
 2339SOL     OW 2194   2.389   2.118   4.052
 2339SOL    HW1 2195   2.416   2.059   3.977
 2339SOL    HW2 2196   2.389   2.213   4.021
 2345SOL     OW 2197   3.071   2.387   3.999
 2345SOL    HW1 2198   3.084   2.303   4.053
 2345SOL    HW2 2199   3.042   2.461   4.059
 2350SOL     OW 2200   3.165   2.700   3.766
 2350SOL    HW1 2201   3.199   2.607   3.781
 2350SOL    HW2 2202   3.183   2.727   3.671
 2356SOL     OW 2203   2.677   2.434   4.049
 2356SOL    HW1 2204   2.684   2.345   4.003
 2356SOL    HW2 2205   2.583   2.468   4.041
 2357SOL     OW 2206   2.335   2.362   3.915
 2357SOL    HW1 2207   2.396   2.442   3.919
 2357SOL    HW2 2208   2.240   2.393   3.922
 2367SOL     OW 2209   2.778   2.772   4.015
 2367SOL    HW1 2210   2.841   2.810   3.947
 2367SOL    HW2 2211   2.818   2.689   4.054
 2372SOL     OW 2212   1.937   2.207   3.757
 2372SOL    HW1 2213   1.845   2.179   3.728
 2372SOL    HW2 2214   1.968   2.284   3.701
 2373SOL     OW 2215   1.934   2.028   4.042
 2373SOL    HW1 2216   1.917   2.111   3.988
 2373SOL    HW2 2217   2.024   1.991   4.020
 2378SOL     OW 2218   2.721   3.236   3.740
 2378SOL    HW1 2219   2.675   3.251   3.828
 2378SOL    HW2 2220   2.765   3.321   3.710
 2381SOL     OW 2221   2.945   2.846   3.811
 2381SOL    HW1 2222   2.922   2.899   3.729
 2381SOL    HW2 2223   3.026   2.790   3.792
 2406SOL     OW 2224   2.179   3.975   1.801
 2406SOL    HW1 2225   2.250   4.046   1.807
 2406SOL    HW2 2226   2.091   4.014   1.829
 2423SOL     OW 2227   2.643   3.988   1.749
 2423SOL    HW1 2228   2.710   3.927   1.792
 2423SOL    HW2 2229   2.570   4.007   1.814
 2440SOL     OW 2230   2.777   3.813   1.402
 2440SOL    HW1 2231   2.802   3.793   1.307
 2440SOL    HW2 2232   2.849   3.869   1.444
 2447SOL     OW 2233   2.875   3.829   1.770
 2447SOL    HW1 2234   2.881   3.914   1.718
 2447SOL    HW2 2235   2.907   3.753   1.713
 2448SOL     OW 2236   2.366   3.774   1.740
 2448SOL    HW1 2237   2.324   3.717   1.670
 2448SOL    HW2 2238   2.300   3.843   1.772
 2501SOL     OW 2239   2.087   3.999   2.858
 2501SOL    HW1 2240   2.122   3.982   2.950
 2501SOL    HW2 2241   1.999   3.954   2.846
 2512SOL     OW 2242   2.671   3.728   2.364
 2512SOL    HW1 2243   2.711   3.819   2.355
 2512SOL    HW2 2244   2.571   3.736   2.370
 2523SOL     OW 2245   2.727   4.072   2.057
 2523SOL    HW1 2246   2.786   4.135   2.008
 2523SOL    HW2 2247   2.746   3.978   2.028
 2525SOL     OW 2248   2.412   3.920   2.747
 2525SOL    HW1 2249   2.407   3.915   2.847
 2525SOL    HW2 2250   2.414   4.016   2.718
 2528SOL     OW 2251   3.262   3.831   2.288
 2528SOL    HW1 2252   3.238   3.794   2.198
 2528SOL    HW2 2253   3.361   3.847   2.292
 2531SOL     OW 2254   2.476   3.846   1.979
 2531SOL    HW1 2255   2.574   3.824   1.986
 2531SOL    HW2 2256   2.445   3.829   1.886
 2535SOL     OW 2257   2.401   3.788   2.374
 2535SOL    HW1 2258   2.320   3.789   2.432
 2535SOL    HW2 2259   2.404   3.871   2.319
 2536SOL     OW 2260   2.159   3.759   2.033
 2536SOL    HW1 2261   2.208   3.843   2.012
 2536SOL    HW2 2262   2.221   3.694   2.078
 2537SOL     OW 2263   2.797   3.960   2.342
 2537SOL    HW1 2264   2.749   4.001   2.264
 2537SOL    HW2 2265   2.896   3.958   2.323
 2541SOL     OW 2266   2.423   3.946   3.009
 2541SOL    HW1 2267   2.461   3.862   3.046
 2541SOL    HW2 2268   2.335   3.965   3.053
 2543SOL     OW 2269   2.879   3.763   2.615
 2543SOL    HW1 2270   2.807   3.768   2.546
 2543SOL    HW2 2271   2.855   3.694   2.684
 2547SOL     OW 2272   2.389   3.980   2.190
 2547SOL    HW1 2273   2.416   3.921   2.115
 2547SOL    HW2 2274   2.389   4.075   2.159
 2549SOL     OW 2275   2.777   3.813   3.264
 2549SOL    HW1 2276   2.802   3.793   3.169
 2549SOL    HW2 2277   2.849   3.869   3.306
 2561SOL     OW 2278   2.169   3.937   3.093
 2561SOL    HW1 2279   2.146   3.974   3.183
 2561SOL    HW2 2280   2.139   3.842   3.087
 2564SOL     OW 2281   2.169   3.787   2.480
 2564SOL    HW1 2282   2.158   3.881   2.513
 2564SOL    HW2 2283   2.164   3.724   2.557
 2586SOL     OW 2284   2.125   4.050   2.582
 2586SOL    HW1 2285   2.046   4.101   2.548
 2586SOL    HW2 2286   2.116   4.035   2.680
 2588SOL     OW 2287   2.876   3.960   2.833
 2588SOL    HW1 2288   2.868   3.924   2.740
 2588SOL    HW2 2289   2.874   3.884   2.898
 2594SOL     OW 2290   1.934   3.890   2.180
 2594SOL    HW1 2291   1.917   3.973   2.126
 2594SOL    HW2 2292   2.024   3.853   2.158
 2603SOL     OW 2293   2.290   4.148   2.382
 2603SOL    HW1 2294   2.320   4.076   2.320
 2603SOL    HW2 2295   2.251   4.108   2.465
 2606SOL     OW 2296   2.863   3.758   3.016
 2606SOL    HW1 2297   2.800   3.686   2.985
 2606SOL    HW2 2298   2.956   3.722   3.016
 2607SOL     OW 2299   3.214   3.776   2.030
 2607SOL    HW1 2300   3.249   3.735   1.946
 2607SOL    HW2 2301   3.124   3.738   2.050
 2691SOL     OW 2302   3.854   1.821   1.571
 2691SOL    HW1 2303   3.844   1.806   1.670
 2691SOL    HW2 2304   3.768   1.857   1.535
 2748SOL     OW 2305   3.854   1.794   1.851
 2748SOL    HW1 2306   3.813   1.720   1.904
 2748SOL    HW2 2307   3.918   1.845   1.909
 2788SOL     OW 2308   3.955   1.713   2.345
 2788SOL    HW1 2309   3.989   1.790   2.399
 2788SOL    HW2 2310   3.999   1.713   2.255
 2794SOL     OW 2311   3.751   1.596   1.979
 2794SOL    HW1 2312   3.732   1.500   2.000
 2794SOL    HW2 2313   3.718   1.654   2.054
 2847SOL     OW 2314   3.732   1.326   2.062
 2847SOL    HW1 2315   3.639   1.347   2.031
 2847SOL    HW2 2316   3.742   1.227   2.075
 2848SOL     OW 2317   3.812   1.801   2.789
 2848SOL    HW1 2318   3.770   1.715   2.762
 2848SOL    HW2 2319   3.906   1.804   2.755
 2967SOL     OW 2320   3.837   2.599   1.597
 2967SOL    HW1 2321   3.925   2.586   1.642
 2967SOL    HW2 2322   3.824   2.696   1.575
 2971SOL     OW 2323   4.041   2.113   1.801
 2971SOL    HW1 2324   4.112   2.184   1.807
 2971SOL    HW2 2325   3.953   2.152   1.829
 2994SOL     OW 2326   3.802   2.418   1.386
 2994SOL    HW1 2327   3.894   2.417   1.345
 2994SOL    HW2 2328   3.796   2.492   1.453
 3023SOL     OW 2329   3.913   2.382   1.722
 3023SOL    HW1 2330   3.972   2.342   1.652
 3023SOL    HW2 2331   3.855   2.453   1.681
 3041SOL     OW 2332   3.829   2.875   1.726
 3041SOL    HW1 2333   3.752   2.842   1.780
 3041SOL    HW2 2334   3.914   2.845   1.768
 3063SOL     OW 2335   3.954   2.490   1.975
 3063SOL    HW1 2336   3.861   2.488   2.012
 3063SOL    HW2 2337   3.955   2.451   1.883
 3064SOL     OW 2338   3.949   2.137   2.858
 3064SOL    HW1 2339   3.984   2.120   2.950
 3064SOL    HW2 2340   3.861   2.092   2.846
 3065SOL     OW 2341   3.743   2.230   2.509
 3065SOL    HW1 2342   3.661   2.273   2.548
 3065SOL    HW2 2343   3.715   2.157   2.446
 3075SOL     OW 2344   3.964   2.953   2.748
 3075SOL    HW1 2345   3.978   2.869   2.800
 3075SOL    HW2 2346   3.909   3.017   2.803
 3078SOL     OW 2347   3.846   2.505   2.425
 3078SOL    HW1 2348   3.801   2.417   2.442
 3078SOL    HW2 2349   3.845   2.559   2.509
 3088SOL     OW 2350   3.800   2.673   2.651
 3088SOL    HW1 2351   3.899   2.661   2.660
 3088SOL    HW2 2352   3.776   2.768   2.672
 3094SOL     OW 2353   4.045   2.805   2.104
 3094SOL    HW1 2354   4.127   2.844   2.062
 3094SOL    HW2 2355   4.018   2.723   2.055
 3099SOL     OW 2356   4.106   2.562   2.342
 3099SOL    HW1 2357   4.151   2.472   2.339
 3099SOL    HW2 2358   4.012   2.551   2.375
 3105SOL     OW 2359   4.021   1.897   2.033
 3105SOL    HW1 2360   4.070   1.981   2.012
 3105SOL    HW2 2361   4.083   1.832   2.078
 3108SOL     OW 2362   3.802   2.418   3.248
 3108SOL    HW1 2363   3.894   2.417   3.207
 3108SOL    HW2 2364   3.796   2.492   3.315
 3126SOL     OW 2365   4.031   1.925   2.480
 3126SOL    HW1 2366   4.020   2.019   2.513
 3126SOL    HW2 2367   4.026   1.862   2.557
 3130SOL     OW 2368   4.043   2.672   2.811
 3130SOL    HW1 2369   4.136   2.708   2.816
 3130SOL    HW2 2370   4.037   2.587   2.863
 3131SOL     OW 2371   4.063   2.371   2.868
 3131SOL    HW1 2372   4.011   2.288   2.851
 3131SOL    HW2 2373   4.140   2.376   2.804
 3132SOL     OW 2374   3.732   3.188   2.062
 3132SOL    HW1 2375   3.639   3.209   2.031
 3132SOL    HW2 2376   3.742   3.089   2.075
 3136SOL     OW 2377   3.764   2.406   2.976
 3136SOL    HW1 2378   3.849   2.373   2.935
 3136SOL    HW2 2379   3.777   2.421   3.074
 3143SOL     OW 2380   3.807   3.120   2.884
 3143SOL    HW1 2381   3.802   3.119   2.984
 3143SOL    HW2 2382   3.724   3.079   2.846
 3149SOL     OW 2383   3.987   2.188   2.582
 3149SOL    HW1 2384   3.908   2.239   2.548
 3149SOL    HW2 2385   3.978   2.173   2.680
 3156SOL     OW 2386   3.799   2.207   1.895
 3156SOL    HW1 2387   3.707   2.179   1.866
 3156SOL    HW2 2388   3.830   2.284   1.839
 3157SOL     OW 2389   3.796   2.028   2.180
 3157SOL    HW1 2390   3.779   2.111   2.126
 3157SOL    HW2 2391   3.886   1.991   2.158
 3166SOL     OW 2392   3.803   3.102   2.515
 3166SOL    HW1 2393   3.802   3.055   2.603
 3166SOL    HW2 2394   3.885   3.074   2.464
 3174SOL     OW 2395   3.763   2.939   2.162
 3174SOL    HW1 2396   3.862   2.928   2.153
 3174SOL    HW2 2397   3.723   2.853   2.194
   4.70645   4.70645   4.70645
