mobley_667278_GMX.gro created by acpype (v: 2023.10.27) on Tue May 19 12:56:57 2026
 2386
    1MOL     C1    1   2.365   2.613   2.490
    1MOL     C2    2   2.257   2.671   2.557
    1MOL     C3    3   2.687   2.578   2.456
    1MOL     C4    4   2.468   2.554   2.562
    1MOL     C5    5   2.578   2.496   2.487
    1MOL     C6    6   2.252   2.669   2.697
    1MOL     C7    7   2.795   2.527   2.384
    1MOL     C8    8   2.464   2.552   2.701
    1MOL     C9    9   2.577   2.363   2.445
    1MOL    C10   10   2.356   2.609   2.769
    1MOL    C11   11   2.794   2.394   2.343
    1MOL    C12   12   2.685   2.312   2.373
    1MOL    CL1   13   2.115   2.742   2.773
    1MOL    CL2   14   2.926   2.635   2.351
    1MOL    CL3   15   2.594   2.477   2.789
    1MOL    CL4   16   2.441   2.262   2.484
    1MOL    CL5   17   2.350   2.607   2.943
    1MOL    CL6   18   2.929   2.332   2.253
    1MOL    CL7   19   2.684   2.145   2.321
    1MOL     H1   20   2.366   2.616   2.381
    1MOL     H2   21   2.177   2.717   2.499
    1MOL     H3   22   2.687   2.682   2.489
   35SOL     OW   23   1.187   1.792   1.616
   35SOL    HW1   24   1.211   1.852   1.540
   35SOL    HW2   25   1.194   1.697   1.586
   95SOL     OW   26   1.754   1.223   1.588
   95SOL    HW1   27   1.845   1.184   1.575
   95SOL    HW2   28   1.762   1.319   1.612
   97SOL     OW   29   1.592   1.629   1.625
   97SOL    HW1   30   1.619   1.663   1.535
   97SOL    HW2   31   1.671   1.591   1.671
  127SOL     OW   32   1.859   1.518   1.605
  127SOL    HW1   33   1.873   1.545   1.510
  127SOL    HW2   34   1.942   1.540   1.658
  152SOL     OW   35   1.759   1.747   1.154
  152SOL    HW1   36   1.820   1.777   1.081
  152SOL    HW2   37   1.721   1.658   1.132
  163SOL     OW   38   1.650   1.720   1.394
  163SOL    HW1   39   1.703   1.730   1.310
  163SOL    HW2   40   1.623   1.810   1.428
  219SOL     OW   41   1.555   1.511   2.565
  219SOL    HW1   42   1.498   1.495   2.646
  219SOL    HW2   43   1.496   1.521   2.485
  227SOL     OW   44   1.460   1.505   3.201
  227SOL    HW1   45   1.484   1.599   3.227
  227SOL    HW2   46   1.444   1.451   3.283
  238SOL     OW   47   1.842   1.767   2.221
  238SOL    HW1   48   1.896   1.738   2.301
  238SOL    HW2   49   1.872   1.857   2.192
  241SOL     OW   50   1.641   1.108   2.294
  241SOL    HW1   51   1.727   1.110   2.242
  241SOL    HW2   52   1.655   1.155   2.382
  248SOL     OW   53   1.187   1.792   3.478
  248SOL    HW1   54   1.211   1.852   3.402
  248SOL    HW2   55   1.194   1.697   3.448
  250SOL     OW   56   1.466   1.417   2.815
  250SOL    HW1   57   1.407   1.423   2.895
  250SOL    HW2   58   1.451   1.329   2.769
  251SOL     OW   59   1.667   1.714   2.434
  251SOL    HW1   60   1.626   1.691   2.346
  251SOL    HW2   61   1.649   1.640   2.499
  254SOL     OW   62   1.576   1.662   2.169
  254SOL    HW1   63   1.665   1.708   2.172
  254SOL    HW2   64   1.555   1.638   2.074
  268SOL     OW   65   1.795   1.066   2.735
  268SOL    HW1   66   1.733   1.051   2.659
  268SOL    HW2   67   1.743   1.077   2.820
  273SOL     OW   68   1.111   1.776   2.099
  273SOL    HW1   69   1.051   1.714   2.149
  273SOL    HW2   70   1.142   1.732   2.014
  275SOL     OW   71   1.632   1.377   1.943
  275SOL    HW1   72   1.600   1.471   1.933
  275SOL    HW2   73   1.556   1.314   1.931
  293SOL     OW   74   1.227   1.570   2.655
  293SOL    HW1   75   1.248   1.644   2.590
  293SOL    HW2   76   1.295   1.570   2.728
  295SOL     OW   77   1.271   1.797   2.453
  295SOL    HW1   78   1.315   1.861   2.389
  295SOL    HW2   79   1.221   1.849   2.523
  301SOL     OW   80   1.429   1.173   2.729
  301SOL    HW1   81   1.374   1.089   2.722
  301SOL    HW2   82   1.455   1.202   2.637
  305SOL     OW   83   1.664   1.280   2.519
  305SOL    HW1   84   1.763   1.288   2.533
  305SOL    HW2   85   1.619   1.364   2.550
  308SOL     OW   86   1.754   1.223   3.450
  308SOL    HW1   87   1.845   1.184   3.437
  308SOL    HW2   88   1.762   1.319   3.474
  310SOL     OW   89   1.592   1.629   3.487
  310SOL    HW1   90   1.619   1.663   3.397
  310SOL    HW2   91   1.671   1.591   3.533
  312SOL     OW   92   1.638   1.099   2.941
  312SOL    HW1   93   1.643   1.180   3.000
  312SOL    HW2   94   1.552   1.101   2.890
  321SOL     OW   95   1.252   1.348   2.250
  321SOL    HW1   96   1.302   1.425   2.290
  321SOL    HW2   97   1.157   1.350   2.282
  322SOL     OW   98   1.272   1.445   3.004
  322SOL    HW1   99   1.319   1.458   3.091
  322SOL    HW2  100   1.206   1.371   3.013
  340SOL     OW  101   1.859   1.518   3.467
  340SOL    HW1  102   1.873   1.545   3.372
  340SOL    HW2  103   1.942   1.540   3.520
  365SOL     OW  104   1.759   1.747   3.016
  365SOL    HW1  105   1.820   1.777   2.943
  365SOL    HW2  106   1.721   1.658   2.994
  366SOL     OW  107   1.252   1.731   2.990
  366SOL    HW1  108   1.336   1.736   2.936
  366SOL    HW2  109   1.229   1.635   3.008
  370SOL     OW  110   1.388   1.573   2.339
  370SOL    HW1  111   1.455   1.585   2.265
  370SOL    HW2  112   1.348   1.662   2.362
  375SOL     OW  113   1.650   1.720   3.256
  375SOL    HW1  114   1.703   1.730   3.172
  375SOL    HW2  115   1.623   1.810   3.290
  378SOL     OW  116   1.194   1.612   1.893
  378SOL    HW1  117   1.200   1.519   1.930
  378SOL    HW2  118   1.135   1.612   1.813
  381SOL     OW  119   1.504   1.607   1.906
  381SOL    HW1  120   1.412   1.644   1.913
  381SOL    HW2  121   1.542   1.627   1.816
  383SOL     OW  122   1.614   1.292   3.151
  383SOL    HW1  123   1.674   1.295   3.231
  383SOL    HW2  124   1.539   1.356   3.164
  396SOL     OW  125   1.493   1.767   2.821
  396SOL    HW1  126   1.526   1.831   2.752
  396SOL    HW2  127   1.559   1.761   2.896
  409SOL     OW  128   1.861   1.569   2.713
  409SOL    HW1  129   1.790   1.557   2.643
  409SOL    HW2  130   1.862   1.490   2.773
  415SOL     OW  131   1.705   1.487   2.966
  415SOL    HW1  132   1.612   1.462   2.939
  415SOL    HW2  133   1.731   1.437   3.048
  596SOL     OW  134   1.127   3.203   1.690
  596SOL    HW1  135   1.174   3.203   1.778
  596SOL    HW2  136   1.079   3.116   1.679
  601SOL     OW  137   1.594   1.976   1.480
  601SOL    HW1  138   1.576   2.043   1.408
  601SOL    HW2  139   1.591   2.022   1.569
  609SOL     OW  140   1.293   3.090   1.423
  609SOL    HW1  141   1.330   3.017   1.365
  609SOL    HW2  142   1.345   3.095   1.508
  621SOL     OW  143   1.394   2.331   1.674
  621SOL    HW1  144   1.374   2.374   1.762
  621SOL    HW2  145   1.472   2.269   1.683
  628SOL     OW  146   1.719   2.447   1.831
  628SOL    HW1  147   1.693   2.536   1.795
  628SOL    HW2  148   1.717   2.379   1.758
  646SOL     OW  149   1.547   2.084   1.729
  646SOL    HW1  150   1.542   2.121   1.821
  646SOL    HW2  151   1.475   2.015   1.717
  650SOL     OW  152   1.351   2.452   1.433
  650SOL    HW1  153   1.379   2.409   1.518
  650SOL    HW2  154   1.376   2.548   1.434
  657SOL     OW  155   1.076   2.545   1.464
  657SOL    HW1  156   0.996   2.484   1.467
  657SOL    HW2  157   1.157   2.492   1.440
  673SOL     OW  158   1.754   3.085   1.588
  673SOL    HW1  159   1.845   3.046   1.575
  673SOL    HW2  160   1.762   3.181   1.612
  675SOL     OW  161   1.592   3.491   1.625
  675SOL    HW1  162   1.619   3.525   1.535
  675SOL    HW2  163   1.671   3.453   1.671
  677SOL     OW  164   1.638   2.961   1.079
  677SOL    HW1  165   1.643   3.042   1.138
  677SOL    HW2  166   1.552   2.963   1.028
  682SOL     OW  167   1.274   2.248   1.262
  682SOL    HW1  168   1.295   2.322   1.326
  682SOL    HW2  169   1.185   2.265   1.219
  691SOL     OW  170   1.587   2.641   1.670
  691SOL    HW1  171   1.495   2.679   1.665
  691SOL    HW2  172   1.647   2.688   1.605
  692SOL     OW  173   1.013   1.967   1.770
  692SOL    HW1  174   1.019   2.052   1.718
  692SOL    HW2  175   1.045   1.891   1.713
  700SOL     OW  176   1.728   2.797   1.854
  700SOL    HW1  177   1.682   2.790   1.765
  700SOL    HW2  178   1.666   2.841   1.920
  705SOL     OW  179   1.859   3.380   1.605
  705SOL    HW1  180   1.873   3.407   1.510
  705SOL    HW2  181   1.942   3.402   1.658
  712SOL     OW  182   1.138   2.242   1.678
  712SOL    HW1  183   1.093   2.305   1.742
  712SOL    HW2  184   1.231   2.273   1.661
  713SOL     OW  185   1.160   2.069   1.477
  713SOL    HW1  186   1.160   2.133   1.554
  713SOL    HW2  187   1.188   2.117   1.394
  720SOL     OW  188   1.369   2.812   1.660
  720SOL    HW1  189   1.408   2.901   1.680
  720SOL    HW2  190   1.379   2.792   1.563
  722SOL     OW  191   1.657   2.466   1.206
  722SOL    HW1  192   1.619   2.397   1.268
  722SOL    HW2  193   1.739   2.430   1.162
  728SOL     OW  194   1.347   2.921   1.234
  728SOL    HW1  195   1.371   2.858   1.160
  728SOL    HW2  196   1.257   2.961   1.216
  741SOL     OW  197   1.650   3.582   1.394
  741SOL    HW1  198   1.703   3.592   1.310
  741SOL    HW2  199   1.623   3.672   1.428
  742SOL     OW  200   1.841   2.037   0.963
  742SOL    HW1  201   1.880   1.952   0.927
  742SOL    HW2  202   1.743   2.039   0.944
  749SOL     OW  203   1.614   3.154   1.289
  749SOL    HW1  204   1.674   3.157   1.369
  749SOL    HW2  205   1.539   3.218   1.302
  753SOL     OW  206   1.709   2.247   1.381
  753SOL    HW1  207   1.782   2.316   1.385
  753SOL    HW2  208   1.737   2.172   1.322
  758SOL     OW  209   1.440   2.718   1.398
  758SOL    HW1  210   1.383   2.770   1.335
  758SOL    HW2  211   1.536   2.730   1.374
  764SOL     OW  212   1.450   3.082   1.633
  764SOL    HW1  213   1.441   3.072   1.732
  764SOL    HW2  214   1.546   3.075   1.607
  766SOL     OW  215   1.674   2.745   1.254
  766SOL    HW1  216   1.647   2.656   1.217
  766SOL    HW2  217   1.675   2.813   1.181
  769SOL     OW  218   1.777   2.204   1.642
  769SOL    HW1  219   1.760   2.235   1.548
  769SOL    HW2  220   1.693   2.167   1.680
  770SOL     OW  221   1.730   2.796   1.517
  770SOL    HW1  222   1.768   2.887   1.532
  770SOL    HW2  223   1.722   2.779   1.418
  779SOL     OW  224   1.824   2.054   1.227
  779SOL    HW1  225   1.820   1.964   1.271
  779SOL    HW2  226   1.827   2.043   1.128
  797SOL     OW  227   1.555   3.373   2.565
  797SOL    HW1  228   1.498   3.357   2.646
  797SOL    HW2  229   1.496   3.383   2.485
  798SOL     OW  230   1.135   2.565   2.579
  798SOL    HW1  231   1.192   2.643   2.554
  798SOL    HW2  232   1.075   2.591   2.655
  799SOL     OW  233   1.755   2.469   2.093
  799SOL    HW1  234   1.743   2.456   1.994
  799SOL    HW2  235   1.725   2.388   2.142
  805SOL     OW  236   1.460   3.367   3.201
  805SOL    HW1  237   1.484   3.461   3.227
  805SOL    HW2  238   1.444   3.313   3.283
  807SOL     OW  239   1.603   2.309   2.599
  807SOL    HW1  240   1.529   2.355   2.549
  807SOL    HW2  241   1.654   2.377   2.652
  814SOL     OW  242   1.594   1.976   3.342
  814SOL    HW1  243   1.576   2.043   3.270
  814SOL    HW2  244   1.591   2.022   3.431
  816SOL     OW  245   1.842   3.629   2.221
  816SOL    HW1  246   1.896   3.600   2.301
  816SOL    HW2  247   1.872   3.719   2.192
  818SOL     OW  248   1.689   2.784   2.474
  818SOL    HW1  249   1.784   2.755   2.482
  818SOL    HW2  250   1.681   2.849   2.399
  819SOL     OW  251   1.641   2.970   2.294
  819SOL    HW1  252   1.727   2.972   2.242
  819SOL    HW2  253   1.655   3.017   2.382
  822SOL     OW  254   1.293   3.090   3.285
  822SOL    HW1  255   1.330   3.017   3.227
  822SOL    HW2  256   1.345   3.095   3.370
  825SOL     OW  257   1.525   2.861   2.052
  825SOL    HW1  258   1.462   2.785   2.065
  825SOL    HW2  259   1.573   2.879   2.138
  828SOL     OW  260   1.466   3.279   2.815
  828SOL    HW1  261   1.407   3.285   2.895
  828SOL    HW2  262   1.451   3.191   2.769
  829SOL     OW  263   1.667   3.576   2.434
  829SOL    HW1  264   1.626   3.553   2.346
  829SOL    HW2  265   1.649   3.502   2.499
  831SOL     OW  266   1.281   2.207   2.806
  831SOL    HW1  267   1.195   2.157   2.793
  831SOL    HW2  268   1.343   2.153   2.862
  832SOL     OW  269   1.576   3.524   2.169
  832SOL    HW1  270   1.665   3.570   2.172
  832SOL    HW2  271   1.555   3.500   2.074
  834SOL     OW  272   1.394   2.331   3.536
  834SOL    HW1  273   1.374   2.374   3.624
  834SOL    HW2  274   1.472   2.269   3.545
  836SOL     OW  275   0.991   2.272   3.104
  836SOL    HW1  276   0.914   2.306   3.158
  836SOL    HW2  277   0.957   2.221   3.025
  837SOL     OW  278   1.041   2.563   2.291
  837SOL    HW1  279   1.067   2.559   2.387
  837SOL    HW2  280   0.956   2.512   2.277
  840SOL     OW  281   0.865   2.210   2.057
  840SOL    HW1  282   0.924   2.273   2.008
  840SOL    HW2  283   0.884   2.116   2.028
  841SOL     OW  284   1.719   2.447   3.693
  841SOL    HW1  285   1.693   2.536   3.657
  841SOL    HW2  286   1.717   2.379   3.620
  842SOL     OW  287   1.362   3.006   2.407
  842SOL    HW1  288   1.445   2.977   2.359
  842SOL    HW2  289   1.313   3.073   2.351
  844SOL     OW  290   1.008   3.318   2.339
  844SOL    HW1  291   0.962   3.390   2.287
  844SOL    HW2  292   1.004   3.338   2.437
  846SOL     OW  293   1.795   2.928   2.735
  846SOL    HW1  294   1.733   2.913   2.659
  846SOL    HW2  295   1.743   2.939   2.820
  847SOL     OW  296   1.227   3.412   3.368
  847SOL    HW1  297   1.233   3.335   3.432
  847SOL    HW2  298   1.175   3.386   3.288
  849SOL     OW  299   1.458   2.597   2.590
  849SOL    HW1  300   1.453   2.532   2.665
  849SOL    HW2  301   1.538   2.656   2.603
  853SOL     OW  302   1.632   3.239   1.943
  853SOL    HW1  303   1.600   3.333   1.933
  853SOL    HW2  304   1.556   3.176   1.931
  855SOL     OW  305   1.400   1.969   2.288
  855SOL    HW1  306   1.376   1.932   2.198
  855SOL    HW2  307   1.499   1.985   2.292
  859SOL     OW  308   1.547   2.084   3.591
  859SOL    HW1  309   1.542   2.121   3.683
  859SOL    HW2  310   1.475   2.015   3.579
  863SOL     OW  311   1.351   2.452   3.295
  863SOL    HW1  312   1.379   2.409   3.380
  863SOL    HW2  313   1.376   2.548   3.296
  865SOL     OW  314   0.922   2.365   2.761
  865SOL    HW1  315   0.897   2.356   2.665
  865SOL    HW2  316   0.970   2.283   2.792
  867SOL     OW  317   1.434   3.050   1.903
  867SOL    HW1  318   1.466   2.974   1.960
  867SOL    HW2  319   1.342   3.077   1.933
  869SOL     OW  320   0.935   2.098   2.342
  869SOL    HW1  321   0.887   2.139   2.264
  869SOL    HW2  322   1.034   2.096   2.323
  870SOL     OW  323   1.076   2.545   3.326
  870SOL    HW1  324   0.996   2.484   3.329
  870SOL    HW2  325   1.157   2.492   3.302
  871SOL     OW  326   1.227   3.432   2.655
  871SOL    HW1  327   1.248   3.506   2.590
  871SOL    HW2  328   1.295   3.432   2.728
  873SOL     OW  329   1.271   3.659   2.453
  873SOL    HW1  330   1.315   3.723   2.389
  873SOL    HW2  331   1.221   3.711   2.523
  874SOL     OW  332   1.032   2.411   1.878
  874SOL    HW1  333   0.991   2.493   1.839
  874SOL    HW2  334   1.096   2.437   1.951
  877SOL     OW  335   0.866   2.316   2.504
  877SOL    HW1  336   0.834   2.388   2.442
  877SOL    HW2  337   0.890   2.235   2.451
  878SOL     OW  338   1.017   1.901   2.615
  878SOL    HW1  339   0.945   1.906   2.546
  878SOL    HW2  340   0.993   1.832   2.684
  879SOL     OW  341   1.429   3.035   2.729
  879SOL    HW1  342   1.374   2.951   2.722
  879SOL    HW2  343   1.455   3.064   2.637
  880SOL     OW  344   1.466   2.452   2.854
  880SOL    HW1  345   1.436   2.357   2.861
  880SOL    HW2  346   1.539   2.468   2.920
  881SOL     OW  347   1.857   2.695   2.239
  881SOL    HW1  348   1.899   2.631   2.303
  881SOL    HW2  349   1.819   2.644   2.161
  883SOL     OW  350   1.664   3.142   2.519
  883SOL    HW1  351   1.763   3.150   2.533
  883SOL    HW2  352   1.619   3.226   2.550
  884SOL     OW  353   1.390   2.437   1.940
  884SOL    HW1  354   1.336   2.416   2.021
  884SOL    HW2  355   1.481   2.396   1.949
  886SOL     OW  356   1.754   3.085   3.450
  886SOL    HW1  357   1.845   3.046   3.437
  886SOL    HW2  358   1.762   3.181   3.474
  887SOL     OW  359   1.064   3.209   3.202
  887SOL    HW1  360   0.984   3.186   3.257
  887SOL    HW2  361   1.147   3.183   3.251
  888SOL     OW  362   1.592   3.491   3.487
  888SOL    HW1  363   1.619   3.525   3.397
  888SOL    HW2  364   1.671   3.453   3.533
  889SOL     OW  365   1.111   3.057   2.962
  889SOL    HW1  366   1.071   3.101   3.043
  889SOL    HW2  367   1.070   3.094   2.879
  890SOL     OW  368   1.638   2.961   2.941
  890SOL    HW1  369   1.643   3.042   3.000
  890SOL    HW2  370   1.552   2.963   2.890
  895SOL     OW  371   1.274   2.248   3.124
  895SOL    HW1  372   1.295   2.322   3.188
  895SOL    HW2  373   1.185   2.265   3.081
  899SOL     OW  374   1.252   3.210   2.250
  899SOL    HW1  375   1.302   3.287   2.290
  899SOL    HW2  376   1.157   3.212   2.282
  900SOL     OW  377   1.272   3.307   3.004
  900SOL    HW1  378   1.319   3.320   3.091
  900SOL    HW2  379   1.206   3.233   3.013
  901SOL     OW  380   1.582   2.501   2.334
  901SOL    HW1  381   1.551   2.562   2.407
  901SOL    HW2  382   1.632   2.553   2.265
  904SOL     OW  383   1.587   2.641   3.532
  904SOL    HW1  384   1.495   2.679   3.527
  904SOL    HW2  385   1.647   2.688   3.467
  908SOL     OW  386   1.360   2.724   2.907
  908SOL    HW1  387   1.285   2.724   2.841
  908SOL    HW2  388   1.397   2.632   2.916
  909SOL     OW  389   1.209   2.387   2.137
  909SOL    HW1  390   1.222   2.303   2.191
  909SOL    HW2  391   1.180   2.461   2.197
  913SOL     OW  392   1.728   2.797   3.716
  913SOL    HW1  393   1.682   2.790   3.627
  913SOL    HW2  394   1.666   2.841   3.782
  915SOL     OW  395   1.622   2.229   2.236
  915SOL    HW1  396   1.624   2.153   2.300
  915SOL    HW2  397   1.574   2.306   2.276
  916SOL     OW  398   1.023   2.628   2.828
  916SOL    HW1  399   1.038   2.649   2.924
  916SOL    HW2  400   0.993   2.533   2.819
  918SOL     OW  401   1.859   3.380   3.467
  918SOL    HW1  402   1.873   3.407   3.372
  918SOL    HW2  403   1.942   3.402   3.520
  920SOL     OW  404   1.540   2.136   1.987
  920SOL    HW1  405   1.479   2.061   2.010
  920SOL    HW2  406   1.562   2.188   2.070
  921SOL     OW  407   1.303   2.700   1.904
  921SOL    HW1  408   1.337   2.607   1.919
  921SOL    HW2  409   1.321   2.727   1.809
  922SOL     OW  410   1.068   3.195   2.711
  922SOL    HW1  411   1.075   3.111   2.656
  922SOL    HW2  412   1.130   3.264   2.675
  925SOL     OW  413   1.138   2.242   3.540
  925SOL    HW1  414   1.093   2.305   3.604
  925SOL    HW2  415   1.231   2.273   3.523
  926SOL     OW  416   1.160   2.069   3.339
  926SOL    HW1  417   1.160   2.133   3.416
  926SOL    HW2  418   1.188   2.117   3.256
  930SOL     OW  419   1.002   2.658   3.100
  930SOL    HW1  420   1.043   2.626   3.186
  930SOL    HW2  421   0.906   2.631   3.097
  933SOL     OW  422   1.369   2.812   3.522
  933SOL    HW1  423   1.408   2.901   3.542
  933SOL    HW2  424   1.379   2.792   3.425
  934SOL     OW  425   0.815   2.434   2.187
  934SOL    HW1  426   0.822   2.345   2.141
  934SOL    HW2  427   0.721   2.468   2.179
  935SOL     OW  428   1.657   2.466   3.068
  935SOL    HW1  429   1.619   2.397   3.130
  935SOL    HW2  430   1.739   2.430   3.024
  941SOL     OW  431   1.347   2.921   3.096
  941SOL    HW1  432   1.371   2.858   3.022
  941SOL    HW2  433   1.257   2.961   3.078
  942SOL     OW  434   1.302   2.717   2.171
  942SOL    HW1  435   1.216   2.686   2.213
  942SOL    HW2  436   1.298   2.703   2.072
  943SOL     OW  437   1.759   3.609   3.016
  943SOL    HW1  438   1.820   3.639   2.943
  943SOL    HW2  439   1.721   3.520   2.994
  944SOL     OW  440   1.252   3.593   2.990
  944SOL    HW1  441   1.336   3.598   2.936
  944SOL    HW2  442   1.229   3.497   3.008
  947SOL     OW  443   1.726   1.997   2.385
  947SOL    HW1  444   1.799   1.980   2.318
  947SOL    HW2  445   1.695   1.910   2.423
  948SOL     OW  446   1.388   3.435   2.339
  948SOL    HW1  447   1.455   3.447   2.265
  948SOL    HW2  448   1.348   3.524   2.362
  950SOL     OW  449   1.280   2.789   2.534
  950SOL    HW1  450   1.340   2.708   2.536
  950SOL    HW2  451   1.320   2.858   2.474
  953SOL     OW  452   1.650   3.582   3.256
  953SOL    HW1  453   1.703   3.592   3.172
  953SOL    HW2  454   1.623   3.672   3.290
  954SOL     OW  455   1.841   2.037   2.825
  954SOL    HW1  456   1.880   1.952   2.789
  954SOL    HW2  457   1.743   2.039   2.806
  956SOL     OW  458   1.194   3.474   1.893
  956SOL    HW1  459   1.200   3.381   1.930
  956SOL    HW2  460   1.135   3.474   1.813
  958SOL     OW  461   0.916   2.772   2.153
  958SOL    HW1  462   0.979   2.810   2.085
  958SOL    HW2  463   0.956   2.689   2.192
  959SOL     OW  464   1.504   3.469   1.906
  959SOL    HW1  465   1.412   3.506   1.913
  959SOL    HW2  466   1.542   3.489   1.816
  961SOL     OW  467   1.614   3.154   3.151
  961SOL    HW1  468   1.674   3.157   3.231
  961SOL    HW2  469   1.539   3.218   3.164
  962SOL     OW  470   1.039   2.960   2.558
  962SOL    HW1  471   0.969   2.913   2.612
  962SOL    HW2  472   1.098   2.892   2.515
  963SOL     OW  473   1.014   2.098   2.833
  963SOL    HW1  474   1.006   2.062   2.740
  963SOL    HW2  475   1.012   2.022   2.898
  965SOL     OW  476   1.709   2.247   3.243
  965SOL    HW1  477   1.782   2.316   3.247
  965SOL    HW2  478   1.737   2.172   3.184
  970SOL     OW  479   1.440   2.718   3.260
  970SOL    HW1  480   1.383   2.770   3.197
  970SOL    HW2  481   1.536   2.730   3.236
  972SOL     OW  482   1.183   3.197   1.981
  972SOL    HW1  483   1.084   3.186   1.983
  972SOL    HW2  484   1.217   3.212   2.074
  974SOL     OW  485   1.493   3.629   2.821
  974SOL    HW1  486   1.526   3.693   2.752
  974SOL    HW2  487   1.559   3.623   2.896
  976SOL     OW  488   1.450   3.082   3.495
  976SOL    HW1  489   1.441   3.072   3.594
  976SOL    HW2  490   1.546   3.075   3.469
  978SOL     OW  491   1.674   2.745   3.116
  978SOL    HW1  492   1.647   2.656   3.079
  978SOL    HW2  493   1.675   2.813   3.043
  979SOL     OW  494   1.225   2.187   2.311
  979SOL    HW1  495   1.290   2.113   2.300
  979SOL    HW2  496   1.245   2.237   2.395
  981SOL     OW  497   1.777   2.204   3.504
  981SOL    HW1  498   1.760   2.235   3.410
  981SOL    HW2  499   1.693   2.167   3.542
  982SOL     OW  500   1.730   2.796   3.379
  982SOL    HW1  501   1.768   2.887   3.394
  982SOL    HW2  502   1.722   2.779   3.280
  985SOL     OW  503   0.859   2.818   2.723
  985SOL    HW1  504   0.913   2.749   2.771
  985SOL    HW2  505   0.827   2.887   2.789
  986SOL     OW  506   1.083   2.846   1.949
  986SOL    HW1  507   1.060   2.899   1.867
  986SOL    HW2  508   1.164   2.790   1.930
  987SOL     OW  509   1.861   3.431   2.713
  987SOL    HW1  510   1.790   3.419   2.643
  987SOL    HW2  511   1.862   3.352   2.773
  991SOL     OW  512   1.824   2.054   3.089
  991SOL    HW1  513   1.820   1.964   3.133
  991SOL    HW2  514   1.827   2.043   2.990
  993SOL     OW  515   1.705   3.349   2.966
  993SOL    HW1  516   1.612   3.324   2.939
  993SOL    HW2  517   1.731   3.299   3.048
  996SOL     OW  518   1.424   2.076   2.974
  996SOL    HW1  519   1.476   2.011   3.029
  996SOL    HW2  520   1.375   2.139   3.035
  997SOL     OW  521   1.001   1.896   3.016
  997SOL    HW1  522   0.938   1.824   2.985
  997SOL    HW2  523   1.094   1.860   3.016
 1000SOL     OW  524   1.352   1.914   2.030
 1000SOL    HW1  525   1.387   1.873   1.946
 1000SOL    HW2  526   1.262   1.876   2.050
 1001SOL     OW  527   1.300   2.315   2.553
 1001SOL    HW1  528   1.241   2.395   2.557
 1001SOL    HW2  529   1.315   2.280   2.646
 1002SOL     OW  530   1.593   2.083   2.744
 1002SOL    HW1  531   1.509   2.082   2.798
 1002SOL    HW2  532   1.595   2.166   2.688
 1011SOL     OW  533   1.755   2.469   3.955
 1011SOL    HW1  534   1.743   2.456   3.856
 1011SOL    HW2  535   1.725   2.388   4.004
 1029SOL     OW  536   1.525   2.861   3.914
 1029SOL    HW1  537   1.462   2.785   3.927
 1029SOL    HW2  538   1.573   2.879   4.000
 1048SOL     OW  539   1.632   3.239   3.805
 1048SOL    HW1  540   1.600   3.333   3.795
 1048SOL    HW2  541   1.556   3.176   3.793
 1058SOL     OW  542   1.434   3.050   3.765
 1058SOL    HW1  543   1.466   2.974   3.822
 1058SOL    HW2  544   1.342   3.077   3.795
 1070SOL     OW  545   1.857   2.695   4.101
 1070SOL    HW1  546   1.899   2.631   4.165
 1070SOL    HW2  547   1.819   2.644   4.023
 1073SOL     OW  548   1.390   2.437   3.802
 1073SOL    HW1  549   1.336   2.416   3.883
 1073SOL    HW2  550   1.481   2.396   3.811
 1095SOL     OW  551   1.540   2.136   3.849
 1095SOL    HW1  552   1.479   2.061   3.872
 1095SOL    HW2  553   1.562   2.188   3.932
 1096SOL     OW  554   1.303   2.700   3.766
 1096SOL    HW1  555   1.337   2.607   3.781
 1096SOL    HW2  556   1.321   2.727   3.671
 1344SOL     OW  557   1.400   3.831   2.288
 1344SOL    HW1  558   1.376   3.794   2.198
 1344SOL    HW2  559   1.499   3.847   2.292
 1412SOL     OW  560   1.726   3.859   2.385
 1412SOL    HW1  561   1.799   3.842   2.318
 1412SOL    HW2  562   1.695   3.772   2.423
 1414SOL     OW  563   1.841   3.899   2.825
 1414SOL    HW1  564   1.880   3.814   2.789
 1414SOL    HW2  565   1.743   3.901   2.806
 1440SOL     OW  566   1.824   3.916   3.089
 1440SOL    HW1  567   1.820   3.826   3.133
 1440SOL    HW2  568   1.827   3.905   2.990
 1446SOL     OW  569   1.352   3.776   2.030
 1446SOL    HW1  570   1.387   3.735   1.946
 1446SOL    HW2  571   1.262   3.738   2.050
 1448SOL     OW  572   1.593   3.945   2.744
 1448SOL    HW1  573   1.509   3.944   2.798
 1448SOL    HW2  574   1.595   4.028   2.688
 1567SOL     OW  575   2.548   1.161   1.803
 1567SOL    HW1  576   2.608   1.240   1.817
 1567SOL    HW2  577   2.462   1.192   1.762
 1569SOL     OW  578   3.322   1.505   1.339
 1569SOL    HW1  579   3.346   1.599   1.365
 1569SOL    HW2  580   3.306   1.451   1.421
 1573SOL     OW  581   2.989   1.341   1.690
 1573SOL    HW1  582   3.036   1.341   1.778
 1573SOL    HW2  583   2.941   1.254   1.679
 1576SOL     OW  584   2.482   1.786   1.439
 1576SOL    HW1  585   2.390   1.769   1.474
 1576SOL    HW2  586   2.510   1.878   1.465
 1590SOL     OW  587   3.049   1.792   1.616
 1590SOL    HW1  588   3.073   1.852   1.540
 1590SOL    HW2  589   3.056   1.697   1.586
 1603SOL     OW  590   1.992   1.821   1.571
 1603SOL    HW1  591   1.982   1.806   1.670
 1603SOL    HW2  592   1.906   1.857   1.535
 1611SOL     OW  593   3.089   1.550   1.506
 1611SOL    HW1  594   3.095   1.473   1.570
 1611SOL    HW2  595   3.037   1.524   1.426
 1614SOL     OW  596   2.323   1.266   1.727
 1614SOL    HW1  597   2.273   1.267   1.641
 1614SOL    HW2  598   2.260   1.248   1.803
 1619SOL     OW  599   2.111   1.785   1.241
 1619SOL    HW1  600   2.168   1.720   1.291
 1619SOL    HW2  601   2.095   1.752   1.148
 1625SOL     OW  602   2.750   1.514   1.195
 1625SOL    HW1  603   2.727   1.489   1.101
 1625SOL    HW2  604   2.811   1.445   1.234
 1650SOL     OW  605   2.926   1.347   1.340
 1650SOL    HW1  606   2.846   1.324   1.395
 1650SOL    HW2  607   3.009   1.321   1.389
 1651SOL     OW  608   3.454   1.629   1.625
 1651SOL    HW1  609   3.481   1.663   1.535
 1651SOL    HW2  610   3.533   1.591   1.671
 1655SOL     OW  611   2.842   1.116   1.719
 1655SOL    HW1  612   2.743   1.122   1.729
 1655SOL    HW2  613   2.865   1.036   1.663
 1659SOL     OW  614   1.926   1.564   1.331
 1659SOL    HW1  615   1.880   1.646   1.297
 1659SOL    HW2  616   2.024   1.583   1.340
 1665SOL     OW  617   2.216   1.510   1.329
 1665SOL    HW1  618   2.195   1.466   1.242
 1665SOL    HW2  619   2.313   1.536   1.332
 1680SOL     OW  620   2.842   1.573   1.700
 1680SOL    HW1  621   2.822   1.617   1.612
 1680SOL    HW2  622   2.881   1.482   1.684
 1698SOL     OW  623   2.114   1.564   1.744
 1698SOL    HW1  624   2.084   1.621   1.820
 1698SOL    HW2  625   2.107   1.467   1.770
 1700SOL     OW  626   2.792   1.678   1.465
 1700SOL    HW1  627   2.768   1.660   1.370
 1700SOL    HW2  628   2.822   1.772   1.475
 1706SOL     OW  629   3.114   1.731   1.128
 1706SOL    HW1  630   3.198   1.736   1.074
 1706SOL    HW2  631   3.091   1.635   1.146
 1708SOL     OW  632   2.550   1.662   1.716
 1708SOL    HW1  633   2.494   1.743   1.725
 1708SOL    HW2  634   2.602   1.666   1.630
 1712SOL     OW  635   1.992   1.794   1.851
 1712SOL    HW1  636   1.951   1.720   1.904
 1712SOL    HW2  637   2.056   1.845   1.909
 1714SOL     OW  638   2.692   1.273   1.422
 1714SOL    HW1  639   2.687   1.306   1.517
 1714SOL    HW2  640   2.606   1.292   1.376
 1716SOL     OW  641   3.512   1.720   1.394
 1716SOL    HW1  642   3.565   1.730   1.310
 1716SOL    HW2  643   3.485   1.810   1.428
 1723SOL     OW  644   2.234   1.288   1.490
 1723SOL    HW1  645   2.221   1.381   1.456
 1723SOL    HW2  646   2.150   1.236   1.477
 1730SOL     OW  647   1.967   1.013   1.726
 1730SOL    HW1  648   1.890   0.980   1.780
 1730SOL    HW2  649   2.052   0.983   1.768
 1738SOL     OW  650   3.312   1.220   1.633
 1738SOL    HW1  651   3.303   1.210   1.732
 1738SOL    HW2  652   3.408   1.213   1.607
 1739SOL     OW  653   2.252   1.741   1.560
 1739SOL    HW1  654   2.161   1.782   1.558
 1739SOL    HW2  655   2.245   1.647   1.592
 1746SOL     OW  656   2.523   1.790   0.953
 1746SOL    HW1  657   2.477   1.878   0.940
 1746SOL    HW2  658   2.622   1.802   0.946
 1750SOL     OW  659   2.083   1.314   1.844
 1750SOL    HW1  660   2.018   1.241   1.823
 1750SOL    HW2  661   2.087   1.328   1.942
 1752SOL     OW  662   2.534   1.391   1.624
 1752SOL    HW1  663   2.456   1.341   1.662
 1752SOL    HW2  664   2.531   1.486   1.655
 1761SOL     OW  665   2.480   1.567   1.284
 1761SOL    HW1  666   2.475   1.649   1.341
 1761SOL    HW2  667   2.569   1.564   1.239
 1770SOL     OW  668   2.431   1.275   3.027
 1770SOL    HW1  669   2.338   1.268   2.990
 1770SOL    HW2  670   2.442   1.364   3.071
 1771SOL     OW  671   3.417   1.511   2.565
 1771SOL    HW1  672   3.360   1.495   2.646
 1771SOL    HW2  673   3.358   1.521   2.485
 1774SOL     OW  674   2.630   1.144   2.885
 1774SOL    HW1  675   2.552   1.161   2.945
 1774SOL    HW2  676   2.664   1.231   2.849
 1776SOL     OW  677   2.547   1.012   2.527
 1776SOL    HW1  678   2.616   0.996   2.597
 1776SOL    HW2  679   2.474   1.069   2.565
 1777SOL     OW  680   2.548   1.161   3.665
 1777SOL    HW1  681   2.608   1.240   3.679
 1777SOL    HW2  682   2.462   1.192   3.624
 1778SOL     OW  683   2.197   1.435   2.923
 1778SOL    HW1  684   2.119   1.404   2.870
 1778SOL    HW2  685   2.255   1.493   2.866
 1779SOL     OW  686   3.322   1.505   3.201
 1779SOL    HW1  687   3.346   1.599   3.227
 1779SOL    HW2  688   3.306   1.451   3.283
 1782SOL     OW  689   2.093   1.713   2.345
 1782SOL    HW1  690   2.127   1.790   2.399
 1782SOL    HW2  691   2.137   1.713   2.255
 1783SOL     OW  692   2.989   1.341   3.552
 1783SOL    HW1  693   3.036   1.341   3.640
 1783SOL    HW2  694   2.941   1.254   3.541
 1784SOL     OW  695   2.092   1.434   2.400
 1784SOL    HW1  696   2.066   1.530   2.400
 1784SOL    HW2  697   2.021   1.380   2.445
 1785SOL     OW  698   2.102   1.091   2.748
 1785SOL    HW1  699   2.116   1.007   2.800
 1785SOL    HW2  700   2.047   1.155   2.803
 1786SOL     OW  701   2.482   1.786   3.301
 1786SOL    HW1  702   2.390   1.769   3.336
 1786SOL    HW2  703   2.510   1.878   3.327
 1787SOL     OW  704   2.468   0.964   1.985
 1787SOL    HW1  705   2.475   1.048   1.931
 1787SOL    HW2  706   2.514   0.977   2.073
 1790SOL     OW  707   3.704   1.767   2.221
 1790SOL    HW1  708   3.758   1.738   2.301
 1790SOL    HW2  709   3.734   1.857   2.192
 1791SOL     OW  710   1.889   1.596   1.979
 1791SOL    HW1  711   1.870   1.500   2.000
 1791SOL    HW2  712   1.856   1.654   2.054
 1793SOL     OW  713   3.503   1.108   2.294
 1793SOL    HW1  714   3.589   1.110   2.242
 1793SOL    HW2  715   3.517   1.155   2.382
 1795SOL     OW  716   2.475   1.365   2.588
 1795SOL    HW1  717   2.426   1.278   2.597
 1795SOL    HW2  718   2.452   1.408   2.501
 1796SOL     OW  719   3.155   1.228   3.285
 1796SOL    HW1  720   3.192   1.155   3.227
 1796SOL    HW2  721   3.207   1.233   3.370
 1798SOL     OW  722   2.059   0.976   3.126
 1798SOL    HW1  723   2.148   0.931   3.112
 1798SOL    HW2  724   1.986   0.911   3.107
 1800SOL     OW  725   3.049   1.792   3.478
 1800SOL    HW1  726   3.073   1.852   3.402
 1800SOL    HW2  727   3.056   1.697   3.448
 1802SOL     OW  728   3.328   1.417   2.815
 1802SOL    HW1  729   3.269   1.423   2.895
 1802SOL    HW2  730   3.313   1.329   2.769
 1803SOL     OW  731   3.529   1.714   2.434
 1803SOL    HW1  732   3.488   1.691   2.346
 1803SOL    HW2  733   3.511   1.640   2.499
 1806SOL     OW  734   3.438   1.662   2.169
 1806SOL    HW1  735   3.527   1.708   2.172
 1806SOL    HW2  736   3.417   1.638   2.074
 1813SOL     OW  737   1.992   1.821   3.433
 1813SOL    HW1  738   1.982   1.806   3.532
 1813SOL    HW2  739   1.906   1.857   3.397
 1816SOL     OW  740   3.224   1.144   2.407
 1816SOL    HW1  741   3.307   1.115   2.359
 1816SOL    HW2  742   3.175   1.211   2.351
 1818SOL     OW  743   2.870   1.456   2.339
 1818SOL    HW1  744   2.824   1.528   2.287
 1818SOL    HW2  745   2.866   1.476   2.437
 1819SOL     OW  746   2.213   1.801   2.715
 1819SOL    HW1  747   2.263   1.715   2.721
 1819SOL    HW2  748   2.278   1.878   2.712
 1821SOL     OW  749   3.089   1.550   3.368
 1821SOL    HW1  750   3.095   1.473   3.432
 1821SOL    HW2  751   3.037   1.524   3.288
 1822SOL     OW  752   2.183   0.943   2.104
 1822SOL    HW1  753   2.265   0.982   2.062
 1822SOL    HW2  754   2.156   0.861   2.055
 1824SOL     OW  755   2.323   1.266   3.589
 1824SOL    HW1  756   2.273   1.267   3.503
 1824SOL    HW2  757   2.260   1.248   3.665
 1825SOL     OW  758   2.973   1.776   2.099
 1825SOL    HW1  759   2.913   1.714   2.149
 1825SOL    HW2  760   3.004   1.732   2.014
 1826SOL     OW  761   3.494   1.377   1.943
 1826SOL    HW1  762   3.462   1.471   1.933
 1826SOL    HW2  763   3.418   1.314   1.931
 1827SOL     OW  764   2.326   1.743   2.185
 1827SOL    HW1  765   2.359   1.782   2.271
 1827SOL    HW2  766   2.402   1.736   2.120
 1829SOL     OW  767   2.111   1.785   3.103
 1829SOL    HW1  768   2.168   1.720   3.153
 1829SOL    HW2  769   2.095   1.752   3.010
 1830SOL     OW  770   2.802   1.698   2.766
 1830SOL    HW1  771   2.882   1.641   2.787
 1830SOL    HW2  772   2.753   1.658   2.689
 1835SOL     OW  773   2.750   1.514   3.057
 1835SOL    HW1  774   2.727   1.489   2.963
 1835SOL    HW2  775   2.811   1.445   3.096
 1837SOL     OW  776   2.665   1.402   2.786
 1837SOL    HW1  777   2.755   1.416   2.744
 1837SOL    HW2  778   2.594   1.404   2.715
 1840SOL     OW  779   3.296   1.188   1.903
 1840SOL    HW1  780   3.328   1.112   1.960
 1840SOL    HW2  781   3.204   1.215   1.933
 1844SOL     OW  782   3.089   1.570   2.655
 1844SOL    HW1  783   3.110   1.644   2.590
 1844SOL    HW2  784   3.157   1.570   2.728
 1845SOL     OW  785   2.321   1.152   2.603
 1845SOL    HW1  786   2.250   1.125   2.668
 1845SOL    HW2  787   2.295   1.124   2.510
 1846SOL     OW  788   3.133   1.797   2.453
 1846SOL    HW1  789   3.177   1.861   2.389
 1846SOL    HW2  790   3.083   1.849   2.523
 1852SOL     OW  791   3.291   1.173   2.729
 1852SOL    HW1  792   3.236   1.089   2.722
 1852SOL    HW2  793   3.317   1.202   2.637
 1855SOL     OW  794   2.350   1.385   2.036
 1855SOL    HW1  795   2.263   1.370   2.083
 1855SOL    HW2  796   2.333   1.411   1.941
 1856SOL     OW  797   3.526   1.280   2.519
 1856SOL    HW1  798   3.625   1.288   2.533
 1856SOL    HW2  799   3.481   1.364   2.550
 1860SOL     OW  800   2.926   1.347   3.202
 1860SOL    HW1  801   2.846   1.324   3.257
 1860SOL    HW2  802   3.009   1.321   3.251
 1861SOL     OW  803   3.454   1.629   3.487
 1861SOL    HW1  804   3.481   1.663   3.397
 1861SOL    HW2  805   3.533   1.591   3.533
 1862SOL     OW  806   2.973   1.195   2.962
 1862SOL    HW1  807   2.933   1.239   3.043
 1862SOL    HW2  808   2.932   1.232   2.879
 1863SOL     OW  809   3.500   1.099   2.941
 1863SOL    HW1  810   3.505   1.180   3.000
 1863SOL    HW2  811   3.414   1.101   2.890
 1865SOL     OW  812   2.842   1.116   3.581
 1865SOL    HW1  813   2.743   1.122   3.591
 1865SOL    HW2  814   2.865   1.036   3.525
 1866SOL     OW  815   2.567   1.050   2.230
 1866SOL    HW1  816   2.553   1.057   2.329
 1866SOL    HW2  817   2.651   0.999   2.212
 1869SOL     OW  818   1.926   1.564   3.193
 1869SOL    HW1  819   1.880   1.646   3.159
 1869SOL    HW2  820   2.024   1.583   3.202
 1870SOL     OW  821   2.229   1.100   2.363
 1870SOL    HW1  822   2.222   1.183   2.307
 1870SOL    HW2  823   2.233   1.020   2.303
 1872SOL     OW  824   3.114   1.348   2.250
 1872SOL    HW1  825   3.164   1.425   2.290
 1872SOL    HW2  826   3.019   1.350   2.282
 1873SOL     OW  827   3.134   1.445   3.004
 1873SOL    HW1  828   3.181   1.458   3.091
 1873SOL    HW2  829   3.068   1.371   3.013
 1875SOL     OW  830   2.216   1.510   3.191
 1875SOL    HW1  831   2.195   1.466   3.104
 1875SOL    HW2  832   2.313   1.536   3.194
 1880SOL     OW  833   2.435   0.870   2.891
 1880SOL    HW1  834   2.479   0.959   2.882
 1880SOL    HW2  835   2.372   0.870   2.968
 1884SOL     OW  836   1.899   1.310   3.144
 1884SOL    HW1  837   1.952   1.261   3.212
 1884SOL    HW2  838   1.921   1.408   3.149
 1890SOL     OW  839   2.842   1.573   3.562
 1890SOL    HW1  840   2.822   1.617   3.474
 1890SOL    HW2  841   2.881   1.482   3.546
 1895SOL     OW  842   2.930   1.333   2.711
 1895SOL    HW1  843   2.937   1.249   2.656
 1895SOL    HW2  844   2.992   1.402   2.675
 1896SOL     OW  845   2.181   0.810   2.811
 1896SOL    HW1  846   2.274   0.846   2.816
 1896SOL    HW2  847   2.175   0.725   2.863
 1900SOL     OW  848   1.870   1.326   2.062
 1900SOL    HW1  849   1.777   1.347   2.031
 1900SOL    HW2  850   1.880   1.227   2.075
 1901SOL     OW  851   1.950   1.801   2.789
 1901SOL    HW1  852   1.908   1.715   2.762
 1901SOL    HW2  853   2.044   1.804   2.755
 1902SOL     OW  854   2.366   1.568   2.772
 1902SOL    HW1  855   2.432   1.642   2.781
 1902SOL    HW2  856   2.410   1.489   2.730
 1909SOL     OW  857   2.114   1.564   3.606
 1909SOL    HW1  858   2.084   1.621   3.682
 1909SOL    HW2  859   2.107   1.467   3.632
 1911SOL     OW  860   2.792   1.678   3.327
 1911SOL    HW1  861   2.768   1.660   3.232
 1911SOL    HW2  862   2.822   1.772   3.337
 1913SOL     OW  863   2.021   1.137   3.328
 1913SOL    HW1  864   2.043   1.076   3.404
 1913SOL    HW2  865   2.031   1.088   3.242
 1914SOL     OW  866   3.209   1.059   3.096
 1914SOL    HW1  867   3.233   0.996   3.022
 1914SOL    HW2  868   3.119   1.099   3.078
 1916SOL     OW  869   3.621   1.747   3.016
 1916SOL    HW1  870   3.682   1.777   2.943
 1916SOL    HW2  871   3.583   1.658   2.994
 1917SOL     OW  872   3.114   1.731   2.990
 1917SOL    HW1  873   3.198   1.736   2.936
 1917SOL    HW2  874   3.091   1.635   3.008
 1918SOL     OW  875   1.945   1.258   2.884
 1918SOL    HW1  876   1.940   1.257   2.984
 1918SOL    HW2  877   1.862   1.217   2.846
 1919SOL     OW  878   2.550   1.662   3.578
 1919SOL    HW1  879   2.494   1.743   3.587
 1919SOL    HW2  880   2.602   1.666   3.492
 1921SOL     OW  881   3.250   1.573   2.339
 1921SOL    HW1  882   3.317   1.585   2.265
 1921SOL    HW2  883   3.210   1.662   2.362
 1922SOL     OW  884   1.992   1.794   3.713
 1922SOL    HW1  885   1.951   1.720   3.766
 1922SOL    HW2  886   2.056   1.845   3.771
 1923SOL     OW  887   3.142   0.927   2.534
 1923SOL    HW1  888   3.202   0.846   2.536
 1923SOL    HW2  889   3.182   0.996   2.474
 1924SOL     OW  890   2.692   1.273   3.284
 1924SOL    HW1  891   2.687   1.306   3.379
 1924SOL    HW2  892   2.606   1.292   3.238
 1925SOL     OW  893   2.534   1.616   2.016
 1925SOL    HW1  894   2.543   1.626   1.917
 1925SOL    HW2  895   2.494   1.527   2.037
 1926SOL     OW  896   3.512   1.720   3.256
 1926SOL    HW1  897   3.565   1.730   3.172
 1926SOL    HW2  898   3.485   1.810   3.290
 1929SOL     OW  899   3.056   1.612   1.893
 1929SOL    HW1  900   3.062   1.519   1.930
 1929SOL    HW2  901   2.997   1.612   1.813
 1930SOL     OW  902   2.684   1.002   3.234
 1930SOL    HW1  903   2.724   1.001   3.142
 1930SOL    HW2  904   2.694   1.094   3.274
 1931SOL     OW  905   2.778   0.910   2.153
 1931SOL    HW1  906   2.841   0.948   2.085
 1931SOL    HW2  907   2.818   0.827   2.192
 1932SOL     OW  908   3.366   1.607   1.906
 1932SOL    HW1  909   3.274   1.644   1.913
 1932SOL    HW2  910   3.404   1.627   1.816
 1933SOL     OW  911   2.234   1.288   3.352
 1933SOL    HW1  912   2.221   1.381   3.318
 1933SOL    HW2  913   2.150   1.236   3.339
 1934SOL     OW  914   3.476   1.292   3.151
 1934SOL    HW1  915   3.536   1.295   3.231
 1934SOL    HW2  916   3.401   1.356   3.164
 1935SOL     OW  917   2.901   1.098   2.558
 1935SOL    HW1  918   2.831   1.051   2.612
 1935SOL    HW2  919   2.960   1.030   2.515
 1937SOL     OW  920   2.452   1.487   2.353
 1937SOL    HW1  921   2.494   1.429   2.283
 1937SOL    HW2  922   2.408   1.566   2.309
 1939SOL     OW  923   2.117   1.348   2.152
 1939SOL    HW1  924   2.021   1.349   2.125
 1939SOL    HW2  925   2.129   1.401   2.236
 1945SOL     OW  926   3.045   1.335   1.981
 1945SOL    HW1  927   2.946   1.324   1.983
 1945SOL    HW2  928   3.079   1.350   2.074
 1947SOL     OW  929   3.355   1.767   2.821
 1947SOL    HW1  930   3.388   1.831   2.752
 1947SOL    HW2  931   3.421   1.761   2.896
 1950SOL     OW  932   2.252   1.741   3.422
 1950SOL    HW1  933   2.161   1.782   3.420
 1950SOL    HW2  934   2.245   1.647   3.454
 1953SOL     OW  935   2.456   0.745   2.514
 1953SOL    HW1  936   2.506   0.830   2.495
 1953SOL    HW2  937   2.368   0.747   2.466
 1956SOL     OW  938   2.721   1.374   1.878
 1956SOL    HW1  939   2.675   1.389   1.966
 1956SOL    HW2  940   2.765   1.459   1.848
 1957SOL     OW  941   2.523   1.790   2.815
 1957SOL    HW1  942   2.477   1.878   2.802
 1957SOL    HW2  943   2.622   1.802   2.808
 1958SOL     OW  944   2.721   0.956   2.723
 1958SOL    HW1  945   2.775   0.887   2.771
 1958SOL    HW2  946   2.689   1.025   2.789
 1959SOL     OW  947   2.945   0.984   1.949
 1959SOL    HW1  948   2.922   1.037   1.867
 1959SOL    HW2  949   3.026   0.928   1.930
 1960SOL     OW  950   3.723   1.569   2.713
 1960SOL    HW1  951   3.652   1.557   2.643
 1960SOL    HW2  952   3.724   1.490   2.773
 1961SOL     OW  953   2.083   1.314   3.706
 1961SOL    HW1  954   2.018   1.241   3.685
 1961SOL    HW2  955   2.087   1.328   3.804
 1962SOL     OW  956   1.941   1.240   2.515
 1962SOL    HW1  957   1.940   1.193   2.603
 1962SOL    HW2  958   2.023   1.212   2.464
 1963SOL     OW  959   2.534   1.391   3.486
 1963SOL    HW1  960   2.456   1.341   3.524
 1963SOL    HW2  961   2.531   1.486   3.517
 1966SOL     OW  962   3.567   1.487   2.966
 1966SOL    HW1  963   3.474   1.462   2.939
 1966SOL    HW2  964   3.593   1.437   3.048
 1968SOL     OW  965   2.674   1.586   2.549
 1968SOL    HW1  966   2.706   1.596   2.455
 1968SOL    HW2  967   2.595   1.524   2.551
 1971SOL     OW  968   2.632   1.330   2.163
 1971SOL    HW1  969   2.586   1.243   2.180
 1971SOL    HW2  970   2.723   1.327   2.204
 1972SOL     OW  971   2.480   1.567   3.146
 1972SOL    HW1  972   2.475   1.649   3.203
 1972SOL    HW2  973   2.569   1.564   3.101
 1976SOL     OW  974   1.901   1.077   2.162
 1976SOL    HW1  975   2.000   1.066   2.153
 1976SOL    HW2  976   1.861   0.991   2.194
 1977SOL     OW  977   2.737   1.646   2.199
 1977SOL    HW1  978   2.660   1.611   2.145
 1977SOL    HW2  979   2.705   1.717   2.261
 1995SOL     OW  980   1.889   1.596   3.841
 1995SOL    HW1  981   1.870   1.500   3.862
 1995SOL    HW2  982   1.856   1.654   3.916
 2019SOL     OW  983   2.973   1.776   3.961
 2019SOL    HW1  984   2.913   1.714   4.011
 2019SOL    HW2  985   3.004   1.732   3.876
 2021SOL     OW  986   2.326   1.743   4.047
 2021SOL    HW1  987   2.359   1.782   4.133
 2021SOL    HW2  988   2.402   1.736   3.982
 2043SOL     OW  989   2.350   1.385   3.898
 2043SOL    HW1  990   2.263   1.370   3.945
 2043SOL    HW2  991   2.333   1.411   3.803
 2091SOL     OW  992   2.534   1.616   3.878
 2091SOL    HW1  993   2.543   1.626   3.779
 2091SOL    HW2  994   2.494   1.527   3.899
 2095SOL     OW  995   3.056   1.612   3.755
 2095SOL    HW1  996   3.062   1.519   3.792
 2095SOL    HW2  997   2.997   1.612   3.675
 2098SOL     OW  998   3.366   1.607   3.768
 2098SOL    HW1  999   3.274   1.644   3.775
 2098SOL    HW2 1000   3.404   1.627   3.678
 2112SOL     OW 1001   2.721   1.374   3.740
 2112SOL    HW1 1002   2.675   1.389   3.828
 2112SOL    HW2 1003   2.765   1.459   3.710
 2129SOL     OW 1004   2.737   1.646   4.061
 2129SOL    HW1 1005   2.660   1.611   4.007
 2129SOL    HW2 1006   2.705   1.717   4.123
 2131SOL     OW 1007   2.087   2.137   0.996
 2131SOL    HW1 1008   2.122   2.120   1.088
 2131SOL    HW2 1009   1.999   2.092   0.984
 2133SOL     OW 1010   2.431   3.137   1.165
 2133SOL    HW1 1011   2.338   3.130   1.128
 2133SOL    HW2 1012   2.442   3.226   1.209
 2137SOL     OW 1013   2.630   3.006   1.023
 2137SOL    HW1 1014   2.552   3.023   1.083
 2137SOL    HW2 1015   2.664   3.093   0.987
 2138SOL     OW 1016   2.712   2.660   1.823
 2138SOL    HW1 1017   2.708   2.736   1.888
 2138SOL    HW2 1018   2.734   2.696   1.732
 2140SOL     OW 1019   2.548   3.023   1.803
 2140SOL    HW1 1020   2.608   3.102   1.817
 2140SOL    HW2 1021   2.462   3.054   1.762
 2141SOL     OW 1022   2.197   3.297   1.061
 2141SOL    HW1 1023   2.119   3.266   1.008
 2141SOL    HW2 1024   2.255   3.355   1.004
 2142SOL     OW 1025   3.322   3.367   1.339
 2142SOL    HW1 1026   3.346   3.461   1.365
 2142SOL    HW2 1027   3.306   3.313   1.421
 2143SOL     OW 1028   2.300   2.254   1.499
 2143SOL    HW1 1029   2.382   2.198   1.508
 2143SOL    HW2 1030   2.219   2.196   1.503
 2146SOL     OW 1031   2.989   3.203   1.690
 2146SOL    HW1 1032   3.036   3.203   1.778
 2146SOL    HW2 1033   2.941   3.116   1.679
 2148SOL     OW 1034   2.102   2.953   0.886
 2148SOL    HW1 1035   2.116   2.869   0.938
 2148SOL    HW2 1036   2.047   3.017   0.941
 2149SOL     OW 1037   2.482   3.648   1.439
 2149SOL    HW1 1038   2.390   3.631   1.474
 2149SOL    HW2 1039   2.510   3.740   1.465
 2151SOL     OW 1040   3.456   1.976   1.480
 2151SOL    HW1 1041   3.438   2.043   1.408
 2151SOL    HW2 1042   3.453   2.022   1.569
 2157SOL     OW 1043   1.975   2.599   1.597
 2157SOL    HW1 1044   2.063   2.586   1.642
 2157SOL    HW2 1045   1.962   2.696   1.575
 2159SOL     OW 1046   3.155   3.090   1.423
 2159SOL    HW1 1047   3.192   3.017   1.365
 2159SOL    HW2 1048   3.207   3.095   1.508
 2161SOL     OW 1049   2.059   2.838   1.264
 2161SOL    HW1 1050   2.148   2.793   1.250
 2161SOL    HW2 1051   1.986   2.773   1.245
 2163SOL     OW 1052   3.049   3.654   1.616
 2163SOL    HW1 1053   3.073   3.714   1.540
 2163SOL    HW2 1054   3.056   3.559   1.586
 2164SOL     OW 1055   2.179   2.113   1.801
 2164SOL    HW1 1056   2.250   2.184   1.807
 2164SOL    HW2 1057   2.091   2.152   1.829
 2168SOL     OW 1058   3.143   2.207   0.944
 2168SOL    HW1 1059   3.057   2.157   0.931
 2168SOL    HW2 1060   3.205   2.153   1.000
 2170SOL     OW 1061   2.669   2.467   1.465
 2170SOL    HW1 1062   2.622   2.464   1.554
 2170SOL    HW2 1063   2.618   2.412   1.399
 2171SOL     OW 1064   3.256   2.331   1.674
 2171SOL    HW1 1065   3.236   2.374   1.762
 2171SOL    HW2 1066   3.334   2.269   1.683
 2172SOL     OW 1067   2.835   2.752   1.572
 2172SOL    HW1 1068   2.881   2.668   1.543
 2172SOL    HW2 1069   2.779   2.786   1.497
 2173SOL     OW 1070   2.853   2.272   1.242
 2173SOL    HW1 1071   2.776   2.306   1.296
 2173SOL    HW2 1072   2.819   2.221   1.163
 2176SOL     OW 1073   1.992   3.683   1.571
 2176SOL    HW1 1074   1.982   3.668   1.670
 2176SOL    HW2 1075   1.906   3.719   1.535
 2178SOL     OW 1076   3.581   2.447   1.831
 2178SOL    HW1 1077   3.555   2.536   1.795
 2178SOL    HW2 1078   3.579   2.379   1.758
 2180SOL     OW 1079   2.412   2.058   0.885
 2180SOL    HW1 1080   2.407   2.053   0.985
 2180SOL    HW2 1081   2.414   2.154   0.856
 2184SOL     OW 1082   3.089   3.412   1.506
 2184SOL    HW1 1083   3.095   3.335   1.570
 2184SOL    HW2 1084   3.037   3.386   1.426
 2187SOL     OW 1085   2.323   3.128   1.727
 2187SOL    HW1 1086   2.273   3.129   1.641
 2187SOL    HW2 1087   2.260   3.110   1.803
 2189SOL     OW 1088   2.064   2.147   1.498
 2189SOL    HW1 1089   1.984   2.207   1.485
 2189SOL    HW2 1090   2.054   2.098   1.584
 2193SOL     OW 1091   2.111   3.647   1.241
 2193SOL    HW1 1092   2.168   3.582   1.291
 2193SOL    HW2 1093   2.095   3.614   1.148
 2196SOL     OW 1094   3.409   2.084   1.729
 2196SOL    HW1 1095   3.404   2.121   1.821
 2196SOL    HW2 1096   3.337   2.015   1.717
 2198SOL     OW 1097   2.643   2.126   1.749
 2198SOL    HW1 1098   2.710   2.065   1.792
 2198SOL    HW2 1099   2.570   2.145   1.814
 2199SOL     OW 1100   2.750   3.376   1.195
 2199SOL    HW1 1101   2.727   3.351   1.101
 2199SOL    HW2 1102   2.811   3.307   1.234
 2200SOL     OW 1103   3.213   2.452   1.433
 2200SOL    HW1 1104   3.241   2.409   1.518
 2200SOL    HW2 1105   3.238   2.548   1.434
 2201SOL     OW 1106   2.665   3.264   0.924
 2201SOL    HW1 1107   2.755   3.278   0.882
 2201SOL    HW2 1108   2.594   3.266   0.853
 2202SOL     OW 1109   2.784   2.365   0.899
 2202SOL    HW1 1110   2.759   2.356   0.803
 2202SOL    HW2 1111   2.832   2.283   0.930
 2207SOL     OW 1112   2.938   2.545   1.464
 2207SOL    HW1 1113   2.858   2.484   1.467
 2207SOL    HW2 1114   3.019   2.492   1.440
 2212SOL     OW 1115   1.940   2.418   1.386
 2212SOL    HW1 1116   2.032   2.417   1.345
 2212SOL    HW2 1117   1.934   2.492   1.453
 2213SOL     OW 1118   2.423   2.084   1.147
 2213SOL    HW1 1119   2.461   2.000   1.184
 2213SOL    HW2 1120   2.335   2.103   1.191
 2217SOL     OW 1121   3.328   2.452   0.992
 2217SOL    HW1 1122   3.298   2.357   0.999
 2217SOL    HW2 1123   3.401   2.468   1.058
 2223SOL     OW 1124   3.616   3.085   1.588
 2223SOL    HW1 1125   3.707   3.046   1.575
 2223SOL    HW2 1126   3.624   3.181   1.612
 2224SOL     OW 1127   2.926   3.209   1.340
 2224SOL    HW1 1128   2.846   3.186   1.395
 2224SOL    HW2 1129   3.009   3.183   1.389
 2225SOL     OW 1130   3.454   3.491   1.625
 2225SOL    HW1 1131   3.481   3.525   1.535
 2225SOL    HW2 1132   3.533   3.453   1.671
 2226SOL     OW 1133   2.973   3.057   1.100
 2226SOL    HW1 1134   2.933   3.101   1.181
 2226SOL    HW2 1135   2.932   3.094   1.017
 2227SOL     OW 1136   3.500   2.961   1.079
 2227SOL    HW1 1137   3.505   3.042   1.138
 2227SOL    HW2 1138   3.414   2.963   1.028
 2228SOL     OW 1139   2.777   1.951   1.402
 2228SOL    HW1 1140   2.802   1.931   1.307
 2228SOL    HW2 1141   2.849   2.007   1.444
 2229SOL     OW 1142   2.842   2.978   1.719
 2229SOL    HW1 1143   2.743   2.984   1.729
 2229SOL    HW2 1144   2.865   2.898   1.663
 2231SOL     OW 1145   2.272   2.675   1.251
 2231SOL    HW1 1146   2.358   2.687   1.301
 2231SOL    HW2 1147   2.230   2.588   1.278
 2232SOL     OW 1148   3.136   2.248   1.262
 2232SOL    HW1 1149   3.157   2.322   1.326
 2232SOL    HW2 1150   3.047   2.265   1.219
 2233SOL     OW 1151   1.926   3.426   1.331
 2233SOL    HW1 1152   1.880   3.508   1.297
 2233SOL    HW2 1153   2.024   3.445   1.340
 2235SOL     OW 1154   2.428   2.399   0.865
 2235SOL    HW1 1155   2.440   2.465   0.791
 2235SOL    HW2 1156   2.474   2.433   0.948
 2237SOL     OW 1157   3.134   3.307   1.142
 2237SOL    HW1 1158   3.181   3.320   1.229
 2237SOL    HW2 1159   3.068   3.233   1.151
 2239SOL     OW 1160   2.216   3.372   1.329
 2239SOL    HW1 1161   2.195   3.328   1.242
 2239SOL    HW2 1162   2.313   3.398   1.332
 2240SOL     OW 1163   2.264   2.613   1.598
 2240SOL    HW1 1164   2.332   2.668   1.551
 2240SOL    HW2 1165   2.304   2.525   1.625
 2241SOL     OW 1166   3.449   2.641   1.670
 2241SOL    HW1 1167   3.357   2.679   1.665
 2241SOL    HW2 1168   3.509   2.688   1.605
 2242SOL     OW 1169   2.875   1.967   1.770
 2242SOL    HW1 1170   2.881   2.052   1.718
 2242SOL    HW2 1171   2.907   1.891   1.713
 2243SOL     OW 1172   2.366   1.912   1.740
 2243SOL    HW1 1173   2.324   1.855   1.670
 2243SOL    HW2 1174   2.300   1.981   1.772
 2244SOL     OW 1175   2.435   2.732   1.029
 2244SOL    HW1 1176   2.479   2.821   1.020
 2244SOL    HW2 1177   2.372   2.732   1.106
 2245SOL     OW 1178   3.222   2.724   1.045
 2245SOL    HW1 1179   3.147   2.724   0.979
 2245SOL    HW2 1180   3.259   2.632   1.054
 2247SOL     OW 1181   2.169   2.075   1.231
 2247SOL    HW1 1182   2.146   2.112   1.321
 2247SOL    HW2 1183   2.139   1.980   1.225
 2248SOL     OW 1184   1.899   3.172   1.282
 2248SOL    HW1 1185   1.952   3.123   1.350
 2248SOL    HW2 1186   1.921   3.270   1.287
 2249SOL     OW 1187   2.594   2.496   1.064
 2249SOL    HW1 1188   2.653   2.470   0.988
 2249SOL    HW2 1189   2.566   2.592   1.053
 2250SOL     OW 1190   3.590   2.797   1.854
 2250SOL    HW1 1191   3.544   2.790   1.765
 2250SOL    HW2 1192   3.528   2.841   1.920
 2253SOL     OW 1193   2.885   2.628   0.966
 2253SOL    HW1 1194   2.900   2.649   1.062
 2253SOL    HW2 1195   2.855   2.533   0.957
 2254SOL     OW 1196   2.842   3.435   1.700
 2254SOL    HW1 1197   2.822   3.479   1.612
 2254SOL    HW2 1198   2.881   3.344   1.684
 2255SOL     OW 1199   3.721   3.380   1.605
 2255SOL    HW1 1200   3.735   3.407   1.510
 2255SOL    HW2 1201   3.804   3.402   1.658
 2256SOL     OW 1202   2.212   2.760   1.804
 2256SOL    HW1 1203   2.288   2.804   1.852
 2256SOL    HW2 1204   2.247   2.713   1.722
 2260SOL     OW 1205   2.181   2.672   0.949
 2260SOL    HW1 1206   2.274   2.708   0.954
 2260SOL    HW2 1207   2.175   2.587   1.001
 2261SOL     OW 1208   2.201   2.371   1.006
 2261SOL    HW1 1209   2.149   2.288   0.989
 2261SOL    HW2 1210   2.278   2.376   0.942
 2262SOL     OW 1211   3.000   2.242   1.678
 2262SOL    HW1 1212   2.955   2.305   1.742
 2262SOL    HW2 1213   3.093   2.273   1.661
 2263SOL     OW 1214   3.022   2.069   1.477
 2263SOL    HW1 1215   3.022   2.133   1.554
 2263SOL    HW2 1216   3.050   2.117   1.394
 2266SOL     OW 1217   2.864   2.658   1.238
 2266SOL    HW1 1218   2.905   2.626   1.324
 2266SOL    HW2 1219   2.768   2.631   1.235
 2267SOL     OW 1220   1.902   2.406   1.114
 2267SOL    HW1 1221   1.987   2.373   1.073
 2267SOL    HW2 1222   1.915   2.421   1.212
 2268SOL     OW 1223   2.051   2.382   1.722
 2268SOL    HW1 1224   2.110   2.342   1.652
 2268SOL    HW2 1225   1.993   2.453   1.681
 2269SOL     OW 1226   3.231   2.812   1.660
 2269SOL    HW1 1227   3.270   2.901   1.680
 2269SOL    HW2 1228   3.241   2.792   1.563
 2271SOL     OW 1229   3.519   2.466   1.206
 2271SOL    HW1 1230   3.481   2.397   1.268
 2271SOL    HW2 1231   3.601   2.430   1.162
 2272SOL     OW 1232   2.114   3.426   1.744
 2272SOL    HW1 1233   2.084   3.483   1.820
 2272SOL    HW2 1234   2.107   3.329   1.770
 2273SOL     OW 1235   2.533   2.326   1.269
 2273SOL    HW1 1236   2.499   2.237   1.239
 2273SOL    HW2 1237   2.559   2.380   1.189
 2274SOL     OW 1238   2.792   3.540   1.465
 2274SOL    HW1 1239   2.768   3.522   1.370
 2274SOL    HW2 1240   2.822   3.634   1.475
 2276SOL     OW 1241   2.021   2.999   1.466
 2276SOL    HW1 1242   2.043   2.938   1.542
 2276SOL    HW2 1243   2.031   2.950   1.380
 2277SOL     OW 1244   3.209   2.921   1.234
 2277SOL    HW1 1245   3.233   2.858   1.160
 2277SOL    HW2 1246   3.119   2.961   1.216
 2281SOL     OW 1247   1.945   3.120   1.022
 2281SOL    HW1 1248   1.940   3.119   1.122
 2281SOL    HW2 1249   1.862   3.079   0.984
 2282SOL     OW 1250   2.550   3.524   1.716
 2282SOL    HW1 1251   2.494   3.605   1.725
 2282SOL    HW2 1252   2.602   3.528   1.630
 2286SOL     OW 1253   1.992   3.656   1.851
 2286SOL    HW1 1254   1.951   3.582   1.904
 2286SOL    HW2 1255   2.056   3.707   1.909
 2288SOL     OW 1256   2.692   3.135   1.422
 2288SOL    HW1 1257   2.687   3.168   1.517
 2288SOL    HW2 1258   2.606   3.154   1.376
 2294SOL     OW 1259   2.684   2.864   1.372
 2294SOL    HW1 1260   2.724   2.863   1.280
 2294SOL    HW2 1261   2.694   2.956   1.412
 2297SOL     OW 1262   2.234   3.150   1.490
 2297SOL    HW1 1263   2.221   3.243   1.456
 2297SOL    HW2 1264   2.150   3.098   1.477
 2298SOL     OW 1265   3.476   3.154   1.289
 2298SOL    HW1 1266   3.536   3.157   1.369
 2298SOL    HW2 1267   3.401   3.218   1.302
 2300SOL     OW 1268   2.876   2.098   0.971
 2300SOL    HW1 1269   2.868   2.062   0.878
 2300SOL    HW2 1270   2.874   2.022   1.036
 2302SOL     OW 1271   3.571   2.247   1.381
 2302SOL    HW1 1272   3.644   2.316   1.385
 2302SOL    HW2 1273   3.599   2.172   1.322
 2304SOL     OW 1274   1.967   2.875   1.726
 2304SOL    HW1 1275   1.890   2.842   1.780
 2304SOL    HW2 1276   2.052   2.845   1.768
 2305SOL     OW 1277   2.534   2.065   1.489
 2305SOL    HW1 1278   2.624   2.049   1.449
 2305SOL    HW2 1279   2.542   2.070   1.588
 2306SOL     OW 1280   3.302   2.718   1.398
 2306SOL    HW1 1281   3.245   2.770   1.335
 2306SOL    HW2 1282   3.398   2.730   1.374
 2309SOL     OW 1283   2.475   2.704   1.431
 2309SOL    HW1 1284   2.531   2.785   1.414
 2309SOL    HW2 1285   2.534   2.624   1.434
 2311SOL     OW 1286   2.578   2.427   1.708
 2311SOL    HW1 1287   2.597   2.492   1.782
 2311SOL    HW2 1288   2.638   2.347   1.717
 2312SOL     OW 1289   3.312   3.082   1.633
 2312SOL    HW1 1290   3.303   3.072   1.732
 2312SOL    HW2 1291   3.408   3.075   1.607
 2313SOL     OW 1292   2.252   3.603   1.560
 2313SOL    HW1 1293   2.161   3.644   1.558
 2313SOL    HW2 1294   2.245   3.509   1.592
 2314SOL     OW 1295   3.536   2.745   1.254
 2314SOL    HW1 1296   3.509   2.656   1.217
 2314SOL    HW2 1297   3.537   2.813   1.181
 2317SOL     OW 1298   3.639   2.204   1.642
 2317SOL    HW1 1299   3.622   2.235   1.548
 2317SOL    HW2 1300   3.555   2.167   1.680
 2318SOL     OW 1301   3.592   2.796   1.517
 2318SOL    HW1 1302   3.630   2.887   1.532
 2318SOL    HW2 1303   3.584   2.779   1.418
 2321SOL     OW 1304   2.721   2.818   0.861
 2321SOL    HW1 1305   2.775   2.749   0.909
 2321SOL    HW2 1306   2.689   2.887   0.927
 2324SOL     OW 1307   2.083   3.176   1.844
 2324SOL    HW1 1308   2.018   3.103   1.823
 2324SOL    HW2 1309   2.087   3.190   1.942
 2326SOL     OW 1310   2.534   3.253   1.624
 2326SOL    HW1 1311   2.456   3.203   1.662
 2326SOL    HW2 1312   2.531   3.348   1.655
 2330SOL     OW 1313   2.179   2.409   1.280
 2330SOL    HW1 1314   2.217   2.350   1.352
 2330SOL    HW2 1315   2.219   2.383   1.192
 2332SOL     OW 1316   3.286   2.076   1.112
 2332SOL    HW1 1317   3.338   2.011   1.167
 2332SOL    HW2 1318   3.237   2.139   1.173
 2333SOL     OW 1319   2.863   1.896   1.154
 2333SOL    HW1 1320   2.800   1.824   1.123
 2333SOL    HW2 1321   2.956   1.860   1.154
 2335SOL     OW 1322   2.480   3.429   1.284
 2335SOL    HW1 1323   2.475   3.511   1.341
 2335SOL    HW2 1324   2.569   3.426   1.239
 2341SOL     OW 1325   2.092   2.490   1.975
 2341SOL    HW1 1326   1.999   2.488   2.012
 2341SOL    HW2 1327   2.093   2.451   1.883
 2342SOL     OW 1328   2.087   2.137   2.858
 2342SOL    HW1 1329   2.122   2.120   2.950
 2342SOL    HW2 1330   1.999   2.092   2.846
 2343SOL     OW 1331   1.881   2.230   2.509
 2343SOL    HW1 1332   1.799   2.273   2.548
 2343SOL    HW2 1333   1.853   2.157   2.446
 2344SOL     OW 1334   2.431   3.137   3.027
 2344SOL    HW1 1335   2.338   3.130   2.990
 2344SOL    HW2 1336   2.442   3.226   3.071
 2345SOL     OW 1337   3.417   3.373   2.565
 2345SOL    HW1 1338   3.360   3.357   2.646
 2345SOL    HW2 1339   3.358   3.383   2.485
 2346SOL     OW 1340   2.997   2.565   2.579
 2346SOL    HW1 1341   3.054   2.643   2.554
 2346SOL    HW2 1342   2.937   2.591   2.655
 2347SOL     OW 1343   3.617   2.469   2.093
 2347SOL    HW1 1344   3.605   2.456   1.994
 2347SOL    HW2 1345   3.587   2.388   2.142
 2348SOL     OW 1346   2.630   3.006   2.885
 2348SOL    HW1 1347   2.552   3.023   2.945
 2348SOL    HW2 1348   2.664   3.093   2.849
 2349SOL     OW 1349   2.712   2.660   3.685
 2349SOL    HW1 1350   2.708   2.736   3.750
 2349SOL    HW2 1351   2.734   2.696   3.594
 2350SOL     OW 1352   2.547   2.874   2.527
 2350SOL    HW1 1353   2.616   2.858   2.597
 2350SOL    HW2 1354   2.474   2.931   2.565
 2351SOL     OW 1355   2.548   3.023   3.665
 2351SOL    HW1 1356   2.608   3.102   3.679
 2351SOL    HW2 1357   2.462   3.054   3.624
 2352SOL     OW 1358   2.197   3.297   2.923
 2352SOL    HW1 1359   2.119   3.266   2.870
 2352SOL    HW2 1360   2.255   3.355   2.866
 2353SOL     OW 1361   3.322   3.367   3.201
 2353SOL    HW1 1362   3.346   3.461   3.227
 2353SOL    HW2 1363   3.306   3.313   3.283
 2354SOL     OW 1364   2.300   2.254   3.361
 2354SOL    HW1 1365   2.382   2.198   3.370
 2354SOL    HW2 1366   2.219   2.196   3.365
 2355SOL     OW 1367   3.465   2.309   2.599
 2355SOL    HW1 1368   3.391   2.355   2.549
 2355SOL    HW2 1369   3.516   2.377   2.652
 2356SOL     OW 1370   2.093   3.575   2.345
 2356SOL    HW1 1371   2.127   3.652   2.399
 2356SOL    HW2 1372   2.137   3.575   2.255
 2357SOL     OW 1373   2.989   3.203   3.552
 2357SOL    HW1 1374   3.036   3.203   3.640
 2357SOL    HW2 1375   2.941   3.116   3.541
 2358SOL     OW 1376   2.092   3.296   2.400
 2358SOL    HW1 1377   2.066   3.392   2.400
 2358SOL    HW2 1378   2.021   3.242   2.445
 2359SOL     OW 1379   2.482   3.648   3.301
 2359SOL    HW1 1380   2.390   3.631   3.336
 2359SOL    HW2 1381   2.510   3.740   3.327
 2360SOL     OW 1382   2.468   2.826   1.985
 2360SOL    HW1 1383   2.475   2.910   1.931
 2360SOL    HW2 1384   2.514   2.839   2.073
 2361SOL     OW 1385   3.456   1.976   3.342
 2361SOL    HW1 1386   3.438   2.043   3.270
 2361SOL    HW2 1387   3.453   2.022   3.431
 2362SOL     OW 1388   1.984   2.505   2.425
 2362SOL    HW1 1389   1.939   2.417   2.442
 2362SOL    HW2 1390   1.983   2.559   2.509
 2363SOL     OW 1391   3.704   3.629   2.221
 2363SOL    HW1 1392   3.758   3.600   2.301
 2363SOL    HW2 1393   3.734   3.719   2.192
 2364SOL     OW 1394   1.889   3.458   1.979
 2364SOL    HW1 1395   1.870   3.362   2.000
 2364SOL    HW2 1396   1.856   3.516   2.054
 2365SOL     OW 1397   3.551   2.784   2.474
 2365SOL    HW1 1398   3.646   2.755   2.482
 2365SOL    HW2 1399   3.543   2.849   2.399
 2366SOL     OW 1400   3.503   2.970   2.294
 2366SOL    HW1 1401   3.589   2.972   2.242
 2366SOL    HW2 1402   3.517   3.017   2.382
 2367SOL     OW 1403   1.975   2.599   3.459
 2367SOL    HW1 1404   2.063   2.586   3.504
 2367SOL    HW2 1405   1.962   2.696   3.437
 2368SOL     OW 1406   2.475   3.227   2.588
 2368SOL    HW1 1407   2.426   3.140   2.597
 2368SOL    HW2 1408   2.452   3.270   2.501
 2369SOL     OW 1409   3.155   3.090   3.285
 2369SOL    HW1 1410   3.192   3.017   3.227
 2369SOL    HW2 1411   3.207   3.095   3.370
 2370SOL     OW 1412   2.671   1.866   2.364
 2370SOL    HW1 1413   2.711   1.957   2.355
 2370SOL    HW2 1414   2.571   1.874   2.370
 2371SOL     OW 1415   2.059   2.838   3.126
 2371SOL    HW1 1416   2.148   2.793   3.112
 2371SOL    HW2 1417   1.986   2.773   3.107
 2372SOL     OW 1418   3.387   2.861   2.052
 2372SOL    HW1 1419   3.324   2.785   2.065
 2372SOL    HW2 1420   3.435   2.879   2.138
 2373SOL     OW 1421   3.049   3.654   3.478
 2373SOL    HW1 1422   3.073   3.714   3.402
 2373SOL    HW2 1423   3.056   3.559   3.448
 2374SOL     OW 1424   2.179   2.113   3.663
 2374SOL    HW1 1425   2.250   2.184   3.669
 2374SOL    HW2 1426   2.091   2.152   3.691
 2375SOL     OW 1427   3.328   3.279   2.815
 2375SOL    HW1 1428   3.269   3.285   2.895
 2375SOL    HW2 1429   3.313   3.191   2.769
 2376SOL     OW 1430   3.529   3.576   2.434
 2376SOL    HW1 1431   3.488   3.553   2.346
 2376SOL    HW2 1432   3.511   3.502   2.499
 2377SOL     OW 1433   2.460   2.591   2.132
 2377SOL    HW1 1434   2.484   2.660   2.064
 2377SOL    HW2 1435   2.382   2.624   2.186
 2378SOL     OW 1436   3.143   2.207   2.806
 2378SOL    HW1 1437   3.057   2.157   2.793
 2378SOL    HW2 1438   3.205   2.153   2.862
 2379SOL     OW 1439   3.438   3.524   2.169
 2379SOL    HW1 1440   3.527   3.570   2.172
 2379SOL    HW2 1441   3.417   3.500   2.074
 2380SOL     OW 1442   2.669   2.467   3.327
 2380SOL    HW1 1443   2.622   2.464   3.416
 2380SOL    HW2 1444   2.618   2.412   3.261
 2381SOL     OW 1445   3.256   2.331   3.536
 2381SOL    HW1 1446   3.236   2.374   3.624
 2381SOL    HW2 1447   3.334   2.269   3.545
 2382SOL     OW 1448   2.835   2.752   3.434
 2382SOL    HW1 1449   2.881   2.668   3.405
 2382SOL    HW2 1450   2.779   2.786   3.359
 2383SOL     OW 1451   2.853   2.272   3.104
 2383SOL    HW1 1452   2.776   2.306   3.158
 2383SOL    HW2 1453   2.819   2.221   3.025
 2384SOL     OW 1454   1.992   3.683   3.433
 2384SOL    HW1 1455   1.982   3.668   3.532
 2384SOL    HW2 1456   1.906   3.719   3.397
 2385SOL     OW 1457   2.727   2.210   2.057
 2385SOL    HW1 1458   2.786   2.273   2.008
 2385SOL    HW2 1459   2.746   2.116   2.028
 2386SOL     OW 1460   3.581   2.447   3.693
 2386SOL    HW1 1461   3.555   2.536   3.657
 2386SOL    HW2 1462   3.579   2.379   3.620
 2387SOL     OW 1463   3.224   3.006   2.407
 2387SOL    HW1 1464   3.307   2.977   2.359
 2387SOL    HW2 1465   3.175   3.073   2.351
 2388SOL     OW 1466   2.412   2.058   2.747
 2388SOL    HW1 1467   2.407   2.053   2.847
 2388SOL    HW2 1468   2.414   2.154   2.718
 2389SOL     OW 1469   2.870   3.318   2.339
 2389SOL    HW1 1470   2.824   3.390   2.287
 2389SOL    HW2 1471   2.866   3.338   2.437
 2390SOL     OW 1472   2.213   3.663   2.715
 2390SOL    HW1 1473   2.263   3.577   2.721
 2390SOL    HW2 1474   2.278   3.740   2.712
 2391SOL     OW 1475   3.657   2.928   2.735
 2391SOL    HW1 1476   3.595   2.913   2.659
 2391SOL    HW2 1477   3.605   2.939   2.820
 2392SOL     OW 1478   3.089   3.412   3.368
 2392SOL    HW1 1479   3.095   3.335   3.432
 2392SOL    HW2 1480   3.037   3.386   3.288
 2393SOL     OW 1481   2.183   2.805   2.104
 2393SOL    HW1 1482   2.265   2.844   2.062
 2393SOL    HW2 1483   2.156   2.723   2.055
 2394SOL     OW 1484   3.320   2.597   2.590
 2394SOL    HW1 1485   3.315   2.532   2.665
 2394SOL    HW2 1486   3.400   2.656   2.603
 2395SOL     OW 1487   2.323   3.128   3.589
 2395SOL    HW1 1488   2.273   3.129   3.503
 2395SOL    HW2 1489   2.260   3.110   3.665
 2396SOL     OW 1490   2.973   3.638   2.099
 2396SOL    HW1 1491   2.913   3.576   2.149
 2396SOL    HW2 1492   3.004   3.594   2.014
 2397SOL     OW 1493   2.064   2.147   3.360
 2397SOL    HW1 1494   1.984   2.207   3.347
 2397SOL    HW2 1495   2.054   2.098   3.446
 2398SOL     OW 1496   3.494   3.239   1.943
 2398SOL    HW1 1497   3.462   3.333   1.933
 2398SOL    HW2 1498   3.418   3.176   1.931
 2399SOL     OW 1499   2.326   3.605   2.185
 2399SOL    HW1 1500   2.359   3.644   2.271
 2399SOL    HW2 1501   2.402   3.598   2.120
 2400SOL     OW 1502   3.262   1.969   2.288
 2400SOL    HW1 1503   3.238   1.932   2.198
 2400SOL    HW2 1504   3.361   1.985   2.292
 2401SOL     OW 1505   2.111   3.647   3.103
 2401SOL    HW1 1506   2.168   3.582   3.153
 2401SOL    HW2 1507   2.095   3.614   3.010
 2402SOL     OW 1508   2.802   3.560   2.766
 2402SOL    HW1 1509   2.882   3.503   2.787
 2402SOL    HW2 1510   2.753   3.520   2.689
 2403SOL     OW 1511   3.409   2.084   3.591
 2403SOL    HW1 1512   3.404   2.121   3.683
 2403SOL    HW2 1513   3.337   2.015   3.579
 2404SOL     OW 1514   2.476   1.984   1.979
 2404SOL    HW1 1515   2.574   1.962   1.986
 2404SOL    HW2 1516   2.445   1.967   1.886
 2405SOL     OW 1517   2.643   2.126   3.611
 2405SOL    HW1 1518   2.710   2.065   3.654
 2405SOL    HW2 1519   2.570   2.145   3.676
 2406SOL     OW 1520   2.750   3.376   3.057
 2406SOL    HW1 1521   2.727   3.351   2.963
 2406SOL    HW2 1522   2.811   3.307   3.096
 2407SOL     OW 1523   3.213   2.452   3.295
 2407SOL    HW1 1524   3.241   2.409   3.380
 2407SOL    HW2 1525   3.238   2.548   3.296
 2408SOL     OW 1526   2.665   3.264   2.786
 2408SOL    HW1 1527   2.755   3.278   2.744
 2408SOL    HW2 1528   2.594   3.266   2.715
 2409SOL     OW 1529   2.784   2.365   2.761
 2409SOL    HW1 1530   2.759   2.356   2.665
 2409SOL    HW2 1531   2.832   2.283   2.792
 2410SOL     OW 1532   2.401   1.926   2.374
 2410SOL    HW1 1533   2.320   1.927   2.432
 2410SOL    HW2 1534   2.404   2.009   2.319
 2411SOL     OW 1535   3.296   3.050   1.903
 2411SOL    HW1 1536   3.328   2.974   1.960
 2411SOL    HW2 1537   3.204   3.077   1.933
 2412SOL     OW 1538   2.159   1.897   2.033
 2412SOL    HW1 1539   2.208   1.981   2.012
 2412SOL    HW2 1540   2.221   1.832   2.078
 2413SOL     OW 1541   2.938   2.545   3.326
 2413SOL    HW1 1542   2.858   2.484   3.329
 2413SOL    HW2 1543   3.019   2.492   3.302
 2414SOL     OW 1544   3.089   3.432   2.655
 2414SOL    HW1 1545   3.110   3.506   2.590
 2414SOL    HW2 1546   3.157   3.432   2.728
 2415SOL     OW 1547   2.321   3.014   2.603
 2415SOL    HW1 1548   2.250   2.987   2.668
 2415SOL    HW2 1549   2.295   2.986   2.510
 2416SOL     OW 1550   3.133   3.659   2.453
 2416SOL    HW1 1551   3.177   3.723   2.389
 2416SOL    HW2 1552   3.083   3.711   2.523
 2417SOL     OW 1553   2.894   2.411   1.878
 2417SOL    HW1 1554   2.853   2.493   1.839
 2417SOL    HW2 1555   2.958   2.437   1.951
 2418SOL     OW 1556   1.940   2.418   3.248
 2418SOL    HW1 1557   2.032   2.417   3.207
 2418SOL    HW2 1558   1.934   2.492   3.315
 2419SOL     OW 1559   2.423   2.084   3.009
 2419SOL    HW1 1560   2.461   2.000   3.046
 2419SOL    HW2 1561   2.335   2.103   3.053
 2420SOL     OW 1562   2.879   1.901   2.615
 2420SOL    HW1 1563   2.807   1.906   2.546
 2420SOL    HW2 1564   2.855   1.832   2.684
 2421SOL     OW 1565   3.291   3.035   2.729
 2421SOL    HW1 1566   3.236   2.951   2.722
 2421SOL    HW2 1567   3.317   3.064   2.637
 2422SOL     OW 1568   3.328   2.452   2.854
 2422SOL    HW1 1569   3.298   2.357   2.861
 2422SOL    HW2 1570   3.401   2.468   2.920
 2423SOL     OW 1571   3.719   2.695   2.239
 2423SOL    HW1 1572   3.761   2.631   2.303
 2423SOL    HW2 1573   3.681   2.644   2.161
 2424SOL     OW 1574   2.350   3.247   2.036
 2424SOL    HW1 1575   2.263   3.232   2.083
 2424SOL    HW2 1576   2.333   3.273   1.941
 2425SOL     OW 1577   3.526   3.142   2.519
 2425SOL    HW1 1578   3.625   3.150   2.533
 2425SOL    HW2 1579   3.481   3.226   2.550
 2426SOL     OW 1580   3.252   2.437   1.940
 2426SOL    HW1 1581   3.198   2.416   2.021
 2426SOL    HW2 1582   3.343   2.396   1.949
 2427SOL     OW 1583   2.389   2.118   2.190
 2427SOL    HW1 1584   2.416   2.059   2.115
 2427SOL    HW2 1585   2.389   2.213   2.159
 2428SOL     OW 1586   3.616   3.085   3.450
 2428SOL    HW1 1587   3.707   3.046   3.437
 2428SOL    HW2 1588   3.624   3.181   3.474
 2429SOL     OW 1589   2.926   3.209   3.202
 2429SOL    HW1 1590   2.846   3.186   3.257
 2429SOL    HW2 1591   3.009   3.183   3.251
 2430SOL     OW 1592   3.454   3.491   3.487
 2430SOL    HW1 1593   3.481   3.525   3.397
 2430SOL    HW2 1594   3.533   3.453   3.533
 2431SOL     OW 1595   2.973   3.057   2.962
 2431SOL    HW1 1596   2.933   3.101   3.043
 2431SOL    HW2 1597   2.932   3.094   2.879
 2432SOL     OW 1598   3.500   2.961   2.941
 2432SOL    HW1 1599   3.505   3.042   3.000
 2432SOL    HW2 1600   3.414   2.963   2.890
 2433SOL     OW 1601   2.777   1.951   3.264
 2433SOL    HW1 1602   2.802   1.931   3.169
 2433SOL    HW2 1603   2.849   2.007   3.306
 2434SOL     OW 1604   2.842   2.978   3.581
 2434SOL    HW1 1605   2.743   2.984   3.591
 2434SOL    HW2 1606   2.865   2.898   3.525
 2435SOL     OW 1607   2.567   2.912   2.230
 2435SOL    HW1 1608   2.553   2.919   2.329
 2435SOL    HW2 1609   2.651   2.861   2.212
 2436SOL     OW 1610   2.272   2.675   3.113
 2436SOL    HW1 1611   2.358   2.687   3.163
 2436SOL    HW2 1612   2.230   2.588   3.140
 2437SOL     OW 1613   3.136   2.248   3.124
 2437SOL    HW1 1614   3.157   2.322   3.188
 2437SOL    HW2 1615   3.047   2.265   3.081
 2438SOL     OW 1616   1.926   3.426   3.193
 2438SOL    HW1 1617   1.880   3.508   3.159
 2438SOL    HW2 1618   2.024   3.445   3.202
 2439SOL     OW 1619   2.229   2.962   2.363
 2439SOL    HW1 1620   2.222   3.045   2.307
 2439SOL    HW2 1621   2.233   2.882   2.303
 2440SOL     OW 1622   3.114   3.210   2.250
 2440SOL    HW1 1623   3.164   3.287   2.290
 2440SOL    HW2 1624   3.019   3.212   2.282
 2441SOL     OW 1625   3.134   3.307   3.004
 2441SOL    HW1 1626   3.181   3.320   3.091
 2441SOL    HW2 1627   3.068   3.233   3.013
 2442SOL     OW 1628   3.444   2.501   2.334
 2442SOL    HW1 1629   3.413   2.562   2.407
 2442SOL    HW2 1630   3.494   2.553   2.265
 2443SOL     OW 1631   2.216   3.372   3.191
 2443SOL    HW1 1632   2.195   3.328   3.104
 2443SOL    HW2 1633   2.313   3.398   3.194
 2444SOL     OW 1634   2.264   2.613   3.460
 2444SOL    HW1 1635   2.332   2.668   3.413
 2444SOL    HW2 1636   2.304   2.525   3.487
 2445SOL     OW 1637   3.449   2.641   3.532
 2445SOL    HW1 1638   3.357   2.679   3.527
 2445SOL    HW2 1639   3.509   2.688   3.467
 2446SOL     OW 1640   2.875   1.967   3.632
 2446SOL    HW1 1641   2.881   2.052   3.580
 2446SOL    HW2 1642   2.907   1.891   3.575
 2447SOL     OW 1643   2.366   1.912   3.602
 2447SOL    HW1 1644   2.324   1.855   3.532
 2447SOL    HW2 1645   2.300   1.981   3.634
 2448SOL     OW 1646   3.222   2.724   2.907
 2448SOL    HW1 1647   3.147   2.724   2.841
 2448SOL    HW2 1648   3.259   2.632   2.916
 2449SOL     OW 1649   3.071   2.387   2.137
 2449SOL    HW1 1650   3.084   2.303   2.191
 2449SOL    HW2 1651   3.042   2.461   2.197
 2450SOL     OW 1652   2.169   2.075   3.093
 2450SOL    HW1 1653   2.146   2.112   3.183
 2450SOL    HW2 1654   2.139   1.980   3.087
 2451SOL     OW 1655   1.899   3.172   3.144
 2451SOL    HW1 1656   1.952   3.123   3.212
 2451SOL    HW2 1657   1.921   3.270   3.149
 2452SOL     OW 1658   3.590   2.797   3.716
 2452SOL    HW1 1659   3.544   2.790   3.627
 2452SOL    HW2 1660   3.528   2.841   3.782
 2453SOL     OW 1661   2.169   1.925   2.480
 2453SOL    HW1 1662   2.158   2.019   2.513
 2453SOL    HW2 1663   2.164   1.862   2.557
 2454SOL     OW 1664   3.484   2.229   2.236
 2454SOL    HW1 1665   3.486   2.153   2.300
 2454SOL    HW2 1666   3.436   2.306   2.276
 2455SOL     OW 1667   2.885   2.628   2.828
 2455SOL    HW1 1668   2.900   2.649   2.924
 2455SOL    HW2 1669   2.855   2.533   2.819
 2456SOL     OW 1670   2.842   3.435   3.562
 2456SOL    HW1 1671   2.822   3.479   3.474
 2456SOL    HW2 1672   2.881   3.344   3.546
 2457SOL     OW 1673   3.721   3.380   3.467
 2457SOL    HW1 1674   3.735   3.407   3.372
 2457SOL    HW2 1675   3.804   3.402   3.520
 2458SOL     OW 1676   2.212   2.760   3.666
 2458SOL    HW1 1677   2.288   2.804   3.714
 2458SOL    HW2 1678   2.247   2.713   3.584
 2459SOL     OW 1679   3.402   2.136   1.987
 2459SOL    HW1 1680   3.341   2.061   2.010
 2459SOL    HW2 1681   3.424   2.188   2.070
 2460SOL     OW 1682   3.165   2.700   1.904
 2460SOL    HW1 1683   3.199   2.607   1.919
 2460SOL    HW2 1684   3.183   2.727   1.809
 2461SOL     OW 1685   2.930   3.195   2.711
 2461SOL    HW1 1686   2.937   3.111   2.656
 2461SOL    HW2 1687   2.992   3.264   2.675
 2462SOL     OW 1688   2.201   2.371   2.868
 2462SOL    HW1 1689   2.149   2.288   2.851
 2462SOL    HW2 1690   2.278   2.376   2.804
 2463SOL     OW 1691   3.000   2.242   3.540
 2463SOL    HW1 1692   2.955   2.305   3.604
 2463SOL    HW2 1693   3.093   2.273   3.523
 2464SOL     OW 1694   3.022   2.069   3.339
 2464SOL    HW1 1695   3.022   2.133   3.416
 2464SOL    HW2 1696   3.050   2.117   3.256
 2465SOL     OW 1697   1.870   3.188   2.062
 2465SOL    HW1 1698   1.777   3.209   2.031
 2465SOL    HW2 1699   1.880   3.089   2.075
 2466SOL     OW 1700   1.950   3.663   2.789
 2466SOL    HW1 1701   1.908   3.577   2.762
 2466SOL    HW2 1702   2.044   3.666   2.755
 2467SOL     OW 1703   2.366   3.430   2.772
 2467SOL    HW1 1704   2.432   3.504   2.781
 2467SOL    HW2 1705   2.410   3.351   2.730
 2468SOL     OW 1706   2.864   2.658   3.100
 2468SOL    HW1 1707   2.905   2.626   3.186
 2468SOL    HW2 1708   2.768   2.631   3.097
 2469SOL     OW 1709   1.902   2.406   2.976
 2469SOL    HW1 1710   1.987   2.373   2.935
 2469SOL    HW2 1711   1.915   2.421   3.074
 2470SOL     OW 1712   2.051   2.382   3.584
 2470SOL    HW1 1713   2.110   2.342   3.514
 2470SOL    HW2 1714   1.993   2.453   3.543
 2471SOL     OW 1715   3.231   2.812   3.522
 2471SOL    HW1 1716   3.270   2.901   3.542
 2471SOL    HW2 1717   3.241   2.792   3.425
 2472SOL     OW 1718   2.677   2.434   2.187
 2472SOL    HW1 1719   2.684   2.345   2.141
 2472SOL    HW2 1720   2.583   2.468   2.179
 2473SOL     OW 1721   3.519   2.466   3.068
 2473SOL    HW1 1722   3.481   2.397   3.130
 2473SOL    HW2 1723   3.601   2.430   3.024
 2474SOL     OW 1724   2.114   3.426   3.606
 2474SOL    HW1 1725   2.084   3.483   3.682
 2474SOL    HW2 1726   2.107   3.329   3.632
 2475SOL     OW 1727   2.533   2.326   3.131
 2475SOL    HW1 1728   2.499   2.237   3.101
 2475SOL    HW2 1729   2.559   2.380   3.051
 2476SOL     OW 1730   2.792   3.540   3.327
 2476SOL    HW1 1731   2.768   3.522   3.232
 2476SOL    HW2 1732   2.822   3.634   3.337
 2477SOL     OW 1733   2.335   2.362   2.053
 2477SOL    HW1 1734   2.396   2.442   2.057
 2477SOL    HW2 1735   2.240   2.393   2.060
 2478SOL     OW 1736   2.021   2.999   3.328
 2478SOL    HW1 1737   2.043   2.938   3.404
 2478SOL    HW2 1738   2.031   2.950   3.242
 2479SOL     OW 1739   3.209   2.921   3.096
 2479SOL    HW1 1740   3.233   2.858   3.022
 2479SOL    HW2 1741   3.119   2.961   3.078
 2480SOL     OW 1742   3.164   2.717   2.171
 2480SOL    HW1 1743   3.078   2.686   2.213
 2480SOL    HW2 1744   3.160   2.703   2.072
 2481SOL     OW 1745   3.621   3.609   3.016
 2481SOL    HW1 1746   3.682   3.639   2.943
 2481SOL    HW2 1747   3.583   3.520   2.994
 2482SOL     OW 1748   3.114   3.593   2.990
 2482SOL    HW1 1749   3.198   3.598   2.936
 2482SOL    HW2 1750   3.091   3.497   3.008
 2483SOL     OW 1751   1.945   3.120   2.884
 2483SOL    HW1 1752   1.940   3.119   2.984
 2483SOL    HW2 1753   1.862   3.079   2.846
 2484SOL     OW 1754   2.550   3.524   3.578
 2484SOL    HW1 1755   2.494   3.605   3.587
 2484SOL    HW2 1756   2.602   3.528   3.492
 2485SOL     OW 1757   3.588   1.997   2.385
 2485SOL    HW1 1758   3.661   1.980   2.318
 2485SOL    HW2 1759   3.557   1.910   2.423
 2486SOL     OW 1760   3.250   3.435   2.339
 2486SOL    HW1 1761   3.317   3.447   2.265
 2486SOL    HW2 1762   3.210   3.524   2.362
 2487SOL     OW 1763   1.992   3.656   3.713
 2487SOL    HW1 1764   1.951   3.582   3.766
 2487SOL    HW2 1765   2.056   3.707   3.771
 2488SOL     OW 1766   3.142   2.789   2.534
 2488SOL    HW1 1767   3.202   2.708   2.536
 2488SOL    HW2 1768   3.182   2.858   2.474
 2489SOL     OW 1769   2.692   3.135   3.284
 2489SOL    HW1 1770   2.687   3.168   3.379
 2489SOL    HW2 1771   2.606   3.154   3.238
 2490SOL     OW 1772   2.534   3.478   2.016
 2490SOL    HW1 1773   2.543   3.488   1.917
 2490SOL    HW2 1774   2.494   3.389   2.037
 2491SOL     OW 1775   3.512   3.582   3.256
 2491SOL    HW1 1776   3.565   3.592   3.172
 2491SOL    HW2 1777   3.485   3.672   3.290
 2492SOL     OW 1778   3.703   2.037   2.825
 2492SOL    HW1 1779   3.742   1.952   2.789
 2492SOL    HW2 1780   3.605   2.039   2.806
 2493SOL     OW 1781   2.125   2.188   2.582
 2493SOL    HW1 1782   2.046   2.239   2.548
 2493SOL    HW2 1783   2.116   2.173   2.680
 2494SOL     OW 1784   3.056   3.474   1.893
 2494SOL    HW1 1785   3.062   3.381   1.930
 2494SOL    HW2 1786   2.997   3.474   1.813
 2495SOL     OW 1787   2.684   2.864   3.234
 2495SOL    HW1 1788   2.724   2.863   3.142
 2495SOL    HW2 1789   2.694   2.956   3.274
 2496SOL     OW 1790   2.778   2.772   2.153
 2496SOL    HW1 1791   2.841   2.810   2.085
 2496SOL    HW2 1792   2.818   2.689   2.192
 2497SOL     OW 1793   3.366   3.469   1.906
 2497SOL    HW1 1794   3.274   3.506   1.913
 2497SOL    HW2 1795   3.404   3.489   1.816
 2498SOL     OW 1796   2.234   3.150   3.352
 2498SOL    HW1 1797   2.221   3.243   3.318
 2498SOL    HW2 1798   2.150   3.098   3.339
 2499SOL     OW 1799   3.476   3.154   3.151
 2499SOL    HW1 1800   3.536   3.157   3.231
 2499SOL    HW2 1801   3.401   3.218   3.164
 2500SOL     OW 1802   2.901   2.960   2.558
 2500SOL    HW1 1803   2.831   2.913   2.612
 2500SOL    HW2 1804   2.960   2.892   2.515
 2501SOL     OW 1805   2.876   2.098   2.833
 2501SOL    HW1 1806   2.868   2.062   2.740
 2501SOL    HW2 1807   2.874   2.022   2.898
 2502SOL     OW 1808   2.452   3.349   2.353
 2502SOL    HW1 1809   2.494   3.291   2.283
 2502SOL    HW2 1810   2.408   3.428   2.309
 2503SOL     OW 1811   3.571   2.247   3.243
 2503SOL    HW1 1812   3.644   2.316   3.247
 2503SOL    HW2 1813   3.599   2.172   3.184
 2504SOL     OW 1814   2.117   3.210   2.152
 2504SOL    HW1 1815   2.021   3.211   2.125
 2504SOL    HW2 1816   2.129   3.263   2.236
 2505SOL     OW 1817   1.967   2.875   3.588
 2505SOL    HW1 1818   1.890   2.842   3.642
 2505SOL    HW2 1819   2.052   2.845   3.630
 2506SOL     OW 1820   2.534   2.065   3.351
 2506SOL    HW1 1821   2.624   2.049   3.311
 2506SOL    HW2 1822   2.542   2.070   3.450
 2507SOL     OW 1823   1.937   2.207   1.895
 2507SOL    HW1 1824   1.845   2.179   1.866
 2507SOL    HW2 1825   1.968   2.284   1.839
 2508SOL     OW 1826   3.302   2.718   3.260
 2508SOL    HW1 1827   3.245   2.770   3.197
 2508SOL    HW2 1828   3.398   2.730   3.236
 2509SOL     OW 1829   1.934   2.028   2.180
 2509SOL    HW1 1830   1.917   2.111   2.126
 2509SOL    HW2 1831   2.024   1.991   2.158
 2510SOL     OW 1832   3.045   3.197   1.981
 2510SOL    HW1 1833   2.946   3.186   1.983
 2510SOL    HW2 1834   3.079   3.212   2.074
 2511SOL     OW 1835   2.475   2.704   3.293
 2511SOL    HW1 1836   2.531   2.785   3.276
 2511SOL    HW2 1837   2.534   2.624   3.296
 2512SOL     OW 1838   3.355   3.629   2.821
 2512SOL    HW1 1839   3.388   3.693   2.752
 2512SOL    HW2 1840   3.421   3.623   2.896
 2513SOL     OW 1841   2.578   2.427   3.570
 2513SOL    HW1 1842   2.597   2.492   3.644
 2513SOL    HW2 1843   2.638   2.347   3.579
 2514SOL     OW 1844   3.312   3.082   3.495
 2514SOL    HW1 1845   3.303   3.072   3.594
 2514SOL    HW2 1846   3.408   3.075   3.469
 2515SOL     OW 1847   2.252   3.603   3.422
 2515SOL    HW1 1848   2.161   3.644   3.420
 2515SOL    HW2 1849   2.245   3.509   3.454
 2516SOL     OW 1850   3.536   2.745   3.116
 2516SOL    HW1 1851   3.509   2.656   3.079
 2516SOL    HW2 1852   3.537   2.813   3.043
 2517SOL     OW 1853   3.087   2.187   2.311
 2517SOL    HW1 1854   3.152   2.113   2.300
 2517SOL    HW2 1855   3.107   2.237   2.395
 2518SOL     OW 1856   3.639   2.204   3.504
 2518SOL    HW1 1857   3.622   2.235   3.410
 2518SOL    HW2 1858   3.555   2.167   3.542
 2519SOL     OW 1859   3.592   2.796   3.379
 2519SOL    HW1 1860   3.630   2.887   3.394
 2519SOL    HW2 1861   3.584   2.779   3.280
 2520SOL     OW 1862   2.721   3.236   1.878
 2520SOL    HW1 1863   2.675   3.251   1.966
 2520SOL    HW2 1864   2.765   3.321   1.848
 2521SOL     OW 1865   2.523   3.652   2.815
 2521SOL    HW1 1866   2.477   3.740   2.802
 2521SOL    HW2 1867   2.622   3.664   2.808
 2522SOL     OW 1868   2.721   2.818   2.723
 2522SOL    HW1 1869   2.775   2.749   2.771
 2522SOL    HW2 1870   2.689   2.887   2.789
 2523SOL     OW 1871   2.945   2.846   1.949
 2523SOL    HW1 1872   2.922   2.899   1.867
 2523SOL    HW2 1873   3.026   2.790   1.930
 2524SOL     OW 1874   3.723   3.431   2.713
 2524SOL    HW1 1875   3.652   3.419   2.643
 2524SOL    HW2 1876   3.724   3.352   2.773
 2525SOL     OW 1877   2.083   3.176   3.706
 2525SOL    HW1 1878   2.018   3.103   3.685
 2525SOL    HW2 1879   2.087   3.190   3.804
 2526SOL     OW 1880   1.941   3.102   2.515
 2526SOL    HW1 1881   1.940   3.055   2.603
 2526SOL    HW2 1882   2.023   3.074   2.464
 2527SOL     OW 1883   2.534   3.253   3.486
 2527SOL    HW1 1884   2.456   3.203   3.524
 2527SOL    HW2 1885   2.531   3.348   3.517
 2528SOL     OW 1886   3.686   2.054   3.089
 2528SOL    HW1 1887   3.682   1.964   3.133
 2528SOL    HW2 1888   3.689   2.043   2.990
 2529SOL     OW 1889   2.290   2.286   2.382
 2529SOL    HW1 1890   2.320   2.214   2.320
 2529SOL    HW2 1891   2.251   2.246   2.465
 2530SOL     OW 1892   3.567   3.349   2.966
 2530SOL    HW1 1893   3.474   3.324   2.939
 2530SOL    HW2 1894   3.593   3.299   3.048
 2531SOL     OW 1895   2.179   2.409   3.142
 2531SOL    HW1 1896   2.217   2.350   3.214
 2531SOL    HW2 1897   2.219   2.383   3.054
 2532SOL     OW 1898   2.674   3.448   2.549
 2532SOL    HW1 1899   2.706   3.458   2.455
 2532SOL    HW2 1900   2.595   3.386   2.551
 2533SOL     OW 1901   3.286   2.076   2.974
 2533SOL    HW1 1902   3.338   2.011   3.029
 2533SOL    HW2 1903   3.237   2.139   3.035
 2534SOL     OW 1904   2.863   1.896   3.016
 2534SOL    HW1 1905   2.800   1.824   2.985
 2534SOL    HW2 1906   2.956   1.860   3.016
 2535SOL     OW 1907   2.632   3.192   2.163
 2535SOL    HW1 1908   2.586   3.105   2.180
 2535SOL    HW2 1909   2.723   3.189   2.204
 2536SOL     OW 1910   2.480   3.429   3.146
 2536SOL    HW1 1911   2.475   3.511   3.203
 2536SOL    HW2 1912   2.569   3.426   3.101
 2537SOL     OW 1913   3.214   1.914   2.030
 2537SOL    HW1 1914   3.249   1.873   1.946
 2537SOL    HW2 1915   3.124   1.876   2.050
 2538SOL     OW 1916   3.162   2.315   2.553
 2538SOL    HW1 1917   3.103   2.395   2.557
 2538SOL    HW2 1918   3.177   2.280   2.646
 2539SOL     OW 1919   3.455   2.083   2.744
 2539SOL    HW1 1920   3.371   2.082   2.798
 2539SOL    HW2 1921   3.457   2.166   2.688
 2540SOL     OW 1922   1.901   2.939   2.162
 2540SOL    HW1 1923   2.000   2.928   2.153
 2540SOL    HW2 1924   1.861   2.853   2.194
 2541SOL     OW 1925   2.737   3.508   2.199
 2541SOL    HW1 1926   2.660   3.473   2.145
 2541SOL    HW2 1927   2.705   3.579   2.261
 2542SOL     OW 1928   2.092   2.490   3.837
 2542SOL    HW1 1929   1.999   2.488   3.874
 2542SOL    HW2 1930   2.093   2.451   3.745
 2556SOL     OW 1931   2.468   2.826   3.847
 2556SOL    HW1 1932   2.475   2.910   3.793
 2556SOL    HW2 1933   2.514   2.839   3.935
 2559SOL     OW 1934   1.889   3.458   3.841
 2559SOL    HW1 1935   1.870   3.362   3.862
 2559SOL    HW2 1936   1.856   3.516   3.916
 2566SOL     OW 1937   3.387   2.861   3.914
 2566SOL    HW1 1938   3.324   2.785   3.927
 2566SOL    HW2 1939   3.435   2.879   4.000
 2569SOL     OW 1940   2.460   2.591   3.994
 2569SOL    HW1 1941   2.484   2.660   3.926
 2569SOL    HW2 1942   2.382   2.624   4.048
 2573SOL     OW 1943   2.903   2.563   4.153
 2573SOL    HW1 1944   2.929   2.559   4.249
 2573SOL    HW2 1945   2.818   2.512   4.139
 2575SOL     OW 1946   2.727   2.210   3.919
 2575SOL    HW1 1947   2.786   2.273   3.870
 2575SOL    HW2 1948   2.746   2.116   3.890
 2581SOL     OW 1949   2.183   2.805   3.966
 2581SOL    HW1 1950   2.265   2.844   3.924
 2581SOL    HW2 1951   2.156   2.723   3.917
 2584SOL     OW 1952   3.494   3.239   3.805
 2584SOL    HW1 1953   3.462   3.333   3.795
 2584SOL    HW2 1954   3.418   3.176   3.793
 2589SOL     OW 1955   2.244   2.562   4.204
 2589SOL    HW1 1956   2.289   2.472   4.201
 2589SOL    HW2 1957   2.150   2.551   4.237
 2590SOL     OW 1958   2.476   1.984   3.841
 2590SOL    HW1 1959   2.574   1.962   3.848
 2590SOL    HW2 1960   2.445   1.967   3.748
 2594SOL     OW 1961   3.296   3.050   3.765
 2594SOL    HW1 1962   3.328   2.974   3.822
 2594SOL    HW2 1963   3.204   3.077   3.795
 2595SOL     OW 1964   2.159   1.897   3.895
 2595SOL    HW1 1965   2.208   1.981   3.874
 2595SOL    HW2 1966   2.221   1.832   3.940
 2596SOL     OW 1967   2.797   2.098   4.204
 2596SOL    HW1 1968   2.749   2.139   4.126
 2596SOL    HW2 1969   2.896   2.096   4.185
 2600SOL     OW 1970   2.894   2.411   3.740
 2600SOL    HW1 1971   2.853   2.493   3.701
 2600SOL    HW2 1972   2.958   2.437   3.813
 2607SOL     OW 1973   2.350   3.247   3.898
 2607SOL    HW1 1974   2.263   3.232   3.945
 2607SOL    HW2 1975   2.333   3.273   3.803
 2609SOL     OW 1976   3.252   2.437   3.802
 2609SOL    HW1 1977   3.198   2.416   3.883
 2609SOL    HW2 1978   3.343   2.396   3.811
 2610SOL     OW 1979   2.389   2.118   4.052
 2610SOL    HW1 1980   2.416   2.059   3.977
 2610SOL    HW2 1981   2.389   2.213   4.021
 2613SOL     OW 1982   2.567   2.912   4.092
 2613SOL    HW1 1983   2.553   2.919   4.191
 2613SOL    HW2 1984   2.651   2.861   4.074
 2616SOL     OW 1985   2.229   2.962   4.225
 2616SOL    HW1 1986   2.222   3.045   4.169
 2616SOL    HW2 1987   2.233   2.882   4.165
 2624SOL     OW 1988   3.071   2.387   3.999
 2624SOL    HW1 1989   3.084   2.303   4.053
 2624SOL    HW2 1990   3.042   2.461   4.059
 2631SOL     OW 1991   3.402   2.136   3.849
 2631SOL    HW1 1992   3.341   2.061   3.872
 2631SOL    HW2 1993   3.424   2.188   3.932
 2632SOL     OW 1994   3.165   2.700   3.766
 2632SOL    HW1 1995   3.199   2.607   3.781
 2632SOL    HW2 1996   3.183   2.727   3.671
 2637SOL     OW 1997   1.870   3.188   3.924
 2637SOL    HW1 1998   1.777   3.209   3.893
 2637SOL    HW2 1999   1.880   3.089   3.937
 2642SOL     OW 2000   2.677   2.434   4.049
 2642SOL    HW1 2001   2.684   2.345   4.003
 2642SOL    HW2 2002   2.583   2.468   4.041
 2646SOL     OW 2003   2.335   2.362   3.915
 2646SOL    HW1 2004   2.396   2.442   3.919
 2646SOL    HW2 2005   2.240   2.393   3.922
 2648SOL     OW 2006   3.164   2.717   4.033
 2648SOL    HW1 2007   3.078   2.686   4.075
 2648SOL    HW2 2008   3.160   2.703   3.934
 2655SOL     OW 2009   2.534   3.478   3.878
 2655SOL    HW1 2010   2.543   3.488   3.779
 2655SOL    HW2 2011   2.494   3.389   3.899
 2659SOL     OW 2012   3.056   3.474   3.755
 2659SOL    HW1 2013   3.062   3.381   3.792
 2659SOL    HW2 2014   2.997   3.474   3.675
 2661SOL     OW 2015   2.778   2.772   4.015
 2661SOL    HW1 2016   2.841   2.810   3.947
 2661SOL    HW2 2017   2.818   2.689   4.054
 2662SOL     OW 2018   3.366   3.469   3.768
 2662SOL    HW1 2019   3.274   3.506   3.775
 2662SOL    HW2 2020   3.404   3.489   3.678
 2667SOL     OW 2021   2.117   3.210   4.014
 2667SOL    HW1 2022   2.021   3.211   3.987
 2667SOL    HW2 2023   2.129   3.263   4.098
 2668SOL     OW 2024   1.937   2.207   3.757
 2668SOL    HW1 2025   1.845   2.179   3.728
 2668SOL    HW2 2026   1.968   2.284   3.701
 2669SOL     OW 2027   1.934   2.028   4.042
 2669SOL    HW1 2028   1.917   2.111   3.988
 2669SOL    HW2 2029   2.024   1.991   4.020
 2670SOL     OW 2030   3.045   3.197   3.843
 2670SOL    HW1 2031   2.946   3.186   3.845
 2670SOL    HW2 2032   3.079   3.212   3.936
 2673SOL     OW 2033   3.087   2.187   4.173
 2673SOL    HW1 2034   3.152   2.113   4.162
 2673SOL    HW2 2035   3.107   2.237   4.257
 2676SOL     OW 2036   2.721   3.236   3.740
 2676SOL    HW1 2037   2.675   3.251   3.828
 2676SOL    HW2 2038   2.765   3.321   3.710
 2679SOL     OW 2039   2.945   2.846   3.811
 2679SOL    HW1 2040   2.922   2.899   3.729
 2679SOL    HW2 2041   3.026   2.790   3.792
 2683SOL     OW 2042   2.290   2.286   4.244
 2683SOL    HW1 2043   2.320   2.214   4.182
 2683SOL    HW2 2044   2.251   2.246   4.327
 2688SOL     OW 2045   2.632   3.192   4.025
 2688SOL    HW1 2046   2.586   3.105   4.042
 2688SOL    HW2 2047   2.723   3.189   4.066
 2689SOL     OW 2048   3.214   1.914   3.892
 2689SOL    HW1 2049   3.249   1.873   3.808
 2689SOL    HW2 2050   3.124   1.876   3.912
 2692SOL     OW 2051   1.901   2.939   4.024
 2692SOL    HW1 2052   2.000   2.928   4.015
 2692SOL    HW2 2053   1.861   2.853   4.056
 2717SOL     OW 2054   2.179   3.975   1.801
 2717SOL    HW1 2055   2.250   4.046   1.807
 2717SOL    HW2 2056   2.091   4.014   1.829
 2738SOL     OW 2057   2.643   3.988   1.749
 2738SOL    HW1 2058   2.710   3.927   1.792
 2738SOL    HW2 2059   2.570   4.007   1.814
 2759SOL     OW 2060   2.777   3.813   1.402
 2759SOL    HW1 2061   2.802   3.793   1.307
 2759SOL    HW2 2062   2.849   3.869   1.444
 2769SOL     OW 2063   2.875   3.829   1.770
 2769SOL    HW1 2064   2.881   3.914   1.718
 2769SOL    HW2 2065   2.907   3.753   1.713
 2770SOL     OW 2066   2.366   3.774   1.740
 2770SOL    HW1 2067   2.324   3.717   1.670
 2770SOL    HW2 2068   2.300   3.843   1.772
 2813SOL     OW 2069   2.534   3.927   1.489
 2813SOL    HW1 2070   2.624   3.911   1.449
 2813SOL    HW2 2071   2.542   3.932   1.588
 2838SOL     OW 2072   2.087   3.999   2.858
 2838SOL    HW1 2073   2.122   3.982   2.950
 2838SOL    HW2 2074   1.999   3.954   2.846
 2839SOL     OW 2075   1.881   4.092   2.509
 2839SOL    HW1 2076   1.799   4.135   2.548
 2839SOL    HW2 2077   1.853   4.019   2.446
 2857SOL     OW 2078   2.671   3.728   2.364
 2857SOL    HW1 2079   2.711   3.819   2.355
 2857SOL    HW2 2080   2.571   3.736   2.370
 2862SOL     OW 2081   3.143   4.069   2.806
 2862SOL    HW1 2082   3.057   4.019   2.793
 2862SOL    HW2 2083   3.205   4.015   2.862
 2866SOL     OW 2084   2.853   4.134   3.104
 2866SOL    HW1 2085   2.776   4.168   3.158
 2866SOL    HW2 2086   2.819   4.083   3.025
 2869SOL     OW 2087   2.727   4.072   2.057
 2869SOL    HW1 2088   2.786   4.135   2.008
 2869SOL    HW2 2089   2.746   3.978   2.028
 2872SOL     OW 2090   2.412   3.920   2.747
 2872SOL    HW1 2091   2.407   3.915   2.847
 2872SOL    HW2 2092   2.414   4.016   2.718
 2876SOL     OW 2093   2.064   4.009   3.360
 2876SOL    HW1 2094   1.984   4.069   3.347
 2876SOL    HW2 2095   2.054   3.960   3.446
 2877SOL     OW 2096   3.262   3.831   2.288
 2877SOL    HW1 2097   3.238   3.794   2.198
 2877SOL    HW2 2098   3.361   3.847   2.292
 2880SOL     OW 2099   2.476   3.846   1.979
 2880SOL    HW1 2100   2.574   3.824   1.986
 2880SOL    HW2 2101   2.445   3.829   1.886
 2884SOL     OW 2102   2.784   4.227   2.761
 2884SOL    HW1 2103   2.759   4.218   2.665
 2884SOL    HW2 2104   2.832   4.145   2.792
 2885SOL     OW 2105   2.401   3.788   2.374
 2885SOL    HW1 2106   2.320   3.789   2.432
 2885SOL    HW2 2107   2.404   3.871   2.319
 2886SOL     OW 2108   2.159   3.759   2.033
 2886SOL    HW1 2109   2.208   3.843   2.012
 2886SOL    HW2 2110   2.221   3.694   2.078
 2887SOL     OW 2111   2.797   3.960   2.342
 2887SOL    HW1 2112   2.749   4.001   2.264
 2887SOL    HW2 2113   2.896   3.958   2.323
 2892SOL     OW 2114   2.423   3.946   3.009
 2892SOL    HW1 2115   2.461   3.862   3.046
 2892SOL    HW2 2116   2.335   3.965   3.053
 2893SOL     OW 2117   2.728   4.178   2.504
 2893SOL    HW1 2118   2.696   4.250   2.442
 2893SOL    HW2 2119   2.752   4.097   2.451
 2894SOL     OW 2120   2.879   3.763   2.615
 2894SOL    HW1 2121   2.807   3.768   2.546
 2894SOL    HW2 2122   2.855   3.694   2.684
 2899SOL     OW 2123   2.389   3.980   2.190
 2899SOL    HW1 2124   2.416   3.921   2.115
 2899SOL    HW2 2125   2.389   4.075   2.159
 2902SOL     OW 2126   2.777   3.813   3.264
 2902SOL    HW1 2127   2.802   3.793   3.169
 2902SOL    HW2 2128   2.849   3.869   3.306
 2908SOL     OW 2129   2.428   4.261   2.727
 2908SOL    HW1 2130   2.440   4.327   2.653
 2908SOL    HW2 2131   2.474   4.295   2.810
 2912SOL     OW 2132   2.875   3.829   3.632
 2912SOL    HW1 2133   2.881   3.914   3.580
 2912SOL    HW2 2134   2.907   3.753   3.575
 2913SOL     OW 2135   2.366   3.774   3.602
 2913SOL    HW1 2136   2.324   3.717   3.532
 2913SOL    HW2 2137   2.300   3.843   3.634
 2917SOL     OW 2138   2.169   3.937   3.093
 2917SOL    HW1 2139   2.146   3.974   3.183
 2917SOL    HW2 2140   2.139   3.842   3.087
 2920SOL     OW 2141   2.169   3.787   2.480
 2920SOL    HW1 2142   2.158   3.881   2.513
 2920SOL    HW2 2143   2.164   3.724   2.557
 2925SOL     OW 2144   3.402   3.998   1.987
 2925SOL    HW1 2145   3.341   3.923   2.010
 2925SOL    HW2 2146   3.424   4.050   2.070
 2928SOL     OW 2147   2.201   4.233   2.868
 2928SOL    HW1 2148   2.149   4.150   2.851
 2928SOL    HW2 2149   2.278   4.238   2.804
 2930SOL     OW 2150   3.022   3.931   3.339
 2930SOL    HW1 2151   3.022   3.995   3.416
 2930SOL    HW2 2152   3.050   3.979   3.256
 2938SOL     OW 2153   2.533   4.188   3.131
 2938SOL    HW1 2154   2.499   4.099   3.101
 2938SOL    HW2 2155   2.559   4.242   3.051
 2939SOL     OW 2156   2.335   4.224   2.053
 2939SOL    HW1 2157   2.396   4.304   2.057
 2939SOL    HW2 2158   2.240   4.255   2.060
 2944SOL     OW 2159   3.588   3.859   2.385
 2944SOL    HW1 2160   3.661   3.842   2.318
 2944SOL    HW2 2161   3.557   3.772   2.423
 2947SOL     OW 2162   2.125   4.050   2.582
 2947SOL    HW1 2163   2.046   4.101   2.548
 2947SOL    HW2 2164   2.116   4.035   2.680
 2954SOL     OW 2165   2.876   3.960   2.833
 2954SOL    HW1 2166   2.868   3.924   2.740
 2954SOL    HW2 2167   2.874   3.884   2.898
 2957SOL     OW 2168   2.534   3.927   3.351
 2957SOL    HW1 2169   2.624   3.911   3.311
 2957SOL    HW2 2170   2.542   3.932   3.450
 2958SOL     OW 2171   1.937   4.069   1.895
 2958SOL    HW1 2172   1.845   4.041   1.866
 2958SOL    HW2 2173   1.968   4.146   1.839
 2960SOL     OW 2174   1.934   3.890   2.180
 2960SOL    HW1 2175   1.917   3.973   2.126
 2960SOL    HW2 2176   2.024   3.853   2.158
 2965SOL     OW 2177   3.087   4.049   2.311
 2965SOL    HW1 2178   3.152   3.975   2.300
 2965SOL    HW2 2179   3.107   4.099   2.395
 2973SOL     OW 2180   2.290   4.148   2.382
 2973SOL    HW1 2181   2.320   4.076   2.320
 2973SOL    HW2 2182   2.251   4.108   2.465
 2975SOL     OW 2183   3.286   3.938   2.974
 2975SOL    HW1 2184   3.338   3.873   3.029
 2975SOL    HW2 2185   3.237   4.001   3.035
 2976SOL     OW 2186   2.863   3.758   3.016
 2976SOL    HW1 2187   2.800   3.686   2.985
 2976SOL    HW2 2188   2.956   3.722   3.016
 2978SOL     OW 2189   3.214   3.776   2.030
 2978SOL    HW1 2190   3.249   3.735   1.946
 2978SOL    HW2 2191   3.124   3.738   2.050
 2979SOL     OW 2192   3.162   4.177   2.553
 2979SOL    HW1 2193   3.103   4.257   2.557
 2979SOL    HW2 2194   3.177   4.142   2.646
 2980SOL     OW 2195   3.455   3.945   2.744
 2980SOL    HW1 2196   3.371   3.944   2.798
 2980SOL    HW2 2197   3.457   4.028   2.688
 3119SOL     OW 2198   3.854   1.821   1.571
 3119SOL    HW1 2199   3.844   1.806   1.670
 3119SOL    HW2 2200   3.768   1.857   1.535
 3200SOL     OW 2201   3.854   1.794   1.851
 3200SOL    HW1 2202   3.813   1.720   1.904
 3200SOL    HW2 2203   3.918   1.845   1.909
 3245SOL     OW 2204   3.955   1.713   2.345
 3245SOL    HW1 2205   3.989   1.790   2.399
 3245SOL    HW2 2206   3.999   1.713   2.255
 3252SOL     OW 2207   3.751   1.596   1.979
 3252SOL    HW1 2208   3.732   1.500   2.000
 3252SOL    HW2 2209   3.718   1.654   2.054
 3265SOL     OW 2210   3.854   1.821   3.433
 3265SOL    HW1 2211   3.844   1.806   3.532
 3265SOL    HW2 2212   3.768   1.857   3.397
 3269SOL     OW 2213   4.075   1.801   2.715
 3269SOL    HW1 2214   4.125   1.715   2.721
 3269SOL    HW2 2215   4.140   1.878   2.712
 3275SOL     OW 2216   3.973   1.785   3.103
 3275SOL    HW1 2217   4.030   1.720   3.153
 3275SOL    HW2 2218   3.957   1.752   3.010
 3304SOL     OW 2219   3.788   1.564   3.193
 3304SOL    HW1 2220   3.742   1.646   3.159
 3304SOL    HW2 2221   3.886   1.583   3.202
 3329SOL     OW 2222   3.732   1.326   2.062
 3329SOL    HW1 2223   3.639   1.347   2.031
 3329SOL    HW2 2224   3.742   1.227   2.075
 3330SOL     OW 2225   3.812   1.801   2.789
 3330SOL    HW1 2226   3.770   1.715   2.762
 3330SOL    HW2 2227   3.906   1.804   2.755
 3505SOL     OW 2228   3.837   2.599   1.597
 3505SOL    HW1 2229   3.925   2.586   1.642
 3505SOL    HW2 2230   3.824   2.696   1.575
 3510SOL     OW 2231   4.041   2.113   1.801
 3510SOL    HW1 2232   4.112   2.184   1.807
 3510SOL    HW2 2233   3.953   2.152   1.829
 3526SOL     OW 2234   3.926   2.147   1.498
 3526SOL    HW1 2235   3.846   2.207   1.485
 3526SOL    HW2 2236   3.916   2.098   1.584
 3544SOL     OW 2237   3.802   2.418   1.386
 3544SOL    HW1 2238   3.894   2.417   1.345
 3544SOL    HW2 2239   3.796   2.492   1.453
 3575SOL     OW 2240   4.074   2.760   1.804
 3575SOL    HW1 2241   4.150   2.804   1.852
 3575SOL    HW2 2242   4.109   2.713   1.722
 3586SOL     OW 2243   3.913   2.382   1.722
 3586SOL    HW1 2244   3.972   2.342   1.652
 3586SOL    HW2 2245   3.855   2.453   1.681
 3592SOL     OW 2246   3.883   2.999   1.466
 3592SOL    HW1 2247   3.905   2.938   1.542
 3592SOL    HW2 2248   3.893   2.950   1.380
 3611SOL     OW 2249   3.829   2.875   1.726
 3611SOL    HW1 2250   3.752   2.842   1.780
 3611SOL    HW2 2251   3.914   2.845   1.768
 3622SOL     OW 2252   3.945   3.176   1.844
 3622SOL    HW1 2253   3.880   3.103   1.823
 3622SOL    HW2 2254   3.949   3.190   1.942
 3633SOL     OW 2255   3.954   2.490   1.975
 3633SOL    HW1 2256   3.861   2.488   2.012
 3633SOL    HW2 2257   3.955   2.451   1.883
 3634SOL     OW 2258   3.949   2.137   2.858
 3634SOL    HW1 2259   3.984   2.120   2.950
 3634SOL    HW2 2260   3.861   2.092   2.846
 3635SOL     OW 2261   3.743   2.230   2.509
 3635SOL    HW1 2262   3.661   2.273   2.548
 3635SOL    HW2 2263   3.715   2.157   2.446
 3642SOL     OW 2264   4.059   3.297   2.923
 3642SOL    HW1 2265   3.981   3.266   2.870
 3642SOL    HW2 2266   4.117   3.355   2.866
 3644SOL     OW 2267   3.955   3.575   2.345
 3644SOL    HW1 2268   3.989   3.652   2.399
 3644SOL    HW2 2269   3.999   3.575   2.255
 3646SOL     OW 2270   3.954   3.296   2.400
 3646SOL    HW1 2271   3.928   3.392   2.400
 3646SOL    HW2 2272   3.883   3.242   2.445
 3647SOL     OW 2273   3.964   2.953   2.748
 3647SOL    HW1 2274   3.978   2.869   2.800
 3647SOL    HW2 2275   3.909   3.017   2.803
 3650SOL     OW 2276   3.846   2.505   2.425
 3650SOL    HW1 2277   3.801   2.417   2.442
 3650SOL    HW2 2278   3.845   2.559   2.509
 3651SOL     OW 2279   3.751   3.458   1.979
 3651SOL    HW1 2280   3.732   3.362   2.000
 3651SOL    HW2 2281   3.718   3.516   2.054
 3652SOL     OW 2282   3.837   2.599   3.459
 3652SOL    HW1 2283   3.925   2.586   3.504
 3652SOL    HW2 2284   3.824   2.696   3.437
 3655SOL     OW 2285   3.921   2.838   3.126
 3655SOL    HW1 2286   4.010   2.793   3.112
 3655SOL    HW2 2287   3.848   2.773   3.107
 3663SOL     OW 2288   3.800   2.673   2.651
 3663SOL    HW1 2289   3.899   2.661   2.660
 3663SOL    HW2 2290   3.776   2.768   2.672
 3670SOL     OW 2291   4.045   2.805   2.104
 3670SOL    HW1 2292   4.127   2.844   2.062
 3670SOL    HW2 2293   4.018   2.723   2.055
 3673SOL     OW 2294   3.926   2.147   3.360
 3673SOL    HW1 2295   3.846   2.207   3.347
 3673SOL    HW2 2296   3.916   2.098   3.446
 3677SOL     OW 2297   4.106   2.562   2.342
 3677SOL    HW1 2298   4.151   2.472   2.339
 3677SOL    HW2 2299   4.012   2.551   2.375
 3684SOL     OW 2300   4.021   1.897   2.033
 3684SOL    HW1 2301   4.070   1.981   2.012
 3684SOL    HW2 2302   4.083   1.832   2.078
 3688SOL     OW 2303   4.183   3.014   2.603
 3688SOL    HW1 2304   4.112   2.987   2.668
 3688SOL    HW2 2305   4.157   2.986   2.510
 3691SOL     OW 2306   3.802   2.418   3.248
 3691SOL    HW1 2307   3.894   2.417   3.207
 3691SOL    HW2 2308   3.796   2.492   3.315
 3702SOL     OW 2309   4.134   2.675   3.113
 3702SOL    HW1 2310   4.220   2.687   3.163
 3702SOL    HW2 2311   4.092   2.588   3.140
 3704SOL     OW 2312   3.788   3.426   3.193
 3704SOL    HW1 2313   3.742   3.508   3.159
 3704SOL    HW2 2314   3.886   3.445   3.202
 3705SOL     OW 2315   4.091   2.962   2.363
 3705SOL    HW1 2316   4.084   3.045   2.307
 3705SOL    HW2 2317   4.095   2.882   2.303
 3706SOL     OW 2318   4.290   2.399   2.727
 3706SOL    HW1 2319   4.302   2.465   2.653
 3706SOL    HW2 2320   4.336   2.433   2.810
 3715SOL     OW 2321   4.031   2.075   3.093
 3715SOL    HW1 2322   4.008   2.112   3.183
 3715SOL    HW2 2323   4.001   1.980   3.087
 3716SOL     OW 2324   3.761   3.172   3.144
 3716SOL    HW1 2325   3.814   3.123   3.212
 3716SOL    HW2 2326   3.783   3.270   3.149
 3718SOL     OW 2327   4.031   1.925   2.480
 3718SOL    HW1 2328   4.020   2.019   2.513
 3718SOL    HW2 2329   4.026   1.862   2.557
 3725SOL     OW 2330   4.043   2.672   2.811
 3725SOL    HW1 2331   4.136   2.708   2.816
 3725SOL    HW2 2332   4.037   2.587   2.863
 3726SOL     OW 2333   4.063   2.371   2.868
 3726SOL    HW1 2334   4.011   2.288   2.851
 3726SOL    HW2 2335   4.140   2.376   2.804
 3729SOL     OW 2336   3.732   3.188   2.062
 3729SOL    HW1 2337   3.639   3.209   2.031
 3729SOL    HW2 2338   3.742   3.089   2.075
 3730SOL     OW 2339   3.812   3.663   2.789
 3730SOL    HW1 2340   3.770   3.577   2.762
 3730SOL    HW2 2341   3.906   3.666   2.755
 3733SOL     OW 2342   3.764   2.406   2.976
 3733SOL    HW1 2343   3.849   2.373   2.935
 3733SOL    HW2 2344   3.777   2.421   3.074
 3734SOL     OW 2345   3.913   2.382   3.584
 3734SOL    HW1 2346   3.972   2.342   3.514
 3734SOL    HW2 2347   3.855   2.453   3.543
 3739SOL     OW 2348   4.197   2.362   2.053
 3739SOL    HW1 2349   4.258   2.442   2.057
 3739SOL    HW2 2350   4.102   2.393   2.060
 3740SOL     OW 2351   3.883   2.999   3.328
 3740SOL    HW1 2352   3.905   2.938   3.404
 3740SOL    HW2 2353   3.893   2.950   3.242
 3743SOL     OW 2354   3.807   3.120   2.884
 3743SOL    HW1 2355   3.802   3.119   2.984
 3743SOL    HW2 2356   3.724   3.079   2.846
 3749SOL     OW 2357   3.987   2.188   2.582
 3749SOL    HW1 2358   3.908   2.239   2.548
 3749SOL    HW2 2359   3.978   2.173   2.680
 3757SOL     OW 2360   3.979   3.210   2.152
 3757SOL    HW1 2361   3.883   3.211   2.125
 3757SOL    HW2 2362   3.991   3.263   2.236
 3758SOL     OW 2363   3.829   2.875   3.588
 3758SOL    HW1 2364   3.752   2.842   3.642
 3758SOL    HW2 2365   3.914   2.845   3.630
 3760SOL     OW 2366   3.799   2.207   1.895
 3760SOL    HW1 2367   3.707   2.179   1.866
 3760SOL    HW2 2368   3.830   2.284   1.839
 3761SOL     OW 2369   3.796   2.028   2.180
 3761SOL    HW1 2370   3.779   2.111   2.126
 3761SOL    HW2 2371   3.886   1.991   2.158
 3765SOL     OW 2372   4.318   2.607   2.514
 3765SOL    HW1 2373   4.368   2.692   2.495
 3765SOL    HW2 2374   4.230   2.609   2.466
 3771SOL     OW 2375   3.803   3.102   2.515
 3771SOL    HW1 2376   3.802   3.055   2.603
 3771SOL    HW2 2377   3.885   3.074   2.464
 3773SOL     OW 2378   4.152   2.286   2.382
 3773SOL    HW1 2379   4.182   2.214   2.320
 3773SOL    HW2 2380   4.113   2.246   2.465
 3774SOL     OW 2381   4.041   2.409   3.142
 3774SOL    HW1 2382   4.079   2.350   3.214
 3774SOL    HW2 2383   4.081   2.383   3.054
 3779SOL     OW 2384   3.763   2.939   2.162
 3779SOL    HW1 2385   3.862   2.928   2.153
 3779SOL    HW2 2386   3.723   2.853   2.194
   5.04933   5.04933   5.04933
