; mobley_3167746_GMX.itp created by acpype (v: 2023.10.27) on Thu May 21 00:26:47 2026

[ atomtypes ]
;name   bond_type     mass     charge   ptype   sigma         epsilon       Amb
 c3       c3          0.00000  0.00000   A     3.39771e-01   4.51035e-01 ; 1.91  0.1078
 hc       hc          0.00000  0.00000   A     2.60018e-01   8.70272e-02 ; 1.46  0.0208

[ moleculetype ]
;name            nrexcl
 mobley_3167746   3

[ atoms ]
;   nr  type  resi  res  atom  cgnr     charge      mass       ; qtot   bond_type
     1   c3     1   MOL    C1    1    -0.095100     12.01000 ; qtot -0.095
     2   c3     1   MOL    C2    2    -0.095100     12.01000 ; qtot -0.190
     3   c3     1   MOL    C3    3    -0.080400     12.01000 ; qtot -0.271
     4   c3     1   MOL    C4    4    -0.080400     12.01000 ; qtot -0.351
     5   c3     1   MOL    C5    5    -0.079400     12.01000 ; qtot -0.430
     6   c3     1   MOL    C6    6    -0.079400     12.01000 ; qtot -0.510
     7   c3     1   MOL    C7    7    -0.079400     12.01000 ; qtot -0.589
     8   c3     1   MOL    C8    8    -0.079400     12.01000 ; qtot -0.669
     9   hc     1   MOL    H1    9     0.032700      1.00800 ; qtot -0.636
    10   hc     1   MOL    H2   10     0.032700      1.00800 ; qtot -0.603
    11   hc     1   MOL    H3   11     0.032700      1.00800 ; qtot -0.571
    12   hc     1   MOL    H4   12     0.032700      1.00800 ; qtot -0.538
    13   hc     1   MOL    H5   13     0.032700      1.00800 ; qtot -0.505
    14   hc     1   MOL    H6   14     0.032700      1.00800 ; qtot -0.472
    15   hc     1   MOL    H7   15     0.038700      1.00800 ; qtot -0.434
    16   hc     1   MOL    H8   16     0.038700      1.00800 ; qtot -0.395
    17   hc     1   MOL    H9   17     0.038700      1.00800 ; qtot -0.356
    18   hc     1   MOL   H10   18     0.038700      1.00800 ; qtot -0.318
    19   hc     1   MOL   H11   19     0.039700      1.00800 ; qtot -0.278
    20   hc     1   MOL   H12   20     0.039700      1.00800 ; qtot -0.238
    21   hc     1   MOL   H13   21     0.039700      1.00800 ; qtot -0.199
    22   hc     1   MOL   H14   22     0.039700      1.00800 ; qtot -0.159
    23   hc     1   MOL   H15   23     0.039700      1.00800 ; qtot -0.119
    24   hc     1   MOL   H16   24     0.039700      1.00800 ; qtot -0.079
    25   hc     1   MOL   H17   25     0.039700      1.00800 ; qtot -0.040
    26   hc     1   MOL   H18   26     0.039700      1.00800 ; qtot -0.000

[ bonds ]
;   ai     aj funct   r             k
     1      3   1    1.5354e-01    1.9154e+05 ;     C1 - C3    
     1      9   1    1.0962e-01    2.8891e+05 ;     C1 - H1    
     1     10   1    1.0962e-01    2.8891e+05 ;     C1 - H2    
     1     11   1    1.0962e-01    2.8891e+05 ;     C1 - H3    
     2      4   1    1.5354e-01    1.9154e+05 ;     C2 - C4    
     2     12   1    1.0962e-01    2.8891e+05 ;     C2 - H4    
     2     13   1    1.0962e-01    2.8891e+05 ;     C2 - H5    
     2     14   1    1.0962e-01    2.8891e+05 ;     C2 - H6    
     3      5   1    1.5354e-01    1.9154e+05 ;     C3 - C5    
     3     15   1    1.0962e-01    2.8891e+05 ;     C3 - H7    
     3     16   1    1.0962e-01    2.8891e+05 ;     C3 - H8    
     4      6   1    1.5354e-01    1.9154e+05 ;     C4 - C6    
     4     17   1    1.0962e-01    2.8891e+05 ;     C4 - H9    
     4     18   1    1.0962e-01    2.8891e+05 ;     C4 - H10   
     5      7   1    1.5354e-01    1.9154e+05 ;     C5 - C7    
     5     19   1    1.0962e-01    2.8891e+05 ;     C5 - H11   
     5     20   1    1.0962e-01    2.8891e+05 ;     C5 - H12   
     6      8   1    1.5354e-01    1.9154e+05 ;     C6 - C8    
     6     21   1    1.0962e-01    2.8891e+05 ;     C6 - H13   
     6     22   1    1.0962e-01    2.8891e+05 ;     C6 - H14   
     7      8   1    1.5354e-01    1.9154e+05 ;     C7 - C8    
     7     23   1    1.0962e-01    2.8891e+05 ;     C7 - H15   
     7     24   1    1.0962e-01    2.8891e+05 ;     C7 - H16   
     8     25   1    1.0962e-01    2.8891e+05 ;     C8 - H17   
     8     26   1    1.0962e-01    2.8891e+05 ;     C8 - H18   

[ pairs ]
;   ai     aj    funct
     1      7      1 ;     C1 - C7    
     1     19      1 ;     C1 - H11   
     1     20      1 ;     C1 - H12   
     2      8      1 ;     C2 - C8    
     2     21      1 ;     C2 - H13   
     2     22      1 ;     C2 - H14   
     3      8      1 ;     C3 - C8    
     3     23      1 ;     C3 - H15   
     3     24      1 ;     C3 - H16   
     4      7      1 ;     C4 - C7    
     4     25      1 ;     C4 - H17   
     4     26      1 ;     C4 - H18   
     5      6      1 ;     C5 - C6    
     5     25      1 ;     C5 - H17   
     5     26      1 ;     C5 - H18   
     6     12      1 ;     C6 - H4    
     6     13      1 ;     C6 - H5    
     6     14      1 ;     C6 - H6    
     6     23      1 ;     C6 - H15   
     6     24      1 ;     C6 - H16   
     7     15      1 ;     C7 - H7    
     7     16      1 ;     C7 - H8    
     7     21      1 ;     C7 - H13   
     7     22      1 ;     C7 - H14   
     8     17      1 ;     C8 - H9    
     8     18      1 ;     C8 - H10   
     8     19      1 ;     C8 - H11   
     8     20      1 ;     C8 - H12   
     9      5      1 ;     H1 - C5    
     9     15      1 ;     H1 - H7    
     9     16      1 ;     H1 - H8    
    10      5      1 ;     H2 - C5    
    10     15      1 ;     H2 - H7    
    10     16      1 ;     H2 - H8    
    11      5      1 ;     H3 - C5    
    11     15      1 ;     H3 - H7    
    11     16      1 ;     H3 - H8    
    12     17      1 ;     H4 - H9    
    12     18      1 ;     H4 - H10   
    13     17      1 ;     H5 - H9    
    13     18      1 ;     H5 - H10   
    14     17      1 ;     H6 - H9    
    14     18      1 ;     H6 - H10   
    15     19      1 ;     H7 - H11   
    15     20      1 ;     H7 - H12   
    16     19      1 ;     H8 - H11   
    16     20      1 ;     H8 - H12   
    17     21      1 ;     H9 - H13   
    17     22      1 ;     H9 - H14   
    18     21      1 ;    H10 - H13   
    18     22      1 ;    H10 - H14   
    19     23      1 ;    H11 - H15   
    19     24      1 ;    H11 - H16   
    20     23      1 ;    H12 - H15   
    20     24      1 ;    H12 - H16   
    21     25      1 ;    H13 - H17   
    21     26      1 ;    H13 - H18   
    22     25      1 ;    H14 - H17   
    22     26      1 ;    H14 - H18   
    23     25      1 ;    H15 - H17   
    23     26      1 ;    H15 - H18   
    24     25      1 ;    H16 - H17   
    24     26      1 ;    H16 - H18   

[ angles ]
;   ai     aj     ak    funct   theta         cth
     1      3      5      1    1.1263e+02    5.0099e+02 ;     C1 - C3     - C5    
     1      3     15      1    1.0968e+02    3.6208e+02 ;     C1 - C3     - H7    
     1      3     16      1    1.0968e+02    3.6208e+02 ;     C1 - C3     - H8    
     2      4      6      1    1.1263e+02    5.0099e+02 ;     C2 - C4     - C6    
     2      4     17      1    1.0968e+02    3.6208e+02 ;     C2 - C4     - H9    
     2      4     18      1    1.0968e+02    3.6208e+02 ;     C2 - C4     - H10   
     3      1      9      1    1.0968e+02    3.6208e+02 ;     C3 - C1     - H1    
     3      1     10      1    1.0968e+02    3.6208e+02 ;     C3 - C1     - H2    
     3      1     11      1    1.0968e+02    3.6208e+02 ;     C3 - C1     - H3    
     3      5      7      1    1.1263e+02    5.0099e+02 ;     C3 - C5     - C7    
     3      5     19      1    1.0968e+02    3.6208e+02 ;     C3 - C5     - H11   
     3      5     20      1    1.0968e+02    3.6208e+02 ;     C3 - C5     - H12   
     4      2     12      1    1.0968e+02    3.6208e+02 ;     C4 - C2     - H4    
     4      2     13      1    1.0968e+02    3.6208e+02 ;     C4 - C2     - H5    
     4      2     14      1    1.0968e+02    3.6208e+02 ;     C4 - C2     - H6    
     4      6      8      1    1.1263e+02    5.0099e+02 ;     C4 - C6     - C8    
     4      6     21      1    1.0968e+02    3.6208e+02 ;     C4 - C6     - H13   
     4      6     22      1    1.0968e+02    3.6208e+02 ;     C4 - C6     - H14   
     5      3     15      1    1.0968e+02    3.6208e+02 ;     C5 - C3     - H7    
     5      3     16      1    1.0968e+02    3.6208e+02 ;     C5 - C3     - H8    
     5      7      8      1    1.1263e+02    5.0099e+02 ;     C5 - C7     - C8    
     5      7     23      1    1.0968e+02    3.6208e+02 ;     C5 - C7     - H15   
     5      7     24      1    1.0968e+02    3.6208e+02 ;     C5 - C7     - H16   
     6      4     17      1    1.0968e+02    3.6208e+02 ;     C6 - C4     - H9    
     6      4     18      1    1.0968e+02    3.6208e+02 ;     C6 - C4     - H10   
     6      8      7      1    1.1263e+02    5.0099e+02 ;     C6 - C8     - C7    
     6      8     25      1    1.0968e+02    3.6208e+02 ;     C6 - C8     - H17   
     6      8     26      1    1.0968e+02    3.6208e+02 ;     C6 - C8     - H18   
     7      5     19      1    1.0968e+02    3.6208e+02 ;     C7 - C5     - H11   
     7      5     20      1    1.0968e+02    3.6208e+02 ;     C7 - C5     - H12   
     7      8     25      1    1.0968e+02    3.6208e+02 ;     C7 - C8     - H17   
     7      8     26      1    1.0968e+02    3.6208e+02 ;     C7 - C8     - H18   
     8      6     21      1    1.0968e+02    3.6208e+02 ;     C8 - C6     - H13   
     8      6     22      1    1.0968e+02    3.6208e+02 ;     C8 - C6     - H14   
     8      7     23      1    1.0968e+02    3.6208e+02 ;     C8 - C7     - H15   
     8      7     24      1    1.0968e+02    3.6208e+02 ;     C8 - C7     - H16   
     9      1     10      1    1.0773e+02    2.9957e+02 ;     H1 - C1     - H2    
     9      1     11      1    1.0773e+02    2.9957e+02 ;     H1 - C1     - H3    
    10      1     11      1    1.0773e+02    2.9957e+02 ;     H2 - C1     - H3    
    12      2     13      1    1.0773e+02    2.9957e+02 ;     H4 - C2     - H5    
    12      2     14      1    1.0773e+02    2.9957e+02 ;     H4 - C2     - H6    
    13      2     14      1    1.0773e+02    2.9957e+02 ;     H5 - C2     - H6    
    15      3     16      1    1.0773e+02    2.9957e+02 ;     H7 - C3     - H8    
    17      4     18      1    1.0773e+02    2.9957e+02 ;     H9 - C4     - H10   
    19      5     20      1    1.0773e+02    2.9957e+02 ;    H11 - C5     - H12   
    21      6     22      1    1.0773e+02    2.9957e+02 ;    H13 - C6     - H14   
    23      7     24      1    1.0773e+02    2.9957e+02 ;    H15 - C7     - H16   
    25      8     26      1    1.0773e+02    2.9957e+02 ;    H17 - C8     - H18   

[ dihedrals ] ; propers
; for gromacs 4.5 or higher, using funct 9
;    i      j      k      l   func   phase     kd      pn
     1      3      5      7      9     0.00   2.17568   3 ;     C1-    C3-    C5-    C7
     1      3      5     19      9     0.00   0.54392   3 ;     C1-    C3-    C5-   H11
     1      3      5     20      9     0.00   0.54392   3 ;     C1-    C3-    C5-   H12
     2      4      6      8      9     0.00   2.17568   3 ;     C2-    C4-    C6-    C8
     2      4      6     21      9     0.00   0.54392   3 ;     C2-    C4-    C6-   H13
     2      4      6     22      9     0.00   0.54392   3 ;     C2-    C4-    C6-   H14
     3      5      7      8      9     0.00   2.17568   3 ;     C3-    C5-    C7-    C8
     3      5      7     23      9     0.00   0.54392   3 ;     C3-    C5-    C7-   H15
     3      5      7     24      9     0.00   0.54392   3 ;     C3-    C5-    C7-   H16
     4      6      8      7      9     0.00   2.17568   3 ;     C4-    C6-    C8-    C7
     4      6      8     25      9     0.00   0.54392   3 ;     C4-    C6-    C8-   H17
     4      6      8     26      9     0.00   0.54392   3 ;     C4-    C6-    C8-   H18
     5      7      8      6      9     0.00   2.17568   3 ;     C5-    C7-    C8-    C6
     5      7      8     25      9     0.00   0.54392   3 ;     C5-    C7-    C8-   H17
     5      7      8     26      9     0.00   0.54392   3 ;     C5-    C7-    C8-   H18
     6      4      2     12      9     0.00   0.54392   3 ;     C6-    C4-    C2-    H4
     6      4      2     13      9     0.00   0.54392   3 ;     C6-    C4-    C2-    H5
     6      4      2     14      9     0.00   0.54392   3 ;     C6-    C4-    C2-    H6
     6      8      7     23      9     0.00   0.54392   3 ;     C6-    C8-    C7-   H15
     6      8      7     24      9     0.00   0.54392   3 ;     C6-    C8-    C7-   H16
     7      5      3     15      9     0.00   0.54392   3 ;     C7-    C5-    C3-    H7
     7      5      3     16      9     0.00   0.54392   3 ;     C7-    C5-    C3-    H8
     7      8      6     21      9     0.00   0.54392   3 ;     C7-    C8-    C6-   H13
     7      8      6     22      9     0.00   0.54392   3 ;     C7-    C8-    C6-   H14
     8      6      4     17      9     0.00   0.54392   3 ;     C8-    C6-    C4-    H9
     8      6      4     18      9     0.00   0.54392   3 ;     C8-    C6-    C4-   H10
     8      7      5     19      9     0.00   0.54392   3 ;     C8-    C7-    C5-   H11
     8      7      5     20      9     0.00   0.54392   3 ;     C8-    C7-    C5-   H12
     9      1      3      5      9     0.00   0.54392   3 ;     H1-    C1-    C3-    C5
     9      1      3     15      9     0.00   0.50208   3 ;     H1-    C1-    C3-    H7
     9      1      3     16      9     0.00   0.50208   3 ;     H1-    C1-    C3-    H8
    10      1      3      5      9     0.00   0.54392   3 ;     H2-    C1-    C3-    C5
    10      1      3     15      9     0.00   0.50208   3 ;     H2-    C1-    C3-    H7
    10      1      3     16      9     0.00   0.50208   3 ;     H2-    C1-    C3-    H8
    11      1      3      5      9     0.00   0.54392   3 ;     H3-    C1-    C3-    C5
    11      1      3     15      9     0.00   0.50208   3 ;     H3-    C1-    C3-    H7
    11      1      3     16      9     0.00   0.50208   3 ;     H3-    C1-    C3-    H8
    12      2      4     17      9     0.00   0.50208   3 ;     H4-    C2-    C4-    H9
    12      2      4     18      9     0.00   0.50208   3 ;     H4-    C2-    C4-   H10
    13      2      4     17      9     0.00   0.50208   3 ;     H5-    C2-    C4-    H9
    13      2      4     18      9     0.00   0.50208   3 ;     H5-    C2-    C4-   H10
    14      2      4     17      9     0.00   0.50208   3 ;     H6-    C2-    C4-    H9
    14      2      4     18      9     0.00   0.50208   3 ;     H6-    C2-    C4-   H10
    15      3      5     19      9     0.00   0.50208   3 ;     H7-    C3-    C5-   H11
    15      3      5     20      9     0.00   0.50208   3 ;     H7-    C3-    C5-   H12
    16      3      5     19      9     0.00   0.50208   3 ;     H8-    C3-    C5-   H11
    16      3      5     20      9     0.00   0.50208   3 ;     H8-    C3-    C5-   H12
    17      4      6     21      9     0.00   0.50208   3 ;     H9-    C4-    C6-   H13
    17      4      6     22      9     0.00   0.50208   3 ;     H9-    C4-    C6-   H14
    18      4      6     21      9     0.00   0.50208   3 ;    H10-    C4-    C6-   H13
    18      4      6     22      9     0.00   0.50208   3 ;    H10-    C4-    C6-   H14
    19      5      7     23      9     0.00   0.50208   3 ;    H11-    C5-    C7-   H15
    19      5      7     24      9     0.00   0.50208   3 ;    H11-    C5-    C7-   H16
    20      5      7     23      9     0.00   0.50208   3 ;    H12-    C5-    C7-   H15
    20      5      7     24      9     0.00   0.50208   3 ;    H12-    C5-    C7-   H16
    21      6      8     25      9     0.00   0.50208   3 ;    H13-    C6-    C8-   H17
    21      6      8     26      9     0.00   0.50208   3 ;    H13-    C6-    C8-   H18
    22      6      8     25      9     0.00   0.50208   3 ;    H14-    C6-    C8-   H17
    22      6      8     26      9     0.00   0.50208   3 ;    H14-    C6-    C8-   H18
    23      7      8     25      9     0.00   0.50208   3 ;    H15-    C7-    C8-   H17
    23      7      8     26      9     0.00   0.50208   3 ;    H15-    C7-    C8-   H18
    24      7      8     25      9     0.00   0.50208   3 ;    H16-    C7-    C8-   H17
    24      7      8     26      9     0.00   0.50208   3 ;    H16-    C7-    C8-   H18
