; mobley_8191186_GMX.itp created by acpype (v: 2023.10.27) on Thu May 21 00:21:56 2026

[ atomtypes ]
;name   bond_type     mass     charge   ptype   sigma         epsilon       Amb
 c3       c3          0.00000  0.00000   A     3.39771e-01   4.51035e-01 ; 1.91  0.1078
 f        f           0.00000  0.00000   A     3.03422e-01   3.48109e-01 ; 1.70  0.0832
 cl       cl          0.00000  0.00000   A     3.46595e-01   1.10374e+00 ; 1.95  0.2638
 h1       h1          0.00000  0.00000   A     2.42200e-01   8.70272e-02 ; 1.36  0.0208

[ moleculetype ]
;name            nrexcl
 mobley_8191186   3

[ atoms ]
;   nr  type  resi  res  atom  cgnr     charge      mass       ; qtot   bond_type
     1   c3     1   MOL    C1    1    -0.030000     12.01000 ; qtot -0.030
     2   c3     1   MOL    C2    2     0.626901     12.01000 ; qtot 0.597
     3    f     1   MOL    F1    3    -0.229967     19.00000 ; qtot 0.367
     4    f     1   MOL    F2    4    -0.229967     19.00000 ; qtot 0.137
     5    f     1   MOL    F3    5    -0.229967     19.00000 ; qtot -0.093
     6   cl     1   MOL   CL1    6    -0.114400     35.45000 ; qtot -0.207
     7   h1     1   MOL    H1    7     0.103700      1.00800 ; qtot -0.104
     8   h1     1   MOL    H2    8     0.103700      1.00800 ; qtot -0.000

[ bonds ]
;   ai     aj funct   r             k
     1      2   1    1.5354e-01    1.9154e+05 ;     C1 - C2    
     1      6   1    1.8092e-01    1.3724e+05 ;     C1 - CL1   
     1      7   1    1.0969e-01    2.8804e+05 ;     C1 - H1    
     1      8   1    1.0969e-01    2.8804e+05 ;     C1 - H2    
     2      3   1    1.3512e-01    2.7973e+05 ;     C2 - F1    
     2      4   1    1.3512e-01    2.7973e+05 ;     C2 - F2    
     2      5   1    1.3512e-01    2.7973e+05 ;     C2 - F3    

[ pairs ]
;   ai     aj    funct
     6      3      1 ;    CL1 - F1    
     6      4      1 ;    CL1 - F2    
     6      5      1 ;    CL1 - F3    
     7      3      1 ;     H1 - F1    
     7      4      1 ;     H1 - F2    
     7      5      1 ;     H1 - F3    
     8      3      1 ;     H2 - F1    
     8      4      1 ;     H2 - F2    
     8      5      1 ;     H2 - F3    

[ angles ]
;   ai     aj     ak    funct   theta         cth
     1      2      3      1    1.0948e+02    6.6408e+02 ;     C1 - C2     - F1    
     1      2      4      1    1.0948e+02    6.6408e+02 ;     C1 - C2     - F2    
     1      2      5      1    1.0948e+02    6.6408e+02 ;     C1 - C2     - F3    
     2      1      6      1    1.1039e+02    5.3254e+02 ;     C2 - C1     - CL1   
     2      1      7      1    1.0959e+02    3.6217e+02 ;     C2 - C1     - H1    
     2      1      8      1    1.0959e+02    3.6217e+02 ;     C2 - C1     - H2    
     3      2      4      1    1.0737e+02    8.9437e+02 ;     F1 - C2     - F2    
     3      2      5      1    1.0737e+02    8.9437e+02 ;     F1 - C2     - F3    
     4      2      5      1    1.0737e+02    8.9437e+02 ;     F2 - C2     - F3    
     6      1      7      1    1.0682e+02    3.6183e+02 ;    CL1 - C1     - H1    
     6      1      8      1    1.0682e+02    3.6183e+02 ;    CL1 - C1     - H2    
     7      1      8      1    1.0855e+02    2.9824e+02 ;     H1 - C1     - H2    

[ dihedrals ] ; propers
; for gromacs 4.5 or higher, using funct 9
;    i      j      k      l   func   phase     kd      pn
     6      1      2      3      9     0.00   0.65084   3 ;    CL1-    C1-    C2-    F1
     6      1      2      4      9     0.00   0.65084   3 ;    CL1-    C1-    C2-    F2
     6      1      2      5      9     0.00   0.65084   3 ;    CL1-    C1-    C2-    F3
     7      1      2      3      9     0.00   0.00000   0 ;     H1-    C1-    C2-    F1
     7      1      2      3      9     0.00   0.79496   1 ;     H1-    C1-    C2-    F1
     7      1      2      4      9     0.00   0.00000   0 ;     H1-    C1-    C2-    F2
     7      1      2      4      9     0.00   0.79496   1 ;     H1-    C1-    C2-    F2
     7      1      2      5      9     0.00   0.00000   0 ;     H1-    C1-    C2-    F3
     7      1      2      5      9     0.00   0.79496   1 ;     H1-    C1-    C2-    F3
     8      1      2      3      9     0.00   0.00000   0 ;     H2-    C1-    C2-    F1
     8      1      2      3      9     0.00   0.79496   1 ;     H2-    C1-    C2-    F1
     8      1      2      4      9     0.00   0.00000   0 ;     H2-    C1-    C2-    F2
     8      1      2      4      9     0.00   0.79496   1 ;     H2-    C1-    C2-    F2
     8      1      2      5      9     0.00   0.00000   0 ;     H2-    C1-    C2-    F3
     8      1      2      5      9     0.00   0.79496   1 ;     H2-    C1-    C2-    F3
