; mobley_4043951_GMX.itp created by acpype (v: 2023.10.27) on Thu May 21 00:10:53 2026

[ atomtypes ]
;name   bond_type     mass     charge   ptype   sigma         epsilon       Amb
 c2       c2          0.00000  0.00000   A     3.31521e-01   4.13379e-01 ; 1.86  0.0988
 c3       c3          0.00000  0.00000   A     3.39771e-01   4.51035e-01 ; 1.91  0.1078
 ha       ha          0.00000  0.00000   A     2.62548e-01   6.73624e-02 ; 1.47  0.0161
 hc       hc          0.00000  0.00000   A     2.60018e-01   8.70272e-02 ; 1.46  0.0208

[ moleculetype ]
;name            nrexcl
 mobley_4043951   3

[ atoms ]
;   nr  type  resi  res  atom  cgnr     charge      mass       ; qtot   bond_type
     1   c2     1   MOL    C1    1    -0.225999     12.01000 ; qtot -0.226
     2   c2     1   MOL    C2    2    -0.164200     12.01000 ; qtot -0.390
     3   c3     1   MOL    C3    3    -0.093100     12.01000 ; qtot -0.483
     4   c3     1   MOL    C4    4    -0.052200     12.01000 ; qtot -0.535
     5   c3     1   MOL    C5    5    -0.077400     12.01000 ; qtot -0.613
     6   ha     1   MOL    H1    6     0.110500      1.00800 ; qtot -0.502
     7   ha     1   MOL    H2    7     0.110500      1.00800 ; qtot -0.392
     8   ha     1   MOL    H3    8     0.118000      1.00800 ; qtot -0.274
     9   hc     1   MOL    H4    9     0.033033      1.00800 ; qtot -0.241
    10   hc     1   MOL    H5   10     0.033033      1.00800 ; qtot -0.208
    11   hc     1   MOL    H6   11     0.033033      1.00800 ; qtot -0.175
    12   hc     1   MOL    H7   12     0.046700      1.00800 ; qtot -0.128
    13   hc     1   MOL    H8   13     0.046700      1.00800 ; qtot -0.081
    14   hc     1   MOL    H9   14     0.040700      1.00800 ; qtot -0.041
    15   hc     1   MOL   H10   15     0.040700      1.00800 ; qtot -0.000

[ bonds ]
;   ai     aj funct   r             k
     1      2   1    1.3379e-01    3.6484e+05 ;     C1 - C2    
     1      6   1    1.0882e-01    2.9898e+05 ;     C1 - H1    
     1      7   1    1.0882e-01    2.9898e+05 ;     C1 - H2    
     2      4   1    1.5088e-01    2.0786e+05 ;     C2 - C4    
     2      8   1    1.0882e-01    2.9898e+05 ;     C2 - H3    
     3      5   1    1.5354e-01    1.9154e+05 ;     C3 - C5    
     3      9   1    1.0962e-01    2.8891e+05 ;     C3 - H4    
     3     10   1    1.0962e-01    2.8891e+05 ;     C3 - H5    
     3     11   1    1.0962e-01    2.8891e+05 ;     C3 - H6    
     4      5   1    1.5354e-01    1.9154e+05 ;     C4 - C5    
     4     12   1    1.0962e-01    2.8891e+05 ;     C4 - H7    
     4     13   1    1.0962e-01    2.8891e+05 ;     C4 - H8    
     5     14   1    1.0962e-01    2.8891e+05 ;     C5 - H9    
     5     15   1    1.0962e-01    2.8891e+05 ;     C5 - H10   

[ pairs ]
;   ai     aj    funct
     1      5      1 ;     C1 - C5    
     1     12      1 ;     C1 - H7    
     1     13      1 ;     C1 - H8    
     2      3      1 ;     C2 - C3    
     2     14      1 ;     C2 - H9    
     2     15      1 ;     C2 - H10   
     3     12      1 ;     C3 - H7    
     3     13      1 ;     C3 - H8    
     4      9      1 ;     C4 - H4    
     4     10      1 ;     C4 - H5    
     4     11      1 ;     C4 - H6    
     5      8      1 ;     C5 - H3    
     6      4      1 ;     H1 - C4    
     6      8      1 ;     H1 - H3    
     7      4      1 ;     H2 - C4    
     7      8      1 ;     H2 - H3    
     8     12      1 ;     H3 - H7    
     8     13      1 ;     H3 - H8    
     9     14      1 ;     H4 - H9    
     9     15      1 ;     H4 - H10   
    10     14      1 ;     H5 - H9    
    10     15      1 ;     H5 - H10   
    11     14      1 ;     H6 - H9    
    11     15      1 ;     H6 - H10   
    12     14      1 ;     H7 - H9    
    12     15      1 ;     H7 - H10   
    13     14      1 ;     H8 - H9    
    13     15      1 ;     H8 - H10   

[ angles ]
;   ai     aj     ak    funct   theta         cth
     1      2      4      1    1.2495e+02    5.0944e+02 ;     C1 - C2     - C4    
     1      2      8      1    1.2039e+02    3.8802e+02 ;     C1 - C2     - H3    
     2      1      6      1    1.2039e+02    3.8802e+02 ;     C2 - C1     - H1    
     2      1      7      1    1.2039e+02    3.8802e+02 ;     C2 - C1     - H2    
     2      4      5      1    1.1258e+02    5.0543e+02 ;     C2 - C4     - C5    
     2      4     12      1    1.1065e+02    3.6618e+02 ;     C2 - C4     - H7    
     2      4     13      1    1.1065e+02    3.6618e+02 ;     C2 - C4     - H8    
     3      5      4      1    1.1263e+02    5.0099e+02 ;     C3 - C5     - C4    
     3      5     14      1    1.0968e+02    3.6208e+02 ;     C3 - C5     - H9    
     3      5     15      1    1.0968e+02    3.6208e+02 ;     C3 - C5     - H10   
     4      2      8      1    1.1505e+02    3.5941e+02 ;     C4 - C2     - H3    
     4      5     14      1    1.0968e+02    3.6208e+02 ;     C4 - C5     - H9    
     4      5     15      1    1.0968e+02    3.6208e+02 ;     C4 - C5     - H10   
     5      3      9      1    1.0968e+02    3.6208e+02 ;     C5 - C3     - H4    
     5      3     10      1    1.0968e+02    3.6208e+02 ;     C5 - C3     - H5    
     5      3     11      1    1.0968e+02    3.6208e+02 ;     C5 - C3     - H6    
     5      4     12      1    1.0968e+02    3.6208e+02 ;     C5 - C4     - H7    
     5      4     13      1    1.0968e+02    3.6208e+02 ;     C5 - C4     - H8    
     6      1      7      1    1.1666e+02    2.9003e+02 ;     H1 - C1     - H2    
     9      3     10      1    1.0773e+02    2.9957e+02 ;     H4 - C3     - H5    
     9      3     11      1    1.0773e+02    2.9957e+02 ;     H4 - C3     - H6    
    10      3     11      1    1.0773e+02    2.9957e+02 ;     H5 - C3     - H6    
    12      4     13      1    1.0773e+02    2.9957e+02 ;     H7 - C4     - H8    
    14      5     15      1    1.0773e+02    2.9957e+02 ;     H9 - C5     - H10   

[ dihedrals ] ; propers
; for gromacs 4.5 or higher, using funct 9
;    i      j      k      l   func   phase     kd      pn
     1      2      4      5      9     0.00   0.00000   0 ;     C1-    C2-    C4-    C5
     1      2      4     12      9   180.00   1.08784   3 ;     C1-    C2-    C4-    H7
     1      2      4     13      9   180.00   1.08784   3 ;     C1-    C2-    C4-    H8
     2      4      5      3      9     0.00   0.65084   3 ;     C2-    C4-    C5-    C3
     2      4      5     14      9     0.00   0.65084   3 ;     C2-    C4-    C5-    H9
     2      4      5     15      9     0.00   0.65084   3 ;     C2-    C4-    C5-   H10
     3      5      4     12      9     0.00   0.54392   3 ;     C3-    C5-    C4-    H7
     3      5      4     13      9     0.00   0.54392   3 ;     C3-    C5-    C4-    H8
     4      5      3      9      9     0.00   0.54392   3 ;     C4-    C5-    C3-    H4
     4      5      3     10      9     0.00   0.54392   3 ;     C4-    C5-    C3-    H5
     4      5      3     11      9     0.00   0.54392   3 ;     C4-    C5-    C3-    H6
     5      4      2      8      9     0.00   0.00000   0 ;     C5-    C4-    C2-    H3
     6      1      2      4      9   180.00  27.82360   2 ;     H1-    C1-    C2-    C4
     6      1      2      8      9   180.00  27.82360   2 ;     H1-    C1-    C2-    H3
     7      1      2      4      9   180.00  27.82360   2 ;     H2-    C1-    C2-    C4
     7      1      2      8      9   180.00  27.82360   2 ;     H2-    C1-    C2-    H3
     8      2      4     12      9     0.00   0.00000   0 ;     H3-    C2-    C4-    H7
     8      2      4     13      9     0.00   0.00000   0 ;     H3-    C2-    C4-    H8
     9      3      5     14      9     0.00   0.50208   3 ;     H4-    C3-    C5-    H9
     9      3      5     15      9     0.00   0.50208   3 ;     H4-    C3-    C5-   H10
    10      3      5     14      9     0.00   0.50208   3 ;     H5-    C3-    C5-    H9
    10      3      5     15      9     0.00   0.50208   3 ;     H5-    C3-    C5-   H10
    11      3      5     14      9     0.00   0.50208   3 ;     H6-    C3-    C5-    H9
    11      3      5     15      9     0.00   0.50208   3 ;     H6-    C3-    C5-   H10
    12      4      5     14      9     0.00   0.50208   3 ;     H7-    C4-    C5-    H9
    12      4      5     15      9     0.00   0.50208   3 ;     H7-    C4-    C5-   H10
    13      4      5     14      9     0.00   0.50208   3 ;     H8-    C4-    C5-    H9
    13      4      5     15      9     0.00   0.50208   3 ;     H8-    C4-    C5-   H10

[ dihedrals ] ; impropers
; treated as propers in GROMACS to use correct AMBER analytical function
;    i      j      k      l   func   phase     kd      pn
     1      4      2      8      4   180.00   4.60240   2 ;     C1-    C4-    C2-    H3
     7      1      6      2      4   180.00   4.60240   2 ;     H2-    C1-    H1-    C2
