; mobley_6198745_GMX.itp created by acpype (v: 2023.10.27) on Thu May 21 00:15:57 2026

[ atomtypes ]
;name   bond_type     mass     charge   ptype   sigma         epsilon       Amb
 c        c           0.00000  0.00000   A     3.31521e-01   4.13379e-01 ; 1.86  0.0988
 c3       c3          0.00000  0.00000   A     3.39771e-01   4.51035e-01 ; 1.91  0.1078
 o        o           0.00000  0.00000   A     3.04812e-01   6.12119e-01 ; 1.71  0.1463
 os       os          0.00000  0.00000   A     3.15610e-01   3.03758e-01 ; 1.77  0.0726
 hc       hc          0.00000  0.00000   A     2.60018e-01   8.70272e-02 ; 1.46  0.0208
 h1       h1          0.00000  0.00000   A     2.42200e-01   8.70272e-02 ; 1.36  0.0208

[ moleculetype ]
;name            nrexcl
 mobley_6198745   3

[ atoms ]
;   nr  type  resi  res  atom  cgnr     charge      mass       ; qtot   bond_type
     1    c     1   MOL    C1    1     0.638600     12.01000 ; qtot 0.639
     2    c     1   MOL    C2    2     0.638600     12.01000 ; qtot 1.277
     3    c     1   MOL    C3    3     0.649101     12.01000 ; qtot 1.926
     4   c3     1   MOL    C4    4    -0.150100     12.01000 ; qtot 1.776
     5   c3     1   MOL    C5    5    -0.150100     12.01000 ; qtot 1.626
     6   c3     1   MOL    C6    6    -0.150100     12.01000 ; qtot 1.476
     7   c3     1   MOL    C7    7     0.124900     12.01000 ; qtot 1.601
     8   c3     1   MOL    C8    8     0.124900     12.01000 ; qtot 1.726
     9   c3     1   MOL    C9    9     0.115100     12.01000 ; qtot 1.841
    10    o     1   MOL    O1   10    -0.544000     16.00000 ; qtot 1.297
    11    o     1   MOL    O2   11    -0.544000     16.00000 ; qtot 0.753
    12    o     1   MOL    O3   12    -0.545000     16.00000 ; qtot 0.208
    13   os     1   MOL    O4   13    -0.441400     16.00000 ; qtot -0.233
    14   os     1   MOL    O5   14    -0.441400     16.00000 ; qtot -0.675
    15   os     1   MOL    O6   15    -0.440900     16.00000 ; qtot -1.116
    16   hc     1   MOL    H1   16     0.078033      1.00800 ; qtot -1.038
    17   hc     1   MOL    H2   17     0.078033      1.00800 ; qtot -0.960
    18   hc     1   MOL    H3   18     0.078033      1.00800 ; qtot -0.882
    19   hc     1   MOL    H4   19     0.078033      1.00800 ; qtot -0.804
    20   hc     1   MOL    H5   20     0.078033      1.00800 ; qtot -0.726
    21   hc     1   MOL    H6   21     0.078033      1.00800 ; qtot -0.648
    22   hc     1   MOL    H7   22     0.078367      1.00800 ; qtot -0.569
    23   hc     1   MOL    H8   23     0.078367      1.00800 ; qtot -0.491
    24   hc     1   MOL    H9   24     0.078367      1.00800 ; qtot -0.413
    25   h1     1   MOL   H10   25     0.074700      1.00800 ; qtot -0.338
    26   h1     1   MOL   H11   26     0.074700      1.00800 ; qtot -0.263
    27   h1     1   MOL   H12   27     0.074700      1.00800 ; qtot -0.188
    28   h1     1   MOL   H13   28     0.074700      1.00800 ; qtot -0.114
    29   h1     1   MOL   H14   29     0.113700      1.00800 ; qtot -0.000

[ bonds ]
;   ai     aj funct   r             k
     1      4   1    1.5270e-01    1.9652e+05 ;     C1 - C4    
     1     10   1    1.2190e-01    4.9421e+05 ;     C1 - O1    
     1     13   1    1.3621e-01    2.9398e+05 ;     C1 - O4    
     2      5   1    1.5270e-01    1.9652e+05 ;     C2 - C5    
     2     11   1    1.2190e-01    4.9421e+05 ;     C2 - O2    
     2     14   1    1.3621e-01    2.9398e+05 ;     C2 - O5    
     3      6   1    1.5270e-01    1.9652e+05 ;     C3 - C6    
     3     12   1    1.2190e-01    4.9421e+05 ;     C3 - O3    
     3     15   1    1.3621e-01    2.9398e+05 ;     C3 - O6    
     4     16   1    1.0962e-01    2.8891e+05 ;     C4 - H1    
     4     17   1    1.0962e-01    2.8891e+05 ;     C4 - H2    
     4     18   1    1.0962e-01    2.8891e+05 ;     C4 - H3    
     5     19   1    1.0962e-01    2.8891e+05 ;     C5 - H4    
     5     20   1    1.0962e-01    2.8891e+05 ;     C5 - H5    
     5     21   1    1.0962e-01    2.8891e+05 ;     C5 - H6    
     6     22   1    1.0962e-01    2.8891e+05 ;     C6 - H7    
     6     23   1    1.0962e-01    2.8891e+05 ;     C6 - H8    
     6     24   1    1.0962e-01    2.8891e+05 ;     C6 - H9    
     7      9   1    1.5354e-01    1.9154e+05 ;     C7 - C9    
     7     13   1    1.4273e-01    2.3620e+05 ;     C7 - O4    
     7     25   1    1.0969e-01    2.8804e+05 ;     C7 - H10   
     7     26   1    1.0969e-01    2.8804e+05 ;     C7 - H11   
     8      9   1    1.5354e-01    1.9154e+05 ;     C8 - C9    
     8     14   1    1.4273e-01    2.3620e+05 ;     C8 - O5    
     8     27   1    1.0969e-01    2.8804e+05 ;     C8 - H12   
     8     28   1    1.0969e-01    2.8804e+05 ;     C8 - H13   
     9     15   1    1.4273e-01    2.3620e+05 ;     C9 - O6    
     9     29   1    1.0969e-01    2.8804e+05 ;     C9 - H14   

[ pairs ]
;   ai     aj    funct
     1      9      1 ;     C1 - C9    
     1     25      1 ;     C1 - H10   
     1     26      1 ;     C1 - H11   
     2      9      1 ;     C2 - C9    
     2     27      1 ;     C2 - H12   
     2     28      1 ;     C2 - H13   
     3      7      1 ;     C3 - C7    
     3      8      1 ;     C3 - C8    
     3     29      1 ;     C3 - H14   
     4      7      1 ;     C4 - C7    
     5      8      1 ;     C5 - C8    
     6      9      1 ;     C6 - C9    
     7     14      1 ;     C7 - O5    
     7     27      1 ;     C7 - H12   
     7     28      1 ;     C7 - H13   
     8     11      1 ;     C8 - O2    
     8     13      1 ;     C8 - O4    
     8     25      1 ;     C8 - H10   
     8     26      1 ;     C8 - H11   
     9     12      1 ;     C9 - O3    
    10      7      1 ;     O1 - C7    
    10     16      1 ;     O1 - H1    
    10     17      1 ;     O1 - H2    
    10     18      1 ;     O1 - H3    
    11     19      1 ;     O2 - H4    
    11     20      1 ;     O2 - H5    
    11     21      1 ;     O2 - H6    
    12     22      1 ;     O3 - H7    
    12     23      1 ;     O3 - H8    
    12     24      1 ;     O3 - H9    
    13     15      1 ;     O4 - O6    
    13     16      1 ;     O4 - H1    
    13     17      1 ;     O4 - H2    
    13     18      1 ;     O4 - H3    
    13     29      1 ;     O4 - H14   
    14     15      1 ;     O5 - O6    
    14     19      1 ;     O5 - H4    
    14     20      1 ;     O5 - H5    
    14     21      1 ;     O5 - H6    
    14     29      1 ;     O5 - H14   
    15     22      1 ;     O6 - H7    
    15     23      1 ;     O6 - H8    
    15     24      1 ;     O6 - H9    
    15     25      1 ;     O6 - H10   
    15     26      1 ;     O6 - H11   
    15     27      1 ;     O6 - H12   
    15     28      1 ;     O6 - H13   
    25     29      1 ;    H10 - H14   
    26     29      1 ;    H11 - H14   
    27     29      1 ;    H12 - H14   
    28     29      1 ;    H13 - H14   

[ angles ]
;   ai     aj     ak    funct   theta         cth
     1      4     16      1    1.0895e+02    3.6510e+02 ;     C1 - C4     - H1    
     1      4     17      1    1.0895e+02    3.6510e+02 ;     C1 - C4     - H2    
     1      4     18      1    1.0895e+02    3.6510e+02 ;     C1 - C4     - H3    
     1     13      7      1    1.1582e+02    7.4835e+02 ;     C1 - O4     - C7    
     2      5     19      1    1.0895e+02    3.6510e+02 ;     C2 - C5     - H4    
     2      5     20      1    1.0895e+02    3.6510e+02 ;     C2 - C5     - H5    
     2      5     21      1    1.0895e+02    3.6510e+02 ;     C2 - C5     - H6    
     2     14      8      1    1.1582e+02    7.4835e+02 ;     C2 - O5     - C8    
     3      6     22      1    1.0895e+02    3.6510e+02 ;     C3 - C6     - H7    
     3      6     23      1    1.0895e+02    3.6510e+02 ;     C3 - C6     - H8    
     3      6     24      1    1.0895e+02    3.6510e+02 ;     C3 - C6     - H9    
     3     15      9      1    1.1582e+02    7.4835e+02 ;     C3 - O6     - C9    
     4      1     10      1    1.2290e+02    6.3973e+02 ;     C4 - C1     - O1    
     4      1     13      1    1.1080e+02    6.5245e+02 ;     C4 - C1     - O4    
     5      2     11      1    1.2290e+02    6.3973e+02 ;     C5 - C2     - O2    
     5      2     14      1    1.1080e+02    6.5245e+02 ;     C5 - C2     - O5    
     6      3     12      1    1.2290e+02    6.3973e+02 ;     C6 - C3     - O3    
     6      3     15      1    1.1080e+02    6.5245e+02 ;     C6 - C3     - O6    
     7      9      8      1    1.1263e+02    5.0099e+02 ;     C7 - C9     - C8    
     7      9     15      1    1.0762e+02    6.4802e+02 ;     C7 - C9     - O6    
     7      9     29      1    1.0959e+02    3.6217e+02 ;     C7 - C9     - H14   
     8      9     15      1    1.0762e+02    6.4802e+02 ;     C8 - C9     - O6    
     8      9     29      1    1.0959e+02    3.6217e+02 ;     C8 - C9     - H14   
     9      7     13      1    1.0762e+02    6.4802e+02 ;     C9 - C7     - O4    
     9      7     25      1    1.0959e+02    3.6217e+02 ;     C9 - C7     - H10   
     9      7     26      1    1.0959e+02    3.6217e+02 ;     C9 - C7     - H11   
     9      8     14      1    1.0762e+02    6.4802e+02 ;     C9 - C8     - O5    
     9      8     27      1    1.0959e+02    3.6217e+02 ;     C9 - C8     - H12   
     9      8     28      1    1.0959e+02    3.6217e+02 ;     C9 - C8     - H13   
    10      1     13      1    1.2320e+02    8.4734e+02 ;     O1 - C1     - O4    
    11      2     14      1    1.2320e+02    8.4734e+02 ;     O2 - C2     - O5    
    12      3     15      1    1.2320e+02    8.4734e+02 ;     O3 - C3     - O6    
    13      7     25      1    1.1034e+02    4.7028e+02 ;     O4 - C7     - H10   
    13      7     26      1    1.1034e+02    4.7028e+02 ;     O4 - C7     - H11   
    14      8     27      1    1.1034e+02    4.7028e+02 ;     O5 - C8     - H12   
    14      8     28      1    1.1034e+02    4.7028e+02 ;     O5 - C8     - H13   
    15      9     29      1    1.1034e+02    4.7028e+02 ;     O6 - C9     - H14   
    16      4     17      1    1.0773e+02    2.9957e+02 ;     H1 - C4     - H2    
    16      4     18      1    1.0773e+02    2.9957e+02 ;     H1 - C4     - H3    
    17      4     18      1    1.0773e+02    2.9957e+02 ;     H2 - C4     - H3    
    19      5     20      1    1.0773e+02    2.9957e+02 ;     H4 - C5     - H5    
    19      5     21      1    1.0773e+02    2.9957e+02 ;     H4 - C5     - H6    
    20      5     21      1    1.0773e+02    2.9957e+02 ;     H5 - C5     - H6    
    22      6     23      1    1.0773e+02    2.9957e+02 ;     H7 - C6     - H8    
    22      6     24      1    1.0773e+02    2.9957e+02 ;     H7 - C6     - H9    
    23      6     24      1    1.0773e+02    2.9957e+02 ;     H8 - C6     - H9    
    25      7     26      1    1.0855e+02    2.9824e+02 ;    H10 - C7     - H11   
    27      8     28      1    1.0855e+02    2.9824e+02 ;    H12 - C8     - H13   

[ dihedrals ] ; propers
; for gromacs 4.5 or higher, using funct 9
;    i      j      k      l   func   phase     kd      pn
     1     13      7      9      9     0.00   1.60247   3 ;     C1-    O4-    C7-    C9
     1     13      7      9      9   180.00   3.34720   1 ;     C1-    O4-    C7-    C9
     1     13      7     25      9     0.00   1.60387   3 ;     C1-    O4-    C7-   H10
     1     13      7     26      9     0.00   1.60387   3 ;     C1-    O4-    C7-   H11
     2     14      8      9      9     0.00   1.60247   3 ;     C2-    O5-    C8-    C9
     2     14      8      9      9   180.00   3.34720   1 ;     C2-    O5-    C8-    C9
     2     14      8     27      9     0.00   1.60387   3 ;     C2-    O5-    C8-   H12
     2     14      8     28      9     0.00   1.60387   3 ;     C2-    O5-    C8-   H13
     3     15      9      7      9     0.00   1.60247   3 ;     C3-    O6-    C9-    C7
     3     15      9      7      9   180.00   3.34720   1 ;     C3-    O6-    C9-    C7
     3     15      9      8      9     0.00   1.60247   3 ;     C3-    O6-    C9-    C8
     3     15      9      8      9   180.00   3.34720   1 ;     C3-    O6-    C9-    C8
     3     15      9     29      9     0.00   1.60387   3 ;     C3-    O6-    C9-   H14
     4      1     13      7      9     0.00   3.13800   3 ;     C4-    C1-    O4-    C7
     4      1     13      7      9   180.00   7.90776   1 ;     C4-    C1-    O4-    C7
     4      1     13      7      9   180.00  13.76536   2 ;     C4-    C1-    O4-    C7
     5      2     14      8      9     0.00   3.13800   3 ;     C5-    C2-    O5-    C8
     5      2     14      8      9   180.00   7.90776   1 ;     C5-    C2-    O5-    C8
     5      2     14      8      9   180.00  13.76536   2 ;     C5-    C2-    O5-    C8
     6      3     15      9      9     0.00   3.13800   3 ;     C6-    C3-    O6-    C9
     6      3     15      9      9   180.00   7.90776   1 ;     C6-    C3-    O6-    C9
     6      3     15      9      9   180.00  13.76536   2 ;     C6-    C3-    O6-    C9
     7      9      8     14      9     0.00   0.65084   3 ;     C7-    C9-    C8-    O5
     7      9      8     27      9     0.00   0.65084   3 ;     C7-    C9-    C8-   H12
     7      9      8     28      9     0.00   0.65084   3 ;     C7-    C9-    C8-   H13
     8      9      7     13      9     0.00   0.65084   3 ;     C8-    C9-    C7-    O4
     8      9      7     25      9     0.00   0.65084   3 ;     C8-    C9-    C7-   H10
     8      9      7     26      9     0.00   0.65084   3 ;     C8-    C9-    C7-   H11
     8     14      2     11      9   180.00   5.85760   1 ;     C8-    O5-    C2-    O2
     8     14      2     11      9   180.00  11.29680   2 ;     C8-    O5-    C2-    O2
     9     15      3     12      9   180.00   5.85760   1 ;     C9-    O6-    C3-    O3
     9     15      3     12      9   180.00  11.29680   2 ;     C9-    O6-    C3-    O3
    10      1      4     16      9     0.00  16.86152   1 ;     O1-    C1-    C4-    H1
    10      1      4     16      9   180.00  15.31344   2 ;     O1-    C1-    C4-    H1
    10      1      4     17      9     0.00  16.86152   1 ;     O1-    C1-    C4-    H2
    10      1      4     17      9   180.00  15.31344   2 ;     O1-    C1-    C4-    H2
    10      1      4     18      9     0.00  16.86152   1 ;     O1-    C1-    C4-    H3
    10      1      4     18      9   180.00  15.31344   2 ;     O1-    C1-    C4-    H3
    10      1     13      7      9   180.00   5.85760   1 ;     O1-    C1-    O4-    C7
    10      1     13      7      9   180.00  11.29680   2 ;     O1-    C1-    O4-    C7
    11      2      5     19      9     0.00  16.86152   1 ;     O2-    C2-    C5-    H4
    11      2      5     19      9   180.00  15.31344   2 ;     O2-    C2-    C5-    H4
    11      2      5     20      9     0.00  16.86152   1 ;     O2-    C2-    C5-    H5
    11      2      5     20      9   180.00  15.31344   2 ;     O2-    C2-    C5-    H5
    11      2      5     21      9     0.00  16.86152   1 ;     O2-    C2-    C5-    H6
    11      2      5     21      9   180.00  15.31344   2 ;     O2-    C2-    C5-    H6
    12      3      6     22      9     0.00  16.86152   1 ;     O3-    C3-    C6-    H7
    12      3      6     22      9   180.00  15.31344   2 ;     O3-    C3-    C6-    H7
    12      3      6     23      9     0.00  16.86152   1 ;     O3-    C3-    C6-    H8
    12      3      6     23      9   180.00  15.31344   2 ;     O3-    C3-    C6-    H8
    12      3      6     24      9     0.00  16.86152   1 ;     O3-    C3-    C6-    H9
    12      3      6     24      9   180.00  15.31344   2 ;     O3-    C3-    C6-    H9
    13      1      4     16      9   180.00   0.00000   2 ;     O4-    C1-    C4-    H1
    13      1      4     17      9   180.00   0.00000   2 ;     O4-    C1-    C4-    H2
    13      1      4     18      9   180.00   0.00000   2 ;     O4-    C1-    C4-    H3
    13      7      9     15      9     0.00   0.75312   1 ;     O4-    C7-    C9-    O6
    13      7      9     15      9     0.00   2.09200   3 ;     O4-    C7-    C9-    O6
    13      7      9     15      9     0.00   3.76560   2 ;     O4-    C7-    C9-    O6
    13      7      9     29      9     0.00   0.00000   0 ;     O4-    C7-    C9-   H14
    13      7      9     29      9     0.00   1.04600   1 ;     O4-    C7-    C9-   H14
    14      2      5     19      9   180.00   0.00000   2 ;     O5-    C2-    C5-    H4
    14      2      5     20      9   180.00   0.00000   2 ;     O5-    C2-    C5-    H5
    14      2      5     21      9   180.00   0.00000   2 ;     O5-    C2-    C5-    H6
    14      8      9     15      9     0.00   0.75312   1 ;     O5-    C8-    C9-    O6
    14      8      9     15      9     0.00   2.09200   3 ;     O5-    C8-    C9-    O6
    14      8      9     15      9     0.00   3.76560   2 ;     O5-    C8-    C9-    O6
    14      8      9     29      9     0.00   0.00000   0 ;     O5-    C8-    C9-   H14
    14      8      9     29      9     0.00   1.04600   1 ;     O5-    C8-    C9-   H14
    15      3      6     22      9   180.00   0.00000   2 ;     O6-    C3-    C6-    H7
    15      3      6     23      9   180.00   0.00000   2 ;     O6-    C3-    C6-    H8
    15      3      6     24      9   180.00   0.00000   2 ;     O6-    C3-    C6-    H9
    15      9      7     25      9     0.00   0.00000   0 ;     O6-    C9-    C7-   H10
    15      9      7     25      9     0.00   1.04600   1 ;     O6-    C9-    C7-   H10
    15      9      7     26      9     0.00   0.00000   0 ;     O6-    C9-    C7-   H11
    15      9      7     26      9     0.00   1.04600   1 ;     O6-    C9-    C7-   H11
    15      9      8     27      9     0.00   0.00000   0 ;     O6-    C9-    C8-   H12
    15      9      8     27      9     0.00   1.04600   1 ;     O6-    C9-    C8-   H12
    15      9      8     28      9     0.00   0.00000   0 ;     O6-    C9-    C8-   H13
    15      9      8     28      9     0.00   1.04600   1 ;     O6-    C9-    C8-   H13
    25      7      9     29      9     0.00   0.65084   3 ;    H10-    C7-    C9-   H14
    26      7      9     29      9     0.00   0.65084   3 ;    H11-    C7-    C9-   H14
    27      8      9     29      9     0.00   0.65084   3 ;    H12-    C8-    C9-   H14
    28      8      9     29      9     0.00   0.65084   3 ;    H13-    C8-    C9-   H14

[ dihedrals ] ; impropers
; treated as propers in GROMACS to use correct AMBER analytical function
;    i      j      k      l   func   phase     kd      pn
     5     11      2     14      4   180.00   4.60240   2 ;     C5-    O2-    C2-    O5
     6     12      3     15      4   180.00   4.60240   2 ;     C6-    O3-    C3-    O6
    13      1     10      4      4   180.00   4.60240   2 ;     O4-    C1-    O1-    C4
