mobley_4434915_GMX.gro created by acpype (v: 2023.10.27) on Tue May 19 12:46:04 2026
 2414
    1MOL     C1    1   2.126   2.111   2.109
    1MOL    CL1    2   2.021   2.195   2.224
    1MOL     H1    3   2.188   2.185   2.058
    1MOL     H2    4   2.190   2.041   2.164
    1MOL     H3    5   2.065   2.057   2.037
    6SOL     OW    6   1.555   1.511   0.703
    6SOL    HW1    7   1.498   1.495   0.784
    6SOL    HW2    8   1.496   1.521   0.623
   12SOL     OW    9   0.686   1.161   1.803
   12SOL    HW1   10   0.746   1.240   1.817
   12SOL    HW2   11   0.600   1.192   1.762
   14SOL     OW   12   1.460   1.505   1.339
   14SOL    HW1   13   1.484   1.599   1.365
   14SOL    HW2   14   1.444   1.451   1.421
   18SOL     OW   15   1.127   1.341   1.690
   18SOL    HW1   16   1.174   1.341   1.778
   18SOL    HW2   17   1.079   1.254   1.679
   21SOL     OW   18   0.620   1.786   1.439
   21SOL    HW1   19   0.528   1.769   1.474
   21SOL    HW2   20   0.648   1.878   1.465
   31SOL     OW   21   1.293   1.228   1.423
   31SOL    HW1   22   1.330   1.155   1.365
   31SOL    HW2   23   1.345   1.233   1.508
   35SOL     OW   24   1.187   1.792   1.616
   35SOL    HW1   25   1.211   1.852   1.540
   35SOL    HW2   26   1.194   1.697   1.586
   37SOL     OW   27   1.466   1.417   0.953
   37SOL    HW1   28   1.407   1.423   1.033
   37SOL    HW2   29   1.451   1.329   0.907
   38SOL     OW   30   1.667   1.714   0.572
   38SOL    HW1   31   1.626   1.691   0.484
   38SOL    HW2   32   1.649   1.640   0.637
   44SOL     OW   33   0.973   0.890   1.572
   44SOL    HW1   34   1.019   0.806   1.543
   44SOL    HW2   35   0.917   0.924   1.497
   50SOL     OW   36   1.719   0.585   1.831
   50SOL    HW1   37   1.693   0.674   1.795
   50SOL    HW2   38   1.717   0.517   1.758
   55SOL     OW   39   1.795   1.066   0.873
   55SOL    HW1   40   1.733   1.051   0.797
   55SOL    HW2   41   1.743   1.077   0.958
   56SOL     OW   42   1.227   1.550   1.506
   56SOL    HW1   43   1.233   1.473   1.570
   56SOL    HW2   44   1.175   1.524   1.426
   66SOL     OW   45   0.940   1.698   0.904
   66SOL    HW1   46   1.020   1.641   0.925
   66SOL    HW2   47   0.891   1.658   0.827
   71SOL     OW   48   0.888   1.514   1.195
   71SOL    HW1   49   0.865   1.489   1.101
   71SOL    HW2   50   0.949   1.445   1.234
   80SOL     OW   51   1.227   1.570   0.793
   80SOL    HW1   52   1.248   1.644   0.728
   80SOL    HW2   53   1.295   1.570   0.866
   82SOL     OW   54   1.271   1.797   0.591
   82SOL    HW1   55   1.315   1.861   0.527
   82SOL    HW2   56   1.221   1.849   0.661
   88SOL     OW   57   1.429   1.173   0.867
   88SOL    HW1   58   1.374   1.089   0.860
   88SOL    HW2   59   1.455   1.202   0.775
   92SOL     OW   60   1.664   1.280   0.657
   92SOL    HW1   61   1.763   1.288   0.671
   92SOL    HW2   62   1.619   1.364   0.688
   95SOL     OW   63   1.754   1.223   1.588
   95SOL    HW1   64   1.845   1.184   1.575
   95SOL    HW2   65   1.762   1.319   1.612
   96SOL     OW   66   1.064   1.347   1.340
   96SOL    HW1   67   0.984   1.324   1.395
   96SOL    HW2   68   1.147   1.321   1.389
   97SOL     OW   69   1.592   1.629   1.625
   97SOL    HW1   70   1.619   1.663   1.535
   97SOL    HW2   71   1.671   1.591   1.671
   98SOL     OW   72   1.111   1.195   1.100
   98SOL    HW1   73   1.071   1.239   1.181
   98SOL    HW2   74   1.070   1.232   1.017
   99SOL     OW   75   1.638   1.099   1.079
   99SOL    HW1   76   1.643   1.180   1.138
   99SOL    HW2   77   1.552   1.101   1.028
  101SOL     OW   78   0.980   1.116   1.719
  101SOL    HW1   79   0.881   1.122   1.729
  101SOL    HW2   80   1.003   1.036   1.663
  109SOL     OW   81   1.272   1.445   1.142
  109SOL    HW1   82   1.319   1.458   1.229
  109SOL    HW2   83   1.206   1.371   1.151
  113SOL     OW   84   1.587   0.779   1.670
  113SOL    HW1   85   1.495   0.817   1.665
  113SOL    HW2   86   1.647   0.826   1.605
  122SOL     OW   87   1.728   0.935   1.854
  122SOL    HW1   88   1.682   0.928   1.765
  122SOL    HW2   89   1.666   0.979   1.920
  126SOL     OW   90   0.980   1.573   1.700
  126SOL    HW1   91   0.960   1.617   1.612
  126SOL    HW2   92   1.019   1.482   1.684
  127SOL     OW   93   1.859   1.518   1.605
  127SOL    HW1   94   1.873   1.545   1.510
  127SOL    HW2   95   1.942   1.540   1.658
  142SOL     OW   96   1.369   0.950   1.660
  142SOL    HW1   97   1.408   1.039   1.680
  142SOL    HW2   98   1.379   0.930   1.563
  147SOL     OW   99   0.930   1.678   1.465
  147SOL    HW1  100   0.906   1.660   1.370
  147SOL    HW2  101   0.960   1.772   1.475
  150SOL     OW  102   1.347   1.059   1.234
  150SOL    HW1  103   1.371   0.996   1.160
  150SOL    HW2  104   1.257   1.099   1.216
  152SOL     OW  105   1.759   1.747   1.154
  152SOL    HW1  106   1.820   1.777   1.081
  152SOL    HW2  107   1.721   1.658   1.132
  153SOL     OW  108   1.252   1.731   1.128
  153SOL    HW1  109   1.336   1.736   1.074
  153SOL    HW2  110   1.229   1.635   1.146
  155SOL     OW  111   0.688   1.662   1.716
  155SOL    HW1  112   0.632   1.743   1.725
  155SOL    HW2  113   0.740   1.666   1.630
  161SOL     OW  114   0.830   1.273   1.422
  161SOL    HW1  115   0.825   1.306   1.517
  161SOL    HW2  116   0.744   1.292   1.376
  163SOL     OW  117   1.650   1.720   1.394
  163SOL    HW1  118   1.703   1.730   1.310
  163SOL    HW2  119   1.623   1.810   1.428
  171SOL     OW  120   1.614   1.292   1.289
  171SOL    HW1  121   1.674   1.295   1.369
  171SOL    HW2  122   1.539   1.356   1.302
  180SOL     OW  123   1.440   0.856   1.398
  180SOL    HW1  124   1.383   0.908   1.335
  180SOL    HW2  125   1.536   0.868   1.374
  184SOL     OW  126   1.493   1.767   0.959
  184SOL    HW1  127   1.526   1.831   0.890
  184SOL    HW2  128   1.559   1.761   1.034
  186SOL     OW  129   1.450   1.220   1.633
  186SOL    HW1  130   1.441   1.210   1.732
  186SOL    HW2  131   1.546   1.213   1.607
  188SOL     OW  132   1.674   0.883   1.254
  188SOL    HW1  133   1.647   0.794   1.217
  188SOL    HW2  134   1.675   0.951   1.181
  192SOL     OW  135   1.730   0.934   1.517
  192SOL    HW1  136   1.768   1.025   1.532
  192SOL    HW2  137   1.722   0.917   1.418
  197SOL     OW  138   1.861   1.569   0.851
  197SOL    HW1  139   1.790   1.557   0.781
  197SOL    HW2  140   1.862   1.490   0.911
  200SOL     OW  141   0.672   1.391   1.624
  200SOL    HW1  142   0.594   1.341   1.662
  200SOL    HW2  143   0.669   1.486   1.655
  203SOL     OW  144   1.705   1.487   1.104
  203SOL    HW1  145   1.612   1.462   1.077
  203SOL    HW2  146   1.731   1.437   1.186
  219SOL     OW  147   1.555   1.511   2.565
  219SOL    HW1  148   1.498   1.495   2.646
  219SOL    HW2  149   1.496   1.521   2.485
  220SOL     OW  150   1.135   0.703   2.579
  220SOL    HW1  151   1.192   0.781   2.554
  220SOL    HW2  152   1.075   0.729   2.655
  221SOL     OW  153   1.755   0.607   2.093
  221SOL    HW1  154   1.743   0.594   1.994
  221SOL    HW2  155   1.725   0.526   2.142
  227SOL     OW  156   1.460   1.505   3.201
  227SOL    HW1  157   1.484   1.599   3.227
  227SOL    HW2  158   1.444   1.451   3.283
  238SOL     OW  159   1.842   1.767   2.221
  238SOL    HW1  160   1.896   1.738   2.301
  238SOL    HW2  161   1.872   1.857   2.192
  240SOL     OW  162   1.689   0.922   2.474
  240SOL    HW1  163   1.784   0.893   2.482
  240SOL    HW2  164   1.681   0.987   2.399
  241SOL     OW  165   1.641   1.108   2.294
  241SOL    HW1  166   1.727   1.110   2.242
  241SOL    HW2  167   1.655   1.155   2.382
  243SOL     OW  168   0.613   1.365   2.588
  243SOL    HW1  169   0.564   1.278   2.597
  243SOL    HW2  170   0.590   1.408   2.501
  244SOL     OW  171   1.293   1.228   3.285
  244SOL    HW1  172   1.330   1.155   3.227
  244SOL    HW2  173   1.345   1.233   3.370
  247SOL     OW  174   1.525   0.999   2.052
  247SOL    HW1  175   1.462   0.923   2.065
  247SOL    HW2  176   1.573   1.017   2.138
  248SOL     OW  177   1.187   1.792   3.478
  248SOL    HW1  178   1.211   1.852   3.402
  248SOL    HW2  179   1.194   1.697   3.448
  250SOL     OW  180   1.466   1.417   2.815
  250SOL    HW1  181   1.407   1.423   2.895
  250SOL    HW2  182   1.451   1.329   2.769
  251SOL     OW  183   1.667   1.714   2.434
  251SOL    HW1  184   1.626   1.691   2.346
  251SOL    HW2  185   1.649   1.640   2.499
  254SOL     OW  186   1.576   1.662   2.169
  254SOL    HW1  187   1.665   1.708   2.172
  254SOL    HW2  188   1.555   1.638   2.074
  259SOL     OW  189   1.041   0.701   2.291
  259SOL    HW1  190   1.067   0.697   2.387
  259SOL    HW2  191   0.956   0.650   2.277
  264SOL     OW  192   1.362   1.144   2.407
  264SOL    HW1  193   1.445   1.115   2.359
  264SOL    HW2  194   1.313   1.211   2.351
  266SOL     OW  195   1.008   1.456   2.339
  266SOL    HW1  196   0.962   1.528   2.287
  266SOL    HW2  197   1.004   1.476   2.437
  268SOL     OW  198   1.795   1.066   2.735
  268SOL    HW1  199   1.733   1.051   2.659
  268SOL    HW2  200   1.743   1.077   2.820
  269SOL     OW  201   1.227   1.550   3.368
  269SOL    HW1  202   1.233   1.473   3.432
  269SOL    HW2  203   1.175   1.524   3.288
  271SOL     OW  204   1.458   0.735   2.590
  271SOL    HW1  205   1.453   0.670   2.665
  271SOL    HW2  206   1.538   0.794   2.603
  273SOL     OW  207   1.111   1.776   2.099
  273SOL    HW1  208   1.051   1.714   2.149
  273SOL    HW2  209   1.142   1.732   2.014
  275SOL     OW  210   1.632   1.377   1.943
  275SOL    HW1  211   1.600   1.471   1.933
  275SOL    HW2  212   1.556   1.314   1.931
  276SOL     OW  213   0.464   1.743   2.185
  276SOL    HW1  214   0.497   1.782   2.271
  276SOL    HW2  215   0.540   1.736   2.120
  279SOL     OW  216   0.940   1.698   2.766
  279SOL    HW1  217   1.020   1.641   2.787
  279SOL    HW2  218   0.891   1.658   2.689
  284SOL     OW  219   0.888   1.514   3.057
  284SOL    HW1  220   0.865   1.489   2.963
  284SOL    HW2  221   0.949   1.445   3.096
  286SOL     OW  222   0.803   1.402   2.786
  286SOL    HW1  223   0.893   1.416   2.744
  286SOL    HW2  224   0.732   1.404   2.715
  289SOL     OW  225   1.434   1.188   1.903
  289SOL    HW1  226   1.466   1.112   1.960
  289SOL    HW2  227   1.342   1.215   1.933
  293SOL     OW  228   1.227   1.570   2.655
  293SOL    HW1  229   1.248   1.644   2.590
  293SOL    HW2  230   1.295   1.570   2.728
  295SOL     OW  231   1.271   1.797   2.453
  295SOL    HW1  232   1.315   1.861   2.389
  295SOL    HW2  233   1.221   1.849   2.523
  301SOL     OW  234   1.429   1.173   2.729
  301SOL    HW1  235   1.374   1.089   2.722
  301SOL    HW2  236   1.455   1.202   2.637
  303SOL     OW  237   1.857   0.833   2.239
  303SOL    HW1  238   1.899   0.769   2.303
  303SOL    HW2  239   1.819   0.782   2.161
  304SOL     OW  240   0.488   1.385   2.036
  304SOL    HW1  241   0.401   1.370   2.083
  304SOL    HW2  242   0.471   1.411   1.941
  305SOL     OW  243   1.664   1.280   2.519
  305SOL    HW1  244   1.763   1.288   2.533
  305SOL    HW2  245   1.619   1.364   2.550
  306SOL     OW  246   1.390   0.575   1.940
  306SOL    HW1  247   1.336   0.554   2.021
  306SOL    HW2  248   1.481   0.534   1.949
  308SOL     OW  249   1.754   1.223   3.450
  308SOL    HW1  250   1.845   1.184   3.437
  308SOL    HW2  251   1.762   1.319   3.474
  309SOL     OW  252   1.064   1.347   3.202
  309SOL    HW1  253   0.984   1.324   3.257
  309SOL    HW2  254   1.147   1.321   3.251
  310SOL     OW  255   1.592   1.629   3.487
  310SOL    HW1  256   1.619   1.663   3.397
  310SOL    HW2  257   1.671   1.591   3.533
  311SOL     OW  258   1.111   1.195   2.962
  311SOL    HW1  259   1.071   1.239   3.043
  311SOL    HW2  260   1.070   1.232   2.879
  312SOL     OW  261   1.638   1.099   2.941
  312SOL    HW1  262   1.643   1.180   3.000
  312SOL    HW2  263   1.552   1.101   2.890
  315SOL     OW  264   0.705   1.050   2.230
  315SOL    HW1  265   0.691   1.057   2.329
  315SOL    HW2  266   0.789   0.999   2.212
  321SOL     OW  267   1.252   1.348   2.250
  321SOL    HW1  268   1.302   1.425   2.290
  321SOL    HW2  269   1.157   1.350   2.282
  322SOL     OW  270   1.272   1.445   3.004
  322SOL    HW1  271   1.319   1.458   3.091
  322SOL    HW2  272   1.206   1.371   3.013
  323SOL     OW  273   1.582   0.639   2.334
  323SOL    HW1  274   1.551   0.700   2.407
  323SOL    HW2  275   1.632   0.691   2.265
  330SOL     OW  276   1.360   0.862   2.907
  330SOL    HW1  277   1.285   0.862   2.841
  330SOL    HW2  278   1.397   0.770   2.916
  340SOL     OW  279   1.859   1.518   3.467
  340SOL    HW1  280   1.873   1.545   3.372
  340SOL    HW2  281   1.942   1.540   3.520
  343SOL     OW  282   1.303   0.838   1.904
  343SOL    HW1  283   1.337   0.745   1.919
  343SOL    HW2  284   1.321   0.865   1.809
  344SOL     OW  285   1.068   1.333   2.711
  344SOL    HW1  286   1.075   1.249   2.656
  344SOL    HW2  287   1.130   1.402   2.675
  360SOL     OW  288   0.930   1.678   3.327
  360SOL    HW1  289   0.906   1.660   3.232
  360SOL    HW2  290   0.960   1.772   3.337
  363SOL     OW  291   1.347   1.059   3.096
  363SOL    HW1  292   1.371   0.996   3.022
  363SOL    HW2  293   1.257   1.099   3.078
  364SOL     OW  294   1.302   0.855   2.171
  364SOL    HW1  295   1.216   0.824   2.213
  364SOL    HW2  296   1.298   0.841   2.072
  365SOL     OW  297   1.759   1.747   3.016
  365SOL    HW1  298   1.820   1.777   2.943
  365SOL    HW2  299   1.721   1.658   2.994
  366SOL     OW  300   1.252   1.731   2.990
  366SOL    HW1  301   1.336   1.736   2.936
  366SOL    HW2  302   1.229   1.635   3.008
  370SOL     OW  303   1.388   1.573   2.339
  370SOL    HW1  304   1.455   1.585   2.265
  370SOL    HW2  305   1.348   1.662   2.362
  372SOL     OW  306   1.280   0.927   2.534
  372SOL    HW1  307   1.340   0.846   2.536
  372SOL    HW2  308   1.320   0.996   2.474
  374SOL     OW  309   0.672   1.616   2.016
  374SOL    HW1  310   0.681   1.626   1.917
  374SOL    HW2  311   0.632   1.527   2.037
  375SOL     OW  312   1.650   1.720   3.256
  375SOL    HW1  313   1.703   1.730   3.172
  375SOL    HW2  314   1.623   1.810   3.290
  378SOL     OW  315   1.194   1.612   1.893
  378SOL    HW1  316   1.200   1.519   1.930
  378SOL    HW2  317   1.135   1.612   1.813
  380SOL     OW  318   0.916   0.910   2.153
  380SOL    HW1  319   0.979   0.948   2.085
  380SOL    HW2  320   0.956   0.827   2.192
  381SOL     OW  321   1.504   1.607   1.906
  381SOL    HW1  322   1.412   1.644   1.913
  381SOL    HW2  323   1.542   1.627   1.816
  383SOL     OW  324   1.614   1.292   3.151
  383SOL    HW1  325   1.674   1.295   3.231
  383SOL    HW2  326   1.539   1.356   3.164
  384SOL     OW  327   1.039   1.098   2.558
  384SOL    HW1  328   0.969   1.051   2.612
  384SOL    HW2  329   1.098   1.030   2.515
  386SOL     OW  330   0.590   1.487   2.353
  386SOL    HW1  331   0.632   1.429   2.283
  386SOL    HW2  332   0.546   1.566   2.309
  394SOL     OW  333   1.183   1.335   1.981
  394SOL    HW1  334   1.084   1.324   1.983
  394SOL    HW2  335   1.217   1.350   2.074
  396SOL     OW  336   1.493   1.767   2.821
  396SOL    HW1  337   1.526   1.831   2.752
  396SOL    HW2  338   1.559   1.761   2.896
  398SOL     OW  339   1.450   1.220   3.495
  398SOL    HW1  340   1.441   1.210   3.594
  398SOL    HW2  341   1.546   1.213   3.469
  400SOL     OW  342   1.674   0.883   3.116
  400SOL    HW1  343   1.647   0.794   3.079
  400SOL    HW2  344   1.675   0.951   3.043
  404SOL     OW  345   1.730   0.934   3.379
  404SOL    HW1  346   1.768   1.025   3.394
  404SOL    HW2  347   1.722   0.917   3.280
  405SOL     OW  348   0.859   1.374   1.878
  405SOL    HW1  349   0.813   1.389   1.966
  405SOL    HW2  350   0.903   1.459   1.848
  406SOL     OW  351   0.661   1.790   2.815
  406SOL    HW1  352   0.615   1.878   2.802
  406SOL    HW2  353   0.760   1.802   2.808
  408SOL     OW  354   1.083   0.984   1.949
  408SOL    HW1  355   1.060   1.037   1.867
  408SOL    HW2  356   1.164   0.928   1.930
  409SOL     OW  357   1.861   1.569   2.713
  409SOL    HW1  358   1.790   1.557   2.643
  409SOL    HW2  359   1.862   1.490   2.773
  415SOL     OW  360   1.705   1.487   2.966
  415SOL    HW1  361   1.612   1.462   2.939
  415SOL    HW2  362   1.731   1.437   3.048
  417SOL     OW  363   0.812   1.586   2.549
  417SOL    HW1  364   0.844   1.596   2.455
  417SOL    HW2  365   0.733   1.524   2.551
  420SOL     OW  366   0.770   1.330   2.163
  420SOL    HW1  367   0.724   1.243   2.180
  420SOL    HW2  368   0.861   1.327   2.204
  426SOL     OW  369   0.875   1.646   2.199
  426SOL    HW1  370   0.798   1.611   2.145
  426SOL    HW2  371   0.843   1.717   2.261
  492SOL     OW  372   1.135   2.565   0.717
  492SOL    HW1  373   1.192   2.643   0.692
  492SOL    HW2  374   1.075   2.591   0.793
  495SOL     OW  375   0.850   2.660   1.823
  495SOL    HW1  376   0.846   2.736   1.888
  495SOL    HW2  377   0.872   2.696   1.732
  497SOL     OW  378   0.686   3.023   1.803
  497SOL    HW1  379   0.746   3.102   1.817
  497SOL    HW2  380   0.600   3.054   1.762
  499SOL     OW  381   1.460   3.367   1.339
  499SOL    HW1  382   1.484   3.461   1.365
  499SOL    HW2  383   1.444   3.313   1.421
  500SOL     OW  384   0.438   2.254   1.499
  500SOL    HW1  385   0.520   2.198   1.508
  500SOL    HW2  386   0.357   2.196   1.503
  501SOL     OW  387   1.603   2.309   0.737
  501SOL    HW1  388   1.529   2.355   0.687
  501SOL    HW2  389   1.654   2.377   0.790
  503SOL     OW  390   1.127   3.203   1.690
  503SOL    HW1  391   1.174   3.203   1.778
  503SOL    HW2  392   1.079   3.116   1.679
  508SOL     OW  393   1.594   1.976   1.480
  508SOL    HW1  394   1.576   2.043   1.408
  508SOL    HW2  395   1.591   2.022   1.569
  512SOL     OW  396   1.689   2.784   0.612
  512SOL    HW1  397   1.784   2.755   0.620
  512SOL    HW2  398   1.681   2.849   0.537
  516SOL     OW  399   1.293   3.090   1.423
  516SOL    HW1  400   1.330   3.017   1.365
  516SOL    HW2  401   1.345   3.095   1.508
  522SOL     OW  402   1.466   3.279   0.953
  522SOL    HW1  403   1.407   3.285   1.033
  522SOL    HW2  404   1.451   3.191   0.907
  525SOL     OW  405   1.281   2.207   0.944
  525SOL    HW1  406   1.195   2.157   0.931
  525SOL    HW2  407   1.343   2.153   1.000
  527SOL     OW  408   0.807   2.467   1.465
  527SOL    HW1  409   0.760   2.464   1.554
  527SOL    HW2  410   0.756   2.412   1.399
  528SOL     OW  411   1.394   2.331   1.674
  528SOL    HW1  412   1.374   2.374   1.762
  528SOL    HW2  413   1.472   2.269   1.683
  529SOL     OW  414   0.973   2.752   1.572
  529SOL    HW1  415   1.019   2.668   1.543
  529SOL    HW2  416   0.917   2.786   1.497
  530SOL     OW  417   0.991   2.272   1.242
  530SOL    HW1  418   0.914   2.306   1.296
  530SOL    HW2  419   0.957   2.221   1.163
  535SOL     OW  420   1.719   2.447   1.831
  535SOL    HW1  421   1.693   2.536   1.795
  535SOL    HW2  422   1.717   2.379   1.758
  540SOL     OW  423   1.795   2.928   0.873
  540SOL    HW1  424   1.733   2.913   0.797
  540SOL    HW2  425   1.743   2.939   0.958
  541SOL     OW  426   1.227   3.412   1.506
  541SOL    HW1  427   1.233   3.335   1.570
  541SOL    HW2  428   1.175   3.386   1.426
  543SOL     OW  429   1.458   2.597   0.728
  543SOL    HW1  430   1.453   2.532   0.803
  543SOL    HW2  431   1.538   2.656   0.741
  553SOL     OW  432   1.547   2.084   1.729
  553SOL    HW1  433   1.542   2.121   1.821
  553SOL    HW2  434   1.475   2.015   1.717
  555SOL     OW  435   0.781   2.126   1.749
  555SOL    HW1  436   0.848   2.065   1.792
  555SOL    HW2  437   0.708   2.145   1.814
  557SOL     OW  438   1.351   2.452   1.433
  557SOL    HW1  439   1.379   2.409   1.518
  557SOL    HW2  440   1.376   2.548   1.434
  559SOL     OW  441   0.922   2.365   0.899
  559SOL    HW1  442   0.897   2.356   0.803
  559SOL    HW2  443   0.970   2.283   0.930
  564SOL     OW  444   1.076   2.545   1.464
  564SOL    HW1  445   0.996   2.484   1.467
  564SOL    HW2  446   1.157   2.492   1.440
  572SOL     OW  447   1.017   1.901   0.753
  572SOL    HW1  448   0.945   1.906   0.684
  572SOL    HW2  449   0.993   1.832   0.822
  573SOL     OW  450   1.429   3.035   0.867
  573SOL    HW1  451   1.374   2.951   0.860
  573SOL    HW2  452   1.455   3.064   0.775
  574SOL     OW  453   1.466   2.452   0.992
  574SOL    HW1  454   1.436   2.357   0.999
  574SOL    HW2  455   1.539   2.468   1.058
  580SOL     OW  456   1.754   3.085   1.588
  580SOL    HW1  457   1.845   3.046   1.575
  580SOL    HW2  458   1.762   3.181   1.612
  581SOL     OW  459   1.064   3.209   1.340
  581SOL    HW1  460   0.984   3.186   1.395
  581SOL    HW2  461   1.147   3.183   1.389
  582SOL     OW  462   1.592   3.491   1.625
  582SOL    HW1  463   1.619   3.525   1.535
  582SOL    HW2  464   1.671   3.453   1.671
  583SOL     OW  465   1.111   3.057   1.100
  583SOL    HW1  466   1.071   3.101   1.181
  583SOL    HW2  467   1.070   3.094   1.017
  584SOL     OW  468   1.638   2.961   1.079
  584SOL    HW1  469   1.643   3.042   1.138
  584SOL    HW2  470   1.552   2.963   1.028
  585SOL     OW  471   0.915   1.951   1.402
  585SOL    HW1  472   0.940   1.931   1.307
  585SOL    HW2  473   0.987   2.007   1.444
  586SOL     OW  474   0.980   2.978   1.719
  586SOL    HW1  475   0.881   2.984   1.729
  586SOL    HW2  476   1.003   2.898   1.663
  589SOL     OW  477   1.274   2.248   1.262
  589SOL    HW1  478   1.295   2.322   1.326
  589SOL    HW2  479   1.185   2.265   1.219
  594SOL     OW  480   1.272   3.307   1.142
  594SOL    HW1  481   1.319   3.320   1.229
  594SOL    HW2  482   1.206   3.233   1.151
  595SOL     OW  483   1.582   2.501   0.472
  595SOL    HW1  484   1.551   2.562   0.545
  595SOL    HW2  485   1.632   2.553   0.403
  598SOL     OW  486   1.587   2.641   1.670
  598SOL    HW1  487   1.495   2.679   1.665
  598SOL    HW2  488   1.647   2.688   1.605
  599SOL     OW  489   1.013   1.967   1.770
  599SOL    HW1  490   1.019   2.052   1.718
  599SOL    HW2  491   1.045   1.891   1.713
  600SOL     OW  492   0.504   1.912   1.740
  600SOL    HW1  493   0.462   1.855   1.670
  600SOL    HW2  494   0.438   1.981   1.772
  602SOL     OW  495   1.360   2.724   1.045
  602SOL    HW1  496   1.285   2.724   0.979
  602SOL    HW2  497   1.397   2.632   1.054
  606SOL     OW  498   0.732   2.496   1.064
  606SOL    HW1  499   0.791   2.470   0.988
  606SOL    HW2  500   0.704   2.592   1.053
  607SOL     OW  501   1.728   2.797   1.854
  607SOL    HW1  502   1.682   2.790   1.765
  607SOL    HW2  503   1.666   2.841   1.920
  610SOL     OW  504   1.023   2.628   0.966
  610SOL    HW1  505   1.038   2.649   1.062
  610SOL    HW2  506   0.993   2.533   0.957
  611SOL     OW  507   0.980   3.435   1.700
  611SOL    HW1  508   0.960   3.479   1.612
  611SOL    HW2  509   1.019   3.344   1.684
  612SOL     OW  510   1.859   3.380   1.605
  612SOL    HW1  511   1.873   3.407   1.510
  612SOL    HW2  512   1.942   3.402   1.658
  619SOL     OW  513   1.138   2.242   1.678
  619SOL    HW1  514   1.093   2.305   1.742
  619SOL    HW2  515   1.231   2.273   1.661
  620SOL     OW  516   1.160   2.069   1.477
  620SOL    HW1  517   1.160   2.133   1.554
  620SOL    HW2  518   1.188   2.117   1.394
  624SOL     OW  519   1.002   2.658   1.238
  624SOL    HW1  520   1.043   2.626   1.324
  624SOL    HW2  521   0.906   2.631   1.235
  627SOL     OW  522   1.369   2.812   1.660
  627SOL    HW1  523   1.408   2.901   1.680
  627SOL    HW2  524   1.379   2.792   1.563
  629SOL     OW  525   1.657   2.466   1.206
  629SOL    HW1  526   1.619   2.397   1.268
  629SOL    HW2  527   1.739   2.430   1.162
  631SOL     OW  528   0.671   2.326   1.269
  631SOL    HW1  529   0.637   2.237   1.239
  631SOL    HW2  530   0.697   2.380   1.189
  635SOL     OW  531   1.347   2.921   1.234
  635SOL    HW1  532   1.371   2.858   1.160
  635SOL    HW2  533   1.257   2.961   1.216
  642SOL     OW  534   1.726   1.997   0.523
  642SOL    HW1  535   1.799   1.980   0.456
  642SOL    HW2  536   1.695   1.910   0.561
  646SOL     OW  537   0.830   3.135   1.422
  646SOL    HW1  538   0.825   3.168   1.517
  646SOL    HW2  539   0.744   3.154   1.376
  648SOL     OW  540   1.650   3.582   1.394
  648SOL    HW1  541   1.703   3.592   1.310
  648SOL    HW2  542   1.623   3.672   1.428
  649SOL     OW  543   1.841   2.037   0.963
  649SOL    HW1  544   1.880   1.952   0.927
  649SOL    HW2  545   1.743   2.039   0.944
  652SOL     OW  546   0.822   2.864   1.372
  652SOL    HW1  547   0.862   2.863   1.280
  652SOL    HW2  548   0.832   2.956   1.412
  656SOL     OW  549   1.614   3.154   1.289
  656SOL    HW1  550   1.674   3.157   1.369
  656SOL    HW2  551   1.539   3.218   1.302
  658SOL     OW  552   1.014   2.098   0.971
  658SOL    HW1  553   1.006   2.062   0.878
  658SOL    HW2  554   1.012   2.022   1.036
  660SOL     OW  555   1.709   2.247   1.381
  660SOL    HW1  556   1.782   2.316   1.385
  660SOL    HW2  557   1.737   2.172   1.322
  663SOL     OW  558   0.672   2.065   1.489
  663SOL    HW1  559   0.762   2.049   1.449
  663SOL    HW2  560   0.680   2.070   1.588
  665SOL     OW  561   1.440   2.718   1.398
  665SOL    HW1  562   1.383   2.770   1.335
  665SOL    HW2  563   1.536   2.730   1.374
  668SOL     OW  564   0.613   2.704   1.431
  668SOL    HW1  565   0.669   2.785   1.414
  668SOL    HW2  566   0.672   2.624   1.434
  670SOL     OW  567   0.716   2.427   1.708
  670SOL    HW1  568   0.735   2.492   1.782
  670SOL    HW2  569   0.776   2.347   1.717
  671SOL     OW  570   1.450   3.082   1.633
  671SOL    HW1  571   1.441   3.072   1.732
  671SOL    HW2  572   1.546   3.075   1.607
  673SOL     OW  573   1.674   2.745   1.254
  673SOL    HW1  574   1.647   2.656   1.217
  673SOL    HW2  575   1.675   2.813   1.181
  676SOL     OW  576   1.777   2.204   1.642
  676SOL    HW1  577   1.760   2.235   1.548
  676SOL    HW2  578   1.693   2.167   1.680
  677SOL     OW  579   1.730   2.796   1.517
  677SOL    HW1  580   1.768   2.887   1.532
  677SOL    HW2  581   1.722   2.779   1.418
  686SOL     OW  582   1.824   2.054   1.227
  686SOL    HW1  583   1.820   1.964   1.271
  686SOL    HW2  584   1.827   2.043   1.128
  688SOL     OW  585   1.705   3.349   1.104
  688SOL    HW1  586   1.612   3.324   1.077
  688SOL    HW2  587   1.731   3.299   1.186
  691SOL     OW  588   1.424   2.076   1.112
  691SOL    HW1  589   1.476   2.011   1.167
  691SOL    HW2  590   1.375   2.139   1.173
  692SOL     OW  591   1.001   1.896   1.154
  692SOL    HW1  592   0.938   1.824   1.123
  692SOL    HW2  593   1.094   1.860   1.154
  695SOL     OW  594   1.300   2.315   0.691
  695SOL    HW1  595   1.241   2.395   0.695
  695SOL    HW2  596   1.315   2.280   0.784
  696SOL     OW  597   1.593   2.083   0.882
  696SOL    HW1  598   1.509   2.082   0.936
  696SOL    HW2  599   1.595   2.166   0.826
  703SOL     OW  600   1.555   3.373   2.565
  703SOL    HW1  601   1.498   3.357   2.646
  703SOL    HW2  602   1.496   3.383   2.485
  704SOL     OW  603   1.135   2.565   2.579
  704SOL    HW1  604   1.192   2.643   2.554
  704SOL    HW2  605   1.075   2.591   2.655
  705SOL     OW  606   1.755   2.469   2.093
  705SOL    HW1  607   1.743   2.456   1.994
  705SOL    HW2  608   1.725   2.388   2.142
  706SOL     OW  609   0.768   3.006   2.885
  706SOL    HW1  610   0.690   3.023   2.945
  706SOL    HW2  611   0.802   3.093   2.849
  708SOL     OW  612   0.685   2.874   2.527
  708SOL    HW1  613   0.754   2.858   2.597
  708SOL    HW2  614   0.612   2.931   2.565
  711SOL     OW  615   1.460   3.367   3.201
  711SOL    HW1  616   1.484   3.461   3.227
  711SOL    HW2  617   1.444   3.313   3.283
  713SOL     OW  618   1.603   2.309   2.599
  713SOL    HW1  619   1.529   2.355   2.549
  713SOL    HW2  620   1.654   2.377   2.652
  719SOL     OW  621   0.606   2.826   1.985
  719SOL    HW1  622   0.613   2.910   1.931
  719SOL    HW2  623   0.652   2.839   2.073
  720SOL     OW  624   1.594   1.976   3.342
  720SOL    HW1  625   1.576   2.043   3.270
  720SOL    HW2  626   1.591   2.022   3.431
  722SOL     OW  627   1.842   3.629   2.221
  722SOL    HW1  628   1.896   3.600   2.301
  722SOL    HW2  629   1.872   3.719   2.192
  724SOL     OW  630   1.689   2.784   2.474
  724SOL    HW1  631   1.784   2.755   2.482
  724SOL    HW2  632   1.681   2.849   2.399
  725SOL     OW  633   1.641   2.970   2.294
  725SOL    HW1  634   1.727   2.972   2.242
  725SOL    HW2  635   1.655   3.017   2.382
  728SOL     OW  636   1.293   3.090   3.285
  728SOL    HW1  637   1.330   3.017   3.227
  728SOL    HW2  638   1.345   3.095   3.370
  729SOL     OW  639   0.809   1.866   2.364
  729SOL    HW1  640   0.849   1.957   2.355
  729SOL    HW2  641   0.709   1.874   2.370
  731SOL     OW  642   1.525   2.861   2.052
  731SOL    HW1  643   1.462   2.785   2.065
  731SOL    HW2  644   1.573   2.879   2.138
  734SOL     OW  645   1.466   3.279   2.815
  734SOL    HW1  646   1.407   3.285   2.895
  734SOL    HW2  647   1.451   3.191   2.769
  735SOL     OW  648   1.667   3.576   2.434
  735SOL    HW1  649   1.626   3.553   2.346
  735SOL    HW2  650   1.649   3.502   2.499
  736SOL     OW  651   0.598   2.591   2.132
  736SOL    HW1  652   0.622   2.660   2.064
  736SOL    HW2  653   0.520   2.624   2.186
  737SOL     OW  654   1.281   2.207   2.806
  737SOL    HW1  655   1.195   2.157   2.793
  737SOL    HW2  656   1.343   2.153   2.862
  738SOL     OW  657   1.576   3.524   2.169
  738SOL    HW1  658   1.665   3.570   2.172
  738SOL    HW2  659   1.555   3.500   2.074
  740SOL     OW  660   1.394   2.331   3.536
  740SOL    HW1  661   1.374   2.374   3.624
  740SOL    HW2  662   1.472   2.269   3.545
  742SOL     OW  663   0.991   2.272   3.104
  742SOL    HW1  664   0.914   2.306   3.158
  742SOL    HW2  665   0.957   2.221   3.025
  743SOL     OW  666   1.041   2.563   2.291
  743SOL    HW1  667   1.067   2.559   2.387
  743SOL    HW2  668   0.956   2.512   2.277
  746SOL     OW  669   0.865   2.210   2.057
  746SOL    HW1  670   0.924   2.273   2.008
  746SOL    HW2  671   0.884   2.116   2.028
  747SOL     OW  672   1.719   2.447   3.693
  747SOL    HW1  673   1.693   2.536   3.657
  747SOL    HW2  674   1.717   2.379   3.620
  748SOL     OW  675   1.362   3.006   2.407
  748SOL    HW1  676   1.445   2.977   2.359
  748SOL    HW2  677   1.313   3.073   2.351
  749SOL     OW  678   0.550   2.058   2.747
  749SOL    HW1  679   0.545   2.053   2.847
  749SOL    HW2  680   0.552   2.154   2.718
  750SOL     OW  681   1.008   3.318   2.339
  750SOL    HW1  682   0.962   3.390   2.287
  750SOL    HW2  683   1.004   3.338   2.437
  752SOL     OW  684   1.795   2.928   2.735
  752SOL    HW1  685   1.733   2.913   2.659
  752SOL    HW2  686   1.743   2.939   2.820
  755SOL     OW  687   1.458   2.597   2.590
  755SOL    HW1  688   1.453   2.532   2.665
  755SOL    HW2  689   1.538   2.656   2.603
  759SOL     OW  690   1.632   3.239   1.943
  759SOL    HW1  691   1.600   3.333   1.933
  759SOL    HW2  692   1.556   3.176   1.931
  761SOL     OW  693   1.400   1.969   2.288
  761SOL    HW1  694   1.376   1.932   2.198
  761SOL    HW2  695   1.499   1.985   2.292
  765SOL     OW  696   1.547   2.084   3.591
  765SOL    HW1  697   1.542   2.121   3.683
  765SOL    HW2  698   1.475   2.015   3.579
  766SOL     OW  699   0.614   1.984   1.979
  766SOL    HW1  700   0.712   1.962   1.986
  766SOL    HW2  701   0.583   1.967   1.886
  769SOL     OW  702   1.351   2.452   3.295
  769SOL    HW1  703   1.379   2.409   3.380
  769SOL    HW2  704   1.376   2.548   3.296
  771SOL     OW  705   0.922   2.365   2.761
  771SOL    HW1  706   0.897   2.356   2.665
  771SOL    HW2  707   0.970   2.283   2.792
  772SOL     OW  708   0.539   1.926   2.374
  772SOL    HW1  709   0.458   1.927   2.432
  772SOL    HW2  710   0.542   2.009   2.319
  773SOL     OW  711   1.434   3.050   1.903
  773SOL    HW1  712   1.466   2.974   1.960
  773SOL    HW2  713   1.342   3.077   1.933
  775SOL     OW  714   0.935   2.098   2.342
  775SOL    HW1  715   0.887   2.139   2.264
  775SOL    HW2  716   1.034   2.096   2.323
  776SOL     OW  717   1.076   2.545   3.326
  776SOL    HW1  718   0.996   2.484   3.329
  776SOL    HW2  719   1.157   2.492   3.302
  777SOL     OW  720   1.227   3.432   2.655
  777SOL    HW1  721   1.248   3.506   2.590
  777SOL    HW2  722   1.295   3.432   2.728
  779SOL     OW  723   1.271   3.659   2.453
  779SOL    HW1  724   1.315   3.723   2.389
  779SOL    HW2  725   1.221   3.711   2.523
  780SOL     OW  726   1.032   2.411   1.878
  780SOL    HW1  727   0.991   2.493   1.839
  780SOL    HW2  728   1.096   2.437   1.951
  782SOL     OW  729   0.561   2.084   3.009
  782SOL    HW1  730   0.599   2.000   3.046
  782SOL    HW2  731   0.473   2.103   3.053
  783SOL     OW  732   0.866   2.316   2.504
  783SOL    HW1  733   0.834   2.388   2.442
  783SOL    HW2  734   0.890   2.235   2.451
  784SOL     OW  735   1.017   1.901   2.615
  784SOL    HW1  736   0.945   1.906   2.546
  784SOL    HW2  737   0.993   1.832   2.684
  785SOL     OW  738   1.429   3.035   2.729
  785SOL    HW1  739   1.374   2.951   2.722
  785SOL    HW2  740   1.455   3.064   2.637
  786SOL     OW  741   1.466   2.452   2.854
  786SOL    HW1  742   1.436   2.357   2.861
  786SOL    HW2  743   1.539   2.468   2.920
  787SOL     OW  744   1.857   2.695   2.239
  787SOL    HW1  745   1.899   2.631   2.303
  787SOL    HW2  746   1.819   2.644   2.161
  789SOL     OW  747   1.664   3.142   2.519
  789SOL    HW1  748   1.763   3.150   2.533
  789SOL    HW2  749   1.619   3.226   2.550
  790SOL     OW  750   1.390   2.437   1.940
  790SOL    HW1  751   1.336   2.416   2.021
  790SOL    HW2  752   1.481   2.396   1.949
  791SOL     OW  753   0.527   2.118   2.190
  791SOL    HW1  754   0.554   2.059   2.115
  791SOL    HW2  755   0.527   2.213   2.159
  792SOL     OW  756   1.754   3.085   3.450
  792SOL    HW1  757   1.845   3.046   3.437
  792SOL    HW2  758   1.762   3.181   3.474
  795SOL     OW  759   1.111   3.057   2.962
  795SOL    HW1  760   1.071   3.101   3.043
  795SOL    HW2  761   1.070   3.094   2.879
  796SOL     OW  762   1.638   2.961   2.941
  796SOL    HW1  763   1.643   3.042   3.000
  796SOL    HW2  764   1.552   2.963   2.890
  797SOL     OW  765   0.915   1.951   3.264
  797SOL    HW1  766   0.940   1.931   3.169
  797SOL    HW2  767   0.987   2.007   3.306
  799SOL     OW  768   0.705   2.912   2.230
  799SOL    HW1  769   0.691   2.919   2.329
  799SOL    HW2  770   0.789   2.861   2.212
  801SOL     OW  771   1.274   2.248   3.124
  801SOL    HW1  772   1.295   2.322   3.188
  801SOL    HW2  773   1.185   2.265   3.081
  804SOL     OW  774   0.566   2.399   2.727
  804SOL    HW1  775   0.578   2.465   2.653
  804SOL    HW2  776   0.612   2.433   2.810
  805SOL     OW  777   1.252   3.210   2.250
  805SOL    HW1  778   1.302   3.287   2.290
  805SOL    HW2  779   1.157   3.212   2.282
  806SOL     OW  780   1.272   3.307   3.004
  806SOL    HW1  781   1.319   3.320   3.091
  806SOL    HW2  782   1.206   3.233   3.013
  807SOL     OW  783   1.582   2.501   2.334
  807SOL    HW1  784   1.551   2.562   2.407
  807SOL    HW2  785   1.632   2.553   2.265
  810SOL     OW  786   1.587   2.641   3.532
  810SOL    HW1  787   1.495   2.679   3.527
  810SOL    HW2  788   1.647   2.688   3.467
  814SOL     OW  789   1.360   2.724   2.907
  814SOL    HW1  790   1.285   2.724   2.841
  814SOL    HW2  791   1.397   2.632   2.916
  815SOL     OW  792   1.209   2.387   2.137
  815SOL    HW1  793   1.222   2.303   2.191
  815SOL    HW2  794   1.180   2.461   2.197
  818SOL     OW  795   0.732   2.496   2.926
  818SOL    HW1  796   0.791   2.470   2.850
  818SOL    HW2  797   0.704   2.592   2.915
  819SOL     OW  798   1.728   2.797   3.716
  819SOL    HW1  799   1.682   2.790   3.627
  819SOL    HW2  800   1.666   2.841   3.782
  821SOL     OW  801   1.622   2.229   2.236
  821SOL    HW1  802   1.624   2.153   2.300
  821SOL    HW2  803   1.574   2.306   2.276
  822SOL     OW  804   1.023   2.628   2.828
  822SOL    HW1  805   1.038   2.649   2.924
  822SOL    HW2  806   0.993   2.533   2.819
  826SOL     OW  807   1.540   2.136   1.987
  826SOL    HW1  808   1.479   2.061   2.010
  826SOL    HW2  809   1.562   2.188   2.070
  827SOL     OW  810   1.303   2.700   1.904
  827SOL    HW1  811   1.337   2.607   1.919
  827SOL    HW2  812   1.321   2.727   1.809
  828SOL     OW  813   1.068   3.195   2.711
  828SOL    HW1  814   1.075   3.111   2.656
  828SOL    HW2  815   1.130   3.264   2.675
  831SOL     OW  816   1.138   2.242   3.540
  831SOL    HW1  817   1.093   2.305   3.604
  831SOL    HW2  818   1.231   2.273   3.523
  832SOL     OW  819   1.160   2.069   3.339
  832SOL    HW1  820   1.160   2.133   3.416
  832SOL    HW2  821   1.188   2.117   3.256
  836SOL     OW  822   1.002   2.658   3.100
  836SOL    HW1  823   1.043   2.626   3.186
  836SOL    HW2  824   0.906   2.631   3.097
  839SOL     OW  825   1.369   2.812   3.522
  839SOL    HW1  826   1.408   2.901   3.542
  839SOL    HW2  827   1.379   2.792   3.425
  840SOL     OW  828   0.815   2.434   2.187
  840SOL    HW1  829   0.822   2.345   2.141
  840SOL    HW2  830   0.721   2.468   2.179
  841SOL     OW  831   1.657   2.466   3.068
  841SOL    HW1  832   1.619   2.397   3.130
  841SOL    HW2  833   1.739   2.430   3.024
  843SOL     OW  834   0.671   2.326   3.131
  843SOL    HW1  835   0.637   2.237   3.101
  843SOL    HW2  836   0.697   2.380   3.051
  845SOL     OW  837   0.473   2.362   2.053
  845SOL    HW1  838   0.534   2.442   2.057
  845SOL    HW2  839   0.378   2.393   2.060
  847SOL     OW  840   1.347   2.921   3.096
  847SOL    HW1  841   1.371   2.858   3.022
  847SOL    HW2  842   1.257   2.961   3.078
  848SOL     OW  843   1.302   2.717   2.171
  848SOL    HW1  844   1.216   2.686   2.213
  848SOL    HW2  845   1.298   2.703   2.072
  849SOL     OW  846   1.759   3.609   3.016
  849SOL    HW1  847   1.820   3.639   2.943
  849SOL    HW2  848   1.721   3.520   2.994
  853SOL     OW  849   1.726   1.997   2.385
  853SOL    HW1  850   1.799   1.980   2.318
  853SOL    HW2  851   1.695   1.910   2.423
  854SOL     OW  852   1.388   3.435   2.339
  854SOL    HW1  853   1.455   3.447   2.265
  854SOL    HW2  854   1.348   3.524   2.362
  856SOL     OW  855   1.280   2.789   2.534
  856SOL    HW1  856   1.340   2.708   2.536
  856SOL    HW2  857   1.320   2.858   2.474
  860SOL     OW  858   1.841   2.037   2.825
  860SOL    HW1  859   1.880   1.952   2.789
  860SOL    HW2  860   1.743   2.039   2.806
  862SOL     OW  861   1.194   3.474   1.893
  862SOL    HW1  862   1.200   3.381   1.930
  862SOL    HW2  863   1.135   3.474   1.813
  864SOL     OW  864   0.916   2.772   2.153
  864SOL    HW1  865   0.979   2.810   2.085
  864SOL    HW2  866   0.956   2.689   2.192
  865SOL     OW  867   1.504   3.469   1.906
  865SOL    HW1  868   1.412   3.506   1.913
  865SOL    HW2  869   1.542   3.489   1.816
  867SOL     OW  870   1.614   3.154   3.151
  867SOL    HW1  871   1.674   3.157   3.231
  867SOL    HW2  872   1.539   3.218   3.164
  868SOL     OW  873   1.039   2.960   2.558
  868SOL    HW1  874   0.969   2.913   2.612
  868SOL    HW2  875   1.098   2.892   2.515
  869SOL     OW  876   1.014   2.098   2.833
  869SOL    HW1  877   1.006   2.062   2.740
  869SOL    HW2  878   1.012   2.022   2.898
  871SOL     OW  879   1.709   2.247   3.243
  871SOL    HW1  880   1.782   2.316   3.247
  871SOL    HW2  881   1.737   2.172   3.184
  876SOL     OW  882   1.440   2.718   3.260
  876SOL    HW1  883   1.383   2.770   3.197
  876SOL    HW2  884   1.536   2.730   3.236
  878SOL     OW  885   1.183   3.197   1.981
  878SOL    HW1  886   1.084   3.186   1.983
  878SOL    HW2  887   1.217   3.212   2.074
  880SOL     OW  888   1.493   3.629   2.821
  880SOL    HW1  889   1.526   3.693   2.752
  880SOL    HW2  890   1.559   3.623   2.896
  884SOL     OW  891   1.674   2.745   3.116
  884SOL    HW1  892   1.647   2.656   3.079
  884SOL    HW2  893   1.675   2.813   3.043
  885SOL     OW  894   1.225   2.187   2.311
  885SOL    HW1  895   1.290   2.113   2.300
  885SOL    HW2  896   1.245   2.237   2.395
  886SOL     OW  897   0.594   2.607   2.514
  886SOL    HW1  898   0.644   2.692   2.495
  886SOL    HW2  899   0.506   2.609   2.466
  887SOL     OW  900   1.777   2.204   3.504
  887SOL    HW1  901   1.760   2.235   3.410
  887SOL    HW2  902   1.693   2.167   3.542
  888SOL     OW  903   1.730   2.796   3.379
  888SOL    HW1  904   1.768   2.887   3.394
  888SOL    HW2  905   1.722   2.779   3.280
  889SOL     OW  906   0.859   3.236   1.878
  889SOL    HW1  907   0.813   3.251   1.966
  889SOL    HW2  908   0.903   3.321   1.848
  891SOL     OW  909   0.859   2.818   2.723
  891SOL    HW1  910   0.913   2.749   2.771
  891SOL    HW2  911   0.827   2.887   2.789
  892SOL     OW  912   1.083   2.846   1.949
  892SOL    HW1  913   1.060   2.899   1.867
  892SOL    HW2  914   1.164   2.790   1.930
  893SOL     OW  915   1.861   3.431   2.713
  893SOL    HW1  916   1.790   3.419   2.643
  893SOL    HW2  917   1.862   3.352   2.773
  897SOL     OW  918   1.824   2.054   3.089
  897SOL    HW1  919   1.820   1.964   3.133
  897SOL    HW2  920   1.827   2.043   2.990
  898SOL     OW  921   0.428   2.286   2.382
  898SOL    HW1  922   0.458   2.214   2.320
  898SOL    HW2  923   0.389   2.246   2.465
  899SOL     OW  924   1.705   3.349   2.966
  899SOL    HW1  925   1.612   3.324   2.939
  899SOL    HW2  926   1.731   3.299   3.048
  902SOL     OW  927   1.424   2.076   2.974
  902SOL    HW1  928   1.476   2.011   3.029
  902SOL    HW2  929   1.375   2.139   3.035
  903SOL     OW  930   1.001   1.896   3.016
  903SOL    HW1  931   0.938   1.824   2.985
  903SOL    HW2  932   1.094   1.860   3.016
  904SOL     OW  933   0.770   3.192   2.163
  904SOL    HW1  934   0.724   3.105   2.180
  904SOL    HW2  935   0.861   3.189   2.204
  906SOL     OW  936   1.352   1.914   2.030
  906SOL    HW1  937   1.387   1.873   1.946
  906SOL    HW2  938   1.262   1.876   2.050
  907SOL     OW  939   1.300   2.315   2.553
  907SOL    HW1  940   1.241   2.395   2.557
  907SOL    HW2  941   1.315   2.280   2.646
  908SOL     OW  942   1.593   2.083   2.744
  908SOL    HW1  943   1.509   2.082   2.798
  908SOL    HW2  944   1.595   2.166   2.688
 1121SOL     OW  945   2.431   1.275   1.165
 1121SOL    HW1  946   2.338   1.268   1.128
 1121SOL    HW2  947   2.442   1.364   1.209
 1125SOL     OW  948   2.630   1.144   1.023
 1125SOL    HW1  949   2.552   1.161   1.083
 1125SOL    HW2  950   2.664   1.231   0.987
 1126SOL     OW  951   2.712   0.798   1.823
 1126SOL    HW1  952   2.708   0.874   1.888
 1126SOL    HW2  953   2.734   0.834   1.732
 1128SOL     OW  954   2.548   1.161   1.803
 1128SOL    HW1  955   2.608   1.240   1.817
 1128SOL    HW2  956   2.462   1.192   1.762
 1129SOL     OW  957   2.197   1.435   1.061
 1129SOL    HW1  958   2.119   1.404   1.008
 1129SOL    HW2  959   2.255   1.493   1.004
 1130SOL     OW  960   3.322   1.505   1.339
 1130SOL    HW1  961   3.346   1.599   1.365
 1130SOL    HW2  962   3.306   1.451   1.421
 1133SOL     OW  963   2.093   1.713   0.483
 1133SOL    HW1  964   2.127   1.790   0.537
 1133SOL    HW2  965   2.137   1.713   0.393
 1134SOL     OW  966   2.989   1.341   1.690
 1134SOL    HW1  967   3.036   1.341   1.778
 1134SOL    HW2  968   2.941   1.254   1.679
 1135SOL     OW  969   2.092   1.434   0.538
 1135SOL    HW1  970   2.066   1.530   0.538
 1135SOL    HW2  971   2.021   1.380   0.583
 1136SOL     OW  972   2.102   1.091   0.886
 1136SOL    HW1  973   2.116   1.007   0.938
 1136SOL    HW2  974   2.047   1.155   0.941
 1137SOL     OW  975   2.482   1.786   1.439
 1137SOL    HW1  976   2.390   1.769   1.474
 1137SOL    HW2  977   2.510   1.878   1.465
 1145SOL     OW  978   1.975   0.737   1.597
 1145SOL    HW1  979   2.063   0.724   1.642
 1145SOL    HW2  980   1.962   0.834   1.575
 1146SOL     OW  981   2.475   1.365   0.726
 1146SOL    HW1  982   2.426   1.278   0.735
 1146SOL    HW2  983   2.452   1.408   0.639
 1147SOL     OW  984   3.155   1.228   1.423
 1147SOL    HW1  985   3.192   1.155   1.365
 1147SOL    HW2  986   3.207   1.233   1.508
 1149SOL     OW  987   2.059   0.976   1.264
 1149SOL    HW1  988   2.148   0.931   1.250
 1149SOL    HW2  989   1.986   0.911   1.245
 1151SOL     OW  990   3.049   1.792   1.616
 1151SOL    HW1  991   3.073   1.852   1.540
 1151SOL    HW2  992   3.056   1.697   1.586
 1158SOL     OW  993   2.669   0.605   1.465
 1158SOL    HW1  994   2.622   0.602   1.554
 1158SOL    HW2  995   2.618   0.550   1.399
 1160SOL     OW  996   2.835   0.890   1.572
 1160SOL    HW1  997   2.881   0.806   1.543
 1160SOL    HW2  998   2.779   0.924   1.497
 1164SOL     OW  999   1.992   1.821   1.571
 1164SOL    HW1 1000   1.982   1.806   1.670
 1164SOL    HW2 1001   1.906   1.857   1.535
 1170SOL     OW 1002   2.213   1.801   0.853
 1170SOL    HW1 1003   2.263   1.715   0.859
 1170SOL    HW2 1004   2.278   1.878   0.850
 1172SOL     OW 1005   3.089   1.550   1.506
 1172SOL    HW1 1006   3.095   1.473   1.570
 1172SOL    HW2 1007   3.037   1.524   1.426
 1175SOL     OW 1008   2.323   1.266   1.727
 1175SOL    HW1 1009   2.273   1.267   1.641
 1175SOL    HW2 1010   2.260   1.248   1.803
 1181SOL     OW 1011   2.111   1.785   1.241
 1181SOL    HW1 1012   2.168   1.720   1.291
 1181SOL    HW2 1013   2.095   1.752   1.148
 1182SOL     OW 1014   2.802   1.698   0.904
 1182SOL    HW1 1015   2.882   1.641   0.925
 1182SOL    HW2 1016   2.753   1.658   0.827
 1187SOL     OW 1017   2.750   1.514   1.195
 1187SOL    HW1 1018   2.727   1.489   1.101
 1187SOL    HW2 1019   2.811   1.445   1.234
 1189SOL     OW 1020   2.665   1.402   0.924
 1189SOL    HW1 1021   2.755   1.416   0.882
 1189SOL    HW2 1022   2.594   1.404   0.853
 1195SOL     OW 1023   2.938   0.683   1.464
 1195SOL    HW1 1024   2.858   0.622   1.467
 1195SOL    HW2 1025   3.019   0.630   1.440
 1196SOL     OW 1026   3.089   1.570   0.793
 1196SOL    HW1 1027   3.110   1.644   0.728
 1196SOL    HW2 1028   3.157   1.570   0.866
 1197SOL     OW 1029   2.321   1.152   0.741
 1197SOL    HW1 1030   2.250   1.125   0.806
 1197SOL    HW2 1031   2.295   1.124   0.648
 1200SOL     OW 1032   1.940   0.556   1.386
 1200SOL    HW1 1033   2.032   0.555   1.345
 1200SOL    HW2 1034   1.934   0.630   1.453
 1212SOL     OW 1035   2.926   1.347   1.340
 1212SOL    HW1 1036   2.846   1.324   1.395
 1212SOL    HW2 1037   3.009   1.321   1.389
 1213SOL     OW 1038   3.454   1.629   1.625
 1213SOL    HW1 1039   3.481   1.663   1.535
 1213SOL    HW2 1040   3.533   1.591   1.671
 1214SOL     OW 1041   2.973   1.195   1.100
 1214SOL    HW1 1042   2.933   1.239   1.181
 1214SOL    HW2 1043   2.932   1.232   1.017
 1217SOL     OW 1044   2.842   1.116   1.719
 1217SOL    HW1 1045   2.743   1.122   1.729
 1217SOL    HW2 1046   2.865   1.036   1.663
 1219SOL     OW 1047   2.272   0.813   1.251
 1219SOL    HW1 1048   2.358   0.825   1.301
 1219SOL    HW2 1049   2.230   0.726   1.278
 1221SOL     OW 1050   1.926   1.564   1.331
 1221SOL    HW1 1051   1.880   1.646   1.297
 1221SOL    HW2 1052   2.024   1.583   1.340
 1225SOL     OW 1053   3.134   1.445   1.142
 1225SOL    HW1 1054   3.181   1.458   1.229
 1225SOL    HW2 1055   3.068   1.371   1.151
 1227SOL     OW 1056   2.216   1.510   1.329
 1227SOL    HW1 1057   2.195   1.466   1.242
 1227SOL    HW2 1058   2.313   1.536   1.332
 1228SOL     OW 1059   2.264   0.751   1.598
 1228SOL    HW1 1060   2.332   0.806   1.551
 1228SOL    HW2 1061   2.304   0.663   1.625
 1232SOL     OW 1062   2.435   0.870   1.029
 1232SOL    HW1 1063   2.479   0.959   1.020
 1232SOL    HW2 1064   2.372   0.870   1.106
 1236SOL     OW 1065   1.899   1.310   1.282
 1236SOL    HW1 1066   1.952   1.261   1.350
 1236SOL    HW2 1067   1.921   1.408   1.287
 1242SOL     OW 1068   2.842   1.573   1.700
 1242SOL    HW1 1069   2.822   1.617   1.612
 1242SOL    HW2 1070   2.881   1.482   1.684
 1243SOL     OW 1071   3.721   1.518   1.605
 1243SOL    HW1 1072   3.735   1.545   1.510
 1243SOL    HW2 1073   3.804   1.540   1.658
 1244SOL     OW 1074   2.212   0.898   1.804
 1244SOL    HW1 1075   2.288   0.942   1.852
 1244SOL    HW2 1076   2.247   0.851   1.722
 1247SOL     OW 1077   2.930   1.333   0.849
 1247SOL    HW1 1078   2.937   1.249   0.794
 1247SOL    HW2 1079   2.992   1.402   0.813
 1248SOL     OW 1080   2.181   0.810   0.949
 1248SOL    HW1 1081   2.274   0.846   0.954
 1248SOL    HW2 1082   2.175   0.725   1.001
 1253SOL     OW 1083   1.950   1.801   0.927
 1253SOL    HW1 1084   1.908   1.715   0.900
 1253SOL    HW2 1085   2.044   1.804   0.893
 1254SOL     OW 1086   2.366   1.568   0.910
 1254SOL    HW1 1087   2.432   1.642   0.919
 1254SOL    HW2 1088   2.410   1.489   0.868
 1255SOL     OW 1089   2.864   0.796   1.238
 1255SOL    HW1 1090   2.905   0.764   1.324
 1255SOL    HW2 1091   2.768   0.769   1.235
 1257SOL     OW 1092   2.051   0.520   1.722
 1257SOL    HW1 1093   2.110   0.480   1.652
 1257SOL    HW2 1094   1.993   0.591   1.681
 1258SOL     OW 1095   3.231   0.950   1.660
 1258SOL    HW1 1096   3.270   1.039   1.680
 1258SOL    HW2 1097   3.241   0.930   1.563
 1261SOL     OW 1098   2.114   1.564   1.744
 1261SOL    HW1 1099   2.084   1.621   1.820
 1261SOL    HW2 1100   2.107   1.467   1.770
 1263SOL     OW 1101   2.792   1.678   1.465
 1263SOL    HW1 1102   2.768   1.660   1.370
 1263SOL    HW2 1103   2.822   1.772   1.475
 1265SOL     OW 1104   2.021   1.137   1.466
 1265SOL    HW1 1105   2.043   1.076   1.542
 1265SOL    HW2 1106   2.031   1.088   1.380
 1266SOL     OW 1107   3.209   1.059   1.234
 1266SOL    HW1 1108   3.233   0.996   1.160
 1266SOL    HW2 1109   3.119   1.099   1.216
 1269SOL     OW 1110   3.114   1.731   1.128
 1269SOL    HW1 1111   3.198   1.736   1.074
 1269SOL    HW2 1112   3.091   1.635   1.146
 1270SOL     OW 1113   1.945   1.258   1.022
 1270SOL    HW1 1114   1.940   1.257   1.122
 1270SOL    HW2 1115   1.862   1.217   0.984
 1271SOL     OW 1116   2.550   1.662   1.716
 1271SOL    HW1 1117   2.494   1.743   1.725
 1271SOL    HW2 1118   2.602   1.666   1.630
 1275SOL     OW 1119   1.992   1.794   1.851
 1275SOL    HW1 1120   1.951   1.720   1.904
 1275SOL    HW2 1121   2.056   1.845   1.909
 1277SOL     OW 1122   2.692   1.273   1.422
 1277SOL    HW1 1123   2.687   1.306   1.517
 1277SOL    HW2 1124   2.606   1.292   1.376
 1279SOL     OW 1125   3.512   1.720   1.394
 1279SOL    HW1 1126   3.565   1.730   1.310
 1279SOL    HW2 1127   3.485   1.810   1.428
 1283SOL     OW 1128   2.684   1.002   1.372
 1283SOL    HW1 1129   2.724   1.001   1.280
 1283SOL    HW2 1130   2.694   1.094   1.412
 1286SOL     OW 1131   2.234   1.288   1.490
 1286SOL    HW1 1132   2.221   1.381   1.456
 1286SOL    HW2 1133   2.150   1.236   1.477
 1287SOL     OW 1134   3.476   1.292   1.289
 1287SOL    HW1 1135   3.536   1.295   1.369
 1287SOL    HW2 1136   3.401   1.356   1.302
 1290SOL     OW 1137   2.452   1.487   0.491
 1290SOL    HW1 1138   2.494   1.429   0.421
 1290SOL    HW2 1139   2.408   1.566   0.447
 1293SOL     OW 1140   1.967   1.013   1.726
 1293SOL    HW1 1141   1.890   0.980   1.780
 1293SOL    HW2 1142   2.052   0.983   1.768
 1299SOL     OW 1143   2.475   0.842   1.431
 1299SOL    HW1 1144   2.531   0.923   1.414
 1299SOL    HW2 1145   2.534   0.762   1.434
 1300SOL     OW 1146   3.355   1.767   0.959
 1300SOL    HW1 1147   3.388   1.831   0.890
 1300SOL    HW2 1148   3.421   1.761   1.034
 1301SOL     OW 1149   2.578   0.565   1.708
 1301SOL    HW1 1150   2.597   0.630   1.782
 1301SOL    HW2 1151   2.638   0.485   1.717
 1302SOL     OW 1152   3.312   1.220   1.633
 1302SOL    HW1 1153   3.303   1.210   1.732
 1302SOL    HW2 1154   3.408   1.213   1.607
 1303SOL     OW 1155   2.252   1.741   1.560
 1303SOL    HW1 1156   2.161   1.782   1.558
 1303SOL    HW2 1157   2.245   1.647   1.592
 1310SOL     OW 1158   2.523   1.790   0.953
 1310SOL    HW1 1159   2.477   1.878   0.940
 1310SOL    HW2 1160   2.622   1.802   0.946
 1314SOL     OW 1161   2.083   1.314   1.844
 1314SOL    HW1 1162   2.018   1.241   1.823
 1314SOL    HW2 1163   2.087   1.328   1.942
 1315SOL     OW 1164   1.941   1.240   0.653
 1315SOL    HW1 1165   1.940   1.193   0.741
 1315SOL    HW2 1166   2.023   1.212   0.602
 1316SOL     OW 1167   2.534   1.391   1.624
 1316SOL    HW1 1168   2.456   1.341   1.662
 1316SOL    HW2 1169   2.531   1.486   1.655
 1320SOL     OW 1170   2.179   0.547   1.280
 1320SOL    HW1 1171   2.217   0.488   1.352
 1320SOL    HW2 1172   2.219   0.521   1.192
 1321SOL     OW 1173   2.674   1.586   0.687
 1321SOL    HW1 1174   2.706   1.596   0.593
 1321SOL    HW2 1175   2.595   1.524   0.689
 1325SOL     OW 1176   2.480   1.567   1.284
 1325SOL    HW1 1177   2.475   1.649   1.341
 1325SOL    HW2 1178   2.569   1.564   1.239
 1331SOL     OW 1179   2.092   0.628   1.975
 1331SOL    HW1 1180   1.999   0.626   2.012
 1331SOL    HW2 1181   2.093   0.589   1.883
 1334SOL     OW 1182   2.431   1.275   3.027
 1334SOL    HW1 1183   2.338   1.268   2.990
 1334SOL    HW2 1184   2.442   1.364   3.071
 1335SOL     OW 1185   3.417   1.511   2.565
 1335SOL    HW1 1186   3.360   1.495   2.646
 1335SOL    HW2 1187   3.358   1.521   2.485
 1336SOL     OW 1188   2.997   0.703   2.579
 1336SOL    HW1 1189   3.054   0.781   2.554
 1336SOL    HW2 1190   2.937   0.729   2.655
 1338SOL     OW 1191   2.630   1.144   2.885
 1338SOL    HW1 1192   2.552   1.161   2.945
 1338SOL    HW2 1193   2.664   1.231   2.849
 1340SOL     OW 1194   2.547   1.012   2.527
 1340SOL    HW1 1195   2.616   0.996   2.597
 1340SOL    HW2 1196   2.474   1.069   2.565
 1342SOL     OW 1197   2.197   1.435   2.923
 1342SOL    HW1 1198   2.119   1.404   2.870
 1342SOL    HW2 1199   2.255   1.493   2.866
 1343SOL     OW 1200   3.322   1.505   3.201
 1343SOL    HW1 1201   3.346   1.599   3.227
 1343SOL    HW2 1202   3.306   1.451   3.283
 1346SOL     OW 1203   2.093   1.713   2.345
 1346SOL    HW1 1204   2.127   1.790   2.399
 1346SOL    HW2 1205   2.137   1.713   2.255
 1348SOL     OW 1206   2.092   1.434   2.400
 1348SOL    HW1 1207   2.066   1.530   2.400
 1348SOL    HW2 1208   2.021   1.380   2.445
 1349SOL     OW 1209   2.102   1.091   2.748
 1349SOL    HW1 1210   2.116   1.007   2.800
 1349SOL    HW2 1211   2.047   1.155   2.803
 1350SOL     OW 1212   2.482   1.786   3.301
 1350SOL    HW1 1213   2.390   1.769   3.336
 1350SOL    HW2 1214   2.510   1.878   3.327
 1351SOL     OW 1215   2.468   0.964   1.985
 1351SOL    HW1 1216   2.475   1.048   1.931
 1351SOL    HW2 1217   2.514   0.977   2.073
 1353SOL     OW 1218   1.984   0.643   2.425
 1353SOL    HW1 1219   1.939   0.555   2.442
 1353SOL    HW2 1220   1.983   0.697   2.509
 1354SOL     OW 1221   3.704   1.767   2.221
 1354SOL    HW1 1222   3.758   1.738   2.301
 1354SOL    HW2 1223   3.734   1.857   2.192
 1355SOL     OW 1224   1.889   1.596   1.979
 1355SOL    HW1 1225   1.870   1.500   2.000
 1355SOL    HW2 1226   1.856   1.654   2.054
 1357SOL     OW 1227   3.503   1.108   2.294
 1357SOL    HW1 1228   3.589   1.110   2.242
 1357SOL    HW2 1229   3.517   1.155   2.382
 1359SOL     OW 1230   2.475   1.365   2.588
 1359SOL    HW1 1231   2.426   1.278   2.597
 1359SOL    HW2 1232   2.452   1.408   2.501
 1360SOL     OW 1233   3.155   1.228   3.285
 1360SOL    HW1 1234   3.192   1.155   3.227
 1360SOL    HW2 1235   3.207   1.233   3.370
 1362SOL     OW 1236   2.059   0.976   3.126
 1362SOL    HW1 1237   2.148   0.931   3.112
 1362SOL    HW2 1238   1.986   0.911   3.107
 1363SOL     OW 1239   3.387   0.999   2.052
 1363SOL    HW1 1240   3.324   0.923   2.065
 1363SOL    HW2 1241   3.435   1.017   2.138
 1364SOL     OW 1242   3.049   1.792   3.478
 1364SOL    HW1 1243   3.073   1.852   3.402
 1364SOL    HW2 1244   3.056   1.697   3.448
 1366SOL     OW 1245   3.328   1.417   2.815
 1366SOL    HW1 1246   3.269   1.423   2.895
 1366SOL    HW2 1247   3.313   1.329   2.769
 1367SOL     OW 1248   3.529   1.714   2.434
 1367SOL    HW1 1249   3.488   1.691   2.346
 1367SOL    HW2 1250   3.511   1.640   2.499
 1368SOL     OW 1251   2.460   0.729   2.132
 1368SOL    HW1 1252   2.484   0.798   2.064
 1368SOL    HW2 1253   2.382   0.762   2.186
 1370SOL     OW 1254   3.438   1.662   2.169
 1370SOL    HW1 1255   3.527   1.708   2.172
 1370SOL    HW2 1256   3.417   1.638   2.074
 1375SOL     OW 1257   2.903   0.701   2.291
 1375SOL    HW1 1258   2.929   0.697   2.387
 1375SOL    HW2 1259   2.818   0.650   2.277
 1376SOL     OW 1260   1.938   0.811   2.651
 1376SOL    HW1 1261   2.037   0.799   2.660
 1376SOL    HW2 1262   1.914   0.906   2.672
 1377SOL     OW 1263   1.992   1.821   3.433
 1377SOL    HW1 1264   1.982   1.806   3.532
 1377SOL    HW2 1265   1.906   1.857   3.397
 1380SOL     OW 1266   3.224   1.144   2.407
 1380SOL    HW1 1267   3.307   1.115   2.359
 1380SOL    HW2 1268   3.175   1.211   2.351
 1382SOL     OW 1269   2.870   1.456   2.339
 1382SOL    HW1 1270   2.824   1.528   2.287
 1382SOL    HW2 1271   2.866   1.476   2.437
 1383SOL     OW 1272   2.213   1.801   2.715
 1383SOL    HW1 1273   2.263   1.715   2.721
 1383SOL    HW2 1274   2.278   1.878   2.712
 1385SOL     OW 1275   3.089   1.550   3.368
 1385SOL    HW1 1276   3.095   1.473   3.432
 1385SOL    HW2 1277   3.037   1.524   3.288
 1386SOL     OW 1278   2.183   0.943   2.104
 1386SOL    HW1 1279   2.265   0.982   2.062
 1386SOL    HW2 1280   2.156   0.861   2.055
 1388SOL     OW 1281   2.323   1.266   3.589
 1388SOL    HW1 1282   2.273   1.267   3.503
 1388SOL    HW2 1283   2.260   1.248   3.665
 1389SOL     OW 1284   2.973   1.776   2.099
 1389SOL    HW1 1285   2.913   1.714   2.149
 1389SOL    HW2 1286   3.004   1.732   2.014
 1391SOL     OW 1287   3.494   1.377   1.943
 1391SOL    HW1 1288   3.462   1.471   1.933
 1391SOL    HW2 1289   3.418   1.314   1.931
 1392SOL     OW 1290   2.326   1.743   2.185
 1392SOL    HW1 1291   2.359   1.782   2.271
 1392SOL    HW2 1292   2.402   1.736   2.120
 1394SOL     OW 1293   2.111   1.785   3.103
 1394SOL    HW1 1294   2.168   1.720   3.153
 1394SOL    HW2 1295   2.095   1.752   3.010
 1395SOL     OW 1296   2.802   1.698   2.766
 1395SOL    HW1 1297   2.882   1.641   2.787
 1395SOL    HW2 1298   2.753   1.658   2.689
 1396SOL     OW 1299   2.244   0.700   2.342
 1396SOL    HW1 1300   2.289   0.610   2.339
 1396SOL    HW2 1301   2.150   0.689   2.375
 1400SOL     OW 1302   2.750   1.514   3.057
 1400SOL    HW1 1303   2.727   1.489   2.963
 1400SOL    HW2 1304   2.811   1.445   3.096
 1402SOL     OW 1305   2.665   1.402   2.786
 1402SOL    HW1 1306   2.755   1.416   2.744
 1402SOL    HW2 1307   2.594   1.404   2.715
 1405SOL     OW 1308   3.296   1.188   1.903
 1405SOL    HW1 1309   3.328   1.112   1.960
 1405SOL    HW2 1310   3.204   1.215   1.933
 1409SOL     OW 1311   3.089   1.570   2.655
 1409SOL    HW1 1312   3.110   1.644   2.590
 1409SOL    HW2 1313   3.157   1.570   2.728
 1410SOL     OW 1314   2.321   1.152   2.603
 1410SOL    HW1 1315   2.250   1.125   2.668
 1410SOL    HW2 1316   2.295   1.124   2.510
 1411SOL     OW 1317   3.133   1.797   2.453
 1411SOL    HW1 1318   3.177   1.861   2.389
 1411SOL    HW2 1319   3.083   1.849   2.523
 1412SOL     OW 1320   2.894   0.549   1.878
 1412SOL    HW1 1321   2.853   0.631   1.839
 1412SOL    HW2 1322   2.958   0.575   1.951
 1417SOL     OW 1323   3.291   1.173   2.729
 1417SOL    HW1 1324   3.236   1.089   2.722
 1417SOL    HW2 1325   3.317   1.202   2.637
 1420SOL     OW 1326   2.350   1.385   2.036
 1420SOL    HW1 1327   2.263   1.370   2.083
 1420SOL    HW2 1328   2.333   1.411   1.941
 1421SOL     OW 1329   3.526   1.280   2.519
 1421SOL    HW1 1330   3.625   1.288   2.533
 1421SOL    HW2 1331   3.481   1.364   2.550
 1425SOL     OW 1332   2.926   1.347   3.202
 1425SOL    HW1 1333   2.846   1.324   3.257
 1425SOL    HW2 1334   3.009   1.321   3.251
 1427SOL     OW 1335   2.973   1.195   2.962
 1427SOL    HW1 1336   2.933   1.239   3.043
 1427SOL    HW2 1337   2.932   1.232   2.879
 1431SOL     OW 1338   2.567   1.050   2.230
 1431SOL    HW1 1339   2.553   1.057   2.329
 1431SOL    HW2 1340   2.651   0.999   2.212
 1432SOL     OW 1341   2.272   0.813   3.113
 1432SOL    HW1 1342   2.358   0.825   3.163
 1432SOL    HW2 1343   2.230   0.726   3.140
 1434SOL     OW 1344   1.926   1.564   3.193
 1434SOL    HW1 1345   1.880   1.646   3.159
 1434SOL    HW2 1346   2.024   1.583   3.202
 1435SOL     OW 1347   2.229   1.100   2.363
 1435SOL    HW1 1348   2.222   1.183   2.307
 1435SOL    HW2 1349   2.233   1.020   2.303
 1436SOL     OW 1350   2.428   0.537   2.727
 1436SOL    HW1 1351   2.440   0.603   2.653
 1436SOL    HW2 1352   2.474   0.571   2.810
 1437SOL     OW 1353   3.114   1.348   2.250
 1437SOL    HW1 1354   3.164   1.425   2.290
 1437SOL    HW2 1355   3.019   1.350   2.282
 1438SOL     OW 1356   3.134   1.445   3.004
 1438SOL    HW1 1357   3.181   1.458   3.091
 1438SOL    HW2 1358   3.068   1.371   3.013
 1440SOL     OW 1359   2.216   1.510   3.191
 1440SOL    HW1 1360   2.195   1.466   3.104
 1440SOL    HW2 1361   2.313   1.536   3.194
 1445SOL     OW 1362   2.435   0.870   2.891
 1445SOL    HW1 1363   2.479   0.959   2.882
 1445SOL    HW2 1364   2.372   0.870   2.968
 1449SOL     OW 1365   1.899   1.310   3.144
 1449SOL    HW1 1366   1.952   1.261   3.212
 1449SOL    HW2 1367   1.921   1.408   3.149
 1450SOL     OW 1368   2.594   0.634   2.926
 1450SOL    HW1 1369   2.653   0.608   2.850
 1450SOL    HW2 1370   2.566   0.730   2.915
 1454SOL     OW 1371   2.885   0.766   2.828
 1454SOL    HW1 1372   2.900   0.787   2.924
 1454SOL    HW2 1373   2.855   0.671   2.819
 1455SOL     OW 1374   2.842   1.573   3.562
 1455SOL    HW1 1375   2.822   1.617   3.474
 1455SOL    HW2 1376   2.881   1.482   3.546
 1459SOL     OW 1377   3.165   0.838   1.904
 1459SOL    HW1 1378   3.199   0.745   1.919
 1459SOL    HW2 1379   3.183   0.865   1.809
 1460SOL     OW 1380   2.930   1.333   2.711
 1460SOL    HW1 1381   2.937   1.249   2.656
 1460SOL    HW2 1382   2.992   1.402   2.675
 1461SOL     OW 1383   2.181   0.810   2.811
 1461SOL    HW1 1384   2.274   0.846   2.816
 1461SOL    HW2 1385   2.175   0.725   2.863
 1462SOL     OW 1386   2.201   0.509   2.868
 1462SOL    HW1 1387   2.149   0.426   2.851
 1462SOL    HW2 1388   2.278   0.514   2.804
 1465SOL     OW 1389   1.870   1.326   2.062
 1465SOL    HW1 1390   1.777   1.347   2.031
 1465SOL    HW2 1391   1.880   1.227   2.075
 1466SOL     OW 1392   1.950   1.801   2.789
 1466SOL    HW1 1393   1.908   1.715   2.762
 1466SOL    HW2 1394   2.044   1.804   2.755
 1467SOL     OW 1395   2.366   1.568   2.772
 1467SOL    HW1 1396   2.432   1.642   2.781
 1467SOL    HW2 1397   2.410   1.489   2.730
 1472SOL     OW 1398   2.677   0.572   2.187
 1472SOL    HW1 1399   2.684   0.483   2.141
 1472SOL    HW2 1400   2.583   0.606   2.179
 1474SOL     OW 1401   2.114   1.564   3.606
 1474SOL    HW1 1402   2.084   1.621   3.682
 1474SOL    HW2 1403   2.107   1.467   3.632
 1476SOL     OW 1404   2.792   1.678   3.327
 1476SOL    HW1 1405   2.768   1.660   3.232
 1476SOL    HW2 1406   2.822   1.772   3.337
 1477SOL     OW 1407   2.335   0.500   2.053
 1477SOL    HW1 1408   2.396   0.580   2.057
 1477SOL    HW2 1409   2.240   0.531   2.060
 1478SOL     OW 1410   2.021   1.137   3.328
 1478SOL    HW1 1411   2.043   1.076   3.404
 1478SOL    HW2 1412   2.031   1.088   3.242
 1480SOL     OW 1413   3.164   0.855   2.171
 1480SOL    HW1 1414   3.078   0.824   2.213
 1480SOL    HW2 1415   3.160   0.841   2.072
 1481SOL     OW 1416   3.621   1.747   3.016
 1481SOL    HW1 1417   3.682   1.777   2.943
 1481SOL    HW2 1418   3.583   1.658   2.994
 1482SOL     OW 1419   3.114   1.731   2.990
 1482SOL    HW1 1420   3.198   1.736   2.936
 1482SOL    HW2 1421   3.091   1.635   3.008
 1483SOL     OW 1422   1.945   1.258   2.884
 1483SOL    HW1 1423   1.940   1.257   2.984
 1483SOL    HW2 1424   1.862   1.217   2.846
 1484SOL     OW 1425   2.550   1.662   3.578
 1484SOL    HW1 1426   2.494   1.743   3.587
 1484SOL    HW2 1427   2.602   1.666   3.492
 1486SOL     OW 1428   3.250   1.573   2.339
 1486SOL    HW1 1429   3.317   1.585   2.265
 1486SOL    HW2 1430   3.210   1.662   2.362
 1487SOL     OW 1431   1.992   1.794   3.713
 1487SOL    HW1 1432   1.951   1.720   3.766
 1487SOL    HW2 1433   2.056   1.845   3.771
 1488SOL     OW 1434   3.142   0.927   2.534
 1488SOL    HW1 1435   3.202   0.846   2.536
 1488SOL    HW2 1436   3.182   0.996   2.474
 1489SOL     OW 1437   2.692   1.273   3.284
 1489SOL    HW1 1438   2.687   1.306   3.379
 1489SOL    HW2 1439   2.606   1.292   3.238
 1490SOL     OW 1440   2.534   1.616   2.016
 1490SOL    HW1 1441   2.543   1.626   1.917
 1490SOL    HW2 1442   2.494   1.527   2.037
 1494SOL     OW 1443   3.056   1.612   1.893
 1494SOL    HW1 1444   3.062   1.519   1.930
 1494SOL    HW2 1445   2.997   1.612   1.813
 1495SOL     OW 1446   2.684   1.002   3.234
 1495SOL    HW1 1447   2.724   1.001   3.142
 1495SOL    HW2 1448   2.694   1.094   3.274
 1496SOL     OW 1449   2.778   0.910   2.153
 1496SOL    HW1 1450   2.841   0.948   2.085
 1496SOL    HW2 1451   2.818   0.827   2.192
 1497SOL     OW 1452   3.366   1.607   1.906
 1497SOL    HW1 1453   3.274   1.644   1.913
 1497SOL    HW2 1454   3.404   1.627   1.816
 1498SOL     OW 1455   2.234   1.288   3.352
 1498SOL    HW1 1456   2.221   1.381   3.318
 1498SOL    HW2 1457   2.150   1.236   3.339
 1500SOL     OW 1458   2.901   1.098   2.558
 1500SOL    HW1 1459   2.831   1.051   2.612
 1500SOL    HW2 1460   2.960   1.030   2.515
 1502SOL     OW 1461   2.452   1.487   2.353
 1502SOL    HW1 1462   2.494   1.429   2.283
 1502SOL    HW2 1463   2.408   1.566   2.309
 1504SOL     OW 1464   2.117   1.348   2.152
 1504SOL    HW1 1465   2.021   1.349   2.125
 1504SOL    HW2 1466   2.129   1.401   2.236
 1507SOL     OW 1467   1.937   0.345   1.895
 1507SOL    HW1 1468   1.845   0.317   1.866
 1507SOL    HW2 1469   1.968   0.422   1.839
 1510SOL     OW 1470   3.045   1.335   1.981
 1510SOL    HW1 1471   2.946   1.324   1.983
 1510SOL    HW2 1472   3.079   1.350   2.074
 1511SOL     OW 1473   2.475   0.842   3.293
 1511SOL    HW1 1474   2.531   0.923   3.276
 1511SOL    HW2 1475   2.534   0.762   3.296
 1512SOL     OW 1476   3.355   1.767   2.821
 1512SOL    HW1 1477   3.388   1.831   2.752
 1512SOL    HW2 1478   3.421   1.761   2.896
 1515SOL     OW 1479   2.252   1.741   3.422
 1515SOL    HW1 1480   2.161   1.782   3.420
 1515SOL    HW2 1481   2.245   1.647   3.454
 1518SOL     OW 1482   2.456   0.745   2.514
 1518SOL    HW1 1483   2.506   0.830   2.495
 1518SOL    HW2 1484   2.368   0.747   2.466
 1521SOL     OW 1485   2.721   1.374   1.878
 1521SOL    HW1 1486   2.675   1.389   1.966
 1521SOL    HW2 1487   2.765   1.459   1.848
 1522SOL     OW 1488   2.523   1.790   2.815
 1522SOL    HW1 1489   2.477   1.878   2.802
 1522SOL    HW2 1490   2.622   1.802   2.808
 1523SOL     OW 1491   2.721   0.956   2.723
 1523SOL    HW1 1492   2.775   0.887   2.771
 1523SOL    HW2 1493   2.689   1.025   2.789
 1524SOL     OW 1494   2.945   0.984   1.949
 1524SOL    HW1 1495   2.922   1.037   1.867
 1524SOL    HW2 1496   3.026   0.928   1.930
 1525SOL     OW 1497   3.723   1.569   2.713
 1525SOL    HW1 1498   3.652   1.557   2.643
 1525SOL    HW2 1499   3.724   1.490   2.773
 1526SOL     OW 1500   2.083   1.314   3.706
 1526SOL    HW1 1501   2.018   1.241   3.685
 1526SOL    HW2 1502   2.087   1.328   3.804
 1527SOL     OW 1503   1.941   1.240   2.515
 1527SOL    HW1 1504   1.940   1.193   2.603
 1527SOL    HW2 1505   2.023   1.212   2.464
 1528SOL     OW 1506   2.534   1.391   3.486
 1528SOL    HW1 1507   2.456   1.341   3.524
 1528SOL    HW2 1508   2.531   1.486   3.517
 1530SOL     OW 1509   2.290   0.424   2.382
 1530SOL    HW1 1510   2.320   0.352   2.320
 1530SOL    HW2 1511   2.251   0.384   2.465
 1531SOL     OW 1512   3.567   1.487   2.966
 1531SOL    HW1 1513   3.474   1.462   2.939
 1531SOL    HW2 1514   3.593   1.437   3.048
 1533SOL     OW 1515   2.674   1.586   2.549
 1533SOL    HW1 1516   2.706   1.596   2.455
 1533SOL    HW2 1517   2.595   1.524   2.551
 1536SOL     OW 1518   2.632   1.330   2.163
 1536SOL    HW1 1519   2.586   1.243   2.180
 1536SOL    HW2 1520   2.723   1.327   2.204
 1537SOL     OW 1521   2.480   1.567   3.146
 1537SOL    HW1 1522   2.475   1.649   3.203
 1537SOL    HW2 1523   2.569   1.564   3.101
 1541SOL     OW 1524   1.901   1.077   2.162
 1541SOL    HW1 1525   2.000   1.066   2.153
 1541SOL    HW2 1526   1.861   0.991   2.194
 1542SOL     OW 1527   2.737   1.646   2.199
 1542SOL    HW1 1528   2.660   1.611   2.145
 1542SOL    HW2 1529   2.705   1.717   2.261
 1604SOL     OW 1530   2.087   2.137   0.996
 1604SOL    HW1 1531   2.122   2.120   1.088
 1604SOL    HW2 1532   1.999   2.092   0.984
 1605SOL     OW 1533   1.881   2.230   0.647
 1605SOL    HW1 1534   1.799   2.273   0.686
 1605SOL    HW2 1535   1.853   2.157   0.584
 1606SOL     OW 1536   2.431   3.137   1.165
 1606SOL    HW1 1537   2.338   3.130   1.128
 1606SOL    HW2 1538   2.442   3.226   1.209
 1608SOL     OW 1539   2.997   2.565   0.717
 1608SOL    HW1 1540   3.054   2.643   0.692
 1608SOL    HW2 1541   2.937   2.591   0.793
 1610SOL     OW 1542   2.630   3.006   1.023
 1610SOL    HW1 1543   2.552   3.023   1.083
 1610SOL    HW2 1544   2.664   3.093   0.987
 1611SOL     OW 1545   2.712   2.660   1.823
 1611SOL    HW1 1546   2.708   2.736   1.888
 1611SOL    HW2 1547   2.734   2.696   1.732
 1612SOL     OW 1548   2.547   2.874   0.665
 1612SOL    HW1 1549   2.616   2.858   0.735
 1612SOL    HW2 1550   2.474   2.931   0.703
 1613SOL     OW 1551   2.548   3.023   1.803
 1613SOL    HW1 1552   2.608   3.102   1.817
 1613SOL    HW2 1553   2.462   3.054   1.762
 1614SOL     OW 1554   2.197   3.297   1.061
 1614SOL    HW1 1555   2.119   3.266   1.008
 1614SOL    HW2 1556   2.255   3.355   1.004
 1616SOL     OW 1557   2.300   2.254   1.499
 1616SOL    HW1 1558   2.382   2.198   1.508
 1616SOL    HW2 1559   2.219   2.196   1.503
 1619SOL     OW 1560   2.989   3.203   1.690
 1619SOL    HW1 1561   3.036   3.203   1.778
 1619SOL    HW2 1562   2.941   3.116   1.679
 1621SOL     OW 1563   2.102   2.953   0.886
 1621SOL    HW1 1564   2.116   2.869   0.938
 1621SOL    HW2 1565   2.047   3.017   0.941
 1622SOL     OW 1566   2.482   3.648   1.439
 1622SOL    HW1 1567   2.390   3.631   1.474
 1622SOL    HW2 1568   2.510   3.740   1.465
 1624SOL     OW 1569   3.456   1.976   1.480
 1624SOL    HW1 1570   3.438   2.043   1.408
 1624SOL    HW2 1571   3.453   2.022   1.569
 1625SOL     OW 1572   1.984   2.505   0.563
 1625SOL    HW1 1573   1.939   2.417   0.580
 1625SOL    HW2 1574   1.983   2.559   0.647
 1630SOL     OW 1575   1.975   2.599   1.597
 1630SOL    HW1 1576   2.063   2.586   1.642
 1630SOL    HW2 1577   1.962   2.696   1.575
 1632SOL     OW 1578   3.155   3.090   1.423
 1632SOL    HW1 1579   3.192   3.017   1.365
 1632SOL    HW2 1580   3.207   3.095   1.508
 1633SOL     OW 1581   2.671   1.866   0.502
 1633SOL    HW1 1582   2.711   1.957   0.493
 1633SOL    HW2 1583   2.571   1.874   0.508
 1634SOL     OW 1584   2.059   2.838   1.264
 1634SOL    HW1 1585   2.148   2.793   1.250
 1634SOL    HW2 1586   1.986   2.773   1.245
 1637SOL     OW 1587   2.179   2.113   1.801
 1637SOL    HW1 1588   2.250   2.184   1.807
 1637SOL    HW2 1589   2.091   2.152   1.829
 1641SOL     OW 1590   3.143   2.207   0.944
 1641SOL    HW1 1591   3.057   2.157   0.931
 1641SOL    HW2 1592   3.205   2.153   1.000
 1643SOL     OW 1593   2.669   2.467   1.465
 1643SOL    HW1 1594   2.622   2.464   1.554
 1643SOL    HW2 1595   2.618   2.412   1.399
 1644SOL     OW 1596   3.256   2.331   1.674
 1644SOL    HW1 1597   3.236   2.374   1.762
 1644SOL    HW2 1598   3.334   2.269   1.683
 1645SOL     OW 1599   2.835   2.752   1.572
 1645SOL    HW1 1600   2.881   2.668   1.543
 1645SOL    HW2 1601   2.779   2.786   1.497
 1646SOL     OW 1602   2.853   2.272   1.242
 1646SOL    HW1 1603   2.776   2.306   1.296
 1646SOL    HW2 1604   2.819   2.221   1.163
 1648SOL     OW 1605   1.938   2.673   0.789
 1648SOL    HW1 1606   2.037   2.661   0.798
 1648SOL    HW2 1607   1.914   2.768   0.810
 1649SOL     OW 1608   1.992   3.683   1.571
 1649SOL    HW1 1609   1.982   3.668   1.670
 1649SOL    HW2 1610   1.906   3.719   1.535
 1651SOL     OW 1611   3.581   2.447   1.831
 1651SOL    HW1 1612   3.555   2.536   1.795
 1651SOL    HW2 1613   3.579   2.379   1.758
 1653SOL     OW 1614   2.412   2.058   0.885
 1653SOL    HW1 1615   2.407   2.053   0.985
 1653SOL    HW2 1616   2.414   2.154   0.856
 1657SOL     OW 1617   3.089   3.412   1.506
 1657SOL    HW1 1618   3.095   3.335   1.570
 1657SOL    HW2 1619   3.037   3.386   1.426
 1660SOL     OW 1620   2.323   3.128   1.727
 1660SOL    HW1 1621   2.273   3.129   1.641
 1660SOL    HW2 1622   2.260   3.110   1.803
 1662SOL     OW 1623   2.064   2.147   1.498
 1662SOL    HW1 1624   1.984   2.207   1.485
 1662SOL    HW2 1625   2.054   2.098   1.584
 1666SOL     OW 1626   2.111   3.647   1.241
 1666SOL    HW1 1627   2.168   3.582   1.291
 1666SOL    HW2 1628   2.095   3.614   1.148
 1668SOL     OW 1629   2.244   2.562   0.480
 1668SOL    HW1 1630   2.289   2.472   0.477
 1668SOL    HW2 1631   2.150   2.551   0.513
 1669SOL     OW 1632   3.409   2.084   1.729
 1669SOL    HW1 1633   3.404   2.121   1.821
 1669SOL    HW2 1634   3.337   2.015   1.717
 1671SOL     OW 1635   2.643   2.126   1.749
 1671SOL    HW1 1636   2.710   2.065   1.792
 1671SOL    HW2 1637   2.570   2.145   1.814
 1672SOL     OW 1638   2.750   3.376   1.195
 1672SOL    HW1 1639   2.727   3.351   1.101
 1672SOL    HW2 1640   2.811   3.307   1.234
 1673SOL     OW 1641   3.213   2.452   1.433
 1673SOL    HW1 1642   3.241   2.409   1.518
 1673SOL    HW2 1643   3.238   2.548   1.434
 1674SOL     OW 1644   2.665   3.264   0.924
 1674SOL    HW1 1645   2.755   3.278   0.882
 1674SOL    HW2 1646   2.594   3.266   0.853
 1675SOL     OW 1647   2.784   2.365   0.899
 1675SOL    HW1 1648   2.759   2.356   0.803
 1675SOL    HW2 1649   2.832   2.283   0.930
 1676SOL     OW 1650   2.401   1.926   0.512
 1676SOL    HW1 1651   2.320   1.927   0.570
 1676SOL    HW2 1652   2.404   2.009   0.457
 1679SOL     OW 1653   2.797   2.098   0.480
 1679SOL    HW1 1654   2.749   2.139   0.402
 1679SOL    HW2 1655   2.896   2.096   0.461
 1680SOL     OW 1656   2.938   2.545   1.464
 1680SOL    HW1 1657   2.858   2.484   1.467
 1680SOL    HW2 1658   3.019   2.492   1.440
 1682SOL     OW 1659   2.321   3.014   0.741
 1682SOL    HW1 1660   2.250   2.987   0.806
 1682SOL    HW2 1661   2.295   2.986   0.648
 1685SOL     OW 1662   1.940   2.418   1.386
 1685SOL    HW1 1663   2.032   2.417   1.345
 1685SOL    HW2 1664   1.934   2.492   1.453
 1686SOL     OW 1665   2.423   2.084   1.147
 1686SOL    HW1 1666   2.461   2.000   1.184
 1686SOL    HW2 1667   2.335   2.103   1.191
 1687SOL     OW 1668   2.728   2.316   0.642
 1687SOL    HW1 1669   2.696   2.388   0.580
 1687SOL    HW2 1670   2.752   2.235   0.589
 1688SOL     OW 1671   2.879   1.901   0.753
 1688SOL    HW1 1672   2.807   1.906   0.684
 1688SOL    HW2 1673   2.855   1.832   0.822
 1690SOL     OW 1674   3.328   2.452   0.992
 1690SOL    HW1 1675   3.298   2.357   0.999
 1690SOL    HW2 1676   3.401   2.468   1.058
 1697SOL     OW 1677   2.926   3.209   1.340
 1697SOL    HW1 1678   2.846   3.186   1.395
 1697SOL    HW2 1679   3.009   3.183   1.389
 1699SOL     OW 1680   2.973   3.057   1.100
 1699SOL    HW1 1681   2.933   3.101   1.181
 1699SOL    HW2 1682   2.932   3.094   1.017
 1701SOL     OW 1683   2.777   1.951   1.402
 1701SOL    HW1 1684   2.802   1.931   1.307
 1701SOL    HW2 1685   2.849   2.007   1.444
 1702SOL     OW 1686   2.842   2.978   1.719
 1702SOL    HW1 1687   2.743   2.984   1.729
 1702SOL    HW2 1688   2.865   2.898   1.663
 1704SOL     OW 1689   2.272   2.675   1.251
 1704SOL    HW1 1690   2.358   2.687   1.301
 1704SOL    HW2 1691   2.230   2.588   1.278
 1705SOL     OW 1692   3.136   2.248   1.262
 1705SOL    HW1 1693   3.157   2.322   1.326
 1705SOL    HW2 1694   3.047   2.265   1.219
 1706SOL     OW 1695   1.926   3.426   1.331
 1706SOL    HW1 1696   1.880   3.508   1.297
 1706SOL    HW2 1697   2.024   3.445   1.340
 1708SOL     OW 1698   2.428   2.399   0.865
 1708SOL    HW1 1699   2.440   2.465   0.791
 1708SOL    HW2 1700   2.474   2.433   0.948
 1712SOL     OW 1701   2.216   3.372   1.329
 1712SOL    HW1 1702   2.195   3.328   1.242
 1712SOL    HW2 1703   2.313   3.398   1.332
 1713SOL     OW 1704   2.264   2.613   1.598
 1713SOL    HW1 1705   2.332   2.668   1.551
 1713SOL    HW2 1706   2.304   2.525   1.625
 1714SOL     OW 1707   3.449   2.641   1.670
 1714SOL    HW1 1708   3.357   2.679   1.665
 1714SOL    HW2 1709   3.509   2.688   1.605
 1715SOL     OW 1710   2.875   1.967   1.770
 1715SOL    HW1 1711   2.881   2.052   1.718
 1715SOL    HW2 1712   2.907   1.891   1.713
 1716SOL     OW 1713   2.366   1.912   1.740
 1716SOL    HW1 1714   2.324   1.855   1.670
 1716SOL    HW2 1715   2.300   1.981   1.772
 1717SOL     OW 1716   2.435   2.732   1.029
 1717SOL    HW1 1717   2.479   2.821   1.020
 1717SOL    HW2 1718   2.372   2.732   1.106
 1718SOL     OW 1719   3.222   2.724   1.045
 1718SOL    HW1 1720   3.147   2.724   0.979
 1718SOL    HW2 1721   3.259   2.632   1.054
 1720SOL     OW 1722   2.169   2.075   1.231
 1720SOL    HW1 1723   2.146   2.112   1.321
 1720SOL    HW2 1724   2.139   1.980   1.225
 1721SOL     OW 1725   1.899   3.172   1.282
 1721SOL    HW1 1726   1.952   3.123   1.350
 1721SOL    HW2 1727   1.921   3.270   1.287
 1722SOL     OW 1728   2.594   2.496   1.064
 1722SOL    HW1 1729   2.653   2.470   0.988
 1722SOL    HW2 1730   2.566   2.592   1.053
 1723SOL     OW 1731   3.590   2.797   1.854
 1723SOL    HW1 1732   3.544   2.790   1.765
 1723SOL    HW2 1733   3.528   2.841   1.920
 1724SOL     OW 1734   2.169   1.925   0.618
 1724SOL    HW1 1735   2.158   2.019   0.651
 1724SOL    HW2 1736   2.164   1.862   0.695
 1726SOL     OW 1737   2.885   2.628   0.966
 1726SOL    HW1 1738   2.900   2.649   1.062
 1726SOL    HW2 1739   2.855   2.533   0.957
 1727SOL     OW 1740   2.842   3.435   1.700
 1727SOL    HW1 1741   2.822   3.479   1.612
 1727SOL    HW2 1742   2.881   3.344   1.684
 1729SOL     OW 1743   2.212   2.760   1.804
 1729SOL    HW1 1744   2.288   2.804   1.852
 1729SOL    HW2 1745   2.247   2.713   1.722
 1733SOL     OW 1746   2.181   2.672   0.949
 1733SOL    HW1 1747   2.274   2.708   0.954
 1733SOL    HW2 1748   2.175   2.587   1.001
 1734SOL     OW 1749   2.201   2.371   1.006
 1734SOL    HW1 1750   2.149   2.288   0.989
 1734SOL    HW2 1751   2.278   2.376   0.942
 1735SOL     OW 1752   3.000   2.242   1.678
 1735SOL    HW1 1753   2.955   2.305   1.742
 1735SOL    HW2 1754   3.093   2.273   1.661
 1736SOL     OW 1755   3.022   2.069   1.477
 1736SOL    HW1 1756   3.022   2.133   1.554
 1736SOL    HW2 1757   3.050   2.117   1.394
 1740SOL     OW 1758   2.864   2.658   1.238
 1740SOL    HW1 1759   2.905   2.626   1.324
 1740SOL    HW2 1760   2.768   2.631   1.235
 1741SOL     OW 1761   1.902   2.406   1.114
 1741SOL    HW1 1762   1.987   2.373   1.073
 1741SOL    HW2 1763   1.915   2.421   1.212
 1742SOL     OW 1764   2.051   2.382   1.722
 1742SOL    HW1 1765   2.110   2.342   1.652
 1742SOL    HW2 1766   1.993   2.453   1.681
 1743SOL     OW 1767   3.231   2.812   1.660
 1743SOL    HW1 1768   3.270   2.901   1.680
 1743SOL    HW2 1769   3.241   2.792   1.563
 1745SOL     OW 1770   3.519   2.466   1.206
 1745SOL    HW1 1771   3.481   2.397   1.268
 1745SOL    HW2 1772   3.601   2.430   1.162
 1746SOL     OW 1773   2.114   3.426   1.744
 1746SOL    HW1 1774   2.084   3.483   1.820
 1746SOL    HW2 1775   2.107   3.329   1.770
 1747SOL     OW 1776   2.533   2.326   1.269
 1747SOL    HW1 1777   2.499   2.237   1.239
 1747SOL    HW2 1778   2.559   2.380   1.189
 1748SOL     OW 1779   2.792   3.540   1.465
 1748SOL    HW1 1780   2.768   3.522   1.370
 1748SOL    HW2 1781   2.822   3.634   1.475
 1750SOL     OW 1782   2.021   2.999   1.466
 1750SOL    HW1 1783   2.043   2.938   1.542
 1750SOL    HW2 1784   2.031   2.950   1.380
 1751SOL     OW 1785   3.209   2.921   1.234
 1751SOL    HW1 1786   3.233   2.858   1.160
 1751SOL    HW2 1787   3.119   2.961   1.216
 1755SOL     OW 1788   1.945   3.120   1.022
 1755SOL    HW1 1789   1.940   3.119   1.122
 1755SOL    HW2 1790   1.862   3.079   0.984
 1756SOL     OW 1791   2.550   3.524   1.716
 1756SOL    HW1 1792   2.494   3.605   1.725
 1756SOL    HW2 1793   2.602   3.528   1.630
 1760SOL     OW 1794   1.992   3.656   1.851
 1760SOL    HW1 1795   1.951   3.582   1.904
 1760SOL    HW2 1796   2.056   3.707   1.909
 1762SOL     OW 1797   2.692   3.135   1.422
 1762SOL    HW1 1798   2.687   3.168   1.517
 1762SOL    HW2 1799   2.606   3.154   1.376
 1766SOL     OW 1800   2.125   2.188   0.720
 1766SOL    HW1 1801   2.046   2.239   0.686
 1766SOL    HW2 1802   2.116   2.173   0.818
 1768SOL     OW 1803   2.684   2.864   1.372
 1768SOL    HW1 1804   2.724   2.863   1.280
 1768SOL    HW2 1805   2.694   2.956   1.412
 1771SOL     OW 1806   2.234   3.150   1.490
 1771SOL    HW1 1807   2.221   3.243   1.456
 1771SOL    HW2 1808   2.150   3.098   1.477
 1774SOL     OW 1809   2.876   2.098   0.971
 1774SOL    HW1 1810   2.868   2.062   0.878
 1774SOL    HW2 1811   2.874   2.022   1.036
 1776SOL     OW 1812   3.571   2.247   1.381
 1776SOL    HW1 1813   3.644   2.316   1.385
 1776SOL    HW2 1814   3.599   2.172   1.322
 1778SOL     OW 1815   1.967   2.875   1.726
 1778SOL    HW1 1816   1.890   2.842   1.780
 1778SOL    HW2 1817   2.052   2.845   1.768
 1779SOL     OW 1818   2.534   2.065   1.489
 1779SOL    HW1 1819   2.624   2.049   1.449
 1779SOL    HW2 1820   2.542   2.070   1.588
 1781SOL     OW 1821   3.302   2.718   1.398
 1781SOL    HW1 1822   3.245   2.770   1.335
 1781SOL    HW2 1823   3.398   2.730   1.374
 1784SOL     OW 1824   2.475   2.704   1.431
 1784SOL    HW1 1825   2.531   2.785   1.414
 1784SOL    HW2 1826   2.534   2.624   1.434
 1786SOL     OW 1827   2.578   2.427   1.708
 1786SOL    HW1 1828   2.597   2.492   1.782
 1786SOL    HW2 1829   2.638   2.347   1.717
 1787SOL     OW 1830   3.312   3.082   1.633
 1787SOL    HW1 1831   3.303   3.072   1.732
 1787SOL    HW2 1832   3.408   3.075   1.607
 1788SOL     OW 1833   2.252   3.603   1.560
 1788SOL    HW1 1834   2.161   3.644   1.558
 1788SOL    HW2 1835   2.245   3.509   1.592
 1789SOL     OW 1836   3.536   2.745   1.254
 1789SOL    HW1 1837   3.509   2.656   1.217
 1789SOL    HW2 1838   3.537   2.813   1.181
 1791SOL     OW 1839   2.456   2.607   0.652
 1791SOL    HW1 1840   2.506   2.692   0.633
 1791SOL    HW2 1841   2.368   2.609   0.604
 1792SOL     OW 1842   3.639   2.204   1.642
 1792SOL    HW1 1843   3.622   2.235   1.548
 1792SOL    HW2 1844   3.555   2.167   1.680
 1793SOL     OW 1845   3.592   2.796   1.517
 1793SOL    HW1 1846   3.630   2.887   1.532
 1793SOL    HW2 1847   3.584   2.779   1.418
 1796SOL     OW 1848   2.721   2.818   0.861
 1796SOL    HW1 1849   2.775   2.749   0.909
 1796SOL    HW2 1850   2.689   2.887   0.927
 1799SOL     OW 1851   2.083   3.176   1.844
 1799SOL    HW1 1852   2.018   3.103   1.823
 1799SOL    HW2 1853   2.087   3.190   1.942
 1800SOL     OW 1854   1.941   3.102   0.653
 1800SOL    HW1 1855   1.940   3.055   0.741
 1800SOL    HW2 1856   2.023   3.074   0.602
 1801SOL     OW 1857   2.534   3.253   1.624
 1801SOL    HW1 1858   2.456   3.203   1.662
 1801SOL    HW2 1859   2.531   3.348   1.655
 1803SOL     OW 1860   2.290   2.286   0.520
 1803SOL    HW1 1861   2.320   2.214   0.458
 1803SOL    HW2 1862   2.251   2.246   0.603
 1805SOL     OW 1863   2.179   2.409   1.280
 1805SOL    HW1 1864   2.217   2.350   1.352
 1805SOL    HW2 1865   2.219   2.383   1.192
 1807SOL     OW 1866   3.286   2.076   1.112
 1807SOL    HW1 1867   3.338   2.011   1.167
 1807SOL    HW2 1868   3.237   2.139   1.173
 1808SOL     OW 1869   2.863   1.896   1.154
 1808SOL    HW1 1870   2.800   1.824   1.123
 1808SOL    HW2 1871   2.956   1.860   1.154
 1810SOL     OW 1872   2.480   3.429   1.284
 1810SOL    HW1 1873   2.475   3.511   1.341
 1810SOL    HW2 1874   2.569   3.426   1.239
 1811SOL     OW 1875   3.162   2.315   0.691
 1811SOL    HW1 1876   3.103   2.395   0.695
 1811SOL    HW2 1877   3.177   2.280   0.784
 1815SOL     OW 1878   2.092   2.490   1.975
 1815SOL    HW1 1879   1.999   2.488   2.012
 1815SOL    HW2 1880   2.093   2.451   1.883
 1816SOL     OW 1881   2.087   2.137   2.858
 1816SOL    HW1 1882   2.122   2.120   2.950
 1816SOL    HW2 1883   1.999   2.092   2.846
 1817SOL     OW 1884   1.881   2.230   2.509
 1817SOL    HW1 1885   1.799   2.273   2.548
 1817SOL    HW2 1886   1.853   2.157   2.446
 1818SOL     OW 1887   2.431   3.137   3.027
 1818SOL    HW1 1888   2.338   3.130   2.990
 1818SOL    HW2 1889   2.442   3.226   3.071
 1820SOL     OW 1890   2.997   2.565   2.579
 1820SOL    HW1 1891   3.054   2.643   2.554
 1820SOL    HW2 1892   2.937   2.591   2.655
 1821SOL     OW 1893   3.617   2.469   2.093
 1821SOL    HW1 1894   3.605   2.456   1.994
 1821SOL    HW2 1895   3.587   2.388   2.142
 1822SOL     OW 1896   2.630   3.006   2.885
 1822SOL    HW1 1897   2.552   3.023   2.945
 1822SOL    HW2 1898   2.664   3.093   2.849
 1823SOL     OW 1899   2.712   2.660   3.685
 1823SOL    HW1 1900   2.708   2.736   3.750
 1823SOL    HW2 1901   2.734   2.696   3.594
 1824SOL     OW 1902   2.547   2.874   2.527
 1824SOL    HW1 1903   2.616   2.858   2.597
 1824SOL    HW2 1904   2.474   2.931   2.565
 1826SOL     OW 1905   2.197   3.297   2.923
 1826SOL    HW1 1906   2.119   3.266   2.870
 1826SOL    HW2 1907   2.255   3.355   2.866
 1828SOL     OW 1908   2.300   2.254   3.361
 1828SOL    HW1 1909   2.382   2.198   3.370
 1828SOL    HW2 1910   2.219   2.196   3.365
 1829SOL     OW 1911   3.465   2.309   2.599
 1829SOL    HW1 1912   3.391   2.355   2.549
 1829SOL    HW2 1913   3.516   2.377   2.652
 1830SOL     OW 1914   2.093   3.575   2.345
 1830SOL    HW1 1915   2.127   3.652   2.399
 1830SOL    HW2 1916   2.137   3.575   2.255
 1832SOL     OW 1917   2.092   3.296   2.400
 1832SOL    HW1 1918   2.066   3.392   2.400
 1832SOL    HW2 1919   2.021   3.242   2.445
 1833SOL     OW 1920   2.102   2.953   2.748
 1833SOL    HW1 1921   2.116   2.869   2.800
 1833SOL    HW2 1922   2.047   3.017   2.803
 1835SOL     OW 1923   2.468   2.826   1.985
 1835SOL    HW1 1924   2.475   2.910   1.931
 1835SOL    HW2 1925   2.514   2.839   2.073
 1837SOL     OW 1926   1.984   2.505   2.425
 1837SOL    HW1 1927   1.939   2.417   2.442
 1837SOL    HW2 1928   1.983   2.559   2.509
 1839SOL     OW 1929   1.889   3.458   1.979
 1839SOL    HW1 1930   1.870   3.362   2.000
 1839SOL    HW2 1931   1.856   3.516   2.054
 1840SOL     OW 1932   3.551   2.784   2.474
 1840SOL    HW1 1933   3.646   2.755   2.482
 1840SOL    HW2 1934   3.543   2.849   2.399
 1841SOL     OW 1935   3.503   2.970   2.294
 1841SOL    HW1 1936   3.589   2.972   2.242
 1841SOL    HW2 1937   3.517   3.017   2.382
 1842SOL     OW 1938   1.975   2.599   3.459
 1842SOL    HW1 1939   2.063   2.586   3.504
 1842SOL    HW2 1940   1.962   2.696   3.437
 1843SOL     OW 1941   2.475   3.227   2.588
 1843SOL    HW1 1942   2.426   3.140   2.597
 1843SOL    HW2 1943   2.452   3.270   2.501
 1845SOL     OW 1944   2.671   1.866   2.364
 1845SOL    HW1 1945   2.711   1.957   2.355
 1845SOL    HW2 1946   2.571   1.874   2.370
 1846SOL     OW 1947   2.059   2.838   3.126
 1846SOL    HW1 1948   2.148   2.793   3.112
 1846SOL    HW2 1949   1.986   2.773   3.107
 1847SOL     OW 1950   3.387   2.861   2.052
 1847SOL    HW1 1951   3.324   2.785   2.065
 1847SOL    HW2 1952   3.435   2.879   2.138
 1849SOL     OW 1953   2.179   2.113   3.663
 1849SOL    HW1 1954   2.250   2.184   3.669
 1849SOL    HW2 1955   2.091   2.152   3.691
 1852SOL     OW 1956   2.460   2.591   2.132
 1852SOL    HW1 1957   2.484   2.660   2.064
 1852SOL    HW2 1958   2.382   2.624   2.186
 1853SOL     OW 1959   3.143   2.207   2.806
 1853SOL    HW1 1960   3.057   2.157   2.793
 1853SOL    HW2 1961   3.205   2.153   2.862
 1855SOL     OW 1962   2.669   2.467   3.327
 1855SOL    HW1 1963   2.622   2.464   3.416
 1855SOL    HW2 1964   2.618   2.412   3.261
 1857SOL     OW 1965   2.835   2.752   3.434
 1857SOL    HW1 1966   2.881   2.668   3.405
 1857SOL    HW2 1967   2.779   2.786   3.359
 1858SOL     OW 1968   2.853   2.272   3.104
 1858SOL    HW1 1969   2.776   2.306   3.158
 1858SOL    HW2 1970   2.819   2.221   3.025
 1859SOL     OW 1971   2.903   2.563   2.291
 1859SOL    HW1 1972   2.929   2.559   2.387
 1859SOL    HW2 1973   2.818   2.512   2.277
 1860SOL     OW 1974   1.938   2.673   2.651
 1860SOL    HW1 1975   2.037   2.661   2.660
 1860SOL    HW2 1976   1.914   2.768   2.672
 1862SOL     OW 1977   2.727   2.210   2.057
 1862SOL    HW1 1978   2.786   2.273   2.008
 1862SOL    HW2 1979   2.746   2.116   2.028
 1864SOL     OW 1980   3.224   3.006   2.407
 1864SOL    HW1 1981   3.307   2.977   2.359
 1864SOL    HW2 1982   3.175   3.073   2.351
 1865SOL     OW 1983   2.412   2.058   2.747
 1865SOL    HW1 1984   2.407   2.053   2.847
 1865SOL    HW2 1985   2.414   2.154   2.718
 1866SOL     OW 1986   2.870   3.318   2.339
 1866SOL    HW1 1987   2.824   3.390   2.287
 1866SOL    HW2 1988   2.866   3.338   2.437
 1867SOL     OW 1989   2.213   3.663   2.715
 1867SOL    HW1 1990   2.263   3.577   2.721
 1867SOL    HW2 1991   2.278   3.740   2.712
 1870SOL     OW 1992   2.183   2.805   2.104
 1870SOL    HW1 1993   2.265   2.844   2.062
 1870SOL    HW2 1994   2.156   2.723   2.055
 1871SOL     OW 1995   3.320   2.597   2.590
 1871SOL    HW1 1996   3.315   2.532   2.665
 1871SOL    HW2 1997   3.400   2.656   2.603
 1872SOL     OW 1998   2.323   3.128   3.589
 1872SOL    HW1 1999   2.273   3.129   3.503
 1872SOL    HW2 2000   2.260   3.110   3.665
 1873SOL     OW 2001   2.973   3.638   2.099
 1873SOL    HW1 2002   2.913   3.576   2.149
 1873SOL    HW2 2003   3.004   3.594   2.014
 1874SOL     OW 2004   2.064   2.147   3.360
 1874SOL    HW1 2005   1.984   2.207   3.347
 1874SOL    HW2 2006   2.054   2.098   3.446
 1875SOL     OW 2007   3.494   3.239   1.943
 1875SOL    HW1 2008   3.462   3.333   1.933
 1875SOL    HW2 2009   3.418   3.176   1.931
 1876SOL     OW 2010   2.326   3.605   2.185
 1876SOL    HW1 2011   2.359   3.644   2.271
 1876SOL    HW2 2012   2.402   3.598   2.120
 1877SOL     OW 2013   3.262   1.969   2.288
 1877SOL    HW1 2014   3.238   1.932   2.198
 1877SOL    HW2 2015   3.361   1.985   2.292
 1879SOL     OW 2016   2.802   3.560   2.766
 1879SOL    HW1 2017   2.882   3.503   2.787
 1879SOL    HW2 2018   2.753   3.520   2.689
 1880SOL     OW 2019   2.244   2.562   2.342
 1880SOL    HW1 2020   2.289   2.472   2.339
 1880SOL    HW2 2021   2.150   2.551   2.375
 1882SOL     OW 2022   2.476   1.984   1.979
 1882SOL    HW1 2023   2.574   1.962   1.986
 1882SOL    HW2 2024   2.445   1.967   1.886
 1883SOL     OW 2025   2.643   2.126   3.611
 1883SOL    HW1 2026   2.710   2.065   3.654
 1883SOL    HW2 2027   2.570   2.145   3.676
 1884SOL     OW 2028   2.750   3.376   3.057
 1884SOL    HW1 2029   2.727   3.351   2.963
 1884SOL    HW2 2030   2.811   3.307   3.096
 1885SOL     OW 2031   3.213   2.452   3.295
 1885SOL    HW1 2032   3.241   2.409   3.380
 1885SOL    HW2 2033   3.238   2.548   3.296
 1886SOL     OW 2034   2.665   3.264   2.786
 1886SOL    HW1 2035   2.755   3.278   2.744
 1886SOL    HW2 2036   2.594   3.266   2.715
 1887SOL     OW 2037   2.784   2.365   2.761
 1887SOL    HW1 2038   2.759   2.356   2.665
 1887SOL    HW2 2039   2.832   2.283   2.792
 1888SOL     OW 2040   2.401   1.926   2.374
 1888SOL    HW1 2041   2.320   1.927   2.432
 1888SOL    HW2 2042   2.404   2.009   2.319
 1889SOL     OW 2043   3.296   3.050   1.903
 1889SOL    HW1 2044   3.328   2.974   1.960
 1889SOL    HW2 2045   3.204   3.077   1.933
 1890SOL     OW 2046   2.159   1.897   2.033
 1890SOL    HW1 2047   2.208   1.981   2.012
 1890SOL    HW2 2048   2.221   1.832   2.078
 1891SOL     OW 2049   2.797   2.098   2.342
 1891SOL    HW1 2050   2.749   2.139   2.264
 1891SOL    HW2 2051   2.896   2.096   2.323
 1892SOL     OW 2052   2.938   2.545   3.326
 1892SOL    HW1 2053   2.858   2.484   3.329
 1892SOL    HW2 2054   3.019   2.492   3.302
 1893SOL     OW 2055   3.089   3.432   2.655
 1893SOL    HW1 2056   3.110   3.506   2.590
 1893SOL    HW2 2057   3.157   3.432   2.728
 1894SOL     OW 2058   2.321   3.014   2.603
 1894SOL    HW1 2059   2.250   2.987   2.668
 1894SOL    HW2 2060   2.295   2.986   2.510
 1896SOL     OW 2061   2.894   2.411   1.878
 1896SOL    HW1 2062   2.853   2.493   1.839
 1896SOL    HW2 2063   2.958   2.437   1.951
 1897SOL     OW 2064   1.940   2.418   3.248
 1897SOL    HW1 2065   2.032   2.417   3.207
 1897SOL    HW2 2066   1.934   2.492   3.315
 1898SOL     OW 2067   2.423   2.084   3.009
 1898SOL    HW1 2068   2.461   2.000   3.046
 1898SOL    HW2 2069   2.335   2.103   3.053
 1899SOL     OW 2070   2.728   2.316   2.504
 1899SOL    HW1 2071   2.696   2.388   2.442
 1899SOL    HW2 2072   2.752   2.235   2.451
 1900SOL     OW 2073   2.879   1.901   2.615
 1900SOL    HW1 2074   2.807   1.906   2.546
 1900SOL    HW2 2075   2.855   1.832   2.684
 1901SOL     OW 2076   3.291   3.035   2.729
 1901SOL    HW1 2077   3.236   2.951   2.722
 1901SOL    HW2 2078   3.317   3.064   2.637
 1902SOL     OW 2079   3.328   2.452   2.854
 1902SOL    HW1 2080   3.298   2.357   2.861
 1902SOL    HW2 2081   3.401   2.468   2.920
 1903SOL     OW 2082   3.719   2.695   2.239
 1903SOL    HW1 2083   3.761   2.631   2.303
 1903SOL    HW2 2084   3.681   2.644   2.161
 1904SOL     OW 2085   2.350   3.247   2.036
 1904SOL    HW1 2086   2.263   3.232   2.083
 1904SOL    HW2 2087   2.333   3.273   1.941
 1905SOL     OW 2088   3.526   3.142   2.519
 1905SOL    HW1 2089   3.625   3.150   2.533
 1905SOL    HW2 2090   3.481   3.226   2.550
 1906SOL     OW 2091   3.252   2.437   1.940
 1906SOL    HW1 2092   3.198   2.416   2.021
 1906SOL    HW2 2093   3.343   2.396   1.949
 1907SOL     OW 2094   2.389   2.118   2.190
 1907SOL    HW1 2095   2.416   2.059   2.115
 1907SOL    HW2 2096   2.389   2.213   2.159
 1909SOL     OW 2097   2.926   3.209   3.202
 1909SOL    HW1 2098   2.846   3.186   3.257
 1909SOL    HW2 2099   3.009   3.183   3.251
 1911SOL     OW 2100   2.973   3.057   2.962
 1911SOL    HW1 2101   2.933   3.101   3.043
 1911SOL    HW2 2102   2.932   3.094   2.879
 1913SOL     OW 2103   2.777   1.951   3.264
 1913SOL    HW1 2104   2.802   1.931   3.169
 1913SOL    HW2 2105   2.849   2.007   3.306
 1915SOL     OW 2106   2.567   2.912   2.230
 1915SOL    HW1 2107   2.553   2.919   2.329
 1915SOL    HW2 2108   2.651   2.861   2.212
 1916SOL     OW 2109   2.272   2.675   3.113
 1916SOL    HW1 2110   2.358   2.687   3.163
 1916SOL    HW2 2111   2.230   2.588   3.140
 1917SOL     OW 2112   3.136   2.248   3.124
 1917SOL    HW1 2113   3.157   2.322   3.188
 1917SOL    HW2 2114   3.047   2.265   3.081
 1918SOL     OW 2115   1.926   3.426   3.193
 1918SOL    HW1 2116   1.880   3.508   3.159
 1918SOL    HW2 2117   2.024   3.445   3.202
 1919SOL     OW 2118   2.229   2.962   2.363
 1919SOL    HW1 2119   2.222   3.045   2.307
 1919SOL    HW2 2120   2.233   2.882   2.303
 1920SOL     OW 2121   2.428   2.399   2.727
 1920SOL    HW1 2122   2.440   2.465   2.653
 1920SOL    HW2 2123   2.474   2.433   2.810
 1921SOL     OW 2124   3.114   3.210   2.250
 1921SOL    HW1 2125   3.164   3.287   2.290
 1921SOL    HW2 2126   3.019   3.212   2.282
 1922SOL     OW 2127   3.134   3.307   3.004
 1922SOL    HW1 2128   3.181   3.320   3.091
 1922SOL    HW2 2129   3.068   3.233   3.013
 1923SOL     OW 2130   3.444   2.501   2.334
 1923SOL    HW1 2131   3.413   2.562   2.407
 1923SOL    HW2 2132   3.494   2.553   2.265
 1924SOL     OW 2133   2.216   3.372   3.191
 1924SOL    HW1 2134   2.195   3.328   3.104
 1924SOL    HW2 2135   2.313   3.398   3.194
 1925SOL     OW 2136   2.264   2.613   3.460
 1925SOL    HW1 2137   2.332   2.668   3.413
 1925SOL    HW2 2138   2.304   2.525   3.487
 1927SOL     OW 2139   2.875   1.967   3.632
 1927SOL    HW1 2140   2.881   2.052   3.580
 1927SOL    HW2 2141   2.907   1.891   3.575
 1928SOL     OW 2142   2.366   1.912   3.602
 1928SOL    HW1 2143   2.324   1.855   3.532
 1928SOL    HW2 2144   2.300   1.981   3.634
 1929SOL     OW 2145   2.435   2.732   2.891
 1929SOL    HW1 2146   2.479   2.821   2.882
 1929SOL    HW2 2147   2.372   2.732   2.968
 1930SOL     OW 2148   3.222   2.724   2.907
 1930SOL    HW1 2149   3.147   2.724   2.841
 1930SOL    HW2 2150   3.259   2.632   2.916
 1931SOL     OW 2151   3.071   2.387   2.137
 1931SOL    HW1 2152   3.084   2.303   2.191
 1931SOL    HW2 2153   3.042   2.461   2.197
 1932SOL     OW 2154   2.169   2.075   3.093
 1932SOL    HW1 2155   2.146   2.112   3.183
 1932SOL    HW2 2156   2.139   1.980   3.087
 1933SOL     OW 2157   1.899   3.172   3.144
 1933SOL    HW1 2158   1.952   3.123   3.212
 1933SOL    HW2 2159   1.921   3.270   3.149
 1934SOL     OW 2160   2.594   2.496   2.926
 1934SOL    HW1 2161   2.653   2.470   2.850
 1934SOL    HW2 2162   2.566   2.592   2.915
 1936SOL     OW 2163   2.169   1.925   2.480
 1936SOL    HW1 2164   2.158   2.019   2.513
 1936SOL    HW2 2165   2.164   1.862   2.557
 1937SOL     OW 2166   3.484   2.229   2.236
 1937SOL    HW1 2167   3.486   2.153   2.300
 1937SOL    HW2 2168   3.436   2.306   2.276
 1938SOL     OW 2169   2.885   2.628   2.828
 1938SOL    HW1 2170   2.900   2.649   2.924
 1938SOL    HW2 2171   2.855   2.533   2.819
 1941SOL     OW 2172   2.212   2.760   3.666
 1941SOL    HW1 2173   2.288   2.804   3.714
 1941SOL    HW2 2174   2.247   2.713   3.584
 1942SOL     OW 2175   3.402   2.136   1.987
 1942SOL    HW1 2176   3.341   2.061   2.010
 1942SOL    HW2 2177   3.424   2.188   2.070
 1943SOL     OW 2178   3.165   2.700   1.904
 1943SOL    HW1 2179   3.199   2.607   1.919
 1943SOL    HW2 2180   3.183   2.727   1.809
 1944SOL     OW 2181   2.930   3.195   2.711
 1944SOL    HW1 2182   2.937   3.111   2.656
 1944SOL    HW2 2183   2.992   3.264   2.675
 1945SOL     OW 2184   2.181   2.672   2.811
 1945SOL    HW1 2185   2.274   2.708   2.816
 1945SOL    HW2 2186   2.175   2.587   2.863
 1946SOL     OW 2187   2.201   2.371   2.868
 1946SOL    HW1 2188   2.149   2.288   2.851
 1946SOL    HW2 2189   2.278   2.376   2.804
 1947SOL     OW 2190   3.000   2.242   3.540
 1947SOL    HW1 2191   2.955   2.305   3.604
 1947SOL    HW2 2192   3.093   2.273   3.523
 1948SOL     OW 2193   3.022   2.069   3.339
 1948SOL    HW1 2194   3.022   2.133   3.416
 1948SOL    HW2 2195   3.050   2.117   3.256
 1949SOL     OW 2196   1.870   3.188   2.062
 1949SOL    HW1 2197   1.777   3.209   2.031
 1949SOL    HW2 2198   1.880   3.089   2.075
 1950SOL     OW 2199   1.950   3.663   2.789
 1950SOL    HW1 2200   1.908   3.577   2.762
 1950SOL    HW2 2201   2.044   3.666   2.755
 1951SOL     OW 2202   2.366   3.430   2.772
 1951SOL    HW1 2203   2.432   3.504   2.781
 1951SOL    HW2 2204   2.410   3.351   2.730
 1952SOL     OW 2205   2.864   2.658   3.100
 1952SOL    HW1 2206   2.905   2.626   3.186
 1952SOL    HW2 2207   2.768   2.631   3.097
 1953SOL     OW 2208   1.902   2.406   2.976
 1953SOL    HW1 2209   1.987   2.373   2.935
 1953SOL    HW2 2210   1.915   2.421   3.074
 1954SOL     OW 2211   2.051   2.382   3.584
 1954SOL    HW1 2212   2.110   2.342   3.514
 1954SOL    HW2 2213   1.993   2.453   3.543
 1956SOL     OW 2214   2.677   2.434   2.187
 1956SOL    HW1 2215   2.684   2.345   2.141
 1956SOL    HW2 2216   2.583   2.468   2.179
 1957SOL     OW 2217   3.519   2.466   3.068
 1957SOL    HW1 2218   3.481   2.397   3.130
 1957SOL    HW2 2219   3.601   2.430   3.024
 1959SOL     OW 2220   2.533   2.326   3.131
 1959SOL    HW1 2221   2.499   2.237   3.101
 1959SOL    HW2 2222   2.559   2.380   3.051
 1961SOL     OW 2223   2.335   2.362   2.053
 1961SOL    HW1 2224   2.396   2.442   2.057
 1961SOL    HW2 2225   2.240   2.393   2.060
 1962SOL     OW 2226   2.021   2.999   3.328
 1962SOL    HW1 2227   2.043   2.938   3.404
 1962SOL    HW2 2228   2.031   2.950   3.242
 1963SOL     OW 2229   3.209   2.921   3.096
 1963SOL    HW1 2230   3.233   2.858   3.022
 1963SOL    HW2 2231   3.119   2.961   3.078
 1964SOL     OW 2232   3.164   2.717   2.171
 1964SOL    HW1 2233   3.078   2.686   2.213
 1964SOL    HW2 2234   3.160   2.703   2.072
 1967SOL     OW 2235   1.945   3.120   2.884
 1967SOL    HW1 2236   1.940   3.119   2.984
 1967SOL    HW2 2237   1.862   3.079   2.846
 1969SOL     OW 2238   3.588   1.997   2.385
 1969SOL    HW1 2239   3.661   1.980   2.318
 1969SOL    HW2 2240   3.557   1.910   2.423
 1970SOL     OW 2241   3.250   3.435   2.339
 1970SOL    HW1 2242   3.317   3.447   2.265
 1970SOL    HW2 2243   3.210   3.524   2.362
 1972SOL     OW 2244   3.142   2.789   2.534
 1972SOL    HW1 2245   3.202   2.708   2.536
 1972SOL    HW2 2246   3.182   2.858   2.474
 1973SOL     OW 2247   2.692   3.135   3.284
 1973SOL    HW1 2248   2.687   3.168   3.379
 1973SOL    HW2 2249   2.606   3.154   3.238
 1974SOL     OW 2250   2.534   3.478   2.016
 1974SOL    HW1 2251   2.543   3.488   1.917
 1974SOL    HW2 2252   2.494   3.389   2.037
 1976SOL     OW 2253   3.703   2.037   2.825
 1976SOL    HW1 2254   3.742   1.952   2.789
 1976SOL    HW2 2255   3.605   2.039   2.806
 1977SOL     OW 2256   2.125   2.188   2.582
 1977SOL    HW1 2257   2.046   2.239   2.548
 1977SOL    HW2 2258   2.116   2.173   2.680
 1978SOL     OW 2259   3.056   3.474   1.893
 1978SOL    HW1 2260   3.062   3.381   1.930
 1978SOL    HW2 2261   2.997   3.474   1.813
 1979SOL     OW 2262   2.684   2.864   3.234
 1979SOL    HW1 2263   2.724   2.863   3.142
 1979SOL    HW2 2264   2.694   2.956   3.274
 1980SOL     OW 2265   2.778   2.772   2.153
 1980SOL    HW1 2266   2.841   2.810   2.085
 1980SOL    HW2 2267   2.818   2.689   2.192
 1982SOL     OW 2268   2.234   3.150   3.352
 1982SOL    HW1 2269   2.221   3.243   3.318
 1982SOL    HW2 2270   2.150   3.098   3.339
 1984SOL     OW 2271   2.901   2.960   2.558
 1984SOL    HW1 2272   2.831   2.913   2.612
 1984SOL    HW2 2273   2.960   2.892   2.515
 1985SOL     OW 2274   2.876   2.098   2.833
 1985SOL    HW1 2275   2.868   2.062   2.740
 1985SOL    HW2 2276   2.874   2.022   2.898
 1986SOL     OW 2277   2.452   3.349   2.353
 1986SOL    HW1 2278   2.494   3.291   2.283
 1986SOL    HW2 2279   2.408   3.428   2.309
 1988SOL     OW 2280   2.117   3.210   2.152
 1988SOL    HW1 2281   2.021   3.211   2.125
 1988SOL    HW2 2282   2.129   3.263   2.236
 1989SOL     OW 2283   1.967   2.875   3.588
 1989SOL    HW1 2284   1.890   2.842   3.642
 1989SOL    HW2 2285   2.052   2.845   3.630
 1990SOL     OW 2286   2.534   2.065   3.351
 1990SOL    HW1 2287   2.624   2.049   3.311
 1990SOL    HW2 2288   2.542   2.070   3.450
 1991SOL     OW 2289   1.937   2.207   1.895
 1991SOL    HW1 2290   1.845   2.179   1.866
 1991SOL    HW2 2291   1.968   2.284   1.839
 1992SOL     OW 2292   3.302   2.718   3.260
 1992SOL    HW1 2293   3.245   2.770   3.197
 1992SOL    HW2 2294   3.398   2.730   3.236
 1993SOL     OW 2295   3.045   3.197   1.981
 1993SOL    HW1 2296   2.946   3.186   1.983
 1993SOL    HW2 2297   3.079   3.212   2.074
 1994SOL     OW 2298   2.475   2.704   3.293
 1994SOL    HW1 2299   2.531   2.785   3.276
 1994SOL    HW2 2300   2.534   2.624   3.296
 1996SOL     OW 2301   2.578   2.427   3.570
 1996SOL    HW1 2302   2.597   2.492   3.644
 1996SOL    HW2 2303   2.638   2.347   3.579
 2000SOL     OW 2304   3.087   2.187   2.311
 2000SOL    HW1 2305   3.152   2.113   2.300
 2000SOL    HW2 2306   3.107   2.237   2.395
 2001SOL     OW 2307   2.456   2.607   2.514
 2001SOL    HW1 2308   2.506   2.692   2.495
 2001SOL    HW2 2309   2.368   2.609   2.466
 2004SOL     OW 2310   2.721   3.236   1.878
 2004SOL    HW1 2311   2.675   3.251   1.966
 2004SOL    HW2 2312   2.765   3.321   1.848
 2005SOL     OW 2313   2.523   3.652   2.815
 2005SOL    HW1 2314   2.477   3.740   2.802
 2005SOL    HW2 2315   2.622   3.664   2.808
 2006SOL     OW 2316   2.721   2.818   2.723
 2006SOL    HW1 2317   2.775   2.749   2.771
 2006SOL    HW2 2318   2.689   2.887   2.789
 2007SOL     OW 2319   2.945   2.846   1.949
 2007SOL    HW1 2320   2.922   2.899   1.867
 2007SOL    HW2 2321   3.026   2.790   1.930
 2010SOL     OW 2322   1.941   3.102   2.515
 2010SOL    HW1 2323   1.940   3.055   2.603
 2010SOL    HW2 2324   2.023   3.074   2.464
 2013SOL     OW 2325   2.290   2.286   2.382
 2013SOL    HW1 2326   2.320   2.214   2.320
 2013SOL    HW2 2327   2.251   2.246   2.465
 2015SOL     OW 2328   2.179   2.409   3.142
 2015SOL    HW1 2329   2.217   2.350   3.214
 2015SOL    HW2 2330   2.219   2.383   3.054
 2016SOL     OW 2331   2.674   3.448   2.549
 2016SOL    HW1 2332   2.706   3.458   2.455
 2016SOL    HW2 2333   2.595   3.386   2.551
 2017SOL     OW 2334   3.286   2.076   2.974
 2017SOL    HW1 2335   3.338   2.011   3.029
 2017SOL    HW2 2336   3.237   2.139   3.035
 2018SOL     OW 2337   2.863   1.896   3.016
 2018SOL    HW1 2338   2.800   1.824   2.985
 2018SOL    HW2 2339   2.956   1.860   3.016
 2019SOL     OW 2340   2.632   3.192   2.163
 2019SOL    HW1 2341   2.586   3.105   2.180
 2019SOL    HW2 2342   2.723   3.189   2.204
 2020SOL     OW 2343   2.480   3.429   3.146
 2020SOL    HW1 2344   2.475   3.511   3.203
 2020SOL    HW2 2345   2.569   3.426   3.101
 2021SOL     OW 2346   3.214   1.914   2.030
 2021SOL    HW1 2347   3.249   1.873   1.946
 2021SOL    HW2 2348   3.124   1.876   2.050
 2022SOL     OW 2349   3.162   2.315   2.553
 2022SOL    HW1 2350   3.103   2.395   2.557
 2022SOL    HW2 2351   3.177   2.280   2.646
 2023SOL     OW 2352   3.455   2.083   2.744
 2023SOL    HW1 2353   3.371   2.082   2.798
 2023SOL    HW2 2354   3.457   2.166   2.688
 2024SOL     OW 2355   1.901   2.939   2.162
 2024SOL    HW1 2356   2.000   2.928   2.153
 2024SOL    HW2 2357   1.861   2.853   2.194
 2025SOL     OW 2358   2.737   3.508   2.199
 2025SOL    HW1 2359   2.660   3.473   2.145
 2025SOL    HW2 2360   2.705   3.579   2.261
 2026SOL     OW 2361   2.092   2.490   3.837
 2026SOL    HW1 2362   1.999   2.488   3.874
 2026SOL    HW2 2363   2.093   2.451   3.745
 2045SOL     OW 2364   2.476   1.984   3.841
 2045SOL    HW1 2365   2.574   1.962   3.848
 2045SOL    HW2 2366   2.445   1.967   3.748
 2047SOL     OW 2367   2.159   1.897   3.895
 2047SOL    HW1 2368   2.208   1.981   3.874
 2047SOL    HW2 2369   2.221   1.832   3.940
 2075SOL     OW 2370   1.937   2.207   3.757
 2075SOL    HW1 2371   1.845   2.179   3.728
 2075SOL    HW2 2372   1.968   2.284   3.701
 2116SOL     OW 2373   2.366   3.774   1.740
 2116SOL    HW1 2374   2.324   3.717   1.670
 2116SOL    HW2 2375   2.300   3.843   1.772
 2154SOL     OW 2376   2.671   3.728   2.364
 2154SOL    HW1 2377   2.711   3.819   2.355
 2154SOL    HW2 2378   2.571   3.736   2.370
 2164SOL     OW 2379   2.476   3.846   1.979
 2164SOL    HW1 2380   2.574   3.824   1.986
 2164SOL    HW2 2381   2.445   3.829   1.886
 2167SOL     OW 2382   2.401   3.788   2.374
 2167SOL    HW1 2383   2.320   3.789   2.432
 2167SOL    HW2 2384   2.404   3.871   2.319
 2168SOL     OW 2385   2.159   3.759   2.033
 2168SOL    HW1 2386   2.208   3.843   2.012
 2168SOL    HW2 2387   2.221   3.694   2.078
 2181SOL     OW 2388   2.169   3.787   2.480
 2181SOL    HW1 2389   2.158   3.881   2.513
 2181SOL    HW2 2390   2.164   3.724   2.557
 2198SOL     OW 2391   1.934   3.890   2.180
 2198SOL    HW1 2392   1.917   3.973   2.126
 2198SOL    HW2 2393   2.024   3.853   2.158
 2272SOL     OW 2394   3.854   1.794   1.851
 2272SOL    HW1 2395   3.813   1.720   1.904
 2272SOL    HW2 2396   3.918   1.845   1.909
 2293SOL     OW 2397   3.751   1.596   1.979
 2293SOL    HW1 2398   3.732   1.500   2.000
 2293SOL    HW2 2399   3.718   1.654   2.054
 2319SOL     OW 2400   3.732   1.326   2.062
 2319SOL    HW1 2401   3.639   1.347   2.031
 2319SOL    HW2 2402   3.742   1.227   2.075
 2412SOL     OW 2403   3.743   2.230   2.509
 2412SOL    HW1 2404   3.661   2.273   2.548
 2412SOL    HW2 2405   3.715   2.157   2.446
 2417SOL     OW 2406   3.846   2.505   2.425
 2417SOL    HW1 2407   3.801   2.417   2.442
 2417SOL    HW2 2408   3.845   2.559   2.509
 2458SOL     OW 2409   3.799   2.207   1.895
 2458SOL    HW1 2410   3.707   2.179   1.866
 2458SOL    HW2 2411   3.830   2.284   1.839
 2459SOL     OW 2412   3.796   2.028   2.180
 2459SOL    HW1 2413   3.779   2.111   2.126
 2459SOL    HW2 2414   3.886   1.991   2.158
   4.23654   4.23654   4.23654
