mobley_1743409_GMX.gro created by acpype (v: 2023.10.27) on Tue May 19 12:32:00 2026
 2432
    1MOL     C1    1   2.745   2.636   2.475
    1MOL     C2    2   2.519   2.627   2.790
    1MOL     C3    3   2.823   2.794   2.154
    1MOL     C4    4   2.453   2.483   3.121
    1MOL     C5    5   2.630   2.671   2.567
    1MOL     C6    6   2.632   2.590   2.696
    1MOL     C7    7   2.842   2.697   2.268
    1MOL     C8    8   2.428   2.574   3.002
    1MOL     O1    9   2.828   2.548   2.495
    1MOL     O2   10   2.433   2.711   2.768
    1MOL     O3   11   2.740   2.718   2.365
    1MOL     O4   12   2.529   2.551   2.904
    1MOL     H1   13   2.900   2.781   2.077
    1MOL     H2   14   2.724   2.781   2.108
    1MOL     H3   15   2.827   2.897   2.190
    1MOL     H4   16   2.377   2.499   3.198
    1MOL     H5   17   2.451   2.378   3.089
    1MOL     H6   18   2.552   2.502   3.163
    1MOL     H7   19   2.536   2.656   2.513
    1MOL     H8   20   2.640   2.777   2.593
    1MOL     H9   21   2.726   2.610   2.749
    1MOL    H10   22   2.626   2.482   2.676
    1MOL    H11   23   2.940   2.712   2.315
    1MOL    H12   24   2.836   2.593   2.231
    1MOL    H13   25   2.433   2.679   3.033
    1MOL    H14   26   2.330   2.554   2.958
   97SOL     OW   27   1.592   1.629   1.625
   97SOL    HW1   28   1.619   1.663   1.535
   97SOL    HW2   29   1.671   1.591   1.671
  127SOL     OW   30   1.859   1.518   1.605
  127SOL    HW1   31   1.873   1.545   1.510
  127SOL    HW2   32   1.942   1.540   1.658
  219SOL     OW   33   1.555   1.511   2.565
  219SOL    HW1   34   1.498   1.495   2.646
  219SOL    HW2   35   1.496   1.521   2.485
  227SOL     OW   36   1.460   1.505   3.201
  227SOL    HW1   37   1.484   1.599   3.227
  227SOL    HW2   38   1.444   1.451   3.283
  238SOL     OW   39   1.842   1.767   2.221
  238SOL    HW1   40   1.896   1.738   2.301
  238SOL    HW2   41   1.872   1.857   2.192
  250SOL     OW   42   1.466   1.417   2.815
  250SOL    HW1   43   1.407   1.423   2.895
  250SOL    HW2   44   1.451   1.329   2.769
  251SOL     OW   45   1.667   1.714   2.434
  251SOL    HW1   46   1.626   1.691   2.346
  251SOL    HW2   47   1.649   1.640   2.499
  254SOL     OW   48   1.576   1.662   2.169
  254SOL    HW1   49   1.665   1.708   2.172
  254SOL    HW2   50   1.555   1.638   2.074
  268SOL     OW   51   1.795   1.066   2.735
  268SOL    HW1   52   1.733   1.051   2.659
  268SOL    HW2   53   1.743   1.077   2.820
  275SOL     OW   54   1.632   1.377   1.943
  275SOL    HW1   55   1.600   1.471   1.933
  275SOL    HW2   56   1.556   1.314   1.931
  293SOL     OW   57   1.227   1.570   2.655
  293SOL    HW1   58   1.248   1.644   2.590
  293SOL    HW2   59   1.295   1.570   2.728
  295SOL     OW   60   1.271   1.797   2.453
  295SOL    HW1   61   1.315   1.861   2.389
  295SOL    HW2   62   1.221   1.849   2.523
  305SOL     OW   63   1.664   1.280   2.519
  305SOL    HW1   64   1.763   1.288   2.533
  305SOL    HW2   65   1.619   1.364   2.550
  310SOL     OW   66   1.592   1.629   3.487
  310SOL    HW1   67   1.619   1.663   3.397
  310SOL    HW2   68   1.671   1.591   3.533
  340SOL     OW   69   1.859   1.518   3.467
  340SOL    HW1   70   1.873   1.545   3.372
  340SOL    HW2   71   1.942   1.540   3.520
  365SOL     OW   72   1.759   1.747   3.016
  365SOL    HW1   73   1.820   1.777   2.943
  365SOL    HW2   74   1.721   1.658   2.994
  366SOL     OW   75   1.252   1.731   2.990
  366SOL    HW1   76   1.336   1.736   2.936
  366SOL    HW2   77   1.229   1.635   3.008
  370SOL     OW   78   1.388   1.573   2.339
  370SOL    HW1   79   1.455   1.585   2.265
  370SOL    HW2   80   1.348   1.662   2.362
  375SOL     OW   81   1.650   1.720   3.256
  375SOL    HW1   82   1.703   1.730   3.172
  375SOL    HW2   83   1.623   1.810   3.290
  381SOL     OW   84   1.504   1.607   1.906
  381SOL    HW1   85   1.412   1.644   1.913
  381SOL    HW2   86   1.542   1.627   1.816
  383SOL     OW   87   1.614   1.292   3.151
  383SOL    HW1   88   1.674   1.295   3.231
  383SOL    HW2   89   1.539   1.356   3.164
  396SOL     OW   90   1.493   1.767   2.821
  396SOL    HW1   91   1.526   1.831   2.752
  396SOL    HW2   92   1.559   1.761   2.896
  409SOL     OW   93   1.861   1.569   2.713
  409SOL    HW1   94   1.790   1.557   2.643
  409SOL    HW2   95   1.862   1.490   2.773
  415SOL     OW   96   1.705   1.487   2.966
  415SOL    HW1   97   1.612   1.462   2.939
  415SOL    HW2   98   1.731   1.437   3.048
  623SOL     OW   99   1.594   1.976   1.480
  623SOL    HW1  100   1.576   2.043   1.408
  623SOL    HW2  101   1.591   2.022   1.569
  643SOL     OW  102   1.394   2.331   1.674
  643SOL    HW1  103   1.374   2.374   1.762
  643SOL    HW2  104   1.472   2.269   1.683
  650SOL     OW  105   1.719   2.447   1.831
  650SOL    HW1  106   1.693   2.536   1.795
  650SOL    HW2  107   1.717   2.379   1.758
  668SOL     OW  108   1.547   2.084   1.729
  668SOL    HW1  109   1.542   2.121   1.821
  668SOL    HW2  110   1.475   2.015   1.717
  672SOL     OW  111   1.351   2.452   1.433
  672SOL    HW1  112   1.379   2.409   1.518
  672SOL    HW2  113   1.376   2.548   1.434
  695SOL     OW  114   1.754   3.085   1.588
  695SOL    HW1  115   1.845   3.046   1.575
  695SOL    HW2  116   1.762   3.181   1.612
  697SOL     OW  117   1.592   3.491   1.625
  697SOL    HW1  118   1.619   3.525   1.535
  697SOL    HW2  119   1.671   3.453   1.671
  713SOL     OW  120   1.587   2.641   1.670
  713SOL    HW1  121   1.495   2.679   1.665
  713SOL    HW2  122   1.647   2.688   1.605
  722SOL     OW  123   1.728   2.797   1.854
  722SOL    HW1  124   1.682   2.790   1.765
  722SOL    HW2  125   1.666   2.841   1.920
  727SOL     OW  126   1.859   3.380   1.605
  727SOL    HW1  127   1.873   3.407   1.510
  727SOL    HW2  128   1.942   3.402   1.658
  742SOL     OW  129   1.369   2.812   1.660
  742SOL    HW1  130   1.408   2.901   1.680
  742SOL    HW2  131   1.379   2.792   1.563
  744SOL     OW  132   1.657   2.466   1.206
  744SOL    HW1  133   1.619   2.397   1.268
  744SOL    HW2  134   1.739   2.430   1.162
  771SOL     OW  135   1.614   3.154   1.289
  771SOL    HW1  136   1.674   3.157   1.369
  771SOL    HW2  137   1.539   3.218   1.302
  775SOL     OW  138   1.709   2.247   1.381
  775SOL    HW1  139   1.782   2.316   1.385
  775SOL    HW2  140   1.737   2.172   1.322
  780SOL     OW  141   1.440   2.718   1.398
  780SOL    HW1  142   1.383   2.770   1.335
  780SOL    HW2  143   1.536   2.730   1.374
  786SOL     OW  144   1.450   3.082   1.633
  786SOL    HW1  145   1.441   3.072   1.732
  786SOL    HW2  146   1.546   3.075   1.607
  788SOL     OW  147   1.674   2.745   1.254
  788SOL    HW1  148   1.647   2.656   1.217
  788SOL    HW2  149   1.675   2.813   1.181
  791SOL     OW  150   1.777   2.204   1.642
  791SOL    HW1  151   1.760   2.235   1.548
  791SOL    HW2  152   1.693   2.167   1.680
  792SOL     OW  153   1.730   2.796   1.517
  792SOL    HW1  154   1.768   2.887   1.532
  792SOL    HW2  155   1.722   2.779   1.418
  801SOL     OW  156   1.824   2.054   1.227
  801SOL    HW1  157   1.820   1.964   1.271
  801SOL    HW2  158   1.827   2.043   1.128
  819SOL     OW  159   1.555   3.373   2.565
  819SOL    HW1  160   1.498   3.357   2.646
  819SOL    HW2  161   1.496   3.383   2.485
  820SOL     OW  162   1.135   2.565   2.579
  820SOL    HW1  163   1.192   2.643   2.554
  820SOL    HW2  164   1.075   2.591   2.655
  821SOL     OW  165   1.755   2.469   2.093
  821SOL    HW1  166   1.743   2.456   1.994
  821SOL    HW2  167   1.725   2.388   2.142
  827SOL     OW  168   1.460   3.367   3.201
  827SOL    HW1  169   1.484   3.461   3.227
  827SOL    HW2  170   1.444   3.313   3.283
  829SOL     OW  171   1.603   2.309   2.599
  829SOL    HW1  172   1.529   2.355   2.549
  829SOL    HW2  173   1.654   2.377   2.652
  836SOL     OW  174   1.594   1.976   3.342
  836SOL    HW1  175   1.576   2.043   3.270
  836SOL    HW2  176   1.591   2.022   3.431
  838SOL     OW  177   1.842   3.629   2.221
  838SOL    HW1  178   1.896   3.600   2.301
  838SOL    HW2  179   1.872   3.719   2.192
  840SOL     OW  180   1.689   2.784   2.474
  840SOL    HW1  181   1.784   2.755   2.482
  840SOL    HW2  182   1.681   2.849   2.399
  841SOL     OW  183   1.641   2.970   2.294
  841SOL    HW1  184   1.727   2.972   2.242
  841SOL    HW2  185   1.655   3.017   2.382
  844SOL     OW  186   1.293   3.090   3.285
  844SOL    HW1  187   1.330   3.017   3.227
  844SOL    HW2  188   1.345   3.095   3.370
  847SOL     OW  189   1.525   2.861   2.052
  847SOL    HW1  190   1.462   2.785   2.065
  847SOL    HW2  191   1.573   2.879   2.138
  850SOL     OW  192   1.466   3.279   2.815
  850SOL    HW1  193   1.407   3.285   2.895
  850SOL    HW2  194   1.451   3.191   2.769
  851SOL     OW  195   1.667   3.576   2.434
  851SOL    HW1  196   1.626   3.553   2.346
  851SOL    HW2  197   1.649   3.502   2.499
  853SOL     OW  198   1.281   2.207   2.806
  853SOL    HW1  199   1.195   2.157   2.793
  853SOL    HW2  200   1.343   2.153   2.862
  854SOL     OW  201   1.576   3.524   2.169
  854SOL    HW1  202   1.665   3.570   2.172
  854SOL    HW2  203   1.555   3.500   2.074
  856SOL     OW  204   1.394   2.331   3.536
  856SOL    HW1  205   1.374   2.374   3.624
  856SOL    HW2  206   1.472   2.269   3.545
  858SOL     OW  207   0.991   2.272   3.104
  858SOL    HW1  208   0.914   2.306   3.158
  858SOL    HW2  209   0.957   2.221   3.025
  859SOL     OW  210   1.041   2.563   2.291
  859SOL    HW1  211   1.067   2.559   2.387
  859SOL    HW2  212   0.956   2.512   2.277
  863SOL     OW  213   1.719   2.447   3.693
  863SOL    HW1  214   1.693   2.536   3.657
  863SOL    HW2  215   1.717   2.379   3.620
  864SOL     OW  216   1.362   3.006   2.407
  864SOL    HW1  217   1.445   2.977   2.359
  864SOL    HW2  218   1.313   3.073   2.351
  866SOL     OW  219   1.008   3.318   2.339
  866SOL    HW1  220   0.962   3.390   2.287
  866SOL    HW2  221   1.004   3.338   2.437
  868SOL     OW  222   1.795   2.928   2.735
  868SOL    HW1  223   1.733   2.913   2.659
  868SOL    HW2  224   1.743   2.939   2.820
  869SOL     OW  225   1.227   3.412   3.368
  869SOL    HW1  226   1.233   3.335   3.432
  869SOL    HW2  227   1.175   3.386   3.288
  871SOL     OW  228   1.458   2.597   2.590
  871SOL    HW1  229   1.453   2.532   2.665
  871SOL    HW2  230   1.538   2.656   2.603
  875SOL     OW  231   1.632   3.239   1.943
  875SOL    HW1  232   1.600   3.333   1.933
  875SOL    HW2  233   1.556   3.176   1.931
  877SOL     OW  234   1.400   1.969   2.288
  877SOL    HW1  235   1.376   1.932   2.198
  877SOL    HW2  236   1.499   1.985   2.292
  881SOL     OW  237   1.547   2.084   3.591
  881SOL    HW1  238   1.542   2.121   3.683
  881SOL    HW2  239   1.475   2.015   3.579
  885SOL     OW  240   1.351   2.452   3.295
  885SOL    HW1  241   1.379   2.409   3.380
  885SOL    HW2  242   1.376   2.548   3.296
  887SOL     OW  243   0.922   2.365   2.761
  887SOL    HW1  244   0.897   2.356   2.665
  887SOL    HW2  245   0.970   2.283   2.792
  889SOL     OW  246   1.434   3.050   1.903
  889SOL    HW1  247   1.466   2.974   1.960
  889SOL    HW2  248   1.342   3.077   1.933
  892SOL     OW  249   1.076   2.545   3.326
  892SOL    HW1  250   0.996   2.484   3.329
  892SOL    HW2  251   1.157   2.492   3.302
  893SOL     OW  252   1.227   3.432   2.655
  893SOL    HW1  253   1.248   3.506   2.590
  893SOL    HW2  254   1.295   3.432   2.728
  895SOL     OW  255   1.271   3.659   2.453
  895SOL    HW1  256   1.315   3.723   2.389
  895SOL    HW2  257   1.221   3.711   2.523
  896SOL     OW  258   1.032   2.411   1.878
  896SOL    HW1  259   0.991   2.493   1.839
  896SOL    HW2  260   1.096   2.437   1.951
  900SOL     OW  261   1.017   1.901   2.615
  900SOL    HW1  262   0.945   1.906   2.546
  900SOL    HW2  263   0.993   1.832   2.684
  901SOL     OW  264   1.429   3.035   2.729
  901SOL    HW1  265   1.374   2.951   2.722
  901SOL    HW2  266   1.455   3.064   2.637
  902SOL     OW  267   1.466   2.452   2.854
  902SOL    HW1  268   1.436   2.357   2.861
  902SOL    HW2  269   1.539   2.468   2.920
  903SOL     OW  270   1.857   2.695   2.239
  903SOL    HW1  271   1.899   2.631   2.303
  903SOL    HW2  272   1.819   2.644   2.161
  905SOL     OW  273   1.664   3.142   2.519
  905SOL    HW1  274   1.763   3.150   2.533
  905SOL    HW2  275   1.619   3.226   2.550
  906SOL     OW  276   1.390   2.437   1.940
  906SOL    HW1  277   1.336   2.416   2.021
  906SOL    HW2  278   1.481   2.396   1.949
  908SOL     OW  279   1.754   3.085   3.450
  908SOL    HW1  280   1.845   3.046   3.437
  908SOL    HW2  281   1.762   3.181   3.474
  909SOL     OW  282   1.064   3.209   3.202
  909SOL    HW1  283   0.984   3.186   3.257
  909SOL    HW2  284   1.147   3.183   3.251
  910SOL     OW  285   1.592   3.491   3.487
  910SOL    HW1  286   1.619   3.525   3.397
  910SOL    HW2  287   1.671   3.453   3.533
  911SOL     OW  288   1.111   3.057   2.962
  911SOL    HW1  289   1.071   3.101   3.043
  911SOL    HW2  290   1.070   3.094   2.879
  912SOL     OW  291   1.638   2.961   2.941
  912SOL    HW1  292   1.643   3.042   3.000
  912SOL    HW2  293   1.552   2.963   2.890
  917SOL     OW  294   1.274   2.248   3.124
  917SOL    HW1  295   1.295   2.322   3.188
  917SOL    HW2  296   1.185   2.265   3.081
  921SOL     OW  297   1.252   3.210   2.250
  921SOL    HW1  298   1.302   3.287   2.290
  921SOL    HW2  299   1.157   3.212   2.282
  922SOL     OW  300   1.272   3.307   3.004
  922SOL    HW1  301   1.319   3.320   3.091
  922SOL    HW2  302   1.206   3.233   3.013
  923SOL     OW  303   1.582   2.501   2.334
  923SOL    HW1  304   1.551   2.562   2.407
  923SOL    HW2  305   1.632   2.553   2.265
  926SOL     OW  306   1.587   2.641   3.532
  926SOL    HW1  307   1.495   2.679   3.527
  926SOL    HW2  308   1.647   2.688   3.467
  930SOL     OW  309   1.360   2.724   2.907
  930SOL    HW1  310   1.285   2.724   2.841
  930SOL    HW2  311   1.397   2.632   2.916
  931SOL     OW  312   1.209   2.387   2.137
  931SOL    HW1  313   1.222   2.303   2.191
  931SOL    HW2  314   1.180   2.461   2.197
  935SOL     OW  315   1.728   2.797   3.716
  935SOL    HW1  316   1.682   2.790   3.627
  935SOL    HW2  317   1.666   2.841   3.782
  937SOL     OW  318   1.622   2.229   2.236
  937SOL    HW1  319   1.624   2.153   2.300
  937SOL    HW2  320   1.574   2.306   2.276
  938SOL     OW  321   1.023   2.628   2.828
  938SOL    HW1  322   1.038   2.649   2.924
  938SOL    HW2  323   0.993   2.533   2.819
  940SOL     OW  324   1.859   3.380   3.467
  940SOL    HW1  325   1.873   3.407   3.372
  940SOL    HW2  326   1.942   3.402   3.520
  942SOL     OW  327   1.540   2.136   1.987
  942SOL    HW1  328   1.479   2.061   2.010
  942SOL    HW2  329   1.562   2.188   2.070
  943SOL     OW  330   1.303   2.700   1.904
  943SOL    HW1  331   1.337   2.607   1.919
  943SOL    HW2  332   1.321   2.727   1.809
  944SOL     OW  333   1.068   3.195   2.711
  944SOL    HW1  334   1.075   3.111   2.656
  944SOL    HW2  335   1.130   3.264   2.675
  947SOL     OW  336   1.138   2.242   3.540
  947SOL    HW1  337   1.093   2.305   3.604
  947SOL    HW2  338   1.231   2.273   3.523
  948SOL     OW  339   1.160   2.069   3.339
  948SOL    HW1  340   1.160   2.133   3.416
  948SOL    HW2  341   1.188   2.117   3.256
  952SOL     OW  342   1.002   2.658   3.100
  952SOL    HW1  343   1.043   2.626   3.186
  952SOL    HW2  344   0.906   2.631   3.097
  955SOL     OW  345   1.369   2.812   3.522
  955SOL    HW1  346   1.408   2.901   3.542
  955SOL    HW2  347   1.379   2.792   3.425
  957SOL     OW  348   1.657   2.466   3.068
  957SOL    HW1  349   1.619   2.397   3.130
  957SOL    HW2  350   1.739   2.430   3.024
  963SOL     OW  351   1.347   2.921   3.096
  963SOL    HW1  352   1.371   2.858   3.022
  963SOL    HW2  353   1.257   2.961   3.078
  964SOL     OW  354   1.302   2.717   2.171
  964SOL    HW1  355   1.216   2.686   2.213
  964SOL    HW2  356   1.298   2.703   2.072
  965SOL     OW  357   1.759   3.609   3.016
  965SOL    HW1  358   1.820   3.639   2.943
  965SOL    HW2  359   1.721   3.520   2.994
  966SOL     OW  360   1.252   3.593   2.990
  966SOL    HW1  361   1.336   3.598   2.936
  966SOL    HW2  362   1.229   3.497   3.008
  969SOL     OW  363   1.726   1.997   2.385
  969SOL    HW1  364   1.799   1.980   2.318
  969SOL    HW2  365   1.695   1.910   2.423
  970SOL     OW  366   1.388   3.435   2.339
  970SOL    HW1  367   1.455   3.447   2.265
  970SOL    HW2  368   1.348   3.524   2.362
  972SOL     OW  369   1.280   2.789   2.534
  972SOL    HW1  370   1.340   2.708   2.536
  972SOL    HW2  371   1.320   2.858   2.474
  975SOL     OW  372   1.650   3.582   3.256
  975SOL    HW1  373   1.703   3.592   3.172
  975SOL    HW2  374   1.623   3.672   3.290
  976SOL     OW  375   1.841   2.037   2.825
  976SOL    HW1  376   1.880   1.952   2.789
  976SOL    HW2  377   1.743   2.039   2.806
  980SOL     OW  378   0.916   2.772   2.153
  980SOL    HW1  379   0.979   2.810   2.085
  980SOL    HW2  380   0.956   2.689   2.192
  981SOL     OW  381   1.504   3.469   1.906
  981SOL    HW1  382   1.412   3.506   1.913
  981SOL    HW2  383   1.542   3.489   1.816
  983SOL     OW  384   1.614   3.154   3.151
  983SOL    HW1  385   1.674   3.157   3.231
  983SOL    HW2  386   1.539   3.218   3.164
  984SOL     OW  387   1.039   2.960   2.558
  984SOL    HW1  388   0.969   2.913   2.612
  984SOL    HW2  389   1.098   2.892   2.515
  985SOL     OW  390   1.014   2.098   2.833
  985SOL    HW1  391   1.006   2.062   2.740
  985SOL    HW2  392   1.012   2.022   2.898
  987SOL     OW  393   1.709   2.247   3.243
  987SOL    HW1  394   1.782   2.316   3.247
  987SOL    HW2  395   1.737   2.172   3.184
  992SOL     OW  396   1.440   2.718   3.260
  992SOL    HW1  397   1.383   2.770   3.197
  992SOL    HW2  398   1.536   2.730   3.236
  994SOL     OW  399   1.183   3.197   1.981
  994SOL    HW1  400   1.084   3.186   1.983
  994SOL    HW2  401   1.217   3.212   2.074
  996SOL     OW  402   1.493   3.629   2.821
  996SOL    HW1  403   1.526   3.693   2.752
  996SOL    HW2  404   1.559   3.623   2.896
  998SOL     OW  405   1.450   3.082   3.495
  998SOL    HW1  406   1.441   3.072   3.594
  998SOL    HW2  407   1.546   3.075   3.469
 1000SOL     OW  408   1.674   2.745   3.116
 1000SOL    HW1  409   1.647   2.656   3.079
 1000SOL    HW2  410   1.675   2.813   3.043
 1001SOL     OW  411   1.225   2.187   2.311
 1001SOL    HW1  412   1.290   2.113   2.300
 1001SOL    HW2  413   1.245   2.237   2.395
 1003SOL     OW  414   1.777   2.204   3.504
 1003SOL    HW1  415   1.760   2.235   3.410
 1003SOL    HW2  416   1.693   2.167   3.542
 1004SOL     OW  417   1.730   2.796   3.379
 1004SOL    HW1  418   1.768   2.887   3.394
 1004SOL    HW2  419   1.722   2.779   3.280
 1007SOL     OW  420   0.859   2.818   2.723
 1007SOL    HW1  421   0.913   2.749   2.771
 1007SOL    HW2  422   0.827   2.887   2.789
 1008SOL     OW  423   1.083   2.846   1.949
 1008SOL    HW1  424   1.060   2.899   1.867
 1008SOL    HW2  425   1.164   2.790   1.930
 1009SOL     OW  426   1.861   3.431   2.713
 1009SOL    HW1  427   1.790   3.419   2.643
 1009SOL    HW2  428   1.862   3.352   2.773
 1013SOL     OW  429   1.824   2.054   3.089
 1013SOL    HW1  430   1.820   1.964   3.133
 1013SOL    HW2  431   1.827   2.043   2.990
 1015SOL     OW  432   1.705   3.349   2.966
 1015SOL    HW1  433   1.612   3.324   2.939
 1015SOL    HW2  434   1.731   3.299   3.048
 1018SOL     OW  435   1.424   2.076   2.974
 1018SOL    HW1  436   1.476   2.011   3.029
 1018SOL    HW2  437   1.375   2.139   3.035
 1022SOL     OW  438   1.352   1.914   2.030
 1022SOL    HW1  439   1.387   1.873   1.946
 1022SOL    HW2  440   1.262   1.876   2.050
 1023SOL     OW  441   1.300   2.315   2.553
 1023SOL    HW1  442   1.241   2.395   2.557
 1023SOL    HW2  443   1.315   2.280   2.646
 1024SOL     OW  444   1.593   2.083   2.744
 1024SOL    HW1  445   1.509   2.082   2.798
 1024SOL    HW2  446   1.595   2.166   2.688
 1033SOL     OW  447   1.755   2.469   3.955
 1033SOL    HW1  448   1.743   2.456   3.856
 1033SOL    HW2  449   1.725   2.388   4.004
 1054SOL     OW  450   1.525   2.861   3.914
 1054SOL    HW1  451   1.462   2.785   3.927
 1054SOL    HW2  452   1.573   2.879   4.000
 1075SOL     OW  453   1.632   3.239   3.805
 1075SOL    HW1  454   1.600   3.333   3.795
 1075SOL    HW2  455   1.556   3.176   3.793
 1086SOL     OW  456   1.434   3.050   3.765
 1086SOL    HW1  457   1.466   2.974   3.822
 1086SOL    HW2  458   1.342   3.077   3.795
 1099SOL     OW  459   1.857   2.695   4.101
 1099SOL    HW1  460   1.899   2.631   4.165
 1099SOL    HW2  461   1.819   2.644   4.023
 1102SOL     OW  462   1.390   2.437   3.802
 1102SOL    HW1  463   1.336   2.416   3.883
 1102SOL    HW2  464   1.481   2.396   3.811
 1130SOL     OW  465   1.540   2.136   3.849
 1130SOL    HW1  466   1.479   2.061   3.872
 1130SOL    HW2  467   1.562   2.188   3.932
 1131SOL     OW  468   1.303   2.700   3.766
 1131SOL    HW1  469   1.337   2.607   3.781
 1131SOL    HW2  470   1.321   2.727   3.671
 1398SOL     OW  471   1.594   3.838   3.342
 1398SOL    HW1  472   1.576   3.905   3.270
 1398SOL    HW2  473   1.591   3.884   3.431
 1432SOL     OW  474   1.400   3.831   2.288
 1432SOL    HW1  475   1.376   3.794   2.198
 1432SOL    HW2  476   1.499   3.847   2.292
 1512SOL     OW  477   1.726   3.859   2.385
 1512SOL    HW1  478   1.799   3.842   2.318
 1512SOL    HW2  479   1.695   3.772   2.423
 1515SOL     OW  480   1.841   3.899   2.825
 1515SOL    HW1  481   1.880   3.814   2.789
 1515SOL    HW2  482   1.743   3.901   2.806
 1545SOL     OW  483   1.824   3.916   3.089
 1545SOL    HW1  484   1.820   3.826   3.133
 1545SOL    HW2  485   1.827   3.905   2.990
 1554SOL     OW  486   1.593   3.945   2.744
 1554SOL    HW1  487   1.509   3.944   2.798
 1554SOL    HW2  488   1.595   4.028   2.688
 1711SOL     OW  489   2.548   1.161   1.803
 1711SOL    HW1  490   2.608   1.240   1.817
 1711SOL    HW2  491   2.462   1.192   1.762
 1717SOL     OW  492   2.989   1.341   1.690
 1717SOL    HW1  493   3.036   1.341   1.778
 1717SOL    HW2  494   2.941   1.254   1.679
 1720SOL     OW  495   2.482   1.786   1.439
 1720SOL    HW1  496   2.390   1.769   1.474
 1720SOL    HW2  497   2.510   1.878   1.465
 1734SOL     OW  498   3.049   1.792   1.616
 1734SOL    HW1  499   3.073   1.852   1.540
 1734SOL    HW2  500   3.056   1.697   1.586
 1747SOL     OW  501   1.992   1.821   1.571
 1747SOL    HW1  502   1.982   1.806   1.670
 1747SOL    HW2  503   1.906   1.857   1.535
 1755SOL     OW  504   3.089   1.550   1.506
 1755SOL    HW1  505   3.095   1.473   1.570
 1755SOL    HW2  506   3.037   1.524   1.426
 1758SOL     OW  507   2.323   1.266   1.727
 1758SOL    HW1  508   2.273   1.267   1.641
 1758SOL    HW2  509   2.260   1.248   1.803
 1764SOL     OW  510   2.111   1.785   1.241
 1764SOL    HW1  511   2.168   1.720   1.291
 1764SOL    HW2  512   2.095   1.752   1.148
 1796SOL     OW  513   3.454   1.629   1.625
 1796SOL    HW1  514   3.481   1.663   1.535
 1796SOL    HW2  515   3.533   1.591   1.671
 1800SOL     OW  516   2.842   1.116   1.719
 1800SOL    HW1  517   2.743   1.122   1.729
 1800SOL    HW2  518   2.865   1.036   1.663
 1810SOL     OW  519   2.216   1.510   1.329
 1810SOL    HW1  520   2.195   1.466   1.242
 1810SOL    HW2  521   2.313   1.536   1.332
 1825SOL     OW  522   2.842   1.573   1.700
 1825SOL    HW1  523   2.822   1.617   1.612
 1825SOL    HW2  524   2.881   1.482   1.684
 1844SOL     OW  525   2.114   1.564   1.744
 1844SOL    HW1  526   2.084   1.621   1.820
 1844SOL    HW2  527   2.107   1.467   1.770
 1846SOL     OW  528   2.792   1.678   1.465
 1846SOL    HW1  529   2.768   1.660   1.370
 1846SOL    HW2  530   2.822   1.772   1.475
 1854SOL     OW  531   2.550   1.662   1.716
 1854SOL    HW1  532   2.494   1.743   1.725
 1854SOL    HW2  533   2.602   1.666   1.630
 1858SOL     OW  534   1.992   1.794   1.851
 1858SOL    HW1  535   1.951   1.720   1.904
 1858SOL    HW2  536   2.056   1.845   1.909
 1862SOL     OW  537   3.512   1.720   1.394
 1862SOL    HW1  538   3.565   1.730   1.310
 1862SOL    HW2  539   3.485   1.810   1.428
 1885SOL     OW  540   2.252   1.741   1.560
 1885SOL    HW1  541   2.161   1.782   1.558
 1885SOL    HW2  542   2.245   1.647   1.592
 1896SOL     OW  543   2.083   1.314   1.844
 1896SOL    HW1  544   2.018   1.241   1.823
 1896SOL    HW2  545   2.087   1.328   1.942
 1898SOL     OW  546   2.534   1.391   1.624
 1898SOL    HW1  547   2.456   1.341   1.662
 1898SOL    HW2  548   2.531   1.486   1.655
 1907SOL     OW  549   2.480   1.567   1.284
 1907SOL    HW1  550   2.475   1.649   1.341
 1907SOL    HW2  551   2.569   1.564   1.239
 1916SOL     OW  552   2.431   1.275   3.027
 1916SOL    HW1  553   2.338   1.268   2.990
 1916SOL    HW2  554   2.442   1.364   3.071
 1917SOL     OW  555   3.417   1.511   2.565
 1917SOL    HW1  556   3.360   1.495   2.646
 1917SOL    HW2  557   3.358   1.521   2.485
 1920SOL     OW  558   2.630   1.144   2.885
 1920SOL    HW1  559   2.552   1.161   2.945
 1920SOL    HW2  560   2.664   1.231   2.849
 1922SOL     OW  561   2.547   1.012   2.527
 1922SOL    HW1  562   2.616   0.996   2.597
 1922SOL    HW2  563   2.474   1.069   2.565
 1924SOL     OW  564   2.197   1.435   2.923
 1924SOL    HW1  565   2.119   1.404   2.870
 1924SOL    HW2  566   2.255   1.493   2.866
 1925SOL     OW  567   3.322   1.505   3.201
 1925SOL    HW1  568   3.346   1.599   3.227
 1925SOL    HW2  569   3.306   1.451   3.283
 1928SOL     OW  570   2.093   1.713   2.345
 1928SOL    HW1  571   2.127   1.790   2.399
 1928SOL    HW2  572   2.137   1.713   2.255
 1929SOL     OW  573   2.989   1.341   3.552
 1929SOL    HW1  574   3.036   1.341   3.640
 1929SOL    HW2  575   2.941   1.254   3.541
 1930SOL     OW  576   2.092   1.434   2.400
 1930SOL    HW1  577   2.066   1.530   2.400
 1930SOL    HW2  578   2.021   1.380   2.445
 1931SOL     OW  579   2.102   1.091   2.748
 1931SOL    HW1  580   2.116   1.007   2.800
 1931SOL    HW2  581   2.047   1.155   2.803
 1932SOL     OW  582   2.482   1.786   3.301
 1932SOL    HW1  583   2.390   1.769   3.336
 1932SOL    HW2  584   2.510   1.878   3.327
 1936SOL     OW  585   3.704   1.767   2.221
 1936SOL    HW1  586   3.758   1.738   2.301
 1936SOL    HW2  587   3.734   1.857   2.192
 1937SOL     OW  588   1.889   1.596   1.979
 1937SOL    HW1  589   1.870   1.500   2.000
 1937SOL    HW2  590   1.856   1.654   2.054
 1939SOL     OW  591   3.503   1.108   2.294
 1939SOL    HW1  592   3.589   1.110   2.242
 1939SOL    HW2  593   3.517   1.155   2.382
 1941SOL     OW  594   2.475   1.365   2.588
 1941SOL    HW1  595   2.426   1.278   2.597
 1941SOL    HW2  596   2.452   1.408   2.501
 1942SOL     OW  597   3.155   1.228   3.285
 1942SOL    HW1  598   3.192   1.155   3.227
 1942SOL    HW2  599   3.207   1.233   3.370
 1946SOL     OW  600   3.049   1.792   3.478
 1946SOL    HW1  601   3.073   1.852   3.402
 1946SOL    HW2  602   3.056   1.697   3.448
 1948SOL     OW  603   3.328   1.417   2.815
 1948SOL    HW1  604   3.269   1.423   2.895
 1948SOL    HW2  605   3.313   1.329   2.769
 1949SOL     OW  606   3.529   1.714   2.434
 1949SOL    HW1  607   3.488   1.691   2.346
 1949SOL    HW2  608   3.511   1.640   2.499
 1952SOL     OW  609   3.438   1.662   2.169
 1952SOL    HW1  610   3.527   1.708   2.172
 1952SOL    HW2  611   3.417   1.638   2.074
 1959SOL     OW  612   1.992   1.821   3.433
 1959SOL    HW1  613   1.982   1.806   3.532
 1959SOL    HW2  614   1.906   1.857   3.397
 1962SOL     OW  615   3.224   1.144   2.407
 1962SOL    HW1  616   3.307   1.115   2.359
 1962SOL    HW2  617   3.175   1.211   2.351
 1964SOL     OW  618   2.870   1.456   2.339
 1964SOL    HW1  619   2.824   1.528   2.287
 1964SOL    HW2  620   2.866   1.476   2.437
 1965SOL     OW  621   2.213   1.801   2.715
 1965SOL    HW1  622   2.263   1.715   2.721
 1965SOL    HW2  623   2.278   1.878   2.712
 1967SOL     OW  624   3.089   1.550   3.368
 1967SOL    HW1  625   3.095   1.473   3.432
 1967SOL    HW2  626   3.037   1.524   3.288
 1970SOL     OW  627   2.323   1.266   3.589
 1970SOL    HW1  628   2.273   1.267   3.503
 1970SOL    HW2  629   2.260   1.248   3.665
 1971SOL     OW  630   2.973   1.776   2.099
 1971SOL    HW1  631   2.913   1.714   2.149
 1971SOL    HW2  632   3.004   1.732   2.014
 1973SOL     OW  633   3.494   1.377   1.943
 1973SOL    HW1  634   3.462   1.471   1.933
 1973SOL    HW2  635   3.418   1.314   1.931
 1974SOL     OW  636   2.326   1.743   2.185
 1974SOL    HW1  637   2.359   1.782   2.271
 1974SOL    HW2  638   2.402   1.736   2.120
 1976SOL     OW  639   2.111   1.785   3.103
 1976SOL    HW1  640   2.168   1.720   3.153
 1976SOL    HW2  641   2.095   1.752   3.010
 1977SOL     OW  642   2.802   1.698   2.766
 1977SOL    HW1  643   2.882   1.641   2.787
 1977SOL    HW2  644   2.753   1.658   2.689
 1982SOL     OW  645   2.750   1.514   3.057
 1982SOL    HW1  646   2.727   1.489   2.963
 1982SOL    HW2  647   2.811   1.445   3.096
 1984SOL     OW  648   2.665   1.402   2.786
 1984SOL    HW1  649   2.755   1.416   2.744
 1984SOL    HW2  650   2.594   1.404   2.715
 1987SOL     OW  651   3.296   1.188   1.903
 1987SOL    HW1  652   3.328   1.112   1.960
 1987SOL    HW2  653   3.204   1.215   1.933
 1991SOL     OW  654   3.089   1.570   2.655
 1991SOL    HW1  655   3.110   1.644   2.590
 1991SOL    HW2  656   3.157   1.570   2.728
 1992SOL     OW  657   2.321   1.152   2.603
 1992SOL    HW1  658   2.250   1.125   2.668
 1992SOL    HW2  659   2.295   1.124   2.510
 1993SOL     OW  660   3.133   1.797   2.453
 1993SOL    HW1  661   3.177   1.861   2.389
 1993SOL    HW2  662   3.083   1.849   2.523
 1999SOL     OW  663   3.291   1.173   2.729
 1999SOL    HW1  664   3.236   1.089   2.722
 1999SOL    HW2  665   3.317   1.202   2.637
 2002SOL     OW  666   2.350   1.385   2.036
 2002SOL    HW1  667   2.263   1.370   2.083
 2002SOL    HW2  668   2.333   1.411   1.941
 2003SOL     OW  669   3.526   1.280   2.519
 2003SOL    HW1  670   3.625   1.288   2.533
 2003SOL    HW2  671   3.481   1.364   2.550
 2007SOL     OW  672   2.926   1.347   3.202
 2007SOL    HW1  673   2.846   1.324   3.257
 2007SOL    HW2  674   3.009   1.321   3.251
 2008SOL     OW  675   3.454   1.629   3.487
 2008SOL    HW1  676   3.481   1.663   3.397
 2008SOL    HW2  677   3.533   1.591   3.533
 2009SOL     OW  678   2.973   1.195   2.962
 2009SOL    HW1  679   2.933   1.239   3.043
 2009SOL    HW2  680   2.932   1.232   2.879
 2010SOL     OW  681   3.500   1.099   2.941
 2010SOL    HW1  682   3.505   1.180   3.000
 2010SOL    HW2  683   3.414   1.101   2.890
 2013SOL     OW  684   2.567   1.050   2.230
 2013SOL    HW1  685   2.553   1.057   2.329
 2013SOL    HW2  686   2.651   0.999   2.212
 2016SOL     OW  687   1.926   1.564   3.193
 2016SOL    HW1  688   1.880   1.646   3.159
 2016SOL    HW2  689   2.024   1.583   3.202
 2017SOL     OW  690   2.229   1.100   2.363
 2017SOL    HW1  691   2.222   1.183   2.307
 2017SOL    HW2  692   2.233   1.020   2.303
 2019SOL     OW  693   3.114   1.348   2.250
 2019SOL    HW1  694   3.164   1.425   2.290
 2019SOL    HW2  695   3.019   1.350   2.282
 2020SOL     OW  696   3.134   1.445   3.004
 2020SOL    HW1  697   3.181   1.458   3.091
 2020SOL    HW2  698   3.068   1.371   3.013
 2022SOL     OW  699   2.216   1.510   3.191
 2022SOL    HW1  700   2.195   1.466   3.104
 2022SOL    HW2  701   2.313   1.536   3.194
 2027SOL     OW  702   2.435   0.870   2.891
 2027SOL    HW1  703   2.479   0.959   2.882
 2027SOL    HW2  704   2.372   0.870   2.968
 2031SOL     OW  705   1.899   1.310   3.144
 2031SOL    HW1  706   1.952   1.261   3.212
 2031SOL    HW2  707   1.921   1.408   3.149
 2037SOL     OW  708   2.842   1.573   3.562
 2037SOL    HW1  709   2.822   1.617   3.474
 2037SOL    HW2  710   2.881   1.482   3.546
 2038SOL     OW  711   3.721   1.518   3.467
 2038SOL    HW1  712   3.735   1.545   3.372
 2038SOL    HW2  713   3.804   1.540   3.520
 2042SOL     OW  714   2.930   1.333   2.711
 2042SOL    HW1  715   2.937   1.249   2.656
 2042SOL    HW2  716   2.992   1.402   2.675
 2047SOL     OW  717   1.870   1.326   2.062
 2047SOL    HW1  718   1.777   1.347   2.031
 2047SOL    HW2  719   1.880   1.227   2.075
 2048SOL     OW  720   1.950   1.801   2.789
 2048SOL    HW1  721   1.908   1.715   2.762
 2048SOL    HW2  722   2.044   1.804   2.755
 2049SOL     OW  723   2.366   1.568   2.772
 2049SOL    HW1  724   2.432   1.642   2.781
 2049SOL    HW2  725   2.410   1.489   2.730
 2056SOL     OW  726   2.114   1.564   3.606
 2056SOL    HW1  727   2.084   1.621   3.682
 2056SOL    HW2  728   2.107   1.467   3.632
 2058SOL     OW  729   2.792   1.678   3.327
 2058SOL    HW1  730   2.768   1.660   3.232
 2058SOL    HW2  731   2.822   1.772   3.337
 2060SOL     OW  732   2.021   1.137   3.328
 2060SOL    HW1  733   2.043   1.076   3.404
 2060SOL    HW2  734   2.031   1.088   3.242
 2061SOL     OW  735   3.209   1.059   3.096
 2061SOL    HW1  736   3.233   0.996   3.022
 2061SOL    HW2  737   3.119   1.099   3.078
 2063SOL     OW  738   3.621   1.747   3.016
 2063SOL    HW1  739   3.682   1.777   2.943
 2063SOL    HW2  740   3.583   1.658   2.994
 2064SOL     OW  741   3.114   1.731   2.990
 2064SOL    HW1  742   3.198   1.736   2.936
 2064SOL    HW2  743   3.091   1.635   3.008
 2065SOL     OW  744   1.945   1.258   2.884
 2065SOL    HW1  745   1.940   1.257   2.984
 2065SOL    HW2  746   1.862   1.217   2.846
 2066SOL     OW  747   2.550   1.662   3.578
 2066SOL    HW1  748   2.494   1.743   3.587
 2066SOL    HW2  749   2.602   1.666   3.492
 2068SOL     OW  750   3.250   1.573   2.339
 2068SOL    HW1  751   3.317   1.585   2.265
 2068SOL    HW2  752   3.210   1.662   2.362
 2069SOL     OW  753   1.992   1.794   3.713
 2069SOL    HW1  754   1.951   1.720   3.766
 2069SOL    HW2  755   2.056   1.845   3.771
 2070SOL     OW  756   3.142   0.927   2.534
 2070SOL    HW1  757   3.202   0.846   2.536
 2070SOL    HW2  758   3.182   0.996   2.474
 2071SOL     OW  759   2.692   1.273   3.284
 2071SOL    HW1  760   2.687   1.306   3.379
 2071SOL    HW2  761   2.606   1.292   3.238
 2072SOL     OW  762   2.534   1.616   2.016
 2072SOL    HW1  763   2.543   1.626   1.917
 2072SOL    HW2  764   2.494   1.527   2.037
 2073SOL     OW  765   3.512   1.720   3.256
 2073SOL    HW1  766   3.565   1.730   3.172
 2073SOL    HW2  767   3.485   1.810   3.290
 2076SOL     OW  768   3.056   1.612   1.893
 2076SOL    HW1  769   3.062   1.519   1.930
 2076SOL    HW2  770   2.997   1.612   1.813
 2077SOL     OW  771   2.684   1.002   3.234
 2077SOL    HW1  772   2.724   1.001   3.142
 2077SOL    HW2  773   2.694   1.094   3.274
 2078SOL     OW  774   2.778   0.910   2.153
 2078SOL    HW1  775   2.841   0.948   2.085
 2078SOL    HW2  776   2.818   0.827   2.192
 2079SOL     OW  777   3.366   1.607   1.906
 2079SOL    HW1  778   3.274   1.644   1.913
 2079SOL    HW2  779   3.404   1.627   1.816
 2080SOL     OW  780   2.234   1.288   3.352
 2080SOL    HW1  781   2.221   1.381   3.318
 2080SOL    HW2  782   2.150   1.236   3.339
 2081SOL     OW  783   3.476   1.292   3.151
 2081SOL    HW1  784   3.536   1.295   3.231
 2081SOL    HW2  785   3.401   1.356   3.164
 2082SOL     OW  786   2.901   1.098   2.558
 2082SOL    HW1  787   2.831   1.051   2.612
 2082SOL    HW2  788   2.960   1.030   2.515
 2084SOL     OW  789   2.452   1.487   2.353
 2084SOL    HW1  790   2.494   1.429   2.283
 2084SOL    HW2  791   2.408   1.566   2.309
 2086SOL     OW  792   2.117   1.348   2.152
 2086SOL    HW1  793   2.021   1.349   2.125
 2086SOL    HW2  794   2.129   1.401   2.236
 2092SOL     OW  795   3.045   1.335   1.981
 2092SOL    HW1  796   2.946   1.324   1.983
 2092SOL    HW2  797   3.079   1.350   2.074
 2094SOL     OW  798   3.355   1.767   2.821
 2094SOL    HW1  799   3.388   1.831   2.752
 2094SOL    HW2  800   3.421   1.761   2.896
 2096SOL     OW  801   3.312   1.220   3.495
 2096SOL    HW1  802   3.303   1.210   3.594
 2096SOL    HW2  803   3.408   1.213   3.469
 2097SOL     OW  804   2.252   1.741   3.422
 2097SOL    HW1  805   2.161   1.782   3.420
 2097SOL    HW2  806   2.245   1.647   3.454
 2103SOL     OW  807   2.721   1.374   1.878
 2103SOL    HW1  808   2.675   1.389   1.966
 2103SOL    HW2  809   2.765   1.459   1.848
 2104SOL     OW  810   2.523   1.790   2.815
 2104SOL    HW1  811   2.477   1.878   2.802
 2104SOL    HW2  812   2.622   1.802   2.808
 2105SOL     OW  813   2.721   0.956   2.723
 2105SOL    HW1  814   2.775   0.887   2.771
 2105SOL    HW2  815   2.689   1.025   2.789
 2107SOL     OW  816   3.723   1.569   2.713
 2107SOL    HW1  817   3.652   1.557   2.643
 2107SOL    HW2  818   3.724   1.490   2.773
 2108SOL     OW  819   2.083   1.314   3.706
 2108SOL    HW1  820   2.018   1.241   3.685
 2108SOL    HW2  821   2.087   1.328   3.804
 2109SOL     OW  822   1.941   1.240   2.515
 2109SOL    HW1  823   1.940   1.193   2.603
 2109SOL    HW2  824   2.023   1.212   2.464
 2110SOL     OW  825   2.534   1.391   3.486
 2110SOL    HW1  826   2.456   1.341   3.524
 2110SOL    HW2  827   2.531   1.486   3.517
 2113SOL     OW  828   3.567   1.487   2.966
 2113SOL    HW1  829   3.474   1.462   2.939
 2113SOL    HW2  830   3.593   1.437   3.048
 2115SOL     OW  831   2.674   1.586   2.549
 2115SOL    HW1  832   2.706   1.596   2.455
 2115SOL    HW2  833   2.595   1.524   2.551
 2118SOL     OW  834   2.632   1.330   2.163
 2118SOL    HW1  835   2.586   1.243   2.180
 2118SOL    HW2  836   2.723   1.327   2.204
 2119SOL     OW  837   2.480   1.567   3.146
 2119SOL    HW1  838   2.475   1.649   3.203
 2119SOL    HW2  839   2.569   1.564   3.101
 2123SOL     OW  840   1.901   1.077   2.162
 2123SOL    HW1  841   2.000   1.066   2.153
 2123SOL    HW2  842   1.861   0.991   2.194
 2124SOL     OW  843   2.737   1.646   2.199
 2124SOL    HW1  844   2.660   1.611   2.145
 2124SOL    HW2  845   2.705   1.717   2.261
 2146SOL     OW  846   1.889   1.596   3.841
 2146SOL    HW1  847   1.870   1.500   3.862
 2146SOL    HW2  848   1.856   1.654   3.916
 2172SOL     OW  849   2.973   1.776   3.961
 2172SOL    HW1  850   2.913   1.714   4.011
 2172SOL    HW2  851   3.004   1.732   3.876
 2175SOL     OW  852   2.326   1.743   4.047
 2175SOL    HW1  853   2.359   1.782   4.133
 2175SOL    HW2  854   2.402   1.736   3.982
 2199SOL     OW  855   2.350   1.385   3.898
 2199SOL    HW1  856   2.263   1.370   3.945
 2199SOL    HW2  857   2.333   1.411   3.803
 2255SOL     OW  858   2.534   1.616   3.878
 2255SOL    HW1  859   2.543   1.626   3.779
 2255SOL    HW2  860   2.494   1.527   3.899
 2259SOL     OW  861   3.056   1.612   3.755
 2259SOL    HW1  862   3.062   1.519   3.792
 2259SOL    HW2  863   2.997   1.612   3.675
 2262SOL     OW  864   3.366   1.607   3.768
 2262SOL    HW1  865   3.274   1.644   3.775
 2262SOL    HW2  866   3.404   1.627   3.678
 2281SOL     OW  867   2.721   1.374   3.740
 2281SOL    HW1  868   2.675   1.389   3.828
 2281SOL    HW2  869   2.765   1.459   3.710
 2300SOL     OW  870   2.737   1.646   4.061
 2300SOL    HW1  871   2.660   1.611   4.007
 2300SOL    HW2  872   2.705   1.717   4.123
 2302SOL     OW  873   2.087   2.137   0.996
 2302SOL    HW1  874   2.122   2.120   1.088
 2302SOL    HW2  875   1.999   2.092   0.984
 2304SOL     OW  876   2.431   3.137   1.165
 2304SOL    HW1  877   2.338   3.130   1.128
 2304SOL    HW2  878   2.442   3.226   1.209
 2308SOL     OW  879   2.630   3.006   1.023
 2308SOL    HW1  880   2.552   3.023   1.083
 2308SOL    HW2  881   2.664   3.093   0.987
 2309SOL     OW  882   2.712   2.660   1.823
 2309SOL    HW1  883   2.708   2.736   1.888
 2309SOL    HW2  884   2.734   2.696   1.732
 2311SOL     OW  885   2.548   3.023   1.803
 2311SOL    HW1  886   2.608   3.102   1.817
 2311SOL    HW2  887   2.462   3.054   1.762
 2312SOL     OW  888   2.197   3.297   1.061
 2312SOL    HW1  889   2.119   3.266   1.008
 2312SOL    HW2  890   2.255   3.355   1.004
 2313SOL     OW  891   3.322   3.367   1.339
 2313SOL    HW1  892   3.346   3.461   1.365
 2313SOL    HW2  893   3.306   3.313   1.421
 2314SOL     OW  894   2.300   2.254   1.499
 2314SOL    HW1  895   2.382   2.198   1.508
 2314SOL    HW2  896   2.219   2.196   1.503
 2317SOL     OW  897   2.989   3.203   1.690
 2317SOL    HW1  898   3.036   3.203   1.778
 2317SOL    HW2  899   2.941   3.116   1.679
 2320SOL     OW  900   2.482   3.648   1.439
 2320SOL    HW1  901   2.390   3.631   1.474
 2320SOL    HW2  902   2.510   3.740   1.465
 2322SOL     OW  903   3.456   1.976   1.480
 2322SOL    HW1  904   3.438   2.043   1.408
 2322SOL    HW2  905   3.453   2.022   1.569
 2328SOL     OW  906   1.975   2.599   1.597
 2328SOL    HW1  907   2.063   2.586   1.642
 2328SOL    HW2  908   1.962   2.696   1.575
 2330SOL     OW  909   3.155   3.090   1.423
 2330SOL    HW1  910   3.192   3.017   1.365
 2330SOL    HW2  911   3.207   3.095   1.508
 2332SOL     OW  912   2.059   2.838   1.264
 2332SOL    HW1  913   2.148   2.793   1.250
 2332SOL    HW2  914   1.986   2.773   1.245
 2334SOL     OW  915   3.049   3.654   1.616
 2334SOL    HW1  916   3.073   3.714   1.540
 2334SOL    HW2  917   3.056   3.559   1.586
 2335SOL     OW  918   2.179   2.113   1.801
 2335SOL    HW1  919   2.250   2.184   1.807
 2335SOL    HW2  920   2.091   2.152   1.829
 2341SOL     OW  921   2.669   2.467   1.465
 2341SOL    HW1  922   2.622   2.464   1.554
 2341SOL    HW2  923   2.618   2.412   1.399
 2342SOL     OW  924   3.256   2.331   1.674
 2342SOL    HW1  925   3.236   2.374   1.762
 2342SOL    HW2  926   3.334   2.269   1.683
 2343SOL     OW  927   2.835   2.752   1.572
 2343SOL    HW1  928   2.881   2.668   1.543
 2343SOL    HW2  929   2.779   2.786   1.497
 2344SOL     OW  930   2.853   2.272   1.242
 2344SOL    HW1  931   2.776   2.306   1.296
 2344SOL    HW2  932   2.819   2.221   1.163
 2347SOL     OW  933   1.992   3.683   1.571
 2347SOL    HW1  934   1.982   3.668   1.670
 2347SOL    HW2  935   1.906   3.719   1.535
 2349SOL     OW  936   3.581   2.447   1.831
 2349SOL    HW1  937   3.555   2.536   1.795
 2349SOL    HW2  938   3.579   2.379   1.758
 2355SOL     OW  939   3.089   3.412   1.506
 2355SOL    HW1  940   3.095   3.335   1.570
 2355SOL    HW2  941   3.037   3.386   1.426
 2358SOL     OW  942   2.323   3.128   1.727
 2358SOL    HW1  943   2.273   3.129   1.641
 2358SOL    HW2  944   2.260   3.110   1.803
 2360SOL     OW  945   2.064   2.147   1.498
 2360SOL    HW1  946   1.984   2.207   1.485
 2360SOL    HW2  947   2.054   2.098   1.584
 2367SOL     OW  948   3.409   2.084   1.729
 2367SOL    HW1  949   3.404   2.121   1.821
 2367SOL    HW2  950   3.337   2.015   1.717
 2369SOL     OW  951   2.643   2.126   1.749
 2369SOL    HW1  952   2.710   2.065   1.792
 2369SOL    HW2  953   2.570   2.145   1.814
 2370SOL     OW  954   2.750   3.376   1.195
 2370SOL    HW1  955   2.727   3.351   1.101
 2370SOL    HW2  956   2.811   3.307   1.234
 2371SOL     OW  957   3.213   2.452   1.433
 2371SOL    HW1  958   3.241   2.409   1.518
 2371SOL    HW2  959   3.238   2.548   1.434
 2373SOL     OW  960   2.784   2.365   0.899
 2373SOL    HW1  961   2.759   2.356   0.803
 2373SOL    HW2  962   2.832   2.283   0.930
 2378SOL     OW  963   2.938   2.545   1.464
 2378SOL    HW1  964   2.858   2.484   1.467
 2378SOL    HW2  965   3.019   2.492   1.440
 2383SOL     OW  966   1.940   2.418   1.386
 2383SOL    HW1  967   2.032   2.417   1.345
 2383SOL    HW2  968   1.934   2.492   1.453
 2384SOL     OW  969   2.423   2.084   1.147
 2384SOL    HW1  970   2.461   2.000   1.184
 2384SOL    HW2  971   2.335   2.103   1.191
 2388SOL     OW  972   3.328   2.452   0.992
 2388SOL    HW1  973   3.298   2.357   0.999
 2388SOL    HW2  974   3.401   2.468   1.058
 2394SOL     OW  975   3.616   3.085   1.588
 2394SOL    HW1  976   3.707   3.046   1.575
 2394SOL    HW2  977   3.624   3.181   1.612
 2395SOL     OW  978   2.926   3.209   1.340
 2395SOL    HW1  979   2.846   3.186   1.395
 2395SOL    HW2  980   3.009   3.183   1.389
 2396SOL     OW  981   3.454   3.491   1.625
 2396SOL    HW1  982   3.481   3.525   1.535
 2396SOL    HW2  983   3.533   3.453   1.671
 2397SOL     OW  984   2.973   3.057   1.100
 2397SOL    HW1  985   2.933   3.101   1.181
 2397SOL    HW2  986   2.932   3.094   1.017
 2399SOL     OW  987   2.777   1.951   1.402
 2399SOL    HW1  988   2.802   1.931   1.307
 2399SOL    HW2  989   2.849   2.007   1.444
 2400SOL     OW  990   2.842   2.978   1.719
 2400SOL    HW1  991   2.743   2.984   1.729
 2400SOL    HW2  992   2.865   2.898   1.663
 2402SOL     OW  993   2.272   2.675   1.251
 2402SOL    HW1  994   2.358   2.687   1.301
 2402SOL    HW2  995   2.230   2.588   1.278
 2403SOL     OW  996   3.136   2.248   1.262
 2403SOL    HW1  997   3.157   2.322   1.326
 2403SOL    HW2  998   3.047   2.265   1.219
 2404SOL     OW  999   1.926   3.426   1.331
 2404SOL    HW1 1000   1.880   3.508   1.297
 2404SOL    HW2 1001   2.024   3.445   1.340
 2406SOL     OW 1002   2.428   2.399   0.865
 2406SOL    HW1 1003   2.440   2.465   0.791
 2406SOL    HW2 1004   2.474   2.433   0.948
 2408SOL     OW 1005   3.134   3.307   1.142
 2408SOL    HW1 1006   3.181   3.320   1.229
 2408SOL    HW2 1007   3.068   3.233   1.151
 2410SOL     OW 1008   2.216   3.372   1.329
 2410SOL    HW1 1009   2.195   3.328   1.242
 2410SOL    HW2 1010   2.313   3.398   1.332
 2411SOL     OW 1011   2.264   2.613   1.598
 2411SOL    HW1 1012   2.332   2.668   1.551
 2411SOL    HW2 1013   2.304   2.525   1.625
 2412SOL     OW 1014   3.449   2.641   1.670
 2412SOL    HW1 1015   3.357   2.679   1.665
 2412SOL    HW2 1016   3.509   2.688   1.605
 2413SOL     OW 1017   2.875   1.967   1.770
 2413SOL    HW1 1018   2.881   2.052   1.718
 2413SOL    HW2 1019   2.907   1.891   1.713
 2414SOL     OW 1020   2.366   1.912   1.740
 2414SOL    HW1 1021   2.324   1.855   1.670
 2414SOL    HW2 1022   2.300   1.981   1.772
 2415SOL     OW 1023   2.435   2.732   1.029
 2415SOL    HW1 1024   2.479   2.821   1.020
 2415SOL    HW2 1025   2.372   2.732   1.106
 2416SOL     OW 1026   3.222   2.724   1.045
 2416SOL    HW1 1027   3.147   2.724   0.979
 2416SOL    HW2 1028   3.259   2.632   1.054
 2418SOL     OW 1029   2.169   2.075   1.231
 2418SOL    HW1 1030   2.146   2.112   1.321
 2418SOL    HW2 1031   2.139   1.980   1.225
 2419SOL     OW 1032   1.899   3.172   1.282
 2419SOL    HW1 1033   1.952   3.123   1.350
 2419SOL    HW2 1034   1.921   3.270   1.287
 2420SOL     OW 1035   2.594   2.496   1.064
 2420SOL    HW1 1036   2.653   2.470   0.988
 2420SOL    HW2 1037   2.566   2.592   1.053
 2421SOL     OW 1038   3.590   2.797   1.854
 2421SOL    HW1 1039   3.544   2.790   1.765
 2421SOL    HW2 1040   3.528   2.841   1.920
 2424SOL     OW 1041   2.885   2.628   0.966
 2424SOL    HW1 1042   2.900   2.649   1.062
 2424SOL    HW2 1043   2.855   2.533   0.957
 2425SOL     OW 1044   2.842   3.435   1.700
 2425SOL    HW1 1045   2.822   3.479   1.612
 2425SOL    HW2 1046   2.881   3.344   1.684
 2426SOL     OW 1047   3.721   3.380   1.605
 2426SOL    HW1 1048   3.735   3.407   1.510
 2426SOL    HW2 1049   3.804   3.402   1.658
 2427SOL     OW 1050   2.212   2.760   1.804
 2427SOL    HW1 1051   2.288   2.804   1.852
 2427SOL    HW2 1052   2.247   2.713   1.722
 2431SOL     OW 1053   2.181   2.672   0.949
 2431SOL    HW1 1054   2.274   2.708   0.954
 2431SOL    HW2 1055   2.175   2.587   1.001
 2432SOL     OW 1056   2.201   2.371   1.006
 2432SOL    HW1 1057   2.149   2.288   0.989
 2432SOL    HW2 1058   2.278   2.376   0.942
 2433SOL     OW 1059   3.000   2.242   1.678
 2433SOL    HW1 1060   2.955   2.305   1.742
 2433SOL    HW2 1061   3.093   2.273   1.661
 2434SOL     OW 1062   3.022   2.069   1.477
 2434SOL    HW1 1063   3.022   2.133   1.554
 2434SOL    HW2 1064   3.050   2.117   1.394
 2438SOL     OW 1065   2.864   2.658   1.238
 2438SOL    HW1 1066   2.905   2.626   1.324
 2438SOL    HW2 1067   2.768   2.631   1.235
 2439SOL     OW 1068   1.902   2.406   1.114
 2439SOL    HW1 1069   1.987   2.373   1.073
 2439SOL    HW2 1070   1.915   2.421   1.212
 2440SOL     OW 1071   2.051   2.382   1.722
 2440SOL    HW1 1072   2.110   2.342   1.652
 2440SOL    HW2 1073   1.993   2.453   1.681
 2441SOL     OW 1074   3.231   2.812   1.660
 2441SOL    HW1 1075   3.270   2.901   1.680
 2441SOL    HW2 1076   3.241   2.792   1.563
 2443SOL     OW 1077   3.519   2.466   1.206
 2443SOL    HW1 1078   3.481   2.397   1.268
 2443SOL    HW2 1079   3.601   2.430   1.162
 2444SOL     OW 1080   2.114   3.426   1.744
 2444SOL    HW1 1081   2.084   3.483   1.820
 2444SOL    HW2 1082   2.107   3.329   1.770
 2445SOL     OW 1083   2.533   2.326   1.269
 2445SOL    HW1 1084   2.499   2.237   1.239
 2445SOL    HW2 1085   2.559   2.380   1.189
 2446SOL     OW 1086   2.792   3.540   1.465
 2446SOL    HW1 1087   2.768   3.522   1.370
 2446SOL    HW2 1088   2.822   3.634   1.475
 2448SOL     OW 1089   2.021   2.999   1.466
 2448SOL    HW1 1090   2.043   2.938   1.542
 2448SOL    HW2 1091   2.031   2.950   1.380
 2449SOL     OW 1092   3.209   2.921   1.234
 2449SOL    HW1 1093   3.233   2.858   1.160
 2449SOL    HW2 1094   3.119   2.961   1.216
 2454SOL     OW 1095   2.550   3.524   1.716
 2454SOL    HW1 1096   2.494   3.605   1.725
 2454SOL    HW2 1097   2.602   3.528   1.630
 2458SOL     OW 1098   1.992   3.656   1.851
 2458SOL    HW1 1099   1.951   3.582   1.904
 2458SOL    HW2 1100   2.056   3.707   1.909
 2460SOL     OW 1101   2.692   3.135   1.422
 2460SOL    HW1 1102   2.687   3.168   1.517
 2460SOL    HW2 1103   2.606   3.154   1.376
 2462SOL     OW 1104   3.512   3.582   1.394
 2462SOL    HW1 1105   3.565   3.592   1.310
 2462SOL    HW2 1106   3.485   3.672   1.428
 2466SOL     OW 1107   2.684   2.864   1.372
 2466SOL    HW1 1108   2.724   2.863   1.280
 2466SOL    HW2 1109   2.694   2.956   1.412
 2469SOL     OW 1110   2.234   3.150   1.490
 2469SOL    HW1 1111   2.221   3.243   1.456
 2469SOL    HW2 1112   2.150   3.098   1.477
 2470SOL     OW 1113   3.476   3.154   1.289
 2470SOL    HW1 1114   3.536   3.157   1.369
 2470SOL    HW2 1115   3.401   3.218   1.302
 2472SOL     OW 1116   2.876   2.098   0.971
 2472SOL    HW1 1117   2.868   2.062   0.878
 2472SOL    HW2 1118   2.874   2.022   1.036
 2474SOL     OW 1119   3.571   2.247   1.381
 2474SOL    HW1 1120   3.644   2.316   1.385
 2474SOL    HW2 1121   3.599   2.172   1.322
 2476SOL     OW 1122   1.967   2.875   1.726
 2476SOL    HW1 1123   1.890   2.842   1.780
 2476SOL    HW2 1124   2.052   2.845   1.768
 2477SOL     OW 1125   2.534   2.065   1.489
 2477SOL    HW1 1126   2.624   2.049   1.449
 2477SOL    HW2 1127   2.542   2.070   1.588
 2479SOL     OW 1128   3.302   2.718   1.398
 2479SOL    HW1 1129   3.245   2.770   1.335
 2479SOL    HW2 1130   3.398   2.730   1.374
 2482SOL     OW 1131   2.475   2.704   1.431
 2482SOL    HW1 1132   2.531   2.785   1.414
 2482SOL    HW2 1133   2.534   2.624   1.434
 2484SOL     OW 1134   2.578   2.427   1.708
 2484SOL    HW1 1135   2.597   2.492   1.782
 2484SOL    HW2 1136   2.638   2.347   1.717
 2485SOL     OW 1137   3.312   3.082   1.633
 2485SOL    HW1 1138   3.303   3.072   1.732
 2485SOL    HW2 1139   3.408   3.075   1.607
 2486SOL     OW 1140   2.252   3.603   1.560
 2486SOL    HW1 1141   2.161   3.644   1.558
 2486SOL    HW2 1142   2.245   3.509   1.592
 2487SOL     OW 1143   3.536   2.745   1.254
 2487SOL    HW1 1144   3.509   2.656   1.217
 2487SOL    HW2 1145   3.537   2.813   1.181
 2490SOL     OW 1146   3.639   2.204   1.642
 2490SOL    HW1 1147   3.622   2.235   1.548
 2490SOL    HW2 1148   3.555   2.167   1.680
 2491SOL     OW 1149   3.592   2.796   1.517
 2491SOL    HW1 1150   3.630   2.887   1.532
 2491SOL    HW2 1151   3.584   2.779   1.418
 2494SOL     OW 1152   2.721   2.818   0.861
 2494SOL    HW1 1153   2.775   2.749   0.909
 2494SOL    HW2 1154   2.689   2.887   0.927
 2497SOL     OW 1155   2.083   3.176   1.844
 2497SOL    HW1 1156   2.018   3.103   1.823
 2497SOL    HW2 1157   2.087   3.190   1.942
 2499SOL     OW 1158   2.534   3.253   1.624
 2499SOL    HW1 1159   2.456   3.203   1.662
 2499SOL    HW2 1160   2.531   3.348   1.655
 2503SOL     OW 1161   2.179   2.409   1.280
 2503SOL    HW1 1162   2.217   2.350   1.352
 2503SOL    HW2 1163   2.219   2.383   1.192
 2505SOL     OW 1164   3.286   2.076   1.112
 2505SOL    HW1 1165   3.338   2.011   1.167
 2505SOL    HW2 1166   3.237   2.139   1.173
 2506SOL     OW 1167   2.863   1.896   1.154
 2506SOL    HW1 1168   2.800   1.824   1.123
 2506SOL    HW2 1169   2.956   1.860   1.154
 2508SOL     OW 1170   2.480   3.429   1.284
 2508SOL    HW1 1171   2.475   3.511   1.341
 2508SOL    HW2 1172   2.569   3.426   1.239
 2514SOL     OW 1173   2.092   2.490   1.975
 2514SOL    HW1 1174   1.999   2.488   2.012
 2514SOL    HW2 1175   2.093   2.451   1.883
 2515SOL     OW 1176   2.087   2.137   2.858
 2515SOL    HW1 1177   2.122   2.120   2.950
 2515SOL    HW2 1178   1.999   2.092   2.846
 2516SOL     OW 1179   1.881   2.230   2.509
 2516SOL    HW1 1180   1.799   2.273   2.548
 2516SOL    HW2 1181   1.853   2.157   2.446
 2517SOL     OW 1182   2.431   3.137   3.027
 2517SOL    HW1 1183   2.338   3.130   2.990
 2517SOL    HW2 1184   2.442   3.226   3.071
 2518SOL     OW 1185   3.417   3.373   2.565
 2518SOL    HW1 1186   3.360   3.357   2.646
 2518SOL    HW2 1187   3.358   3.383   2.485
 2519SOL     OW 1188   2.997   2.565   2.579
 2519SOL    HW1 1189   3.054   2.643   2.554
 2519SOL    HW2 1190   2.937   2.591   2.655
 2520SOL     OW 1191   3.617   2.469   2.093
 2520SOL    HW1 1192   3.605   2.456   1.994
 2520SOL    HW2 1193   3.587   2.388   2.142
 2521SOL     OW 1194   2.630   3.006   2.885
 2521SOL    HW1 1195   2.552   3.023   2.945
 2521SOL    HW2 1196   2.664   3.093   2.849
 2522SOL     OW 1197   2.712   2.660   3.685
 2522SOL    HW1 1198   2.708   2.736   3.750
 2522SOL    HW2 1199   2.734   2.696   3.594
 2523SOL     OW 1200   2.548   3.023   3.665
 2523SOL    HW1 1201   2.608   3.102   3.679
 2523SOL    HW2 1202   2.462   3.054   3.624
 2524SOL     OW 1203   2.197   3.297   2.923
 2524SOL    HW1 1204   2.119   3.266   2.870
 2524SOL    HW2 1205   2.255   3.355   2.866
 2525SOL     OW 1206   3.322   3.367   3.201
 2525SOL    HW1 1207   3.346   3.461   3.227
 2525SOL    HW2 1208   3.306   3.313   3.283
 2526SOL     OW 1209   2.300   2.254   3.361
 2526SOL    HW1 1210   2.382   2.198   3.370
 2526SOL    HW2 1211   2.219   2.196   3.365
 2527SOL     OW 1212   3.465   2.309   2.599
 2527SOL    HW1 1213   3.391   2.355   2.549
 2527SOL    HW2 1214   3.516   2.377   2.652
 2528SOL     OW 1215   2.093   3.575   2.345
 2528SOL    HW1 1216   2.127   3.652   2.399
 2528SOL    HW2 1217   2.137   3.575   2.255
 2529SOL     OW 1218   2.989   3.203   3.552
 2529SOL    HW1 1219   3.036   3.203   3.640
 2529SOL    HW2 1220   2.941   3.116   3.541
 2530SOL     OW 1221   2.092   3.296   2.400
 2530SOL    HW1 1222   2.066   3.392   2.400
 2530SOL    HW2 1223   2.021   3.242   2.445
 2531SOL     OW 1224   2.102   2.953   2.748
 2531SOL    HW1 1225   2.116   2.869   2.800
 2531SOL    HW2 1226   2.047   3.017   2.803
 2532SOL     OW 1227   2.482   3.648   3.301
 2532SOL    HW1 1228   2.390   3.631   3.336
 2532SOL    HW2 1229   2.510   3.740   3.327
 2533SOL     OW 1230   2.468   2.826   1.985
 2533SOL    HW1 1231   2.475   2.910   1.931
 2533SOL    HW2 1232   2.514   2.839   2.073
 2534SOL     OW 1233   3.456   1.976   3.342
 2534SOL    HW1 1234   3.438   2.043   3.270
 2534SOL    HW2 1235   3.453   2.022   3.431
 2535SOL     OW 1236   1.984   2.505   2.425
 2535SOL    HW1 1237   1.939   2.417   2.442
 2535SOL    HW2 1238   1.983   2.559   2.509
 2536SOL     OW 1239   3.704   3.629   2.221
 2536SOL    HW1 1240   3.758   3.600   2.301
 2536SOL    HW2 1241   3.734   3.719   2.192
 2537SOL     OW 1242   1.889   3.458   1.979
 2537SOL    HW1 1243   1.870   3.362   2.000
 2537SOL    HW2 1244   1.856   3.516   2.054
 2538SOL     OW 1245   3.551   2.784   2.474
 2538SOL    HW1 1246   3.646   2.755   2.482
 2538SOL    HW2 1247   3.543   2.849   2.399
 2539SOL     OW 1248   3.503   2.970   2.294
 2539SOL    HW1 1249   3.589   2.972   2.242
 2539SOL    HW2 1250   3.517   3.017   2.382
 2540SOL     OW 1251   1.975   2.599   3.459
 2540SOL    HW1 1252   2.063   2.586   3.504
 2540SOL    HW2 1253   1.962   2.696   3.437
 2541SOL     OW 1254   2.475   3.227   2.588
 2541SOL    HW1 1255   2.426   3.140   2.597
 2541SOL    HW2 1256   2.452   3.270   2.501
 2542SOL     OW 1257   3.155   3.090   3.285
 2542SOL    HW1 1258   3.192   3.017   3.227
 2542SOL    HW2 1259   3.207   3.095   3.370
 2543SOL     OW 1260   2.671   1.866   2.364
 2543SOL    HW1 1261   2.711   1.957   2.355
 2543SOL    HW2 1262   2.571   1.874   2.370
 2544SOL     OW 1263   2.059   2.838   3.126
 2544SOL    HW1 1264   2.148   2.793   3.112
 2544SOL    HW2 1265   1.986   2.773   3.107
 2545SOL     OW 1266   3.387   2.861   2.052
 2545SOL    HW1 1267   3.324   2.785   2.065
 2545SOL    HW2 1268   3.435   2.879   2.138
 2546SOL     OW 1269   3.049   3.654   3.478
 2546SOL    HW1 1270   3.073   3.714   3.402
 2546SOL    HW2 1271   3.056   3.559   3.448
 2547SOL     OW 1272   2.179   2.113   3.663
 2547SOL    HW1 1273   2.250   2.184   3.669
 2547SOL    HW2 1274   2.091   2.152   3.691
 2548SOL     OW 1275   3.328   3.279   2.815
 2548SOL    HW1 1276   3.269   3.285   2.895
 2548SOL    HW2 1277   3.313   3.191   2.769
 2549SOL     OW 1278   3.529   3.576   2.434
 2549SOL    HW1 1279   3.488   3.553   2.346
 2549SOL    HW2 1280   3.511   3.502   2.499
 2550SOL     OW 1281   2.460   2.591   2.132
 2550SOL    HW1 1282   2.484   2.660   2.064
 2550SOL    HW2 1283   2.382   2.624   2.186
 2551SOL     OW 1284   3.143   2.207   2.806
 2551SOL    HW1 1285   3.057   2.157   2.793
 2551SOL    HW2 1286   3.205   2.153   2.862
 2552SOL     OW 1287   3.438   3.524   2.169
 2552SOL    HW1 1288   3.527   3.570   2.172
 2552SOL    HW2 1289   3.417   3.500   2.074
 2553SOL     OW 1290   2.669   2.467   3.327
 2553SOL    HW1 1291   2.622   2.464   3.416
 2553SOL    HW2 1292   2.618   2.412   3.261
 2554SOL     OW 1293   3.256   2.331   3.536
 2554SOL    HW1 1294   3.236   2.374   3.624
 2554SOL    HW2 1295   3.334   2.269   3.545
 2555SOL     OW 1296   2.835   2.752   3.434
 2555SOL    HW1 1297   2.881   2.668   3.405
 2555SOL    HW2 1298   2.779   2.786   3.359
 2556SOL     OW 1299   2.853   2.272   3.104
 2556SOL    HW1 1300   2.776   2.306   3.158
 2556SOL    HW2 1301   2.819   2.221   3.025
 2557SOL     OW 1302   1.938   2.673   2.651
 2557SOL    HW1 1303   2.037   2.661   2.660
 2557SOL    HW2 1304   1.914   2.768   2.672
 2558SOL     OW 1305   1.992   3.683   3.433
 2558SOL    HW1 1306   1.982   3.668   3.532
 2558SOL    HW2 1307   1.906   3.719   3.397
 2559SOL     OW 1308   2.727   2.210   2.057
 2559SOL    HW1 1309   2.786   2.273   2.008
 2559SOL    HW2 1310   2.746   2.116   2.028
 2560SOL     OW 1311   3.581   2.447   3.693
 2560SOL    HW1 1312   3.555   2.536   3.657
 2560SOL    HW2 1313   3.579   2.379   3.620
 2561SOL     OW 1314   3.224   3.006   2.407
 2561SOL    HW1 1315   3.307   2.977   2.359
 2561SOL    HW2 1316   3.175   3.073   2.351
 2562SOL     OW 1317   2.412   2.058   2.747
 2562SOL    HW1 1318   2.407   2.053   2.847
 2562SOL    HW2 1319   2.414   2.154   2.718
 2563SOL     OW 1320   2.870   3.318   2.339
 2563SOL    HW1 1321   2.824   3.390   2.287
 2563SOL    HW2 1322   2.866   3.338   2.437
 2564SOL     OW 1323   2.213   3.663   2.715
 2564SOL    HW1 1324   2.263   3.577   2.721
 2564SOL    HW2 1325   2.278   3.740   2.712
 2565SOL     OW 1326   3.657   2.928   2.735
 2565SOL    HW1 1327   3.595   2.913   2.659
 2565SOL    HW2 1328   3.605   2.939   2.820
 2566SOL     OW 1329   3.089   3.412   3.368
 2566SOL    HW1 1330   3.095   3.335   3.432
 2566SOL    HW2 1331   3.037   3.386   3.288
 2567SOL     OW 1332   2.183   2.805   2.104
 2567SOL    HW1 1333   2.265   2.844   2.062
 2567SOL    HW2 1334   2.156   2.723   2.055
 2568SOL     OW 1335   3.320   2.597   2.590
 2568SOL    HW1 1336   3.315   2.532   2.665
 2568SOL    HW2 1337   3.400   2.656   2.603
 2569SOL     OW 1338   2.323   3.128   3.589
 2569SOL    HW1 1339   2.273   3.129   3.503
 2569SOL    HW2 1340   2.260   3.110   3.665
 2570SOL     OW 1341   2.973   3.638   2.099
 2570SOL    HW1 1342   2.913   3.576   2.149
 2570SOL    HW2 1343   3.004   3.594   2.014
 2571SOL     OW 1344   2.064   2.147   3.360
 2571SOL    HW1 1345   1.984   2.207   3.347
 2571SOL    HW2 1346   2.054   2.098   3.446
 2572SOL     OW 1347   3.494   3.239   1.943
 2572SOL    HW1 1348   3.462   3.333   1.933
 2572SOL    HW2 1349   3.418   3.176   1.931
 2573SOL     OW 1350   2.326   3.605   2.185
 2573SOL    HW1 1351   2.359   3.644   2.271
 2573SOL    HW2 1352   2.402   3.598   2.120
 2574SOL     OW 1353   3.262   1.969   2.288
 2574SOL    HW1 1354   3.238   1.932   2.198
 2574SOL    HW2 1355   3.361   1.985   2.292
 2575SOL     OW 1356   2.111   3.647   3.103
 2575SOL    HW1 1357   2.168   3.582   3.153
 2575SOL    HW2 1358   2.095   3.614   3.010
 2576SOL     OW 1359   2.802   3.560   2.766
 2576SOL    HW1 1360   2.882   3.503   2.787
 2576SOL    HW2 1361   2.753   3.520   2.689
 2577SOL     OW 1362   2.244   2.562   2.342
 2577SOL    HW1 1363   2.289   2.472   2.339
 2577SOL    HW2 1364   2.150   2.551   2.375
 2578SOL     OW 1365   3.409   2.084   3.591
 2578SOL    HW1 1366   3.404   2.121   3.683
 2578SOL    HW2 1367   3.337   2.015   3.579
 2579SOL     OW 1368   2.476   1.984   1.979
 2579SOL    HW1 1369   2.574   1.962   1.986
 2579SOL    HW2 1370   2.445   1.967   1.886
 2580SOL     OW 1371   2.643   2.126   3.611
 2580SOL    HW1 1372   2.710   2.065   3.654
 2580SOL    HW2 1373   2.570   2.145   3.676
 2581SOL     OW 1374   2.750   3.376   3.057
 2581SOL    HW1 1375   2.727   3.351   2.963
 2581SOL    HW2 1376   2.811   3.307   3.096
 2582SOL     OW 1377   3.213   2.452   3.295
 2582SOL    HW1 1378   3.241   2.409   3.380
 2582SOL    HW2 1379   3.238   2.548   3.296
 2583SOL     OW 1380   2.665   3.264   2.786
 2583SOL    HW1 1381   2.755   3.278   2.744
 2583SOL    HW2 1382   2.594   3.266   2.715
 2584SOL     OW 1383   2.784   2.365   2.761
 2584SOL    HW1 1384   2.759   2.356   2.665
 2584SOL    HW2 1385   2.832   2.283   2.792
 2585SOL     OW 1386   2.401   1.926   2.374
 2585SOL    HW1 1387   2.320   1.927   2.432
 2585SOL    HW2 1388   2.404   2.009   2.319
 2586SOL     OW 1389   3.296   3.050   1.903
 2586SOL    HW1 1390   3.328   2.974   1.960
 2586SOL    HW2 1391   3.204   3.077   1.933
 2587SOL     OW 1392   2.159   1.897   2.033
 2587SOL    HW1 1393   2.208   1.981   2.012
 2587SOL    HW2 1394   2.221   1.832   2.078
 2588SOL     OW 1395   2.797   2.098   2.342
 2588SOL    HW1 1396   2.749   2.139   2.264
 2588SOL    HW2 1397   2.896   2.096   2.323
 2589SOL     OW 1398   2.938   2.545   3.326
 2589SOL    HW1 1399   2.858   2.484   3.329
 2589SOL    HW2 1400   3.019   2.492   3.302
 2590SOL     OW 1401   3.089   3.432   2.655
 2590SOL    HW1 1402   3.110   3.506   2.590
 2590SOL    HW2 1403   3.157   3.432   2.728
 2591SOL     OW 1404   2.321   3.014   2.603
 2591SOL    HW1 1405   2.250   2.987   2.668
 2591SOL    HW2 1406   2.295   2.986   2.510
 2592SOL     OW 1407   3.133   3.659   2.453
 2592SOL    HW1 1408   3.177   3.723   2.389
 2592SOL    HW2 1409   3.083   3.711   2.523
 2593SOL     OW 1410   2.894   2.411   1.878
 2593SOL    HW1 1411   2.853   2.493   1.839
 2593SOL    HW2 1412   2.958   2.437   1.951
 2594SOL     OW 1413   1.940   2.418   3.248
 2594SOL    HW1 1414   2.032   2.417   3.207
 2594SOL    HW2 1415   1.934   2.492   3.315
 2595SOL     OW 1416   2.423   2.084   3.009
 2595SOL    HW1 1417   2.461   2.000   3.046
 2595SOL    HW2 1418   2.335   2.103   3.053
 2596SOL     OW 1419   2.728   2.316   2.504
 2596SOL    HW1 1420   2.696   2.388   2.442
 2596SOL    HW2 1421   2.752   2.235   2.451
 2597SOL     OW 1422   2.879   1.901   2.615
 2597SOL    HW1 1423   2.807   1.906   2.546
 2597SOL    HW2 1424   2.855   1.832   2.684
 2598SOL     OW 1425   3.291   3.035   2.729
 2598SOL    HW1 1426   3.236   2.951   2.722
 2598SOL    HW2 1427   3.317   3.064   2.637
 2599SOL     OW 1428   3.328   2.452   2.854
 2599SOL    HW1 1429   3.298   2.357   2.861
 2599SOL    HW2 1430   3.401   2.468   2.920
 2600SOL     OW 1431   3.719   2.695   2.239
 2600SOL    HW1 1432   3.761   2.631   2.303
 2600SOL    HW2 1433   3.681   2.644   2.161
 2601SOL     OW 1434   2.350   3.247   2.036
 2601SOL    HW1 1435   2.263   3.232   2.083
 2601SOL    HW2 1436   2.333   3.273   1.941
 2602SOL     OW 1437   3.526   3.142   2.519
 2602SOL    HW1 1438   3.625   3.150   2.533
 2602SOL    HW2 1439   3.481   3.226   2.550
 2603SOL     OW 1440   3.252   2.437   1.940
 2603SOL    HW1 1441   3.198   2.416   2.021
 2603SOL    HW2 1442   3.343   2.396   1.949
 2604SOL     OW 1443   2.389   2.118   2.190
 2604SOL    HW1 1444   2.416   2.059   2.115
 2604SOL    HW2 1445   2.389   2.213   2.159
 2605SOL     OW 1446   3.616   3.085   3.450
 2605SOL    HW1 1447   3.707   3.046   3.437
 2605SOL    HW2 1448   3.624   3.181   3.474
 2606SOL     OW 1449   2.926   3.209   3.202
 2606SOL    HW1 1450   2.846   3.186   3.257
 2606SOL    HW2 1451   3.009   3.183   3.251
 2607SOL     OW 1452   3.454   3.491   3.487
 2607SOL    HW1 1453   3.481   3.525   3.397
 2607SOL    HW2 1454   3.533   3.453   3.533
 2608SOL     OW 1455   2.973   3.057   2.962
 2608SOL    HW1 1456   2.933   3.101   3.043
 2608SOL    HW2 1457   2.932   3.094   2.879
 2609SOL     OW 1458   3.500   2.961   2.941
 2609SOL    HW1 1459   3.505   3.042   3.000
 2609SOL    HW2 1460   3.414   2.963   2.890
 2610SOL     OW 1461   2.777   1.951   3.264
 2610SOL    HW1 1462   2.802   1.931   3.169
 2610SOL    HW2 1463   2.849   2.007   3.306
 2611SOL     OW 1464   2.842   2.978   3.581
 2611SOL    HW1 1465   2.743   2.984   3.591
 2611SOL    HW2 1466   2.865   2.898   3.525
 2612SOL     OW 1467   2.567   2.912   2.230
 2612SOL    HW1 1468   2.553   2.919   2.329
 2612SOL    HW2 1469   2.651   2.861   2.212
 2613SOL     OW 1470   2.272   2.675   3.113
 2613SOL    HW1 1471   2.358   2.687   3.163
 2613SOL    HW2 1472   2.230   2.588   3.140
 2614SOL     OW 1473   3.136   2.248   3.124
 2614SOL    HW1 1474   3.157   2.322   3.188
 2614SOL    HW2 1475   3.047   2.265   3.081
 2615SOL     OW 1476   1.926   3.426   3.193
 2615SOL    HW1 1477   1.880   3.508   3.159
 2615SOL    HW2 1478   2.024   3.445   3.202
 2616SOL     OW 1479   2.229   2.962   2.363
 2616SOL    HW1 1480   2.222   3.045   2.307
 2616SOL    HW2 1481   2.233   2.882   2.303
 2617SOL     OW 1482   2.428   2.399   2.727
 2617SOL    HW1 1483   2.440   2.465   2.653
 2617SOL    HW2 1484   2.474   2.433   2.810
 2618SOL     OW 1485   3.114   3.210   2.250
 2618SOL    HW1 1486   3.164   3.287   2.290
 2618SOL    HW2 1487   3.019   3.212   2.282
 2619SOL     OW 1488   3.134   3.307   3.004
 2619SOL    HW1 1489   3.181   3.320   3.091
 2619SOL    HW2 1490   3.068   3.233   3.013
 2620SOL     OW 1491   3.444   2.501   2.334
 2620SOL    HW1 1492   3.413   2.562   2.407
 2620SOL    HW2 1493   3.494   2.553   2.265
 2621SOL     OW 1494   2.216   3.372   3.191
 2621SOL    HW1 1495   2.195   3.328   3.104
 2621SOL    HW2 1496   2.313   3.398   3.194
 2622SOL     OW 1497   2.264   2.613   3.460
 2622SOL    HW1 1498   2.332   2.668   3.413
 2622SOL    HW2 1499   2.304   2.525   3.487
 2623SOL     OW 1500   3.449   2.641   3.532
 2623SOL    HW1 1501   3.357   2.679   3.527
 2623SOL    HW2 1502   3.509   2.688   3.467
 2624SOL     OW 1503   2.875   1.967   3.632
 2624SOL    HW1 1504   2.881   2.052   3.580
 2624SOL    HW2 1505   2.907   1.891   3.575
 2625SOL     OW 1506   2.366   1.912   3.602
 2625SOL    HW1 1507   2.324   1.855   3.532
 2625SOL    HW2 1508   2.300   1.981   3.634
 2626SOL     OW 1509   3.222   2.724   2.907
 2626SOL    HW1 1510   3.147   2.724   2.841
 2626SOL    HW2 1511   3.259   2.632   2.916
 2627SOL     OW 1512   3.071   2.387   2.137
 2627SOL    HW1 1513   3.084   2.303   2.191
 2627SOL    HW2 1514   3.042   2.461   2.197
 2628SOL     OW 1515   2.169   2.075   3.093
 2628SOL    HW1 1516   2.146   2.112   3.183
 2628SOL    HW2 1517   2.139   1.980   3.087
 2629SOL     OW 1518   1.899   3.172   3.144
 2629SOL    HW1 1519   1.952   3.123   3.212
 2629SOL    HW2 1520   1.921   3.270   3.149
 2630SOL     OW 1521   3.590   2.797   3.716
 2630SOL    HW1 1522   3.544   2.790   3.627
 2630SOL    HW2 1523   3.528   2.841   3.782
 2631SOL     OW 1524   2.169   1.925   2.480
 2631SOL    HW1 1525   2.158   2.019   2.513
 2631SOL    HW2 1526   2.164   1.862   2.557
 2632SOL     OW 1527   3.484   2.229   2.236
 2632SOL    HW1 1528   3.486   2.153   2.300
 2632SOL    HW2 1529   3.436   2.306   2.276
 2633SOL     OW 1530   2.885   2.628   2.828
 2633SOL    HW1 1531   2.900   2.649   2.924
 2633SOL    HW2 1532   2.855   2.533   2.819
 2634SOL     OW 1533   2.842   3.435   3.562
 2634SOL    HW1 1534   2.822   3.479   3.474
 2634SOL    HW2 1535   2.881   3.344   3.546
 2635SOL     OW 1536   3.721   3.380   3.467
 2635SOL    HW1 1537   3.735   3.407   3.372
 2635SOL    HW2 1538   3.804   3.402   3.520
 2636SOL     OW 1539   2.212   2.760   3.666
 2636SOL    HW1 1540   2.288   2.804   3.714
 2636SOL    HW2 1541   2.247   2.713   3.584
 2637SOL     OW 1542   3.402   2.136   1.987
 2637SOL    HW1 1543   3.341   2.061   2.010
 2637SOL    HW2 1544   3.424   2.188   2.070
 2638SOL     OW 1545   3.165   2.700   1.904
 2638SOL    HW1 1546   3.199   2.607   1.919
 2638SOL    HW2 1547   3.183   2.727   1.809
 2639SOL     OW 1548   2.930   3.195   2.711
 2639SOL    HW1 1549   2.937   3.111   2.656
 2639SOL    HW2 1550   2.992   3.264   2.675
 2640SOL     OW 1551   2.181   2.672   2.811
 2640SOL    HW1 1552   2.274   2.708   2.816
 2640SOL    HW2 1553   2.175   2.587   2.863
 2641SOL     OW 1554   2.201   2.371   2.868
 2641SOL    HW1 1555   2.149   2.288   2.851
 2641SOL    HW2 1556   2.278   2.376   2.804
 2642SOL     OW 1557   3.000   2.242   3.540
 2642SOL    HW1 1558   2.955   2.305   3.604
 2642SOL    HW2 1559   3.093   2.273   3.523
 2643SOL     OW 1560   3.022   2.069   3.339
 2643SOL    HW1 1561   3.022   2.133   3.416
 2643SOL    HW2 1562   3.050   2.117   3.256
 2644SOL     OW 1563   1.870   3.188   2.062
 2644SOL    HW1 1564   1.777   3.209   2.031
 2644SOL    HW2 1565   1.880   3.089   2.075
 2645SOL     OW 1566   1.950   3.663   2.789
 2645SOL    HW1 1567   1.908   3.577   2.762
 2645SOL    HW2 1568   2.044   3.666   2.755
 2646SOL     OW 1569   2.366   3.430   2.772
 2646SOL    HW1 1570   2.432   3.504   2.781
 2646SOL    HW2 1571   2.410   3.351   2.730
 2647SOL     OW 1572   2.864   2.658   3.100
 2647SOL    HW1 1573   2.905   2.626   3.186
 2647SOL    HW2 1574   2.768   2.631   3.097
 2648SOL     OW 1575   1.902   2.406   2.976
 2648SOL    HW1 1576   1.987   2.373   2.935
 2648SOL    HW2 1577   1.915   2.421   3.074
 2649SOL     OW 1578   2.051   2.382   3.584
 2649SOL    HW1 1579   2.110   2.342   3.514
 2649SOL    HW2 1580   1.993   2.453   3.543
 2650SOL     OW 1581   3.231   2.812   3.522
 2650SOL    HW1 1582   3.270   2.901   3.542
 2650SOL    HW2 1583   3.241   2.792   3.425
 2651SOL     OW 1584   2.677   2.434   2.187
 2651SOL    HW1 1585   2.684   2.345   2.141
 2651SOL    HW2 1586   2.583   2.468   2.179
 2652SOL     OW 1587   3.519   2.466   3.068
 2652SOL    HW1 1588   3.481   2.397   3.130
 2652SOL    HW2 1589   3.601   2.430   3.024
 2653SOL     OW 1590   2.114   3.426   3.606
 2653SOL    HW1 1591   2.084   3.483   3.682
 2653SOL    HW2 1592   2.107   3.329   3.632
 2654SOL     OW 1593   2.792   3.540   3.327
 2654SOL    HW1 1594   2.768   3.522   3.232
 2654SOL    HW2 1595   2.822   3.634   3.337
 2655SOL     OW 1596   2.335   2.362   2.053
 2655SOL    HW1 1597   2.396   2.442   2.057
 2655SOL    HW2 1598   2.240   2.393   2.060
 2656SOL     OW 1599   2.021   2.999   3.328
 2656SOL    HW1 1600   2.043   2.938   3.404
 2656SOL    HW2 1601   2.031   2.950   3.242
 2657SOL     OW 1602   3.209   2.921   3.096
 2657SOL    HW1 1603   3.233   2.858   3.022
 2657SOL    HW2 1604   3.119   2.961   3.078
 2658SOL     OW 1605   3.164   2.717   2.171
 2658SOL    HW1 1606   3.078   2.686   2.213
 2658SOL    HW2 1607   3.160   2.703   2.072
 2659SOL     OW 1608   3.621   3.609   3.016
 2659SOL    HW1 1609   3.682   3.639   2.943
 2659SOL    HW2 1610   3.583   3.520   2.994
 2660SOL     OW 1611   3.114   3.593   2.990
 2660SOL    HW1 1612   3.198   3.598   2.936
 2660SOL    HW2 1613   3.091   3.497   3.008
 2661SOL     OW 1614   1.945   3.120   2.884
 2661SOL    HW1 1615   1.940   3.119   2.984
 2661SOL    HW2 1616   1.862   3.079   2.846
 2662SOL     OW 1617   2.550   3.524   3.578
 2662SOL    HW1 1618   2.494   3.605   3.587
 2662SOL    HW2 1619   2.602   3.528   3.492
 2663SOL     OW 1620   3.588   1.997   2.385
 2663SOL    HW1 1621   3.661   1.980   2.318
 2663SOL    HW2 1622   3.557   1.910   2.423
 2664SOL     OW 1623   3.250   3.435   2.339
 2664SOL    HW1 1624   3.317   3.447   2.265
 2664SOL    HW2 1625   3.210   3.524   2.362
 2665SOL     OW 1626   1.992   3.656   3.713
 2665SOL    HW1 1627   1.951   3.582   3.766
 2665SOL    HW2 1628   2.056   3.707   3.771
 2666SOL     OW 1629   3.142   2.789   2.534
 2666SOL    HW1 1630   3.202   2.708   2.536
 2666SOL    HW2 1631   3.182   2.858   2.474
 2667SOL     OW 1632   2.692   3.135   3.284
 2667SOL    HW1 1633   2.687   3.168   3.379
 2667SOL    HW2 1634   2.606   3.154   3.238
 2668SOL     OW 1635   2.534   3.478   2.016
 2668SOL    HW1 1636   2.543   3.488   1.917
 2668SOL    HW2 1637   2.494   3.389   2.037
 2669SOL     OW 1638   3.512   3.582   3.256
 2669SOL    HW1 1639   3.565   3.592   3.172
 2669SOL    HW2 1640   3.485   3.672   3.290
 2670SOL     OW 1641   3.703   2.037   2.825
 2670SOL    HW1 1642   3.742   1.952   2.789
 2670SOL    HW2 1643   3.605   2.039   2.806
 2671SOL     OW 1644   2.125   2.188   2.582
 2671SOL    HW1 1645   2.046   2.239   2.548
 2671SOL    HW2 1646   2.116   2.173   2.680
 2672SOL     OW 1647   3.056   3.474   1.893
 2672SOL    HW1 1648   3.062   3.381   1.930
 2672SOL    HW2 1649   2.997   3.474   1.813
 2673SOL     OW 1650   2.684   2.864   3.234
 2673SOL    HW1 1651   2.724   2.863   3.142
 2673SOL    HW2 1652   2.694   2.956   3.274
 2674SOL     OW 1653   3.366   3.469   1.906
 2674SOL    HW1 1654   3.274   3.506   1.913
 2674SOL    HW2 1655   3.404   3.489   1.816
 2675SOL     OW 1656   2.234   3.150   3.352
 2675SOL    HW1 1657   2.221   3.243   3.318
 2675SOL    HW2 1658   2.150   3.098   3.339
 2676SOL     OW 1659   3.476   3.154   3.151
 2676SOL    HW1 1660   3.536   3.157   3.231
 2676SOL    HW2 1661   3.401   3.218   3.164
 2677SOL     OW 1662   2.901   2.960   2.558
 2677SOL    HW1 1663   2.831   2.913   2.612
 2677SOL    HW2 1664   2.960   2.892   2.515
 2678SOL     OW 1665   2.876   2.098   2.833
 2678SOL    HW1 1666   2.868   2.062   2.740
 2678SOL    HW2 1667   2.874   2.022   2.898
 2679SOL     OW 1668   2.452   3.349   2.353
 2679SOL    HW1 1669   2.494   3.291   2.283
 2679SOL    HW2 1670   2.408   3.428   2.309
 2680SOL     OW 1671   3.571   2.247   3.243
 2680SOL    HW1 1672   3.644   2.316   3.247
 2680SOL    HW2 1673   3.599   2.172   3.184
 2681SOL     OW 1674   2.117   3.210   2.152
 2681SOL    HW1 1675   2.021   3.211   2.125
 2681SOL    HW2 1676   2.129   3.263   2.236
 2682SOL     OW 1677   1.967   2.875   3.588
 2682SOL    HW1 1678   1.890   2.842   3.642
 2682SOL    HW2 1679   2.052   2.845   3.630
 2683SOL     OW 1680   2.534   2.065   3.351
 2683SOL    HW1 1681   2.624   2.049   3.311
 2683SOL    HW2 1682   2.542   2.070   3.450
 2684SOL     OW 1683   1.937   2.207   1.895
 2684SOL    HW1 1684   1.845   2.179   1.866
 2684SOL    HW2 1685   1.968   2.284   1.839
 2685SOL     OW 1686   3.302   2.718   3.260
 2685SOL    HW1 1687   3.245   2.770   3.197
 2685SOL    HW2 1688   3.398   2.730   3.236
 2686SOL     OW 1689   1.934   2.028   2.180
 2686SOL    HW1 1690   1.917   2.111   2.126
 2686SOL    HW2 1691   2.024   1.991   2.158
 2687SOL     OW 1692   3.045   3.197   1.981
 2687SOL    HW1 1693   2.946   3.186   1.983
 2687SOL    HW2 1694   3.079   3.212   2.074
 2688SOL     OW 1695   2.475   2.704   3.293
 2688SOL    HW1 1696   2.531   2.785   3.276
 2688SOL    HW2 1697   2.534   2.624   3.296
 2689SOL     OW 1698   3.355   3.629   2.821
 2689SOL    HW1 1699   3.388   3.693   2.752
 2689SOL    HW2 1700   3.421   3.623   2.896
 2690SOL     OW 1701   2.578   2.427   3.570
 2690SOL    HW1 1702   2.597   2.492   3.644
 2690SOL    HW2 1703   2.638   2.347   3.579
 2691SOL     OW 1704   3.312   3.082   3.495
 2691SOL    HW1 1705   3.303   3.072   3.594
 2691SOL    HW2 1706   3.408   3.075   3.469
 2692SOL     OW 1707   2.252   3.603   3.422
 2692SOL    HW1 1708   2.161   3.644   3.420
 2692SOL    HW2 1709   2.245   3.509   3.454
 2693SOL     OW 1710   3.536   2.745   3.116
 2693SOL    HW1 1711   3.509   2.656   3.079
 2693SOL    HW2 1712   3.537   2.813   3.043
 2694SOL     OW 1713   3.087   2.187   2.311
 2694SOL    HW1 1714   3.152   2.113   2.300
 2694SOL    HW2 1715   3.107   2.237   2.395
 2695SOL     OW 1716   3.639   2.204   3.504
 2695SOL    HW1 1717   3.622   2.235   3.410
 2695SOL    HW2 1718   3.555   2.167   3.542
 2696SOL     OW 1719   3.592   2.796   3.379
 2696SOL    HW1 1720   3.630   2.887   3.394
 2696SOL    HW2 1721   3.584   2.779   3.280
 2697SOL     OW 1722   2.721   3.236   1.878
 2697SOL    HW1 1723   2.675   3.251   1.966
 2697SOL    HW2 1724   2.765   3.321   1.848
 2698SOL     OW 1725   2.523   3.652   2.815
 2698SOL    HW1 1726   2.477   3.740   2.802
 2698SOL    HW2 1727   2.622   3.664   2.808
 2699SOL     OW 1728   2.721   2.818   2.723
 2699SOL    HW1 1729   2.775   2.749   2.771
 2699SOL    HW2 1730   2.689   2.887   2.789
 2700SOL     OW 1731   3.723   3.431   2.713
 2700SOL    HW1 1732   3.652   3.419   2.643
 2700SOL    HW2 1733   3.724   3.352   2.773
 2701SOL     OW 1734   2.083   3.176   3.706
 2701SOL    HW1 1735   2.018   3.103   3.685
 2701SOL    HW2 1736   2.087   3.190   3.804
 2702SOL     OW 1737   1.941   3.102   2.515
 2702SOL    HW1 1738   1.940   3.055   2.603
 2702SOL    HW2 1739   2.023   3.074   2.464
 2703SOL     OW 1740   2.534   3.253   3.486
 2703SOL    HW1 1741   2.456   3.203   3.524
 2703SOL    HW2 1742   2.531   3.348   3.517
 2704SOL     OW 1743   3.686   2.054   3.089
 2704SOL    HW1 1744   3.682   1.964   3.133
 2704SOL    HW2 1745   3.689   2.043   2.990
 2705SOL     OW 1746   2.290   2.286   2.382
 2705SOL    HW1 1747   2.320   2.214   2.320
 2705SOL    HW2 1748   2.251   2.246   2.465
 2706SOL     OW 1749   3.567   3.349   2.966
 2706SOL    HW1 1750   3.474   3.324   2.939
 2706SOL    HW2 1751   3.593   3.299   3.048
 2707SOL     OW 1752   2.179   2.409   3.142
 2707SOL    HW1 1753   2.217   2.350   3.214
 2707SOL    HW2 1754   2.219   2.383   3.054
 2708SOL     OW 1755   2.674   3.448   2.549
 2708SOL    HW1 1756   2.706   3.458   2.455
 2708SOL    HW2 1757   2.595   3.386   2.551
 2709SOL     OW 1758   3.286   2.076   2.974
 2709SOL    HW1 1759   3.338   2.011   3.029
 2709SOL    HW2 1760   3.237   2.139   3.035
 2710SOL     OW 1761   2.863   1.896   3.016
 2710SOL    HW1 1762   2.800   1.824   2.985
 2710SOL    HW2 1763   2.956   1.860   3.016
 2711SOL     OW 1764   2.632   3.192   2.163
 2711SOL    HW1 1765   2.586   3.105   2.180
 2711SOL    HW2 1766   2.723   3.189   2.204
 2712SOL     OW 1767   2.480   3.429   3.146
 2712SOL    HW1 1768   2.475   3.511   3.203
 2712SOL    HW2 1769   2.569   3.426   3.101
 2713SOL     OW 1770   3.214   1.914   2.030
 2713SOL    HW1 1771   3.249   1.873   1.946
 2713SOL    HW2 1772   3.124   1.876   2.050
 2714SOL     OW 1773   3.162   2.315   2.553
 2714SOL    HW1 1774   3.103   2.395   2.557
 2714SOL    HW2 1775   3.177   2.280   2.646
 2715SOL     OW 1776   3.455   2.083   2.744
 2715SOL    HW1 1777   3.371   2.082   2.798
 2715SOL    HW2 1778   3.457   2.166   2.688
 2716SOL     OW 1779   1.901   2.939   2.162
 2716SOL    HW1 1780   2.000   2.928   2.153
 2716SOL    HW2 1781   1.861   2.853   2.194
 2717SOL     OW 1782   2.737   3.508   2.199
 2717SOL    HW1 1783   2.660   3.473   2.145
 2717SOL    HW2 1784   2.705   3.579   2.261
 2718SOL     OW 1785   2.092   2.490   3.837
 2718SOL    HW1 1786   1.999   2.488   3.874
 2718SOL    HW2 1787   2.093   2.451   3.745
 2724SOL     OW 1788   3.617   2.469   3.955
 2724SOL    HW1 1789   3.605   2.456   3.856
 2724SOL    HW2 1790   3.587   2.388   4.004
 2726SOL     OW 1791   2.547   2.874   4.389
 2726SOL    HW1 1792   2.616   2.858   4.459
 2726SOL    HW2 1793   2.474   2.931   4.427
 2735SOL     OW 1794   2.468   2.826   3.847
 2735SOL    HW1 1795   2.475   2.910   3.793
 2735SOL    HW2 1796   2.514   2.839   3.935
 2737SOL     OW 1797   1.984   2.505   4.287
 2737SOL    HW1 1798   1.939   2.417   4.304
 2737SOL    HW2 1799   1.983   2.559   4.371
 2739SOL     OW 1800   1.889   3.458   3.841
 2739SOL    HW1 1801   1.870   3.362   3.862
 2739SOL    HW2 1802   1.856   3.516   3.916
 2741SOL     OW 1803   3.503   2.970   4.156
 2741SOL    HW1 1804   3.589   2.972   4.104
 2741SOL    HW2 1805   3.517   3.017   4.244
 2743SOL     OW 1806   2.671   1.866   4.226
 2743SOL    HW1 1807   2.711   1.957   4.217
 2743SOL    HW2 1808   2.571   1.874   4.232
 2745SOL     OW 1809   3.387   2.861   3.914
 2745SOL    HW1 1810   3.324   2.785   3.927
 2745SOL    HW2 1811   3.435   2.879   4.000
 2749SOL     OW 1812   2.460   2.591   3.994
 2749SOL    HW1 1813   2.484   2.660   3.926
 2749SOL    HW2 1814   2.382   2.624   4.048
 2754SOL     OW 1815   2.903   2.563   4.153
 2754SOL    HW1 1816   2.929   2.559   4.249
 2754SOL    HW2 1817   2.818   2.512   4.139
 2757SOL     OW 1818   2.727   2.210   3.919
 2757SOL    HW1 1819   2.786   2.273   3.870
 2757SOL    HW2 1820   2.746   2.116   3.890
 2758SOL     OW 1821   3.224   3.006   4.269
 2758SOL    HW1 1822   3.307   2.977   4.221
 2758SOL    HW2 1823   3.175   3.073   4.213
 2760SOL     OW 1824   2.870   3.318   4.201
 2760SOL    HW1 1825   2.824   3.390   4.149
 2760SOL    HW2 1826   2.866   3.338   4.299
 2763SOL     OW 1827   2.183   2.805   3.966
 2763SOL    HW1 1828   2.265   2.844   3.924
 2763SOL    HW2 1829   2.156   2.723   3.917
 2765SOL     OW 1830   2.973   3.638   3.961
 2765SOL    HW1 1831   2.913   3.576   4.011
 2765SOL    HW2 1832   3.004   3.594   3.876
 2766SOL     OW 1833   3.494   3.239   3.805
 2766SOL    HW1 1834   3.462   3.333   3.795
 2766SOL    HW2 1835   3.418   3.176   3.793
 2767SOL     OW 1836   2.326   3.605   4.047
 2767SOL    HW1 1837   2.359   3.644   4.133
 2767SOL    HW2 1838   2.402   3.598   3.982
 2768SOL     OW 1839   3.262   1.969   4.150
 2768SOL    HW1 1840   3.238   1.932   4.060
 2768SOL    HW2 1841   3.361   1.985   4.154
 2771SOL     OW 1842   2.244   2.562   4.204
 2771SOL    HW1 1843   2.289   2.472   4.201
 2771SOL    HW2 1844   2.150   2.551   4.237
 2772SOL     OW 1845   2.476   1.984   3.841
 2772SOL    HW1 1846   2.574   1.962   3.848
 2772SOL    HW2 1847   2.445   1.967   3.748
 2776SOL     OW 1848   2.401   1.926   4.236
 2776SOL    HW1 1849   2.320   1.927   4.294
 2776SOL    HW2 1850   2.404   2.009   4.181
 2777SOL     OW 1851   3.296   3.050   3.765
 2777SOL    HW1 1852   3.328   2.974   3.822
 2777SOL    HW2 1853   3.204   3.077   3.795
 2778SOL     OW 1854   2.159   1.897   3.895
 2778SOL    HW1 1855   2.208   1.981   3.874
 2778SOL    HW2 1856   2.221   1.832   3.940
 2779SOL     OW 1857   2.797   2.098   4.204
 2779SOL    HW1 1858   2.749   2.139   4.126
 2779SOL    HW2 1859   2.896   2.096   4.185
 2783SOL     OW 1860   2.894   2.411   3.740
 2783SOL    HW1 1861   2.853   2.493   3.701
 2783SOL    HW2 1862   2.958   2.437   3.813
 2786SOL     OW 1863   2.728   2.316   4.366
 2786SOL    HW1 1864   2.696   2.388   4.304
 2786SOL    HW2 1865   2.752   2.235   4.313
 2791SOL     OW 1866   2.350   3.247   3.898
 2791SOL    HW1 1867   2.263   3.232   3.945
 2791SOL    HW2 1868   2.333   3.273   3.803
 2793SOL     OW 1869   3.252   2.437   3.802
 2793SOL    HW1 1870   3.198   2.416   3.883
 2793SOL    HW2 1871   3.343   2.396   3.811
 2794SOL     OW 1872   2.389   2.118   4.052
 2794SOL    HW1 1873   2.416   2.059   3.977
 2794SOL    HW2 1874   2.389   2.213   4.021
 2799SOL     OW 1875   2.567   2.912   4.092
 2799SOL    HW1 1876   2.553   2.919   4.191
 2799SOL    HW2 1877   2.651   2.861   4.074
 2803SOL     OW 1878   2.229   2.962   4.225
 2803SOL    HW1 1879   2.222   3.045   4.169
 2803SOL    HW2 1880   2.233   2.882   4.165
 2805SOL     OW 1881   3.114   3.210   4.112
 2805SOL    HW1 1882   3.164   3.287   4.152
 2805SOL    HW2 1883   3.019   3.212   4.144
 2807SOL     OW 1884   3.444   2.501   4.196
 2807SOL    HW1 1885   3.413   2.562   4.269
 2807SOL    HW2 1886   3.494   2.553   4.127
 2813SOL     OW 1887   3.071   2.387   3.999
 2813SOL    HW1 1888   3.084   2.303   4.053
 2813SOL    HW2 1889   3.042   2.461   4.059
 2818SOL     OW 1890   3.484   2.229   4.098
 2818SOL    HW1 1891   3.486   2.153   4.162
 2818SOL    HW2 1892   3.436   2.306   4.138
 2821SOL     OW 1893   3.402   2.136   3.849
 2821SOL    HW1 1894   3.341   2.061   3.872
 2821SOL    HW2 1895   3.424   2.188   3.932
 2822SOL     OW 1896   3.165   2.700   3.766
 2822SOL    HW1 1897   3.199   2.607   3.781
 2822SOL    HW2 1898   3.183   2.727   3.671
 2828SOL     OW 1899   1.870   3.188   3.924
 2828SOL    HW1 1900   1.777   3.209   3.893
 2828SOL    HW2 1901   1.880   3.089   3.937
 2833SOL     OW 1902   2.677   2.434   4.049
 2833SOL    HW1 1903   2.684   2.345   4.003
 2833SOL    HW2 1904   2.583   2.468   4.041
 2837SOL     OW 1905   2.335   2.362   3.915
 2837SOL    HW1 1906   2.396   2.442   3.919
 2837SOL    HW2 1907   2.240   2.393   3.922
 2840SOL     OW 1908   3.164   2.717   4.033
 2840SOL    HW1 1909   3.078   2.686   4.075
 2840SOL    HW2 1910   3.160   2.703   3.934
 2847SOL     OW 1911   2.534   3.478   3.878
 2847SOL    HW1 1912   2.543   3.488   3.779
 2847SOL    HW2 1913   2.494   3.389   3.899
 2851SOL     OW 1914   3.056   3.474   3.755
 2851SOL    HW1 1915   3.062   3.381   3.792
 2851SOL    HW2 1916   2.997   3.474   3.675
 2853SOL     OW 1917   2.778   2.772   4.015
 2853SOL    HW1 1918   2.841   2.810   3.947
 2853SOL    HW2 1919   2.818   2.689   4.054
 2854SOL     OW 1920   3.366   3.469   3.768
 2854SOL    HW1 1921   3.274   3.506   3.775
 2854SOL    HW2 1922   3.404   3.489   3.678
 2859SOL     OW 1923   2.452   3.349   4.215
 2859SOL    HW1 1924   2.494   3.291   4.145
 2859SOL    HW2 1925   2.408   3.428   4.171
 2861SOL     OW 1926   2.117   3.210   4.014
 2861SOL    HW1 1927   2.021   3.211   3.987
 2861SOL    HW2 1928   2.129   3.263   4.098
 2862SOL     OW 1929   1.937   2.207   3.757
 2862SOL    HW1 1930   1.845   2.179   3.728
 2862SOL    HW2 1931   1.968   2.284   3.701
 2863SOL     OW 1932   1.934   2.028   4.042
 2863SOL    HW1 1933   1.917   2.111   3.988
 2863SOL    HW2 1934   2.024   1.991   4.020
 2864SOL     OW 1935   3.045   3.197   3.843
 2864SOL    HW1 1936   2.946   3.186   3.845
 2864SOL    HW2 1937   3.079   3.212   3.936
 2869SOL     OW 1938   3.087   2.187   4.173
 2869SOL    HW1 1939   3.152   2.113   4.162
 2869SOL    HW2 1940   3.107   2.237   4.257
 2870SOL     OW 1941   2.456   2.607   4.376
 2870SOL    HW1 1942   2.506   2.692   4.357
 2870SOL    HW2 1943   2.368   2.609   4.328
 2872SOL     OW 1944   2.721   3.236   3.740
 2872SOL    HW1 1945   2.675   3.251   3.828
 2872SOL    HW2 1946   2.765   3.321   3.710
 2875SOL     OW 1947   2.945   2.846   3.811
 2875SOL    HW1 1948   2.922   2.899   3.729
 2875SOL    HW2 1949   3.026   2.790   3.792
 2879SOL     OW 1950   2.290   2.286   4.244
 2879SOL    HW1 1951   2.320   2.214   4.182
 2879SOL    HW2 1952   2.251   2.246   4.327
 2885SOL     OW 1953   2.632   3.192   4.025
 2885SOL    HW1 1954   2.586   3.105   4.042
 2885SOL    HW2 1955   2.723   3.189   4.066
 2887SOL     OW 1956   3.214   1.914   3.892
 2887SOL    HW1 1957   3.249   1.873   3.808
 2887SOL    HW2 1958   3.124   1.876   3.912
 2890SOL     OW 1959   1.901   2.939   4.024
 2890SOL    HW1 1960   2.000   2.928   4.015
 2890SOL    HW2 1961   1.861   2.853   4.056
 2891SOL     OW 1962   2.737   3.508   4.061
 2891SOL    HW1 1963   2.660   3.473   4.007
 2891SOL    HW2 1964   2.705   3.579   4.123
 2922SOL     OW 1965   2.179   3.975   1.801
 2922SOL    HW1 1966   2.250   4.046   1.807
 2922SOL    HW2 1967   2.091   4.014   1.829
 2947SOL     OW 1968   3.409   3.946   1.729
 2947SOL    HW1 1969   3.404   3.983   1.821
 2947SOL    HW2 1970   3.337   3.877   1.717
 2949SOL     OW 1971   2.643   3.988   1.749
 2949SOL    HW1 1972   2.710   3.927   1.792
 2949SOL    HW2 1973   2.570   4.007   1.814
 2976SOL     OW 1974   2.777   3.813   1.402
 2976SOL    HW1 1975   2.802   3.793   1.307
 2976SOL    HW2 1976   2.849   3.869   1.444
 2989SOL     OW 1977   2.875   3.829   1.770
 2989SOL    HW1 1978   2.881   3.914   1.718
 2989SOL    HW2 1979   2.907   3.753   1.713
 2990SOL     OW 1980   2.366   3.774   1.740
 2990SOL    HW1 1981   2.324   3.717   1.670
 2990SOL    HW2 1982   2.300   3.843   1.772
 3008SOL     OW 1983   3.000   4.104   1.678
 3008SOL    HW1 1984   2.955   4.167   1.742
 3008SOL    HW2 1985   3.093   4.135   1.661
 3009SOL     OW 1986   3.022   3.931   1.477
 3009SOL    HW1 1987   3.022   3.995   1.554
 3009SOL    HW2 1988   3.050   3.979   1.394
 3039SOL     OW 1989   2.534   3.927   1.489
 3039SOL    HW1 1990   2.624   3.911   1.449
 3039SOL    HW2 1991   2.542   3.932   1.588
 3069SOL     OW 1992   2.087   3.999   2.858
 3069SOL    HW1 1993   2.122   3.982   2.950
 3069SOL    HW2 1994   1.999   3.954   2.846
 3070SOL     OW 1995   1.881   4.092   2.509
 3070SOL    HW1 1996   1.799   4.135   2.548
 3070SOL    HW2 1997   1.853   4.019   2.446
 3081SOL     OW 1998   2.300   4.116   3.361
 3081SOL    HW1 1999   2.382   4.060   3.370
 3081SOL    HW2 2000   2.219   4.058   3.365
 3082SOL     OW 2001   3.465   4.171   2.599
 3082SOL    HW1 2002   3.391   4.217   2.549
 3082SOL    HW2 2003   3.516   4.239   2.652
 3087SOL     OW 2004   3.456   3.838   3.342
 3087SOL    HW1 2005   3.438   3.905   3.270
 3087SOL    HW2 2006   3.453   3.884   3.431
 3095SOL     OW 2007   2.671   3.728   2.364
 3095SOL    HW1 2008   2.711   3.819   2.355
 3095SOL    HW2 2009   2.571   3.736   2.370
 3098SOL     OW 2010   2.179   3.975   3.663
 3098SOL    HW1 2011   2.250   4.046   3.669
 3098SOL    HW2 2012   2.091   4.014   3.691
 3101SOL     OW 2013   3.143   4.069   2.806
 3101SOL    HW1 2014   3.057   4.019   2.793
 3101SOL    HW2 2015   3.205   4.015   2.862
 3105SOL     OW 2016   2.853   4.134   3.104
 3105SOL    HW1 2017   2.776   4.168   3.158
 3105SOL    HW2 2018   2.819   4.083   3.025
 3108SOL     OW 2019   2.727   4.072   2.057
 3108SOL    HW1 2020   2.786   4.135   2.008
 3108SOL    HW2 2021   2.746   3.978   2.028
 3111SOL     OW 2022   2.412   3.920   2.747
 3111SOL    HW1 2023   2.407   3.915   2.847
 3111SOL    HW2 2024   2.414   4.016   2.718
 3119SOL     OW 2025   2.064   4.009   3.360
 3119SOL    HW1 2026   1.984   4.069   3.347
 3119SOL    HW2 2027   2.054   3.960   3.446
 3121SOL     OW 2028   3.262   3.831   2.288
 3121SOL    HW1 2029   3.238   3.794   2.198
 3121SOL    HW2 2030   3.361   3.847   2.292
 3123SOL     OW 2031   3.409   3.946   3.591
 3123SOL    HW1 2032   3.404   3.983   3.683
 3123SOL    HW2 2033   3.337   3.877   3.579
 3124SOL     OW 2034   2.476   3.846   1.979
 3124SOL    HW1 2035   2.574   3.824   1.986
 3124SOL    HW2 2036   2.445   3.829   1.886
 3125SOL     OW 2037   2.643   3.988   3.611
 3125SOL    HW1 2038   2.710   3.927   3.654
 3125SOL    HW2 2039   2.570   4.007   3.676
 3128SOL     OW 2040   2.784   4.227   2.761
 3128SOL    HW1 2041   2.759   4.218   2.665
 3128SOL    HW2 2042   2.832   4.145   2.792
 3129SOL     OW 2043   2.401   3.788   2.374
 3129SOL    HW1 2044   2.320   3.789   2.432
 3129SOL    HW2 2045   2.404   3.871   2.319
 3131SOL     OW 2046   2.159   3.759   2.033
 3131SOL    HW1 2047   2.208   3.843   2.012
 3131SOL    HW2 2048   2.221   3.694   2.078
 3132SOL     OW 2049   2.797   3.960   2.342
 3132SOL    HW1 2050   2.749   4.001   2.264
 3132SOL    HW2 2051   2.896   3.958   2.323
 3138SOL     OW 2052   2.423   3.946   3.009
 3138SOL    HW1 2053   2.461   3.862   3.046
 3138SOL    HW2 2054   2.335   3.965   3.053
 3139SOL     OW 2055   2.728   4.178   2.504
 3139SOL    HW1 2056   2.696   4.250   2.442
 3139SOL    HW2 2057   2.752   4.097   2.451
 3140SOL     OW 2058   2.879   3.763   2.615
 3140SOL    HW1 2059   2.807   3.768   2.546
 3140SOL    HW2 2060   2.855   3.694   2.684
 3147SOL     OW 2061   2.389   3.980   2.190
 3147SOL    HW1 2062   2.416   3.921   2.115
 3147SOL    HW2 2063   2.389   4.075   2.159
 3152SOL     OW 2064   2.777   3.813   3.264
 3152SOL    HW1 2065   2.802   3.793   3.169
 3152SOL    HW2 2066   2.849   3.869   3.306
 3156SOL     OW 2067   3.136   4.110   3.124
 3156SOL    HW1 2068   3.157   4.184   3.188
 3156SOL    HW2 2069   3.047   4.127   3.081
 3158SOL     OW 2070   2.428   4.261   2.727
 3158SOL    HW1 2071   2.440   4.327   2.653
 3158SOL    HW2 2072   2.474   4.295   2.810
 3165SOL     OW 2073   2.875   3.829   3.632
 3165SOL    HW1 2074   2.881   3.914   3.580
 3165SOL    HW2 2075   2.907   3.753   3.575
 3166SOL     OW 2076   2.366   3.774   3.602
 3166SOL    HW1 2077   2.324   3.717   3.532
 3166SOL    HW2 2078   2.300   3.843   3.634
 3169SOL     OW 2079   3.071   4.249   2.137
 3169SOL    HW1 2080   3.084   4.165   2.191
 3169SOL    HW2 2081   3.042   4.323   2.197
 3170SOL     OW 2082   2.169   3.937   3.093
 3170SOL    HW1 2083   2.146   3.974   3.183
 3170SOL    HW2 2084   2.139   3.842   3.087
 3172SOL     OW 2085   2.594   4.358   2.926
 3172SOL    HW1 2086   2.653   4.332   2.850
 3172SOL    HW2 2087   2.566   4.454   2.915
 3174SOL     OW 2088   2.169   3.787   2.480
 3174SOL    HW1 2089   2.158   3.881   2.513
 3174SOL    HW2 2090   2.164   3.724   2.557
 3175SOL     OW 2091   3.484   4.091   2.236
 3175SOL    HW1 2092   3.486   4.015   2.300
 3175SOL    HW2 2093   3.436   4.168   2.276
 3179SOL     OW 2094   3.402   3.998   1.987
 3179SOL    HW1 2095   3.341   3.923   2.010
 3179SOL    HW2 2096   3.424   4.050   2.070
 3183SOL     OW 2097   2.201   4.233   2.868
 3183SOL    HW1 2098   2.149   4.150   2.851
 3183SOL    HW2 2099   2.278   4.238   2.804
 3184SOL     OW 2100   3.000   4.104   3.540
 3184SOL    HW1 2101   2.955   4.167   3.604
 3184SOL    HW2 2102   3.093   4.135   3.523
 3185SOL     OW 2103   3.022   3.931   3.339
 3185SOL    HW1 2104   3.022   3.995   3.416
 3185SOL    HW2 2105   3.050   3.979   3.256
 3191SOL     OW 2106   2.677   4.296   2.187
 3191SOL    HW1 2107   2.684   4.207   2.141
 3191SOL    HW2 2108   2.583   4.330   2.179
 3194SOL     OW 2109   2.533   4.188   3.131
 3194SOL    HW1 2110   2.499   4.099   3.101
 3194SOL    HW2 2111   2.559   4.242   3.051
 3195SOL     OW 2112   2.335   4.224   2.053
 3195SOL    HW1 2113   2.396   4.304   2.057
 3195SOL    HW2 2114   2.240   4.255   2.060
 3200SOL     OW 2115   3.588   3.859   2.385
 3200SOL    HW1 2116   3.661   3.842   2.318
 3200SOL    HW2 2117   3.557   3.772   2.423
 3203SOL     OW 2118   3.703   3.899   2.825
 3203SOL    HW1 2119   3.742   3.814   2.789
 3203SOL    HW2 2120   3.605   3.901   2.806
 3204SOL     OW 2121   2.125   4.050   2.582
 3204SOL    HW1 2122   2.046   4.101   2.548
 3204SOL    HW2 2123   2.116   4.035   2.680
 3210SOL     OW 2124   2.876   3.960   2.833
 3210SOL    HW1 2125   2.868   3.924   2.740
 3210SOL    HW2 2126   2.874   3.884   2.898
 3214SOL     OW 2127   2.534   3.927   3.351
 3214SOL    HW1 2128   2.624   3.911   3.311
 3214SOL    HW2 2129   2.542   3.932   3.450
 3215SOL     OW 2130   1.937   4.069   1.895
 3215SOL    HW1 2131   1.845   4.041   1.866
 3215SOL    HW2 2132   1.968   4.146   1.839
 3217SOL     OW 2133   1.934   3.890   2.180
 3217SOL    HW1 2134   1.917   3.973   2.126
 3217SOL    HW2 2135   2.024   3.853   2.158
 3223SOL     OW 2136   3.087   4.049   2.311
 3223SOL    HW1 2137   3.152   3.975   2.300
 3223SOL    HW2 2138   3.107   4.099   2.395
 3233SOL     OW 2139   3.686   3.916   3.089
 3233SOL    HW1 2140   3.682   3.826   3.133
 3233SOL    HW2 2141   3.689   3.905   2.990
 3234SOL     OW 2142   2.290   4.148   2.382
 3234SOL    HW1 2143   2.320   4.076   2.320
 3234SOL    HW2 2144   2.251   4.108   2.465
 3236SOL     OW 2145   2.179   4.271   3.142
 3236SOL    HW1 2146   2.217   4.212   3.214
 3236SOL    HW2 2147   2.219   4.245   3.054
 3237SOL     OW 2148   3.286   3.938   2.974
 3237SOL    HW1 2149   3.338   3.873   3.029
 3237SOL    HW2 2150   3.237   4.001   3.035
 3238SOL     OW 2151   2.863   3.758   3.016
 3238SOL    HW1 2152   2.800   3.686   2.985
 3238SOL    HW2 2153   2.956   3.722   3.016
 3240SOL     OW 2154   3.214   3.776   2.030
 3240SOL    HW1 2155   3.249   3.735   1.946
 3240SOL    HW2 2156   3.124   3.738   2.050
 3241SOL     OW 2157   3.162   4.177   2.553
 3241SOL    HW1 2158   3.103   4.257   2.557
 3241SOL    HW2 2159   3.177   4.142   2.646
 3242SOL     OW 2160   3.455   3.945   2.744
 3242SOL    HW1 2161   3.371   3.944   2.798
 3242SOL    HW2 2162   3.457   4.028   2.688
 3290SOL     OW 2163   2.476   3.846   3.841
 3290SOL    HW1 2164   2.574   3.824   3.848
 3290SOL    HW2 2165   2.445   3.829   3.748
 3295SOL     OW 2166   2.159   3.759   3.895
 3295SOL    HW1 2167   2.208   3.843   3.874
 3295SOL    HW2 2168   2.221   3.694   3.940
 3385SOL     OW 2169   3.214   3.776   3.892
 3385SOL    HW1 2170   3.249   3.735   3.808
 3385SOL    HW2 2171   3.124   3.738   3.912
 3519SOL     OW 2172   3.854   1.794   1.851
 3519SOL    HW1 2173   3.813   1.720   1.904
 3519SOL    HW2 2174   3.918   1.845   1.909
 3574SOL     OW 2175   3.955   1.713   2.345
 3574SOL    HW1 2176   3.989   1.790   2.399
 3574SOL    HW2 2177   3.999   1.713   2.255
 3576SOL     OW 2178   3.954   1.434   2.400
 3576SOL    HW1 2179   3.928   1.530   2.400
 3576SOL    HW2 2180   3.883   1.380   2.445
 3582SOL     OW 2181   3.751   1.596   1.979
 3582SOL    HW1 2182   3.732   1.500   2.000
 3582SOL    HW2 2183   3.718   1.654   2.054
 3600SOL     OW 2184   3.854   1.821   3.433
 3600SOL    HW1 2185   3.844   1.806   3.532
 3600SOL    HW2 2186   3.768   1.857   3.397
 3605SOL     OW 2187   4.075   1.801   2.715
 3605SOL    HW1 2188   4.125   1.715   2.721
 3605SOL    HW2 2189   4.140   1.878   2.712
 3613SOL     OW 2190   3.973   1.785   3.103
 3613SOL    HW1 2191   4.030   1.720   3.153
 3613SOL    HW2 2192   3.957   1.752   3.010
 3646SOL     OW 2193   3.788   1.564   3.193
 3646SOL    HW1 2194   3.742   1.646   3.159
 3646SOL    HW2 2195   3.886   1.583   3.202
 3673SOL     OW 2196   3.812   1.801   2.789
 3673SOL    HW1 2197   3.770   1.715   2.762
 3673SOL    HW2 2198   3.906   1.804   2.755
 3899SOL     OW 2199   3.837   2.599   1.597
 3899SOL    HW1 2200   3.925   2.586   1.642
 3899SOL    HW2 2201   3.824   2.696   1.575
 3905SOL     OW 2202   4.041   2.113   1.801
 3905SOL    HW1 2203   4.112   2.184   1.807
 3905SOL    HW2 2204   3.953   2.152   1.829
 3925SOL     OW 2205   3.926   2.147   1.498
 3925SOL    HW1 2206   3.846   2.207   1.485
 3925SOL    HW2 2207   3.916   2.098   1.584
 3946SOL     OW 2208   3.802   2.418   1.386
 3946SOL    HW1 2209   3.894   2.417   1.345
 3946SOL    HW2 2210   3.796   2.492   1.453
 3980SOL     OW 2211   4.074   2.760   1.804
 3980SOL    HW1 2212   4.150   2.804   1.852
 3980SOL    HW2 2213   4.109   2.713   1.722
 3992SOL     OW 2214   3.913   2.382   1.722
 3992SOL    HW1 2215   3.972   2.342   1.652
 3992SOL    HW2 2216   3.855   2.453   1.681
 3995SOL     OW 2217   3.976   3.426   1.744
 3995SOL    HW1 2218   3.946   3.483   1.820
 3995SOL    HW2 2219   3.969   3.329   1.770
 3999SOL     OW 2220   3.883   2.999   1.466
 3999SOL    HW1 2221   3.905   2.938   1.542
 3999SOL    HW2 2222   3.893   2.950   1.380
 4007SOL     OW 2223   3.854   3.656   1.851
 4007SOL    HW1 2224   3.813   3.582   1.904
 4007SOL    HW2 2225   3.918   3.707   1.909
 4020SOL     OW 2226   3.829   2.875   1.726
 4020SOL    HW1 2227   3.752   2.842   1.780
 4020SOL    HW2 2228   3.914   2.845   1.768
 4036SOL     OW 2229   3.945   3.176   1.844
 4036SOL    HW1 2230   3.880   3.103   1.823
 4036SOL    HW2 2231   3.949   3.190   1.942
 4051SOL     OW 2232   3.954   2.490   1.975
 4051SOL    HW1 2233   3.861   2.488   2.012
 4051SOL    HW2 2234   3.955   2.451   1.883
 4052SOL     OW 2235   3.949   2.137   2.858
 4052SOL    HW1 2236   3.984   2.120   2.950
 4052SOL    HW2 2237   3.861   2.092   2.846
 4053SOL     OW 2238   3.743   2.230   2.509
 4053SOL    HW1 2239   3.661   2.273   2.548
 4053SOL    HW2 2240   3.715   2.157   2.446
 4054SOL     OW 2241   4.293   3.137   3.027
 4054SOL    HW1 2242   4.200   3.130   2.990
 4054SOL    HW2 2243   4.304   3.226   3.071
 4059SOL     OW 2244   4.409   2.874   2.527
 4059SOL    HW1 2245   4.478   2.858   2.597
 4059SOL    HW2 2246   4.336   2.931   2.565
 4061SOL     OW 2247   4.059   3.297   2.923
 4061SOL    HW1 2248   3.981   3.266   2.870
 4061SOL    HW2 2249   4.117   3.355   2.866
 4062SOL     OW 2250   4.162   2.254   3.361
 4062SOL    HW1 2251   4.244   2.198   3.370
 4062SOL    HW2 2252   4.081   2.196   3.365
 4063SOL     OW 2253   3.955   3.575   2.345
 4063SOL    HW1 2254   3.989   3.652   2.399
 4063SOL    HW2 2255   3.999   3.575   2.255
 4065SOL     OW 2256   3.954   3.296   2.400
 4065SOL    HW1 2257   3.928   3.392   2.400
 4065SOL    HW2 2258   3.883   3.242   2.445
 4066SOL     OW 2259   3.964   2.953   2.748
 4066SOL    HW1 2260   3.978   2.869   2.800
 4066SOL    HW2 2261   3.909   3.017   2.803
 4069SOL     OW 2262   3.846   2.505   2.425
 4069SOL    HW1 2263   3.801   2.417   2.442
 4069SOL    HW2 2264   3.845   2.559   2.509
 4070SOL     OW 2265   3.751   3.458   1.979
 4070SOL    HW1 2266   3.732   3.362   2.000
 4070SOL    HW2 2267   3.718   3.516   2.054
 4072SOL     OW 2268   3.837   2.599   3.459
 4072SOL    HW1 2269   3.925   2.586   3.504
 4072SOL    HW2 2270   3.824   2.696   3.437
 4076SOL     OW 2271   3.921   2.838   3.126
 4076SOL    HW1 2272   4.010   2.793   3.112
 4076SOL    HW2 2273   3.848   2.773   3.107
 4080SOL     OW 2274   4.322   2.591   2.132
 4080SOL    HW1 2275   4.346   2.660   2.064
 4080SOL    HW2 2276   4.244   2.624   2.186
 4087SOL     OW 2277   3.800   2.673   2.651
 4087SOL    HW1 2278   3.899   2.661   2.660
 4087SOL    HW2 2279   3.776   2.768   2.672
 4088SOL     OW 2280   3.854   3.683   3.433
 4088SOL    HW1 2281   3.844   3.668   3.532
 4088SOL    HW2 2282   3.768   3.719   3.397
 4091SOL     OW 2283   4.274   2.058   2.747
 4091SOL    HW1 2284   4.269   2.053   2.847
 4091SOL    HW2 2285   4.276   2.154   2.718
 4093SOL     OW 2286   4.075   3.663   2.715
 4093SOL    HW1 2287   4.125   3.577   2.721
 4093SOL    HW2 2288   4.140   3.740   2.712
 4095SOL     OW 2289   4.045   2.805   2.104
 4095SOL    HW1 2290   4.127   2.844   2.062
 4095SOL    HW2 2291   4.018   2.723   2.055
 4098SOL     OW 2292   3.926   2.147   3.360
 4098SOL    HW1 2293   3.846   2.207   3.347
 4098SOL    HW2 2294   3.916   2.098   3.446
 4101SOL     OW 2295   3.973   3.647   3.103
 4101SOL    HW1 2296   4.030   3.582   3.153
 4101SOL    HW2 2297   3.957   3.614   3.010
 4103SOL     OW 2298   4.106   2.562   2.342
 4103SOL    HW1 2299   4.151   2.472   2.339
 4103SOL    HW2 2300   4.012   2.551   2.375
 4110SOL     OW 2301   4.263   1.926   2.374
 4110SOL    HW1 2302   4.182   1.927   2.432
 4110SOL    HW2 2303   4.266   2.009   2.319
 4112SOL     OW 2304   4.021   1.897   2.033
 4112SOL    HW1 2305   4.070   1.981   2.012
 4112SOL    HW2 2306   4.083   1.832   2.078
 4116SOL     OW 2307   4.183   3.014   2.603
 4116SOL    HW1 2308   4.112   2.987   2.668
 4116SOL    HW2 2309   4.157   2.986   2.510
 4119SOL     OW 2310   3.802   2.418   3.248
 4119SOL    HW1 2311   3.894   2.417   3.207
 4119SOL    HW2 2312   3.796   2.492   3.315
 4120SOL     OW 2313   4.285   2.084   3.009
 4120SOL    HW1 2314   4.323   2.000   3.046
 4120SOL    HW2 2315   4.197   2.103   3.053
 4124SOL     OW 2316   4.212   3.247   2.036
 4124SOL    HW1 2317   4.125   3.232   2.083
 4124SOL    HW2 2318   4.195   3.273   1.941
 4126SOL     OW 2319   4.251   2.118   2.190
 4126SOL    HW1 2320   4.278   2.059   2.115
 4126SOL    HW2 2321   4.251   2.213   2.159
 4132SOL     OW 2322   4.134   2.675   3.113
 4132SOL    HW1 2323   4.220   2.687   3.163
 4132SOL    HW2 2324   4.092   2.588   3.140
 4134SOL     OW 2325   3.788   3.426   3.193
 4134SOL    HW1 2326   3.742   3.508   3.159
 4134SOL    HW2 2327   3.886   3.445   3.202
 4135SOL     OW 2328   4.091   2.962   2.363
 4135SOL    HW1 2329   4.084   3.045   2.307
 4135SOL    HW2 2330   4.095   2.882   2.303
 4136SOL     OW 2331   4.290   2.399   2.727
 4136SOL    HW1 2332   4.302   2.465   2.653
 4136SOL    HW2 2333   4.336   2.433   2.810
 4139SOL     OW 2334   4.078   3.372   3.191
 4139SOL    HW1 2335   4.057   3.328   3.104
 4139SOL    HW2 2336   4.175   3.398   3.194
 4140SOL     OW 2337   4.126   2.613   3.460
 4140SOL    HW1 2338   4.194   2.668   3.413
 4140SOL    HW2 2339   4.166   2.525   3.487
 4143SOL     OW 2340   4.297   2.732   2.891
 4143SOL    HW1 2341   4.341   2.821   2.882
 4143SOL    HW2 2342   4.234   2.732   2.968
 4146SOL     OW 2343   4.031   2.075   3.093
 4146SOL    HW1 2344   4.008   2.112   3.183
 4146SOL    HW2 2345   4.001   1.980   3.087
 4147SOL     OW 2346   3.761   3.172   3.144
 4147SOL    HW1 2347   3.814   3.123   3.212
 4147SOL    HW2 2348   3.783   3.270   3.149
 4149SOL     OW 2349   4.031   1.925   2.480
 4149SOL    HW1 2350   4.020   2.019   2.513
 4149SOL    HW2 2351   4.026   1.862   2.557
 4153SOL     OW 2352   4.074   2.760   3.666
 4153SOL    HW1 2353   4.150   2.804   3.714
 4153SOL    HW2 2354   4.109   2.713   3.584
 4156SOL     OW 2355   4.043   2.672   2.811
 4156SOL    HW1 2356   4.136   2.708   2.816
 4156SOL    HW2 2357   4.037   2.587   2.863
 4157SOL     OW 2358   4.063   2.371   2.868
 4157SOL    HW1 2359   4.011   2.288   2.851
 4157SOL    HW2 2360   4.140   2.376   2.804
 4160SOL     OW 2361   3.732   3.188   2.062
 4160SOL    HW1 2362   3.639   3.209   2.031
 4160SOL    HW2 2363   3.742   3.089   2.075
 4161SOL     OW 2364   3.812   3.663   2.789
 4161SOL    HW1 2365   3.770   3.577   2.762
 4161SOL    HW2 2366   3.906   3.666   2.755
 4162SOL     OW 2367   4.228   3.430   2.772
 4162SOL    HW1 2368   4.294   3.504   2.781
 4162SOL    HW2 2369   4.272   3.351   2.730
 4164SOL     OW 2370   3.764   2.406   2.976
 4164SOL    HW1 2371   3.849   2.373   2.935
 4164SOL    HW2 2372   3.777   2.421   3.074
 4165SOL     OW 2373   3.913   2.382   3.584
 4165SOL    HW1 2374   3.972   2.342   3.514
 4165SOL    HW2 2375   3.855   2.453   3.543
 4171SOL     OW 2376   4.197   2.362   2.053
 4171SOL    HW1 2377   4.258   2.442   2.057
 4171SOL    HW2 2378   4.102   2.393   2.060
 4172SOL     OW 2379   3.883   2.999   3.328
 4172SOL    HW1 2380   3.905   2.938   3.404
 4172SOL    HW2 2381   3.893   2.950   3.242
 4176SOL     OW 2382   3.807   3.120   2.884
 4176SOL    HW1 2383   3.802   3.119   2.984
 4176SOL    HW2 2384   3.724   3.079   2.846
 4183SOL     OW 2385   3.987   2.188   2.582
 4183SOL    HW1 2386   3.908   2.239   2.548
 4183SOL    HW2 2387   3.978   2.173   2.680
 4187SOL     OW 2388   4.096   3.150   3.352
 4187SOL    HW1 2389   4.083   3.243   3.318
 4187SOL    HW2 2390   4.012   3.098   3.339
 4191SOL     OW 2391   3.979   3.210   2.152
 4191SOL    HW1 2392   3.883   3.211   2.125
 4191SOL    HW2 2393   3.991   3.263   2.236
 4192SOL     OW 2394   3.829   2.875   3.588
 4192SOL    HW1 2395   3.752   2.842   3.642
 4192SOL    HW2 2396   3.914   2.845   3.630
 4194SOL     OW 2397   3.799   2.207   1.895
 4194SOL    HW1 2398   3.707   2.179   1.866
 4194SOL    HW2 2399   3.830   2.284   1.839
 4196SOL     OW 2400   3.796   2.028   2.180
 4196SOL    HW1 2401   3.779   2.111   2.126
 4196SOL    HW2 2402   3.886   1.991   2.158
 4203SOL     OW 2403   4.318   2.607   2.514
 4203SOL    HW1 2404   4.368   2.692   2.495
 4203SOL    HW2 2405   4.230   2.609   2.466
 4208SOL     OW 2406   3.945   3.176   3.706
 4208SOL    HW1 2407   3.880   3.103   3.685
 4208SOL    HW2 2408   3.949   3.190   3.804
 4209SOL     OW 2409   3.803   3.102   2.515
 4209SOL    HW1 2410   3.802   3.055   2.603
 4209SOL    HW2 2411   3.885   3.074   2.464
 4211SOL     OW 2412   4.152   2.286   2.382
 4211SOL    HW1 2413   4.182   2.214   2.320
 4211SOL    HW2 2414   4.113   2.246   2.465
 4213SOL     OW 2415   4.041   2.409   3.142
 4213SOL    HW1 2416   4.079   2.350   3.214
 4213SOL    HW2 2417   4.081   2.383   3.054
 4221SOL     OW 2418   3.763   2.939   2.162
 4221SOL    HW1 2419   3.862   2.928   2.153
 4221SOL    HW2 2420   3.723   2.853   2.194
 4223SOL     OW 2421   3.954   2.490   3.837
 4223SOL    HW1 2422   3.861   2.488   3.874
 4223SOL    HW2 2423   3.955   2.451   3.745
 4315SOL     OW 2424   3.732   3.188   3.924
 4315SOL    HW1 2425   3.639   3.209   3.893
 4315SOL    HW2 2426   3.742   3.089   3.937
 4341SOL     OW 2427   3.799   2.207   3.757
 4341SOL    HW1 2428   3.707   2.179   3.728
 4341SOL    HW2 2429   3.830   2.284   3.701
 4633SOL     OW 2430   3.796   3.890   2.180
 4633SOL    HW1 2431   3.779   3.973   2.126
 4633SOL    HW2 2432   3.886   3.853   2.158
   5.26874   5.26874   5.26874
