mobley_7988076_GMX.gro created by acpype (v: 2023.10.27) on Tue May 19 14:07:38 2026
 2409
    1MOL     C1    1   2.242   2.396   2.297
    1MOL     C2    2   2.454   2.280   2.303
    1MOL     C3    3   2.240   2.399   2.437
    1MOL     C4    4   2.452   2.283   2.442
    1MOL     C5    5   2.349   2.337   2.230
    1MOL     C6    6   2.345   2.343   2.509
    1MOL     C7    7   2.351   2.333   2.085
    1MOL     O1    8   2.442   2.282   2.020
    1MOL     O2    9   2.343   2.346   2.645
    1MOL     H1   10   2.159   2.440   2.242
    1MOL     H2   11   2.537   2.233   2.252
    1MOL     H3   12   2.156   2.446   2.489
    1MOL     H4   13   2.534   2.239   2.498
    1MOL     H5   14   2.264   2.379   2.032
    1MOL     H6   15   2.278   2.412   2.674
   14SOL     OW   16   1.460   1.505   1.339
   14SOL    HW1   17   1.484   1.599   1.365
   14SOL    HW2   18   1.444   1.451   1.421
   18SOL     OW   19   1.127   1.341   1.690
   18SOL    HW1   20   1.174   1.341   1.778
   18SOL    HW2   21   1.079   1.254   1.679
   31SOL     OW   22   1.293   1.228   1.423
   31SOL    HW1   23   1.330   1.155   1.365
   31SOL    HW2   24   1.345   1.233   1.508
   35SOL     OW   25   1.187   1.792   1.616
   35SOL    HW1   26   1.211   1.852   1.540
   35SOL    HW2   27   1.194   1.697   1.586
   56SOL     OW   28   1.227   1.550   1.506
   56SOL    HW1   29   1.233   1.473   1.570
   56SOL    HW2   30   1.175   1.524   1.426
   95SOL     OW   31   1.754   1.223   1.588
   95SOL    HW1   32   1.845   1.184   1.575
   95SOL    HW2   33   1.762   1.319   1.612
   97SOL     OW   34   1.592   1.629   1.625
   97SOL    HW1   35   1.619   1.663   1.535
   97SOL    HW2   36   1.671   1.591   1.671
  122SOL     OW   37   1.728   0.935   1.854
  122SOL    HW1   38   1.682   0.928   1.765
  122SOL    HW2   39   1.666   0.979   1.920
  126SOL     OW   40   0.980   1.573   1.700
  126SOL    HW1   41   0.960   1.617   1.612
  126SOL    HW2   42   1.019   1.482   1.684
  127SOL     OW   43   1.859   1.518   1.605
  127SOL    HW1   44   1.873   1.545   1.510
  127SOL    HW2   45   1.942   1.540   1.658
  147SOL     OW   46   0.930   1.678   1.465
  147SOL    HW1   47   0.906   1.660   1.370
  147SOL    HW2   48   0.960   1.772   1.475
  152SOL     OW   49   1.759   1.747   1.154
  152SOL    HW1   50   1.820   1.777   1.081
  152SOL    HW2   51   1.721   1.658   1.132
  153SOL     OW   52   1.252   1.731   1.128
  153SOL    HW1   53   1.336   1.736   1.074
  153SOL    HW2   54   1.229   1.635   1.146
  163SOL     OW   55   1.650   1.720   1.394
  163SOL    HW1   56   1.703   1.730   1.310
  163SOL    HW2   57   1.623   1.810   1.428
  171SOL     OW   58   1.614   1.292   1.289
  171SOL    HW1   59   1.674   1.295   1.369
  171SOL    HW2   60   1.539   1.356   1.302
  184SOL     OW   61   1.493   1.767   0.959
  184SOL    HW1   62   1.526   1.831   0.890
  184SOL    HW2   63   1.559   1.761   1.034
  186SOL     OW   64   1.450   1.220   1.633
  186SOL    HW1   65   1.441   1.210   1.732
  186SOL    HW2   66   1.546   1.213   1.607
  192SOL     OW   67   1.730   0.934   1.517
  192SOL    HW1   68   1.768   1.025   1.532
  192SOL    HW2   69   1.722   0.917   1.418
  197SOL     OW   70   1.861   1.569   0.851
  197SOL    HW1   71   1.790   1.557   0.781
  197SOL    HW2   72   1.862   1.490   0.911
  203SOL     OW   73   1.705   1.487   1.104
  203SOL    HW1   74   1.612   1.462   1.077
  203SOL    HW2   75   1.731   1.437   1.186
  219SOL     OW   76   1.555   1.511   2.565
  219SOL    HW1   77   1.498   1.495   2.646
  219SOL    HW2   78   1.496   1.521   2.485
  227SOL     OW   79   1.460   1.505   3.201
  227SOL    HW1   80   1.484   1.599   3.227
  227SOL    HW2   81   1.444   1.451   3.283
  238SOL     OW   82   1.842   1.767   2.221
  238SOL    HW1   83   1.896   1.738   2.301
  238SOL    HW2   84   1.872   1.857   2.192
  240SOL     OW   85   1.689   0.922   2.474
  240SOL    HW1   86   1.784   0.893   2.482
  240SOL    HW2   87   1.681   0.987   2.399
  241SOL     OW   88   1.641   1.108   2.294
  241SOL    HW1   89   1.727   1.110   2.242
  241SOL    HW2   90   1.655   1.155   2.382
  244SOL     OW   91   1.293   1.228   3.285
  244SOL    HW1   92   1.330   1.155   3.227
  244SOL    HW2   93   1.345   1.233   3.370
  247SOL     OW   94   1.525   0.999   2.052
  247SOL    HW1   95   1.462   0.923   2.065
  247SOL    HW2   96   1.573   1.017   2.138
  248SOL     OW   97   1.187   1.792   3.478
  248SOL    HW1   98   1.211   1.852   3.402
  248SOL    HW2   99   1.194   1.697   3.448
  250SOL     OW  100   1.466   1.417   2.815
  250SOL    HW1  101   1.407   1.423   2.895
  250SOL    HW2  102   1.451   1.329   2.769
  251SOL     OW  103   1.667   1.714   2.434
  251SOL    HW1  104   1.626   1.691   2.346
  251SOL    HW2  105   1.649   1.640   2.499
  254SOL     OW  106   1.576   1.662   2.169
  254SOL    HW1  107   1.665   1.708   2.172
  254SOL    HW2  108   1.555   1.638   2.074
  264SOL     OW  109   1.362   1.144   2.407
  264SOL    HW1  110   1.445   1.115   2.359
  264SOL    HW2  111   1.313   1.211   2.351
  266SOL     OW  112   1.008   1.456   2.339
  266SOL    HW1  113   0.962   1.528   2.287
  266SOL    HW2  114   1.004   1.476   2.437
  268SOL     OW  115   1.795   1.066   2.735
  268SOL    HW1  116   1.733   1.051   2.659
  268SOL    HW2  117   1.743   1.077   2.820
  269SOL     OW  118   1.227   1.550   3.368
  269SOL    HW1  119   1.233   1.473   3.432
  269SOL    HW2  120   1.175   1.524   3.288
  273SOL     OW  121   1.111   1.776   2.099
  273SOL    HW1  122   1.051   1.714   2.149
  273SOL    HW2  123   1.142   1.732   2.014
  275SOL     OW  124   1.632   1.377   1.943
  275SOL    HW1  125   1.600   1.471   1.933
  275SOL    HW2  126   1.556   1.314   1.931
  279SOL     OW  127   0.940   1.698   2.766
  279SOL    HW1  128   1.020   1.641   2.787
  279SOL    HW2  129   0.891   1.658   2.689
  289SOL     OW  130   1.434   1.188   1.903
  289SOL    HW1  131   1.466   1.112   1.960
  289SOL    HW2  132   1.342   1.215   1.933
  293SOL     OW  133   1.227   1.570   2.655
  293SOL    HW1  134   1.248   1.644   2.590
  293SOL    HW2  135   1.295   1.570   2.728
  295SOL     OW  136   1.271   1.797   2.453
  295SOL    HW1  137   1.315   1.861   2.389
  295SOL    HW2  138   1.221   1.849   2.523
  301SOL     OW  139   1.429   1.173   2.729
  301SOL    HW1  140   1.374   1.089   2.722
  301SOL    HW2  141   1.455   1.202   2.637
  303SOL     OW  142   1.857   0.833   2.239
  303SOL    HW1  143   1.899   0.769   2.303
  303SOL    HW2  144   1.819   0.782   2.161
  305SOL     OW  145   1.664   1.280   2.519
  305SOL    HW1  146   1.763   1.288   2.533
  305SOL    HW2  147   1.619   1.364   2.550
  308SOL     OW  148   1.754   1.223   3.450
  308SOL    HW1  149   1.845   1.184   3.437
  308SOL    HW2  150   1.762   1.319   3.474
  310SOL     OW  151   1.592   1.629   3.487
  310SOL    HW1  152   1.619   1.663   3.397
  310SOL    HW2  153   1.671   1.591   3.533
  311SOL     OW  154   1.111   1.195   2.962
  311SOL    HW1  155   1.071   1.239   3.043
  311SOL    HW2  156   1.070   1.232   2.879
  312SOL     OW  157   1.638   1.099   2.941
  312SOL    HW1  158   1.643   1.180   3.000
  312SOL    HW2  159   1.552   1.101   2.890
  321SOL     OW  160   1.252   1.348   2.250
  321SOL    HW1  161   1.302   1.425   2.290
  321SOL    HW2  162   1.157   1.350   2.282
  322SOL     OW  163   1.272   1.445   3.004
  322SOL    HW1  164   1.319   1.458   3.091
  322SOL    HW2  165   1.206   1.371   3.013
  340SOL     OW  166   1.859   1.518   3.467
  340SOL    HW1  167   1.873   1.545   3.372
  340SOL    HW2  168   1.942   1.540   3.520
  344SOL     OW  169   1.068   1.333   2.711
  344SOL    HW1  170   1.075   1.249   2.656
  344SOL    HW2  171   1.130   1.402   2.675
  363SOL     OW  172   1.347   1.059   3.096
  363SOL    HW1  173   1.371   0.996   3.022
  363SOL    HW2  174   1.257   1.099   3.078
  365SOL     OW  175   1.759   1.747   3.016
  365SOL    HW1  176   1.820   1.777   2.943
  365SOL    HW2  177   1.721   1.658   2.994
  366SOL     OW  178   1.252   1.731   2.990
  366SOL    HW1  179   1.336   1.736   2.936
  366SOL    HW2  180   1.229   1.635   3.008
  370SOL     OW  181   1.388   1.573   2.339
  370SOL    HW1  182   1.455   1.585   2.265
  370SOL    HW2  183   1.348   1.662   2.362
  372SOL     OW  184   1.280   0.927   2.534
  372SOL    HW1  185   1.340   0.846   2.536
  372SOL    HW2  186   1.320   0.996   2.474
  375SOL     OW  187   1.650   1.720   3.256
  375SOL    HW1  188   1.703   1.730   3.172
  375SOL    HW2  189   1.623   1.810   3.290
  378SOL     OW  190   1.194   1.612   1.893
  378SOL    HW1  191   1.200   1.519   1.930
  378SOL    HW2  192   1.135   1.612   1.813
  381SOL     OW  193   1.504   1.607   1.906
  381SOL    HW1  194   1.412   1.644   1.913
  381SOL    HW2  195   1.542   1.627   1.816
  383SOL     OW  196   1.614   1.292   3.151
  383SOL    HW1  197   1.674   1.295   3.231
  383SOL    HW2  198   1.539   1.356   3.164
  394SOL     OW  199   1.183   1.335   1.981
  394SOL    HW1  200   1.084   1.324   1.983
  394SOL    HW2  201   1.217   1.350   2.074
  396SOL     OW  202   1.493   1.767   2.821
  396SOL    HW1  203   1.526   1.831   2.752
  396SOL    HW2  204   1.559   1.761   2.896
  400SOL     OW  205   1.674   0.883   3.116
  400SOL    HW1  206   1.647   0.794   3.079
  400SOL    HW2  207   1.675   0.951   3.043
  409SOL     OW  208   1.861   1.569   2.713
  409SOL    HW1  209   1.790   1.557   2.643
  409SOL    HW2  210   1.862   1.490   2.773
  415SOL     OW  211   1.705   1.487   2.966
  415SOL    HW1  212   1.612   1.462   2.939
  415SOL    HW2  213   1.731   1.437   3.048
  417SOL     OW  214   0.812   1.586   2.549
  417SOL    HW1  215   0.844   1.596   2.455
  417SOL    HW2  216   0.733   1.524   2.551
  426SOL     OW  217   0.875   1.646   2.199
  426SOL    HW1  218   0.798   1.611   2.145
  426SOL    HW2  219   0.843   1.717   2.261
  540SOL     OW  220   0.850   2.660   1.823
  540SOL    HW1  221   0.846   2.736   1.888
  540SOL    HW2  222   0.872   2.696   1.732
  544SOL     OW  223   1.460   3.367   1.339
  544SOL    HW1  224   1.484   3.461   1.365
  544SOL    HW2  225   1.444   3.313   1.421
  546SOL     OW  226   1.603   2.309   0.737
  546SOL    HW1  227   1.529   2.355   0.687
  546SOL    HW2  228   1.654   2.377   0.790
  548SOL     OW  229   1.127   3.203   1.690
  548SOL    HW1  230   1.174   3.203   1.778
  548SOL    HW2  231   1.079   3.116   1.679
  553SOL     OW  232   1.594   1.976   1.480
  553SOL    HW1  233   1.576   2.043   1.408
  553SOL    HW2  234   1.591   2.022   1.569
  561SOL     OW  235   1.293   3.090   1.423
  561SOL    HW1  236   1.330   3.017   1.365
  561SOL    HW2  237   1.345   3.095   1.508
  570SOL     OW  238   1.281   2.207   0.944
  570SOL    HW1  239   1.195   2.157   0.931
  570SOL    HW2  240   1.343   2.153   1.000
  572SOL     OW  241   0.807   2.467   1.465
  572SOL    HW1  242   0.760   2.464   1.554
  572SOL    HW2  243   0.756   2.412   1.399
  573SOL     OW  244   1.394   2.331   1.674
  573SOL    HW1  245   1.374   2.374   1.762
  573SOL    HW2  246   1.472   2.269   1.683
  574SOL     OW  247   0.973   2.752   1.572
  574SOL    HW1  248   1.019   2.668   1.543
  574SOL    HW2  249   0.917   2.786   1.497
  575SOL     OW  250   0.991   2.272   1.242
  575SOL    HW1  251   0.914   2.306   1.296
  575SOL    HW2  252   0.957   2.221   1.163
  580SOL     OW  253   1.719   2.447   1.831
  580SOL    HW1  254   1.693   2.536   1.795
  580SOL    HW2  255   1.717   2.379   1.758
  585SOL     OW  256   1.795   2.928   0.873
  585SOL    HW1  257   1.733   2.913   0.797
  585SOL    HW2  258   1.743   2.939   0.958
  586SOL     OW  259   1.227   3.412   1.506
  586SOL    HW1  260   1.233   3.335   1.570
  586SOL    HW2  261   1.175   3.386   1.426
  598SOL     OW  262   1.547   2.084   1.729
  598SOL    HW1  263   1.542   2.121   1.821
  598SOL    HW2  264   1.475   2.015   1.717
  599SOL     OW  265   0.781   2.126   1.749
  599SOL    HW1  266   0.848   2.065   1.792
  599SOL    HW2  267   0.708   2.145   1.814
  601SOL     OW  268   1.351   2.452   1.433
  601SOL    HW1  269   1.379   2.409   1.518
  601SOL    HW2  270   1.376   2.548   1.434
  608SOL     OW  271   1.076   2.545   1.464
  608SOL    HW1  272   0.996   2.484   1.467
  608SOL    HW2  273   1.157   2.492   1.440
  618SOL     OW  274   1.466   2.452   0.992
  618SOL    HW1  275   1.436   2.357   0.999
  618SOL    HW2  276   1.539   2.468   1.058
  624SOL     OW  277   1.754   3.085   1.588
  624SOL    HW1  278   1.845   3.046   1.575
  624SOL    HW2  279   1.762   3.181   1.612
  626SOL     OW  280   1.592   3.491   1.625
  626SOL    HW1  281   1.619   3.525   1.535
  626SOL    HW2  282   1.671   3.453   1.671
  628SOL     OW  283   1.638   2.961   1.079
  628SOL    HW1  284   1.643   3.042   1.138
  628SOL    HW2  285   1.552   2.963   1.028
  629SOL     OW  286   0.915   1.951   1.402
  629SOL    HW1  287   0.940   1.931   1.307
  629SOL    HW2  288   0.987   2.007   1.444
  630SOL     OW  289   0.980   2.978   1.719
  630SOL    HW1  290   0.881   2.984   1.729
  630SOL    HW2  291   1.003   2.898   1.663
  633SOL     OW  292   1.274   2.248   1.262
  633SOL    HW1  293   1.295   2.322   1.326
  633SOL    HW2  294   1.185   2.265   1.219
  642SOL     OW  295   1.587   2.641   1.670
  642SOL    HW1  296   1.495   2.679   1.665
  642SOL    HW2  297   1.647   2.688   1.605
  643SOL     OW  298   1.013   1.967   1.770
  643SOL    HW1  299   1.019   2.052   1.718
  643SOL    HW2  300   1.045   1.891   1.713
  646SOL     OW  301   1.360   2.724   1.045
  646SOL    HW1  302   1.285   2.724   0.979
  646SOL    HW2  303   1.397   2.632   1.054
  651SOL     OW  304   1.728   2.797   1.854
  651SOL    HW1  305   1.682   2.790   1.765
  651SOL    HW2  306   1.666   2.841   1.920
  656SOL     OW  307   1.859   3.380   1.605
  656SOL    HW1  308   1.873   3.407   1.510
  656SOL    HW2  309   1.942   3.402   1.658
  663SOL     OW  310   1.138   2.242   1.678
  663SOL    HW1  311   1.093   2.305   1.742
  663SOL    HW2  312   1.231   2.273   1.661
  664SOL     OW  313   1.160   2.069   1.477
  664SOL    HW1  314   1.160   2.133   1.554
  664SOL    HW2  315   1.188   2.117   1.394
  668SOL     OW  316   1.002   2.658   1.238
  668SOL    HW1  317   1.043   2.626   1.324
  668SOL    HW2  318   0.906   2.631   1.235
  671SOL     OW  319   1.369   2.812   1.660
  671SOL    HW1  320   1.408   2.901   1.680
  671SOL    HW2  321   1.379   2.792   1.563
  673SOL     OW  322   1.657   2.466   1.206
  673SOL    HW1  323   1.619   2.397   1.268
  673SOL    HW2  324   1.739   2.430   1.162
  679SOL     OW  325   1.347   2.921   1.234
  679SOL    HW1  326   1.371   2.858   1.160
  679SOL    HW2  327   1.257   2.961   1.216
  692SOL     OW  328   1.650   3.582   1.394
  692SOL    HW1  329   1.703   3.592   1.310
  692SOL    HW2  330   1.623   3.672   1.428
  693SOL     OW  331   1.841   2.037   0.963
  693SOL    HW1  332   1.880   1.952   0.927
  693SOL    HW2  333   1.743   2.039   0.944
  700SOL     OW  334   1.614   3.154   1.289
  700SOL    HW1  335   1.674   3.157   1.369
  700SOL    HW2  336   1.539   3.218   1.302
  704SOL     OW  337   1.709   2.247   1.381
  704SOL    HW1  338   1.782   2.316   1.385
  704SOL    HW2  339   1.737   2.172   1.322
  709SOL     OW  340   1.440   2.718   1.398
  709SOL    HW1  341   1.383   2.770   1.335
  709SOL    HW2  342   1.536   2.730   1.374
  714SOL     OW  343   0.716   2.427   1.708
  714SOL    HW1  344   0.735   2.492   1.782
  714SOL    HW2  345   0.776   2.347   1.717
  715SOL     OW  346   1.450   3.082   1.633
  715SOL    HW1  347   1.441   3.072   1.732
  715SOL    HW2  348   1.546   3.075   1.607
  717SOL     OW  349   1.674   2.745   1.254
  717SOL    HW1  350   1.647   2.656   1.217
  717SOL    HW2  351   1.675   2.813   1.181
  720SOL     OW  352   1.777   2.204   1.642
  720SOL    HW1  353   1.760   2.235   1.548
  720SOL    HW2  354   1.693   2.167   1.680
  721SOL     OW  355   1.730   2.796   1.517
  721SOL    HW1  356   1.768   2.887   1.532
  721SOL    HW2  357   1.722   2.779   1.418
  730SOL     OW  358   1.824   2.054   1.227
  730SOL    HW1  359   1.820   1.964   1.271
  730SOL    HW2  360   1.827   2.043   1.128
  732SOL     OW  361   1.705   3.349   1.104
  732SOL    HW1  362   1.612   3.324   1.077
  732SOL    HW2  363   1.731   3.299   1.186
  735SOL     OW  364   1.424   2.076   1.112
  735SOL    HW1  365   1.476   2.011   1.167
  735SOL    HW2  366   1.375   2.139   1.173
  741SOL     OW  367   1.593   2.083   0.882
  741SOL    HW1  368   1.509   2.082   0.936
  741SOL    HW2  369   1.595   2.166   0.826
  748SOL     OW  370   1.555   3.373   2.565
  748SOL    HW1  371   1.498   3.357   2.646
  748SOL    HW2  372   1.496   3.383   2.485
  749SOL     OW  373   1.135   2.565   2.579
  749SOL    HW1  374   1.192   2.643   2.554
  749SOL    HW2  375   1.075   2.591   2.655
  750SOL     OW  376   1.755   2.469   2.093
  750SOL    HW1  377   1.743   2.456   1.994
  750SOL    HW2  378   1.725   2.388   2.142
  751SOL     OW  379   0.768   3.006   2.885
  751SOL    HW1  380   0.690   3.023   2.945
  751SOL    HW2  381   0.802   3.093   2.849
  753SOL     OW  382   0.685   2.874   2.527
  753SOL    HW1  383   0.754   2.858   2.597
  753SOL    HW2  384   0.612   2.931   2.565
  756SOL     OW  385   1.460   3.367   3.201
  756SOL    HW1  386   1.484   3.461   3.227
  756SOL    HW2  387   1.444   3.313   3.283
  758SOL     OW  388   1.603   2.309   2.599
  758SOL    HW1  389   1.529   2.355   2.549
  758SOL    HW2  390   1.654   2.377   2.652
  765SOL     OW  391   1.594   1.976   3.342
  765SOL    HW1  392   1.576   2.043   3.270
  765SOL    HW2  393   1.591   2.022   3.431
  767SOL     OW  394   1.842   3.629   2.221
  767SOL    HW1  395   1.896   3.600   2.301
  767SOL    HW2  396   1.872   3.719   2.192
  769SOL     OW  397   1.689   2.784   2.474
  769SOL    HW1  398   1.784   2.755   2.482
  769SOL    HW2  399   1.681   2.849   2.399
  770SOL     OW  400   1.641   2.970   2.294
  770SOL    HW1  401   1.727   2.972   2.242
  770SOL    HW2  402   1.655   3.017   2.382
  773SOL     OW  403   1.293   3.090   3.285
  773SOL    HW1  404   1.330   3.017   3.227
  773SOL    HW2  405   1.345   3.095   3.370
  774SOL     OW  406   0.809   1.866   2.364
  774SOL    HW1  407   0.849   1.957   2.355
  774SOL    HW2  408   0.709   1.874   2.370
  776SOL     OW  409   1.525   2.861   2.052
  776SOL    HW1  410   1.462   2.785   2.065
  776SOL    HW2  411   1.573   2.879   2.138
  779SOL     OW  412   1.466   3.279   2.815
  779SOL    HW1  413   1.407   3.285   2.895
  779SOL    HW2  414   1.451   3.191   2.769
  780SOL     OW  415   1.667   3.576   2.434
  780SOL    HW1  416   1.626   3.553   2.346
  780SOL    HW2  417   1.649   3.502   2.499
  781SOL     OW  418   0.598   2.591   2.132
  781SOL    HW1  419   0.622   2.660   2.064
  781SOL    HW2  420   0.520   2.624   2.186
  782SOL     OW  421   1.281   2.207   2.806
  782SOL    HW1  422   1.195   2.157   2.793
  782SOL    HW2  423   1.343   2.153   2.862
  783SOL     OW  424   1.576   3.524   2.169
  783SOL    HW1  425   1.665   3.570   2.172
  783SOL    HW2  426   1.555   3.500   2.074
  785SOL     OW  427   1.394   2.331   3.536
  785SOL    HW1  428   1.374   2.374   3.624
  785SOL    HW2  429   1.472   2.269   3.545
  786SOL     OW  430   0.973   2.752   3.434
  786SOL    HW1  431   1.019   2.668   3.405
  786SOL    HW2  432   0.917   2.786   3.359
  787SOL     OW  433   0.991   2.272   3.104
  787SOL    HW1  434   0.914   2.306   3.158
  787SOL    HW2  435   0.957   2.221   3.025
  788SOL     OW  436   1.041   2.563   2.291
  788SOL    HW1  437   1.067   2.559   2.387
  788SOL    HW2  438   0.956   2.512   2.277
  791SOL     OW  439   0.865   2.210   2.057
  791SOL    HW1  440   0.924   2.273   2.008
  791SOL    HW2  441   0.884   2.116   2.028
  792SOL     OW  442   1.719   2.447   3.693
  792SOL    HW1  443   1.693   2.536   3.657
  792SOL    HW2  444   1.717   2.379   3.620
  793SOL     OW  445   1.362   3.006   2.407
  793SOL    HW1  446   1.445   2.977   2.359
  793SOL    HW2  447   1.313   3.073   2.351
  795SOL     OW  448   1.008   3.318   2.339
  795SOL    HW1  449   0.962   3.390   2.287
  795SOL    HW2  450   1.004   3.338   2.437
  797SOL     OW  451   1.795   2.928   2.735
  797SOL    HW1  452   1.733   2.913   2.659
  797SOL    HW2  453   1.743   2.939   2.820
  800SOL     OW  454   1.458   2.597   2.590
  800SOL    HW1  455   1.453   2.532   2.665
  800SOL    HW2  456   1.538   2.656   2.603
  804SOL     OW  457   1.632   3.239   1.943
  804SOL    HW1  458   1.600   3.333   1.933
  804SOL    HW2  459   1.556   3.176   1.931
  806SOL     OW  460   1.400   1.969   2.288
  806SOL    HW1  461   1.376   1.932   2.198
  806SOL    HW2  462   1.499   1.985   2.292
  810SOL     OW  463   1.547   2.084   3.591
  810SOL    HW1  464   1.542   2.121   3.683
  810SOL    HW2  465   1.475   2.015   3.579
  814SOL     OW  466   1.351   2.452   3.295
  814SOL    HW1  467   1.379   2.409   3.380
  814SOL    HW2  468   1.376   2.548   3.296
  816SOL     OW  469   0.922   2.365   2.761
  816SOL    HW1  470   0.897   2.356   2.665
  816SOL    HW2  471   0.970   2.283   2.792
  818SOL     OW  472   1.434   3.050   1.903
  818SOL    HW1  473   1.466   2.974   1.960
  818SOL    HW2  474   1.342   3.077   1.933
  820SOL     OW  475   0.935   2.098   2.342
  820SOL    HW1  476   0.887   2.139   2.264
  820SOL    HW2  477   1.034   2.096   2.323
  821SOL     OW  478   1.076   2.545   3.326
  821SOL    HW1  479   0.996   2.484   3.329
  821SOL    HW2  480   1.157   2.492   3.302
  822SOL     OW  481   1.227   3.432   2.655
  822SOL    HW1  482   1.248   3.506   2.590
  822SOL    HW2  483   1.295   3.432   2.728
  824SOL     OW  484   1.271   3.659   2.453
  824SOL    HW1  485   1.315   3.723   2.389
  824SOL    HW2  486   1.221   3.711   2.523
  825SOL     OW  487   1.032   2.411   1.878
  825SOL    HW1  488   0.991   2.493   1.839
  825SOL    HW2  489   1.096   2.437   1.951
  828SOL     OW  490   0.866   2.316   2.504
  828SOL    HW1  491   0.834   2.388   2.442
  828SOL    HW2  492   0.890   2.235   2.451
  829SOL     OW  493   1.017   1.901   2.615
  829SOL    HW1  494   0.945   1.906   2.546
  829SOL    HW2  495   0.993   1.832   2.684
  830SOL     OW  496   1.429   3.035   2.729
  830SOL    HW1  497   1.374   2.951   2.722
  830SOL    HW2  498   1.455   3.064   2.637
  831SOL     OW  499   1.466   2.452   2.854
  831SOL    HW1  500   1.436   2.357   2.861
  831SOL    HW2  501   1.539   2.468   2.920
  832SOL     OW  502   1.857   2.695   2.239
  832SOL    HW1  503   1.899   2.631   2.303
  832SOL    HW2  504   1.819   2.644   2.161
  834SOL     OW  505   1.664   3.142   2.519
  834SOL    HW1  506   1.763   3.150   2.533
  834SOL    HW2  507   1.619   3.226   2.550
  835SOL     OW  508   1.390   2.437   1.940
  835SOL    HW1  509   1.336   2.416   2.021
  835SOL    HW2  510   1.481   2.396   1.949
  837SOL     OW  511   1.754   3.085   3.450
  837SOL    HW1  512   1.845   3.046   3.437
  837SOL    HW2  513   1.762   3.181   3.474
  838SOL     OW  514   1.064   3.209   3.202
  838SOL    HW1  515   0.984   3.186   3.257
  838SOL    HW2  516   1.147   3.183   3.251
  839SOL     OW  517   1.592   3.491   3.487
  839SOL    HW1  518   1.619   3.525   3.397
  839SOL    HW2  519   1.671   3.453   3.533
  840SOL     OW  520   1.111   3.057   2.962
  840SOL    HW1  521   1.071   3.101   3.043
  840SOL    HW2  522   1.070   3.094   2.879
  841SOL     OW  523   1.638   2.961   2.941
  841SOL    HW1  524   1.643   3.042   3.000
  841SOL    HW2  525   1.552   2.963   2.890
  842SOL     OW  526   0.915   1.951   3.264
  842SOL    HW1  527   0.940   1.931   3.169
  842SOL    HW2  528   0.987   2.007   3.306
  844SOL     OW  529   0.705   2.912   2.230
  844SOL    HW1  530   0.691   2.919   2.329
  844SOL    HW2  531   0.789   2.861   2.212
  846SOL     OW  532   1.274   2.248   3.124
  846SOL    HW1  533   1.295   2.322   3.188
  846SOL    HW2  534   1.185   2.265   3.081
  850SOL     OW  535   1.252   3.210   2.250
  850SOL    HW1  536   1.302   3.287   2.290
  850SOL    HW2  537   1.157   3.212   2.282
  851SOL     OW  538   1.272   3.307   3.004
  851SOL    HW1  539   1.319   3.320   3.091
  851SOL    HW2  540   1.206   3.233   3.013
  852SOL     OW  541   1.582   2.501   2.334
  852SOL    HW1  542   1.551   2.562   2.407
  852SOL    HW2  543   1.632   2.553   2.265
  855SOL     OW  544   1.587   2.641   3.532
  855SOL    HW1  545   1.495   2.679   3.527
  855SOL    HW2  546   1.647   2.688   3.467
  859SOL     OW  547   1.360   2.724   2.907
  859SOL    HW1  548   1.285   2.724   2.841
  859SOL    HW2  549   1.397   2.632   2.916
  860SOL     OW  550   1.209   2.387   2.137
  860SOL    HW1  551   1.222   2.303   2.191
  860SOL    HW2  552   1.180   2.461   2.197
  863SOL     OW  553   0.732   2.496   2.926
  863SOL    HW1  554   0.791   2.470   2.850
  863SOL    HW2  555   0.704   2.592   2.915
  864SOL     OW  556   1.728   2.797   3.716
  864SOL    HW1  557   1.682   2.790   3.627
  864SOL    HW2  558   1.666   2.841   3.782
  866SOL     OW  559   1.622   2.229   2.236
  866SOL    HW1  560   1.624   2.153   2.300
  866SOL    HW2  561   1.574   2.306   2.276
  867SOL     OW  562   1.023   2.628   2.828
  867SOL    HW1  563   1.038   2.649   2.924
  867SOL    HW2  564   0.993   2.533   2.819
  869SOL     OW  565   1.859   3.380   3.467
  869SOL    HW1  566   1.873   3.407   3.372
  869SOL    HW2  567   1.942   3.402   3.520
  871SOL     OW  568   1.540   2.136   1.987
  871SOL    HW1  569   1.479   2.061   2.010
  871SOL    HW2  570   1.562   2.188   2.070
  872SOL     OW  571   1.303   2.700   1.904
  872SOL    HW1  572   1.337   2.607   1.919
  872SOL    HW2  573   1.321   2.727   1.809
  873SOL     OW  574   1.068   3.195   2.711
  873SOL    HW1  575   1.075   3.111   2.656
  873SOL    HW2  576   1.130   3.264   2.675
  876SOL     OW  577   1.138   2.242   3.540
  876SOL    HW1  578   1.093   2.305   3.604
  876SOL    HW2  579   1.231   2.273   3.523
  877SOL     OW  580   1.160   2.069   3.339
  877SOL    HW1  581   1.160   2.133   3.416
  877SOL    HW2  582   1.188   2.117   3.256
  881SOL     OW  583   1.002   2.658   3.100
  881SOL    HW1  584   1.043   2.626   3.186
  881SOL    HW2  585   0.906   2.631   3.097
  884SOL     OW  586   1.369   2.812   3.522
  884SOL    HW1  587   1.408   2.901   3.542
  884SOL    HW2  588   1.379   2.792   3.425
  885SOL     OW  589   0.815   2.434   2.187
  885SOL    HW1  590   0.822   2.345   2.141
  885SOL    HW2  591   0.721   2.468   2.179
  886SOL     OW  592   1.657   2.466   3.068
  886SOL    HW1  593   1.619   2.397   3.130
  886SOL    HW2  594   1.739   2.430   3.024
  892SOL     OW  595   1.347   2.921   3.096
  892SOL    HW1  596   1.371   2.858   3.022
  892SOL    HW2  597   1.257   2.961   3.078
  893SOL     OW  598   1.302   2.717   2.171
  893SOL    HW1  599   1.216   2.686   2.213
  893SOL    HW2  600   1.298   2.703   2.072
  894SOL     OW  601   1.759   3.609   3.016
  894SOL    HW1  602   1.820   3.639   2.943
  894SOL    HW2  603   1.721   3.520   2.994
  895SOL     OW  604   1.252   3.593   2.990
  895SOL    HW1  605   1.336   3.598   2.936
  895SOL    HW2  606   1.229   3.497   3.008
  898SOL     OW  607   1.726   1.997   2.385
  898SOL    HW1  608   1.799   1.980   2.318
  898SOL    HW2  609   1.695   1.910   2.423
  899SOL     OW  610   1.388   3.435   2.339
  899SOL    HW1  611   1.455   3.447   2.265
  899SOL    HW2  612   1.348   3.524   2.362
  901SOL     OW  613   1.280   2.789   2.534
  901SOL    HW1  614   1.340   2.708   2.536
  901SOL    HW2  615   1.320   2.858   2.474
  904SOL     OW  616   1.650   3.582   3.256
  904SOL    HW1  617   1.703   3.592   3.172
  904SOL    HW2  618   1.623   3.672   3.290
  905SOL     OW  619   1.841   2.037   2.825
  905SOL    HW1  620   1.880   1.952   2.789
  905SOL    HW2  621   1.743   2.039   2.806
  907SOL     OW  622   1.194   3.474   1.893
  907SOL    HW1  623   1.200   3.381   1.930
  907SOL    HW2  624   1.135   3.474   1.813
  909SOL     OW  625   0.916   2.772   2.153
  909SOL    HW1  626   0.979   2.810   2.085
  909SOL    HW2  627   0.956   2.689   2.192
  910SOL     OW  628   1.504   3.469   1.906
  910SOL    HW1  629   1.412   3.506   1.913
  910SOL    HW2  630   1.542   3.489   1.816
  912SOL     OW  631   1.614   3.154   3.151
  912SOL    HW1  632   1.674   3.157   3.231
  912SOL    HW2  633   1.539   3.218   3.164
  913SOL     OW  634   1.039   2.960   2.558
  913SOL    HW1  635   0.969   2.913   2.612
  913SOL    HW2  636   1.098   2.892   2.515
  914SOL     OW  637   1.014   2.098   2.833
  914SOL    HW1  638   1.006   2.062   2.740
  914SOL    HW2  639   1.012   2.022   2.898
  916SOL     OW  640   1.709   2.247   3.243
  916SOL    HW1  641   1.782   2.316   3.247
  916SOL    HW2  642   1.737   2.172   3.184
  921SOL     OW  643   1.440   2.718   3.260
  921SOL    HW1  644   1.383   2.770   3.197
  921SOL    HW2  645   1.536   2.730   3.236
  923SOL     OW  646   1.183   3.197   1.981
  923SOL    HW1  647   1.084   3.186   1.983
  923SOL    HW2  648   1.217   3.212   2.074
  925SOL     OW  649   1.493   3.629   2.821
  925SOL    HW1  650   1.526   3.693   2.752
  925SOL    HW2  651   1.559   3.623   2.896
  927SOL     OW  652   1.450   3.082   3.495
  927SOL    HW1  653   1.441   3.072   3.594
  927SOL    HW2  654   1.546   3.075   3.469
  929SOL     OW  655   1.674   2.745   3.116
  929SOL    HW1  656   1.647   2.656   3.079
  929SOL    HW2  657   1.675   2.813   3.043
  930SOL     OW  658   1.225   2.187   2.311
  930SOL    HW1  659   1.290   2.113   2.300
  930SOL    HW2  660   1.245   2.237   2.395
  931SOL     OW  661   0.594   2.607   2.514
  931SOL    HW1  662   0.644   2.692   2.495
  931SOL    HW2  663   0.506   2.609   2.466
  932SOL     OW  664   1.777   2.204   3.504
  932SOL    HW1  665   1.760   2.235   3.410
  932SOL    HW2  666   1.693   2.167   3.542
  933SOL     OW  667   1.730   2.796   3.379
  933SOL    HW1  668   1.768   2.887   3.394
  933SOL    HW2  669   1.722   2.779   3.280
  934SOL     OW  670   0.859   3.236   1.878
  934SOL    HW1  671   0.813   3.251   1.966
  934SOL    HW2  672   0.903   3.321   1.848
  936SOL     OW  673   0.859   2.818   2.723
  936SOL    HW1  674   0.913   2.749   2.771
  936SOL    HW2  675   0.827   2.887   2.789
  937SOL     OW  676   1.083   2.846   1.949
  937SOL    HW1  677   1.060   2.899   1.867
  937SOL    HW2  678   1.164   2.790   1.930
  938SOL     OW  679   1.861   3.431   2.713
  938SOL    HW1  680   1.790   3.419   2.643
  938SOL    HW2  681   1.862   3.352   2.773
  942SOL     OW  682   1.824   2.054   3.089
  942SOL    HW1  683   1.820   1.964   3.133
  942SOL    HW2  684   1.827   2.043   2.990
  944SOL     OW  685   1.705   3.349   2.966
  944SOL    HW1  686   1.612   3.324   2.939
  944SOL    HW2  687   1.731   3.299   3.048
  947SOL     OW  688   1.424   2.076   2.974
  947SOL    HW1  689   1.476   2.011   3.029
  947SOL    HW2  690   1.375   2.139   3.035
  948SOL     OW  691   1.001   1.896   3.016
  948SOL    HW1  692   0.938   1.824   2.985
  948SOL    HW2  693   1.094   1.860   3.016
  949SOL     OW  694   0.770   3.192   2.163
  949SOL    HW1  695   0.724   3.105   2.180
  949SOL    HW2  696   0.861   3.189   2.204
  951SOL     OW  697   1.352   1.914   2.030
  951SOL    HW1  698   1.387   1.873   1.946
  951SOL    HW2  699   1.262   1.876   2.050
  952SOL     OW  700   1.300   2.315   2.553
  952SOL    HW1  701   1.241   2.395   2.557
  952SOL    HW2  702   1.315   2.280   2.646
  953SOL     OW  703   1.593   2.083   2.744
  953SOL    HW1  704   1.509   2.082   2.798
  953SOL    HW2  705   1.595   2.166   2.688
  960SOL     OW  706   1.755   2.469   3.955
  960SOL    HW1  707   1.743   2.456   3.856
  960SOL    HW2  708   1.725   2.388   4.004
 1009SOL     OW  709   1.390   2.437   3.802
 1009SOL    HW1  710   1.336   2.416   3.883
 1009SOL    HW2  711   1.481   2.396   3.811
 1020SOL     OW  712   1.540   2.136   3.849
 1020SOL    HW1  713   1.479   2.061   3.872
 1020SOL    HW2  714   1.562   2.188   3.932
 1021SOL     OW  715   1.303   2.700   3.766
 1021SOL    HW1  716   1.337   2.607   3.781
 1021SOL    HW2  717   1.321   2.727   3.671
 1193SOL     OW  718   1.400   3.831   2.288
 1193SOL    HW1  719   1.376   3.794   2.198
 1193SOL    HW2  720   1.499   3.847   2.292
 1245SOL     OW  721   1.726   3.859   2.385
 1245SOL    HW1  722   1.799   3.842   2.318
 1245SOL    HW2  723   1.695   3.772   2.423
 1247SOL     OW  724   1.841   3.899   2.825
 1247SOL    HW1  725   1.880   3.814   2.789
 1247SOL    HW2  726   1.743   3.901   2.806
 1269SOL     OW  727   1.352   3.776   2.030
 1269SOL    HW1  728   1.387   3.735   1.946
 1269SOL    HW2  729   1.262   3.738   2.050
 1329SOL     OW  730   2.431   1.275   1.165
 1329SOL    HW1  731   2.338   1.268   1.128
 1329SOL    HW2  732   2.442   1.364   1.209
 1334SOL     OW  733   2.712   0.798   1.823
 1334SOL    HW1  734   2.708   0.874   1.888
 1334SOL    HW2  735   2.734   0.834   1.732
 1336SOL     OW  736   2.548   1.161   1.803
 1336SOL    HW1  737   2.608   1.240   1.817
 1336SOL    HW2  738   2.462   1.192   1.762
 1337SOL     OW  739   2.197   1.435   1.061
 1337SOL    HW1  740   2.119   1.404   1.008
 1337SOL    HW2  741   2.255   1.493   1.004
 1338SOL     OW  742   3.322   1.505   1.339
 1338SOL    HW1  743   3.346   1.599   1.365
 1338SOL    HW2  744   3.306   1.451   1.421
 1342SOL     OW  745   2.989   1.341   1.690
 1342SOL    HW1  746   3.036   1.341   1.778
 1342SOL    HW2  747   2.941   1.254   1.679
 1345SOL     OW  748   2.482   1.786   1.439
 1345SOL    HW1  749   2.390   1.769   1.474
 1345SOL    HW2  750   2.510   1.878   1.465
 1354SOL     OW  751   3.155   1.228   1.423
 1354SOL    HW1  752   3.192   1.155   1.365
 1354SOL    HW2  753   3.207   1.233   1.508
 1356SOL     OW  754   2.059   0.976   1.264
 1356SOL    HW1  755   2.148   0.931   1.250
 1356SOL    HW2  756   1.986   0.911   1.245
 1358SOL     OW  757   3.049   1.792   1.616
 1358SOL    HW1  758   3.073   1.852   1.540
 1358SOL    HW2  759   3.056   1.697   1.586
 1367SOL     OW  760   2.835   0.890   1.572
 1367SOL    HW1  761   2.881   0.806   1.543
 1367SOL    HW2  762   2.779   0.924   1.497
 1371SOL     OW  763   1.992   1.821   1.571
 1371SOL    HW1  764   1.982   1.806   1.670
 1371SOL    HW2  765   1.906   1.857   1.535
 1377SOL     OW  766   2.213   1.801   0.853
 1377SOL    HW1  767   2.263   1.715   0.859
 1377SOL    HW2  768   2.278   1.878   0.850
 1379SOL     OW  769   3.089   1.550   1.506
 1379SOL    HW1  770   3.095   1.473   1.570
 1379SOL    HW2  771   3.037   1.524   1.426
 1382SOL     OW  772   2.323   1.266   1.727
 1382SOL    HW1  773   2.273   1.267   1.641
 1382SOL    HW2  774   2.260   1.248   1.803
 1388SOL     OW  775   2.111   1.785   1.241
 1388SOL    HW1  776   2.168   1.720   1.291
 1388SOL    HW2  777   2.095   1.752   1.148
 1389SOL     OW  778   2.802   1.698   0.904
 1389SOL    HW1  779   2.882   1.641   0.925
 1389SOL    HW2  780   2.753   1.658   0.827
 1394SOL     OW  781   2.750   1.514   1.195
 1394SOL    HW1  782   2.727   1.489   1.101
 1394SOL    HW2  783   2.811   1.445   1.234
 1396SOL     OW  784   2.665   1.402   0.924
 1396SOL    HW1  785   2.755   1.416   0.882
 1396SOL    HW2  786   2.594   1.404   0.853
 1419SOL     OW  787   2.926   1.347   1.340
 1419SOL    HW1  788   2.846   1.324   1.395
 1419SOL    HW2  789   3.009   1.321   1.389
 1420SOL     OW  790   3.454   1.629   1.625
 1420SOL    HW1  791   3.481   1.663   1.535
 1420SOL    HW2  792   3.533   1.591   1.671
 1424SOL     OW  793   2.842   1.116   1.719
 1424SOL    HW1  794   2.743   1.122   1.729
 1424SOL    HW2  795   2.865   1.036   1.663
 1428SOL     OW  796   1.926   1.564   1.331
 1428SOL    HW1  797   1.880   1.646   1.297
 1428SOL    HW2  798   2.024   1.583   1.340
 1432SOL     OW  799   3.134   1.445   1.142
 1432SOL    HW1  800   3.181   1.458   1.229
 1432SOL    HW2  801   3.068   1.371   1.151
 1434SOL     OW  802   2.216   1.510   1.329
 1434SOL    HW1  803   2.195   1.466   1.242
 1434SOL    HW2  804   2.313   1.536   1.332
 1435SOL     OW  805   2.264   0.751   1.598
 1435SOL    HW1  806   2.332   0.806   1.551
 1435SOL    HW2  807   2.304   0.663   1.625
 1443SOL     OW  808   1.899   1.310   1.282
 1443SOL    HW1  809   1.952   1.261   1.350
 1443SOL    HW2  810   1.921   1.408   1.287
 1449SOL     OW  811   2.842   1.573   1.700
 1449SOL    HW1  812   2.822   1.617   1.612
 1449SOL    HW2  813   2.881   1.482   1.684
 1450SOL     OW  814   3.721   1.518   1.605
 1450SOL    HW1  815   3.735   1.545   1.510
 1450SOL    HW2  816   3.804   1.540   1.658
 1451SOL     OW  817   2.212   0.898   1.804
 1451SOL    HW1  818   2.288   0.942   1.852
 1451SOL    HW2  819   2.247   0.851   1.722
 1460SOL     OW  820   1.950   1.801   0.927
 1460SOL    HW1  821   1.908   1.715   0.900
 1460SOL    HW2  822   2.044   1.804   0.893
 1461SOL     OW  823   2.366   1.568   0.910
 1461SOL    HW1  824   2.432   1.642   0.919
 1461SOL    HW2  825   2.410   1.489   0.868
 1465SOL     OW  826   3.231   0.950   1.660
 1465SOL    HW1  827   3.270   1.039   1.680
 1465SOL    HW2  828   3.241   0.930   1.563
 1468SOL     OW  829   2.114   1.564   1.744
 1468SOL    HW1  830   2.084   1.621   1.820
 1468SOL    HW2  831   2.107   1.467   1.770
 1470SOL     OW  832   2.792   1.678   1.465
 1470SOL    HW1  833   2.768   1.660   1.370
 1470SOL    HW2  834   2.822   1.772   1.475
 1472SOL     OW  835   2.021   1.137   1.466
 1472SOL    HW1  836   2.043   1.076   1.542
 1472SOL    HW2  837   2.031   1.088   1.380
 1476SOL     OW  838   3.114   1.731   1.128
 1476SOL    HW1  839   3.198   1.736   1.074
 1476SOL    HW2  840   3.091   1.635   1.146
 1477SOL     OW  841   1.945   1.258   1.022
 1477SOL    HW1  842   1.940   1.257   1.122
 1477SOL    HW2  843   1.862   1.217   0.984
 1478SOL     OW  844   2.550   1.662   1.716
 1478SOL    HW1  845   2.494   1.743   1.725
 1478SOL    HW2  846   2.602   1.666   1.630
 1482SOL     OW  847   1.992   1.794   1.851
 1482SOL    HW1  848   1.951   1.720   1.904
 1482SOL    HW2  849   2.056   1.845   1.909
 1484SOL     OW  850   2.692   1.273   1.422
 1484SOL    HW1  851   2.687   1.306   1.517
 1484SOL    HW2  852   2.606   1.292   1.376
 1486SOL     OW  853   3.512   1.720   1.394
 1486SOL    HW1  854   3.565   1.730   1.310
 1486SOL    HW2  855   3.485   1.810   1.428
 1490SOL     OW  856   2.684   1.002   1.372
 1490SOL    HW1  857   2.724   1.001   1.280
 1490SOL    HW2  858   2.694   1.094   1.412
 1493SOL     OW  859   2.234   1.288   1.490
 1493SOL    HW1  860   2.221   1.381   1.456
 1493SOL    HW2  861   2.150   1.236   1.477
 1500SOL     OW  862   1.967   1.013   1.726
 1500SOL    HW1  863   1.890   0.980   1.780
 1500SOL    HW2  864   2.052   0.983   1.768
 1504SOL     OW  865   2.475   0.842   1.431
 1504SOL    HW1  866   2.531   0.923   1.414
 1504SOL    HW2  867   2.534   0.762   1.434
 1507SOL     OW  868   3.312   1.220   1.633
 1507SOL    HW1  869   3.303   1.210   1.732
 1507SOL    HW2  870   3.408   1.213   1.607
 1508SOL     OW  871   2.252   1.741   1.560
 1508SOL    HW1  872   2.161   1.782   1.558
 1508SOL    HW2  873   2.245   1.647   1.592
 1515SOL     OW  874   2.523   1.790   0.953
 1515SOL    HW1  875   2.477   1.878   0.940
 1515SOL    HW2  876   2.622   1.802   0.946
 1519SOL     OW  877   2.083   1.314   1.844
 1519SOL    HW1  878   2.018   1.241   1.823
 1519SOL    HW2  879   2.087   1.328   1.942
 1521SOL     OW  880   2.534   1.391   1.624
 1521SOL    HW1  881   2.456   1.341   1.662
 1521SOL    HW2  882   2.531   1.486   1.655
 1530SOL     OW  883   2.480   1.567   1.284
 1530SOL    HW1  884   2.475   1.649   1.341
 1530SOL    HW2  885   2.569   1.564   1.239
 1536SOL     OW  886   2.092   0.628   1.975
 1536SOL    HW1  887   1.999   0.626   2.012
 1536SOL    HW2  888   2.093   0.589   1.883
 1539SOL     OW  889   2.431   1.275   3.027
 1539SOL    HW1  890   2.338   1.268   2.990
 1539SOL    HW2  891   2.442   1.364   3.071
 1540SOL     OW  892   3.417   1.511   2.565
 1540SOL    HW1  893   3.360   1.495   2.646
 1540SOL    HW2  894   3.358   1.521   2.485
 1541SOL     OW  895   2.997   0.703   2.579
 1541SOL    HW1  896   3.054   0.781   2.554
 1541SOL    HW2  897   2.937   0.729   2.655
 1543SOL     OW  898   2.630   1.144   2.885
 1543SOL    HW1  899   2.552   1.161   2.945
 1543SOL    HW2  900   2.664   1.231   2.849
 1545SOL     OW  901   2.547   1.012   2.527
 1545SOL    HW1  902   2.616   0.996   2.597
 1545SOL    HW2  903   2.474   1.069   2.565
 1546SOL     OW  904   2.548   1.161   3.665
 1546SOL    HW1  905   2.608   1.240   3.679
 1546SOL    HW2  906   2.462   1.192   3.624
 1547SOL     OW  907   2.197   1.435   2.923
 1547SOL    HW1  908   2.119   1.404   2.870
 1547SOL    HW2  909   2.255   1.493   2.866
 1548SOL     OW  910   3.322   1.505   3.201
 1548SOL    HW1  911   3.346   1.599   3.227
 1548SOL    HW2  912   3.306   1.451   3.283
 1551SOL     OW  913   2.093   1.713   2.345
 1551SOL    HW1  914   2.127   1.790   2.399
 1551SOL    HW2  915   2.137   1.713   2.255
 1552SOL     OW  916   2.989   1.341   3.552
 1552SOL    HW1  917   3.036   1.341   3.640
 1552SOL    HW2  918   2.941   1.254   3.541
 1553SOL     OW  919   2.092   1.434   2.400
 1553SOL    HW1  920   2.066   1.530   2.400
 1553SOL    HW2  921   2.021   1.380   2.445
 1554SOL     OW  922   2.102   1.091   2.748
 1554SOL    HW1  923   2.116   1.007   2.800
 1554SOL    HW2  924   2.047   1.155   2.803
 1555SOL     OW  925   2.482   1.786   3.301
 1555SOL    HW1  926   2.390   1.769   3.336
 1555SOL    HW2  927   2.510   1.878   3.327
 1556SOL     OW  928   2.468   0.964   1.985
 1556SOL    HW1  929   2.475   1.048   1.931
 1556SOL    HW2  930   2.514   0.977   2.073
 1558SOL     OW  931   1.984   0.643   2.425
 1558SOL    HW1  932   1.939   0.555   2.442
 1558SOL    HW2  933   1.983   0.697   2.509
 1559SOL     OW  934   3.704   1.767   2.221
 1559SOL    HW1  935   3.758   1.738   2.301
 1559SOL    HW2  936   3.734   1.857   2.192
 1560SOL     OW  937   1.889   1.596   1.979
 1560SOL    HW1  938   1.870   1.500   2.000
 1560SOL    HW2  939   1.856   1.654   2.054
 1562SOL     OW  940   3.503   1.108   2.294
 1562SOL    HW1  941   3.589   1.110   2.242
 1562SOL    HW2  942   3.517   1.155   2.382
 1564SOL     OW  943   2.475   1.365   2.588
 1564SOL    HW1  944   2.426   1.278   2.597
 1564SOL    HW2  945   2.452   1.408   2.501
 1565SOL     OW  946   3.155   1.228   3.285
 1565SOL    HW1  947   3.192   1.155   3.227
 1565SOL    HW2  948   3.207   1.233   3.370
 1567SOL     OW  949   2.059   0.976   3.126
 1567SOL    HW1  950   2.148   0.931   3.112
 1567SOL    HW2  951   1.986   0.911   3.107
 1568SOL     OW  952   3.387   0.999   2.052
 1568SOL    HW1  953   3.324   0.923   2.065
 1568SOL    HW2  954   3.435   1.017   2.138
 1569SOL     OW  955   3.049   1.792   3.478
 1569SOL    HW1  956   3.073   1.852   3.402
 1569SOL    HW2  957   3.056   1.697   3.448
 1571SOL     OW  958   3.328   1.417   2.815
 1571SOL    HW1  959   3.269   1.423   2.895
 1571SOL    HW2  960   3.313   1.329   2.769
 1572SOL     OW  961   3.529   1.714   2.434
 1572SOL    HW1  962   3.488   1.691   2.346
 1572SOL    HW2  963   3.511   1.640   2.499
 1573SOL     OW  964   2.460   0.729   2.132
 1573SOL    HW1  965   2.484   0.798   2.064
 1573SOL    HW2  966   2.382   0.762   2.186
 1575SOL     OW  967   3.438   1.662   2.169
 1575SOL    HW1  968   3.527   1.708   2.172
 1575SOL    HW2  969   3.417   1.638   2.074
 1580SOL     OW  970   2.903   0.701   2.291
 1580SOL    HW1  971   2.929   0.697   2.387
 1580SOL    HW2  972   2.818   0.650   2.277
 1581SOL     OW  973   1.938   0.811   2.651
 1581SOL    HW1  974   2.037   0.799   2.660
 1581SOL    HW2  975   1.914   0.906   2.672
 1582SOL     OW  976   1.992   1.821   3.433
 1582SOL    HW1  977   1.982   1.806   3.532
 1582SOL    HW2  978   1.906   1.857   3.397
 1585SOL     OW  979   3.224   1.144   2.407
 1585SOL    HW1  980   3.307   1.115   2.359
 1585SOL    HW2  981   3.175   1.211   2.351
 1587SOL     OW  982   2.870   1.456   2.339
 1587SOL    HW1  983   2.824   1.528   2.287
 1587SOL    HW2  984   2.866   1.476   2.437
 1588SOL     OW  985   2.213   1.801   2.715
 1588SOL    HW1  986   2.263   1.715   2.721
 1588SOL    HW2  987   2.278   1.878   2.712
 1590SOL     OW  988   3.089   1.550   3.368
 1590SOL    HW1  989   3.095   1.473   3.432
 1590SOL    HW2  990   3.037   1.524   3.288
 1591SOL     OW  991   2.183   0.943   2.104
 1591SOL    HW1  992   2.265   0.982   2.062
 1591SOL    HW2  993   2.156   0.861   2.055
 1593SOL     OW  994   2.323   1.266   3.589
 1593SOL    HW1  995   2.273   1.267   3.503
 1593SOL    HW2  996   2.260   1.248   3.665
 1594SOL     OW  997   2.973   1.776   2.099
 1594SOL    HW1  998   2.913   1.714   2.149
 1594SOL    HW2  999   3.004   1.732   2.014
 1596SOL     OW 1000   3.494   1.377   1.943
 1596SOL    HW1 1001   3.462   1.471   1.933
 1596SOL    HW2 1002   3.418   1.314   1.931
 1597SOL     OW 1003   2.326   1.743   2.185
 1597SOL    HW1 1004   2.359   1.782   2.271
 1597SOL    HW2 1005   2.402   1.736   2.120
 1599SOL     OW 1006   2.111   1.785   3.103
 1599SOL    HW1 1007   2.168   1.720   3.153
 1599SOL    HW2 1008   2.095   1.752   3.010
 1600SOL     OW 1009   2.802   1.698   2.766
 1600SOL    HW1 1010   2.882   1.641   2.787
 1600SOL    HW2 1011   2.753   1.658   2.689
 1601SOL     OW 1012   2.244   0.700   2.342
 1601SOL    HW1 1013   2.289   0.610   2.339
 1601SOL    HW2 1014   2.150   0.689   2.375
 1605SOL     OW 1015   2.750   1.514   3.057
 1605SOL    HW1 1016   2.727   1.489   2.963
 1605SOL    HW2 1017   2.811   1.445   3.096
 1607SOL     OW 1018   2.665   1.402   2.786
 1607SOL    HW1 1019   2.755   1.416   2.744
 1607SOL    HW2 1020   2.594   1.404   2.715
 1610SOL     OW 1021   3.296   1.188   1.903
 1610SOL    HW1 1022   3.328   1.112   1.960
 1610SOL    HW2 1023   3.204   1.215   1.933
 1614SOL     OW 1024   3.089   1.570   2.655
 1614SOL    HW1 1025   3.110   1.644   2.590
 1614SOL    HW2 1026   3.157   1.570   2.728
 1615SOL     OW 1027   2.321   1.152   2.603
 1615SOL    HW1 1028   2.250   1.125   2.668
 1615SOL    HW2 1029   2.295   1.124   2.510
 1616SOL     OW 1030   3.133   1.797   2.453
 1616SOL    HW1 1031   3.177   1.861   2.389
 1616SOL    HW2 1032   3.083   1.849   2.523
 1622SOL     OW 1033   3.291   1.173   2.729
 1622SOL    HW1 1034   3.236   1.089   2.722
 1622SOL    HW2 1035   3.317   1.202   2.637
 1625SOL     OW 1036   2.350   1.385   2.036
 1625SOL    HW1 1037   2.263   1.370   2.083
 1625SOL    HW2 1038   2.333   1.411   1.941
 1626SOL     OW 1039   3.526   1.280   2.519
 1626SOL    HW1 1040   3.625   1.288   2.533
 1626SOL    HW2 1041   3.481   1.364   2.550
 1630SOL     OW 1042   2.926   1.347   3.202
 1630SOL    HW1 1043   2.846   1.324   3.257
 1630SOL    HW2 1044   3.009   1.321   3.251
 1631SOL     OW 1045   3.454   1.629   3.487
 1631SOL    HW1 1046   3.481   1.663   3.397
 1631SOL    HW2 1047   3.533   1.591   3.533
 1632SOL     OW 1048   2.973   1.195   2.962
 1632SOL    HW1 1049   2.933   1.239   3.043
 1632SOL    HW2 1050   2.932   1.232   2.879
 1636SOL     OW 1051   2.567   1.050   2.230
 1636SOL    HW1 1052   2.553   1.057   2.329
 1636SOL    HW2 1053   2.651   0.999   2.212
 1637SOL     OW 1054   2.272   0.813   3.113
 1637SOL    HW1 1055   2.358   0.825   3.163
 1637SOL    HW2 1056   2.230   0.726   3.140
 1639SOL     OW 1057   1.926   1.564   3.193
 1639SOL    HW1 1058   1.880   1.646   3.159
 1639SOL    HW2 1059   2.024   1.583   3.202
 1640SOL     OW 1060   2.229   1.100   2.363
 1640SOL    HW1 1061   2.222   1.183   2.307
 1640SOL    HW2 1062   2.233   1.020   2.303
 1642SOL     OW 1063   3.114   1.348   2.250
 1642SOL    HW1 1064   3.164   1.425   2.290
 1642SOL    HW2 1065   3.019   1.350   2.282
 1643SOL     OW 1066   3.134   1.445   3.004
 1643SOL    HW1 1067   3.181   1.458   3.091
 1643SOL    HW2 1068   3.068   1.371   3.013
 1645SOL     OW 1069   2.216   1.510   3.191
 1645SOL    HW1 1070   2.195   1.466   3.104
 1645SOL    HW2 1071   2.313   1.536   3.194
 1650SOL     OW 1072   2.435   0.870   2.891
 1650SOL    HW1 1073   2.479   0.959   2.882
 1650SOL    HW2 1074   2.372   0.870   2.968
 1654SOL     OW 1075   1.899   1.310   3.144
 1654SOL    HW1 1076   1.952   1.261   3.212
 1654SOL    HW2 1077   1.921   1.408   3.149
 1659SOL     OW 1078   2.885   0.766   2.828
 1659SOL    HW1 1079   2.900   0.787   2.924
 1659SOL    HW2 1080   2.855   0.671   2.819
 1660SOL     OW 1081   2.842   1.573   3.562
 1660SOL    HW1 1082   2.822   1.617   3.474
 1660SOL    HW2 1083   2.881   1.482   3.546
 1664SOL     OW 1084   3.165   0.838   1.904
 1664SOL    HW1 1085   3.199   0.745   1.919
 1664SOL    HW2 1086   3.183   0.865   1.809
 1665SOL     OW 1087   2.930   1.333   2.711
 1665SOL    HW1 1088   2.937   1.249   2.656
 1665SOL    HW2 1089   2.992   1.402   2.675
 1666SOL     OW 1090   2.181   0.810   2.811
 1666SOL    HW1 1091   2.274   0.846   2.816
 1666SOL    HW2 1092   2.175   0.725   2.863
 1670SOL     OW 1093   1.870   1.326   2.062
 1670SOL    HW1 1094   1.777   1.347   2.031
 1670SOL    HW2 1095   1.880   1.227   2.075
 1671SOL     OW 1096   1.950   1.801   2.789
 1671SOL    HW1 1097   1.908   1.715   2.762
 1671SOL    HW2 1098   2.044   1.804   2.755
 1672SOL     OW 1099   2.366   1.568   2.772
 1672SOL    HW1 1100   2.432   1.642   2.781
 1672SOL    HW2 1101   2.410   1.489   2.730
 1673SOL     OW 1102   2.864   0.796   3.100
 1673SOL    HW1 1103   2.905   0.764   3.186
 1673SOL    HW2 1104   2.768   0.769   3.097
 1679SOL     OW 1105   2.114   1.564   3.606
 1679SOL    HW1 1106   2.084   1.621   3.682
 1679SOL    HW2 1107   2.107   1.467   3.632
 1681SOL     OW 1108   2.792   1.678   3.327
 1681SOL    HW1 1109   2.768   1.660   3.232
 1681SOL    HW2 1110   2.822   1.772   3.337
 1683SOL     OW 1111   2.021   1.137   3.328
 1683SOL    HW1 1112   2.043   1.076   3.404
 1683SOL    HW2 1113   2.031   1.088   3.242
 1684SOL     OW 1114   3.209   1.059   3.096
 1684SOL    HW1 1115   3.233   0.996   3.022
 1684SOL    HW2 1116   3.119   1.099   3.078
 1685SOL     OW 1117   3.164   0.855   2.171
 1685SOL    HW1 1118   3.078   0.824   2.213
 1685SOL    HW2 1119   3.160   0.841   2.072
 1686SOL     OW 1120   3.621   1.747   3.016
 1686SOL    HW1 1121   3.682   1.777   2.943
 1686SOL    HW2 1122   3.583   1.658   2.994
 1687SOL     OW 1123   3.114   1.731   2.990
 1687SOL    HW1 1124   3.198   1.736   2.936
 1687SOL    HW2 1125   3.091   1.635   3.008
 1688SOL     OW 1126   1.945   1.258   2.884
 1688SOL    HW1 1127   1.940   1.257   2.984
 1688SOL    HW2 1128   1.862   1.217   2.846
 1689SOL     OW 1129   2.550   1.662   3.578
 1689SOL    HW1 1130   2.494   1.743   3.587
 1689SOL    HW2 1131   2.602   1.666   3.492
 1691SOL     OW 1132   3.250   1.573   2.339
 1691SOL    HW1 1133   3.317   1.585   2.265
 1691SOL    HW2 1134   3.210   1.662   2.362
 1692SOL     OW 1135   1.992   1.794   3.713
 1692SOL    HW1 1136   1.951   1.720   3.766
 1692SOL    HW2 1137   2.056   1.845   3.771
 1693SOL     OW 1138   3.142   0.927   2.534
 1693SOL    HW1 1139   3.202   0.846   2.536
 1693SOL    HW2 1140   3.182   0.996   2.474
 1694SOL     OW 1141   2.692   1.273   3.284
 1694SOL    HW1 1142   2.687   1.306   3.379
 1694SOL    HW2 1143   2.606   1.292   3.238
 1695SOL     OW 1144   2.534   1.616   2.016
 1695SOL    HW1 1145   2.543   1.626   1.917
 1695SOL    HW2 1146   2.494   1.527   2.037
 1696SOL     OW 1147   3.512   1.720   3.256
 1696SOL    HW1 1148   3.565   1.730   3.172
 1696SOL    HW2 1149   3.485   1.810   3.290
 1699SOL     OW 1150   3.056   1.612   1.893
 1699SOL    HW1 1151   3.062   1.519   1.930
 1699SOL    HW2 1152   2.997   1.612   1.813
 1700SOL     OW 1153   2.684   1.002   3.234
 1700SOL    HW1 1154   2.724   1.001   3.142
 1700SOL    HW2 1155   2.694   1.094   3.274
 1701SOL     OW 1156   2.778   0.910   2.153
 1701SOL    HW1 1157   2.841   0.948   2.085
 1701SOL    HW2 1158   2.818   0.827   2.192
 1702SOL     OW 1159   3.366   1.607   1.906
 1702SOL    HW1 1160   3.274   1.644   1.913
 1702SOL    HW2 1161   3.404   1.627   1.816
 1703SOL     OW 1162   2.234   1.288   3.352
 1703SOL    HW1 1163   2.221   1.381   3.318
 1703SOL    HW2 1164   2.150   1.236   3.339
 1704SOL     OW 1165   3.476   1.292   3.151
 1704SOL    HW1 1166   3.536   1.295   3.231
 1704SOL    HW2 1167   3.401   1.356   3.164
 1705SOL     OW 1168   2.901   1.098   2.558
 1705SOL    HW1 1169   2.831   1.051   2.612
 1705SOL    HW2 1170   2.960   1.030   2.515
 1707SOL     OW 1171   2.452   1.487   2.353
 1707SOL    HW1 1172   2.494   1.429   2.283
 1707SOL    HW2 1173   2.408   1.566   2.309
 1709SOL     OW 1174   2.117   1.348   2.152
 1709SOL    HW1 1175   2.021   1.349   2.125
 1709SOL    HW2 1176   2.129   1.401   2.236
 1715SOL     OW 1177   3.045   1.335   1.981
 1715SOL    HW1 1178   2.946   1.324   1.983
 1715SOL    HW2 1179   3.079   1.350   2.074
 1716SOL     OW 1180   2.475   0.842   3.293
 1716SOL    HW1 1181   2.531   0.923   3.276
 1716SOL    HW2 1182   2.534   0.762   3.296
 1717SOL     OW 1183   3.355   1.767   2.821
 1717SOL    HW1 1184   3.388   1.831   2.752
 1717SOL    HW2 1185   3.421   1.761   2.896
 1720SOL     OW 1186   2.252   1.741   3.422
 1720SOL    HW1 1187   2.161   1.782   3.420
 1720SOL    HW2 1188   2.245   1.647   3.454
 1723SOL     OW 1189   2.456   0.745   2.514
 1723SOL    HW1 1190   2.506   0.830   2.495
 1723SOL    HW2 1191   2.368   0.747   2.466
 1726SOL     OW 1192   2.721   1.374   1.878
 1726SOL    HW1 1193   2.675   1.389   1.966
 1726SOL    HW2 1194   2.765   1.459   1.848
 1727SOL     OW 1195   2.523   1.790   2.815
 1727SOL    HW1 1196   2.477   1.878   2.802
 1727SOL    HW2 1197   2.622   1.802   2.808
 1728SOL     OW 1198   2.721   0.956   2.723
 1728SOL    HW1 1199   2.775   0.887   2.771
 1728SOL    HW2 1200   2.689   1.025   2.789
 1729SOL     OW 1201   2.945   0.984   1.949
 1729SOL    HW1 1202   2.922   1.037   1.867
 1729SOL    HW2 1203   3.026   0.928   1.930
 1730SOL     OW 1204   3.723   1.569   2.713
 1730SOL    HW1 1205   3.652   1.557   2.643
 1730SOL    HW2 1206   3.724   1.490   2.773
 1731SOL     OW 1207   2.083   1.314   3.706
 1731SOL    HW1 1208   2.018   1.241   3.685
 1731SOL    HW2 1209   2.087   1.328   3.804
 1732SOL     OW 1210   1.941   1.240   2.515
 1732SOL    HW1 1211   1.940   1.193   2.603
 1732SOL    HW2 1212   2.023   1.212   2.464
 1733SOL     OW 1213   2.534   1.391   3.486
 1733SOL    HW1 1214   2.456   1.341   3.524
 1733SOL    HW2 1215   2.531   1.486   3.517
 1736SOL     OW 1216   3.567   1.487   2.966
 1736SOL    HW1 1217   3.474   1.462   2.939
 1736SOL    HW2 1218   3.593   1.437   3.048
 1738SOL     OW 1219   2.674   1.586   2.549
 1738SOL    HW1 1220   2.706   1.596   2.455
 1738SOL    HW2 1221   2.595   1.524   2.551
 1741SOL     OW 1222   2.632   1.330   2.163
 1741SOL    HW1 1223   2.586   1.243   2.180
 1741SOL    HW2 1224   2.723   1.327   2.204
 1742SOL     OW 1225   2.480   1.567   3.146
 1742SOL    HW1 1226   2.475   1.649   3.203
 1742SOL    HW2 1227   2.569   1.564   3.101
 1746SOL     OW 1228   1.901   1.077   2.162
 1746SOL    HW1 1229   2.000   1.066   2.153
 1746SOL    HW2 1230   1.861   0.991   2.194
 1747SOL     OW 1231   2.737   1.646   2.199
 1747SOL    HW1 1232   2.660   1.611   2.145
 1747SOL    HW2 1233   2.705   1.717   2.261
 1762SOL     OW 1234   1.889   1.596   3.841
 1762SOL    HW1 1235   1.870   1.500   3.862
 1762SOL    HW2 1236   1.856   1.654   3.916
 1825SOL     OW 1237   2.534   1.616   3.878
 1825SOL    HW1 1238   2.543   1.626   3.779
 1825SOL    HW2 1239   2.494   1.527   3.899
 1828SOL     OW 1240   3.056   1.612   3.755
 1828SOL    HW1 1241   3.062   1.519   3.792
 1828SOL    HW2 1242   2.997   1.612   3.675
 1839SOL     OW 1243   2.721   1.374   3.740
 1839SOL    HW1 1244   2.675   1.389   3.828
 1839SOL    HW2 1245   2.765   1.459   3.710
 1855SOL     OW 1246   2.087   2.137   0.996
 1855SOL    HW1 1247   2.122   2.120   1.088
 1855SOL    HW2 1248   1.999   2.092   0.984
 1856SOL     OW 1249   1.881   2.230   0.647
 1856SOL    HW1 1250   1.799   2.273   0.686
 1856SOL    HW2 1251   1.853   2.157   0.584
 1857SOL     OW 1252   2.431   3.137   1.165
 1857SOL    HW1 1253   2.338   3.130   1.128
 1857SOL    HW2 1254   2.442   3.226   1.209
 1859SOL     OW 1255   2.997   2.565   0.717
 1859SOL    HW1 1256   3.054   2.643   0.692
 1859SOL    HW2 1257   2.937   2.591   0.793
 1861SOL     OW 1258   2.630   3.006   1.023
 1861SOL    HW1 1259   2.552   3.023   1.083
 1861SOL    HW2 1260   2.664   3.093   0.987
 1862SOL     OW 1261   2.712   2.660   1.823
 1862SOL    HW1 1262   2.708   2.736   1.888
 1862SOL    HW2 1263   2.734   2.696   1.732
 1863SOL     OW 1264   2.547   2.874   0.665
 1863SOL    HW1 1265   2.616   2.858   0.735
 1863SOL    HW2 1266   2.474   2.931   0.703
 1864SOL     OW 1267   2.548   3.023   1.803
 1864SOL    HW1 1268   2.608   3.102   1.817
 1864SOL    HW2 1269   2.462   3.054   1.762
 1865SOL     OW 1270   2.197   3.297   1.061
 1865SOL    HW1 1271   2.119   3.266   1.008
 1865SOL    HW2 1272   2.255   3.355   1.004
 1866SOL     OW 1273   3.322   3.367   1.339
 1866SOL    HW1 1274   3.346   3.461   1.365
 1866SOL    HW2 1275   3.306   3.313   1.421
 1867SOL     OW 1276   2.300   2.254   1.499
 1867SOL    HW1 1277   2.382   2.198   1.508
 1867SOL    HW2 1278   2.219   2.196   1.503
 1870SOL     OW 1279   2.989   3.203   1.690
 1870SOL    HW1 1280   3.036   3.203   1.778
 1870SOL    HW2 1281   2.941   3.116   1.679
 1872SOL     OW 1282   2.102   2.953   0.886
 1872SOL    HW1 1283   2.116   2.869   0.938
 1872SOL    HW2 1284   2.047   3.017   0.941
 1873SOL     OW 1285   2.482   3.648   1.439
 1873SOL    HW1 1286   2.390   3.631   1.474
 1873SOL    HW2 1287   2.510   3.740   1.465
 1875SOL     OW 1288   3.456   1.976   1.480
 1875SOL    HW1 1289   3.438   2.043   1.408
 1875SOL    HW2 1290   3.453   2.022   1.569
 1880SOL     OW 1291   1.975   2.599   1.597
 1880SOL    HW1 1292   2.063   2.586   1.642
 1880SOL    HW2 1293   1.962   2.696   1.575
 1882SOL     OW 1294   3.155   3.090   1.423
 1882SOL    HW1 1295   3.192   3.017   1.365
 1882SOL    HW2 1296   3.207   3.095   1.508
 1884SOL     OW 1297   2.059   2.838   1.264
 1884SOL    HW1 1298   2.148   2.793   1.250
 1884SOL    HW2 1299   1.986   2.773   1.245
 1886SOL     OW 1300   3.049   3.654   1.616
 1886SOL    HW1 1301   3.073   3.714   1.540
 1886SOL    HW2 1302   3.056   3.559   1.586
 1887SOL     OW 1303   2.179   2.113   1.801
 1887SOL    HW1 1304   2.250   2.184   1.807
 1887SOL    HW2 1305   2.091   2.152   1.829
 1891SOL     OW 1306   3.143   2.207   0.944
 1891SOL    HW1 1307   3.057   2.157   0.931
 1891SOL    HW2 1308   3.205   2.153   1.000
 1893SOL     OW 1309   2.669   2.467   1.465
 1893SOL    HW1 1310   2.622   2.464   1.554
 1893SOL    HW2 1311   2.618   2.412   1.399
 1894SOL     OW 1312   3.256   2.331   1.674
 1894SOL    HW1 1313   3.236   2.374   1.762
 1894SOL    HW2 1314   3.334   2.269   1.683
 1895SOL     OW 1315   2.835   2.752   1.572
 1895SOL    HW1 1316   2.881   2.668   1.543
 1895SOL    HW2 1317   2.779   2.786   1.497
 1896SOL     OW 1318   2.853   2.272   1.242
 1896SOL    HW1 1319   2.776   2.306   1.296
 1896SOL    HW2 1320   2.819   2.221   1.163
 1898SOL     OW 1321   1.938   2.673   0.789
 1898SOL    HW1 1322   2.037   2.661   0.798
 1898SOL    HW2 1323   1.914   2.768   0.810
 1899SOL     OW 1324   1.992   3.683   1.571
 1899SOL    HW1 1325   1.982   3.668   1.670
 1899SOL    HW2 1326   1.906   3.719   1.535
 1901SOL     OW 1327   3.581   2.447   1.831
 1901SOL    HW1 1328   3.555   2.536   1.795
 1901SOL    HW2 1329   3.579   2.379   1.758
 1903SOL     OW 1330   2.412   2.058   0.885
 1903SOL    HW1 1331   2.407   2.053   0.985
 1903SOL    HW2 1332   2.414   2.154   0.856
 1907SOL     OW 1333   3.089   3.412   1.506
 1907SOL    HW1 1334   3.095   3.335   1.570
 1907SOL    HW2 1335   3.037   3.386   1.426
 1910SOL     OW 1336   2.323   3.128   1.727
 1910SOL    HW1 1337   2.273   3.129   1.641
 1910SOL    HW2 1338   2.260   3.110   1.803
 1912SOL     OW 1339   2.064   2.147   1.498
 1912SOL    HW1 1340   1.984   2.207   1.485
 1912SOL    HW2 1341   2.054   2.098   1.584
 1916SOL     OW 1342   2.111   3.647   1.241
 1916SOL    HW1 1343   2.168   3.582   1.291
 1916SOL    HW2 1344   2.095   3.614   1.148
 1919SOL     OW 1345   3.409   2.084   1.729
 1919SOL    HW1 1346   3.404   2.121   1.821
 1919SOL    HW2 1347   3.337   2.015   1.717
 1920SOL     OW 1348   2.643   2.126   1.749
 1920SOL    HW1 1349   2.710   2.065   1.792
 1920SOL    HW2 1350   2.570   2.145   1.814
 1921SOL     OW 1351   2.750   3.376   1.195
 1921SOL    HW1 1352   2.727   3.351   1.101
 1921SOL    HW2 1353   2.811   3.307   1.234
 1922SOL     OW 1354   3.213   2.452   1.433
 1922SOL    HW1 1355   3.241   2.409   1.518
 1922SOL    HW2 1356   3.238   2.548   1.434
 1923SOL     OW 1357   2.665   3.264   0.924
 1923SOL    HW1 1358   2.755   3.278   0.882
 1923SOL    HW2 1359   2.594   3.266   0.853
 1924SOL     OW 1360   2.784   2.365   0.899
 1924SOL    HW1 1361   2.759   2.356   0.803
 1924SOL    HW2 1362   2.832   2.283   0.930
 1929SOL     OW 1363   2.938   2.545   1.464
 1929SOL    HW1 1364   2.858   2.484   1.467
 1929SOL    HW2 1365   3.019   2.492   1.440
 1931SOL     OW 1366   2.321   3.014   0.741
 1931SOL    HW1 1367   2.250   2.987   0.806
 1931SOL    HW2 1368   2.295   2.986   0.648
 1934SOL     OW 1369   1.940   2.418   1.386
 1934SOL    HW1 1370   2.032   2.417   1.345
 1934SOL    HW2 1371   1.934   2.492   1.453
 1935SOL     OW 1372   2.423   2.084   1.147
 1935SOL    HW1 1373   2.461   2.000   1.184
 1935SOL    HW2 1374   2.335   2.103   1.191
 1936SOL     OW 1375   2.728   2.316   0.642
 1936SOL    HW1 1376   2.696   2.388   0.580
 1936SOL    HW2 1377   2.752   2.235   0.589
 1937SOL     OW 1378   2.879   1.901   0.753
 1937SOL    HW1 1379   2.807   1.906   0.684
 1937SOL    HW2 1380   2.855   1.832   0.822
 1939SOL     OW 1381   3.328   2.452   0.992
 1939SOL    HW1 1382   3.298   2.357   0.999
 1939SOL    HW2 1383   3.401   2.468   1.058
 1945SOL     OW 1384   3.616   3.085   1.588
 1945SOL    HW1 1385   3.707   3.046   1.575
 1945SOL    HW2 1386   3.624   3.181   1.612
 1946SOL     OW 1387   2.926   3.209   1.340
 1946SOL    HW1 1388   2.846   3.186   1.395
 1946SOL    HW2 1389   3.009   3.183   1.389
 1947SOL     OW 1390   3.454   3.491   1.625
 1947SOL    HW1 1391   3.481   3.525   1.535
 1947SOL    HW2 1392   3.533   3.453   1.671
 1948SOL     OW 1393   2.973   3.057   1.100
 1948SOL    HW1 1394   2.933   3.101   1.181
 1948SOL    HW2 1395   2.932   3.094   1.017
 1950SOL     OW 1396   2.777   1.951   1.402
 1950SOL    HW1 1397   2.802   1.931   1.307
 1950SOL    HW2 1398   2.849   2.007   1.444
 1951SOL     OW 1399   2.842   2.978   1.719
 1951SOL    HW1 1400   2.743   2.984   1.729
 1951SOL    HW2 1401   2.865   2.898   1.663
 1953SOL     OW 1402   2.272   2.675   1.251
 1953SOL    HW1 1403   2.358   2.687   1.301
 1953SOL    HW2 1404   2.230   2.588   1.278
 1954SOL     OW 1405   3.136   2.248   1.262
 1954SOL    HW1 1406   3.157   2.322   1.326
 1954SOL    HW2 1407   3.047   2.265   1.219
 1955SOL     OW 1408   1.926   3.426   1.331
 1955SOL    HW1 1409   1.880   3.508   1.297
 1955SOL    HW2 1410   2.024   3.445   1.340
 1957SOL     OW 1411   2.428   2.399   0.865
 1957SOL    HW1 1412   2.440   2.465   0.791
 1957SOL    HW2 1413   2.474   2.433   0.948
 1959SOL     OW 1414   3.134   3.307   1.142
 1959SOL    HW1 1415   3.181   3.320   1.229
 1959SOL    HW2 1416   3.068   3.233   1.151
 1961SOL     OW 1417   2.216   3.372   1.329
 1961SOL    HW1 1418   2.195   3.328   1.242
 1961SOL    HW2 1419   2.313   3.398   1.332
 1962SOL     OW 1420   2.264   2.613   1.598
 1962SOL    HW1 1421   2.332   2.668   1.551
 1962SOL    HW2 1422   2.304   2.525   1.625
 1963SOL     OW 1423   3.449   2.641   1.670
 1963SOL    HW1 1424   3.357   2.679   1.665
 1963SOL    HW2 1425   3.509   2.688   1.605
 1964SOL     OW 1426   2.875   1.967   1.770
 1964SOL    HW1 1427   2.881   2.052   1.718
 1964SOL    HW2 1428   2.907   1.891   1.713
 1965SOL     OW 1429   2.366   1.912   1.740
 1965SOL    HW1 1430   2.324   1.855   1.670
 1965SOL    HW2 1431   2.300   1.981   1.772
 1966SOL     OW 1432   2.435   2.732   1.029
 1966SOL    HW1 1433   2.479   2.821   1.020
 1966SOL    HW2 1434   2.372   2.732   1.106
 1967SOL     OW 1435   3.222   2.724   1.045
 1967SOL    HW1 1436   3.147   2.724   0.979
 1967SOL    HW2 1437   3.259   2.632   1.054
 1969SOL     OW 1438   2.169   2.075   1.231
 1969SOL    HW1 1439   2.146   2.112   1.321
 1969SOL    HW2 1440   2.139   1.980   1.225
 1970SOL     OW 1441   1.899   3.172   1.282
 1970SOL    HW1 1442   1.952   3.123   1.350
 1970SOL    HW2 1443   1.921   3.270   1.287
 1971SOL     OW 1444   2.594   2.496   1.064
 1971SOL    HW1 1445   2.653   2.470   0.988
 1971SOL    HW2 1446   2.566   2.592   1.053
 1972SOL     OW 1447   3.590   2.797   1.854
 1972SOL    HW1 1448   3.544   2.790   1.765
 1972SOL    HW2 1449   3.528   2.841   1.920
 1973SOL     OW 1450   2.169   1.925   0.618
 1973SOL    HW1 1451   2.158   2.019   0.651
 1973SOL    HW2 1452   2.164   1.862   0.695
 1975SOL     OW 1453   2.885   2.628   0.966
 1975SOL    HW1 1454   2.900   2.649   1.062
 1975SOL    HW2 1455   2.855   2.533   0.957
 1976SOL     OW 1456   2.842   3.435   1.700
 1976SOL    HW1 1457   2.822   3.479   1.612
 1976SOL    HW2 1458   2.881   3.344   1.684
 1978SOL     OW 1459   2.212   2.760   1.804
 1978SOL    HW1 1460   2.288   2.804   1.852
 1978SOL    HW2 1461   2.247   2.713   1.722
 1982SOL     OW 1462   2.181   2.672   0.949
 1982SOL    HW1 1463   2.274   2.708   0.954
 1982SOL    HW2 1464   2.175   2.587   1.001
 1983SOL     OW 1465   2.201   2.371   1.006
 1983SOL    HW1 1466   2.149   2.288   0.989
 1983SOL    HW2 1467   2.278   2.376   0.942
 1984SOL     OW 1468   3.000   2.242   1.678
 1984SOL    HW1 1469   2.955   2.305   1.742
 1984SOL    HW2 1470   3.093   2.273   1.661
 1985SOL     OW 1471   3.022   2.069   1.477
 1985SOL    HW1 1472   3.022   2.133   1.554
 1985SOL    HW2 1473   3.050   2.117   1.394
 1988SOL     OW 1474   2.366   3.430   0.910
 1988SOL    HW1 1475   2.432   3.504   0.919
 1988SOL    HW2 1476   2.410   3.351   0.868
 1989SOL     OW 1477   2.864   2.658   1.238
 1989SOL    HW1 1478   2.905   2.626   1.324
 1989SOL    HW2 1479   2.768   2.631   1.235
 1990SOL     OW 1480   1.902   2.406   1.114
 1990SOL    HW1 1481   1.987   2.373   1.073
 1990SOL    HW2 1482   1.915   2.421   1.212
 1991SOL     OW 1483   2.051   2.382   1.722
 1991SOL    HW1 1484   2.110   2.342   1.652
 1991SOL    HW2 1485   1.993   2.453   1.681
 1992SOL     OW 1486   3.231   2.812   1.660
 1992SOL    HW1 1487   3.270   2.901   1.680
 1992SOL    HW2 1488   3.241   2.792   1.563
 1994SOL     OW 1489   3.519   2.466   1.206
 1994SOL    HW1 1490   3.481   2.397   1.268
 1994SOL    HW2 1491   3.601   2.430   1.162
 1995SOL     OW 1492   2.114   3.426   1.744
 1995SOL    HW1 1493   2.084   3.483   1.820
 1995SOL    HW2 1494   2.107   3.329   1.770
 1996SOL     OW 1495   2.533   2.326   1.269
 1996SOL    HW1 1496   2.499   2.237   1.239
 1996SOL    HW2 1497   2.559   2.380   1.189
 1997SOL     OW 1498   2.792   3.540   1.465
 1997SOL    HW1 1499   2.768   3.522   1.370
 1997SOL    HW2 1500   2.822   3.634   1.475
 1999SOL     OW 1501   2.021   2.999   1.466
 1999SOL    HW1 1502   2.043   2.938   1.542
 1999SOL    HW2 1503   2.031   2.950   1.380
 2000SOL     OW 1504   3.209   2.921   1.234
 2000SOL    HW1 1505   3.233   2.858   1.160
 2000SOL    HW2 1506   3.119   2.961   1.216
 2004SOL     OW 1507   1.945   3.120   1.022
 2004SOL    HW1 1508   1.940   3.119   1.122
 2004SOL    HW2 1509   1.862   3.079   0.984
 2005SOL     OW 1510   2.550   3.524   1.716
 2005SOL    HW1 1511   2.494   3.605   1.725
 2005SOL    HW2 1512   2.602   3.528   1.630
 2009SOL     OW 1513   1.992   3.656   1.851
 2009SOL    HW1 1514   1.951   3.582   1.904
 2009SOL    HW2 1515   2.056   3.707   1.909
 2011SOL     OW 1516   2.692   3.135   1.422
 2011SOL    HW1 1517   2.687   3.168   1.517
 2011SOL    HW2 1518   2.606   3.154   1.376
 2015SOL     OW 1519   2.125   2.188   0.720
 2015SOL    HW1 1520   2.046   2.239   0.686
 2015SOL    HW2 1521   2.116   2.173   0.818
 2017SOL     OW 1522   2.684   2.864   1.372
 2017SOL    HW1 1523   2.724   2.863   1.280
 2017SOL    HW2 1524   2.694   2.956   1.412
 2020SOL     OW 1525   2.234   3.150   1.490
 2020SOL    HW1 1526   2.221   3.243   1.456
 2020SOL    HW2 1527   2.150   3.098   1.477
 2021SOL     OW 1528   3.476   3.154   1.289
 2021SOL    HW1 1529   3.536   3.157   1.369
 2021SOL    HW2 1530   3.401   3.218   1.302
 2023SOL     OW 1531   2.876   2.098   0.971
 2023SOL    HW1 1532   2.868   2.062   0.878
 2023SOL    HW2 1533   2.874   2.022   1.036
 2025SOL     OW 1534   3.571   2.247   1.381
 2025SOL    HW1 1535   3.644   2.316   1.385
 2025SOL    HW2 1536   3.599   2.172   1.322
 2027SOL     OW 1537   1.967   2.875   1.726
 2027SOL    HW1 1538   1.890   2.842   1.780
 2027SOL    HW2 1539   2.052   2.845   1.768
 2028SOL     OW 1540   2.534   2.065   1.489
 2028SOL    HW1 1541   2.624   2.049   1.449
 2028SOL    HW2 1542   2.542   2.070   1.588
 2029SOL     OW 1543   3.302   2.718   1.398
 2029SOL    HW1 1544   3.245   2.770   1.335
 2029SOL    HW2 1545   3.398   2.730   1.374
 2032SOL     OW 1546   2.475   2.704   1.431
 2032SOL    HW1 1547   2.531   2.785   1.414
 2032SOL    HW2 1548   2.534   2.624   1.434
 2034SOL     OW 1549   2.578   2.427   1.708
 2034SOL    HW1 1550   2.597   2.492   1.782
 2034SOL    HW2 1551   2.638   2.347   1.717
 2035SOL     OW 1552   3.312   3.082   1.633
 2035SOL    HW1 1553   3.303   3.072   1.732
 2035SOL    HW2 1554   3.408   3.075   1.607
 2036SOL     OW 1555   2.252   3.603   1.560
 2036SOL    HW1 1556   2.161   3.644   1.558
 2036SOL    HW2 1557   2.245   3.509   1.592
 2037SOL     OW 1558   3.536   2.745   1.254
 2037SOL    HW1 1559   3.509   2.656   1.217
 2037SOL    HW2 1560   3.537   2.813   1.181
 2039SOL     OW 1561   2.456   2.607   0.652
 2039SOL    HW1 1562   2.506   2.692   0.633
 2039SOL    HW2 1563   2.368   2.609   0.604
 2040SOL     OW 1564   3.639   2.204   1.642
 2040SOL    HW1 1565   3.622   2.235   1.548
 2040SOL    HW2 1566   3.555   2.167   1.680
 2041SOL     OW 1567   3.592   2.796   1.517
 2041SOL    HW1 1568   3.630   2.887   1.532
 2041SOL    HW2 1569   3.584   2.779   1.418
 2044SOL     OW 1570   2.721   2.818   0.861
 2044SOL    HW1 1571   2.775   2.749   0.909
 2044SOL    HW2 1572   2.689   2.887   0.927
 2047SOL     OW 1573   2.083   3.176   1.844
 2047SOL    HW1 1574   2.018   3.103   1.823
 2047SOL    HW2 1575   2.087   3.190   1.942
 2049SOL     OW 1576   2.534   3.253   1.624
 2049SOL    HW1 1577   2.456   3.203   1.662
 2049SOL    HW2 1578   2.531   3.348   1.655
 2050SOL     OW 1579   3.686   2.054   1.227
 2050SOL    HW1 1580   3.682   1.964   1.271
 2050SOL    HW2 1581   3.689   2.043   1.128
 2053SOL     OW 1582   2.179   2.409   1.280
 2053SOL    HW1 1583   2.217   2.350   1.352
 2053SOL    HW2 1584   2.219   2.383   1.192
 2055SOL     OW 1585   3.286   2.076   1.112
 2055SOL    HW1 1586   3.338   2.011   1.167
 2055SOL    HW2 1587   3.237   2.139   1.173
 2056SOL     OW 1588   2.863   1.896   1.154
 2056SOL    HW1 1589   2.800   1.824   1.123
 2056SOL    HW2 1590   2.956   1.860   1.154
 2058SOL     OW 1591   2.480   3.429   1.284
 2058SOL    HW1 1592   2.475   3.511   1.341
 2058SOL    HW2 1593   2.569   3.426   1.239
 2064SOL     OW 1594   2.092   2.490   1.975
 2064SOL    HW1 1595   1.999   2.488   2.012
 2064SOL    HW2 1596   2.093   2.451   1.883
 2065SOL     OW 1597   2.087   2.137   2.858
 2065SOL    HW1 1598   2.122   2.120   2.950
 2065SOL    HW2 1599   1.999   2.092   2.846
 2066SOL     OW 1600   1.881   2.230   2.509
 2066SOL    HW1 1601   1.799   2.273   2.548
 2066SOL    HW2 1602   1.853   2.157   2.446
 2067SOL     OW 1603   2.431   3.137   3.027
 2067SOL    HW1 1604   2.338   3.130   2.990
 2067SOL    HW2 1605   2.442   3.226   3.071
 2068SOL     OW 1606   3.417   3.373   2.565
 2068SOL    HW1 1607   3.360   3.357   2.646
 2068SOL    HW2 1608   3.358   3.383   2.485
 2069SOL     OW 1609   2.997   2.565   2.579
 2069SOL    HW1 1610   3.054   2.643   2.554
 2069SOL    HW2 1611   2.937   2.591   2.655
 2070SOL     OW 1612   3.617   2.469   2.093
 2070SOL    HW1 1613   3.605   2.456   1.994
 2070SOL    HW2 1614   3.587   2.388   2.142
 2071SOL     OW 1615   2.630   3.006   2.885
 2071SOL    HW1 1616   2.552   3.023   2.945
 2071SOL    HW2 1617   2.664   3.093   2.849
 2072SOL     OW 1618   2.712   2.660   3.685
 2072SOL    HW1 1619   2.708   2.736   3.750
 2072SOL    HW2 1620   2.734   2.696   3.594
 2073SOL     OW 1621   2.547   2.874   2.527
 2073SOL    HW1 1622   2.616   2.858   2.597
 2073SOL    HW2 1623   2.474   2.931   2.565
 2074SOL     OW 1624   2.548   3.023   3.665
 2074SOL    HW1 1625   2.608   3.102   3.679
 2074SOL    HW2 1626   2.462   3.054   3.624
 2075SOL     OW 1627   2.197   3.297   2.923
 2075SOL    HW1 1628   2.119   3.266   2.870
 2075SOL    HW2 1629   2.255   3.355   2.866
 2076SOL     OW 1630   3.322   3.367   3.201
 2076SOL    HW1 1631   3.346   3.461   3.227
 2076SOL    HW2 1632   3.306   3.313   3.283
 2077SOL     OW 1633   2.300   2.254   3.361
 2077SOL    HW1 1634   2.382   2.198   3.370
 2077SOL    HW2 1635   2.219   2.196   3.365
 2078SOL     OW 1636   3.465   2.309   2.599
 2078SOL    HW1 1637   3.391   2.355   2.549
 2078SOL    HW2 1638   3.516   2.377   2.652
 2079SOL     OW 1639   2.093   3.575   2.345
 2079SOL    HW1 1640   2.127   3.652   2.399
 2079SOL    HW2 1641   2.137   3.575   2.255
 2080SOL     OW 1642   2.989   3.203   3.552
 2080SOL    HW1 1643   3.036   3.203   3.640
 2080SOL    HW2 1644   2.941   3.116   3.541
 2081SOL     OW 1645   2.092   3.296   2.400
 2081SOL    HW1 1646   2.066   3.392   2.400
 2081SOL    HW2 1647   2.021   3.242   2.445
 2082SOL     OW 1648   2.102   2.953   2.748
 2082SOL    HW1 1649   2.116   2.869   2.800
 2082SOL    HW2 1650   2.047   3.017   2.803
 2083SOL     OW 1651   2.482   3.648   3.301
 2083SOL    HW1 1652   2.390   3.631   3.336
 2083SOL    HW2 1653   2.510   3.740   3.327
 2084SOL     OW 1654   2.468   2.826   1.985
 2084SOL    HW1 1655   2.475   2.910   1.931
 2084SOL    HW2 1656   2.514   2.839   2.073
 2085SOL     OW 1657   3.456   1.976   3.342
 2085SOL    HW1 1658   3.438   2.043   3.270
 2085SOL    HW2 1659   3.453   2.022   3.431
 2086SOL     OW 1660   1.984   2.505   2.425
 2086SOL    HW1 1661   1.939   2.417   2.442
 2086SOL    HW2 1662   1.983   2.559   2.509
 2088SOL     OW 1663   1.889   3.458   1.979
 2088SOL    HW1 1664   1.870   3.362   2.000
 2088SOL    HW2 1665   1.856   3.516   2.054
 2089SOL     OW 1666   3.551   2.784   2.474
 2089SOL    HW1 1667   3.646   2.755   2.482
 2089SOL    HW2 1668   3.543   2.849   2.399
 2090SOL     OW 1669   3.503   2.970   2.294
 2090SOL    HW1 1670   3.589   2.972   2.242
 2090SOL    HW2 1671   3.517   3.017   2.382
 2091SOL     OW 1672   1.975   2.599   3.459
 2091SOL    HW1 1673   2.063   2.586   3.504
 2091SOL    HW2 1674   1.962   2.696   3.437
 2092SOL     OW 1675   2.475   3.227   2.588
 2092SOL    HW1 1676   2.426   3.140   2.597
 2092SOL    HW2 1677   2.452   3.270   2.501
 2093SOL     OW 1678   3.155   3.090   3.285
 2093SOL    HW1 1679   3.192   3.017   3.227
 2093SOL    HW2 1680   3.207   3.095   3.370
 2094SOL     OW 1681   2.671   1.866   2.364
 2094SOL    HW1 1682   2.711   1.957   2.355
 2094SOL    HW2 1683   2.571   1.874   2.370
 2095SOL     OW 1684   2.059   2.838   3.126
 2095SOL    HW1 1685   2.148   2.793   3.112
 2095SOL    HW2 1686   1.986   2.773   3.107
 2096SOL     OW 1687   3.387   2.861   2.052
 2096SOL    HW1 1688   3.324   2.785   2.065
 2096SOL    HW2 1689   3.435   2.879   2.138
 2098SOL     OW 1690   2.179   2.113   3.663
 2098SOL    HW1 1691   2.250   2.184   3.669
 2098SOL    HW2 1692   2.091   2.152   3.691
 2099SOL     OW 1693   3.328   3.279   2.815
 2099SOL    HW1 1694   3.269   3.285   2.895
 2099SOL    HW2 1695   3.313   3.191   2.769
 2100SOL     OW 1696   3.529   3.576   2.434
 2100SOL    HW1 1697   3.488   3.553   2.346
 2100SOL    HW2 1698   3.511   3.502   2.499
 2101SOL     OW 1699   2.460   2.591   2.132
 2101SOL    HW1 1700   2.484   2.660   2.064
 2101SOL    HW2 1701   2.382   2.624   2.186
 2102SOL     OW 1702   3.143   2.207   2.806
 2102SOL    HW1 1703   3.057   2.157   2.793
 2102SOL    HW2 1704   3.205   2.153   2.862
 2103SOL     OW 1705   3.438   3.524   2.169
 2103SOL    HW1 1706   3.527   3.570   2.172
 2103SOL    HW2 1707   3.417   3.500   2.074
 2104SOL     OW 1708   2.669   2.467   3.327
 2104SOL    HW1 1709   2.622   2.464   3.416
 2104SOL    HW2 1710   2.618   2.412   3.261
 2105SOL     OW 1711   3.256   2.331   3.536
 2105SOL    HW1 1712   3.236   2.374   3.624
 2105SOL    HW2 1713   3.334   2.269   3.545
 2106SOL     OW 1714   2.835   2.752   3.434
 2106SOL    HW1 1715   2.881   2.668   3.405
 2106SOL    HW2 1716   2.779   2.786   3.359
 2107SOL     OW 1717   2.853   2.272   3.104
 2107SOL    HW1 1718   2.776   2.306   3.158
 2107SOL    HW2 1719   2.819   2.221   3.025
 2108SOL     OW 1720   2.903   2.563   2.291
 2108SOL    HW1 1721   2.929   2.559   2.387
 2108SOL    HW2 1722   2.818   2.512   2.277
 2109SOL     OW 1723   1.938   2.673   2.651
 2109SOL    HW1 1724   2.037   2.661   2.660
 2109SOL    HW2 1725   1.914   2.768   2.672
 2110SOL     OW 1726   1.992   3.683   3.433
 2110SOL    HW1 1727   1.982   3.668   3.532
 2110SOL    HW2 1728   1.906   3.719   3.397
 2111SOL     OW 1729   2.727   2.210   2.057
 2111SOL    HW1 1730   2.786   2.273   2.008
 2111SOL    HW2 1731   2.746   2.116   2.028
 2113SOL     OW 1732   3.224   3.006   2.407
 2113SOL    HW1 1733   3.307   2.977   2.359
 2113SOL    HW2 1734   3.175   3.073   2.351
 2114SOL     OW 1735   2.412   2.058   2.747
 2114SOL    HW1 1736   2.407   2.053   2.847
 2114SOL    HW2 1737   2.414   2.154   2.718
 2115SOL     OW 1738   2.870   3.318   2.339
 2115SOL    HW1 1739   2.824   3.390   2.287
 2115SOL    HW2 1740   2.866   3.338   2.437
 2116SOL     OW 1741   2.213   3.663   2.715
 2116SOL    HW1 1742   2.263   3.577   2.721
 2116SOL    HW2 1743   2.278   3.740   2.712
 2117SOL     OW 1744   3.657   2.928   2.735
 2117SOL    HW1 1745   3.595   2.913   2.659
 2117SOL    HW2 1746   3.605   2.939   2.820
 2118SOL     OW 1747   3.089   3.412   3.368
 2118SOL    HW1 1748   3.095   3.335   3.432
 2118SOL    HW2 1749   3.037   3.386   3.288
 2119SOL     OW 1750   2.183   2.805   2.104
 2119SOL    HW1 1751   2.265   2.844   2.062
 2119SOL    HW2 1752   2.156   2.723   2.055
 2120SOL     OW 1753   3.320   2.597   2.590
 2120SOL    HW1 1754   3.315   2.532   2.665
 2120SOL    HW2 1755   3.400   2.656   2.603
 2121SOL     OW 1756   2.323   3.128   3.589
 2121SOL    HW1 1757   2.273   3.129   3.503
 2121SOL    HW2 1758   2.260   3.110   3.665
 2122SOL     OW 1759   2.973   3.638   2.099
 2122SOL    HW1 1760   2.913   3.576   2.149
 2122SOL    HW2 1761   3.004   3.594   2.014
 2123SOL     OW 1762   2.064   2.147   3.360
 2123SOL    HW1 1763   1.984   2.207   3.347
 2123SOL    HW2 1764   2.054   2.098   3.446
 2124SOL     OW 1765   3.494   3.239   1.943
 2124SOL    HW1 1766   3.462   3.333   1.933
 2124SOL    HW2 1767   3.418   3.176   1.931
 2125SOL     OW 1768   2.326   3.605   2.185
 2125SOL    HW1 1769   2.359   3.644   2.271
 2125SOL    HW2 1770   2.402   3.598   2.120
 2126SOL     OW 1771   3.262   1.969   2.288
 2126SOL    HW1 1772   3.238   1.932   2.198
 2126SOL    HW2 1773   3.361   1.985   2.292
 2127SOL     OW 1774   2.111   3.647   3.103
 2127SOL    HW1 1775   2.168   3.582   3.153
 2127SOL    HW2 1776   2.095   3.614   3.010
 2128SOL     OW 1777   2.802   3.560   2.766
 2128SOL    HW1 1778   2.882   3.503   2.787
 2128SOL    HW2 1779   2.753   3.520   2.689
 2129SOL     OW 1780   3.409   2.084   3.591
 2129SOL    HW1 1781   3.404   2.121   3.683
 2129SOL    HW2 1782   3.337   2.015   3.579
 2130SOL     OW 1783   2.476   1.984   1.979
 2130SOL    HW1 1784   2.574   1.962   1.986
 2130SOL    HW2 1785   2.445   1.967   1.886
 2131SOL     OW 1786   2.643   2.126   3.611
 2131SOL    HW1 1787   2.710   2.065   3.654
 2131SOL    HW2 1788   2.570   2.145   3.676
 2132SOL     OW 1789   2.750   3.376   3.057
 2132SOL    HW1 1790   2.727   3.351   2.963
 2132SOL    HW2 1791   2.811   3.307   3.096
 2133SOL     OW 1792   3.213   2.452   3.295
 2133SOL    HW1 1793   3.241   2.409   3.380
 2133SOL    HW2 1794   3.238   2.548   3.296
 2134SOL     OW 1795   2.665   3.264   2.786
 2134SOL    HW1 1796   2.755   3.278   2.744
 2134SOL    HW2 1797   2.594   3.266   2.715
 2135SOL     OW 1798   2.784   2.365   2.761
 2135SOL    HW1 1799   2.759   2.356   2.665
 2135SOL    HW2 1800   2.832   2.283   2.792
 2136SOL     OW 1801   2.401   1.926   2.374
 2136SOL    HW1 1802   2.320   1.927   2.432
 2136SOL    HW2 1803   2.404   2.009   2.319
 2137SOL     OW 1804   3.296   3.050   1.903
 2137SOL    HW1 1805   3.328   2.974   1.960
 2137SOL    HW2 1806   3.204   3.077   1.933
 2138SOL     OW 1807   2.159   1.897   2.033
 2138SOL    HW1 1808   2.208   1.981   2.012
 2138SOL    HW2 1809   2.221   1.832   2.078
 2139SOL     OW 1810   2.797   2.098   2.342
 2139SOL    HW1 1811   2.749   2.139   2.264
 2139SOL    HW2 1812   2.896   2.096   2.323
 2140SOL     OW 1813   2.938   2.545   3.326
 2140SOL    HW1 1814   2.858   2.484   3.329
 2140SOL    HW2 1815   3.019   2.492   3.302
 2141SOL     OW 1816   3.089   3.432   2.655
 2141SOL    HW1 1817   3.110   3.506   2.590
 2141SOL    HW2 1818   3.157   3.432   2.728
 2142SOL     OW 1819   2.321   3.014   2.603
 2142SOL    HW1 1820   2.250   2.987   2.668
 2142SOL    HW2 1821   2.295   2.986   2.510
 2143SOL     OW 1822   3.133   3.659   2.453
 2143SOL    HW1 1823   3.177   3.723   2.389
 2143SOL    HW2 1824   3.083   3.711   2.523
 2144SOL     OW 1825   2.894   2.411   1.878
 2144SOL    HW1 1826   2.853   2.493   1.839
 2144SOL    HW2 1827   2.958   2.437   1.951
 2145SOL     OW 1828   1.940   2.418   3.248
 2145SOL    HW1 1829   2.032   2.417   3.207
 2145SOL    HW2 1830   1.934   2.492   3.315
 2146SOL     OW 1831   2.423   2.084   3.009
 2146SOL    HW1 1832   2.461   2.000   3.046
 2146SOL    HW2 1833   2.335   2.103   3.053
 2147SOL     OW 1834   2.728   2.316   2.504
 2147SOL    HW1 1835   2.696   2.388   2.442
 2147SOL    HW2 1836   2.752   2.235   2.451
 2148SOL     OW 1837   2.879   1.901   2.615
 2148SOL    HW1 1838   2.807   1.906   2.546
 2148SOL    HW2 1839   2.855   1.832   2.684
 2149SOL     OW 1840   3.291   3.035   2.729
 2149SOL    HW1 1841   3.236   2.951   2.722
 2149SOL    HW2 1842   3.317   3.064   2.637
 2150SOL     OW 1843   3.328   2.452   2.854
 2150SOL    HW1 1844   3.298   2.357   2.861
 2150SOL    HW2 1845   3.401   2.468   2.920
 2151SOL     OW 1846   3.719   2.695   2.239
 2151SOL    HW1 1847   3.761   2.631   2.303
 2151SOL    HW2 1848   3.681   2.644   2.161
 2152SOL     OW 1849   2.350   3.247   2.036
 2152SOL    HW1 1850   2.263   3.232   2.083
 2152SOL    HW2 1851   2.333   3.273   1.941
 2153SOL     OW 1852   3.526   3.142   2.519
 2153SOL    HW1 1853   3.625   3.150   2.533
 2153SOL    HW2 1854   3.481   3.226   2.550
 2154SOL     OW 1855   3.252   2.437   1.940
 2154SOL    HW1 1856   3.198   2.416   2.021
 2154SOL    HW2 1857   3.343   2.396   1.949
 2156SOL     OW 1858   2.926   3.209   3.202
 2156SOL    HW1 1859   2.846   3.186   3.257
 2156SOL    HW2 1860   3.009   3.183   3.251
 2158SOL     OW 1861   2.973   3.057   2.962
 2158SOL    HW1 1862   2.933   3.101   3.043
 2158SOL    HW2 1863   2.932   3.094   2.879
 2159SOL     OW 1864   3.500   2.961   2.941
 2159SOL    HW1 1865   3.505   3.042   3.000
 2159SOL    HW2 1866   3.414   2.963   2.890
 2160SOL     OW 1867   2.777   1.951   3.264
 2160SOL    HW1 1868   2.802   1.931   3.169
 2160SOL    HW2 1869   2.849   2.007   3.306
 2161SOL     OW 1870   2.842   2.978   3.581
 2161SOL    HW1 1871   2.743   2.984   3.591
 2161SOL    HW2 1872   2.865   2.898   3.525
 2162SOL     OW 1873   2.567   2.912   2.230
 2162SOL    HW1 1874   2.553   2.919   2.329
 2162SOL    HW2 1875   2.651   2.861   2.212
 2163SOL     OW 1876   2.272   2.675   3.113
 2163SOL    HW1 1877   2.358   2.687   3.163
 2163SOL    HW2 1878   2.230   2.588   3.140
 2164SOL     OW 1879   3.136   2.248   3.124
 2164SOL    HW1 1880   3.157   2.322   3.188
 2164SOL    HW2 1881   3.047   2.265   3.081
 2165SOL     OW 1882   1.926   3.426   3.193
 2165SOL    HW1 1883   1.880   3.508   3.159
 2165SOL    HW2 1884   2.024   3.445   3.202
 2166SOL     OW 1885   2.229   2.962   2.363
 2166SOL    HW1 1886   2.222   3.045   2.307
 2166SOL    HW2 1887   2.233   2.882   2.303
 2167SOL     OW 1888   3.114   3.210   2.250
 2167SOL    HW1 1889   3.164   3.287   2.290
 2167SOL    HW2 1890   3.019   3.212   2.282
 2168SOL     OW 1891   3.134   3.307   3.004
 2168SOL    HW1 1892   3.181   3.320   3.091
 2168SOL    HW2 1893   3.068   3.233   3.013
 2169SOL     OW 1894   3.444   2.501   2.334
 2169SOL    HW1 1895   3.413   2.562   2.407
 2169SOL    HW2 1896   3.494   2.553   2.265
 2170SOL     OW 1897   2.216   3.372   3.191
 2170SOL    HW1 1898   2.195   3.328   3.104
 2170SOL    HW2 1899   2.313   3.398   3.194
 2171SOL     OW 1900   2.264   2.613   3.460
 2171SOL    HW1 1901   2.332   2.668   3.413
 2171SOL    HW2 1902   2.304   2.525   3.487
 2172SOL     OW 1903   3.449   2.641   3.532
 2172SOL    HW1 1904   3.357   2.679   3.527
 2172SOL    HW2 1905   3.509   2.688   3.467
 2173SOL     OW 1906   2.875   1.967   3.632
 2173SOL    HW1 1907   2.881   2.052   3.580
 2173SOL    HW2 1908   2.907   1.891   3.575
 2174SOL     OW 1909   2.366   1.912   3.602
 2174SOL    HW1 1910   2.324   1.855   3.532
 2174SOL    HW2 1911   2.300   1.981   3.634
 2175SOL     OW 1912   2.435   2.732   2.891
 2175SOL    HW1 1913   2.479   2.821   2.882
 2175SOL    HW2 1914   2.372   2.732   2.968
 2176SOL     OW 1915   3.222   2.724   2.907
 2176SOL    HW1 1916   3.147   2.724   2.841
 2176SOL    HW2 1917   3.259   2.632   2.916
 2177SOL     OW 1918   3.071   2.387   2.137
 2177SOL    HW1 1919   3.084   2.303   2.191
 2177SOL    HW2 1920   3.042   2.461   2.197
 2178SOL     OW 1921   2.169   2.075   3.093
 2178SOL    HW1 1922   2.146   2.112   3.183
 2178SOL    HW2 1923   2.139   1.980   3.087
 2179SOL     OW 1924   1.899   3.172   3.144
 2179SOL    HW1 1925   1.952   3.123   3.212
 2179SOL    HW2 1926   1.921   3.270   3.149
 2180SOL     OW 1927   2.594   2.496   2.926
 2180SOL    HW1 1928   2.653   2.470   2.850
 2180SOL    HW2 1929   2.566   2.592   2.915
 2182SOL     OW 1930   2.169   1.925   2.480
 2182SOL    HW1 1931   2.158   2.019   2.513
 2182SOL    HW2 1932   2.164   1.862   2.557
 2183SOL     OW 1933   3.484   2.229   2.236
 2183SOL    HW1 1934   3.486   2.153   2.300
 2183SOL    HW2 1935   3.436   2.306   2.276
 2184SOL     OW 1936   2.885   2.628   2.828
 2184SOL    HW1 1937   2.900   2.649   2.924
 2184SOL    HW2 1938   2.855   2.533   2.819
 2185SOL     OW 1939   2.842   3.435   3.562
 2185SOL    HW1 1940   2.822   3.479   3.474
 2185SOL    HW2 1941   2.881   3.344   3.546
 2187SOL     OW 1942   2.212   2.760   3.666
 2187SOL    HW1 1943   2.288   2.804   3.714
 2187SOL    HW2 1944   2.247   2.713   3.584
 2188SOL     OW 1945   3.402   2.136   1.987
 2188SOL    HW1 1946   3.341   2.061   2.010
 2188SOL    HW2 1947   3.424   2.188   2.070
 2189SOL     OW 1948   3.165   2.700   1.904
 2189SOL    HW1 1949   3.199   2.607   1.919
 2189SOL    HW2 1950   3.183   2.727   1.809
 2190SOL     OW 1951   2.930   3.195   2.711
 2190SOL    HW1 1952   2.937   3.111   2.656
 2190SOL    HW2 1953   2.992   3.264   2.675
 2191SOL     OW 1954   2.181   2.672   2.811
 2191SOL    HW1 1955   2.274   2.708   2.816
 2191SOL    HW2 1956   2.175   2.587   2.863
 2192SOL     OW 1957   3.000   2.242   3.540
 2192SOL    HW1 1958   2.955   2.305   3.604
 2192SOL    HW2 1959   3.093   2.273   3.523
 2193SOL     OW 1960   3.022   2.069   3.339
 2193SOL    HW1 1961   3.022   2.133   3.416
 2193SOL    HW2 1962   3.050   2.117   3.256
 2194SOL     OW 1963   1.870   3.188   2.062
 2194SOL    HW1 1964   1.777   3.209   2.031
 2194SOL    HW2 1965   1.880   3.089   2.075
 2195SOL     OW 1966   1.950   3.663   2.789
 2195SOL    HW1 1967   1.908   3.577   2.762
 2195SOL    HW2 1968   2.044   3.666   2.755
 2196SOL     OW 1969   2.366   3.430   2.772
 2196SOL    HW1 1970   2.432   3.504   2.781
 2196SOL    HW2 1971   2.410   3.351   2.730
 2197SOL     OW 1972   2.864   2.658   3.100
 2197SOL    HW1 1973   2.905   2.626   3.186
 2197SOL    HW2 1974   2.768   2.631   3.097
 2198SOL     OW 1975   1.902   2.406   2.976
 2198SOL    HW1 1976   1.987   2.373   2.935
 2198SOL    HW2 1977   1.915   2.421   3.074
 2199SOL     OW 1978   2.051   2.382   3.584
 2199SOL    HW1 1979   2.110   2.342   3.514
 2199SOL    HW2 1980   1.993   2.453   3.543
 2200SOL     OW 1981   3.231   2.812   3.522
 2200SOL    HW1 1982   3.270   2.901   3.542
 2200SOL    HW2 1983   3.241   2.792   3.425
 2201SOL     OW 1984   2.677   2.434   2.187
 2201SOL    HW1 1985   2.684   2.345   2.141
 2201SOL    HW2 1986   2.583   2.468   2.179
 2202SOL     OW 1987   3.519   2.466   3.068
 2202SOL    HW1 1988   3.481   2.397   3.130
 2202SOL    HW2 1989   3.601   2.430   3.024
 2203SOL     OW 1990   2.114   3.426   3.606
 2203SOL    HW1 1991   2.084   3.483   3.682
 2203SOL    HW2 1992   2.107   3.329   3.632
 2204SOL     OW 1993   2.533   2.326   3.131
 2204SOL    HW1 1994   2.499   2.237   3.101
 2204SOL    HW2 1995   2.559   2.380   3.051
 2205SOL     OW 1996   2.792   3.540   3.327
 2205SOL    HW1 1997   2.768   3.522   3.232
 2205SOL    HW2 1998   2.822   3.634   3.337
 2206SOL     OW 1999   2.021   2.999   3.328
 2206SOL    HW1 2000   2.043   2.938   3.404
 2206SOL    HW2 2001   2.031   2.950   3.242
 2207SOL     OW 2002   3.209   2.921   3.096
 2207SOL    HW1 2003   3.233   2.858   3.022
 2207SOL    HW2 2004   3.119   2.961   3.078
 2208SOL     OW 2005   3.164   2.717   2.171
 2208SOL    HW1 2006   3.078   2.686   2.213
 2208SOL    HW2 2007   3.160   2.703   2.072
 2210SOL     OW 2008   3.114   3.593   2.990
 2210SOL    HW1 2009   3.198   3.598   2.936
 2210SOL    HW2 2010   3.091   3.497   3.008
 2211SOL     OW 2011   1.945   3.120   2.884
 2211SOL    HW1 2012   1.940   3.119   2.984
 2211SOL    HW2 2013   1.862   3.079   2.846
 2212SOL     OW 2014   2.550   3.524   3.578
 2212SOL    HW1 2015   2.494   3.605   3.587
 2212SOL    HW2 2016   2.602   3.528   3.492
 2213SOL     OW 2017   3.588   1.997   2.385
 2213SOL    HW1 2018   3.661   1.980   2.318
 2213SOL    HW2 2019   3.557   1.910   2.423
 2214SOL     OW 2020   3.250   3.435   2.339
 2214SOL    HW1 2021   3.317   3.447   2.265
 2214SOL    HW2 2022   3.210   3.524   2.362
 2216SOL     OW 2023   3.142   2.789   2.534
 2216SOL    HW1 2024   3.202   2.708   2.536
 2216SOL    HW2 2025   3.182   2.858   2.474
 2217SOL     OW 2026   2.692   3.135   3.284
 2217SOL    HW1 2027   2.687   3.168   3.379
 2217SOL    HW2 2028   2.606   3.154   3.238
 2218SOL     OW 2029   2.534   3.478   2.016
 2218SOL    HW1 2030   2.543   3.488   1.917
 2218SOL    HW2 2031   2.494   3.389   2.037
 2220SOL     OW 2032   3.703   2.037   2.825
 2220SOL    HW1 2033   3.742   1.952   2.789
 2220SOL    HW2 2034   3.605   2.039   2.806
 2221SOL     OW 2035   2.125   2.188   2.582
 2221SOL    HW1 2036   2.046   2.239   2.548
 2221SOL    HW2 2037   2.116   2.173   2.680
 2222SOL     OW 2038   3.056   3.474   1.893
 2222SOL    HW1 2039   3.062   3.381   1.930
 2222SOL    HW2 2040   2.997   3.474   1.813
 2223SOL     OW 2041   2.684   2.864   3.234
 2223SOL    HW1 2042   2.724   2.863   3.142
 2223SOL    HW2 2043   2.694   2.956   3.274
 2224SOL     OW 2044   2.778   2.772   2.153
 2224SOL    HW1 2045   2.841   2.810   2.085
 2224SOL    HW2 2046   2.818   2.689   2.192
 2225SOL     OW 2047   3.366   3.469   1.906
 2225SOL    HW1 2048   3.274   3.506   1.913
 2225SOL    HW2 2049   3.404   3.489   1.816
 2226SOL     OW 2050   2.234   3.150   3.352
 2226SOL    HW1 2051   2.221   3.243   3.318
 2226SOL    HW2 2052   2.150   3.098   3.339
 2227SOL     OW 2053   3.476   3.154   3.151
 2227SOL    HW1 2054   3.536   3.157   3.231
 2227SOL    HW2 2055   3.401   3.218   3.164
 2228SOL     OW 2056   2.901   2.960   2.558
 2228SOL    HW1 2057   2.831   2.913   2.612
 2228SOL    HW2 2058   2.960   2.892   2.515
 2229SOL     OW 2059   2.876   2.098   2.833
 2229SOL    HW1 2060   2.868   2.062   2.740
 2229SOL    HW2 2061   2.874   2.022   2.898
 2230SOL     OW 2062   2.452   3.349   2.353
 2230SOL    HW1 2063   2.494   3.291   2.283
 2230SOL    HW2 2064   2.408   3.428   2.309
 2231SOL     OW 2065   3.571   2.247   3.243
 2231SOL    HW1 2066   3.644   2.316   3.247
 2231SOL    HW2 2067   3.599   2.172   3.184
 2232SOL     OW 2068   2.117   3.210   2.152
 2232SOL    HW1 2069   2.021   3.211   2.125
 2232SOL    HW2 2070   2.129   3.263   2.236
 2233SOL     OW 2071   1.967   2.875   3.588
 2233SOL    HW1 2072   1.890   2.842   3.642
 2233SOL    HW2 2073   2.052   2.845   3.630
 2234SOL     OW 2074   2.534   2.065   3.351
 2234SOL    HW1 2075   2.624   2.049   3.311
 2234SOL    HW2 2076   2.542   2.070   3.450
 2235SOL     OW 2077   1.937   2.207   1.895
 2235SOL    HW1 2078   1.845   2.179   1.866
 2235SOL    HW2 2079   1.968   2.284   1.839
 2236SOL     OW 2080   3.302   2.718   3.260
 2236SOL    HW1 2081   3.245   2.770   3.197
 2236SOL    HW2 2082   3.398   2.730   3.236
 2237SOL     OW 2083   1.934   2.028   2.180
 2237SOL    HW1 2084   1.917   2.111   2.126
 2237SOL    HW2 2085   2.024   1.991   2.158
 2238SOL     OW 2086   3.045   3.197   1.981
 2238SOL    HW1 2087   2.946   3.186   1.983
 2238SOL    HW2 2088   3.079   3.212   2.074
 2239SOL     OW 2089   2.475   2.704   3.293
 2239SOL    HW1 2090   2.531   2.785   3.276
 2239SOL    HW2 2091   2.534   2.624   3.296
 2240SOL     OW 2092   3.355   3.629   2.821
 2240SOL    HW1 2093   3.388   3.693   2.752
 2240SOL    HW2 2094   3.421   3.623   2.896
 2241SOL     OW 2095   2.578   2.427   3.570
 2241SOL    HW1 2096   2.597   2.492   3.644
 2241SOL    HW2 2097   2.638   2.347   3.579
 2242SOL     OW 2098   3.312   3.082   3.495
 2242SOL    HW1 2099   3.303   3.072   3.594
 2242SOL    HW2 2100   3.408   3.075   3.469
 2243SOL     OW 2101   2.252   3.603   3.422
 2243SOL    HW1 2102   2.161   3.644   3.420
 2243SOL    HW2 2103   2.245   3.509   3.454
 2244SOL     OW 2104   3.536   2.745   3.116
 2244SOL    HW1 2105   3.509   2.656   3.079
 2244SOL    HW2 2106   3.537   2.813   3.043
 2245SOL     OW 2107   3.087   2.187   2.311
 2245SOL    HW1 2108   3.152   2.113   2.300
 2245SOL    HW2 2109   3.107   2.237   2.395
 2246SOL     OW 2110   2.456   2.607   2.514
 2246SOL    HW1 2111   2.506   2.692   2.495
 2246SOL    HW2 2112   2.368   2.609   2.466
 2247SOL     OW 2113   3.639   2.204   3.504
 2247SOL    HW1 2114   3.622   2.235   3.410
 2247SOL    HW2 2115   3.555   2.167   3.542
 2248SOL     OW 2116   3.592   2.796   3.379
 2248SOL    HW1 2117   3.630   2.887   3.394
 2248SOL    HW2 2118   3.584   2.779   3.280
 2249SOL     OW 2119   2.721   3.236   1.878
 2249SOL    HW1 2120   2.675   3.251   1.966
 2249SOL    HW2 2121   2.765   3.321   1.848
 2250SOL     OW 2122   2.523   3.652   2.815
 2250SOL    HW1 2123   2.477   3.740   2.802
 2250SOL    HW2 2124   2.622   3.664   2.808
 2251SOL     OW 2125   2.721   2.818   2.723
 2251SOL    HW1 2126   2.775   2.749   2.771
 2251SOL    HW2 2127   2.689   2.887   2.789
 2252SOL     OW 2128   2.945   2.846   1.949
 2252SOL    HW1 2129   2.922   2.899   1.867
 2252SOL    HW2 2130   3.026   2.790   1.930
 2253SOL     OW 2131   3.723   3.431   2.713
 2253SOL    HW1 2132   3.652   3.419   2.643
 2253SOL    HW2 2133   3.724   3.352   2.773
 2254SOL     OW 2134   2.083   3.176   3.706
 2254SOL    HW1 2135   2.018   3.103   3.685
 2254SOL    HW2 2136   2.087   3.190   3.804
 2255SOL     OW 2137   1.941   3.102   2.515
 2255SOL    HW1 2138   1.940   3.055   2.603
 2255SOL    HW2 2139   2.023   3.074   2.464
 2256SOL     OW 2140   2.534   3.253   3.486
 2256SOL    HW1 2141   2.456   3.203   3.524
 2256SOL    HW2 2142   2.531   3.348   3.517
 2257SOL     OW 2143   3.686   2.054   3.089
 2257SOL    HW1 2144   3.682   1.964   3.133
 2257SOL    HW2 2145   3.689   2.043   2.990
 2258SOL     OW 2146   3.567   3.349   2.966
 2258SOL    HW1 2147   3.474   3.324   2.939
 2258SOL    HW2 2148   3.593   3.299   3.048
 2259SOL     OW 2149   2.179   2.409   3.142
 2259SOL    HW1 2150   2.217   2.350   3.214
 2259SOL    HW2 2151   2.219   2.383   3.054
 2260SOL     OW 2152   2.674   3.448   2.549
 2260SOL    HW1 2153   2.706   3.458   2.455
 2260SOL    HW2 2154   2.595   3.386   2.551
 2261SOL     OW 2155   3.286   2.076   2.974
 2261SOL    HW1 2156   3.338   2.011   3.029
 2261SOL    HW2 2157   3.237   2.139   3.035
 2262SOL     OW 2158   2.863   1.896   3.016
 2262SOL    HW1 2159   2.800   1.824   2.985
 2262SOL    HW2 2160   2.956   1.860   3.016
 2263SOL     OW 2161   2.632   3.192   2.163
 2263SOL    HW1 2162   2.586   3.105   2.180
 2263SOL    HW2 2163   2.723   3.189   2.204
 2264SOL     OW 2164   2.480   3.429   3.146
 2264SOL    HW1 2165   2.475   3.511   3.203
 2264SOL    HW2 2166   2.569   3.426   3.101
 2265SOL     OW 2167   3.214   1.914   2.030
 2265SOL    HW1 2168   3.249   1.873   1.946
 2265SOL    HW2 2169   3.124   1.876   2.050
 2266SOL     OW 2170   3.162   2.315   2.553
 2266SOL    HW1 2171   3.103   2.395   2.557
 2266SOL    HW2 2172   3.177   2.280   2.646
 2267SOL     OW 2173   3.455   2.083   2.744
 2267SOL    HW1 2174   3.371   2.082   2.798
 2267SOL    HW2 2175   3.457   2.166   2.688
 2268SOL     OW 2176   1.901   2.939   2.162
 2268SOL    HW1 2177   2.000   2.928   2.153
 2268SOL    HW2 2178   1.861   2.853   2.194
 2269SOL     OW 2179   2.737   3.508   2.199
 2269SOL    HW1 2180   2.660   3.473   2.145
 2269SOL    HW2 2181   2.705   3.579   2.261
 2270SOL     OW 2182   2.092   2.490   3.837
 2270SOL    HW1 2183   1.999   2.488   3.874
 2270SOL    HW2 2184   2.093   2.451   3.745
 2281SOL     OW 2185   2.468   2.826   3.847
 2281SOL    HW1 2186   2.475   2.910   3.793
 2281SOL    HW2 2187   2.514   2.839   3.935
 2292SOL     OW 2188   2.460   2.591   3.994
 2292SOL    HW1 2189   2.484   2.660   3.926
 2292SOL    HW2 2190   2.382   2.624   4.048
 2297SOL     OW 2191   2.727   2.210   3.919
 2297SOL    HW1 2192   2.786   2.273   3.870
 2297SOL    HW2 2193   2.746   2.116   3.890
 2303SOL     OW 2194   2.183   2.805   3.966
 2303SOL    HW1 2195   2.265   2.844   3.924
 2303SOL    HW2 2196   2.156   2.723   3.917
 2310SOL     OW 2197   2.476   1.984   3.841
 2310SOL    HW1 2198   2.574   1.962   3.848
 2310SOL    HW2 2199   2.445   1.967   3.748
 2313SOL     OW 2200   2.159   1.897   3.895
 2313SOL    HW1 2201   2.208   1.981   3.874
 2313SOL    HW2 2202   2.221   1.832   3.940
 2318SOL     OW 2203   2.894   2.411   3.740
 2318SOL    HW1 2204   2.853   2.493   3.701
 2318SOL    HW2 2205   2.958   2.437   3.813
 2322SOL     OW 2206   2.350   3.247   3.898
 2322SOL    HW1 2207   2.263   3.232   3.945
 2322SOL    HW2 2208   2.333   3.273   3.803
 2324SOL     OW 2209   3.252   2.437   3.802
 2324SOL    HW1 2210   3.198   2.416   3.883
 2324SOL    HW2 2211   3.343   2.396   3.811
 2325SOL     OW 2212   2.389   2.118   4.052
 2325SOL    HW1 2213   2.416   2.059   3.977
 2325SOL    HW2 2214   2.389   2.213   4.021
 2336SOL     OW 2215   3.165   2.700   3.766
 2336SOL    HW1 2216   3.199   2.607   3.781
 2336SOL    HW2 2217   3.183   2.727   3.671
 2341SOL     OW 2218   2.677   2.434   4.049
 2341SOL    HW1 2219   2.684   2.345   4.003
 2341SOL    HW2 2220   2.583   2.468   4.041
 2342SOL     OW 2221   2.335   2.362   3.915
 2342SOL    HW1 2222   2.396   2.442   3.919
 2342SOL    HW2 2223   2.240   2.393   3.922
 2352SOL     OW 2224   2.778   2.772   4.015
 2352SOL    HW1 2225   2.841   2.810   3.947
 2352SOL    HW2 2226   2.818   2.689   4.054
 2357SOL     OW 2227   1.937   2.207   3.757
 2357SOL    HW1 2228   1.845   2.179   3.728
 2357SOL    HW2 2229   1.968   2.284   3.701
 2358SOL     OW 2230   1.934   2.028   4.042
 2358SOL    HW1 2231   1.917   2.111   3.988
 2358SOL    HW2 2232   2.024   1.991   4.020
 2362SOL     OW 2233   2.721   3.236   3.740
 2362SOL    HW1 2234   2.675   3.251   3.828
 2362SOL    HW2 2235   2.765   3.321   3.710
 2365SOL     OW 2236   2.945   2.846   3.811
 2365SOL    HW1 2237   2.922   2.899   3.729
 2365SOL    HW2 2238   3.026   2.790   3.792
 2389SOL     OW 2239   2.179   3.975   1.801
 2389SOL    HW1 2240   2.250   4.046   1.807
 2389SOL    HW2 2241   2.091   4.014   1.829
 2406SOL     OW 2242   2.643   3.988   1.749
 2406SOL    HW1 2243   2.710   3.927   1.792
 2406SOL    HW2 2244   2.570   4.007   1.814
 2422SOL     OW 2245   2.777   3.813   1.402
 2422SOL    HW1 2246   2.802   3.793   1.307
 2422SOL    HW2 2247   2.849   3.869   1.444
 2429SOL     OW 2248   2.875   3.829   1.770
 2429SOL    HW1 2249   2.881   3.914   1.718
 2429SOL    HW2 2250   2.907   3.753   1.713
 2430SOL     OW 2251   2.366   3.774   1.740
 2430SOL    HW1 2252   2.324   3.717   1.670
 2430SOL    HW2 2253   2.300   3.843   1.772
 2481SOL     OW 2254   2.087   3.999   2.858
 2481SOL    HW1 2255   2.122   3.982   2.950
 2481SOL    HW2 2256   1.999   3.954   2.846
 2492SOL     OW 2257   2.671   3.728   2.364
 2492SOL    HW1 2258   2.711   3.819   2.355
 2492SOL    HW2 2259   2.571   3.736   2.370
 2502SOL     OW 2260   2.727   4.072   2.057
 2502SOL    HW1 2261   2.786   4.135   2.008
 2502SOL    HW2 2262   2.746   3.978   2.028
 2504SOL     OW 2263   2.412   3.920   2.747
 2504SOL    HW1 2264   2.407   3.915   2.847
 2504SOL    HW2 2265   2.414   4.016   2.718
 2507SOL     OW 2266   3.262   3.831   2.288
 2507SOL    HW1 2267   3.238   3.794   2.198
 2507SOL    HW2 2268   3.361   3.847   2.292
 2510SOL     OW 2269   2.476   3.846   1.979
 2510SOL    HW1 2270   2.574   3.824   1.986
 2510SOL    HW2 2271   2.445   3.829   1.886
 2514SOL     OW 2272   2.401   3.788   2.374
 2514SOL    HW1 2273   2.320   3.789   2.432
 2514SOL    HW2 2274   2.404   3.871   2.319
 2515SOL     OW 2275   2.159   3.759   2.033
 2515SOL    HW1 2276   2.208   3.843   2.012
 2515SOL    HW2 2277   2.221   3.694   2.078
 2516SOL     OW 2278   2.797   3.960   2.342
 2516SOL    HW1 2279   2.749   4.001   2.264
 2516SOL    HW2 2280   2.896   3.958   2.323
 2520SOL     OW 2281   2.423   3.946   3.009
 2520SOL    HW1 2282   2.461   3.862   3.046
 2520SOL    HW2 2283   2.335   3.965   3.053
 2522SOL     OW 2284   2.879   3.763   2.615
 2522SOL    HW1 2285   2.807   3.768   2.546
 2522SOL    HW2 2286   2.855   3.694   2.684
 2526SOL     OW 2287   2.389   3.980   2.190
 2526SOL    HW1 2288   2.416   3.921   2.115
 2526SOL    HW2 2289   2.389   4.075   2.159
 2527SOL     OW 2290   2.777   3.813   3.264
 2527SOL    HW1 2291   2.802   3.793   3.169
 2527SOL    HW2 2292   2.849   3.869   3.306
 2539SOL     OW 2293   2.169   3.937   3.093
 2539SOL    HW1 2294   2.146   3.974   3.183
 2539SOL    HW2 2295   2.139   3.842   3.087
 2542SOL     OW 2296   2.169   3.787   2.480
 2542SOL    HW1 2297   2.158   3.881   2.513
 2542SOL    HW2 2298   2.164   3.724   2.557
 2562SOL     OW 2299   2.125   4.050   2.582
 2562SOL    HW1 2300   2.046   4.101   2.548
 2562SOL    HW2 2301   2.116   4.035   2.680
 2564SOL     OW 2302   2.876   3.960   2.833
 2564SOL    HW1 2303   2.868   3.924   2.740
 2564SOL    HW2 2304   2.874   3.884   2.898
 2570SOL     OW 2305   1.934   3.890   2.180
 2570SOL    HW1 2306   1.917   3.973   2.126
 2570SOL    HW2 2307   2.024   3.853   2.158
 2582SOL     OW 2308   2.863   3.758   3.016
 2582SOL    HW1 2309   2.800   3.686   2.985
 2582SOL    HW2 2310   2.956   3.722   3.016
 2583SOL     OW 2311   3.214   3.776   2.030
 2583SOL    HW1 2312   3.249   3.735   1.946
 2583SOL    HW2 2313   3.124   3.738   2.050
 2664SOL     OW 2314   3.854   1.821   1.571
 2664SOL    HW1 2315   3.844   1.806   1.670
 2664SOL    HW2 2316   3.768   1.857   1.535
 2719SOL     OW 2317   3.854   1.794   1.851
 2719SOL    HW1 2318   3.813   1.720   1.904
 2719SOL    HW2 2319   3.918   1.845   1.909
 2757SOL     OW 2320   3.955   1.713   2.345
 2757SOL    HW1 2321   3.989   1.790   2.399
 2757SOL    HW2 2322   3.999   1.713   2.255
 2763SOL     OW 2323   3.751   1.596   1.979
 2763SOL    HW1 2324   3.732   1.500   2.000
 2763SOL    HW2 2325   3.718   1.654   2.054
 2814SOL     OW 2326   3.732   1.326   2.062
 2814SOL    HW1 2327   3.639   1.347   2.031
 2814SOL    HW2 2328   3.742   1.227   2.075
 2815SOL     OW 2329   3.812   1.801   2.789
 2815SOL    HW1 2330   3.770   1.715   2.762
 2815SOL    HW2 2331   3.906   1.804   2.755
 2929SOL     OW 2332   3.837   2.599   1.597
 2929SOL    HW1 2333   3.925   2.586   1.642
 2929SOL    HW2 2334   3.824   2.696   1.575
 2933SOL     OW 2335   4.041   2.113   1.801
 2933SOL    HW1 2336   4.112   2.184   1.807
 2933SOL    HW2 2337   3.953   2.152   1.829
 2955SOL     OW 2338   3.802   2.418   1.386
 2955SOL    HW1 2339   3.894   2.417   1.345
 2955SOL    HW2 2340   3.796   2.492   1.453
 2982SOL     OW 2341   3.913   2.382   1.722
 2982SOL    HW1 2342   3.972   2.342   1.652
 2982SOL    HW2 2343   3.855   2.453   1.681
 3000SOL     OW 2344   3.829   2.875   1.726
 3000SOL    HW1 2345   3.752   2.842   1.780
 3000SOL    HW2 2346   3.914   2.845   1.768
 3020SOL     OW 2347   3.954   2.490   1.975
 3020SOL    HW1 2348   3.861   2.488   2.012
 3020SOL    HW2 2349   3.955   2.451   1.883
 3021SOL     OW 2350   3.949   2.137   2.858
 3021SOL    HW1 2351   3.984   2.120   2.950
 3021SOL    HW2 2352   3.861   2.092   2.846
 3022SOL     OW 2353   3.743   2.230   2.509
 3022SOL    HW1 2354   3.661   2.273   2.548
 3022SOL    HW2 2355   3.715   2.157   2.446
 3032SOL     OW 2356   3.964   2.953   2.748
 3032SOL    HW1 2357   3.978   2.869   2.800
 3032SOL    HW2 2358   3.909   3.017   2.803
 3035SOL     OW 2359   3.846   2.505   2.425
 3035SOL    HW1 2360   3.801   2.417   2.442
 3035SOL    HW2 2361   3.845   2.559   2.509
 3044SOL     OW 2362   3.800   2.673   2.651
 3044SOL    HW1 2363   3.899   2.661   2.660
 3044SOL    HW2 2364   3.776   2.768   2.672
 3050SOL     OW 2365   4.045   2.805   2.104
 3050SOL    HW1 2366   4.127   2.844   2.062
 3050SOL    HW2 2367   4.018   2.723   2.055
 3056SOL     OW 2368   4.106   2.562   2.342
 3056SOL    HW1 2369   4.151   2.472   2.339
 3056SOL    HW2 2370   4.012   2.551   2.375
 3062SOL     OW 2371   4.021   1.897   2.033
 3062SOL    HW1 2372   4.070   1.981   2.012
 3062SOL    HW2 2373   4.083   1.832   2.078
 3064SOL     OW 2374   3.802   2.418   3.248
 3064SOL    HW1 2375   3.894   2.417   3.207
 3064SOL    HW2 2376   3.796   2.492   3.315
 3081SOL     OW 2377   4.031   1.925   2.480
 3081SOL    HW1 2378   4.020   2.019   2.513
 3081SOL    HW2 2379   4.026   1.862   2.557
 3085SOL     OW 2380   4.043   2.672   2.811
 3085SOL    HW1 2381   4.136   2.708   2.816
 3085SOL    HW2 2382   4.037   2.587   2.863
 3086SOL     OW 2383   4.063   2.371   2.868
 3086SOL    HW1 2384   4.011   2.288   2.851
 3086SOL    HW2 2385   4.140   2.376   2.804
 3087SOL     OW 2386   3.732   3.188   2.062
 3087SOL    HW1 2387   3.639   3.209   2.031
 3087SOL    HW2 2388   3.742   3.089   2.075
 3090SOL     OW 2389   3.764   2.406   2.976
 3090SOL    HW1 2390   3.849   2.373   2.935
 3090SOL    HW2 2391   3.777   2.421   3.074
 3097SOL     OW 2392   3.807   3.120   2.884
 3097SOL    HW1 2393   3.802   3.119   2.984
 3097SOL    HW2 2394   3.724   3.079   2.846
 3103SOL     OW 2395   3.987   2.188   2.582
 3103SOL    HW1 2396   3.908   2.239   2.548
 3103SOL    HW2 2397   3.978   2.173   2.680
 3110SOL     OW 2398   3.799   2.207   1.895
 3110SOL    HW1 2399   3.707   2.179   1.866
 3110SOL    HW2 2400   3.830   2.284   1.839
 3111SOL     OW 2401   3.796   2.028   2.180
 3111SOL    HW1 2402   3.779   2.111   2.126
 3111SOL    HW2 2403   3.886   1.991   2.158
 3119SOL     OW 2404   3.803   3.102   2.515
 3119SOL    HW1 2405   3.802   3.055   2.603
 3119SOL    HW2 2406   3.885   3.074   2.464
 3127SOL     OW 2407   3.763   2.939   2.162
 3127SOL    HW1 2408   3.862   2.928   2.153
 3127SOL    HW2 2409   3.723   2.853   2.194
   4.68667   4.68667   4.68667
