mobley_9114381_GMX.gro created by acpype (v: 2023.10.27) on Thu May 21 00:15:25 2026
 2397
    1MOL     C1    1   2.272   2.226   2.565
    1MOL     C2    2   2.326   2.300   2.336
    1MOL     C3    3   2.379   2.390   2.123
    1MOL     C4    4   2.294   2.342   2.478
    1MOL     N1    5   2.255   2.135   2.635
    1MOL     O1    6   2.333   2.185   2.295
    1MOL     O2    7   2.347   2.413   2.261
    1MOL     H1    8   2.467   2.449   2.096
    1MOL     H2    9   2.294   2.418   2.061
    1MOL     H3   10   2.401   2.284   2.109
    1MOL     H4   11   2.203   2.403   2.476
    1MOL     H5   12   2.377   2.402   2.516
   14SOL     OW   13   1.460   1.505   1.339
   14SOL    HW1   14   1.484   1.599   1.365
   14SOL    HW2   15   1.444   1.451   1.421
   18SOL     OW   16   1.127   1.341   1.690
   18SOL    HW1   17   1.174   1.341   1.778
   18SOL    HW2   18   1.079   1.254   1.679
   31SOL     OW   19   1.293   1.228   1.423
   31SOL    HW1   20   1.330   1.155   1.365
   31SOL    HW2   21   1.345   1.233   1.508
   35SOL     OW   22   1.187   1.792   1.616
   35SOL    HW1   23   1.211   1.852   1.540
   35SOL    HW2   24   1.194   1.697   1.586
   56SOL     OW   25   1.227   1.550   1.506
   56SOL    HW1   26   1.233   1.473   1.570
   56SOL    HW2   27   1.175   1.524   1.426
   95SOL     OW   28   1.754   1.223   1.588
   95SOL    HW1   29   1.845   1.184   1.575
   95SOL    HW2   30   1.762   1.319   1.612
   97SOL     OW   31   1.592   1.629   1.625
   97SOL    HW1   32   1.619   1.663   1.535
   97SOL    HW2   33   1.671   1.591   1.671
  122SOL     OW   34   1.728   0.935   1.854
  122SOL    HW1   35   1.682   0.928   1.765
  122SOL    HW2   36   1.666   0.979   1.920
  126SOL     OW   37   0.980   1.573   1.700
  126SOL    HW1   38   0.960   1.617   1.612
  126SOL    HW2   39   1.019   1.482   1.684
  127SOL     OW   40   1.859   1.518   1.605
  127SOL    HW1   41   1.873   1.545   1.510
  127SOL    HW2   42   1.942   1.540   1.658
  147SOL     OW   43   0.930   1.678   1.465
  147SOL    HW1   44   0.906   1.660   1.370
  147SOL    HW2   45   0.960   1.772   1.475
  152SOL     OW   46   1.759   1.747   1.154
  152SOL    HW1   47   1.820   1.777   1.081
  152SOL    HW2   48   1.721   1.658   1.132
  153SOL     OW   49   1.252   1.731   1.128
  153SOL    HW1   50   1.336   1.736   1.074
  153SOL    HW2   51   1.229   1.635   1.146
  163SOL     OW   52   1.650   1.720   1.394
  163SOL    HW1   53   1.703   1.730   1.310
  163SOL    HW2   54   1.623   1.810   1.428
  171SOL     OW   55   1.614   1.292   1.289
  171SOL    HW1   56   1.674   1.295   1.369
  171SOL    HW2   57   1.539   1.356   1.302
  184SOL     OW   58   1.493   1.767   0.959
  184SOL    HW1   59   1.526   1.831   0.890
  184SOL    HW2   60   1.559   1.761   1.034
  186SOL     OW   61   1.450   1.220   1.633
  186SOL    HW1   62   1.441   1.210   1.732
  186SOL    HW2   63   1.546   1.213   1.607
  192SOL     OW   64   1.730   0.934   1.517
  192SOL    HW1   65   1.768   1.025   1.532
  192SOL    HW2   66   1.722   0.917   1.418
  197SOL     OW   67   1.861   1.569   0.851
  197SOL    HW1   68   1.790   1.557   0.781
  197SOL    HW2   69   1.862   1.490   0.911
  203SOL     OW   70   1.705   1.487   1.104
  203SOL    HW1   71   1.612   1.462   1.077
  203SOL    HW2   72   1.731   1.437   1.186
  219SOL     OW   73   1.555   1.511   2.565
  219SOL    HW1   74   1.498   1.495   2.646
  219SOL    HW2   75   1.496   1.521   2.485
  227SOL     OW   76   1.460   1.505   3.201
  227SOL    HW1   77   1.484   1.599   3.227
  227SOL    HW2   78   1.444   1.451   3.283
  238SOL     OW   79   1.842   1.767   2.221
  238SOL    HW1   80   1.896   1.738   2.301
  238SOL    HW2   81   1.872   1.857   2.192
  240SOL     OW   82   1.689   0.922   2.474
  240SOL    HW1   83   1.784   0.893   2.482
  240SOL    HW2   84   1.681   0.987   2.399
  241SOL     OW   85   1.641   1.108   2.294
  241SOL    HW1   86   1.727   1.110   2.242
  241SOL    HW2   87   1.655   1.155   2.382
  244SOL     OW   88   1.293   1.228   3.285
  244SOL    HW1   89   1.330   1.155   3.227
  244SOL    HW2   90   1.345   1.233   3.370
  247SOL     OW   91   1.525   0.999   2.052
  247SOL    HW1   92   1.462   0.923   2.065
  247SOL    HW2   93   1.573   1.017   2.138
  248SOL     OW   94   1.187   1.792   3.478
  248SOL    HW1   95   1.211   1.852   3.402
  248SOL    HW2   96   1.194   1.697   3.448
  250SOL     OW   97   1.466   1.417   2.815
  250SOL    HW1   98   1.407   1.423   2.895
  250SOL    HW2   99   1.451   1.329   2.769
  251SOL     OW  100   1.667   1.714   2.434
  251SOL    HW1  101   1.626   1.691   2.346
  251SOL    HW2  102   1.649   1.640   2.499
  254SOL     OW  103   1.576   1.662   2.169
  254SOL    HW1  104   1.665   1.708   2.172
  254SOL    HW2  105   1.555   1.638   2.074
  264SOL     OW  106   1.362   1.144   2.407
  264SOL    HW1  107   1.445   1.115   2.359
  264SOL    HW2  108   1.313   1.211   2.351
  266SOL     OW  109   1.008   1.456   2.339
  266SOL    HW1  110   0.962   1.528   2.287
  266SOL    HW2  111   1.004   1.476   2.437
  268SOL     OW  112   1.795   1.066   2.735
  268SOL    HW1  113   1.733   1.051   2.659
  268SOL    HW2  114   1.743   1.077   2.820
  269SOL     OW  115   1.227   1.550   3.368
  269SOL    HW1  116   1.233   1.473   3.432
  269SOL    HW2  117   1.175   1.524   3.288
  273SOL     OW  118   1.111   1.776   2.099
  273SOL    HW1  119   1.051   1.714   2.149
  273SOL    HW2  120   1.142   1.732   2.014
  275SOL     OW  121   1.632   1.377   1.943
  275SOL    HW1  122   1.600   1.471   1.933
  275SOL    HW2  123   1.556   1.314   1.931
  279SOL     OW  124   0.940   1.698   2.766
  279SOL    HW1  125   1.020   1.641   2.787
  279SOL    HW2  126   0.891   1.658   2.689
  289SOL     OW  127   1.434   1.188   1.903
  289SOL    HW1  128   1.466   1.112   1.960
  289SOL    HW2  129   1.342   1.215   1.933
  293SOL     OW  130   1.227   1.570   2.655
  293SOL    HW1  131   1.248   1.644   2.590
  293SOL    HW2  132   1.295   1.570   2.728
  295SOL     OW  133   1.271   1.797   2.453
  295SOL    HW1  134   1.315   1.861   2.389
  295SOL    HW2  135   1.221   1.849   2.523
  301SOL     OW  136   1.429   1.173   2.729
  301SOL    HW1  137   1.374   1.089   2.722
  301SOL    HW2  138   1.455   1.202   2.637
  303SOL     OW  139   1.857   0.833   2.239
  303SOL    HW1  140   1.899   0.769   2.303
  303SOL    HW2  141   1.819   0.782   2.161
  305SOL     OW  142   1.664   1.280   2.519
  305SOL    HW1  143   1.763   1.288   2.533
  305SOL    HW2  144   1.619   1.364   2.550
  308SOL     OW  145   1.754   1.223   3.450
  308SOL    HW1  146   1.845   1.184   3.437
  308SOL    HW2  147   1.762   1.319   3.474
  310SOL     OW  148   1.592   1.629   3.487
  310SOL    HW1  149   1.619   1.663   3.397
  310SOL    HW2  150   1.671   1.591   3.533
  311SOL     OW  151   1.111   1.195   2.962
  311SOL    HW1  152   1.071   1.239   3.043
  311SOL    HW2  153   1.070   1.232   2.879
  312SOL     OW  154   1.638   1.099   2.941
  312SOL    HW1  155   1.643   1.180   3.000
  312SOL    HW2  156   1.552   1.101   2.890
  321SOL     OW  157   1.252   1.348   2.250
  321SOL    HW1  158   1.302   1.425   2.290
  321SOL    HW2  159   1.157   1.350   2.282
  322SOL     OW  160   1.272   1.445   3.004
  322SOL    HW1  161   1.319   1.458   3.091
  322SOL    HW2  162   1.206   1.371   3.013
  340SOL     OW  163   1.859   1.518   3.467
  340SOL    HW1  164   1.873   1.545   3.372
  340SOL    HW2  165   1.942   1.540   3.520
  344SOL     OW  166   1.068   1.333   2.711
  344SOL    HW1  167   1.075   1.249   2.656
  344SOL    HW2  168   1.130   1.402   2.675
  363SOL     OW  169   1.347   1.059   3.096
  363SOL    HW1  170   1.371   0.996   3.022
  363SOL    HW2  171   1.257   1.099   3.078
  365SOL     OW  172   1.759   1.747   3.016
  365SOL    HW1  173   1.820   1.777   2.943
  365SOL    HW2  174   1.721   1.658   2.994
  366SOL     OW  175   1.252   1.731   2.990
  366SOL    HW1  176   1.336   1.736   2.936
  366SOL    HW2  177   1.229   1.635   3.008
  370SOL     OW  178   1.388   1.573   2.339
  370SOL    HW1  179   1.455   1.585   2.265
  370SOL    HW2  180   1.348   1.662   2.362
  372SOL     OW  181   1.280   0.927   2.534
  372SOL    HW1  182   1.340   0.846   2.536
  372SOL    HW2  183   1.320   0.996   2.474
  375SOL     OW  184   1.650   1.720   3.256
  375SOL    HW1  185   1.703   1.730   3.172
  375SOL    HW2  186   1.623   1.810   3.290
  378SOL     OW  187   1.194   1.612   1.893
  378SOL    HW1  188   1.200   1.519   1.930
  378SOL    HW2  189   1.135   1.612   1.813
  381SOL     OW  190   1.504   1.607   1.906
  381SOL    HW1  191   1.412   1.644   1.913
  381SOL    HW2  192   1.542   1.627   1.816
  383SOL     OW  193   1.614   1.292   3.151
  383SOL    HW1  194   1.674   1.295   3.231
  383SOL    HW2  195   1.539   1.356   3.164
  384SOL     OW  196   1.039   1.098   2.558
  384SOL    HW1  197   0.969   1.051   2.612
  384SOL    HW2  198   1.098   1.030   2.515
  394SOL     OW  199   1.183   1.335   1.981
  394SOL    HW1  200   1.084   1.324   1.983
  394SOL    HW2  201   1.217   1.350   2.074
  396SOL     OW  202   1.493   1.767   2.821
  396SOL    HW1  203   1.526   1.831   2.752
  396SOL    HW2  204   1.559   1.761   2.896
  400SOL     OW  205   1.674   0.883   3.116
  400SOL    HW1  206   1.647   0.794   3.079
  400SOL    HW2  207   1.675   0.951   3.043
  409SOL     OW  208   1.861   1.569   2.713
  409SOL    HW1  209   1.790   1.557   2.643
  409SOL    HW2  210   1.862   1.490   2.773
  415SOL     OW  211   1.705   1.487   2.966
  415SOL    HW1  212   1.612   1.462   2.939
  415SOL    HW2  213   1.731   1.437   3.048
  417SOL     OW  214   0.812   1.586   2.549
  417SOL    HW1  215   0.844   1.596   2.455
  417SOL    HW2  216   0.733   1.524   2.551
  426SOL     OW  217   0.875   1.646   2.199
  426SOL    HW1  218   0.798   1.611   2.145
  426SOL    HW2  219   0.843   1.717   2.261
  534SOL     OW  220   0.850   2.660   1.823
  534SOL    HW1  221   0.846   2.736   1.888
  534SOL    HW2  222   0.872   2.696   1.732
  538SOL     OW  223   1.460   3.367   1.339
  538SOL    HW1  224   1.484   3.461   1.365
  538SOL    HW2  225   1.444   3.313   1.421
  540SOL     OW  226   1.603   2.309   0.737
  540SOL    HW1  227   1.529   2.355   0.687
  540SOL    HW2  228   1.654   2.377   0.790
  542SOL     OW  229   1.127   3.203   1.690
  542SOL    HW1  230   1.174   3.203   1.778
  542SOL    HW2  231   1.079   3.116   1.679
  547SOL     OW  232   1.594   1.976   1.480
  547SOL    HW1  233   1.576   2.043   1.408
  547SOL    HW2  234   1.591   2.022   1.569
  555SOL     OW  235   1.293   3.090   1.423
  555SOL    HW1  236   1.330   3.017   1.365
  555SOL    HW2  237   1.345   3.095   1.508
  564SOL     OW  238   1.281   2.207   0.944
  564SOL    HW1  239   1.195   2.157   0.931
  564SOL    HW2  240   1.343   2.153   1.000
  566SOL     OW  241   0.807   2.467   1.465
  566SOL    HW1  242   0.760   2.464   1.554
  566SOL    HW2  243   0.756   2.412   1.399
  567SOL     OW  244   1.394   2.331   1.674
  567SOL    HW1  245   1.374   2.374   1.762
  567SOL    HW2  246   1.472   2.269   1.683
  568SOL     OW  247   0.973   2.752   1.572
  568SOL    HW1  248   1.019   2.668   1.543
  568SOL    HW2  249   0.917   2.786   1.497
  569SOL     OW  250   0.991   2.272   1.242
  569SOL    HW1  251   0.914   2.306   1.296
  569SOL    HW2  252   0.957   2.221   1.163
  574SOL     OW  253   1.719   2.447   1.831
  574SOL    HW1  254   1.693   2.536   1.795
  574SOL    HW2  255   1.717   2.379   1.758
  579SOL     OW  256   1.795   2.928   0.873
  579SOL    HW1  257   1.733   2.913   0.797
  579SOL    HW2  258   1.743   2.939   0.958
  580SOL     OW  259   1.227   3.412   1.506
  580SOL    HW1  260   1.233   3.335   1.570
  580SOL    HW2  261   1.175   3.386   1.426
  592SOL     OW  262   1.547   2.084   1.729
  592SOL    HW1  263   1.542   2.121   1.821
  592SOL    HW2  264   1.475   2.015   1.717
  593SOL     OW  265   0.781   2.126   1.749
  593SOL    HW1  266   0.848   2.065   1.792
  593SOL    HW2  267   0.708   2.145   1.814
  595SOL     OW  268   1.351   2.452   1.433
  595SOL    HW1  269   1.379   2.409   1.518
  595SOL    HW2  270   1.376   2.548   1.434
  602SOL     OW  271   1.076   2.545   1.464
  602SOL    HW1  272   0.996   2.484   1.467
  602SOL    HW2  273   1.157   2.492   1.440
  612SOL     OW  274   1.466   2.452   0.992
  612SOL    HW1  275   1.436   2.357   0.999
  612SOL    HW2  276   1.539   2.468   1.058
  618SOL     OW  277   1.754   3.085   1.588
  618SOL    HW1  278   1.845   3.046   1.575
  618SOL    HW2  279   1.762   3.181   1.612
  620SOL     OW  280   1.592   3.491   1.625
  620SOL    HW1  281   1.619   3.525   1.535
  620SOL    HW2  282   1.671   3.453   1.671
  622SOL     OW  283   1.638   2.961   1.079
  622SOL    HW1  284   1.643   3.042   1.138
  622SOL    HW2  285   1.552   2.963   1.028
  623SOL     OW  286   0.915   1.951   1.402
  623SOL    HW1  287   0.940   1.931   1.307
  623SOL    HW2  288   0.987   2.007   1.444
  624SOL     OW  289   0.980   2.978   1.719
  624SOL    HW1  290   0.881   2.984   1.729
  624SOL    HW2  291   1.003   2.898   1.663
  627SOL     OW  292   1.274   2.248   1.262
  627SOL    HW1  293   1.295   2.322   1.326
  627SOL    HW2  294   1.185   2.265   1.219
  636SOL     OW  295   1.587   2.641   1.670
  636SOL    HW1  296   1.495   2.679   1.665
  636SOL    HW2  297   1.647   2.688   1.605
  637SOL     OW  298   1.013   1.967   1.770
  637SOL    HW1  299   1.019   2.052   1.718
  637SOL    HW2  300   1.045   1.891   1.713
  640SOL     OW  301   1.360   2.724   1.045
  640SOL    HW1  302   1.285   2.724   0.979
  640SOL    HW2  303   1.397   2.632   1.054
  645SOL     OW  304   1.728   2.797   1.854
  645SOL    HW1  305   1.682   2.790   1.765
  645SOL    HW2  306   1.666   2.841   1.920
  650SOL     OW  307   1.859   3.380   1.605
  650SOL    HW1  308   1.873   3.407   1.510
  650SOL    HW2  309   1.942   3.402   1.658
  657SOL     OW  310   1.138   2.242   1.678
  657SOL    HW1  311   1.093   2.305   1.742
  657SOL    HW2  312   1.231   2.273   1.661
  658SOL     OW  313   1.160   2.069   1.477
  658SOL    HW1  314   1.160   2.133   1.554
  658SOL    HW2  315   1.188   2.117   1.394
  662SOL     OW  316   1.002   2.658   1.238
  662SOL    HW1  317   1.043   2.626   1.324
  662SOL    HW2  318   0.906   2.631   1.235
  665SOL     OW  319   1.369   2.812   1.660
  665SOL    HW1  320   1.408   2.901   1.680
  665SOL    HW2  321   1.379   2.792   1.563
  667SOL     OW  322   1.657   2.466   1.206
  667SOL    HW1  323   1.619   2.397   1.268
  667SOL    HW2  324   1.739   2.430   1.162
  673SOL     OW  325   1.347   2.921   1.234
  673SOL    HW1  326   1.371   2.858   1.160
  673SOL    HW2  327   1.257   2.961   1.216
  686SOL     OW  328   1.650   3.582   1.394
  686SOL    HW1  329   1.703   3.592   1.310
  686SOL    HW2  330   1.623   3.672   1.428
  687SOL     OW  331   1.841   2.037   0.963
  687SOL    HW1  332   1.880   1.952   0.927
  687SOL    HW2  333   1.743   2.039   0.944
  694SOL     OW  334   1.614   3.154   1.289
  694SOL    HW1  335   1.674   3.157   1.369
  694SOL    HW2  336   1.539   3.218   1.302
  698SOL     OW  337   1.709   2.247   1.381
  698SOL    HW1  338   1.782   2.316   1.385
  698SOL    HW2  339   1.737   2.172   1.322
  703SOL     OW  340   1.440   2.718   1.398
  703SOL    HW1  341   1.383   2.770   1.335
  703SOL    HW2  342   1.536   2.730   1.374
  708SOL     OW  343   0.716   2.427   1.708
  708SOL    HW1  344   0.735   2.492   1.782
  708SOL    HW2  345   0.776   2.347   1.717
  709SOL     OW  346   1.450   3.082   1.633
  709SOL    HW1  347   1.441   3.072   1.732
  709SOL    HW2  348   1.546   3.075   1.607
  711SOL     OW  349   1.674   2.745   1.254
  711SOL    HW1  350   1.647   2.656   1.217
  711SOL    HW2  351   1.675   2.813   1.181
  714SOL     OW  352   1.777   2.204   1.642
  714SOL    HW1  353   1.760   2.235   1.548
  714SOL    HW2  354   1.693   2.167   1.680
  715SOL     OW  355   1.730   2.796   1.517
  715SOL    HW1  356   1.768   2.887   1.532
  715SOL    HW2  357   1.722   2.779   1.418
  724SOL     OW  358   1.824   2.054   1.227
  724SOL    HW1  359   1.820   1.964   1.271
  724SOL    HW2  360   1.827   2.043   1.128
  726SOL     OW  361   1.705   3.349   1.104
  726SOL    HW1  362   1.612   3.324   1.077
  726SOL    HW2  363   1.731   3.299   1.186
  729SOL     OW  364   1.424   2.076   1.112
  729SOL    HW1  365   1.476   2.011   1.167
  729SOL    HW2  366   1.375   2.139   1.173
  735SOL     OW  367   1.593   2.083   0.882
  735SOL    HW1  368   1.509   2.082   0.936
  735SOL    HW2  369   1.595   2.166   0.826
  742SOL     OW  370   1.555   3.373   2.565
  742SOL    HW1  371   1.498   3.357   2.646
  742SOL    HW2  372   1.496   3.383   2.485
  743SOL     OW  373   1.135   2.565   2.579
  743SOL    HW1  374   1.192   2.643   2.554
  743SOL    HW2  375   1.075   2.591   2.655
  744SOL     OW  376   1.755   2.469   2.093
  744SOL    HW1  377   1.743   2.456   1.994
  744SOL    HW2  378   1.725   2.388   2.142
  745SOL     OW  379   0.768   3.006   2.885
  745SOL    HW1  380   0.690   3.023   2.945
  745SOL    HW2  381   0.802   3.093   2.849
  747SOL     OW  382   0.685   2.874   2.527
  747SOL    HW1  383   0.754   2.858   2.597
  747SOL    HW2  384   0.612   2.931   2.565
  750SOL     OW  385   1.460   3.367   3.201
  750SOL    HW1  386   1.484   3.461   3.227
  750SOL    HW2  387   1.444   3.313   3.283
  752SOL     OW  388   1.603   2.309   2.599
  752SOL    HW1  389   1.529   2.355   2.549
  752SOL    HW2  390   1.654   2.377   2.652
  759SOL     OW  391   1.594   1.976   3.342
  759SOL    HW1  392   1.576   2.043   3.270
  759SOL    HW2  393   1.591   2.022   3.431
  761SOL     OW  394   1.842   3.629   2.221
  761SOL    HW1  395   1.896   3.600   2.301
  761SOL    HW2  396   1.872   3.719   2.192
  763SOL     OW  397   1.689   2.784   2.474
  763SOL    HW1  398   1.784   2.755   2.482
  763SOL    HW2  399   1.681   2.849   2.399
  764SOL     OW  400   1.641   2.970   2.294
  764SOL    HW1  401   1.727   2.972   2.242
  764SOL    HW2  402   1.655   3.017   2.382
  767SOL     OW  403   1.293   3.090   3.285
  767SOL    HW1  404   1.330   3.017   3.227
  767SOL    HW2  405   1.345   3.095   3.370
  768SOL     OW  406   0.809   1.866   2.364
  768SOL    HW1  407   0.849   1.957   2.355
  768SOL    HW2  408   0.709   1.874   2.370
  770SOL     OW  409   1.525   2.861   2.052
  770SOL    HW1  410   1.462   2.785   2.065
  770SOL    HW2  411   1.573   2.879   2.138
  773SOL     OW  412   1.466   3.279   2.815
  773SOL    HW1  413   1.407   3.285   2.895
  773SOL    HW2  414   1.451   3.191   2.769
  774SOL     OW  415   1.667   3.576   2.434
  774SOL    HW1  416   1.626   3.553   2.346
  774SOL    HW2  417   1.649   3.502   2.499
  775SOL     OW  418   0.598   2.591   2.132
  775SOL    HW1  419   0.622   2.660   2.064
  775SOL    HW2  420   0.520   2.624   2.186
  776SOL     OW  421   1.281   2.207   2.806
  776SOL    HW1  422   1.195   2.157   2.793
  776SOL    HW2  423   1.343   2.153   2.862
  777SOL     OW  424   1.576   3.524   2.169
  777SOL    HW1  425   1.665   3.570   2.172
  777SOL    HW2  426   1.555   3.500   2.074
  779SOL     OW  427   1.394   2.331   3.536
  779SOL    HW1  428   1.374   2.374   3.624
  779SOL    HW2  429   1.472   2.269   3.545
  780SOL     OW  430   0.973   2.752   3.434
  780SOL    HW1  431   1.019   2.668   3.405
  780SOL    HW2  432   0.917   2.786   3.359
  781SOL     OW  433   0.991   2.272   3.104
  781SOL    HW1  434   0.914   2.306   3.158
  781SOL    HW2  435   0.957   2.221   3.025
  782SOL     OW  436   1.041   2.563   2.291
  782SOL    HW1  437   1.067   2.559   2.387
  782SOL    HW2  438   0.956   2.512   2.277
  785SOL     OW  439   0.865   2.210   2.057
  785SOL    HW1  440   0.924   2.273   2.008
  785SOL    HW2  441   0.884   2.116   2.028
  786SOL     OW  442   1.719   2.447   3.693
  786SOL    HW1  443   1.693   2.536   3.657
  786SOL    HW2  444   1.717   2.379   3.620
  787SOL     OW  445   1.362   3.006   2.407
  787SOL    HW1  446   1.445   2.977   2.359
  787SOL    HW2  447   1.313   3.073   2.351
  789SOL     OW  448   1.008   3.318   2.339
  789SOL    HW1  449   0.962   3.390   2.287
  789SOL    HW2  450   1.004   3.338   2.437
  791SOL     OW  451   1.795   2.928   2.735
  791SOL    HW1  452   1.733   2.913   2.659
  791SOL    HW2  453   1.743   2.939   2.820
  794SOL     OW  454   1.458   2.597   2.590
  794SOL    HW1  455   1.453   2.532   2.665
  794SOL    HW2  456   1.538   2.656   2.603
  798SOL     OW  457   1.632   3.239   1.943
  798SOL    HW1  458   1.600   3.333   1.933
  798SOL    HW2  459   1.556   3.176   1.931
  800SOL     OW  460   1.400   1.969   2.288
  800SOL    HW1  461   1.376   1.932   2.198
  800SOL    HW2  462   1.499   1.985   2.292
  804SOL     OW  463   1.547   2.084   3.591
  804SOL    HW1  464   1.542   2.121   3.683
  804SOL    HW2  465   1.475   2.015   3.579
  805SOL     OW  466   0.614   1.984   1.979
  805SOL    HW1  467   0.712   1.962   1.986
  805SOL    HW2  468   0.583   1.967   1.886
  808SOL     OW  469   1.351   2.452   3.295
  808SOL    HW1  470   1.379   2.409   3.380
  808SOL    HW2  471   1.376   2.548   3.296
  810SOL     OW  472   0.922   2.365   2.761
  810SOL    HW1  473   0.897   2.356   2.665
  810SOL    HW2  474   0.970   2.283   2.792
  812SOL     OW  475   1.434   3.050   1.903
  812SOL    HW1  476   1.466   2.974   1.960
  812SOL    HW2  477   1.342   3.077   1.933
  814SOL     OW  478   0.935   2.098   2.342
  814SOL    HW1  479   0.887   2.139   2.264
  814SOL    HW2  480   1.034   2.096   2.323
  815SOL     OW  481   1.076   2.545   3.326
  815SOL    HW1  482   0.996   2.484   3.329
  815SOL    HW2  483   1.157   2.492   3.302
  816SOL     OW  484   1.227   3.432   2.655
  816SOL    HW1  485   1.248   3.506   2.590
  816SOL    HW2  486   1.295   3.432   2.728
  818SOL     OW  487   1.271   3.659   2.453
  818SOL    HW1  488   1.315   3.723   2.389
  818SOL    HW2  489   1.221   3.711   2.523
  819SOL     OW  490   1.032   2.411   1.878
  819SOL    HW1  491   0.991   2.493   1.839
  819SOL    HW2  492   1.096   2.437   1.951
  822SOL     OW  493   0.866   2.316   2.504
  822SOL    HW1  494   0.834   2.388   2.442
  822SOL    HW2  495   0.890   2.235   2.451
  823SOL     OW  496   1.017   1.901   2.615
  823SOL    HW1  497   0.945   1.906   2.546
  823SOL    HW2  498   0.993   1.832   2.684
  824SOL     OW  499   1.429   3.035   2.729
  824SOL    HW1  500   1.374   2.951   2.722
  824SOL    HW2  501   1.455   3.064   2.637
  825SOL     OW  502   1.466   2.452   2.854
  825SOL    HW1  503   1.436   2.357   2.861
  825SOL    HW2  504   1.539   2.468   2.920
  826SOL     OW  505   1.857   2.695   2.239
  826SOL    HW1  506   1.899   2.631   2.303
  826SOL    HW2  507   1.819   2.644   2.161
  828SOL     OW  508   1.664   3.142   2.519
  828SOL    HW1  509   1.763   3.150   2.533
  828SOL    HW2  510   1.619   3.226   2.550
  829SOL     OW  511   1.390   2.437   1.940
  829SOL    HW1  512   1.336   2.416   2.021
  829SOL    HW2  513   1.481   2.396   1.949
  831SOL     OW  514   1.754   3.085   3.450
  831SOL    HW1  515   1.845   3.046   3.437
  831SOL    HW2  516   1.762   3.181   3.474
  832SOL     OW  517   1.064   3.209   3.202
  832SOL    HW1  518   0.984   3.186   3.257
  832SOL    HW2  519   1.147   3.183   3.251
  833SOL     OW  520   1.592   3.491   3.487
  833SOL    HW1  521   1.619   3.525   3.397
  833SOL    HW2  522   1.671   3.453   3.533
  834SOL     OW  523   1.111   3.057   2.962
  834SOL    HW1  524   1.071   3.101   3.043
  834SOL    HW2  525   1.070   3.094   2.879
  835SOL     OW  526   1.638   2.961   2.941
  835SOL    HW1  527   1.643   3.042   3.000
  835SOL    HW2  528   1.552   2.963   2.890
  836SOL     OW  529   0.915   1.951   3.264
  836SOL    HW1  530   0.940   1.931   3.169
  836SOL    HW2  531   0.987   2.007   3.306
  838SOL     OW  532   0.705   2.912   2.230
  838SOL    HW1  533   0.691   2.919   2.329
  838SOL    HW2  534   0.789   2.861   2.212
  840SOL     OW  535   1.274   2.248   3.124
  840SOL    HW1  536   1.295   2.322   3.188
  840SOL    HW2  537   1.185   2.265   3.081
  844SOL     OW  538   1.252   3.210   2.250
  844SOL    HW1  539   1.302   3.287   2.290
  844SOL    HW2  540   1.157   3.212   2.282
  845SOL     OW  541   1.272   3.307   3.004
  845SOL    HW1  542   1.319   3.320   3.091
  845SOL    HW2  543   1.206   3.233   3.013
  846SOL     OW  544   1.582   2.501   2.334
  846SOL    HW1  545   1.551   2.562   2.407
  846SOL    HW2  546   1.632   2.553   2.265
  849SOL     OW  547   1.587   2.641   3.532
  849SOL    HW1  548   1.495   2.679   3.527
  849SOL    HW2  549   1.647   2.688   3.467
  853SOL     OW  550   1.360   2.724   2.907
  853SOL    HW1  551   1.285   2.724   2.841
  853SOL    HW2  552   1.397   2.632   2.916
  854SOL     OW  553   1.209   2.387   2.137
  854SOL    HW1  554   1.222   2.303   2.191
  854SOL    HW2  555   1.180   2.461   2.197
  857SOL     OW  556   0.732   2.496   2.926
  857SOL    HW1  557   0.791   2.470   2.850
  857SOL    HW2  558   0.704   2.592   2.915
  858SOL     OW  559   1.728   2.797   3.716
  858SOL    HW1  560   1.682   2.790   3.627
  858SOL    HW2  561   1.666   2.841   3.782
  860SOL     OW  562   1.622   2.229   2.236
  860SOL    HW1  563   1.624   2.153   2.300
  860SOL    HW2  564   1.574   2.306   2.276
  861SOL     OW  565   1.023   2.628   2.828
  861SOL    HW1  566   1.038   2.649   2.924
  861SOL    HW2  567   0.993   2.533   2.819
  863SOL     OW  568   1.859   3.380   3.467
  863SOL    HW1  569   1.873   3.407   3.372
  863SOL    HW2  570   1.942   3.402   3.520
  865SOL     OW  571   1.540   2.136   1.987
  865SOL    HW1  572   1.479   2.061   2.010
  865SOL    HW2  573   1.562   2.188   2.070
  866SOL     OW  574   1.303   2.700   1.904
  866SOL    HW1  575   1.337   2.607   1.919
  866SOL    HW2  576   1.321   2.727   1.809
  867SOL     OW  577   1.068   3.195   2.711
  867SOL    HW1  578   1.075   3.111   2.656
  867SOL    HW2  579   1.130   3.264   2.675
  870SOL     OW  580   1.138   2.242   3.540
  870SOL    HW1  581   1.093   2.305   3.604
  870SOL    HW2  582   1.231   2.273   3.523
  871SOL     OW  583   1.160   2.069   3.339
  871SOL    HW1  584   1.160   2.133   3.416
  871SOL    HW2  585   1.188   2.117   3.256
  875SOL     OW  586   1.002   2.658   3.100
  875SOL    HW1  587   1.043   2.626   3.186
  875SOL    HW2  588   0.906   2.631   3.097
  878SOL     OW  589   1.369   2.812   3.522
  878SOL    HW1  590   1.408   2.901   3.542
  878SOL    HW2  591   1.379   2.792   3.425
  879SOL     OW  592   0.815   2.434   2.187
  879SOL    HW1  593   0.822   2.345   2.141
  879SOL    HW2  594   0.721   2.468   2.179
  880SOL     OW  595   1.657   2.466   3.068
  880SOL    HW1  596   1.619   2.397   3.130
  880SOL    HW2  597   1.739   2.430   3.024
  886SOL     OW  598   1.347   2.921   3.096
  886SOL    HW1  599   1.371   2.858   3.022
  886SOL    HW2  600   1.257   2.961   3.078
  887SOL     OW  601   1.302   2.717   2.171
  887SOL    HW1  602   1.216   2.686   2.213
  887SOL    HW2  603   1.298   2.703   2.072
  888SOL     OW  604   1.759   3.609   3.016
  888SOL    HW1  605   1.820   3.639   2.943
  888SOL    HW2  606   1.721   3.520   2.994
  889SOL     OW  607   1.252   3.593   2.990
  889SOL    HW1  608   1.336   3.598   2.936
  889SOL    HW2  609   1.229   3.497   3.008
  892SOL     OW  610   1.726   1.997   2.385
  892SOL    HW1  611   1.799   1.980   2.318
  892SOL    HW2  612   1.695   1.910   2.423
  893SOL     OW  613   1.388   3.435   2.339
  893SOL    HW1  614   1.455   3.447   2.265
  893SOL    HW2  615   1.348   3.524   2.362
  895SOL     OW  616   1.280   2.789   2.534
  895SOL    HW1  617   1.340   2.708   2.536
  895SOL    HW2  618   1.320   2.858   2.474
  898SOL     OW  619   1.650   3.582   3.256
  898SOL    HW1  620   1.703   3.592   3.172
  898SOL    HW2  621   1.623   3.672   3.290
  899SOL     OW  622   1.841   2.037   2.825
  899SOL    HW1  623   1.880   1.952   2.789
  899SOL    HW2  624   1.743   2.039   2.806
  901SOL     OW  625   1.194   3.474   1.893
  901SOL    HW1  626   1.200   3.381   1.930
  901SOL    HW2  627   1.135   3.474   1.813
  903SOL     OW  628   0.916   2.772   2.153
  903SOL    HW1  629   0.979   2.810   2.085
  903SOL    HW2  630   0.956   2.689   2.192
  904SOL     OW  631   1.504   3.469   1.906
  904SOL    HW1  632   1.412   3.506   1.913
  904SOL    HW2  633   1.542   3.489   1.816
  906SOL     OW  634   1.614   3.154   3.151
  906SOL    HW1  635   1.674   3.157   3.231
  906SOL    HW2  636   1.539   3.218   3.164
  907SOL     OW  637   1.039   2.960   2.558
  907SOL    HW1  638   0.969   2.913   2.612
  907SOL    HW2  639   1.098   2.892   2.515
  908SOL     OW  640   1.014   2.098   2.833
  908SOL    HW1  641   1.006   2.062   2.740
  908SOL    HW2  642   1.012   2.022   2.898
  910SOL     OW  643   1.709   2.247   3.243
  910SOL    HW1  644   1.782   2.316   3.247
  910SOL    HW2  645   1.737   2.172   3.184
  915SOL     OW  646   1.440   2.718   3.260
  915SOL    HW1  647   1.383   2.770   3.197
  915SOL    HW2  648   1.536   2.730   3.236
  917SOL     OW  649   1.183   3.197   1.981
  917SOL    HW1  650   1.084   3.186   1.983
  917SOL    HW2  651   1.217   3.212   2.074
  919SOL     OW  652   1.493   3.629   2.821
  919SOL    HW1  653   1.526   3.693   2.752
  919SOL    HW2  654   1.559   3.623   2.896
  921SOL     OW  655   1.450   3.082   3.495
  921SOL    HW1  656   1.441   3.072   3.594
  921SOL    HW2  657   1.546   3.075   3.469
  923SOL     OW  658   1.674   2.745   3.116
  923SOL    HW1  659   1.647   2.656   3.079
  923SOL    HW2  660   1.675   2.813   3.043
  924SOL     OW  661   1.225   2.187   2.311
  924SOL    HW1  662   1.290   2.113   2.300
  924SOL    HW2  663   1.245   2.237   2.395
  925SOL     OW  664   0.594   2.607   2.514
  925SOL    HW1  665   0.644   2.692   2.495
  925SOL    HW2  666   0.506   2.609   2.466
  926SOL     OW  667   1.777   2.204   3.504
  926SOL    HW1  668   1.760   2.235   3.410
  926SOL    HW2  669   1.693   2.167   3.542
  927SOL     OW  670   1.730   2.796   3.379
  927SOL    HW1  671   1.768   2.887   3.394
  927SOL    HW2  672   1.722   2.779   3.280
  928SOL     OW  673   0.859   3.236   1.878
  928SOL    HW1  674   0.813   3.251   1.966
  928SOL    HW2  675   0.903   3.321   1.848
  930SOL     OW  676   0.859   2.818   2.723
  930SOL    HW1  677   0.913   2.749   2.771
  930SOL    HW2  678   0.827   2.887   2.789
  931SOL     OW  679   1.083   2.846   1.949
  931SOL    HW1  680   1.060   2.899   1.867
  931SOL    HW2  681   1.164   2.790   1.930
  932SOL     OW  682   1.861   3.431   2.713
  932SOL    HW1  683   1.790   3.419   2.643
  932SOL    HW2  684   1.862   3.352   2.773
  936SOL     OW  685   1.824   2.054   3.089
  936SOL    HW1  686   1.820   1.964   3.133
  936SOL    HW2  687   1.827   2.043   2.990
  938SOL     OW  688   1.705   3.349   2.966
  938SOL    HW1  689   1.612   3.324   2.939
  938SOL    HW2  690   1.731   3.299   3.048
  941SOL     OW  691   1.424   2.076   2.974
  941SOL    HW1  692   1.476   2.011   3.029
  941SOL    HW2  693   1.375   2.139   3.035
  942SOL     OW  694   1.001   1.896   3.016
  942SOL    HW1  695   0.938   1.824   2.985
  942SOL    HW2  696   1.094   1.860   3.016
  943SOL     OW  697   0.770   3.192   2.163
  943SOL    HW1  698   0.724   3.105   2.180
  943SOL    HW2  699   0.861   3.189   2.204
  945SOL     OW  700   1.352   1.914   2.030
  945SOL    HW1  701   1.387   1.873   1.946
  945SOL    HW2  702   1.262   1.876   2.050
  946SOL     OW  703   1.300   2.315   2.553
  946SOL    HW1  704   1.241   2.395   2.557
  946SOL    HW2  705   1.315   2.280   2.646
  947SOL     OW  706   1.593   2.083   2.744
  947SOL    HW1  707   1.509   2.082   2.798
  947SOL    HW2  708   1.595   2.166   2.688
  954SOL     OW  709   1.755   2.469   3.955
  954SOL    HW1  710   1.743   2.456   3.856
  954SOL    HW2  711   1.725   2.388   4.004
 1002SOL     OW  712   1.390   2.437   3.802
 1002SOL    HW1  713   1.336   2.416   3.883
 1002SOL    HW2  714   1.481   2.396   3.811
 1012SOL     OW  715   1.540   2.136   3.849
 1012SOL    HW1  716   1.479   2.061   3.872
 1012SOL    HW2  717   1.562   2.188   3.932
 1178SOL     OW  718   1.400   3.831   2.288
 1178SOL    HW1  719   1.376   3.794   2.198
 1178SOL    HW2  720   1.499   3.847   2.292
 1228SOL     OW  721   1.726   3.859   2.385
 1228SOL    HW1  722   1.799   3.842   2.318
 1228SOL    HW2  723   1.695   3.772   2.423
 1230SOL     OW  724   1.841   3.899   2.825
 1230SOL    HW1  725   1.880   3.814   2.789
 1230SOL    HW2  726   1.743   3.901   2.806
 1252SOL     OW  727   1.352   3.776   2.030
 1252SOL    HW1  728   1.387   3.735   1.946
 1252SOL    HW2  729   1.262   3.738   2.050
 1309SOL     OW  730   2.431   1.275   1.165
 1309SOL    HW1  731   2.338   1.268   1.128
 1309SOL    HW2  732   2.442   1.364   1.209
 1313SOL     OW  733   2.630   1.144   1.023
 1313SOL    HW1  734   2.552   1.161   1.083
 1313SOL    HW2  735   2.664   1.231   0.987
 1314SOL     OW  736   2.712   0.798   1.823
 1314SOL    HW1  737   2.708   0.874   1.888
 1314SOL    HW2  738   2.734   0.834   1.732
 1316SOL     OW  739   2.548   1.161   1.803
 1316SOL    HW1  740   2.608   1.240   1.817
 1316SOL    HW2  741   2.462   1.192   1.762
 1317SOL     OW  742   2.197   1.435   1.061
 1317SOL    HW1  743   2.119   1.404   1.008
 1317SOL    HW2  744   2.255   1.493   1.004
 1318SOL     OW  745   3.322   1.505   1.339
 1318SOL    HW1  746   3.346   1.599   1.365
 1318SOL    HW2  747   3.306   1.451   1.421
 1322SOL     OW  748   2.989   1.341   1.690
 1322SOL    HW1  749   3.036   1.341   1.778
 1322SOL    HW2  750   2.941   1.254   1.679
 1325SOL     OW  751   2.482   1.786   1.439
 1325SOL    HW1  752   2.390   1.769   1.474
 1325SOL    HW2  753   2.510   1.878   1.465
 1333SOL     OW  754   1.975   0.737   1.597
 1333SOL    HW1  755   2.063   0.724   1.642
 1333SOL    HW2  756   1.962   0.834   1.575
 1335SOL     OW  757   3.155   1.228   1.423
 1335SOL    HW1  758   3.192   1.155   1.365
 1335SOL    HW2  759   3.207   1.233   1.508
 1337SOL     OW  760   2.059   0.976   1.264
 1337SOL    HW1  761   2.148   0.931   1.250
 1337SOL    HW2  762   1.986   0.911   1.245
 1339SOL     OW  763   3.049   1.792   1.616
 1339SOL    HW1  764   3.073   1.852   1.540
 1339SOL    HW2  765   3.056   1.697   1.586
 1348SOL     OW  766   2.835   0.890   1.572
 1348SOL    HW1  767   2.881   0.806   1.543
 1348SOL    HW2  768   2.779   0.924   1.497
 1352SOL     OW  769   1.992   1.821   1.571
 1352SOL    HW1  770   1.982   1.806   1.670
 1352SOL    HW2  771   1.906   1.857   1.535
 1358SOL     OW  772   2.213   1.801   0.853
 1358SOL    HW1  773   2.263   1.715   0.859
 1358SOL    HW2  774   2.278   1.878   0.850
 1360SOL     OW  775   3.089   1.550   1.506
 1360SOL    HW1  776   3.095   1.473   1.570
 1360SOL    HW2  777   3.037   1.524   1.426
 1363SOL     OW  778   2.323   1.266   1.727
 1363SOL    HW1  779   2.273   1.267   1.641
 1363SOL    HW2  780   2.260   1.248   1.803
 1369SOL     OW  781   2.111   1.785   1.241
 1369SOL    HW1  782   2.168   1.720   1.291
 1369SOL    HW2  783   2.095   1.752   1.148
 1370SOL     OW  784   2.802   1.698   0.904
 1370SOL    HW1  785   2.882   1.641   0.925
 1370SOL    HW2  786   2.753   1.658   0.827
 1375SOL     OW  787   2.750   1.514   1.195
 1375SOL    HW1  788   2.727   1.489   1.101
 1375SOL    HW2  789   2.811   1.445   1.234
 1377SOL     OW  790   2.665   1.402   0.924
 1377SOL    HW1  791   2.755   1.416   0.882
 1377SOL    HW2  792   2.594   1.404   0.853
 1400SOL     OW  793   2.926   1.347   1.340
 1400SOL    HW1  794   2.846   1.324   1.395
 1400SOL    HW2  795   3.009   1.321   1.389
 1401SOL     OW  796   3.454   1.629   1.625
 1401SOL    HW1  797   3.481   1.663   1.535
 1401SOL    HW2  798   3.533   1.591   1.671
 1402SOL     OW  799   2.973   1.195   1.100
 1402SOL    HW1  800   2.933   1.239   1.181
 1402SOL    HW2  801   2.932   1.232   1.017
 1405SOL     OW  802   2.842   1.116   1.719
 1405SOL    HW1  803   2.743   1.122   1.729
 1405SOL    HW2  804   2.865   1.036   1.663
 1409SOL     OW  805   1.926   1.564   1.331
 1409SOL    HW1  806   1.880   1.646   1.297
 1409SOL    HW2  807   2.024   1.583   1.340
 1413SOL     OW  808   3.134   1.445   1.142
 1413SOL    HW1  809   3.181   1.458   1.229
 1413SOL    HW2  810   3.068   1.371   1.151
 1415SOL     OW  811   2.216   1.510   1.329
 1415SOL    HW1  812   2.195   1.466   1.242
 1415SOL    HW2  813   2.313   1.536   1.332
 1416SOL     OW  814   2.264   0.751   1.598
 1416SOL    HW1  815   2.332   0.806   1.551
 1416SOL    HW2  816   2.304   0.663   1.625
 1424SOL     OW  817   1.899   1.310   1.282
 1424SOL    HW1  818   1.952   1.261   1.350
 1424SOL    HW2  819   1.921   1.408   1.287
 1430SOL     OW  820   2.842   1.573   1.700
 1430SOL    HW1  821   2.822   1.617   1.612
 1430SOL    HW2  822   2.881   1.482   1.684
 1431SOL     OW  823   3.721   1.518   1.605
 1431SOL    HW1  824   3.735   1.545   1.510
 1431SOL    HW2  825   3.804   1.540   1.658
 1432SOL     OW  826   2.212   0.898   1.804
 1432SOL    HW1  827   2.288   0.942   1.852
 1432SOL    HW2  828   2.247   0.851   1.722
 1441SOL     OW  829   1.950   1.801   0.927
 1441SOL    HW1  830   1.908   1.715   0.900
 1441SOL    HW2  831   2.044   1.804   0.893
 1442SOL     OW  832   2.366   1.568   0.910
 1442SOL    HW1  833   2.432   1.642   0.919
 1442SOL    HW2  834   2.410   1.489   0.868
 1446SOL     OW  835   3.231   0.950   1.660
 1446SOL    HW1  836   3.270   1.039   1.680
 1446SOL    HW2  837   3.241   0.930   1.563
 1449SOL     OW  838   2.114   1.564   1.744
 1449SOL    HW1  839   2.084   1.621   1.820
 1449SOL    HW2  840   2.107   1.467   1.770
 1451SOL     OW  841   2.792   1.678   1.465
 1451SOL    HW1  842   2.768   1.660   1.370
 1451SOL    HW2  843   2.822   1.772   1.475
 1453SOL     OW  844   2.021   1.137   1.466
 1453SOL    HW1  845   2.043   1.076   1.542
 1453SOL    HW2  846   2.031   1.088   1.380
 1457SOL     OW  847   3.114   1.731   1.128
 1457SOL    HW1  848   3.198   1.736   1.074
 1457SOL    HW2  849   3.091   1.635   1.146
 1458SOL     OW  850   1.945   1.258   1.022
 1458SOL    HW1  851   1.940   1.257   1.122
 1458SOL    HW2  852   1.862   1.217   0.984
 1459SOL     OW  853   2.550   1.662   1.716
 1459SOL    HW1  854   2.494   1.743   1.725
 1459SOL    HW2  855   2.602   1.666   1.630
 1463SOL     OW  856   1.992   1.794   1.851
 1463SOL    HW1  857   1.951   1.720   1.904
 1463SOL    HW2  858   2.056   1.845   1.909
 1465SOL     OW  859   2.692   1.273   1.422
 1465SOL    HW1  860   2.687   1.306   1.517
 1465SOL    HW2  861   2.606   1.292   1.376
 1467SOL     OW  862   3.512   1.720   1.394
 1467SOL    HW1  863   3.565   1.730   1.310
 1467SOL    HW2  864   3.485   1.810   1.428
 1471SOL     OW  865   2.684   1.002   1.372
 1471SOL    HW1  866   2.724   1.001   1.280
 1471SOL    HW2  867   2.694   1.094   1.412
 1474SOL     OW  868   2.234   1.288   1.490
 1474SOL    HW1  869   2.221   1.381   1.456
 1474SOL    HW2  870   2.150   1.236   1.477
 1481SOL     OW  871   1.967   1.013   1.726
 1481SOL    HW1  872   1.890   0.980   1.780
 1481SOL    HW2  873   2.052   0.983   1.768
 1486SOL     OW  874   2.475   0.842   1.431
 1486SOL    HW1  875   2.531   0.923   1.414
 1486SOL    HW2  876   2.534   0.762   1.434
 1489SOL     OW  877   3.312   1.220   1.633
 1489SOL    HW1  878   3.303   1.210   1.732
 1489SOL    HW2  879   3.408   1.213   1.607
 1490SOL     OW  880   2.252   1.741   1.560
 1490SOL    HW1  881   2.161   1.782   1.558
 1490SOL    HW2  882   2.245   1.647   1.592
 1497SOL     OW  883   2.523   1.790   0.953
 1497SOL    HW1  884   2.477   1.878   0.940
 1497SOL    HW2  885   2.622   1.802   0.946
 1501SOL     OW  886   2.083   1.314   1.844
 1501SOL    HW1  887   2.018   1.241   1.823
 1501SOL    HW2  888   2.087   1.328   1.942
 1503SOL     OW  889   2.534   1.391   1.624
 1503SOL    HW1  890   2.456   1.341   1.662
 1503SOL    HW2  891   2.531   1.486   1.655
 1512SOL     OW  892   2.480   1.567   1.284
 1512SOL    HW1  893   2.475   1.649   1.341
 1512SOL    HW2  894   2.569   1.564   1.239
 1518SOL     OW  895   2.092   0.628   1.975
 1518SOL    HW1  896   1.999   0.626   2.012
 1518SOL    HW2  897   2.093   0.589   1.883
 1521SOL     OW  898   2.431   1.275   3.027
 1521SOL    HW1  899   2.338   1.268   2.990
 1521SOL    HW2  900   2.442   1.364   3.071
 1522SOL     OW  901   3.417   1.511   2.565
 1522SOL    HW1  902   3.360   1.495   2.646
 1522SOL    HW2  903   3.358   1.521   2.485
 1523SOL     OW  904   2.997   0.703   2.579
 1523SOL    HW1  905   3.054   0.781   2.554
 1523SOL    HW2  906   2.937   0.729   2.655
 1525SOL     OW  907   2.630   1.144   2.885
 1525SOL    HW1  908   2.552   1.161   2.945
 1525SOL    HW2  909   2.664   1.231   2.849
 1527SOL     OW  910   2.547   1.012   2.527
 1527SOL    HW1  911   2.616   0.996   2.597
 1527SOL    HW2  912   2.474   1.069   2.565
 1528SOL     OW  913   2.548   1.161   3.665
 1528SOL    HW1  914   2.608   1.240   3.679
 1528SOL    HW2  915   2.462   1.192   3.624
 1529SOL     OW  916   2.197   1.435   2.923
 1529SOL    HW1  917   2.119   1.404   2.870
 1529SOL    HW2  918   2.255   1.493   2.866
 1530SOL     OW  919   3.322   1.505   3.201
 1530SOL    HW1  920   3.346   1.599   3.227
 1530SOL    HW2  921   3.306   1.451   3.283
 1533SOL     OW  922   2.093   1.713   2.345
 1533SOL    HW1  923   2.127   1.790   2.399
 1533SOL    HW2  924   2.137   1.713   2.255
 1534SOL     OW  925   2.989   1.341   3.552
 1534SOL    HW1  926   3.036   1.341   3.640
 1534SOL    HW2  927   2.941   1.254   3.541
 1535SOL     OW  928   2.092   1.434   2.400
 1535SOL    HW1  929   2.066   1.530   2.400
 1535SOL    HW2  930   2.021   1.380   2.445
 1536SOL     OW  931   2.102   1.091   2.748
 1536SOL    HW1  932   2.116   1.007   2.800
 1536SOL    HW2  933   2.047   1.155   2.803
 1537SOL     OW  934   2.482   1.786   3.301
 1537SOL    HW1  935   2.390   1.769   3.336
 1537SOL    HW2  936   2.510   1.878   3.327
 1538SOL     OW  937   2.468   0.964   1.985
 1538SOL    HW1  938   2.475   1.048   1.931
 1538SOL    HW2  939   2.514   0.977   2.073
 1540SOL     OW  940   1.984   0.643   2.425
 1540SOL    HW1  941   1.939   0.555   2.442
 1540SOL    HW2  942   1.983   0.697   2.509
 1541SOL     OW  943   3.704   1.767   2.221
 1541SOL    HW1  944   3.758   1.738   2.301
 1541SOL    HW2  945   3.734   1.857   2.192
 1542SOL     OW  946   1.889   1.596   1.979
 1542SOL    HW1  947   1.870   1.500   2.000
 1542SOL    HW2  948   1.856   1.654   2.054
 1544SOL     OW  949   3.503   1.108   2.294
 1544SOL    HW1  950   3.589   1.110   2.242
 1544SOL    HW2  951   3.517   1.155   2.382
 1546SOL     OW  952   2.475   1.365   2.588
 1546SOL    HW1  953   2.426   1.278   2.597
 1546SOL    HW2  954   2.452   1.408   2.501
 1547SOL     OW  955   3.155   1.228   3.285
 1547SOL    HW1  956   3.192   1.155   3.227
 1547SOL    HW2  957   3.207   1.233   3.370
 1549SOL     OW  958   2.059   0.976   3.126
 1549SOL    HW1  959   2.148   0.931   3.112
 1549SOL    HW2  960   1.986   0.911   3.107
 1550SOL     OW  961   3.387   0.999   2.052
 1550SOL    HW1  962   3.324   0.923   2.065
 1550SOL    HW2  963   3.435   1.017   2.138
 1551SOL     OW  964   3.049   1.792   3.478
 1551SOL    HW1  965   3.073   1.852   3.402
 1551SOL    HW2  966   3.056   1.697   3.448
 1553SOL     OW  967   3.328   1.417   2.815
 1553SOL    HW1  968   3.269   1.423   2.895
 1553SOL    HW2  969   3.313   1.329   2.769
 1554SOL     OW  970   3.529   1.714   2.434
 1554SOL    HW1  971   3.488   1.691   2.346
 1554SOL    HW2  972   3.511   1.640   2.499
 1555SOL     OW  973   2.460   0.729   2.132
 1555SOL    HW1  974   2.484   0.798   2.064
 1555SOL    HW2  975   2.382   0.762   2.186
 1557SOL     OW  976   3.438   1.662   2.169
 1557SOL    HW1  977   3.527   1.708   2.172
 1557SOL    HW2  978   3.417   1.638   2.074
 1562SOL     OW  979   2.903   0.701   2.291
 1562SOL    HW1  980   2.929   0.697   2.387
 1562SOL    HW2  981   2.818   0.650   2.277
 1563SOL     OW  982   1.938   0.811   2.651
 1563SOL    HW1  983   2.037   0.799   2.660
 1563SOL    HW2  984   1.914   0.906   2.672
 1564SOL     OW  985   1.992   1.821   3.433
 1564SOL    HW1  986   1.982   1.806   3.532
 1564SOL    HW2  987   1.906   1.857   3.397
 1567SOL     OW  988   3.224   1.144   2.407
 1567SOL    HW1  989   3.307   1.115   2.359
 1567SOL    HW2  990   3.175   1.211   2.351
 1569SOL     OW  991   2.870   1.456   2.339
 1569SOL    HW1  992   2.824   1.528   2.287
 1569SOL    HW2  993   2.866   1.476   2.437
 1570SOL     OW  994   2.213   1.801   2.715
 1570SOL    HW1  995   2.263   1.715   2.721
 1570SOL    HW2  996   2.278   1.878   2.712
 1572SOL     OW  997   3.089   1.550   3.368
 1572SOL    HW1  998   3.095   1.473   3.432
 1572SOL    HW2  999   3.037   1.524   3.288
 1573SOL     OW 1000   2.183   0.943   2.104
 1573SOL    HW1 1001   2.265   0.982   2.062
 1573SOL    HW2 1002   2.156   0.861   2.055
 1575SOL     OW 1003   2.323   1.266   3.589
 1575SOL    HW1 1004   2.273   1.267   3.503
 1575SOL    HW2 1005   2.260   1.248   3.665
 1576SOL     OW 1006   2.973   1.776   2.099
 1576SOL    HW1 1007   2.913   1.714   2.149
 1576SOL    HW2 1008   3.004   1.732   2.014
 1578SOL     OW 1009   3.494   1.377   1.943
 1578SOL    HW1 1010   3.462   1.471   1.933
 1578SOL    HW2 1011   3.418   1.314   1.931
 1579SOL     OW 1012   2.326   1.743   2.185
 1579SOL    HW1 1013   2.359   1.782   2.271
 1579SOL    HW2 1014   2.402   1.736   2.120
 1581SOL     OW 1015   2.111   1.785   3.103
 1581SOL    HW1 1016   2.168   1.720   3.153
 1581SOL    HW2 1017   2.095   1.752   3.010
 1582SOL     OW 1018   2.802   1.698   2.766
 1582SOL    HW1 1019   2.882   1.641   2.787
 1582SOL    HW2 1020   2.753   1.658   2.689
 1583SOL     OW 1021   2.244   0.700   2.342
 1583SOL    HW1 1022   2.289   0.610   2.339
 1583SOL    HW2 1023   2.150   0.689   2.375
 1587SOL     OW 1024   2.750   1.514   3.057
 1587SOL    HW1 1025   2.727   1.489   2.963
 1587SOL    HW2 1026   2.811   1.445   3.096
 1589SOL     OW 1027   2.665   1.402   2.786
 1589SOL    HW1 1028   2.755   1.416   2.744
 1589SOL    HW2 1029   2.594   1.404   2.715
 1592SOL     OW 1030   3.296   1.188   1.903
 1592SOL    HW1 1031   3.328   1.112   1.960
 1592SOL    HW2 1032   3.204   1.215   1.933
 1596SOL     OW 1033   3.089   1.570   2.655
 1596SOL    HW1 1034   3.110   1.644   2.590
 1596SOL    HW2 1035   3.157   1.570   2.728
 1597SOL     OW 1036   2.321   1.152   2.603
 1597SOL    HW1 1037   2.250   1.125   2.668
 1597SOL    HW2 1038   2.295   1.124   2.510
 1598SOL     OW 1039   3.133   1.797   2.453
 1598SOL    HW1 1040   3.177   1.861   2.389
 1598SOL    HW2 1041   3.083   1.849   2.523
 1604SOL     OW 1042   3.291   1.173   2.729
 1604SOL    HW1 1043   3.236   1.089   2.722
 1604SOL    HW2 1044   3.317   1.202   2.637
 1607SOL     OW 1045   2.350   1.385   2.036
 1607SOL    HW1 1046   2.263   1.370   2.083
 1607SOL    HW2 1047   2.333   1.411   1.941
 1608SOL     OW 1048   3.526   1.280   2.519
 1608SOL    HW1 1049   3.625   1.288   2.533
 1608SOL    HW2 1050   3.481   1.364   2.550
 1612SOL     OW 1051   2.926   1.347   3.202
 1612SOL    HW1 1052   2.846   1.324   3.257
 1612SOL    HW2 1053   3.009   1.321   3.251
 1613SOL     OW 1054   3.454   1.629   3.487
 1613SOL    HW1 1055   3.481   1.663   3.397
 1613SOL    HW2 1056   3.533   1.591   3.533
 1614SOL     OW 1057   2.973   1.195   2.962
 1614SOL    HW1 1058   2.933   1.239   3.043
 1614SOL    HW2 1059   2.932   1.232   2.879
 1618SOL     OW 1060   2.567   1.050   2.230
 1618SOL    HW1 1061   2.553   1.057   2.329
 1618SOL    HW2 1062   2.651   0.999   2.212
 1619SOL     OW 1063   2.272   0.813   3.113
 1619SOL    HW1 1064   2.358   0.825   3.163
 1619SOL    HW2 1065   2.230   0.726   3.140
 1621SOL     OW 1066   1.926   1.564   3.193
 1621SOL    HW1 1067   1.880   1.646   3.159
 1621SOL    HW2 1068   2.024   1.583   3.202
 1622SOL     OW 1069   2.229   1.100   2.363
 1622SOL    HW1 1070   2.222   1.183   2.307
 1622SOL    HW2 1071   2.233   1.020   2.303
 1624SOL     OW 1072   3.114   1.348   2.250
 1624SOL    HW1 1073   3.164   1.425   2.290
 1624SOL    HW2 1074   3.019   1.350   2.282
 1625SOL     OW 1075   3.134   1.445   3.004
 1625SOL    HW1 1076   3.181   1.458   3.091
 1625SOL    HW2 1077   3.068   1.371   3.013
 1627SOL     OW 1078   2.216   1.510   3.191
 1627SOL    HW1 1079   2.195   1.466   3.104
 1627SOL    HW2 1080   2.313   1.536   3.194
 1632SOL     OW 1081   2.435   0.870   2.891
 1632SOL    HW1 1082   2.479   0.959   2.882
 1632SOL    HW2 1083   2.372   0.870   2.968
 1636SOL     OW 1084   1.899   1.310   3.144
 1636SOL    HW1 1085   1.952   1.261   3.212
 1636SOL    HW2 1086   1.921   1.408   3.149
 1641SOL     OW 1087   2.885   0.766   2.828
 1641SOL    HW1 1088   2.900   0.787   2.924
 1641SOL    HW2 1089   2.855   0.671   2.819
 1642SOL     OW 1090   2.842   1.573   3.562
 1642SOL    HW1 1091   2.822   1.617   3.474
 1642SOL    HW2 1092   2.881   1.482   3.546
 1646SOL     OW 1093   3.165   0.838   1.904
 1646SOL    HW1 1094   3.199   0.745   1.919
 1646SOL    HW2 1095   3.183   0.865   1.809
 1647SOL     OW 1096   2.930   1.333   2.711
 1647SOL    HW1 1097   2.937   1.249   2.656
 1647SOL    HW2 1098   2.992   1.402   2.675
 1648SOL     OW 1099   2.181   0.810   2.811
 1648SOL    HW1 1100   2.274   0.846   2.816
 1648SOL    HW2 1101   2.175   0.725   2.863
 1652SOL     OW 1102   1.870   1.326   2.062
 1652SOL    HW1 1103   1.777   1.347   2.031
 1652SOL    HW2 1104   1.880   1.227   2.075
 1653SOL     OW 1105   1.950   1.801   2.789
 1653SOL    HW1 1106   1.908   1.715   2.762
 1653SOL    HW2 1107   2.044   1.804   2.755
 1654SOL     OW 1108   2.366   1.568   2.772
 1654SOL    HW1 1109   2.432   1.642   2.781
 1654SOL    HW2 1110   2.410   1.489   2.730
 1655SOL     OW 1111   2.864   0.796   3.100
 1655SOL    HW1 1112   2.905   0.764   3.186
 1655SOL    HW2 1113   2.768   0.769   3.097
 1659SOL     OW 1114   2.677   0.572   2.187
 1659SOL    HW1 1115   2.684   0.483   2.141
 1659SOL    HW2 1116   2.583   0.606   2.179
 1661SOL     OW 1117   2.114   1.564   3.606
 1661SOL    HW1 1118   2.084   1.621   3.682
 1661SOL    HW2 1119   2.107   1.467   3.632
 1663SOL     OW 1120   2.792   1.678   3.327
 1663SOL    HW1 1121   2.768   1.660   3.232
 1663SOL    HW2 1122   2.822   1.772   3.337
 1665SOL     OW 1123   2.021   1.137   3.328
 1665SOL    HW1 1124   2.043   1.076   3.404
 1665SOL    HW2 1125   2.031   1.088   3.242
 1666SOL     OW 1126   3.209   1.059   3.096
 1666SOL    HW1 1127   3.233   0.996   3.022
 1666SOL    HW2 1128   3.119   1.099   3.078
 1667SOL     OW 1129   3.164   0.855   2.171
 1667SOL    HW1 1130   3.078   0.824   2.213
 1667SOL    HW2 1131   3.160   0.841   2.072
 1668SOL     OW 1132   3.621   1.747   3.016
 1668SOL    HW1 1133   3.682   1.777   2.943
 1668SOL    HW2 1134   3.583   1.658   2.994
 1669SOL     OW 1135   3.114   1.731   2.990
 1669SOL    HW1 1136   3.198   1.736   2.936
 1669SOL    HW2 1137   3.091   1.635   3.008
 1670SOL     OW 1138   1.945   1.258   2.884
 1670SOL    HW1 1139   1.940   1.257   2.984
 1670SOL    HW2 1140   1.862   1.217   2.846
 1671SOL     OW 1141   2.550   1.662   3.578
 1671SOL    HW1 1142   2.494   1.743   3.587
 1671SOL    HW2 1143   2.602   1.666   3.492
 1673SOL     OW 1144   3.250   1.573   2.339
 1673SOL    HW1 1145   3.317   1.585   2.265
 1673SOL    HW2 1146   3.210   1.662   2.362
 1674SOL     OW 1147   1.992   1.794   3.713
 1674SOL    HW1 1148   1.951   1.720   3.766
 1674SOL    HW2 1149   2.056   1.845   3.771
 1675SOL     OW 1150   3.142   0.927   2.534
 1675SOL    HW1 1151   3.202   0.846   2.536
 1675SOL    HW2 1152   3.182   0.996   2.474
 1676SOL     OW 1153   2.692   1.273   3.284
 1676SOL    HW1 1154   2.687   1.306   3.379
 1676SOL    HW2 1155   2.606   1.292   3.238
 1677SOL     OW 1156   2.534   1.616   2.016
 1677SOL    HW1 1157   2.543   1.626   1.917
 1677SOL    HW2 1158   2.494   1.527   2.037
 1678SOL     OW 1159   3.512   1.720   3.256
 1678SOL    HW1 1160   3.565   1.730   3.172
 1678SOL    HW2 1161   3.485   1.810   3.290
 1681SOL     OW 1162   3.056   1.612   1.893
 1681SOL    HW1 1163   3.062   1.519   1.930
 1681SOL    HW2 1164   2.997   1.612   1.813
 1682SOL     OW 1165   2.684   1.002   3.234
 1682SOL    HW1 1166   2.724   1.001   3.142
 1682SOL    HW2 1167   2.694   1.094   3.274
 1683SOL     OW 1168   2.778   0.910   2.153
 1683SOL    HW1 1169   2.841   0.948   2.085
 1683SOL    HW2 1170   2.818   0.827   2.192
 1684SOL     OW 1171   3.366   1.607   1.906
 1684SOL    HW1 1172   3.274   1.644   1.913
 1684SOL    HW2 1173   3.404   1.627   1.816
 1685SOL     OW 1174   2.234   1.288   3.352
 1685SOL    HW1 1175   2.221   1.381   3.318
 1685SOL    HW2 1176   2.150   1.236   3.339
 1686SOL     OW 1177   3.476   1.292   3.151
 1686SOL    HW1 1178   3.536   1.295   3.231
 1686SOL    HW2 1179   3.401   1.356   3.164
 1687SOL     OW 1180   2.901   1.098   2.558
 1687SOL    HW1 1181   2.831   1.051   2.612
 1687SOL    HW2 1182   2.960   1.030   2.515
 1689SOL     OW 1183   2.452   1.487   2.353
 1689SOL    HW1 1184   2.494   1.429   2.283
 1689SOL    HW2 1185   2.408   1.566   2.309
 1691SOL     OW 1186   2.117   1.348   2.152
 1691SOL    HW1 1187   2.021   1.349   2.125
 1691SOL    HW2 1188   2.129   1.401   2.236
 1697SOL     OW 1189   3.045   1.335   1.981
 1697SOL    HW1 1190   2.946   1.324   1.983
 1697SOL    HW2 1191   3.079   1.350   2.074
 1698SOL     OW 1192   2.475   0.842   3.293
 1698SOL    HW1 1193   2.531   0.923   3.276
 1698SOL    HW2 1194   2.534   0.762   3.296
 1699SOL     OW 1195   3.355   1.767   2.821
 1699SOL    HW1 1196   3.388   1.831   2.752
 1699SOL    HW2 1197   3.421   1.761   2.896
 1702SOL     OW 1198   2.252   1.741   3.422
 1702SOL    HW1 1199   2.161   1.782   3.420
 1702SOL    HW2 1200   2.245   1.647   3.454
 1705SOL     OW 1201   2.456   0.745   2.514
 1705SOL    HW1 1202   2.506   0.830   2.495
 1705SOL    HW2 1203   2.368   0.747   2.466
 1708SOL     OW 1204   2.721   1.374   1.878
 1708SOL    HW1 1205   2.675   1.389   1.966
 1708SOL    HW2 1206   2.765   1.459   1.848
 1709SOL     OW 1207   2.523   1.790   2.815
 1709SOL    HW1 1208   2.477   1.878   2.802
 1709SOL    HW2 1209   2.622   1.802   2.808
 1710SOL     OW 1210   2.721   0.956   2.723
 1710SOL    HW1 1211   2.775   0.887   2.771
 1710SOL    HW2 1212   2.689   1.025   2.789
 1711SOL     OW 1213   2.945   0.984   1.949
 1711SOL    HW1 1214   2.922   1.037   1.867
 1711SOL    HW2 1215   3.026   0.928   1.930
 1712SOL     OW 1216   3.723   1.569   2.713
 1712SOL    HW1 1217   3.652   1.557   2.643
 1712SOL    HW2 1218   3.724   1.490   2.773
 1713SOL     OW 1219   2.083   1.314   3.706
 1713SOL    HW1 1220   2.018   1.241   3.685
 1713SOL    HW2 1221   2.087   1.328   3.804
 1714SOL     OW 1222   1.941   1.240   2.515
 1714SOL    HW1 1223   1.940   1.193   2.603
 1714SOL    HW2 1224   2.023   1.212   2.464
 1715SOL     OW 1225   2.534   1.391   3.486
 1715SOL    HW1 1226   2.456   1.341   3.524
 1715SOL    HW2 1227   2.531   1.486   3.517
 1718SOL     OW 1228   3.567   1.487   2.966
 1718SOL    HW1 1229   3.474   1.462   2.939
 1718SOL    HW2 1230   3.593   1.437   3.048
 1720SOL     OW 1231   2.674   1.586   2.549
 1720SOL    HW1 1232   2.706   1.596   2.455
 1720SOL    HW2 1233   2.595   1.524   2.551
 1723SOL     OW 1234   2.632   1.330   2.163
 1723SOL    HW1 1235   2.586   1.243   2.180
 1723SOL    HW2 1236   2.723   1.327   2.204
 1724SOL     OW 1237   2.480   1.567   3.146
 1724SOL    HW1 1238   2.475   1.649   3.203
 1724SOL    HW2 1239   2.569   1.564   3.101
 1728SOL     OW 1240   1.901   1.077   2.162
 1728SOL    HW1 1241   2.000   1.066   2.153
 1728SOL    HW2 1242   1.861   0.991   2.194
 1729SOL     OW 1243   2.737   1.646   2.199
 1729SOL    HW1 1244   2.660   1.611   2.145
 1729SOL    HW2 1245   2.705   1.717   2.261
 1745SOL     OW 1246   1.889   1.596   3.841
 1745SOL    HW1 1247   1.870   1.500   3.862
 1745SOL    HW2 1248   1.856   1.654   3.916
 1803SOL     OW 1249   2.534   1.616   3.878
 1803SOL    HW1 1250   2.543   1.626   3.779
 1803SOL    HW2 1251   2.494   1.527   3.899
 1806SOL     OW 1252   3.056   1.612   3.755
 1806SOL    HW1 1253   3.062   1.519   3.792
 1806SOL    HW2 1254   2.997   1.612   3.675
 1817SOL     OW 1255   2.721   1.374   3.740
 1817SOL    HW1 1256   2.675   1.389   3.828
 1817SOL    HW2 1257   2.765   1.459   3.710
 1831SOL     OW 1258   2.087   2.137   0.996
 1831SOL    HW1 1259   2.122   2.120   1.088
 1831SOL    HW2 1260   1.999   2.092   0.984
 1832SOL     OW 1261   1.881   2.230   0.647
 1832SOL    HW1 1262   1.799   2.273   0.686
 1832SOL    HW2 1263   1.853   2.157   0.584
 1833SOL     OW 1264   2.431   3.137   1.165
 1833SOL    HW1 1265   2.338   3.130   1.128
 1833SOL    HW2 1266   2.442   3.226   1.209
 1835SOL     OW 1267   2.997   2.565   0.717
 1835SOL    HW1 1268   3.054   2.643   0.692
 1835SOL    HW2 1269   2.937   2.591   0.793
 1837SOL     OW 1270   2.630   3.006   1.023
 1837SOL    HW1 1271   2.552   3.023   1.083
 1837SOL    HW2 1272   2.664   3.093   0.987
 1838SOL     OW 1273   2.712   2.660   1.823
 1838SOL    HW1 1274   2.708   2.736   1.888
 1838SOL    HW2 1275   2.734   2.696   1.732
 1839SOL     OW 1276   2.547   2.874   0.665
 1839SOL    HW1 1277   2.616   2.858   0.735
 1839SOL    HW2 1278   2.474   2.931   0.703
 1840SOL     OW 1279   2.548   3.023   1.803
 1840SOL    HW1 1280   2.608   3.102   1.817
 1840SOL    HW2 1281   2.462   3.054   1.762
 1841SOL     OW 1282   2.197   3.297   1.061
 1841SOL    HW1 1283   2.119   3.266   1.008
 1841SOL    HW2 1284   2.255   3.355   1.004
 1842SOL     OW 1285   3.322   3.367   1.339
 1842SOL    HW1 1286   3.346   3.461   1.365
 1842SOL    HW2 1287   3.306   3.313   1.421
 1843SOL     OW 1288   2.300   2.254   1.499
 1843SOL    HW1 1289   2.382   2.198   1.508
 1843SOL    HW2 1290   2.219   2.196   1.503
 1846SOL     OW 1291   2.989   3.203   1.690
 1846SOL    HW1 1292   3.036   3.203   1.778
 1846SOL    HW2 1293   2.941   3.116   1.679
 1848SOL     OW 1294   2.102   2.953   0.886
 1848SOL    HW1 1295   2.116   2.869   0.938
 1848SOL    HW2 1296   2.047   3.017   0.941
 1849SOL     OW 1297   2.482   3.648   1.439
 1849SOL    HW1 1298   2.390   3.631   1.474
 1849SOL    HW2 1299   2.510   3.740   1.465
 1851SOL     OW 1300   3.456   1.976   1.480
 1851SOL    HW1 1301   3.438   2.043   1.408
 1851SOL    HW2 1302   3.453   2.022   1.569
 1857SOL     OW 1303   1.975   2.599   1.597
 1857SOL    HW1 1304   2.063   2.586   1.642
 1857SOL    HW2 1305   1.962   2.696   1.575
 1859SOL     OW 1306   3.155   3.090   1.423
 1859SOL    HW1 1307   3.192   3.017   1.365
 1859SOL    HW2 1308   3.207   3.095   1.508
 1861SOL     OW 1309   2.059   2.838   1.264
 1861SOL    HW1 1310   2.148   2.793   1.250
 1861SOL    HW2 1311   1.986   2.773   1.245
 1863SOL     OW 1312   3.049   3.654   1.616
 1863SOL    HW1 1313   3.073   3.714   1.540
 1863SOL    HW2 1314   3.056   3.559   1.586
 1864SOL     OW 1315   2.179   2.113   1.801
 1864SOL    HW1 1316   2.250   2.184   1.807
 1864SOL    HW2 1317   2.091   2.152   1.829
 1868SOL     OW 1318   3.143   2.207   0.944
 1868SOL    HW1 1319   3.057   2.157   0.931
 1868SOL    HW2 1320   3.205   2.153   1.000
 1870SOL     OW 1321   2.669   2.467   1.465
 1870SOL    HW1 1322   2.622   2.464   1.554
 1870SOL    HW2 1323   2.618   2.412   1.399
 1871SOL     OW 1324   3.256   2.331   1.674
 1871SOL    HW1 1325   3.236   2.374   1.762
 1871SOL    HW2 1326   3.334   2.269   1.683
 1872SOL     OW 1327   2.835   2.752   1.572
 1872SOL    HW1 1328   2.881   2.668   1.543
 1872SOL    HW2 1329   2.779   2.786   1.497
 1873SOL     OW 1330   2.853   2.272   1.242
 1873SOL    HW1 1331   2.776   2.306   1.296
 1873SOL    HW2 1332   2.819   2.221   1.163
 1875SOL     OW 1333   1.938   2.673   0.789
 1875SOL    HW1 1334   2.037   2.661   0.798
 1875SOL    HW2 1335   1.914   2.768   0.810
 1876SOL     OW 1336   1.992   3.683   1.571
 1876SOL    HW1 1337   1.982   3.668   1.670
 1876SOL    HW2 1338   1.906   3.719   1.535
 1878SOL     OW 1339   3.581   2.447   1.831
 1878SOL    HW1 1340   3.555   2.536   1.795
 1878SOL    HW2 1341   3.579   2.379   1.758
 1880SOL     OW 1342   2.412   2.058   0.885
 1880SOL    HW1 1343   2.407   2.053   0.985
 1880SOL    HW2 1344   2.414   2.154   0.856
 1884SOL     OW 1345   3.089   3.412   1.506
 1884SOL    HW1 1346   3.095   3.335   1.570
 1884SOL    HW2 1347   3.037   3.386   1.426
 1887SOL     OW 1348   2.323   3.128   1.727
 1887SOL    HW1 1349   2.273   3.129   1.641
 1887SOL    HW2 1350   2.260   3.110   1.803
 1889SOL     OW 1351   2.064   2.147   1.498
 1889SOL    HW1 1352   1.984   2.207   1.485
 1889SOL    HW2 1353   2.054   2.098   1.584
 1893SOL     OW 1354   2.111   3.647   1.241
 1893SOL    HW1 1355   2.168   3.582   1.291
 1893SOL    HW2 1356   2.095   3.614   1.148
 1896SOL     OW 1357   3.409   2.084   1.729
 1896SOL    HW1 1358   3.404   2.121   1.821
 1896SOL    HW2 1359   3.337   2.015   1.717
 1897SOL     OW 1360   2.643   2.126   1.749
 1897SOL    HW1 1361   2.710   2.065   1.792
 1897SOL    HW2 1362   2.570   2.145   1.814
 1898SOL     OW 1363   2.750   3.376   1.195
 1898SOL    HW1 1364   2.727   3.351   1.101
 1898SOL    HW2 1365   2.811   3.307   1.234
 1899SOL     OW 1366   3.213   2.452   1.433
 1899SOL    HW1 1367   3.241   2.409   1.518
 1899SOL    HW2 1368   3.238   2.548   1.434
 1900SOL     OW 1369   2.665   3.264   0.924
 1900SOL    HW1 1370   2.755   3.278   0.882
 1900SOL    HW2 1371   2.594   3.266   0.853
 1901SOL     OW 1372   2.784   2.365   0.899
 1901SOL    HW1 1373   2.759   2.356   0.803
 1901SOL    HW2 1374   2.832   2.283   0.930
 1906SOL     OW 1375   2.938   2.545   1.464
 1906SOL    HW1 1376   2.858   2.484   1.467
 1906SOL    HW2 1377   3.019   2.492   1.440
 1908SOL     OW 1378   2.321   3.014   0.741
 1908SOL    HW1 1379   2.250   2.987   0.806
 1908SOL    HW2 1380   2.295   2.986   0.648
 1911SOL     OW 1381   1.940   2.418   1.386
 1911SOL    HW1 1382   2.032   2.417   1.345
 1911SOL    HW2 1383   1.934   2.492   1.453
 1912SOL     OW 1384   2.423   2.084   1.147
 1912SOL    HW1 1385   2.461   2.000   1.184
 1912SOL    HW2 1386   2.335   2.103   1.191
 1913SOL     OW 1387   2.728   2.316   0.642
 1913SOL    HW1 1388   2.696   2.388   0.580
 1913SOL    HW2 1389   2.752   2.235   0.589
 1914SOL     OW 1390   2.879   1.901   0.753
 1914SOL    HW1 1391   2.807   1.906   0.684
 1914SOL    HW2 1392   2.855   1.832   0.822
 1916SOL     OW 1393   3.328   2.452   0.992
 1916SOL    HW1 1394   3.298   2.357   0.999
 1916SOL    HW2 1395   3.401   2.468   1.058
 1922SOL     OW 1396   3.616   3.085   1.588
 1922SOL    HW1 1397   3.707   3.046   1.575
 1922SOL    HW2 1398   3.624   3.181   1.612
 1923SOL     OW 1399   2.926   3.209   1.340
 1923SOL    HW1 1400   2.846   3.186   1.395
 1923SOL    HW2 1401   3.009   3.183   1.389
 1924SOL     OW 1402   3.454   3.491   1.625
 1924SOL    HW1 1403   3.481   3.525   1.535
 1924SOL    HW2 1404   3.533   3.453   1.671
 1925SOL     OW 1405   2.973   3.057   1.100
 1925SOL    HW1 1406   2.933   3.101   1.181
 1925SOL    HW2 1407   2.932   3.094   1.017
 1927SOL     OW 1408   2.777   1.951   1.402
 1927SOL    HW1 1409   2.802   1.931   1.307
 1927SOL    HW2 1410   2.849   2.007   1.444
 1928SOL     OW 1411   2.842   2.978   1.719
 1928SOL    HW1 1412   2.743   2.984   1.729
 1928SOL    HW2 1413   2.865   2.898   1.663
 1930SOL     OW 1414   2.272   2.675   1.251
 1930SOL    HW1 1415   2.358   2.687   1.301
 1930SOL    HW2 1416   2.230   2.588   1.278
 1931SOL     OW 1417   3.136   2.248   1.262
 1931SOL    HW1 1418   3.157   2.322   1.326
 1931SOL    HW2 1419   3.047   2.265   1.219
 1932SOL     OW 1420   1.926   3.426   1.331
 1932SOL    HW1 1421   1.880   3.508   1.297
 1932SOL    HW2 1422   2.024   3.445   1.340
 1934SOL     OW 1423   2.428   2.399   0.865
 1934SOL    HW1 1424   2.440   2.465   0.791
 1934SOL    HW2 1425   2.474   2.433   0.948
 1936SOL     OW 1426   3.134   3.307   1.142
 1936SOL    HW1 1427   3.181   3.320   1.229
 1936SOL    HW2 1428   3.068   3.233   1.151
 1938SOL     OW 1429   2.216   3.372   1.329
 1938SOL    HW1 1430   2.195   3.328   1.242
 1938SOL    HW2 1431   2.313   3.398   1.332
 1939SOL     OW 1432   2.264   2.613   1.598
 1939SOL    HW1 1433   2.332   2.668   1.551
 1939SOL    HW2 1434   2.304   2.525   1.625
 1940SOL     OW 1435   3.449   2.641   1.670
 1940SOL    HW1 1436   3.357   2.679   1.665
 1940SOL    HW2 1437   3.509   2.688   1.605
 1941SOL     OW 1438   2.875   1.967   1.770
 1941SOL    HW1 1439   2.881   2.052   1.718
 1941SOL    HW2 1440   2.907   1.891   1.713
 1942SOL     OW 1441   2.366   1.912   1.740
 1942SOL    HW1 1442   2.324   1.855   1.670
 1942SOL    HW2 1443   2.300   1.981   1.772
 1943SOL     OW 1444   2.435   2.732   1.029
 1943SOL    HW1 1445   2.479   2.821   1.020
 1943SOL    HW2 1446   2.372   2.732   1.106
 1944SOL     OW 1447   3.222   2.724   1.045
 1944SOL    HW1 1448   3.147   2.724   0.979
 1944SOL    HW2 1449   3.259   2.632   1.054
 1946SOL     OW 1450   2.169   2.075   1.231
 1946SOL    HW1 1451   2.146   2.112   1.321
 1946SOL    HW2 1452   2.139   1.980   1.225
 1947SOL     OW 1453   1.899   3.172   1.282
 1947SOL    HW1 1454   1.952   3.123   1.350
 1947SOL    HW2 1455   1.921   3.270   1.287
 1948SOL     OW 1456   2.594   2.496   1.064
 1948SOL    HW1 1457   2.653   2.470   0.988
 1948SOL    HW2 1458   2.566   2.592   1.053
 1949SOL     OW 1459   3.590   2.797   1.854
 1949SOL    HW1 1460   3.544   2.790   1.765
 1949SOL    HW2 1461   3.528   2.841   1.920
 1950SOL     OW 1462   2.169   1.925   0.618
 1950SOL    HW1 1463   2.158   2.019   0.651
 1950SOL    HW2 1464   2.164   1.862   0.695
 1952SOL     OW 1465   2.885   2.628   0.966
 1952SOL    HW1 1466   2.900   2.649   1.062
 1952SOL    HW2 1467   2.855   2.533   0.957
 1953SOL     OW 1468   2.842   3.435   1.700
 1953SOL    HW1 1469   2.822   3.479   1.612
 1953SOL    HW2 1470   2.881   3.344   1.684
 1955SOL     OW 1471   2.212   2.760   1.804
 1955SOL    HW1 1472   2.288   2.804   1.852
 1955SOL    HW2 1473   2.247   2.713   1.722
 1959SOL     OW 1474   2.181   2.672   0.949
 1959SOL    HW1 1475   2.274   2.708   0.954
 1959SOL    HW2 1476   2.175   2.587   1.001
 1960SOL     OW 1477   2.201   2.371   1.006
 1960SOL    HW1 1478   2.149   2.288   0.989
 1960SOL    HW2 1479   2.278   2.376   0.942
 1961SOL     OW 1480   3.000   2.242   1.678
 1961SOL    HW1 1481   2.955   2.305   1.742
 1961SOL    HW2 1482   3.093   2.273   1.661
 1962SOL     OW 1483   3.022   2.069   1.477
 1962SOL    HW1 1484   3.022   2.133   1.554
 1962SOL    HW2 1485   3.050   2.117   1.394
 1965SOL     OW 1486   2.366   3.430   0.910
 1965SOL    HW1 1487   2.432   3.504   0.919
 1965SOL    HW2 1488   2.410   3.351   0.868
 1966SOL     OW 1489   2.864   2.658   1.238
 1966SOL    HW1 1490   2.905   2.626   1.324
 1966SOL    HW2 1491   2.768   2.631   1.235
 1967SOL     OW 1492   1.902   2.406   1.114
 1967SOL    HW1 1493   1.987   2.373   1.073
 1967SOL    HW2 1494   1.915   2.421   1.212
 1968SOL     OW 1495   2.051   2.382   1.722
 1968SOL    HW1 1496   2.110   2.342   1.652
 1968SOL    HW2 1497   1.993   2.453   1.681
 1969SOL     OW 1498   3.231   2.812   1.660
 1969SOL    HW1 1499   3.270   2.901   1.680
 1969SOL    HW2 1500   3.241   2.792   1.563
 1971SOL     OW 1501   3.519   2.466   1.206
 1971SOL    HW1 1502   3.481   2.397   1.268
 1971SOL    HW2 1503   3.601   2.430   1.162
 1972SOL     OW 1504   2.114   3.426   1.744
 1972SOL    HW1 1505   2.084   3.483   1.820
 1972SOL    HW2 1506   2.107   3.329   1.770
 1973SOL     OW 1507   2.533   2.326   1.269
 1973SOL    HW1 1508   2.499   2.237   1.239
 1973SOL    HW2 1509   2.559   2.380   1.189
 1974SOL     OW 1510   2.792   3.540   1.465
 1974SOL    HW1 1511   2.768   3.522   1.370
 1974SOL    HW2 1512   2.822   3.634   1.475
 1976SOL     OW 1513   2.021   2.999   1.466
 1976SOL    HW1 1514   2.043   2.938   1.542
 1976SOL    HW2 1515   2.031   2.950   1.380
 1977SOL     OW 1516   3.209   2.921   1.234
 1977SOL    HW1 1517   3.233   2.858   1.160
 1977SOL    HW2 1518   3.119   2.961   1.216
 1981SOL     OW 1519   1.945   3.120   1.022
 1981SOL    HW1 1520   1.940   3.119   1.122
 1981SOL    HW2 1521   1.862   3.079   0.984
 1982SOL     OW 1522   2.550   3.524   1.716
 1982SOL    HW1 1523   2.494   3.605   1.725
 1982SOL    HW2 1524   2.602   3.528   1.630
 1986SOL     OW 1525   1.992   3.656   1.851
 1986SOL    HW1 1526   1.951   3.582   1.904
 1986SOL    HW2 1527   2.056   3.707   1.909
 1988SOL     OW 1528   2.692   3.135   1.422
 1988SOL    HW1 1529   2.687   3.168   1.517
 1988SOL    HW2 1530   2.606   3.154   1.376
 1992SOL     OW 1531   2.125   2.188   0.720
 1992SOL    HW1 1532   2.046   2.239   0.686
 1992SOL    HW2 1533   2.116   2.173   0.818
 1994SOL     OW 1534   2.684   2.864   1.372
 1994SOL    HW1 1535   2.724   2.863   1.280
 1994SOL    HW2 1536   2.694   2.956   1.412
 1997SOL     OW 1537   2.234   3.150   1.490
 1997SOL    HW1 1538   2.221   3.243   1.456
 1997SOL    HW2 1539   2.150   3.098   1.477
 1998SOL     OW 1540   3.476   3.154   1.289
 1998SOL    HW1 1541   3.536   3.157   1.369
 1998SOL    HW2 1542   3.401   3.218   1.302
 2000SOL     OW 1543   2.876   2.098   0.971
 2000SOL    HW1 1544   2.868   2.062   0.878
 2000SOL    HW2 1545   2.874   2.022   1.036
 2002SOL     OW 1546   3.571   2.247   1.381
 2002SOL    HW1 1547   3.644   2.316   1.385
 2002SOL    HW2 1548   3.599   2.172   1.322
 2004SOL     OW 1549   1.967   2.875   1.726
 2004SOL    HW1 1550   1.890   2.842   1.780
 2004SOL    HW2 1551   2.052   2.845   1.768
 2005SOL     OW 1552   2.534   2.065   1.489
 2005SOL    HW1 1553   2.624   2.049   1.449
 2005SOL    HW2 1554   2.542   2.070   1.588
 2006SOL     OW 1555   3.302   2.718   1.398
 2006SOL    HW1 1556   3.245   2.770   1.335
 2006SOL    HW2 1557   3.398   2.730   1.374
 2009SOL     OW 1558   2.475   2.704   1.431
 2009SOL    HW1 1559   2.531   2.785   1.414
 2009SOL    HW2 1560   2.534   2.624   1.434
 2011SOL     OW 1561   2.578   2.427   1.708
 2011SOL    HW1 1562   2.597   2.492   1.782
 2011SOL    HW2 1563   2.638   2.347   1.717
 2012SOL     OW 1564   3.312   3.082   1.633
 2012SOL    HW1 1565   3.303   3.072   1.732
 2012SOL    HW2 1566   3.408   3.075   1.607
 2013SOL     OW 1567   2.252   3.603   1.560
 2013SOL    HW1 1568   2.161   3.644   1.558
 2013SOL    HW2 1569   2.245   3.509   1.592
 2014SOL     OW 1570   3.536   2.745   1.254
 2014SOL    HW1 1571   3.509   2.656   1.217
 2014SOL    HW2 1572   3.537   2.813   1.181
 2016SOL     OW 1573   2.456   2.607   0.652
 2016SOL    HW1 1574   2.506   2.692   0.633
 2016SOL    HW2 1575   2.368   2.609   0.604
 2017SOL     OW 1576   3.639   2.204   1.642
 2017SOL    HW1 1577   3.622   2.235   1.548
 2017SOL    HW2 1578   3.555   2.167   1.680
 2018SOL     OW 1579   3.592   2.796   1.517
 2018SOL    HW1 1580   3.630   2.887   1.532
 2018SOL    HW2 1581   3.584   2.779   1.418
 2021SOL     OW 1582   2.721   2.818   0.861
 2021SOL    HW1 1583   2.775   2.749   0.909
 2021SOL    HW2 1584   2.689   2.887   0.927
 2024SOL     OW 1585   2.083   3.176   1.844
 2024SOL    HW1 1586   2.018   3.103   1.823
 2024SOL    HW2 1587   2.087   3.190   1.942
 2026SOL     OW 1588   2.534   3.253   1.624
 2026SOL    HW1 1589   2.456   3.203   1.662
 2026SOL    HW2 1590   2.531   3.348   1.655
 2027SOL     OW 1591   3.686   2.054   1.227
 2027SOL    HW1 1592   3.682   1.964   1.271
 2027SOL    HW2 1593   3.689   2.043   1.128
 2030SOL     OW 1594   2.179   2.409   1.280
 2030SOL    HW1 1595   2.217   2.350   1.352
 2030SOL    HW2 1596   2.219   2.383   1.192
 2032SOL     OW 1597   3.286   2.076   1.112
 2032SOL    HW1 1598   3.338   2.011   1.167
 2032SOL    HW2 1599   3.237   2.139   1.173
 2033SOL     OW 1600   2.863   1.896   1.154
 2033SOL    HW1 1601   2.800   1.824   1.123
 2033SOL    HW2 1602   2.956   1.860   1.154
 2035SOL     OW 1603   2.480   3.429   1.284
 2035SOL    HW1 1604   2.475   3.511   1.341
 2035SOL    HW2 1605   2.569   3.426   1.239
 2041SOL     OW 1606   2.092   2.490   1.975
 2041SOL    HW1 1607   1.999   2.488   2.012
 2041SOL    HW2 1608   2.093   2.451   1.883
 2042SOL     OW 1609   2.087   2.137   2.858
 2042SOL    HW1 1610   2.122   2.120   2.950
 2042SOL    HW2 1611   1.999   2.092   2.846
 2043SOL     OW 1612   1.881   2.230   2.509
 2043SOL    HW1 1613   1.799   2.273   2.548
 2043SOL    HW2 1614   1.853   2.157   2.446
 2044SOL     OW 1615   2.431   3.137   3.027
 2044SOL    HW1 1616   2.338   3.130   2.990
 2044SOL    HW2 1617   2.442   3.226   3.071
 2045SOL     OW 1618   3.417   3.373   2.565
 2045SOL    HW1 1619   3.360   3.357   2.646
 2045SOL    HW2 1620   3.358   3.383   2.485
 2046SOL     OW 1621   2.997   2.565   2.579
 2046SOL    HW1 1622   3.054   2.643   2.554
 2046SOL    HW2 1623   2.937   2.591   2.655
 2047SOL     OW 1624   3.617   2.469   2.093
 2047SOL    HW1 1625   3.605   2.456   1.994
 2047SOL    HW2 1626   3.587   2.388   2.142
 2048SOL     OW 1627   2.630   3.006   2.885
 2048SOL    HW1 1628   2.552   3.023   2.945
 2048SOL    HW2 1629   2.664   3.093   2.849
 2049SOL     OW 1630   2.712   2.660   3.685
 2049SOL    HW1 1631   2.708   2.736   3.750
 2049SOL    HW2 1632   2.734   2.696   3.594
 2050SOL     OW 1633   2.547   2.874   2.527
 2050SOL    HW1 1634   2.616   2.858   2.597
 2050SOL    HW2 1635   2.474   2.931   2.565
 2051SOL     OW 1636   2.548   3.023   3.665
 2051SOL    HW1 1637   2.608   3.102   3.679
 2051SOL    HW2 1638   2.462   3.054   3.624
 2052SOL     OW 1639   2.197   3.297   2.923
 2052SOL    HW1 1640   2.119   3.266   2.870
 2052SOL    HW2 1641   2.255   3.355   2.866
 2053SOL     OW 1642   3.322   3.367   3.201
 2053SOL    HW1 1643   3.346   3.461   3.227
 2053SOL    HW2 1644   3.306   3.313   3.283
 2054SOL     OW 1645   2.300   2.254   3.361
 2054SOL    HW1 1646   2.382   2.198   3.370
 2054SOL    HW2 1647   2.219   2.196   3.365
 2055SOL     OW 1648   3.465   2.309   2.599
 2055SOL    HW1 1649   3.391   2.355   2.549
 2055SOL    HW2 1650   3.516   2.377   2.652
 2056SOL     OW 1651   2.093   3.575   2.345
 2056SOL    HW1 1652   2.127   3.652   2.399
 2056SOL    HW2 1653   2.137   3.575   2.255
 2057SOL     OW 1654   2.989   3.203   3.552
 2057SOL    HW1 1655   3.036   3.203   3.640
 2057SOL    HW2 1656   2.941   3.116   3.541
 2058SOL     OW 1657   2.092   3.296   2.400
 2058SOL    HW1 1658   2.066   3.392   2.400
 2058SOL    HW2 1659   2.021   3.242   2.445
 2059SOL     OW 1660   2.102   2.953   2.748
 2059SOL    HW1 1661   2.116   2.869   2.800
 2059SOL    HW2 1662   2.047   3.017   2.803
 2060SOL     OW 1663   2.482   3.648   3.301
 2060SOL    HW1 1664   2.390   3.631   3.336
 2060SOL    HW2 1665   2.510   3.740   3.327
 2061SOL     OW 1666   2.468   2.826   1.985
 2061SOL    HW1 1667   2.475   2.910   1.931
 2061SOL    HW2 1668   2.514   2.839   2.073
 2062SOL     OW 1669   3.456   1.976   3.342
 2062SOL    HW1 1670   3.438   2.043   3.270
 2062SOL    HW2 1671   3.453   2.022   3.431
 2063SOL     OW 1672   1.984   2.505   2.425
 2063SOL    HW1 1673   1.939   2.417   2.442
 2063SOL    HW2 1674   1.983   2.559   2.509
 2065SOL     OW 1675   1.889   3.458   1.979
 2065SOL    HW1 1676   1.870   3.362   2.000
 2065SOL    HW2 1677   1.856   3.516   2.054
 2066SOL     OW 1678   3.551   2.784   2.474
 2066SOL    HW1 1679   3.646   2.755   2.482
 2066SOL    HW2 1680   3.543   2.849   2.399
 2067SOL     OW 1681   3.503   2.970   2.294
 2067SOL    HW1 1682   3.589   2.972   2.242
 2067SOL    HW2 1683   3.517   3.017   2.382
 2068SOL     OW 1684   1.975   2.599   3.459
 2068SOL    HW1 1685   2.063   2.586   3.504
 2068SOL    HW2 1686   1.962   2.696   3.437
 2069SOL     OW 1687   2.475   3.227   2.588
 2069SOL    HW1 1688   2.426   3.140   2.597
 2069SOL    HW2 1689   2.452   3.270   2.501
 2070SOL     OW 1690   3.155   3.090   3.285
 2070SOL    HW1 1691   3.192   3.017   3.227
 2070SOL    HW2 1692   3.207   3.095   3.370
 2071SOL     OW 1693   2.671   1.866   2.364
 2071SOL    HW1 1694   2.711   1.957   2.355
 2071SOL    HW2 1695   2.571   1.874   2.370
 2072SOL     OW 1696   2.059   2.838   3.126
 2072SOL    HW1 1697   2.148   2.793   3.112
 2072SOL    HW2 1698   1.986   2.773   3.107
 2073SOL     OW 1699   3.387   2.861   2.052
 2073SOL    HW1 1700   3.324   2.785   2.065
 2073SOL    HW2 1701   3.435   2.879   2.138
 2075SOL     OW 1702   2.179   2.113   3.663
 2075SOL    HW1 1703   2.250   2.184   3.669
 2075SOL    HW2 1704   2.091   2.152   3.691
 2076SOL     OW 1705   3.328   3.279   2.815
 2076SOL    HW1 1706   3.269   3.285   2.895
 2076SOL    HW2 1707   3.313   3.191   2.769
 2077SOL     OW 1708   3.529   3.576   2.434
 2077SOL    HW1 1709   3.488   3.553   2.346
 2077SOL    HW2 1710   3.511   3.502   2.499
 2078SOL     OW 1711   3.143   2.207   2.806
 2078SOL    HW1 1712   3.057   2.157   2.793
 2078SOL    HW2 1713   3.205   2.153   2.862
 2079SOL     OW 1714   3.438   3.524   2.169
 2079SOL    HW1 1715   3.527   3.570   2.172
 2079SOL    HW2 1716   3.417   3.500   2.074
 2080SOL     OW 1717   2.669   2.467   3.327
 2080SOL    HW1 1718   2.622   2.464   3.416
 2080SOL    HW2 1719   2.618   2.412   3.261
 2081SOL     OW 1720   3.256   2.331   3.536
 2081SOL    HW1 1721   3.236   2.374   3.624
 2081SOL    HW2 1722   3.334   2.269   3.545
 2082SOL     OW 1723   2.835   2.752   3.434
 2082SOL    HW1 1724   2.881   2.668   3.405
 2082SOL    HW2 1725   2.779   2.786   3.359
 2083SOL     OW 1726   2.853   2.272   3.104
 2083SOL    HW1 1727   2.776   2.306   3.158
 2083SOL    HW2 1728   2.819   2.221   3.025
 2084SOL     OW 1729   2.903   2.563   2.291
 2084SOL    HW1 1730   2.929   2.559   2.387
 2084SOL    HW2 1731   2.818   2.512   2.277
 2085SOL     OW 1732   1.938   2.673   2.651
 2085SOL    HW1 1733   2.037   2.661   2.660
 2085SOL    HW2 1734   1.914   2.768   2.672
 2086SOL     OW 1735   1.992   3.683   3.433
 2086SOL    HW1 1736   1.982   3.668   3.532
 2086SOL    HW2 1737   1.906   3.719   3.397
 2087SOL     OW 1738   2.727   2.210   2.057
 2087SOL    HW1 1739   2.786   2.273   2.008
 2087SOL    HW2 1740   2.746   2.116   2.028
 2089SOL     OW 1741   3.224   3.006   2.407
 2089SOL    HW1 1742   3.307   2.977   2.359
 2089SOL    HW2 1743   3.175   3.073   2.351
 2090SOL     OW 1744   2.412   2.058   2.747
 2090SOL    HW1 1745   2.407   2.053   2.847
 2090SOL    HW2 1746   2.414   2.154   2.718
 2091SOL     OW 1747   2.870   3.318   2.339
 2091SOL    HW1 1748   2.824   3.390   2.287
 2091SOL    HW2 1749   2.866   3.338   2.437
 2092SOL     OW 1750   2.213   3.663   2.715
 2092SOL    HW1 1751   2.263   3.577   2.721
 2092SOL    HW2 1752   2.278   3.740   2.712
 2093SOL     OW 1753   3.657   2.928   2.735
 2093SOL    HW1 1754   3.595   2.913   2.659
 2093SOL    HW2 1755   3.605   2.939   2.820
 2094SOL     OW 1756   3.089   3.412   3.368
 2094SOL    HW1 1757   3.095   3.335   3.432
 2094SOL    HW2 1758   3.037   3.386   3.288
 2095SOL     OW 1759   2.183   2.805   2.104
 2095SOL    HW1 1760   2.265   2.844   2.062
 2095SOL    HW2 1761   2.156   2.723   2.055
 2096SOL     OW 1762   3.320   2.597   2.590
 2096SOL    HW1 1763   3.315   2.532   2.665
 2096SOL    HW2 1764   3.400   2.656   2.603
 2097SOL     OW 1765   2.323   3.128   3.589
 2097SOL    HW1 1766   2.273   3.129   3.503
 2097SOL    HW2 1767   2.260   3.110   3.665
 2098SOL     OW 1768   2.973   3.638   2.099
 2098SOL    HW1 1769   2.913   3.576   2.149
 2098SOL    HW2 1770   3.004   3.594   2.014
 2099SOL     OW 1771   2.064   2.147   3.360
 2099SOL    HW1 1772   1.984   2.207   3.347
 2099SOL    HW2 1773   2.054   2.098   3.446
 2100SOL     OW 1774   3.494   3.239   1.943
 2100SOL    HW1 1775   3.462   3.333   1.933
 2100SOL    HW2 1776   3.418   3.176   1.931
 2101SOL     OW 1777   2.326   3.605   2.185
 2101SOL    HW1 1778   2.359   3.644   2.271
 2101SOL    HW2 1779   2.402   3.598   2.120
 2102SOL     OW 1780   3.262   1.969   2.288
 2102SOL    HW1 1781   3.238   1.932   2.198
 2102SOL    HW2 1782   3.361   1.985   2.292
 2103SOL     OW 1783   2.111   3.647   3.103
 2103SOL    HW1 1784   2.168   3.582   3.153
 2103SOL    HW2 1785   2.095   3.614   3.010
 2104SOL     OW 1786   2.802   3.560   2.766
 2104SOL    HW1 1787   2.882   3.503   2.787
 2104SOL    HW2 1788   2.753   3.520   2.689
 2105SOL     OW 1789   3.409   2.084   3.591
 2105SOL    HW1 1790   3.404   2.121   3.683
 2105SOL    HW2 1791   3.337   2.015   3.579
 2106SOL     OW 1792   2.476   1.984   1.979
 2106SOL    HW1 1793   2.574   1.962   1.986
 2106SOL    HW2 1794   2.445   1.967   1.886
 2107SOL     OW 1795   2.643   2.126   3.611
 2107SOL    HW1 1796   2.710   2.065   3.654
 2107SOL    HW2 1797   2.570   2.145   3.676
 2108SOL     OW 1798   2.750   3.376   3.057
 2108SOL    HW1 1799   2.727   3.351   2.963
 2108SOL    HW2 1800   2.811   3.307   3.096
 2109SOL     OW 1801   3.213   2.452   3.295
 2109SOL    HW1 1802   3.241   2.409   3.380
 2109SOL    HW2 1803   3.238   2.548   3.296
 2110SOL     OW 1804   2.665   3.264   2.786
 2110SOL    HW1 1805   2.755   3.278   2.744
 2110SOL    HW2 1806   2.594   3.266   2.715
 2111SOL     OW 1807   2.784   2.365   2.761
 2111SOL    HW1 1808   2.759   2.356   2.665
 2111SOL    HW2 1809   2.832   2.283   2.792
 2112SOL     OW 1810   2.401   1.926   2.374
 2112SOL    HW1 1811   2.320   1.927   2.432
 2112SOL    HW2 1812   2.404   2.009   2.319
 2113SOL     OW 1813   3.296   3.050   1.903
 2113SOL    HW1 1814   3.328   2.974   1.960
 2113SOL    HW2 1815   3.204   3.077   1.933
 2114SOL     OW 1816   2.159   1.897   2.033
 2114SOL    HW1 1817   2.208   1.981   2.012
 2114SOL    HW2 1818   2.221   1.832   2.078
 2115SOL     OW 1819   2.797   2.098   2.342
 2115SOL    HW1 1820   2.749   2.139   2.264
 2115SOL    HW2 1821   2.896   2.096   2.323
 2116SOL     OW 1822   2.938   2.545   3.326
 2116SOL    HW1 1823   2.858   2.484   3.329
 2116SOL    HW2 1824   3.019   2.492   3.302
 2117SOL     OW 1825   3.089   3.432   2.655
 2117SOL    HW1 1826   3.110   3.506   2.590
 2117SOL    HW2 1827   3.157   3.432   2.728
 2118SOL     OW 1828   2.321   3.014   2.603
 2118SOL    HW1 1829   2.250   2.987   2.668
 2118SOL    HW2 1830   2.295   2.986   2.510
 2119SOL     OW 1831   3.133   3.659   2.453
 2119SOL    HW1 1832   3.177   3.723   2.389
 2119SOL    HW2 1833   3.083   3.711   2.523
 2120SOL     OW 1834   2.894   2.411   1.878
 2120SOL    HW1 1835   2.853   2.493   1.839
 2120SOL    HW2 1836   2.958   2.437   1.951
 2121SOL     OW 1837   1.940   2.418   3.248
 2121SOL    HW1 1838   2.032   2.417   3.207
 2121SOL    HW2 1839   1.934   2.492   3.315
 2122SOL     OW 1840   2.423   2.084   3.009
 2122SOL    HW1 1841   2.461   2.000   3.046
 2122SOL    HW2 1842   2.335   2.103   3.053
 2123SOL     OW 1843   2.728   2.316   2.504
 2123SOL    HW1 1844   2.696   2.388   2.442
 2123SOL    HW2 1845   2.752   2.235   2.451
 2124SOL     OW 1846   2.879   1.901   2.615
 2124SOL    HW1 1847   2.807   1.906   2.546
 2124SOL    HW2 1848   2.855   1.832   2.684
 2125SOL     OW 1849   3.291   3.035   2.729
 2125SOL    HW1 1850   3.236   2.951   2.722
 2125SOL    HW2 1851   3.317   3.064   2.637
 2126SOL     OW 1852   3.328   2.452   2.854
 2126SOL    HW1 1853   3.298   2.357   2.861
 2126SOL    HW2 1854   3.401   2.468   2.920
 2127SOL     OW 1855   3.719   2.695   2.239
 2127SOL    HW1 1856   3.761   2.631   2.303
 2127SOL    HW2 1857   3.681   2.644   2.161
 2128SOL     OW 1858   2.350   3.247   2.036
 2128SOL    HW1 1859   2.263   3.232   2.083
 2128SOL    HW2 1860   2.333   3.273   1.941
 2129SOL     OW 1861   3.526   3.142   2.519
 2129SOL    HW1 1862   3.625   3.150   2.533
 2129SOL    HW2 1863   3.481   3.226   2.550
 2130SOL     OW 1864   3.252   2.437   1.940
 2130SOL    HW1 1865   3.198   2.416   2.021
 2130SOL    HW2 1866   3.343   2.396   1.949
 2132SOL     OW 1867   2.926   3.209   3.202
 2132SOL    HW1 1868   2.846   3.186   3.257
 2132SOL    HW2 1869   3.009   3.183   3.251
 2134SOL     OW 1870   2.973   3.057   2.962
 2134SOL    HW1 1871   2.933   3.101   3.043
 2134SOL    HW2 1872   2.932   3.094   2.879
 2135SOL     OW 1873   3.500   2.961   2.941
 2135SOL    HW1 1874   3.505   3.042   3.000
 2135SOL    HW2 1875   3.414   2.963   2.890
 2136SOL     OW 1876   2.777   1.951   3.264
 2136SOL    HW1 1877   2.802   1.931   3.169
 2136SOL    HW2 1878   2.849   2.007   3.306
 2137SOL     OW 1879   2.842   2.978   3.581
 2137SOL    HW1 1880   2.743   2.984   3.591
 2137SOL    HW2 1881   2.865   2.898   3.525
 2138SOL     OW 1882   2.567   2.912   2.230
 2138SOL    HW1 1883   2.553   2.919   2.329
 2138SOL    HW2 1884   2.651   2.861   2.212
 2139SOL     OW 1885   2.272   2.675   3.113
 2139SOL    HW1 1886   2.358   2.687   3.163
 2139SOL    HW2 1887   2.230   2.588   3.140
 2140SOL     OW 1888   3.136   2.248   3.124
 2140SOL    HW1 1889   3.157   2.322   3.188
 2140SOL    HW2 1890   3.047   2.265   3.081
 2141SOL     OW 1891   1.926   3.426   3.193
 2141SOL    HW1 1892   1.880   3.508   3.159
 2141SOL    HW2 1893   2.024   3.445   3.202
 2142SOL     OW 1894   2.229   2.962   2.363
 2142SOL    HW1 1895   2.222   3.045   2.307
 2142SOL    HW2 1896   2.233   2.882   2.303
 2143SOL     OW 1897   2.428   2.399   2.727
 2143SOL    HW1 1898   2.440   2.465   2.653
 2143SOL    HW2 1899   2.474   2.433   2.810
 2144SOL     OW 1900   3.114   3.210   2.250
 2144SOL    HW1 1901   3.164   3.287   2.290
 2144SOL    HW2 1902   3.019   3.212   2.282
 2145SOL     OW 1903   3.134   3.307   3.004
 2145SOL    HW1 1904   3.181   3.320   3.091
 2145SOL    HW2 1905   3.068   3.233   3.013
 2146SOL     OW 1906   3.444   2.501   2.334
 2146SOL    HW1 1907   3.413   2.562   2.407
 2146SOL    HW2 1908   3.494   2.553   2.265
 2147SOL     OW 1909   2.216   3.372   3.191
 2147SOL    HW1 1910   2.195   3.328   3.104
 2147SOL    HW2 1911   2.313   3.398   3.194
 2148SOL     OW 1912   2.264   2.613   3.460
 2148SOL    HW1 1913   2.332   2.668   3.413
 2148SOL    HW2 1914   2.304   2.525   3.487
 2149SOL     OW 1915   3.449   2.641   3.532
 2149SOL    HW1 1916   3.357   2.679   3.527
 2149SOL    HW2 1917   3.509   2.688   3.467
 2150SOL     OW 1918   2.875   1.967   3.632
 2150SOL    HW1 1919   2.881   2.052   3.580
 2150SOL    HW2 1920   2.907   1.891   3.575
 2151SOL     OW 1921   2.366   1.912   3.602
 2151SOL    HW1 1922   2.324   1.855   3.532
 2151SOL    HW2 1923   2.300   1.981   3.634
 2152SOL     OW 1924   2.435   2.732   2.891
 2152SOL    HW1 1925   2.479   2.821   2.882
 2152SOL    HW2 1926   2.372   2.732   2.968
 2153SOL     OW 1927   3.222   2.724   2.907
 2153SOL    HW1 1928   3.147   2.724   2.841
 2153SOL    HW2 1929   3.259   2.632   2.916
 2154SOL     OW 1930   3.071   2.387   2.137
 2154SOL    HW1 1931   3.084   2.303   2.191
 2154SOL    HW2 1932   3.042   2.461   2.197
 2155SOL     OW 1933   2.169   2.075   3.093
 2155SOL    HW1 1934   2.146   2.112   3.183
 2155SOL    HW2 1935   2.139   1.980   3.087
 2156SOL     OW 1936   1.899   3.172   3.144
 2156SOL    HW1 1937   1.952   3.123   3.212
 2156SOL    HW2 1938   1.921   3.270   3.149
 2157SOL     OW 1939   2.594   2.496   2.926
 2157SOL    HW1 1940   2.653   2.470   2.850
 2157SOL    HW2 1941   2.566   2.592   2.915
 2159SOL     OW 1942   2.169   1.925   2.480
 2159SOL    HW1 1943   2.158   2.019   2.513
 2159SOL    HW2 1944   2.164   1.862   2.557
 2160SOL     OW 1945   3.484   2.229   2.236
 2160SOL    HW1 1946   3.486   2.153   2.300
 2160SOL    HW2 1947   3.436   2.306   2.276
 2161SOL     OW 1948   2.885   2.628   2.828
 2161SOL    HW1 1949   2.900   2.649   2.924
 2161SOL    HW2 1950   2.855   2.533   2.819
 2162SOL     OW 1951   2.842   3.435   3.562
 2162SOL    HW1 1952   2.822   3.479   3.474
 2162SOL    HW2 1953   2.881   3.344   3.546
 2164SOL     OW 1954   2.212   2.760   3.666
 2164SOL    HW1 1955   2.288   2.804   3.714
 2164SOL    HW2 1956   2.247   2.713   3.584
 2165SOL     OW 1957   3.402   2.136   1.987
 2165SOL    HW1 1958   3.341   2.061   2.010
 2165SOL    HW2 1959   3.424   2.188   2.070
 2166SOL     OW 1960   3.165   2.700   1.904
 2166SOL    HW1 1961   3.199   2.607   1.919
 2166SOL    HW2 1962   3.183   2.727   1.809
 2167SOL     OW 1963   2.930   3.195   2.711
 2167SOL    HW1 1964   2.937   3.111   2.656
 2167SOL    HW2 1965   2.992   3.264   2.675
 2168SOL     OW 1966   2.181   2.672   2.811
 2168SOL    HW1 1967   2.274   2.708   2.816
 2168SOL    HW2 1968   2.175   2.587   2.863
 2169SOL     OW 1969   2.201   2.371   2.868
 2169SOL    HW1 1970   2.149   2.288   2.851
 2169SOL    HW2 1971   2.278   2.376   2.804
 2170SOL     OW 1972   3.000   2.242   3.540
 2170SOL    HW1 1973   2.955   2.305   3.604
 2170SOL    HW2 1974   3.093   2.273   3.523
 2171SOL     OW 1975   3.022   2.069   3.339
 2171SOL    HW1 1976   3.022   2.133   3.416
 2171SOL    HW2 1977   3.050   2.117   3.256
 2172SOL     OW 1978   1.870   3.188   2.062
 2172SOL    HW1 1979   1.777   3.209   2.031
 2172SOL    HW2 1980   1.880   3.089   2.075
 2173SOL     OW 1981   1.950   3.663   2.789
 2173SOL    HW1 1982   1.908   3.577   2.762
 2173SOL    HW2 1983   2.044   3.666   2.755
 2174SOL     OW 1984   2.366   3.430   2.772
 2174SOL    HW1 1985   2.432   3.504   2.781
 2174SOL    HW2 1986   2.410   3.351   2.730
 2175SOL     OW 1987   2.864   2.658   3.100
 2175SOL    HW1 1988   2.905   2.626   3.186
 2175SOL    HW2 1989   2.768   2.631   3.097
 2176SOL     OW 1990   1.902   2.406   2.976
 2176SOL    HW1 1991   1.987   2.373   2.935
 2176SOL    HW2 1992   1.915   2.421   3.074
 2177SOL     OW 1993   2.051   2.382   3.584
 2177SOL    HW1 1994   2.110   2.342   3.514
 2177SOL    HW2 1995   1.993   2.453   3.543
 2178SOL     OW 1996   3.231   2.812   3.522
 2178SOL    HW1 1997   3.270   2.901   3.542
 2178SOL    HW2 1998   3.241   2.792   3.425
 2179SOL     OW 1999   2.677   2.434   2.187
 2179SOL    HW1 2000   2.684   2.345   2.141
 2179SOL    HW2 2001   2.583   2.468   2.179
 2180SOL     OW 2002   3.519   2.466   3.068
 2180SOL    HW1 2003   3.481   2.397   3.130
 2180SOL    HW2 2004   3.601   2.430   3.024
 2181SOL     OW 2005   2.114   3.426   3.606
 2181SOL    HW1 2006   2.084   3.483   3.682
 2181SOL    HW2 2007   2.107   3.329   3.632
 2182SOL     OW 2008   2.533   2.326   3.131
 2182SOL    HW1 2009   2.499   2.237   3.101
 2182SOL    HW2 2010   2.559   2.380   3.051
 2183SOL     OW 2011   2.792   3.540   3.327
 2183SOL    HW1 2012   2.768   3.522   3.232
 2183SOL    HW2 2013   2.822   3.634   3.337
 2184SOL     OW 2014   2.021   2.999   3.328
 2184SOL    HW1 2015   2.043   2.938   3.404
 2184SOL    HW2 2016   2.031   2.950   3.242
 2185SOL     OW 2017   3.209   2.921   3.096
 2185SOL    HW1 2018   3.233   2.858   3.022
 2185SOL    HW2 2019   3.119   2.961   3.078
 2186SOL     OW 2020   3.164   2.717   2.171
 2186SOL    HW1 2021   3.078   2.686   2.213
 2186SOL    HW2 2022   3.160   2.703   2.072
 2188SOL     OW 2023   3.114   3.593   2.990
 2188SOL    HW1 2024   3.198   3.598   2.936
 2188SOL    HW2 2025   3.091   3.497   3.008
 2189SOL     OW 2026   1.945   3.120   2.884
 2189SOL    HW1 2027   1.940   3.119   2.984
 2189SOL    HW2 2028   1.862   3.079   2.846
 2190SOL     OW 2029   2.550   3.524   3.578
 2190SOL    HW1 2030   2.494   3.605   3.587
 2190SOL    HW2 2031   2.602   3.528   3.492
 2191SOL     OW 2032   3.588   1.997   2.385
 2191SOL    HW1 2033   3.661   1.980   2.318
 2191SOL    HW2 2034   3.557   1.910   2.423
 2192SOL     OW 2035   3.250   3.435   2.339
 2192SOL    HW1 2036   3.317   3.447   2.265
 2192SOL    HW2 2037   3.210   3.524   2.362
 2194SOL     OW 2038   3.142   2.789   2.534
 2194SOL    HW1 2039   3.202   2.708   2.536
 2194SOL    HW2 2040   3.182   2.858   2.474
 2195SOL     OW 2041   2.692   3.135   3.284
 2195SOL    HW1 2042   2.687   3.168   3.379
 2195SOL    HW2 2043   2.606   3.154   3.238
 2196SOL     OW 2044   2.534   3.478   2.016
 2196SOL    HW1 2045   2.543   3.488   1.917
 2196SOL    HW2 2046   2.494   3.389   2.037
 2198SOL     OW 2047   3.703   2.037   2.825
 2198SOL    HW1 2048   3.742   1.952   2.789
 2198SOL    HW2 2049   3.605   2.039   2.806
 2199SOL     OW 2050   3.056   3.474   1.893
 2199SOL    HW1 2051   3.062   3.381   1.930
 2199SOL    HW2 2052   2.997   3.474   1.813
 2200SOL     OW 2053   2.684   2.864   3.234
 2200SOL    HW1 2054   2.724   2.863   3.142
 2200SOL    HW2 2055   2.694   2.956   3.274
 2201SOL     OW 2056   2.778   2.772   2.153
 2201SOL    HW1 2057   2.841   2.810   2.085
 2201SOL    HW2 2058   2.818   2.689   2.192
 2202SOL     OW 2059   3.366   3.469   1.906
 2202SOL    HW1 2060   3.274   3.506   1.913
 2202SOL    HW2 2061   3.404   3.489   1.816
 2203SOL     OW 2062   2.234   3.150   3.352
 2203SOL    HW1 2063   2.221   3.243   3.318
 2203SOL    HW2 2064   2.150   3.098   3.339
 2204SOL     OW 2065   3.476   3.154   3.151
 2204SOL    HW1 2066   3.536   3.157   3.231
 2204SOL    HW2 2067   3.401   3.218   3.164
 2205SOL     OW 2068   2.901   2.960   2.558
 2205SOL    HW1 2069   2.831   2.913   2.612
 2205SOL    HW2 2070   2.960   2.892   2.515
 2206SOL     OW 2071   2.876   2.098   2.833
 2206SOL    HW1 2072   2.868   2.062   2.740
 2206SOL    HW2 2073   2.874   2.022   2.898
 2207SOL     OW 2074   2.452   3.349   2.353
 2207SOL    HW1 2075   2.494   3.291   2.283
 2207SOL    HW2 2076   2.408   3.428   2.309
 2208SOL     OW 2077   3.571   2.247   3.243
 2208SOL    HW1 2078   3.644   2.316   3.247
 2208SOL    HW2 2079   3.599   2.172   3.184
 2209SOL     OW 2080   2.117   3.210   2.152
 2209SOL    HW1 2081   2.021   3.211   2.125
 2209SOL    HW2 2082   2.129   3.263   2.236
 2210SOL     OW 2083   1.967   2.875   3.588
 2210SOL    HW1 2084   1.890   2.842   3.642
 2210SOL    HW2 2085   2.052   2.845   3.630
 2211SOL     OW 2086   2.534   2.065   3.351
 2211SOL    HW1 2087   2.624   2.049   3.311
 2211SOL    HW2 2088   2.542   2.070   3.450
 2212SOL     OW 2089   1.937   2.207   1.895
 2212SOL    HW1 2090   1.845   2.179   1.866
 2212SOL    HW2 2091   1.968   2.284   1.839
 2213SOL     OW 2092   3.302   2.718   3.260
 2213SOL    HW1 2093   3.245   2.770   3.197
 2213SOL    HW2 2094   3.398   2.730   3.236
 2214SOL     OW 2095   1.934   2.028   2.180
 2214SOL    HW1 2096   1.917   2.111   2.126
 2214SOL    HW2 2097   2.024   1.991   2.158
 2215SOL     OW 2098   3.045   3.197   1.981
 2215SOL    HW1 2099   2.946   3.186   1.983
 2215SOL    HW2 2100   3.079   3.212   2.074
 2216SOL     OW 2101   2.475   2.704   3.293
 2216SOL    HW1 2102   2.531   2.785   3.276
 2216SOL    HW2 2103   2.534   2.624   3.296
 2217SOL     OW 2104   3.355   3.629   2.821
 2217SOL    HW1 2105   3.388   3.693   2.752
 2217SOL    HW2 2106   3.421   3.623   2.896
 2218SOL     OW 2107   2.578   2.427   3.570
 2218SOL    HW1 2108   2.597   2.492   3.644
 2218SOL    HW2 2109   2.638   2.347   3.579
 2219SOL     OW 2110   3.312   3.082   3.495
 2219SOL    HW1 2111   3.303   3.072   3.594
 2219SOL    HW2 2112   3.408   3.075   3.469
 2220SOL     OW 2113   2.252   3.603   3.422
 2220SOL    HW1 2114   2.161   3.644   3.420
 2220SOL    HW2 2115   2.245   3.509   3.454
 2221SOL     OW 2116   3.536   2.745   3.116
 2221SOL    HW1 2117   3.509   2.656   3.079
 2221SOL    HW2 2118   3.537   2.813   3.043
 2222SOL     OW 2119   3.087   2.187   2.311
 2222SOL    HW1 2120   3.152   2.113   2.300
 2222SOL    HW2 2121   3.107   2.237   2.395
 2223SOL     OW 2122   2.456   2.607   2.514
 2223SOL    HW1 2123   2.506   2.692   2.495
 2223SOL    HW2 2124   2.368   2.609   2.466
 2224SOL     OW 2125   3.639   2.204   3.504
 2224SOL    HW1 2126   3.622   2.235   3.410
 2224SOL    HW2 2127   3.555   2.167   3.542
 2225SOL     OW 2128   3.592   2.796   3.379
 2225SOL    HW1 2129   3.630   2.887   3.394
 2225SOL    HW2 2130   3.584   2.779   3.280
 2226SOL     OW 2131   2.721   3.236   1.878
 2226SOL    HW1 2132   2.675   3.251   1.966
 2226SOL    HW2 2133   2.765   3.321   1.848
 2227SOL     OW 2134   2.523   3.652   2.815
 2227SOL    HW1 2135   2.477   3.740   2.802
 2227SOL    HW2 2136   2.622   3.664   2.808
 2228SOL     OW 2137   2.721   2.818   2.723
 2228SOL    HW1 2138   2.775   2.749   2.771
 2228SOL    HW2 2139   2.689   2.887   2.789
 2229SOL     OW 2140   2.945   2.846   1.949
 2229SOL    HW1 2141   2.922   2.899   1.867
 2229SOL    HW2 2142   3.026   2.790   1.930
 2231SOL     OW 2143   2.083   3.176   3.706
 2231SOL    HW1 2144   2.018   3.103   3.685
 2231SOL    HW2 2145   2.087   3.190   3.804
 2232SOL     OW 2146   1.941   3.102   2.515
 2232SOL    HW1 2147   1.940   3.055   2.603
 2232SOL    HW2 2148   2.023   3.074   2.464
 2233SOL     OW 2149   2.534   3.253   3.486
 2233SOL    HW1 2150   2.456   3.203   3.524
 2233SOL    HW2 2151   2.531   3.348   3.517
 2234SOL     OW 2152   3.686   2.054   3.089
 2234SOL    HW1 2153   3.682   1.964   3.133
 2234SOL    HW2 2154   3.689   2.043   2.990
 2235SOL     OW 2155   3.567   3.349   2.966
 2235SOL    HW1 2156   3.474   3.324   2.939
 2235SOL    HW2 2157   3.593   3.299   3.048
 2236SOL     OW 2158   2.179   2.409   3.142
 2236SOL    HW1 2159   2.217   2.350   3.214
 2236SOL    HW2 2160   2.219   2.383   3.054
 2237SOL     OW 2161   2.674   3.448   2.549
 2237SOL    HW1 2162   2.706   3.458   2.455
 2237SOL    HW2 2163   2.595   3.386   2.551
 2238SOL     OW 2164   3.286   2.076   2.974
 2238SOL    HW1 2165   3.338   2.011   3.029
 2238SOL    HW2 2166   3.237   2.139   3.035
 2239SOL     OW 2167   2.863   1.896   3.016
 2239SOL    HW1 2168   2.800   1.824   2.985
 2239SOL    HW2 2169   2.956   1.860   3.016
 2240SOL     OW 2170   2.632   3.192   2.163
 2240SOL    HW1 2171   2.586   3.105   2.180
 2240SOL    HW2 2172   2.723   3.189   2.204
 2241SOL     OW 2173   2.480   3.429   3.146
 2241SOL    HW1 2174   2.475   3.511   3.203
 2241SOL    HW2 2175   2.569   3.426   3.101
 2242SOL     OW 2176   3.214   1.914   2.030
 2242SOL    HW1 2177   3.249   1.873   1.946
 2242SOL    HW2 2178   3.124   1.876   2.050
 2243SOL     OW 2179   3.162   2.315   2.553
 2243SOL    HW1 2180   3.103   2.395   2.557
 2243SOL    HW2 2181   3.177   2.280   2.646
 2244SOL     OW 2182   3.455   2.083   2.744
 2244SOL    HW1 2183   3.371   2.082   2.798
 2244SOL    HW2 2184   3.457   2.166   2.688
 2245SOL     OW 2185   1.901   2.939   2.162
 2245SOL    HW1 2186   2.000   2.928   2.153
 2245SOL    HW2 2187   1.861   2.853   2.194
 2246SOL     OW 2188   2.737   3.508   2.199
 2246SOL    HW1 2189   2.660   3.473   2.145
 2246SOL    HW2 2190   2.705   3.579   2.261
 2247SOL     OW 2191   2.092   2.490   3.837
 2247SOL    HW1 2192   1.999   2.488   3.874
 2247SOL    HW2 2193   2.093   2.451   3.745
 2259SOL     OW 2194   2.468   2.826   3.847
 2259SOL    HW1 2195   2.475   2.910   3.793
 2259SOL    HW2 2196   2.514   2.839   3.935
 2269SOL     OW 2197   2.460   2.591   3.994
 2269SOL    HW1 2198   2.484   2.660   3.926
 2269SOL    HW2 2199   2.382   2.624   4.048
 2274SOL     OW 2200   2.727   2.210   3.919
 2274SOL    HW1 2201   2.786   2.273   3.870
 2274SOL    HW2 2202   2.746   2.116   3.890
 2280SOL     OW 2203   2.183   2.805   3.966
 2280SOL    HW1 2204   2.265   2.844   3.924
 2280SOL    HW2 2205   2.156   2.723   3.917
 2287SOL     OW 2206   2.476   1.984   3.841
 2287SOL    HW1 2207   2.574   1.962   3.848
 2287SOL    HW2 2208   2.445   1.967   3.748
 2290SOL     OW 2209   2.159   1.897   3.895
 2290SOL    HW1 2210   2.208   1.981   3.874
 2290SOL    HW2 2211   2.221   1.832   3.940
 2294SOL     OW 2212   2.894   2.411   3.740
 2294SOL    HW1 2213   2.853   2.493   3.701
 2294SOL    HW2 2214   2.958   2.437   3.813
 2300SOL     OW 2215   3.252   2.437   3.802
 2300SOL    HW1 2216   3.198   2.416   3.883
 2300SOL    HW2 2217   3.343   2.396   3.811
 2301SOL     OW 2218   2.389   2.118   4.052
 2301SOL    HW1 2219   2.416   2.059   3.977
 2301SOL    HW2 2220   2.389   2.213   4.021
 2311SOL     OW 2221   3.165   2.700   3.766
 2311SOL    HW1 2222   3.199   2.607   3.781
 2311SOL    HW2 2223   3.183   2.727   3.671
 2315SOL     OW 2224   2.677   2.434   4.049
 2315SOL    HW1 2225   2.684   2.345   4.003
 2315SOL    HW2 2226   2.583   2.468   4.041
 2316SOL     OW 2227   2.335   2.362   3.915
 2316SOL    HW1 2228   2.396   2.442   3.919
 2316SOL    HW2 2229   2.240   2.393   3.922
 2325SOL     OW 2230   2.778   2.772   4.015
 2325SOL    HW1 2231   2.841   2.810   3.947
 2325SOL    HW2 2232   2.818   2.689   4.054
 2330SOL     OW 2233   1.937   2.207   3.757
 2330SOL    HW1 2234   1.845   2.179   3.728
 2330SOL    HW2 2235   1.968   2.284   3.701
 2331SOL     OW 2236   1.934   2.028   4.042
 2331SOL    HW1 2237   1.917   2.111   3.988
 2331SOL    HW2 2238   2.024   1.991   4.020
 2335SOL     OW 2239   2.721   3.236   3.740
 2335SOL    HW1 2240   2.675   3.251   3.828
 2335SOL    HW2 2241   2.765   3.321   3.710
 2338SOL     OW 2242   2.945   2.846   3.811
 2338SOL    HW1 2243   2.922   2.899   3.729
 2338SOL    HW2 2244   3.026   2.790   3.792
 2361SOL     OW 2245   2.179   3.975   1.801
 2361SOL    HW1 2246   2.250   4.046   1.807
 2361SOL    HW2 2247   2.091   4.014   1.829
 2377SOL     OW 2248   2.643   3.988   1.749
 2377SOL    HW1 2249   2.710   3.927   1.792
 2377SOL    HW2 2250   2.570   4.007   1.814
 2400SOL     OW 2251   2.875   3.829   1.770
 2400SOL    HW1 2252   2.881   3.914   1.718
 2400SOL    HW2 2253   2.907   3.753   1.713
 2401SOL     OW 2254   2.366   3.774   1.740
 2401SOL    HW1 2255   2.324   3.717   1.670
 2401SOL    HW2 2256   2.300   3.843   1.772
 2450SOL     OW 2257   2.087   3.999   2.858
 2450SOL    HW1 2258   2.122   3.982   2.950
 2450SOL    HW2 2259   1.999   3.954   2.846
 2461SOL     OW 2260   2.671   3.728   2.364
 2461SOL    HW1 2261   2.711   3.819   2.355
 2461SOL    HW2 2262   2.571   3.736   2.370
 2472SOL     OW 2263   2.412   3.920   2.747
 2472SOL    HW1 2264   2.407   3.915   2.847
 2472SOL    HW2 2265   2.414   4.016   2.718
 2475SOL     OW 2266   3.262   3.831   2.288
 2475SOL    HW1 2267   3.238   3.794   2.198
 2475SOL    HW2 2268   3.361   3.847   2.292
 2478SOL     OW 2269   2.476   3.846   1.979
 2478SOL    HW1 2270   2.574   3.824   1.986
 2478SOL    HW2 2271   2.445   3.829   1.886
 2482SOL     OW 2272   2.401   3.788   2.374
 2482SOL    HW1 2273   2.320   3.789   2.432
 2482SOL    HW2 2274   2.404   3.871   2.319
 2483SOL     OW 2275   2.159   3.759   2.033
 2483SOL    HW1 2276   2.208   3.843   2.012
 2483SOL    HW2 2277   2.221   3.694   2.078
 2484SOL     OW 2278   2.797   3.960   2.342
 2484SOL    HW1 2279   2.749   4.001   2.264
 2484SOL    HW2 2280   2.896   3.958   2.323
 2488SOL     OW 2281   2.423   3.946   3.009
 2488SOL    HW1 2282   2.461   3.862   3.046
 2488SOL    HW2 2283   2.335   3.965   3.053
 2490SOL     OW 2284   2.879   3.763   2.615
 2490SOL    HW1 2285   2.807   3.768   2.546
 2490SOL    HW2 2286   2.855   3.694   2.684
 2494SOL     OW 2287   2.389   3.980   2.190
 2494SOL    HW1 2288   2.416   3.921   2.115
 2494SOL    HW2 2289   2.389   4.075   2.159
 2507SOL     OW 2290   2.169   3.937   3.093
 2507SOL    HW1 2291   2.146   3.974   3.183
 2507SOL    HW2 2292   2.139   3.842   3.087
 2510SOL     OW 2293   2.169   3.787   2.480
 2510SOL    HW1 2294   2.158   3.881   2.513
 2510SOL    HW2 2295   2.164   3.724   2.557
 2528SOL     OW 2296   2.125   4.050   2.582
 2528SOL    HW1 2297   2.046   4.101   2.548
 2528SOL    HW2 2298   2.116   4.035   2.680
 2530SOL     OW 2299   2.876   3.960   2.833
 2530SOL    HW1 2300   2.868   3.924   2.740
 2530SOL    HW2 2301   2.874   3.884   2.898
 2536SOL     OW 2302   1.934   3.890   2.180
 2536SOL    HW1 2303   1.917   3.973   2.126
 2536SOL    HW2 2304   2.024   3.853   2.158
 2548SOL     OW 2305   2.863   3.758   3.016
 2548SOL    HW1 2306   2.800   3.686   2.985
 2548SOL    HW2 2307   2.956   3.722   3.016
 2549SOL     OW 2308   3.214   3.776   2.030
 2549SOL    HW1 2309   3.249   3.735   1.946
 2549SOL    HW2 2310   3.124   3.738   2.050
 2627SOL     OW 2311   3.854   1.821   1.571
 2627SOL    HW1 2312   3.844   1.806   1.670
 2627SOL    HW2 2313   3.768   1.857   1.535
 2681SOL     OW 2314   3.854   1.794   1.851
 2681SOL    HW1 2315   3.813   1.720   1.904
 2681SOL    HW2 2316   3.918   1.845   1.909
 2717SOL     OW 2317   3.955   1.713   2.345
 2717SOL    HW1 2318   3.989   1.790   2.399
 2717SOL    HW2 2319   3.999   1.713   2.255
 2723SOL     OW 2320   3.751   1.596   1.979
 2723SOL    HW1 2321   3.732   1.500   2.000
 2723SOL    HW2 2322   3.718   1.654   2.054
 2773SOL     OW 2323   3.732   1.326   2.062
 2773SOL    HW1 2324   3.639   1.347   2.031
 2773SOL    HW2 2325   3.742   1.227   2.075
 2774SOL     OW 2326   3.812   1.801   2.789
 2774SOL    HW1 2327   3.770   1.715   2.762
 2774SOL    HW2 2328   3.906   1.804   2.755
 2878SOL     OW 2329   3.837   2.599   1.597
 2878SOL    HW1 2330   3.925   2.586   1.642
 2878SOL    HW2 2331   3.824   2.696   1.575
 2903SOL     OW 2332   3.802   2.418   1.386
 2903SOL    HW1 2333   3.894   2.417   1.345
 2903SOL    HW2 2334   3.796   2.492   1.453
 2930SOL     OW 2335   3.913   2.382   1.722
 2930SOL    HW1 2336   3.972   2.342   1.652
 2930SOL    HW2 2337   3.855   2.453   1.681
 2948SOL     OW 2338   3.829   2.875   1.726
 2948SOL    HW1 2339   3.752   2.842   1.780
 2948SOL    HW2 2340   3.914   2.845   1.768
 2965SOL     OW 2341   3.954   2.490   1.975
 2965SOL    HW1 2342   3.861   2.488   2.012
 2965SOL    HW2 2343   3.955   2.451   1.883
 2966SOL     OW 2344   3.949   2.137   2.858
 2966SOL    HW1 2345   3.984   2.120   2.950
 2966SOL    HW2 2346   3.861   2.092   2.846
 2967SOL     OW 2347   3.743   2.230   2.509
 2967SOL    HW1 2348   3.661   2.273   2.548
 2967SOL    HW2 2349   3.715   2.157   2.446
 2976SOL     OW 2350   3.964   2.953   2.748
 2976SOL    HW1 2351   3.978   2.869   2.800
 2976SOL    HW2 2352   3.909   3.017   2.803
 2979SOL     OW 2353   3.846   2.505   2.425
 2979SOL    HW1 2354   3.801   2.417   2.442
 2979SOL    HW2 2355   3.845   2.559   2.509
 2988SOL     OW 2356   3.800   2.673   2.651
 2988SOL    HW1 2357   3.899   2.661   2.660
 2988SOL    HW2 2358   3.776   2.768   2.672
 2993SOL     OW 2359   4.045   2.805   2.104
 2993SOL    HW1 2360   4.127   2.844   2.062
 2993SOL    HW2 2361   4.018   2.723   2.055
 2999SOL     OW 2362   4.106   2.562   2.342
 2999SOL    HW1 2363   4.151   2.472   2.339
 2999SOL    HW2 2364   4.012   2.551   2.375
 3005SOL     OW 2365   4.021   1.897   2.033
 3005SOL    HW1 2366   4.070   1.981   2.012
 3005SOL    HW2 2367   4.083   1.832   2.078
 3007SOL     OW 2368   3.802   2.418   3.248
 3007SOL    HW1 2369   3.894   2.417   3.207
 3007SOL    HW2 2370   3.796   2.492   3.315
 3024SOL     OW 2371   4.031   1.925   2.480
 3024SOL    HW1 2372   4.020   2.019   2.513
 3024SOL    HW2 2373   4.026   1.862   2.557
 3030SOL     OW 2374   3.732   3.188   2.062
 3030SOL    HW1 2375   3.639   3.209   2.031
 3030SOL    HW2 2376   3.742   3.089   2.075
 3033SOL     OW 2377   3.764   2.406   2.976
 3033SOL    HW1 2378   3.849   2.373   2.935
 3033SOL    HW2 2379   3.777   2.421   3.074
 3040SOL     OW 2380   3.807   3.120   2.884
 3040SOL    HW1 2381   3.802   3.119   2.984
 3040SOL    HW2 2382   3.724   3.079   2.846
 3046SOL     OW 2383   3.987   2.188   2.582
 3046SOL    HW1 2384   3.908   2.239   2.548
 3046SOL    HW2 2385   3.978   2.173   2.680
 3053SOL     OW 2386   3.799   2.207   1.895
 3053SOL    HW1 2387   3.707   2.179   1.866
 3053SOL    HW2 2388   3.830   2.284   1.839
 3054SOL     OW 2389   3.796   2.028   2.180
 3054SOL    HW1 2390   3.779   2.111   2.126
 3054SOL    HW2 2391   3.886   1.991   2.158
 3061SOL     OW 2392   3.803   3.102   2.515
 3061SOL    HW1 2393   3.802   3.055   2.603
 3061SOL    HW2 2394   3.885   3.074   2.464
 3068SOL     OW 2395   3.763   2.939   2.162
 3068SOL    HW1 2396   3.862   2.928   2.153
 3068SOL    HW2 2397   3.723   2.853   2.194
   4.65883   4.65883   4.65883
