mobley_8467917_GMX.gro created by acpype (v: 2023.10.27) on Wed May 20 23:42:17 2026
 2421
    1MOL     C1    1   2.421   2.631   2.271
    1MOL     C2    2   2.383   2.516   2.327
    1MOL     C3    3   2.326   2.732   2.215
    1MOL     C4    4   2.534   2.264   2.738
    1MOL     C5    5   2.479   2.414   2.383
    1MOL     C6    6   2.557   2.286   2.590
    1MOL     C7    7   2.458   2.388   2.532
    1MOL     H1    8   2.527   2.655   2.264
    1MOL     H2    9   2.277   2.491   2.334
    1MOL     H3   10   2.346   2.747   2.109
    1MOL     H4   11   2.338   2.827   2.267
    1MOL     H5   12   2.221   2.700   2.226
    1MOL     H6   13   2.545   2.357   2.794
    1MOL     H7   14   2.433   2.225   2.757
    1MOL     H8   15   2.606   2.191   2.778
    1MOL     H9   16   2.464   2.320   2.328
    1MOL    H10   17   2.583   2.445   2.365
    1MOL    H11   18   2.547   2.191   2.537
    1MOL    H12   19   2.660   2.321   2.575
    1MOL    H13   20   2.356   2.350   2.547
    1MOL    H14   21   2.465   2.482   2.588
   14SOL     OW   22   1.460   1.505   1.339
   14SOL    HW1   23   1.484   1.599   1.365
   14SOL    HW2   24   1.444   1.451   1.421
   35SOL     OW   25   1.187   1.792   1.616
   35SOL    HW1   26   1.211   1.852   1.540
   35SOL    HW2   27   1.194   1.697   1.586
   56SOL     OW   28   1.227   1.550   1.506
   56SOL    HW1   29   1.233   1.473   1.570
   56SOL    HW2   30   1.175   1.524   1.426
   95SOL     OW   31   1.754   1.223   1.588
   95SOL    HW1   32   1.845   1.184   1.575
   95SOL    HW2   33   1.762   1.319   1.612
   97SOL     OW   34   1.592   1.629   1.625
   97SOL    HW1   35   1.619   1.663   1.535
   97SOL    HW2   36   1.671   1.591   1.671
  122SOL     OW   37   1.728   0.935   1.854
  122SOL    HW1   38   1.682   0.928   1.765
  122SOL    HW2   39   1.666   0.979   1.920
  127SOL     OW   40   1.859   1.518   1.605
  127SOL    HW1   41   1.873   1.545   1.510
  127SOL    HW2   42   1.942   1.540   1.658
  152SOL     OW   43   1.759   1.747   1.154
  152SOL    HW1   44   1.820   1.777   1.081
  152SOL    HW2   45   1.721   1.658   1.132
  163SOL     OW   46   1.650   1.720   1.394
  163SOL    HW1   47   1.703   1.730   1.310
  163SOL    HW2   48   1.623   1.810   1.428
  186SOL     OW   49   1.450   1.220   1.633
  186SOL    HW1   50   1.441   1.210   1.732
  186SOL    HW2   51   1.546   1.213   1.607
  219SOL     OW   52   1.555   1.511   2.565
  219SOL    HW1   53   1.498   1.495   2.646
  219SOL    HW2   54   1.496   1.521   2.485
  227SOL     OW   55   1.460   1.505   3.201
  227SOL    HW1   56   1.484   1.599   3.227
  227SOL    HW2   57   1.444   1.451   3.283
  238SOL     OW   58   1.842   1.767   2.221
  238SOL    HW1   59   1.896   1.738   2.301
  238SOL    HW2   60   1.872   1.857   2.192
  240SOL     OW   61   1.689   0.922   2.474
  240SOL    HW1   62   1.784   0.893   2.482
  240SOL    HW2   63   1.681   0.987   2.399
  241SOL     OW   64   1.641   1.108   2.294
  241SOL    HW1   65   1.727   1.110   2.242
  241SOL    HW2   66   1.655   1.155   2.382
  247SOL     OW   67   1.525   0.999   2.052
  247SOL    HW1   68   1.462   0.923   2.065
  247SOL    HW2   69   1.573   1.017   2.138
  248SOL     OW   70   1.187   1.792   3.478
  248SOL    HW1   71   1.211   1.852   3.402
  248SOL    HW2   72   1.194   1.697   3.448
  250SOL     OW   73   1.466   1.417   2.815
  250SOL    HW1   74   1.407   1.423   2.895
  250SOL    HW2   75   1.451   1.329   2.769
  251SOL     OW   76   1.667   1.714   2.434
  251SOL    HW1   77   1.626   1.691   2.346
  251SOL    HW2   78   1.649   1.640   2.499
  254SOL     OW   79   1.576   1.662   2.169
  254SOL    HW1   80   1.665   1.708   2.172
  254SOL    HW2   81   1.555   1.638   2.074
  264SOL     OW   82   1.362   1.144   2.407
  264SOL    HW1   83   1.445   1.115   2.359
  264SOL    HW2   84   1.313   1.211   2.351
  266SOL     OW   85   1.008   1.456   2.339
  266SOL    HW1   86   0.962   1.528   2.287
  266SOL    HW2   87   1.004   1.476   2.437
  268SOL     OW   88   1.795   1.066   2.735
  268SOL    HW1   89   1.733   1.051   2.659
  268SOL    HW2   90   1.743   1.077   2.820
  269SOL     OW   91   1.227   1.550   3.368
  269SOL    HW1   92   1.233   1.473   3.432
  269SOL    HW2   93   1.175   1.524   3.288
  273SOL     OW   94   1.111   1.776   2.099
  273SOL    HW1   95   1.051   1.714   2.149
  273SOL    HW2   96   1.142   1.732   2.014
  275SOL     OW   97   1.632   1.377   1.943
  275SOL    HW1   98   1.600   1.471   1.933
  275SOL    HW2   99   1.556   1.314   1.931
  279SOL     OW  100   0.940   1.698   2.766
  279SOL    HW1  101   1.020   1.641   2.787
  279SOL    HW2  102   0.891   1.658   2.689
  289SOL     OW  103   1.434   1.188   1.903
  289SOL    HW1  104   1.466   1.112   1.960
  289SOL    HW2  105   1.342   1.215   1.933
  293SOL     OW  106   1.227   1.570   2.655
  293SOL    HW1  107   1.248   1.644   2.590
  293SOL    HW2  108   1.295   1.570   2.728
  295SOL     OW  109   1.271   1.797   2.453
  295SOL    HW1  110   1.315   1.861   2.389
  295SOL    HW2  111   1.221   1.849   2.523
  301SOL     OW  112   1.429   1.173   2.729
  301SOL    HW1  113   1.374   1.089   2.722
  301SOL    HW2  114   1.455   1.202   2.637
  303SOL     OW  115   1.857   0.833   2.239
  303SOL    HW1  116   1.899   0.769   2.303
  303SOL    HW2  117   1.819   0.782   2.161
  305SOL     OW  118   1.664   1.280   2.519
  305SOL    HW1  119   1.763   1.288   2.533
  305SOL    HW2  120   1.619   1.364   2.550
  308SOL     OW  121   1.754   1.223   3.450
  308SOL    HW1  122   1.845   1.184   3.437
  308SOL    HW2  123   1.762   1.319   3.474
  310SOL     OW  124   1.592   1.629   3.487
  310SOL    HW1  125   1.619   1.663   3.397
  310SOL    HW2  126   1.671   1.591   3.533
  312SOL     OW  127   1.638   1.099   2.941
  312SOL    HW1  128   1.643   1.180   3.000
  312SOL    HW2  129   1.552   1.101   2.890
  321SOL     OW  130   1.252   1.348   2.250
  321SOL    HW1  131   1.302   1.425   2.290
  321SOL    HW2  132   1.157   1.350   2.282
  322SOL     OW  133   1.272   1.445   3.004
  322SOL    HW1  134   1.319   1.458   3.091
  322SOL    HW2  135   1.206   1.371   3.013
  340SOL     OW  136   1.859   1.518   3.467
  340SOL    HW1  137   1.873   1.545   3.372
  340SOL    HW2  138   1.942   1.540   3.520
  365SOL     OW  139   1.759   1.747   3.016
  365SOL    HW1  140   1.820   1.777   2.943
  365SOL    HW2  141   1.721   1.658   2.994
  366SOL     OW  142   1.252   1.731   2.990
  366SOL    HW1  143   1.336   1.736   2.936
  366SOL    HW2  144   1.229   1.635   3.008
  370SOL     OW  145   1.388   1.573   2.339
  370SOL    HW1  146   1.455   1.585   2.265
  370SOL    HW2  147   1.348   1.662   2.362
  375SOL     OW  148   1.650   1.720   3.256
  375SOL    HW1  149   1.703   1.730   3.172
  375SOL    HW2  150   1.623   1.810   3.290
  378SOL     OW  151   1.194   1.612   1.893
  378SOL    HW1  152   1.200   1.519   1.930
  378SOL    HW2  153   1.135   1.612   1.813
  381SOL     OW  154   1.504   1.607   1.906
  381SOL    HW1  155   1.412   1.644   1.913
  381SOL    HW2  156   1.542   1.627   1.816
  383SOL     OW  157   1.614   1.292   3.151
  383SOL    HW1  158   1.674   1.295   3.231
  383SOL    HW2  159   1.539   1.356   3.164
  394SOL     OW  160   1.183   1.335   1.981
  394SOL    HW1  161   1.084   1.324   1.983
  394SOL    HW2  162   1.217   1.350   2.074
  396SOL     OW  163   1.493   1.767   2.821
  396SOL    HW1  164   1.526   1.831   2.752
  396SOL    HW2  165   1.559   1.761   2.896
  409SOL     OW  166   1.861   1.569   2.713
  409SOL    HW1  167   1.790   1.557   2.643
  409SOL    HW2  168   1.862   1.490   2.773
  415SOL     OW  169   1.705   1.487   2.966
  415SOL    HW1  170   1.612   1.462   2.939
  415SOL    HW2  171   1.731   1.437   3.048
  426SOL     OW  172   0.875   1.646   2.199
  426SOL    HW1  173   0.798   1.611   2.145
  426SOL    HW2  174   0.843   1.717   2.261
  566SOL     OW  175   0.850   2.660   1.823
  566SOL    HW1  176   0.846   2.736   1.888
  566SOL    HW2  177   0.872   2.696   1.732
  570SOL     OW  178   1.460   3.367   1.339
  570SOL    HW1  179   1.484   3.461   1.365
  570SOL    HW2  180   1.444   3.313   1.421
  574SOL     OW  181   1.127   3.203   1.690
  574SOL    HW1  182   1.174   3.203   1.778
  574SOL    HW2  183   1.079   3.116   1.679
  579SOL     OW  184   1.594   1.976   1.480
  579SOL    HW1  185   1.576   2.043   1.408
  579SOL    HW2  186   1.591   2.022   1.569
  587SOL     OW  187   1.293   3.090   1.423
  587SOL    HW1  188   1.330   3.017   1.365
  587SOL    HW2  189   1.345   3.095   1.508
  599SOL     OW  190   1.394   2.331   1.674
  599SOL    HW1  191   1.374   2.374   1.762
  599SOL    HW2  192   1.472   2.269   1.683
  600SOL     OW  193   0.973   2.752   1.572
  600SOL    HW1  194   1.019   2.668   1.543
  600SOL    HW2  195   0.917   2.786   1.497
  606SOL     OW  196   1.719   2.447   1.831
  606SOL    HW1  197   1.693   2.536   1.795
  606SOL    HW2  198   1.717   2.379   1.758
  611SOL     OW  199   1.795   2.928   0.873
  611SOL    HW1  200   1.733   2.913   0.797
  611SOL    HW2  201   1.743   2.939   0.958
  624SOL     OW  202   1.547   2.084   1.729
  624SOL    HW1  203   1.542   2.121   1.821
  624SOL    HW2  204   1.475   2.015   1.717
  628SOL     OW  205   1.351   2.452   1.433
  628SOL    HW1  206   1.379   2.409   1.518
  628SOL    HW2  207   1.376   2.548   1.434
  634SOL     OW  208   1.076   2.545   1.464
  634SOL    HW1  209   0.996   2.484   1.467
  634SOL    HW2  210   1.157   2.492   1.440
  644SOL     OW  211   1.466   2.452   0.992
  644SOL    HW1  212   1.436   2.357   0.999
  644SOL    HW2  213   1.539   2.468   1.058
  650SOL     OW  214   1.754   3.085   1.588
  650SOL    HW1  215   1.845   3.046   1.575
  650SOL    HW2  216   1.762   3.181   1.612
  652SOL     OW  217   1.592   3.491   1.625
  652SOL    HW1  218   1.619   3.525   1.535
  652SOL    HW2  219   1.671   3.453   1.671
  654SOL     OW  220   1.638   2.961   1.079
  654SOL    HW1  221   1.643   3.042   1.138
  654SOL    HW2  222   1.552   2.963   1.028
  656SOL     OW  223   0.980   2.978   1.719
  656SOL    HW1  224   0.881   2.984   1.729
  656SOL    HW2  225   1.003   2.898   1.663
  659SOL     OW  226   1.274   2.248   1.262
  659SOL    HW1  227   1.295   2.322   1.326
  659SOL    HW2  228   1.185   2.265   1.219
  668SOL     OW  229   1.587   2.641   1.670
  668SOL    HW1  230   1.495   2.679   1.665
  668SOL    HW2  231   1.647   2.688   1.605
  669SOL     OW  232   1.013   1.967   1.770
  669SOL    HW1  233   1.019   2.052   1.718
  669SOL    HW2  234   1.045   1.891   1.713
  677SOL     OW  235   1.728   2.797   1.854
  677SOL    HW1  236   1.682   2.790   1.765
  677SOL    HW2  237   1.666   2.841   1.920
  682SOL     OW  238   1.859   3.380   1.605
  682SOL    HW1  239   1.873   3.407   1.510
  682SOL    HW2  240   1.942   3.402   1.658
  689SOL     OW  241   1.138   2.242   1.678
  689SOL    HW1  242   1.093   2.305   1.742
  689SOL    HW2  243   1.231   2.273   1.661
  690SOL     OW  244   1.160   2.069   1.477
  690SOL    HW1  245   1.160   2.133   1.554
  690SOL    HW2  246   1.188   2.117   1.394
  697SOL     OW  247   1.369   2.812   1.660
  697SOL    HW1  248   1.408   2.901   1.680
  697SOL    HW2  249   1.379   2.792   1.563
  699SOL     OW  250   1.657   2.466   1.206
  699SOL    HW1  251   1.619   2.397   1.268
  699SOL    HW2  252   1.739   2.430   1.162
  705SOL     OW  253   1.347   2.921   1.234
  705SOL    HW1  254   1.371   2.858   1.160
  705SOL    HW2  255   1.257   2.961   1.216
  718SOL     OW  256   1.650   3.582   1.394
  718SOL    HW1  257   1.703   3.592   1.310
  718SOL    HW2  258   1.623   3.672   1.428
  719SOL     OW  259   1.841   2.037   0.963
  719SOL    HW1  260   1.880   1.952   0.927
  719SOL    HW2  261   1.743   2.039   0.944
  726SOL     OW  262   1.614   3.154   1.289
  726SOL    HW1  263   1.674   3.157   1.369
  726SOL    HW2  264   1.539   3.218   1.302
  730SOL     OW  265   1.709   2.247   1.381
  730SOL    HW1  266   1.782   2.316   1.385
  730SOL    HW2  267   1.737   2.172   1.322
  735SOL     OW  268   1.440   2.718   1.398
  735SOL    HW1  269   1.383   2.770   1.335
  735SOL    HW2  270   1.536   2.730   1.374
  741SOL     OW  271   1.450   3.082   1.633
  741SOL    HW1  272   1.441   3.072   1.732
  741SOL    HW2  273   1.546   3.075   1.607
  743SOL     OW  274   1.674   2.745   1.254
  743SOL    HW1  275   1.647   2.656   1.217
  743SOL    HW2  276   1.675   2.813   1.181
  746SOL     OW  277   1.777   2.204   1.642
  746SOL    HW1  278   1.760   2.235   1.548
  746SOL    HW2  279   1.693   2.167   1.680
  747SOL     OW  280   1.730   2.796   1.517
  747SOL    HW1  281   1.768   2.887   1.532
  747SOL    HW2  282   1.722   2.779   1.418
  756SOL     OW  283   1.824   2.054   1.227
  756SOL    HW1  284   1.820   1.964   1.271
  756SOL    HW2  285   1.827   2.043   1.128
  758SOL     OW  286   1.705   3.349   1.104
  758SOL    HW1  287   1.612   3.324   1.077
  758SOL    HW2  288   1.731   3.299   1.186
  761SOL     OW  289   1.424   2.076   1.112
  761SOL    HW1  290   1.476   2.011   1.167
  761SOL    HW2  291   1.375   2.139   1.173
  774SOL     OW  292   1.555   3.373   2.565
  774SOL    HW1  293   1.498   3.357   2.646
  774SOL    HW2  294   1.496   3.383   2.485
  775SOL     OW  295   1.135   2.565   2.579
  775SOL    HW1  296   1.192   2.643   2.554
  775SOL    HW2  297   1.075   2.591   2.655
  776SOL     OW  298   1.755   2.469   2.093
  776SOL    HW1  299   1.743   2.456   1.994
  776SOL    HW2  300   1.725   2.388   2.142
  782SOL     OW  301   1.460   3.367   3.201
  782SOL    HW1  302   1.484   3.461   3.227
  782SOL    HW2  303   1.444   3.313   3.283
  784SOL     OW  304   1.603   2.309   2.599
  784SOL    HW1  305   1.529   2.355   2.549
  784SOL    HW2  306   1.654   2.377   2.652
  791SOL     OW  307   1.594   1.976   3.342
  791SOL    HW1  308   1.576   2.043   3.270
  791SOL    HW2  309   1.591   2.022   3.431
  793SOL     OW  310   1.842   3.629   2.221
  793SOL    HW1  311   1.896   3.600   2.301
  793SOL    HW2  312   1.872   3.719   2.192
  795SOL     OW  313   1.689   2.784   2.474
  795SOL    HW1  314   1.784   2.755   2.482
  795SOL    HW2  315   1.681   2.849   2.399
  796SOL     OW  316   1.641   2.970   2.294
  796SOL    HW1  317   1.727   2.972   2.242
  796SOL    HW2  318   1.655   3.017   2.382
  799SOL     OW  319   1.293   3.090   3.285
  799SOL    HW1  320   1.330   3.017   3.227
  799SOL    HW2  321   1.345   3.095   3.370
  800SOL     OW  322   0.809   1.866   2.364
  800SOL    HW1  323   0.849   1.957   2.355
  800SOL    HW2  324   0.709   1.874   2.370
  802SOL     OW  325   1.525   2.861   2.052
  802SOL    HW1  326   1.462   2.785   2.065
  802SOL    HW2  327   1.573   2.879   2.138
  805SOL     OW  328   1.466   3.279   2.815
  805SOL    HW1  329   1.407   3.285   2.895
  805SOL    HW2  330   1.451   3.191   2.769
  806SOL     OW  331   1.667   3.576   2.434
  806SOL    HW1  332   1.626   3.553   2.346
  806SOL    HW2  333   1.649   3.502   2.499
  808SOL     OW  334   1.281   2.207   2.806
  808SOL    HW1  335   1.195   2.157   2.793
  808SOL    HW2  336   1.343   2.153   2.862
  809SOL     OW  337   1.576   3.524   2.169
  809SOL    HW1  338   1.665   3.570   2.172
  809SOL    HW2  339   1.555   3.500   2.074
  811SOL     OW  340   1.394   2.331   3.536
  811SOL    HW1  341   1.374   2.374   3.624
  811SOL    HW2  342   1.472   2.269   3.545
  813SOL     OW  343   0.991   2.272   3.104
  813SOL    HW1  344   0.914   2.306   3.158
  813SOL    HW2  345   0.957   2.221   3.025
  814SOL     OW  346   1.041   2.563   2.291
  814SOL    HW1  347   1.067   2.559   2.387
  814SOL    HW2  348   0.956   2.512   2.277
  817SOL     OW  349   0.865   2.210   2.057
  817SOL    HW1  350   0.924   2.273   2.008
  817SOL    HW2  351   0.884   2.116   2.028
  818SOL     OW  352   1.719   2.447   3.693
  818SOL    HW1  353   1.693   2.536   3.657
  818SOL    HW2  354   1.717   2.379   3.620
  819SOL     OW  355   1.362   3.006   2.407
  819SOL    HW1  356   1.445   2.977   2.359
  819SOL    HW2  357   1.313   3.073   2.351
  821SOL     OW  358   1.008   3.318   2.339
  821SOL    HW1  359   0.962   3.390   2.287
  821SOL    HW2  360   1.004   3.338   2.437
  823SOL     OW  361   1.795   2.928   2.735
  823SOL    HW1  362   1.733   2.913   2.659
  823SOL    HW2  363   1.743   2.939   2.820
  826SOL     OW  364   1.458   2.597   2.590
  826SOL    HW1  365   1.453   2.532   2.665
  826SOL    HW2  366   1.538   2.656   2.603
  830SOL     OW  367   1.632   3.239   1.943
  830SOL    HW1  368   1.600   3.333   1.933
  830SOL    HW2  369   1.556   3.176   1.931
  832SOL     OW  370   1.400   1.969   2.288
  832SOL    HW1  371   1.376   1.932   2.198
  832SOL    HW2  372   1.499   1.985   2.292
  836SOL     OW  373   1.547   2.084   3.591
  836SOL    HW1  374   1.542   2.121   3.683
  836SOL    HW2  375   1.475   2.015   3.579
  840SOL     OW  376   1.351   2.452   3.295
  840SOL    HW1  377   1.379   2.409   3.380
  840SOL    HW2  378   1.376   2.548   3.296
  842SOL     OW  379   0.922   2.365   2.761
  842SOL    HW1  380   0.897   2.356   2.665
  842SOL    HW2  381   0.970   2.283   2.792
  844SOL     OW  382   1.434   3.050   1.903
  844SOL    HW1  383   1.466   2.974   1.960
  844SOL    HW2  384   1.342   3.077   1.933
  846SOL     OW  385   0.935   2.098   2.342
  846SOL    HW1  386   0.887   2.139   2.264
  846SOL    HW2  387   1.034   2.096   2.323
  847SOL     OW  388   1.076   2.545   3.326
  847SOL    HW1  389   0.996   2.484   3.329
  847SOL    HW2  390   1.157   2.492   3.302
  848SOL     OW  391   1.227   3.432   2.655
  848SOL    HW1  392   1.248   3.506   2.590
  848SOL    HW2  393   1.295   3.432   2.728
  850SOL     OW  394   1.271   3.659   2.453
  850SOL    HW1  395   1.315   3.723   2.389
  850SOL    HW2  396   1.221   3.711   2.523
  851SOL     OW  397   1.032   2.411   1.878
  851SOL    HW1  398   0.991   2.493   1.839
  851SOL    HW2  399   1.096   2.437   1.951
  854SOL     OW  400   0.866   2.316   2.504
  854SOL    HW1  401   0.834   2.388   2.442
  854SOL    HW2  402   0.890   2.235   2.451
  855SOL     OW  403   1.017   1.901   2.615
  855SOL    HW1  404   0.945   1.906   2.546
  855SOL    HW2  405   0.993   1.832   2.684
  856SOL     OW  406   1.429   3.035   2.729
  856SOL    HW1  407   1.374   2.951   2.722
  856SOL    HW2  408   1.455   3.064   2.637
  857SOL     OW  409   1.466   2.452   2.854
  857SOL    HW1  410   1.436   2.357   2.861
  857SOL    HW2  411   1.539   2.468   2.920
  858SOL     OW  412   1.857   2.695   2.239
  858SOL    HW1  413   1.899   2.631   2.303
  858SOL    HW2  414   1.819   2.644   2.161
  860SOL     OW  415   1.664   3.142   2.519
  860SOL    HW1  416   1.763   3.150   2.533
  860SOL    HW2  417   1.619   3.226   2.550
  861SOL     OW  418   1.390   2.437   1.940
  861SOL    HW1  419   1.336   2.416   2.021
  861SOL    HW2  420   1.481   2.396   1.949
  863SOL     OW  421   1.754   3.085   3.450
  863SOL    HW1  422   1.845   3.046   3.437
  863SOL    HW2  423   1.762   3.181   3.474
  864SOL     OW  424   1.064   3.209   3.202
  864SOL    HW1  425   0.984   3.186   3.257
  864SOL    HW2  426   1.147   3.183   3.251
  865SOL     OW  427   1.592   3.491   3.487
  865SOL    HW1  428   1.619   3.525   3.397
  865SOL    HW2  429   1.671   3.453   3.533
  866SOL     OW  430   1.111   3.057   2.962
  866SOL    HW1  431   1.071   3.101   3.043
  866SOL    HW2  432   1.070   3.094   2.879
  867SOL     OW  433   1.638   2.961   2.941
  867SOL    HW1  434   1.643   3.042   3.000
  867SOL    HW2  435   1.552   2.963   2.890
  872SOL     OW  436   1.274   2.248   3.124
  872SOL    HW1  437   1.295   2.322   3.188
  872SOL    HW2  438   1.185   2.265   3.081
  876SOL     OW  439   1.252   3.210   2.250
  876SOL    HW1  440   1.302   3.287   2.290
  876SOL    HW2  441   1.157   3.212   2.282
  877SOL     OW  442   1.272   3.307   3.004
  877SOL    HW1  443   1.319   3.320   3.091
  877SOL    HW2  444   1.206   3.233   3.013
  878SOL     OW  445   1.582   2.501   2.334
  878SOL    HW1  446   1.551   2.562   2.407
  878SOL    HW2  447   1.632   2.553   2.265
  881SOL     OW  448   1.587   2.641   3.532
  881SOL    HW1  449   1.495   2.679   3.527
  881SOL    HW2  450   1.647   2.688   3.467
  885SOL     OW  451   1.360   2.724   2.907
  885SOL    HW1  452   1.285   2.724   2.841
  885SOL    HW2  453   1.397   2.632   2.916
  886SOL     OW  454   1.209   2.387   2.137
  886SOL    HW1  455   1.222   2.303   2.191
  886SOL    HW2  456   1.180   2.461   2.197
  889SOL     OW  457   0.732   2.496   2.926
  889SOL    HW1  458   0.791   2.470   2.850
  889SOL    HW2  459   0.704   2.592   2.915
  890SOL     OW  460   1.728   2.797   3.716
  890SOL    HW1  461   1.682   2.790   3.627
  890SOL    HW2  462   1.666   2.841   3.782
  892SOL     OW  463   1.622   2.229   2.236
  892SOL    HW1  464   1.624   2.153   2.300
  892SOL    HW2  465   1.574   2.306   2.276
  893SOL     OW  466   1.023   2.628   2.828
  893SOL    HW1  467   1.038   2.649   2.924
  893SOL    HW2  468   0.993   2.533   2.819
  895SOL     OW  469   1.859   3.380   3.467
  895SOL    HW1  470   1.873   3.407   3.372
  895SOL    HW2  471   1.942   3.402   3.520
  897SOL     OW  472   1.540   2.136   1.987
  897SOL    HW1  473   1.479   2.061   2.010
  897SOL    HW2  474   1.562   2.188   2.070
  898SOL     OW  475   1.303   2.700   1.904
  898SOL    HW1  476   1.337   2.607   1.919
  898SOL    HW2  477   1.321   2.727   1.809
  899SOL     OW  478   1.068   3.195   2.711
  899SOL    HW1  479   1.075   3.111   2.656
  899SOL    HW2  480   1.130   3.264   2.675
  902SOL     OW  481   1.138   2.242   3.540
  902SOL    HW1  482   1.093   2.305   3.604
  902SOL    HW2  483   1.231   2.273   3.523
  903SOL     OW  484   1.160   2.069   3.339
  903SOL    HW1  485   1.160   2.133   3.416
  903SOL    HW2  486   1.188   2.117   3.256
  907SOL     OW  487   1.002   2.658   3.100
  907SOL    HW1  488   1.043   2.626   3.186
  907SOL    HW2  489   0.906   2.631   3.097
  910SOL     OW  490   1.369   2.812   3.522
  910SOL    HW1  491   1.408   2.901   3.542
  910SOL    HW2  492   1.379   2.792   3.425
  911SOL     OW  493   0.815   2.434   2.187
  911SOL    HW1  494   0.822   2.345   2.141
  911SOL    HW2  495   0.721   2.468   2.179
  912SOL     OW  496   1.657   2.466   3.068
  912SOL    HW1  497   1.619   2.397   3.130
  912SOL    HW2  498   1.739   2.430   3.024
  918SOL     OW  499   1.347   2.921   3.096
  918SOL    HW1  500   1.371   2.858   3.022
  918SOL    HW2  501   1.257   2.961   3.078
  919SOL     OW  502   1.302   2.717   2.171
  919SOL    HW1  503   1.216   2.686   2.213
  919SOL    HW2  504   1.298   2.703   2.072
  920SOL     OW  505   1.759   3.609   3.016
  920SOL    HW1  506   1.820   3.639   2.943
  920SOL    HW2  507   1.721   3.520   2.994
  921SOL     OW  508   1.252   3.593   2.990
  921SOL    HW1  509   1.336   3.598   2.936
  921SOL    HW2  510   1.229   3.497   3.008
  924SOL     OW  511   1.726   1.997   2.385
  924SOL    HW1  512   1.799   1.980   2.318
  924SOL    HW2  513   1.695   1.910   2.423
  925SOL     OW  514   1.388   3.435   2.339
  925SOL    HW1  515   1.455   3.447   2.265
  925SOL    HW2  516   1.348   3.524   2.362
  927SOL     OW  517   1.280   2.789   2.534
  927SOL    HW1  518   1.340   2.708   2.536
  927SOL    HW2  519   1.320   2.858   2.474
  930SOL     OW  520   1.650   3.582   3.256
  930SOL    HW1  521   1.703   3.592   3.172
  930SOL    HW2  522   1.623   3.672   3.290
  931SOL     OW  523   1.841   2.037   2.825
  931SOL    HW1  524   1.880   1.952   2.789
  931SOL    HW2  525   1.743   2.039   2.806
  933SOL     OW  526   1.194   3.474   1.893
  933SOL    HW1  527   1.200   3.381   1.930
  933SOL    HW2  528   1.135   3.474   1.813
  935SOL     OW  529   0.916   2.772   2.153
  935SOL    HW1  530   0.979   2.810   2.085
  935SOL    HW2  531   0.956   2.689   2.192
  936SOL     OW  532   1.504   3.469   1.906
  936SOL    HW1  533   1.412   3.506   1.913
  936SOL    HW2  534   1.542   3.489   1.816
  938SOL     OW  535   1.614   3.154   3.151
  938SOL    HW1  536   1.674   3.157   3.231
  938SOL    HW2  537   1.539   3.218   3.164
  939SOL     OW  538   1.039   2.960   2.558
  939SOL    HW1  539   0.969   2.913   2.612
  939SOL    HW2  540   1.098   2.892   2.515
  940SOL     OW  541   1.014   2.098   2.833
  940SOL    HW1  542   1.006   2.062   2.740
  940SOL    HW2  543   1.012   2.022   2.898
  942SOL     OW  544   1.709   2.247   3.243
  942SOL    HW1  545   1.782   2.316   3.247
  942SOL    HW2  546   1.737   2.172   3.184
  947SOL     OW  547   1.440   2.718   3.260
  947SOL    HW1  548   1.383   2.770   3.197
  947SOL    HW2  549   1.536   2.730   3.236
  949SOL     OW  550   1.183   3.197   1.981
  949SOL    HW1  551   1.084   3.186   1.983
  949SOL    HW2  552   1.217   3.212   2.074
  951SOL     OW  553   1.493   3.629   2.821
  951SOL    HW1  554   1.526   3.693   2.752
  951SOL    HW2  555   1.559   3.623   2.896
  953SOL     OW  556   1.450   3.082   3.495
  953SOL    HW1  557   1.441   3.072   3.594
  953SOL    HW2  558   1.546   3.075   3.469
  955SOL     OW  559   1.674   2.745   3.116
  955SOL    HW1  560   1.647   2.656   3.079
  955SOL    HW2  561   1.675   2.813   3.043
  956SOL     OW  562   1.225   2.187   2.311
  956SOL    HW1  563   1.290   2.113   2.300
  956SOL    HW2  564   1.245   2.237   2.395
  958SOL     OW  565   1.777   2.204   3.504
  958SOL    HW1  566   1.760   2.235   3.410
  958SOL    HW2  567   1.693   2.167   3.542
  959SOL     OW  568   1.730   2.796   3.379
  959SOL    HW1  569   1.768   2.887   3.394
  959SOL    HW2  570   1.722   2.779   3.280
  962SOL     OW  571   0.859   2.818   2.723
  962SOL    HW1  572   0.913   2.749   2.771
  962SOL    HW2  573   0.827   2.887   2.789
  963SOL     OW  574   1.083   2.846   1.949
  963SOL    HW1  575   1.060   2.899   1.867
  963SOL    HW2  576   1.164   2.790   1.930
  964SOL     OW  577   1.861   3.431   2.713
  964SOL    HW1  578   1.790   3.419   2.643
  964SOL    HW2  579   1.862   3.352   2.773
  968SOL     OW  580   1.824   2.054   3.089
  968SOL    HW1  581   1.820   1.964   3.133
  968SOL    HW2  582   1.827   2.043   2.990
  970SOL     OW  583   1.705   3.349   2.966
  970SOL    HW1  584   1.612   3.324   2.939
  970SOL    HW2  585   1.731   3.299   3.048
  973SOL     OW  586   1.424   2.076   2.974
  973SOL    HW1  587   1.476   2.011   3.029
  973SOL    HW2  588   1.375   2.139   3.035
  974SOL     OW  589   1.001   1.896   3.016
  974SOL    HW1  590   0.938   1.824   2.985
  974SOL    HW2  591   1.094   1.860   3.016
  977SOL     OW  592   1.352   1.914   2.030
  977SOL    HW1  593   1.387   1.873   1.946
  977SOL    HW2  594   1.262   1.876   2.050
  978SOL     OW  595   1.300   2.315   2.553
  978SOL    HW1  596   1.241   2.395   2.557
  978SOL    HW2  597   1.315   2.280   2.646
  979SOL     OW  598   1.593   2.083   2.744
  979SOL    HW1  599   1.509   2.082   2.798
  979SOL    HW2  600   1.595   2.166   2.688
  987SOL     OW  601   1.755   2.469   3.955
  987SOL    HW1  602   1.743   2.456   3.856
  987SOL    HW2  603   1.725   2.388   4.004
 1004SOL     OW  604   1.525   2.861   3.914
 1004SOL    HW1  605   1.462   2.785   3.927
 1004SOL    HW2  606   1.573   2.879   4.000
 1021SOL     OW  607   1.632   3.239   3.805
 1021SOL    HW1  608   1.600   3.333   3.795
 1021SOL    HW2  609   1.556   3.176   3.793
 1031SOL     OW  610   1.434   3.050   3.765
 1031SOL    HW1  611   1.466   2.974   3.822
 1031SOL    HW2  612   1.342   3.077   3.795
 1042SOL     OW  613   1.857   2.695   4.101
 1042SOL    HW1  614   1.899   2.631   4.165
 1042SOL    HW2  615   1.819   2.644   4.023
 1045SOL     OW  616   1.390   2.437   3.802
 1045SOL    HW1  617   1.336   2.416   3.883
 1045SOL    HW2  618   1.481   2.396   3.811
 1063SOL     OW  619   1.540   2.136   3.849
 1063SOL    HW1  620   1.479   2.061   3.872
 1063SOL    HW2  621   1.562   2.188   3.932
 1064SOL     OW  622   1.303   2.700   3.766
 1064SOL    HW1  623   1.337   2.607   3.781
 1064SOL    HW2  624   1.321   2.727   3.671
 1286SOL     OW  625   1.400   3.831   2.288
 1286SOL    HW1  626   1.376   3.794   2.198
 1286SOL    HW2  627   1.499   3.847   2.292
 1350SOL     OW  628   1.726   3.859   2.385
 1350SOL    HW1  629   1.799   3.842   2.318
 1350SOL    HW2  630   1.695   3.772   2.423
 1352SOL     OW  631   1.841   3.899   2.825
 1352SOL    HW1  632   1.880   3.814   2.789
 1352SOL    HW2  633   1.743   3.901   2.806
 1374SOL     OW  634   1.824   3.916   3.089
 1374SOL    HW1  635   1.820   3.826   3.133
 1374SOL    HW2  636   1.827   3.905   2.990
 1380SOL     OW  637   1.352   3.776   2.030
 1380SOL    HW1  638   1.387   3.735   1.946
 1380SOL    HW2  639   1.262   3.738   2.050
 1382SOL     OW  640   1.593   3.945   2.744
 1382SOL    HW1  641   1.509   3.944   2.798
 1382SOL    HW2  642   1.595   4.028   2.688
 1473SOL     OW  643   2.431   1.275   1.165
 1473SOL    HW1  644   2.338   1.268   1.128
 1473SOL    HW2  645   2.442   1.364   1.209
 1478SOL     OW  646   2.712   0.798   1.823
 1478SOL    HW1  647   2.708   0.874   1.888
 1478SOL    HW2  648   2.734   0.834   1.732
 1480SOL     OW  649   2.548   1.161   1.803
 1480SOL    HW1  650   2.608   1.240   1.817
 1480SOL    HW2  651   2.462   1.192   1.762
 1481SOL     OW  652   2.197   1.435   1.061
 1481SOL    HW1  653   2.119   1.404   1.008
 1481SOL    HW2  654   2.255   1.493   1.004
 1482SOL     OW  655   3.322   1.505   1.339
 1482SOL    HW1  656   3.346   1.599   1.365
 1482SOL    HW2  657   3.306   1.451   1.421
 1486SOL     OW  658   2.989   1.341   1.690
 1486SOL    HW1  659   3.036   1.341   1.778
 1486SOL    HW2  660   2.941   1.254   1.679
 1489SOL     OW  661   2.482   1.786   1.439
 1489SOL    HW1  662   2.390   1.769   1.474
 1489SOL    HW2  663   2.510   1.878   1.465
 1499SOL     OW  664   3.155   1.228   1.423
 1499SOL    HW1  665   3.192   1.155   1.365
 1499SOL    HW2  666   3.207   1.233   1.508
 1503SOL     OW  667   3.049   1.792   1.616
 1503SOL    HW1  668   3.073   1.852   1.540
 1503SOL    HW2  669   3.056   1.697   1.586
 1516SOL     OW  670   1.992   1.821   1.571
 1516SOL    HW1  671   1.982   1.806   1.670
 1516SOL    HW2  672   1.906   1.857   1.535
 1522SOL     OW  673   2.213   1.801   0.853
 1522SOL    HW1  674   2.263   1.715   0.859
 1522SOL    HW2  675   2.278   1.878   0.850
 1524SOL     OW  676   3.089   1.550   1.506
 1524SOL    HW1  677   3.095   1.473   1.570
 1524SOL    HW2  678   3.037   1.524   1.426
 1527SOL     OW  679   2.323   1.266   1.727
 1527SOL    HW1  680   2.273   1.267   1.641
 1527SOL    HW2  681   2.260   1.248   1.803
 1533SOL     OW  682   2.111   1.785   1.241
 1533SOL    HW1  683   2.168   1.720   1.291
 1533SOL    HW2  684   2.095   1.752   1.148
 1534SOL     OW  685   2.802   1.698   0.904
 1534SOL    HW1  686   2.882   1.641   0.925
 1534SOL    HW2  687   2.753   1.658   0.827
 1539SOL     OW  688   2.750   1.514   1.195
 1539SOL    HW1  689   2.727   1.489   1.101
 1539SOL    HW2  690   2.811   1.445   1.234
 1564SOL     OW  691   2.926   1.347   1.340
 1564SOL    HW1  692   2.846   1.324   1.395
 1564SOL    HW2  693   3.009   1.321   1.389
 1565SOL     OW  694   3.454   1.629   1.625
 1565SOL    HW1  695   3.481   1.663   1.535
 1565SOL    HW2  696   3.533   1.591   1.671
 1569SOL     OW  697   2.842   1.116   1.719
 1569SOL    HW1  698   2.743   1.122   1.729
 1569SOL    HW2  699   2.865   1.036   1.663
 1573SOL     OW  700   1.926   1.564   1.331
 1573SOL    HW1  701   1.880   1.646   1.297
 1573SOL    HW2  702   2.024   1.583   1.340
 1577SOL     OW  703   3.134   1.445   1.142
 1577SOL    HW1  704   3.181   1.458   1.229
 1577SOL    HW2  705   3.068   1.371   1.151
 1579SOL     OW  706   2.216   1.510   1.329
 1579SOL    HW1  707   2.195   1.466   1.242
 1579SOL    HW2  708   2.313   1.536   1.332
 1588SOL     OW  709   1.899   1.310   1.282
 1588SOL    HW1  710   1.952   1.261   1.350
 1588SOL    HW2  711   1.921   1.408   1.287
 1594SOL     OW  712   2.842   1.573   1.700
 1594SOL    HW1  713   2.822   1.617   1.612
 1594SOL    HW2  714   2.881   1.482   1.684
 1595SOL     OW  715   3.721   1.518   1.605
 1595SOL    HW1  716   3.735   1.545   1.510
 1595SOL    HW2  717   3.804   1.540   1.658
 1596SOL     OW  718   2.212   0.898   1.804
 1596SOL    HW1  719   2.288   0.942   1.852
 1596SOL    HW2  720   2.247   0.851   1.722
 1605SOL     OW  721   1.950   1.801   0.927
 1605SOL    HW1  722   1.908   1.715   0.900
 1605SOL    HW2  723   2.044   1.804   0.893
 1606SOL     OW  724   2.366   1.568   0.910
 1606SOL    HW1  725   2.432   1.642   0.919
 1606SOL    HW2  726   2.410   1.489   0.868
 1613SOL     OW  727   2.114   1.564   1.744
 1613SOL    HW1  728   2.084   1.621   1.820
 1613SOL    HW2  729   2.107   1.467   1.770
 1615SOL     OW  730   2.792   1.678   1.465
 1615SOL    HW1  731   2.768   1.660   1.370
 1615SOL    HW2  732   2.822   1.772   1.475
 1617SOL     OW  733   2.021   1.137   1.466
 1617SOL    HW1  734   2.043   1.076   1.542
 1617SOL    HW2  735   2.031   1.088   1.380
 1621SOL     OW  736   3.114   1.731   1.128
 1621SOL    HW1  737   3.198   1.736   1.074
 1621SOL    HW2  738   3.091   1.635   1.146
 1623SOL     OW  739   2.550   1.662   1.716
 1623SOL    HW1  740   2.494   1.743   1.725
 1623SOL    HW2  741   2.602   1.666   1.630
 1627SOL     OW  742   1.992   1.794   1.851
 1627SOL    HW1  743   1.951   1.720   1.904
 1627SOL    HW2  744   2.056   1.845   1.909
 1629SOL     OW  745   2.692   1.273   1.422
 1629SOL    HW1  746   2.687   1.306   1.517
 1629SOL    HW2  747   2.606   1.292   1.376
 1631SOL     OW  748   3.512   1.720   1.394
 1631SOL    HW1  749   3.565   1.730   1.310
 1631SOL    HW2  750   3.485   1.810   1.428
 1638SOL     OW  751   2.234   1.288   1.490
 1638SOL    HW1  752   2.221   1.381   1.456
 1638SOL    HW2  753   2.150   1.236   1.477
 1645SOL     OW  754   1.967   1.013   1.726
 1645SOL    HW1  755   1.890   0.980   1.780
 1645SOL    HW2  756   2.052   0.983   1.768
 1653SOL     OW  757   3.312   1.220   1.633
 1653SOL    HW1  758   3.303   1.210   1.732
 1653SOL    HW2  759   3.408   1.213   1.607
 1654SOL     OW  760   2.252   1.741   1.560
 1654SOL    HW1  761   2.161   1.782   1.558
 1654SOL    HW2  762   2.245   1.647   1.592
 1661SOL     OW  763   2.523   1.790   0.953
 1661SOL    HW1  764   2.477   1.878   0.940
 1661SOL    HW2  765   2.622   1.802   0.946
 1665SOL     OW  766   2.083   1.314   1.844
 1665SOL    HW1  767   2.018   1.241   1.823
 1665SOL    HW2  768   2.087   1.328   1.942
 1667SOL     OW  769   2.534   1.391   1.624
 1667SOL    HW1  770   2.456   1.341   1.662
 1667SOL    HW2  771   2.531   1.486   1.655
 1676SOL     OW  772   2.480   1.567   1.284
 1676SOL    HW1  773   2.475   1.649   1.341
 1676SOL    HW2  774   2.569   1.564   1.239
 1685SOL     OW  775   2.431   1.275   3.027
 1685SOL    HW1  776   2.338   1.268   2.990
 1685SOL    HW2  777   2.442   1.364   3.071
 1686SOL     OW  778   3.417   1.511   2.565
 1686SOL    HW1  779   3.360   1.495   2.646
 1686SOL    HW2  780   3.358   1.521   2.485
 1689SOL     OW  781   2.630   1.144   2.885
 1689SOL    HW1  782   2.552   1.161   2.945
 1689SOL    HW2  783   2.664   1.231   2.849
 1691SOL     OW  784   2.547   1.012   2.527
 1691SOL    HW1  785   2.616   0.996   2.597
 1691SOL    HW2  786   2.474   1.069   2.565
 1692SOL     OW  787   2.548   1.161   3.665
 1692SOL    HW1  788   2.608   1.240   3.679
 1692SOL    HW2  789   2.462   1.192   3.624
 1693SOL     OW  790   2.197   1.435   2.923
 1693SOL    HW1  791   2.119   1.404   2.870
 1693SOL    HW2  792   2.255   1.493   2.866
 1694SOL     OW  793   3.322   1.505   3.201
 1694SOL    HW1  794   3.346   1.599   3.227
 1694SOL    HW2  795   3.306   1.451   3.283
 1697SOL     OW  796   2.093   1.713   2.345
 1697SOL    HW1  797   2.127   1.790   2.399
 1697SOL    HW2  798   2.137   1.713   2.255
 1698SOL     OW  799   2.989   1.341   3.552
 1698SOL    HW1  800   3.036   1.341   3.640
 1698SOL    HW2  801   2.941   1.254   3.541
 1699SOL     OW  802   2.092   1.434   2.400
 1699SOL    HW1  803   2.066   1.530   2.400
 1699SOL    HW2  804   2.021   1.380   2.445
 1700SOL     OW  805   2.102   1.091   2.748
 1700SOL    HW1  806   2.116   1.007   2.800
 1700SOL    HW2  807   2.047   1.155   2.803
 1701SOL     OW  808   2.482   1.786   3.301
 1701SOL    HW1  809   2.390   1.769   3.336
 1701SOL    HW2  810   2.510   1.878   3.327
 1702SOL     OW  811   2.468   0.964   1.985
 1702SOL    HW1  812   2.475   1.048   1.931
 1702SOL    HW2  813   2.514   0.977   2.073
 1705SOL     OW  814   3.704   1.767   2.221
 1705SOL    HW1  815   3.758   1.738   2.301
 1705SOL    HW2  816   3.734   1.857   2.192
 1706SOL     OW  817   1.889   1.596   1.979
 1706SOL    HW1  818   1.870   1.500   2.000
 1706SOL    HW2  819   1.856   1.654   2.054
 1708SOL     OW  820   3.503   1.108   2.294
 1708SOL    HW1  821   3.589   1.110   2.242
 1708SOL    HW2  822   3.517   1.155   2.382
 1710SOL     OW  823   2.475   1.365   2.588
 1710SOL    HW1  824   2.426   1.278   2.597
 1710SOL    HW2  825   2.452   1.408   2.501
 1711SOL     OW  826   3.155   1.228   3.285
 1711SOL    HW1  827   3.192   1.155   3.227
 1711SOL    HW2  828   3.207   1.233   3.370
 1713SOL     OW  829   2.059   0.976   3.126
 1713SOL    HW1  830   2.148   0.931   3.112
 1713SOL    HW2  831   1.986   0.911   3.107
 1714SOL     OW  832   3.387   0.999   2.052
 1714SOL    HW1  833   3.324   0.923   2.065
 1714SOL    HW2  834   3.435   1.017   2.138
 1715SOL     OW  835   3.049   1.792   3.478
 1715SOL    HW1  836   3.073   1.852   3.402
 1715SOL    HW2  837   3.056   1.697   3.448
 1717SOL     OW  838   3.328   1.417   2.815
 1717SOL    HW1  839   3.269   1.423   2.895
 1717SOL    HW2  840   3.313   1.329   2.769
 1718SOL     OW  841   3.529   1.714   2.434
 1718SOL    HW1  842   3.488   1.691   2.346
 1718SOL    HW2  843   3.511   1.640   2.499
 1719SOL     OW  844   2.460   0.729   2.132
 1719SOL    HW1  845   2.484   0.798   2.064
 1719SOL    HW2  846   2.382   0.762   2.186
 1721SOL     OW  847   3.438   1.662   2.169
 1721SOL    HW1  848   3.527   1.708   2.172
 1721SOL    HW2  849   3.417   1.638   2.074
 1727SOL     OW  850   1.938   0.811   2.651
 1727SOL    HW1  851   2.037   0.799   2.660
 1727SOL    HW2  852   1.914   0.906   2.672
 1728SOL     OW  853   1.992   1.821   3.433
 1728SOL    HW1  854   1.982   1.806   3.532
 1728SOL    HW2  855   1.906   1.857   3.397
 1731SOL     OW  856   3.224   1.144   2.407
 1731SOL    HW1  857   3.307   1.115   2.359
 1731SOL    HW2  858   3.175   1.211   2.351
 1733SOL     OW  859   2.870   1.456   2.339
 1733SOL    HW1  860   2.824   1.528   2.287
 1733SOL    HW2  861   2.866   1.476   2.437
 1734SOL     OW  862   2.213   1.801   2.715
 1734SOL    HW1  863   2.263   1.715   2.721
 1734SOL    HW2  864   2.278   1.878   2.712
 1736SOL     OW  865   3.089   1.550   3.368
 1736SOL    HW1  866   3.095   1.473   3.432
 1736SOL    HW2  867   3.037   1.524   3.288
 1737SOL     OW  868   2.183   0.943   2.104
 1737SOL    HW1  869   2.265   0.982   2.062
 1737SOL    HW2  870   2.156   0.861   2.055
 1739SOL     OW  871   2.323   1.266   3.589
 1739SOL    HW1  872   2.273   1.267   3.503
 1739SOL    HW2  873   2.260   1.248   3.665
 1740SOL     OW  874   2.973   1.776   2.099
 1740SOL    HW1  875   2.913   1.714   2.149
 1740SOL    HW2  876   3.004   1.732   2.014
 1742SOL     OW  877   3.494   1.377   1.943
 1742SOL    HW1  878   3.462   1.471   1.933
 1742SOL    HW2  879   3.418   1.314   1.931
 1743SOL     OW  880   2.326   1.743   2.185
 1743SOL    HW1  881   2.359   1.782   2.271
 1743SOL    HW2  882   2.402   1.736   2.120
 1745SOL     OW  883   2.111   1.785   3.103
 1745SOL    HW1  884   2.168   1.720   3.153
 1745SOL    HW2  885   2.095   1.752   3.010
 1746SOL     OW  886   2.802   1.698   2.766
 1746SOL    HW1  887   2.882   1.641   2.787
 1746SOL    HW2  888   2.753   1.658   2.689
 1747SOL     OW  889   2.244   0.700   2.342
 1747SOL    HW1  890   2.289   0.610   2.339
 1747SOL    HW2  891   2.150   0.689   2.375
 1751SOL     OW  892   2.750   1.514   3.057
 1751SOL    HW1  893   2.727   1.489   2.963
 1751SOL    HW2  894   2.811   1.445   3.096
 1753SOL     OW  895   2.665   1.402   2.786
 1753SOL    HW1  896   2.755   1.416   2.744
 1753SOL    HW2  897   2.594   1.404   2.715
 1756SOL     OW  898   3.296   1.188   1.903
 1756SOL    HW1  899   3.328   1.112   1.960
 1756SOL    HW2  900   3.204   1.215   1.933
 1760SOL     OW  901   3.089   1.570   2.655
 1760SOL    HW1  902   3.110   1.644   2.590
 1760SOL    HW2  903   3.157   1.570   2.728
 1761SOL     OW  904   2.321   1.152   2.603
 1761SOL    HW1  905   2.250   1.125   2.668
 1761SOL    HW2  906   2.295   1.124   2.510
 1762SOL     OW  907   3.133   1.797   2.453
 1762SOL    HW1  908   3.177   1.861   2.389
 1762SOL    HW2  909   3.083   1.849   2.523
 1768SOL     OW  910   3.291   1.173   2.729
 1768SOL    HW1  911   3.236   1.089   2.722
 1768SOL    HW2  912   3.317   1.202   2.637
 1771SOL     OW  913   2.350   1.385   2.036
 1771SOL    HW1  914   2.263   1.370   2.083
 1771SOL    HW2  915   2.333   1.411   1.941
 1772SOL     OW  916   3.526   1.280   2.519
 1772SOL    HW1  917   3.625   1.288   2.533
 1772SOL    HW2  918   3.481   1.364   2.550
 1776SOL     OW  919   2.926   1.347   3.202
 1776SOL    HW1  920   2.846   1.324   3.257
 1776SOL    HW2  921   3.009   1.321   3.251
 1777SOL     OW  922   3.454   1.629   3.487
 1777SOL    HW1  923   3.481   1.663   3.397
 1777SOL    HW2  924   3.533   1.591   3.533
 1778SOL     OW  925   2.973   1.195   2.962
 1778SOL    HW1  926   2.933   1.239   3.043
 1778SOL    HW2  927   2.932   1.232   2.879
 1779SOL     OW  928   3.500   1.099   2.941
 1779SOL    HW1  929   3.505   1.180   3.000
 1779SOL    HW2  930   3.414   1.101   2.890
 1781SOL     OW  931   2.842   1.116   3.581
 1781SOL    HW1  932   2.743   1.122   3.591
 1781SOL    HW2  933   2.865   1.036   3.525
 1782SOL     OW  934   2.567   1.050   2.230
 1782SOL    HW1  935   2.553   1.057   2.329
 1782SOL    HW2  936   2.651   0.999   2.212
 1783SOL     OW  937   2.272   0.813   3.113
 1783SOL    HW1  938   2.358   0.825   3.163
 1783SOL    HW2  939   2.230   0.726   3.140
 1785SOL     OW  940   1.926   1.564   3.193
 1785SOL    HW1  941   1.880   1.646   3.159
 1785SOL    HW2  942   2.024   1.583   3.202
 1786SOL     OW  943   2.229   1.100   2.363
 1786SOL    HW1  944   2.222   1.183   2.307
 1786SOL    HW2  945   2.233   1.020   2.303
 1788SOL     OW  946   3.114   1.348   2.250
 1788SOL    HW1  947   3.164   1.425   2.290
 1788SOL    HW2  948   3.019   1.350   2.282
 1789SOL     OW  949   3.134   1.445   3.004
 1789SOL    HW1  950   3.181   1.458   3.091
 1789SOL    HW2  951   3.068   1.371   3.013
 1791SOL     OW  952   2.216   1.510   3.191
 1791SOL    HW1  953   2.195   1.466   3.104
 1791SOL    HW2  954   2.313   1.536   3.194
 1796SOL     OW  955   2.435   0.870   2.891
 1796SOL    HW1  956   2.479   0.959   2.882
 1796SOL    HW2  957   2.372   0.870   2.968
 1800SOL     OW  958   1.899   1.310   3.144
 1800SOL    HW1  959   1.952   1.261   3.212
 1800SOL    HW2  960   1.921   1.408   3.149
 1805SOL     OW  961   2.885   0.766   2.828
 1805SOL    HW1  962   2.900   0.787   2.924
 1805SOL    HW2  963   2.855   0.671   2.819
 1806SOL     OW  964   2.842   1.573   3.562
 1806SOL    HW1  965   2.822   1.617   3.474
 1806SOL    HW2  966   2.881   1.482   3.546
 1811SOL     OW  967   2.930   1.333   2.711
 1811SOL    HW1  968   2.937   1.249   2.656
 1811SOL    HW2  969   2.992   1.402   2.675
 1812SOL     OW  970   2.181   0.810   2.811
 1812SOL    HW1  971   2.274   0.846   2.816
 1812SOL    HW2  972   2.175   0.725   2.863
 1816SOL     OW  973   1.870   1.326   2.062
 1816SOL    HW1  974   1.777   1.347   2.031
 1816SOL    HW2  975   1.880   1.227   2.075
 1817SOL     OW  976   1.950   1.801   2.789
 1817SOL    HW1  977   1.908   1.715   2.762
 1817SOL    HW2  978   2.044   1.804   2.755
 1818SOL     OW  979   2.366   1.568   2.772
 1818SOL    HW1  980   2.432   1.642   2.781
 1818SOL    HW2  981   2.410   1.489   2.730
 1825SOL     OW  982   2.114   1.564   3.606
 1825SOL    HW1  983   2.084   1.621   3.682
 1825SOL    HW2  984   2.107   1.467   3.632
 1827SOL     OW  985   2.792   1.678   3.327
 1827SOL    HW1  986   2.768   1.660   3.232
 1827SOL    HW2  987   2.822   1.772   3.337
 1829SOL     OW  988   2.021   1.137   3.328
 1829SOL    HW1  989   2.043   1.076   3.404
 1829SOL    HW2  990   2.031   1.088   3.242
 1830SOL     OW  991   3.209   1.059   3.096
 1830SOL    HW1  992   3.233   0.996   3.022
 1830SOL    HW2  993   3.119   1.099   3.078
 1831SOL     OW  994   3.164   0.855   2.171
 1831SOL    HW1  995   3.078   0.824   2.213
 1831SOL    HW2  996   3.160   0.841   2.072
 1832SOL     OW  997   3.621   1.747   3.016
 1832SOL    HW1  998   3.682   1.777   2.943
 1832SOL    HW2  999   3.583   1.658   2.994
 1833SOL     OW 1000   3.114   1.731   2.990
 1833SOL    HW1 1001   3.198   1.736   2.936
 1833SOL    HW2 1002   3.091   1.635   3.008
 1834SOL     OW 1003   1.945   1.258   2.884
 1834SOL    HW1 1004   1.940   1.257   2.984
 1834SOL    HW2 1005   1.862   1.217   2.846
 1835SOL     OW 1006   2.550   1.662   3.578
 1835SOL    HW1 1007   2.494   1.743   3.587
 1835SOL    HW2 1008   2.602   1.666   3.492
 1837SOL     OW 1009   3.250   1.573   2.339
 1837SOL    HW1 1010   3.317   1.585   2.265
 1837SOL    HW2 1011   3.210   1.662   2.362
 1838SOL     OW 1012   1.992   1.794   3.713
 1838SOL    HW1 1013   1.951   1.720   3.766
 1838SOL    HW2 1014   2.056   1.845   3.771
 1839SOL     OW 1015   3.142   0.927   2.534
 1839SOL    HW1 1016   3.202   0.846   2.536
 1839SOL    HW2 1017   3.182   0.996   2.474
 1840SOL     OW 1018   2.692   1.273   3.284
 1840SOL    HW1 1019   2.687   1.306   3.379
 1840SOL    HW2 1020   2.606   1.292   3.238
 1841SOL     OW 1021   2.534   1.616   2.016
 1841SOL    HW1 1022   2.543   1.626   1.917
 1841SOL    HW2 1023   2.494   1.527   2.037
 1842SOL     OW 1024   3.512   1.720   3.256
 1842SOL    HW1 1025   3.565   1.730   3.172
 1842SOL    HW2 1026   3.485   1.810   3.290
 1845SOL     OW 1027   3.056   1.612   1.893
 1845SOL    HW1 1028   3.062   1.519   1.930
 1845SOL    HW2 1029   2.997   1.612   1.813
 1846SOL     OW 1030   2.684   1.002   3.234
 1846SOL    HW1 1031   2.724   1.001   3.142
 1846SOL    HW2 1032   2.694   1.094   3.274
 1847SOL     OW 1033   2.778   0.910   2.153
 1847SOL    HW1 1034   2.841   0.948   2.085
 1847SOL    HW2 1035   2.818   0.827   2.192
 1848SOL     OW 1036   3.366   1.607   1.906
 1848SOL    HW1 1037   3.274   1.644   1.913
 1848SOL    HW2 1038   3.404   1.627   1.816
 1849SOL     OW 1039   2.234   1.288   3.352
 1849SOL    HW1 1040   2.221   1.381   3.318
 1849SOL    HW2 1041   2.150   1.236   3.339
 1850SOL     OW 1042   3.476   1.292   3.151
 1850SOL    HW1 1043   3.536   1.295   3.231
 1850SOL    HW2 1044   3.401   1.356   3.164
 1851SOL     OW 1045   2.901   1.098   2.558
 1851SOL    HW1 1046   2.831   1.051   2.612
 1851SOL    HW2 1047   2.960   1.030   2.515
 1853SOL     OW 1048   2.452   1.487   2.353
 1853SOL    HW1 1049   2.494   1.429   2.283
 1853SOL    HW2 1050   2.408   1.566   2.309
 1855SOL     OW 1051   2.117   1.348   2.152
 1855SOL    HW1 1052   2.021   1.349   2.125
 1855SOL    HW2 1053   2.129   1.401   2.236
 1861SOL     OW 1054   3.045   1.335   1.981
 1861SOL    HW1 1055   2.946   1.324   1.983
 1861SOL    HW2 1056   3.079   1.350   2.074
 1863SOL     OW 1057   3.355   1.767   2.821
 1863SOL    HW1 1058   3.388   1.831   2.752
 1863SOL    HW2 1059   3.421   1.761   2.896
 1866SOL     OW 1060   2.252   1.741   3.422
 1866SOL    HW1 1061   2.161   1.782   3.420
 1866SOL    HW2 1062   2.245   1.647   3.454
 1869SOL     OW 1063   2.456   0.745   2.514
 1869SOL    HW1 1064   2.506   0.830   2.495
 1869SOL    HW2 1065   2.368   0.747   2.466
 1872SOL     OW 1066   2.721   1.374   1.878
 1872SOL    HW1 1067   2.675   1.389   1.966
 1872SOL    HW2 1068   2.765   1.459   1.848
 1873SOL     OW 1069   2.523   1.790   2.815
 1873SOL    HW1 1070   2.477   1.878   2.802
 1873SOL    HW2 1071   2.622   1.802   2.808
 1874SOL     OW 1072   2.721   0.956   2.723
 1874SOL    HW1 1073   2.775   0.887   2.771
 1874SOL    HW2 1074   2.689   1.025   2.789
 1875SOL     OW 1075   2.945   0.984   1.949
 1875SOL    HW1 1076   2.922   1.037   1.867
 1875SOL    HW2 1077   3.026   0.928   1.930
 1876SOL     OW 1078   3.723   1.569   2.713
 1876SOL    HW1 1079   3.652   1.557   2.643
 1876SOL    HW2 1080   3.724   1.490   2.773
 1877SOL     OW 1081   2.083   1.314   3.706
 1877SOL    HW1 1082   2.018   1.241   3.685
 1877SOL    HW2 1083   2.087   1.328   3.804
 1878SOL     OW 1084   1.941   1.240   2.515
 1878SOL    HW1 1085   1.940   1.193   2.603
 1878SOL    HW2 1086   2.023   1.212   2.464
 1879SOL     OW 1087   2.534   1.391   3.486
 1879SOL    HW1 1088   2.456   1.341   3.524
 1879SOL    HW2 1089   2.531   1.486   3.517
 1882SOL     OW 1090   3.567   1.487   2.966
 1882SOL    HW1 1091   3.474   1.462   2.939
 1882SOL    HW2 1092   3.593   1.437   3.048
 1884SOL     OW 1093   2.674   1.586   2.549
 1884SOL    HW1 1094   2.706   1.596   2.455
 1884SOL    HW2 1095   2.595   1.524   2.551
 1887SOL     OW 1096   2.632   1.330   2.163
 1887SOL    HW1 1097   2.586   1.243   2.180
 1887SOL    HW2 1098   2.723   1.327   2.204
 1888SOL     OW 1099   2.480   1.567   3.146
 1888SOL    HW1 1100   2.475   1.649   3.203
 1888SOL    HW2 1101   2.569   1.564   3.101
 1892SOL     OW 1102   1.901   1.077   2.162
 1892SOL    HW1 1103   2.000   1.066   2.153
 1892SOL    HW2 1104   1.861   0.991   2.194
 1893SOL     OW 1105   2.737   1.646   2.199
 1893SOL    HW1 1106   2.660   1.611   2.145
 1893SOL    HW2 1107   2.705   1.717   2.261
 1910SOL     OW 1108   1.889   1.596   3.841
 1910SOL    HW1 1109   1.870   1.500   3.862
 1910SOL    HW2 1110   1.856   1.654   3.916
 1932SOL     OW 1111   2.973   1.776   3.961
 1932SOL    HW1 1112   2.913   1.714   4.011
 1932SOL    HW2 1113   3.004   1.732   3.876
 1934SOL     OW 1114   2.326   1.743   4.047
 1934SOL    HW1 1115   2.359   1.782   4.133
 1934SOL    HW2 1116   2.402   1.736   3.982
 1955SOL     OW 1117   2.350   1.385   3.898
 1955SOL    HW1 1118   2.263   1.370   3.945
 1955SOL    HW2 1119   2.333   1.411   3.803
 1993SOL     OW 1120   2.534   1.616   3.878
 1993SOL    HW1 1121   2.543   1.626   3.779
 1993SOL    HW2 1122   2.494   1.527   3.899
 1996SOL     OW 1123   3.056   1.612   3.755
 1996SOL    HW1 1124   3.062   1.519   3.792
 1996SOL    HW2 1125   2.997   1.612   3.675
 2010SOL     OW 1126   2.721   1.374   3.740
 2010SOL    HW1 1127   2.675   1.389   3.828
 2010SOL    HW2 1128   2.765   1.459   3.710
 2027SOL     OW 1129   2.087   2.137   0.996
 2027SOL    HW1 1130   2.122   2.120   1.088
 2027SOL    HW2 1131   1.999   2.092   0.984
 2029SOL     OW 1132   2.431   3.137   1.165
 2029SOL    HW1 1133   2.338   3.130   1.128
 2029SOL    HW2 1134   2.442   3.226   1.209
 2033SOL     OW 1135   2.630   3.006   1.023
 2033SOL    HW1 1136   2.552   3.023   1.083
 2033SOL    HW2 1137   2.664   3.093   0.987
 2034SOL     OW 1138   2.712   2.660   1.823
 2034SOL    HW1 1139   2.708   2.736   1.888
 2034SOL    HW2 1140   2.734   2.696   1.732
 2036SOL     OW 1141   2.548   3.023   1.803
 2036SOL    HW1 1142   2.608   3.102   1.817
 2036SOL    HW2 1143   2.462   3.054   1.762
 2037SOL     OW 1144   2.197   3.297   1.061
 2037SOL    HW1 1145   2.119   3.266   1.008
 2037SOL    HW2 1146   2.255   3.355   1.004
 2038SOL     OW 1147   3.322   3.367   1.339
 2038SOL    HW1 1148   3.346   3.461   1.365
 2038SOL    HW2 1149   3.306   3.313   1.421
 2039SOL     OW 1150   2.300   2.254   1.499
 2039SOL    HW1 1151   2.382   2.198   1.508
 2039SOL    HW2 1152   2.219   2.196   1.503
 2042SOL     OW 1153   2.989   3.203   1.690
 2042SOL    HW1 1154   3.036   3.203   1.778
 2042SOL    HW2 1155   2.941   3.116   1.679
 2044SOL     OW 1156   2.102   2.953   0.886
 2044SOL    HW1 1157   2.116   2.869   0.938
 2044SOL    HW2 1158   2.047   3.017   0.941
 2045SOL     OW 1159   2.482   3.648   1.439
 2045SOL    HW1 1160   2.390   3.631   1.474
 2045SOL    HW2 1161   2.510   3.740   1.465
 2047SOL     OW 1162   3.456   1.976   1.480
 2047SOL    HW1 1163   3.438   2.043   1.408
 2047SOL    HW2 1164   3.453   2.022   1.569
 2053SOL     OW 1165   1.975   2.599   1.597
 2053SOL    HW1 1166   2.063   2.586   1.642
 2053SOL    HW2 1167   1.962   2.696   1.575
 2055SOL     OW 1168   3.155   3.090   1.423
 2055SOL    HW1 1169   3.192   3.017   1.365
 2055SOL    HW2 1170   3.207   3.095   1.508
 2057SOL     OW 1171   2.059   2.838   1.264
 2057SOL    HW1 1172   2.148   2.793   1.250
 2057SOL    HW2 1173   1.986   2.773   1.245
 2059SOL     OW 1174   3.049   3.654   1.616
 2059SOL    HW1 1175   3.073   3.714   1.540
 2059SOL    HW2 1176   3.056   3.559   1.586
 2060SOL     OW 1177   2.179   2.113   1.801
 2060SOL    HW1 1178   2.250   2.184   1.807
 2060SOL    HW2 1179   2.091   2.152   1.829
 2064SOL     OW 1180   3.143   2.207   0.944
 2064SOL    HW1 1181   3.057   2.157   0.931
 2064SOL    HW2 1182   3.205   2.153   1.000
 2066SOL     OW 1183   2.669   2.467   1.465
 2066SOL    HW1 1184   2.622   2.464   1.554
 2066SOL    HW2 1185   2.618   2.412   1.399
 2067SOL     OW 1186   3.256   2.331   1.674
 2067SOL    HW1 1187   3.236   2.374   1.762
 2067SOL    HW2 1188   3.334   2.269   1.683
 2068SOL     OW 1189   2.835   2.752   1.572
 2068SOL    HW1 1190   2.881   2.668   1.543
 2068SOL    HW2 1191   2.779   2.786   1.497
 2069SOL     OW 1192   2.853   2.272   1.242
 2069SOL    HW1 1193   2.776   2.306   1.296
 2069SOL    HW2 1194   2.819   2.221   1.163
 2071SOL     OW 1195   1.938   2.673   0.789
 2071SOL    HW1 1196   2.037   2.661   0.798
 2071SOL    HW2 1197   1.914   2.768   0.810
 2072SOL     OW 1198   1.992   3.683   1.571
 2072SOL    HW1 1199   1.982   3.668   1.670
 2072SOL    HW2 1200   1.906   3.719   1.535
 2074SOL     OW 1201   3.581   2.447   1.831
 2074SOL    HW1 1202   3.555   2.536   1.795
 2074SOL    HW2 1203   3.579   2.379   1.758
 2076SOL     OW 1204   2.412   2.058   0.885
 2076SOL    HW1 1205   2.407   2.053   0.985
 2076SOL    HW2 1206   2.414   2.154   0.856
 2080SOL     OW 1207   3.089   3.412   1.506
 2080SOL    HW1 1208   3.095   3.335   1.570
 2080SOL    HW2 1209   3.037   3.386   1.426
 2083SOL     OW 1210   2.323   3.128   1.727
 2083SOL    HW1 1211   2.273   3.129   1.641
 2083SOL    HW2 1212   2.260   3.110   1.803
 2085SOL     OW 1213   2.064   2.147   1.498
 2085SOL    HW1 1214   1.984   2.207   1.485
 2085SOL    HW2 1215   2.054   2.098   1.584
 2089SOL     OW 1216   2.111   3.647   1.241
 2089SOL    HW1 1217   2.168   3.582   1.291
 2089SOL    HW2 1218   2.095   3.614   1.148
 2092SOL     OW 1219   3.409   2.084   1.729
 2092SOL    HW1 1220   3.404   2.121   1.821
 2092SOL    HW2 1221   3.337   2.015   1.717
 2094SOL     OW 1222   2.643   2.126   1.749
 2094SOL    HW1 1223   2.710   2.065   1.792
 2094SOL    HW2 1224   2.570   2.145   1.814
 2095SOL     OW 1225   2.750   3.376   1.195
 2095SOL    HW1 1226   2.727   3.351   1.101
 2095SOL    HW2 1227   2.811   3.307   1.234
 2096SOL     OW 1228   3.213   2.452   1.433
 2096SOL    HW1 1229   3.241   2.409   1.518
 2096SOL    HW2 1230   3.238   2.548   1.434
 2097SOL     OW 1231   2.665   3.264   0.924
 2097SOL    HW1 1232   2.755   3.278   0.882
 2097SOL    HW2 1233   2.594   3.266   0.853
 2098SOL     OW 1234   2.784   2.365   0.899
 2098SOL    HW1 1235   2.759   2.356   0.803
 2098SOL    HW2 1236   2.832   2.283   0.930
 2102SOL     OW 1237   2.938   2.545   1.464
 2102SOL    HW1 1238   2.858   2.484   1.467
 2102SOL    HW2 1239   3.019   2.492   1.440
 2107SOL     OW 1240   1.940   2.418   1.386
 2107SOL    HW1 1241   2.032   2.417   1.345
 2107SOL    HW2 1242   1.934   2.492   1.453
 2108SOL     OW 1243   2.423   2.084   1.147
 2108SOL    HW1 1244   2.461   2.000   1.184
 2108SOL    HW2 1245   2.335   2.103   1.191
 2112SOL     OW 1246   3.328   2.452   0.992
 2112SOL    HW1 1247   3.298   2.357   0.999
 2112SOL    HW2 1248   3.401   2.468   1.058
 2118SOL     OW 1249   3.616   3.085   1.588
 2118SOL    HW1 1250   3.707   3.046   1.575
 2118SOL    HW2 1251   3.624   3.181   1.612
 2119SOL     OW 1252   2.926   3.209   1.340
 2119SOL    HW1 1253   2.846   3.186   1.395
 2119SOL    HW2 1254   3.009   3.183   1.389
 2120SOL     OW 1255   3.454   3.491   1.625
 2120SOL    HW1 1256   3.481   3.525   1.535
 2120SOL    HW2 1257   3.533   3.453   1.671
 2121SOL     OW 1258   2.973   3.057   1.100
 2121SOL    HW1 1259   2.933   3.101   1.181
 2121SOL    HW2 1260   2.932   3.094   1.017
 2123SOL     OW 1261   2.777   1.951   1.402
 2123SOL    HW1 1262   2.802   1.931   1.307
 2123SOL    HW2 1263   2.849   2.007   1.444
 2124SOL     OW 1264   2.842   2.978   1.719
 2124SOL    HW1 1265   2.743   2.984   1.729
 2124SOL    HW2 1266   2.865   2.898   1.663
 2126SOL     OW 1267   2.272   2.675   1.251
 2126SOL    HW1 1268   2.358   2.687   1.301
 2126SOL    HW2 1269   2.230   2.588   1.278
 2127SOL     OW 1270   3.136   2.248   1.262
 2127SOL    HW1 1271   3.157   2.322   1.326
 2127SOL    HW2 1272   3.047   2.265   1.219
 2128SOL     OW 1273   1.926   3.426   1.331
 2128SOL    HW1 1274   1.880   3.508   1.297
 2128SOL    HW2 1275   2.024   3.445   1.340
 2130SOL     OW 1276   2.428   2.399   0.865
 2130SOL    HW1 1277   2.440   2.465   0.791
 2130SOL    HW2 1278   2.474   2.433   0.948
 2132SOL     OW 1279   3.134   3.307   1.142
 2132SOL    HW1 1280   3.181   3.320   1.229
 2132SOL    HW2 1281   3.068   3.233   1.151
 2134SOL     OW 1282   2.216   3.372   1.329
 2134SOL    HW1 1283   2.195   3.328   1.242
 2134SOL    HW2 1284   2.313   3.398   1.332
 2135SOL     OW 1285   2.264   2.613   1.598
 2135SOL    HW1 1286   2.332   2.668   1.551
 2135SOL    HW2 1287   2.304   2.525   1.625
 2136SOL     OW 1288   3.449   2.641   1.670
 2136SOL    HW1 1289   3.357   2.679   1.665
 2136SOL    HW2 1290   3.509   2.688   1.605
 2137SOL     OW 1291   2.875   1.967   1.770
 2137SOL    HW1 1292   2.881   2.052   1.718
 2137SOL    HW2 1293   2.907   1.891   1.713
 2138SOL     OW 1294   2.366   1.912   1.740
 2138SOL    HW1 1295   2.324   1.855   1.670
 2138SOL    HW2 1296   2.300   1.981   1.772
 2139SOL     OW 1297   2.435   2.732   1.029
 2139SOL    HW1 1298   2.479   2.821   1.020
 2139SOL    HW2 1299   2.372   2.732   1.106
 2140SOL     OW 1300   3.222   2.724   1.045
 2140SOL    HW1 1301   3.147   2.724   0.979
 2140SOL    HW2 1302   3.259   2.632   1.054
 2142SOL     OW 1303   2.169   2.075   1.231
 2142SOL    HW1 1304   2.146   2.112   1.321
 2142SOL    HW2 1305   2.139   1.980   1.225
 2143SOL     OW 1306   1.899   3.172   1.282
 2143SOL    HW1 1307   1.952   3.123   1.350
 2143SOL    HW2 1308   1.921   3.270   1.287
 2144SOL     OW 1309   2.594   2.496   1.064
 2144SOL    HW1 1310   2.653   2.470   0.988
 2144SOL    HW2 1311   2.566   2.592   1.053
 2145SOL     OW 1312   3.590   2.797   1.854
 2145SOL    HW1 1313   3.544   2.790   1.765
 2145SOL    HW2 1314   3.528   2.841   1.920
 2148SOL     OW 1315   2.885   2.628   0.966
 2148SOL    HW1 1316   2.900   2.649   1.062
 2148SOL    HW2 1317   2.855   2.533   0.957
 2149SOL     OW 1318   2.842   3.435   1.700
 2149SOL    HW1 1319   2.822   3.479   1.612
 2149SOL    HW2 1320   2.881   3.344   1.684
 2150SOL     OW 1321   3.721   3.380   1.605
 2150SOL    HW1 1322   3.735   3.407   1.510
 2150SOL    HW2 1323   3.804   3.402   1.658
 2151SOL     OW 1324   2.212   2.760   1.804
 2151SOL    HW1 1325   2.288   2.804   1.852
 2151SOL    HW2 1326   2.247   2.713   1.722
 2155SOL     OW 1327   2.181   2.672   0.949
 2155SOL    HW1 1328   2.274   2.708   0.954
 2155SOL    HW2 1329   2.175   2.587   1.001
 2156SOL     OW 1330   2.201   2.371   1.006
 2156SOL    HW1 1331   2.149   2.288   0.989
 2156SOL    HW2 1332   2.278   2.376   0.942
 2157SOL     OW 1333   3.000   2.242   1.678
 2157SOL    HW1 1334   2.955   2.305   1.742
 2157SOL    HW2 1335   3.093   2.273   1.661
 2158SOL     OW 1336   3.022   2.069   1.477
 2158SOL    HW1 1337   3.022   2.133   1.554
 2158SOL    HW2 1338   3.050   2.117   1.394
 2162SOL     OW 1339   2.864   2.658   1.238
 2162SOL    HW1 1340   2.905   2.626   1.324
 2162SOL    HW2 1341   2.768   2.631   1.235
 2163SOL     OW 1342   1.902   2.406   1.114
 2163SOL    HW1 1343   1.987   2.373   1.073
 2163SOL    HW2 1344   1.915   2.421   1.212
 2164SOL     OW 1345   2.051   2.382   1.722
 2164SOL    HW1 1346   2.110   2.342   1.652
 2164SOL    HW2 1347   1.993   2.453   1.681
 2165SOL     OW 1348   3.231   2.812   1.660
 2165SOL    HW1 1349   3.270   2.901   1.680
 2165SOL    HW2 1350   3.241   2.792   1.563
 2167SOL     OW 1351   3.519   2.466   1.206
 2167SOL    HW1 1352   3.481   2.397   1.268
 2167SOL    HW2 1353   3.601   2.430   1.162
 2168SOL     OW 1354   2.114   3.426   1.744
 2168SOL    HW1 1355   2.084   3.483   1.820
 2168SOL    HW2 1356   2.107   3.329   1.770
 2169SOL     OW 1357   2.533   2.326   1.269
 2169SOL    HW1 1358   2.499   2.237   1.239
 2169SOL    HW2 1359   2.559   2.380   1.189
 2170SOL     OW 1360   2.792   3.540   1.465
 2170SOL    HW1 1361   2.768   3.522   1.370
 2170SOL    HW2 1362   2.822   3.634   1.475
 2172SOL     OW 1363   2.021   2.999   1.466
 2172SOL    HW1 1364   2.043   2.938   1.542
 2172SOL    HW2 1365   2.031   2.950   1.380
 2173SOL     OW 1366   3.209   2.921   1.234
 2173SOL    HW1 1367   3.233   2.858   1.160
 2173SOL    HW2 1368   3.119   2.961   1.216
 2177SOL     OW 1369   1.945   3.120   1.022
 2177SOL    HW1 1370   1.940   3.119   1.122
 2177SOL    HW2 1371   1.862   3.079   0.984
 2178SOL     OW 1372   2.550   3.524   1.716
 2178SOL    HW1 1373   2.494   3.605   1.725
 2178SOL    HW2 1374   2.602   3.528   1.630
 2182SOL     OW 1375   1.992   3.656   1.851
 2182SOL    HW1 1376   1.951   3.582   1.904
 2182SOL    HW2 1377   2.056   3.707   1.909
 2184SOL     OW 1378   2.692   3.135   1.422
 2184SOL    HW1 1379   2.687   3.168   1.517
 2184SOL    HW2 1380   2.606   3.154   1.376
 2188SOL     OW 1381   2.125   2.188   0.720
 2188SOL    HW1 1382   2.046   2.239   0.686
 2188SOL    HW2 1383   2.116   2.173   0.818
 2190SOL     OW 1384   2.684   2.864   1.372
 2190SOL    HW1 1385   2.724   2.863   1.280
 2190SOL    HW2 1386   2.694   2.956   1.412
 2193SOL     OW 1387   2.234   3.150   1.490
 2193SOL    HW1 1388   2.221   3.243   1.456
 2193SOL    HW2 1389   2.150   3.098   1.477
 2194SOL     OW 1390   3.476   3.154   1.289
 2194SOL    HW1 1391   3.536   3.157   1.369
 2194SOL    HW2 1392   3.401   3.218   1.302
 2196SOL     OW 1393   2.876   2.098   0.971
 2196SOL    HW1 1394   2.868   2.062   0.878
 2196SOL    HW2 1395   2.874   2.022   1.036
 2198SOL     OW 1396   3.571   2.247   1.381
 2198SOL    HW1 1397   3.644   2.316   1.385
 2198SOL    HW2 1398   3.599   2.172   1.322
 2200SOL     OW 1399   1.967   2.875   1.726
 2200SOL    HW1 1400   1.890   2.842   1.780
 2200SOL    HW2 1401   2.052   2.845   1.768
 2201SOL     OW 1402   2.534   2.065   1.489
 2201SOL    HW1 1403   2.624   2.049   1.449
 2201SOL    HW2 1404   2.542   2.070   1.588
 2202SOL     OW 1405   3.302   2.718   1.398
 2202SOL    HW1 1406   3.245   2.770   1.335
 2202SOL    HW2 1407   3.398   2.730   1.374
 2205SOL     OW 1408   2.475   2.704   1.431
 2205SOL    HW1 1409   2.531   2.785   1.414
 2205SOL    HW2 1410   2.534   2.624   1.434
 2207SOL     OW 1411   2.578   2.427   1.708
 2207SOL    HW1 1412   2.597   2.492   1.782
 2207SOL    HW2 1413   2.638   2.347   1.717
 2208SOL     OW 1414   3.312   3.082   1.633
 2208SOL    HW1 1415   3.303   3.072   1.732
 2208SOL    HW2 1416   3.408   3.075   1.607
 2209SOL     OW 1417   2.252   3.603   1.560
 2209SOL    HW1 1418   2.161   3.644   1.558
 2209SOL    HW2 1419   2.245   3.509   1.592
 2210SOL     OW 1420   3.536   2.745   1.254
 2210SOL    HW1 1421   3.509   2.656   1.217
 2210SOL    HW2 1422   3.537   2.813   1.181
 2213SOL     OW 1423   3.639   2.204   1.642
 2213SOL    HW1 1424   3.622   2.235   1.548
 2213SOL    HW2 1425   3.555   2.167   1.680
 2214SOL     OW 1426   3.592   2.796   1.517
 2214SOL    HW1 1427   3.630   2.887   1.532
 2214SOL    HW2 1428   3.584   2.779   1.418
 2217SOL     OW 1429   2.721   2.818   0.861
 2217SOL    HW1 1430   2.775   2.749   0.909
 2217SOL    HW2 1431   2.689   2.887   0.927
 2220SOL     OW 1432   2.083   3.176   1.844
 2220SOL    HW1 1433   2.018   3.103   1.823
 2220SOL    HW2 1434   2.087   3.190   1.942
 2222SOL     OW 1435   2.534   3.253   1.624
 2222SOL    HW1 1436   2.456   3.203   1.662
 2222SOL    HW2 1437   2.531   3.348   1.655
 2223SOL     OW 1438   3.686   2.054   1.227
 2223SOL    HW1 1439   3.682   1.964   1.271
 2223SOL    HW2 1440   3.689   2.043   1.128
 2226SOL     OW 1441   2.179   2.409   1.280
 2226SOL    HW1 1442   2.217   2.350   1.352
 2226SOL    HW2 1443   2.219   2.383   1.192
 2228SOL     OW 1444   3.286   2.076   1.112
 2228SOL    HW1 1445   3.338   2.011   1.167
 2228SOL    HW2 1446   3.237   2.139   1.173
 2229SOL     OW 1447   2.863   1.896   1.154
 2229SOL    HW1 1448   2.800   1.824   1.123
 2229SOL    HW2 1449   2.956   1.860   1.154
 2231SOL     OW 1450   2.480   3.429   1.284
 2231SOL    HW1 1451   2.475   3.511   1.341
 2231SOL    HW2 1452   2.569   3.426   1.239
 2237SOL     OW 1453   2.092   2.490   1.975
 2237SOL    HW1 1454   1.999   2.488   2.012
 2237SOL    HW2 1455   2.093   2.451   1.883
 2238SOL     OW 1456   2.087   2.137   2.858
 2238SOL    HW1 1457   2.122   2.120   2.950
 2238SOL    HW2 1458   1.999   2.092   2.846
 2239SOL     OW 1459   1.881   2.230   2.509
 2239SOL    HW1 1460   1.799   2.273   2.548
 2239SOL    HW2 1461   1.853   2.157   2.446
 2240SOL     OW 1462   2.431   3.137   3.027
 2240SOL    HW1 1463   2.338   3.130   2.990
 2240SOL    HW2 1464   2.442   3.226   3.071
 2241SOL     OW 1465   3.417   3.373   2.565
 2241SOL    HW1 1466   3.360   3.357   2.646
 2241SOL    HW2 1467   3.358   3.383   2.485
 2242SOL     OW 1468   2.997   2.565   2.579
 2242SOL    HW1 1469   3.054   2.643   2.554
 2242SOL    HW2 1470   2.937   2.591   2.655
 2243SOL     OW 1471   3.617   2.469   2.093
 2243SOL    HW1 1472   3.605   2.456   1.994
 2243SOL    HW2 1473   3.587   2.388   2.142
 2244SOL     OW 1474   2.630   3.006   2.885
 2244SOL    HW1 1475   2.552   3.023   2.945
 2244SOL    HW2 1476   2.664   3.093   2.849
 2245SOL     OW 1477   2.712   2.660   3.685
 2245SOL    HW1 1478   2.708   2.736   3.750
 2245SOL    HW2 1479   2.734   2.696   3.594
 2246SOL     OW 1480   2.547   2.874   2.527
 2246SOL    HW1 1481   2.616   2.858   2.597
 2246SOL    HW2 1482   2.474   2.931   2.565
 2247SOL     OW 1483   2.548   3.023   3.665
 2247SOL    HW1 1484   2.608   3.102   3.679
 2247SOL    HW2 1485   2.462   3.054   3.624
 2248SOL     OW 1486   2.197   3.297   2.923
 2248SOL    HW1 1487   2.119   3.266   2.870
 2248SOL    HW2 1488   2.255   3.355   2.866
 2249SOL     OW 1489   3.322   3.367   3.201
 2249SOL    HW1 1490   3.346   3.461   3.227
 2249SOL    HW2 1491   3.306   3.313   3.283
 2250SOL     OW 1492   2.300   2.254   3.361
 2250SOL    HW1 1493   2.382   2.198   3.370
 2250SOL    HW2 1494   2.219   2.196   3.365
 2251SOL     OW 1495   3.465   2.309   2.599
 2251SOL    HW1 1496   3.391   2.355   2.549
 2251SOL    HW2 1497   3.516   2.377   2.652
 2252SOL     OW 1498   2.093   3.575   2.345
 2252SOL    HW1 1499   2.127   3.652   2.399
 2252SOL    HW2 1500   2.137   3.575   2.255
 2253SOL     OW 1501   2.989   3.203   3.552
 2253SOL    HW1 1502   3.036   3.203   3.640
 2253SOL    HW2 1503   2.941   3.116   3.541
 2254SOL     OW 1504   2.092   3.296   2.400
 2254SOL    HW1 1505   2.066   3.392   2.400
 2254SOL    HW2 1506   2.021   3.242   2.445
 2255SOL     OW 1507   2.102   2.953   2.748
 2255SOL    HW1 1508   2.116   2.869   2.800
 2255SOL    HW2 1509   2.047   3.017   2.803
 2256SOL     OW 1510   2.482   3.648   3.301
 2256SOL    HW1 1511   2.390   3.631   3.336
 2256SOL    HW2 1512   2.510   3.740   3.327
 2257SOL     OW 1513   2.468   2.826   1.985
 2257SOL    HW1 1514   2.475   2.910   1.931
 2257SOL    HW2 1515   2.514   2.839   2.073
 2258SOL     OW 1516   3.456   1.976   3.342
 2258SOL    HW1 1517   3.438   2.043   3.270
 2258SOL    HW2 1518   3.453   2.022   3.431
 2259SOL     OW 1519   1.984   2.505   2.425
 2259SOL    HW1 1520   1.939   2.417   2.442
 2259SOL    HW2 1521   1.983   2.559   2.509
 2260SOL     OW 1522   3.704   3.629   2.221
 2260SOL    HW1 1523   3.758   3.600   2.301
 2260SOL    HW2 1524   3.734   3.719   2.192
 2261SOL     OW 1525   1.889   3.458   1.979
 2261SOL    HW1 1526   1.870   3.362   2.000
 2261SOL    HW2 1527   1.856   3.516   2.054
 2262SOL     OW 1528   3.551   2.784   2.474
 2262SOL    HW1 1529   3.646   2.755   2.482
 2262SOL    HW2 1530   3.543   2.849   2.399
 2263SOL     OW 1531   3.503   2.970   2.294
 2263SOL    HW1 1532   3.589   2.972   2.242
 2263SOL    HW2 1533   3.517   3.017   2.382
 2264SOL     OW 1534   1.975   2.599   3.459
 2264SOL    HW1 1535   2.063   2.586   3.504
 2264SOL    HW2 1536   1.962   2.696   3.437
 2265SOL     OW 1537   2.475   3.227   2.588
 2265SOL    HW1 1538   2.426   3.140   2.597
 2265SOL    HW2 1539   2.452   3.270   2.501
 2266SOL     OW 1540   3.155   3.090   3.285
 2266SOL    HW1 1541   3.192   3.017   3.227
 2266SOL    HW2 1542   3.207   3.095   3.370
 2267SOL     OW 1543   2.671   1.866   2.364
 2267SOL    HW1 1544   2.711   1.957   2.355
 2267SOL    HW2 1545   2.571   1.874   2.370
 2268SOL     OW 1546   2.059   2.838   3.126
 2268SOL    HW1 1547   2.148   2.793   3.112
 2268SOL    HW2 1548   1.986   2.773   3.107
 2269SOL     OW 1549   3.387   2.861   2.052
 2269SOL    HW1 1550   3.324   2.785   2.065
 2269SOL    HW2 1551   3.435   2.879   2.138
 2270SOL     OW 1552   3.049   3.654   3.478
 2270SOL    HW1 1553   3.073   3.714   3.402
 2270SOL    HW2 1554   3.056   3.559   3.448
 2271SOL     OW 1555   2.179   2.113   3.663
 2271SOL    HW1 1556   2.250   2.184   3.669
 2271SOL    HW2 1557   2.091   2.152   3.691
 2272SOL     OW 1558   3.328   3.279   2.815
 2272SOL    HW1 1559   3.269   3.285   2.895
 2272SOL    HW2 1560   3.313   3.191   2.769
 2273SOL     OW 1561   3.529   3.576   2.434
 2273SOL    HW1 1562   3.488   3.553   2.346
 2273SOL    HW2 1563   3.511   3.502   2.499
 2274SOL     OW 1564   3.143   2.207   2.806
 2274SOL    HW1 1565   3.057   2.157   2.793
 2274SOL    HW2 1566   3.205   2.153   2.862
 2275SOL     OW 1567   3.438   3.524   2.169
 2275SOL    HW1 1568   3.527   3.570   2.172
 2275SOL    HW2 1569   3.417   3.500   2.074
 2276SOL     OW 1570   2.669   2.467   3.327
 2276SOL    HW1 1571   2.622   2.464   3.416
 2276SOL    HW2 1572   2.618   2.412   3.261
 2277SOL     OW 1573   3.256   2.331   3.536
 2277SOL    HW1 1574   3.236   2.374   3.624
 2277SOL    HW2 1575   3.334   2.269   3.545
 2278SOL     OW 1576   2.835   2.752   3.434
 2278SOL    HW1 1577   2.881   2.668   3.405
 2278SOL    HW2 1578   2.779   2.786   3.359
 2279SOL     OW 1579   2.853   2.272   3.104
 2279SOL    HW1 1580   2.776   2.306   3.158
 2279SOL    HW2 1581   2.819   2.221   3.025
 2280SOL     OW 1582   2.903   2.563   2.291
 2280SOL    HW1 1583   2.929   2.559   2.387
 2280SOL    HW2 1584   2.818   2.512   2.277
 2281SOL     OW 1585   1.938   2.673   2.651
 2281SOL    HW1 1586   2.037   2.661   2.660
 2281SOL    HW2 1587   1.914   2.768   2.672
 2282SOL     OW 1588   1.992   3.683   3.433
 2282SOL    HW1 1589   1.982   3.668   3.532
 2282SOL    HW2 1590   1.906   3.719   3.397
 2283SOL     OW 1591   2.727   2.210   2.057
 2283SOL    HW1 1592   2.786   2.273   2.008
 2283SOL    HW2 1593   2.746   2.116   2.028
 2284SOL     OW 1594   3.581   2.447   3.693
 2284SOL    HW1 1595   3.555   2.536   3.657
 2284SOL    HW2 1596   3.579   2.379   3.620
 2285SOL     OW 1597   3.224   3.006   2.407
 2285SOL    HW1 1598   3.307   2.977   2.359
 2285SOL    HW2 1599   3.175   3.073   2.351
 2286SOL     OW 1600   2.870   3.318   2.339
 2286SOL    HW1 1601   2.824   3.390   2.287
 2286SOL    HW2 1602   2.866   3.338   2.437
 2287SOL     OW 1603   2.213   3.663   2.715
 2287SOL    HW1 1604   2.263   3.577   2.721
 2287SOL    HW2 1605   2.278   3.740   2.712
 2288SOL     OW 1606   3.657   2.928   2.735
 2288SOL    HW1 1607   3.595   2.913   2.659
 2288SOL    HW2 1608   3.605   2.939   2.820
 2289SOL     OW 1609   3.089   3.412   3.368
 2289SOL    HW1 1610   3.095   3.335   3.432
 2289SOL    HW2 1611   3.037   3.386   3.288
 2290SOL     OW 1612   3.320   2.597   2.590
 2290SOL    HW1 1613   3.315   2.532   2.665
 2290SOL    HW2 1614   3.400   2.656   2.603
 2291SOL     OW 1615   2.323   3.128   3.589
 2291SOL    HW1 1616   2.273   3.129   3.503
 2291SOL    HW2 1617   2.260   3.110   3.665
 2292SOL     OW 1618   2.973   3.638   2.099
 2292SOL    HW1 1619   2.913   3.576   2.149
 2292SOL    HW2 1620   3.004   3.594   2.014
 2293SOL     OW 1621   2.064   2.147   3.360
 2293SOL    HW1 1622   1.984   2.207   3.347
 2293SOL    HW2 1623   2.054   2.098   3.446
 2294SOL     OW 1624   3.494   3.239   1.943
 2294SOL    HW1 1625   3.462   3.333   1.933
 2294SOL    HW2 1626   3.418   3.176   1.931
 2295SOL     OW 1627   2.326   3.605   2.185
 2295SOL    HW1 1628   2.359   3.644   2.271
 2295SOL    HW2 1629   2.402   3.598   2.120
 2296SOL     OW 1630   3.262   1.969   2.288
 2296SOL    HW1 1631   3.238   1.932   2.198
 2296SOL    HW2 1632   3.361   1.985   2.292
 2297SOL     OW 1633   2.111   3.647   3.103
 2297SOL    HW1 1634   2.168   3.582   3.153
 2297SOL    HW2 1635   2.095   3.614   3.010
 2298SOL     OW 1636   2.802   3.560   2.766
 2298SOL    HW1 1637   2.882   3.503   2.787
 2298SOL    HW2 1638   2.753   3.520   2.689
 2299SOL     OW 1639   3.409   2.084   3.591
 2299SOL    HW1 1640   3.404   2.121   3.683
 2299SOL    HW2 1641   3.337   2.015   3.579
 2300SOL     OW 1642   2.476   1.984   1.979
 2300SOL    HW1 1643   2.574   1.962   1.986
 2300SOL    HW2 1644   2.445   1.967   1.886
 2301SOL     OW 1645   2.643   2.126   3.611
 2301SOL    HW1 1646   2.710   2.065   3.654
 2301SOL    HW2 1647   2.570   2.145   3.676
 2302SOL     OW 1648   2.750   3.376   3.057
 2302SOL    HW1 1649   2.727   3.351   2.963
 2302SOL    HW2 1650   2.811   3.307   3.096
 2303SOL     OW 1651   3.213   2.452   3.295
 2303SOL    HW1 1652   3.241   2.409   3.380
 2303SOL    HW2 1653   3.238   2.548   3.296
 2304SOL     OW 1654   2.665   3.264   2.786
 2304SOL    HW1 1655   2.755   3.278   2.744
 2304SOL    HW2 1656   2.594   3.266   2.715
 2305SOL     OW 1657   2.784   2.365   2.761
 2305SOL    HW1 1658   2.759   2.356   2.665
 2305SOL    HW2 1659   2.832   2.283   2.792
 2306SOL     OW 1660   2.401   1.926   2.374
 2306SOL    HW1 1661   2.320   1.927   2.432
 2306SOL    HW2 1662   2.404   2.009   2.319
 2307SOL     OW 1663   3.296   3.050   1.903
 2307SOL    HW1 1664   3.328   2.974   1.960
 2307SOL    HW2 1665   3.204   3.077   1.933
 2308SOL     OW 1666   2.159   1.897   2.033
 2308SOL    HW1 1667   2.208   1.981   2.012
 2308SOL    HW2 1668   2.221   1.832   2.078
 2309SOL     OW 1669   2.797   2.098   2.342
 2309SOL    HW1 1670   2.749   2.139   2.264
 2309SOL    HW2 1671   2.896   2.096   2.323
 2310SOL     OW 1672   2.938   2.545   3.326
 2310SOL    HW1 1673   2.858   2.484   3.329
 2310SOL    HW2 1674   3.019   2.492   3.302
 2311SOL     OW 1675   3.089   3.432   2.655
 2311SOL    HW1 1676   3.110   3.506   2.590
 2311SOL    HW2 1677   3.157   3.432   2.728
 2312SOL     OW 1678   2.321   3.014   2.603
 2312SOL    HW1 1679   2.250   2.987   2.668
 2312SOL    HW2 1680   2.295   2.986   2.510
 2313SOL     OW 1681   3.133   3.659   2.453
 2313SOL    HW1 1682   3.177   3.723   2.389
 2313SOL    HW2 1683   3.083   3.711   2.523
 2314SOL     OW 1684   2.894   2.411   1.878
 2314SOL    HW1 1685   2.853   2.493   1.839
 2314SOL    HW2 1686   2.958   2.437   1.951
 2315SOL     OW 1687   1.940   2.418   3.248
 2315SOL    HW1 1688   2.032   2.417   3.207
 2315SOL    HW2 1689   1.934   2.492   3.315
 2316SOL     OW 1690   2.423   2.084   3.009
 2316SOL    HW1 1691   2.461   2.000   3.046
 2316SOL    HW2 1692   2.335   2.103   3.053
 2317SOL     OW 1693   2.879   1.901   2.615
 2317SOL    HW1 1694   2.807   1.906   2.546
 2317SOL    HW2 1695   2.855   1.832   2.684
 2318SOL     OW 1696   3.291   3.035   2.729
 2318SOL    HW1 1697   3.236   2.951   2.722
 2318SOL    HW2 1698   3.317   3.064   2.637
 2319SOL     OW 1699   3.328   2.452   2.854
 2319SOL    HW1 1700   3.298   2.357   2.861
 2319SOL    HW2 1701   3.401   2.468   2.920
 2320SOL     OW 1702   3.719   2.695   2.239
 2320SOL    HW1 1703   3.761   2.631   2.303
 2320SOL    HW2 1704   3.681   2.644   2.161
 2321SOL     OW 1705   2.350   3.247   2.036
 2321SOL    HW1 1706   2.263   3.232   2.083
 2321SOL    HW2 1707   2.333   3.273   1.941
 2322SOL     OW 1708   3.526   3.142   2.519
 2322SOL    HW1 1709   3.625   3.150   2.533
 2322SOL    HW2 1710   3.481   3.226   2.550
 2323SOL     OW 1711   3.252   2.437   1.940
 2323SOL    HW1 1712   3.198   2.416   2.021
 2323SOL    HW2 1713   3.343   2.396   1.949
 2324SOL     OW 1714   2.389   2.118   2.190
 2324SOL    HW1 1715   2.416   2.059   2.115
 2324SOL    HW2 1716   2.389   2.213   2.159
 2325SOL     OW 1717   3.616   3.085   3.450
 2325SOL    HW1 1718   3.707   3.046   3.437
 2325SOL    HW2 1719   3.624   3.181   3.474
 2326SOL     OW 1720   2.926   3.209   3.202
 2326SOL    HW1 1721   2.846   3.186   3.257
 2326SOL    HW2 1722   3.009   3.183   3.251
 2327SOL     OW 1723   3.454   3.491   3.487
 2327SOL    HW1 1724   3.481   3.525   3.397
 2327SOL    HW2 1725   3.533   3.453   3.533
 2328SOL     OW 1726   2.973   3.057   2.962
 2328SOL    HW1 1727   2.933   3.101   3.043
 2328SOL    HW2 1728   2.932   3.094   2.879
 2329SOL     OW 1729   3.500   2.961   2.941
 2329SOL    HW1 1730   3.505   3.042   3.000
 2329SOL    HW2 1731   3.414   2.963   2.890
 2330SOL     OW 1732   2.777   1.951   3.264
 2330SOL    HW1 1733   2.802   1.931   3.169
 2330SOL    HW2 1734   2.849   2.007   3.306
 2331SOL     OW 1735   2.842   2.978   3.581
 2331SOL    HW1 1736   2.743   2.984   3.591
 2331SOL    HW2 1737   2.865   2.898   3.525
 2332SOL     OW 1738   2.567   2.912   2.230
 2332SOL    HW1 1739   2.553   2.919   2.329
 2332SOL    HW2 1740   2.651   2.861   2.212
 2333SOL     OW 1741   2.272   2.675   3.113
 2333SOL    HW1 1742   2.358   2.687   3.163
 2333SOL    HW2 1743   2.230   2.588   3.140
 2334SOL     OW 1744   3.136   2.248   3.124
 2334SOL    HW1 1745   3.157   2.322   3.188
 2334SOL    HW2 1746   3.047   2.265   3.081
 2335SOL     OW 1747   1.926   3.426   3.193
 2335SOL    HW1 1748   1.880   3.508   3.159
 2335SOL    HW2 1749   2.024   3.445   3.202
 2336SOL     OW 1750   3.114   3.210   2.250
 2336SOL    HW1 1751   3.164   3.287   2.290
 2336SOL    HW2 1752   3.019   3.212   2.282
 2337SOL     OW 1753   3.134   3.307   3.004
 2337SOL    HW1 1754   3.181   3.320   3.091
 2337SOL    HW2 1755   3.068   3.233   3.013
 2338SOL     OW 1756   3.444   2.501   2.334
 2338SOL    HW1 1757   3.413   2.562   2.407
 2338SOL    HW2 1758   3.494   2.553   2.265
 2339SOL     OW 1759   2.216   3.372   3.191
 2339SOL    HW1 1760   2.195   3.328   3.104
 2339SOL    HW2 1761   2.313   3.398   3.194
 2340SOL     OW 1762   2.264   2.613   3.460
 2340SOL    HW1 1763   2.332   2.668   3.413
 2340SOL    HW2 1764   2.304   2.525   3.487
 2341SOL     OW 1765   3.449   2.641   3.532
 2341SOL    HW1 1766   3.357   2.679   3.527
 2341SOL    HW2 1767   3.509   2.688   3.467
 2342SOL     OW 1768   2.875   1.967   3.632
 2342SOL    HW1 1769   2.881   2.052   3.580
 2342SOL    HW2 1770   2.907   1.891   3.575
 2343SOL     OW 1771   2.366   1.912   3.602
 2343SOL    HW1 1772   2.324   1.855   3.532
 2343SOL    HW2 1773   2.300   1.981   3.634
 2344SOL     OW 1774   2.435   2.732   2.891
 2344SOL    HW1 1775   2.479   2.821   2.882
 2344SOL    HW2 1776   2.372   2.732   2.968
 2345SOL     OW 1777   3.222   2.724   2.907
 2345SOL    HW1 1778   3.147   2.724   2.841
 2345SOL    HW2 1779   3.259   2.632   2.916
 2346SOL     OW 1780   3.071   2.387   2.137
 2346SOL    HW1 1781   3.084   2.303   2.191
 2346SOL    HW2 1782   3.042   2.461   2.197
 2347SOL     OW 1783   2.169   2.075   3.093
 2347SOL    HW1 1784   2.146   2.112   3.183
 2347SOL    HW2 1785   2.139   1.980   3.087
 2348SOL     OW 1786   1.899   3.172   3.144
 2348SOL    HW1 1787   1.952   3.123   3.212
 2348SOL    HW2 1788   1.921   3.270   3.149
 2349SOL     OW 1789   2.594   2.496   2.926
 2349SOL    HW1 1790   2.653   2.470   2.850
 2349SOL    HW2 1791   2.566   2.592   2.915
 2350SOL     OW 1792   3.590   2.797   3.716
 2350SOL    HW1 1793   3.544   2.790   3.627
 2350SOL    HW2 1794   3.528   2.841   3.782
 2351SOL     OW 1795   2.169   1.925   2.480
 2351SOL    HW1 1796   2.158   2.019   2.513
 2351SOL    HW2 1797   2.164   1.862   2.557
 2352SOL     OW 1798   3.484   2.229   2.236
 2352SOL    HW1 1799   3.486   2.153   2.300
 2352SOL    HW2 1800   3.436   2.306   2.276
 2353SOL     OW 1801   2.885   2.628   2.828
 2353SOL    HW1 1802   2.900   2.649   2.924
 2353SOL    HW2 1803   2.855   2.533   2.819
 2354SOL     OW 1804   2.842   3.435   3.562
 2354SOL    HW1 1805   2.822   3.479   3.474
 2354SOL    HW2 1806   2.881   3.344   3.546
 2356SOL     OW 1807   2.212   2.760   3.666
 2356SOL    HW1 1808   2.288   2.804   3.714
 2356SOL    HW2 1809   2.247   2.713   3.584
 2357SOL     OW 1810   3.402   2.136   1.987
 2357SOL    HW1 1811   3.341   2.061   2.010
 2357SOL    HW2 1812   3.424   2.188   2.070
 2358SOL     OW 1813   3.165   2.700   1.904
 2358SOL    HW1 1814   3.199   2.607   1.919
 2358SOL    HW2 1815   3.183   2.727   1.809
 2359SOL     OW 1816   2.930   3.195   2.711
 2359SOL    HW1 1817   2.937   3.111   2.656
 2359SOL    HW2 1818   2.992   3.264   2.675
 2360SOL     OW 1819   2.181   2.672   2.811
 2360SOL    HW1 1820   2.274   2.708   2.816
 2360SOL    HW2 1821   2.175   2.587   2.863
 2361SOL     OW 1822   2.201   2.371   2.868
 2361SOL    HW1 1823   2.149   2.288   2.851
 2361SOL    HW2 1824   2.278   2.376   2.804
 2362SOL     OW 1825   3.000   2.242   3.540
 2362SOL    HW1 1826   2.955   2.305   3.604
 2362SOL    HW2 1827   3.093   2.273   3.523
 2363SOL     OW 1828   3.022   2.069   3.339
 2363SOL    HW1 1829   3.022   2.133   3.416
 2363SOL    HW2 1830   3.050   2.117   3.256
 2364SOL     OW 1831   1.870   3.188   2.062
 2364SOL    HW1 1832   1.777   3.209   2.031
 2364SOL    HW2 1833   1.880   3.089   2.075
 2365SOL     OW 1834   1.950   3.663   2.789
 2365SOL    HW1 1835   1.908   3.577   2.762
 2365SOL    HW2 1836   2.044   3.666   2.755
 2366SOL     OW 1837   2.366   3.430   2.772
 2366SOL    HW1 1838   2.432   3.504   2.781
 2366SOL    HW2 1839   2.410   3.351   2.730
 2367SOL     OW 1840   2.864   2.658   3.100
 2367SOL    HW1 1841   2.905   2.626   3.186
 2367SOL    HW2 1842   2.768   2.631   3.097
 2368SOL     OW 1843   1.902   2.406   2.976
 2368SOL    HW1 1844   1.987   2.373   2.935
 2368SOL    HW2 1845   1.915   2.421   3.074
 2369SOL     OW 1846   2.051   2.382   3.584
 2369SOL    HW1 1847   2.110   2.342   3.514
 2369SOL    HW2 1848   1.993   2.453   3.543
 2370SOL     OW 1849   3.231   2.812   3.522
 2370SOL    HW1 1850   3.270   2.901   3.542
 2370SOL    HW2 1851   3.241   2.792   3.425
 2371SOL     OW 1852   2.677   2.434   2.187
 2371SOL    HW1 1853   2.684   2.345   2.141
 2371SOL    HW2 1854   2.583   2.468   2.179
 2372SOL     OW 1855   3.519   2.466   3.068
 2372SOL    HW1 1856   3.481   2.397   3.130
 2372SOL    HW2 1857   3.601   2.430   3.024
 2373SOL     OW 1858   2.114   3.426   3.606
 2373SOL    HW1 1859   2.084   3.483   3.682
 2373SOL    HW2 1860   2.107   3.329   3.632
 2374SOL     OW 1861   2.533   2.326   3.131
 2374SOL    HW1 1862   2.499   2.237   3.101
 2374SOL    HW2 1863   2.559   2.380   3.051
 2375SOL     OW 1864   2.792   3.540   3.327
 2375SOL    HW1 1865   2.768   3.522   3.232
 2375SOL    HW2 1866   2.822   3.634   3.337
 2376SOL     OW 1867   2.335   2.362   2.053
 2376SOL    HW1 1868   2.396   2.442   2.057
 2376SOL    HW2 1869   2.240   2.393   2.060
 2377SOL     OW 1870   2.021   2.999   3.328
 2377SOL    HW1 1871   2.043   2.938   3.404
 2377SOL    HW2 1872   2.031   2.950   3.242
 2378SOL     OW 1873   3.209   2.921   3.096
 2378SOL    HW1 1874   3.233   2.858   3.022
 2378SOL    HW2 1875   3.119   2.961   3.078
 2379SOL     OW 1876   3.164   2.717   2.171
 2379SOL    HW1 1877   3.078   2.686   2.213
 2379SOL    HW2 1878   3.160   2.703   2.072
 2380SOL     OW 1879   3.621   3.609   3.016
 2380SOL    HW1 1880   3.682   3.639   2.943
 2380SOL    HW2 1881   3.583   3.520   2.994
 2381SOL     OW 1882   3.114   3.593   2.990
 2381SOL    HW1 1883   3.198   3.598   2.936
 2381SOL    HW2 1884   3.091   3.497   3.008
 2382SOL     OW 1885   1.945   3.120   2.884
 2382SOL    HW1 1886   1.940   3.119   2.984
 2382SOL    HW2 1887   1.862   3.079   2.846
 2383SOL     OW 1888   2.550   3.524   3.578
 2383SOL    HW1 1889   2.494   3.605   3.587
 2383SOL    HW2 1890   2.602   3.528   3.492
 2384SOL     OW 1891   3.588   1.997   2.385
 2384SOL    HW1 1892   3.661   1.980   2.318
 2384SOL    HW2 1893   3.557   1.910   2.423
 2385SOL     OW 1894   3.250   3.435   2.339
 2385SOL    HW1 1895   3.317   3.447   2.265
 2385SOL    HW2 1896   3.210   3.524   2.362
 2387SOL     OW 1897   3.142   2.789   2.534
 2387SOL    HW1 1898   3.202   2.708   2.536
 2387SOL    HW2 1899   3.182   2.858   2.474
 2388SOL     OW 1900   2.692   3.135   3.284
 2388SOL    HW1 1901   2.687   3.168   3.379
 2388SOL    HW2 1902   2.606   3.154   3.238
 2389SOL     OW 1903   2.534   3.478   2.016
 2389SOL    HW1 1904   2.543   3.488   1.917
 2389SOL    HW2 1905   2.494   3.389   2.037
 2390SOL     OW 1906   3.512   3.582   3.256
 2390SOL    HW1 1907   3.565   3.592   3.172
 2390SOL    HW2 1908   3.485   3.672   3.290
 2391SOL     OW 1909   3.703   2.037   2.825
 2391SOL    HW1 1910   3.742   1.952   2.789
 2391SOL    HW2 1911   3.605   2.039   2.806
 2392SOL     OW 1912   2.125   2.188   2.582
 2392SOL    HW1 1913   2.046   2.239   2.548
 2392SOL    HW2 1914   2.116   2.173   2.680
 2393SOL     OW 1915   3.056   3.474   1.893
 2393SOL    HW1 1916   3.062   3.381   1.930
 2393SOL    HW2 1917   2.997   3.474   1.813
 2394SOL     OW 1918   2.684   2.864   3.234
 2394SOL    HW1 1919   2.724   2.863   3.142
 2394SOL    HW2 1920   2.694   2.956   3.274
 2395SOL     OW 1921   2.778   2.772   2.153
 2395SOL    HW1 1922   2.841   2.810   2.085
 2395SOL    HW2 1923   2.818   2.689   2.192
 2396SOL     OW 1924   3.366   3.469   1.906
 2396SOL    HW1 1925   3.274   3.506   1.913
 2396SOL    HW2 1926   3.404   3.489   1.816
 2397SOL     OW 1927   2.234   3.150   3.352
 2397SOL    HW1 1928   2.221   3.243   3.318
 2397SOL    HW2 1929   2.150   3.098   3.339
 2398SOL     OW 1930   3.476   3.154   3.151
 2398SOL    HW1 1931   3.536   3.157   3.231
 2398SOL    HW2 1932   3.401   3.218   3.164
 2399SOL     OW 1933   2.901   2.960   2.558
 2399SOL    HW1 1934   2.831   2.913   2.612
 2399SOL    HW2 1935   2.960   2.892   2.515
 2400SOL     OW 1936   2.876   2.098   2.833
 2400SOL    HW1 1937   2.868   2.062   2.740
 2400SOL    HW2 1938   2.874   2.022   2.898
 2401SOL     OW 1939   2.452   3.349   2.353
 2401SOL    HW1 1940   2.494   3.291   2.283
 2401SOL    HW2 1941   2.408   3.428   2.309
 2402SOL     OW 1942   3.571   2.247   3.243
 2402SOL    HW1 1943   3.644   2.316   3.247
 2402SOL    HW2 1944   3.599   2.172   3.184
 2403SOL     OW 1945   2.117   3.210   2.152
 2403SOL    HW1 1946   2.021   3.211   2.125
 2403SOL    HW2 1947   2.129   3.263   2.236
 2404SOL     OW 1948   1.967   2.875   3.588
 2404SOL    HW1 1949   1.890   2.842   3.642
 2404SOL    HW2 1950   2.052   2.845   3.630
 2405SOL     OW 1951   2.534   2.065   3.351
 2405SOL    HW1 1952   2.624   2.049   3.311
 2405SOL    HW2 1953   2.542   2.070   3.450
 2406SOL     OW 1954   1.937   2.207   1.895
 2406SOL    HW1 1955   1.845   2.179   1.866
 2406SOL    HW2 1956   1.968   2.284   1.839
 2407SOL     OW 1957   3.302   2.718   3.260
 2407SOL    HW1 1958   3.245   2.770   3.197
 2407SOL    HW2 1959   3.398   2.730   3.236
 2408SOL     OW 1960   1.934   2.028   2.180
 2408SOL    HW1 1961   1.917   2.111   2.126
 2408SOL    HW2 1962   2.024   1.991   2.158
 2409SOL     OW 1963   3.045   3.197   1.981
 2409SOL    HW1 1964   2.946   3.186   1.983
 2409SOL    HW2 1965   3.079   3.212   2.074
 2410SOL     OW 1966   2.475   2.704   3.293
 2410SOL    HW1 1967   2.531   2.785   3.276
 2410SOL    HW2 1968   2.534   2.624   3.296
 2411SOL     OW 1969   3.355   3.629   2.821
 2411SOL    HW1 1970   3.388   3.693   2.752
 2411SOL    HW2 1971   3.421   3.623   2.896
 2412SOL     OW 1972   2.578   2.427   3.570
 2412SOL    HW1 1973   2.597   2.492   3.644
 2412SOL    HW2 1974   2.638   2.347   3.579
 2413SOL     OW 1975   3.312   3.082   3.495
 2413SOL    HW1 1976   3.303   3.072   3.594
 2413SOL    HW2 1977   3.408   3.075   3.469
 2414SOL     OW 1978   2.252   3.603   3.422
 2414SOL    HW1 1979   2.161   3.644   3.420
 2414SOL    HW2 1980   2.245   3.509   3.454
 2415SOL     OW 1981   3.536   2.745   3.116
 2415SOL    HW1 1982   3.509   2.656   3.079
 2415SOL    HW2 1983   3.537   2.813   3.043
 2416SOL     OW 1984   3.087   2.187   2.311
 2416SOL    HW1 1985   3.152   2.113   2.300
 2416SOL    HW2 1986   3.107   2.237   2.395
 2417SOL     OW 1987   3.639   2.204   3.504
 2417SOL    HW1 1988   3.622   2.235   3.410
 2417SOL    HW2 1989   3.555   2.167   3.542
 2418SOL     OW 1990   3.592   2.796   3.379
 2418SOL    HW1 1991   3.630   2.887   3.394
 2418SOL    HW2 1992   3.584   2.779   3.280
 2419SOL     OW 1993   2.721   3.236   1.878
 2419SOL    HW1 1994   2.675   3.251   1.966
 2419SOL    HW2 1995   2.765   3.321   1.848
 2420SOL     OW 1996   2.523   3.652   2.815
 2420SOL    HW1 1997   2.477   3.740   2.802
 2420SOL    HW2 1998   2.622   3.664   2.808
 2421SOL     OW 1999   2.721   2.818   2.723
 2421SOL    HW1 2000   2.775   2.749   2.771
 2421SOL    HW2 2001   2.689   2.887   2.789
 2422SOL     OW 2002   2.945   2.846   1.949
 2422SOL    HW1 2003   2.922   2.899   1.867
 2422SOL    HW2 2004   3.026   2.790   1.930
 2423SOL     OW 2005   3.723   3.431   2.713
 2423SOL    HW1 2006   3.652   3.419   2.643
 2423SOL    HW2 2007   3.724   3.352   2.773
 2424SOL     OW 2008   2.083   3.176   3.706
 2424SOL    HW1 2009   2.018   3.103   3.685
 2424SOL    HW2 2010   2.087   3.190   3.804
 2425SOL     OW 2011   1.941   3.102   2.515
 2425SOL    HW1 2012   1.940   3.055   2.603
 2425SOL    HW2 2013   2.023   3.074   2.464
 2426SOL     OW 2014   2.534   3.253   3.486
 2426SOL    HW1 2015   2.456   3.203   3.524
 2426SOL    HW2 2016   2.531   3.348   3.517
 2427SOL     OW 2017   3.686   2.054   3.089
 2427SOL    HW1 2018   3.682   1.964   3.133
 2427SOL    HW2 2019   3.689   2.043   2.990
 2428SOL     OW 2020   2.290   2.286   2.382
 2428SOL    HW1 2021   2.320   2.214   2.320
 2428SOL    HW2 2022   2.251   2.246   2.465
 2429SOL     OW 2023   3.567   3.349   2.966
 2429SOL    HW1 2024   3.474   3.324   2.939
 2429SOL    HW2 2025   3.593   3.299   3.048
 2430SOL     OW 2026   2.179   2.409   3.142
 2430SOL    HW1 2027   2.217   2.350   3.214
 2430SOL    HW2 2028   2.219   2.383   3.054
 2431SOL     OW 2029   2.674   3.448   2.549
 2431SOL    HW1 2030   2.706   3.458   2.455
 2431SOL    HW2 2031   2.595   3.386   2.551
 2432SOL     OW 2032   3.286   2.076   2.974
 2432SOL    HW1 2033   3.338   2.011   3.029
 2432SOL    HW2 2034   3.237   2.139   3.035
 2433SOL     OW 2035   2.863   1.896   3.016
 2433SOL    HW1 2036   2.800   1.824   2.985
 2433SOL    HW2 2037   2.956   1.860   3.016
 2434SOL     OW 2038   2.632   3.192   2.163
 2434SOL    HW1 2039   2.586   3.105   2.180
 2434SOL    HW2 2040   2.723   3.189   2.204
 2435SOL     OW 2041   2.480   3.429   3.146
 2435SOL    HW1 2042   2.475   3.511   3.203
 2435SOL    HW2 2043   2.569   3.426   3.101
 2436SOL     OW 2044   3.214   1.914   2.030
 2436SOL    HW1 2045   3.249   1.873   1.946
 2436SOL    HW2 2046   3.124   1.876   2.050
 2437SOL     OW 2047   3.162   2.315   2.553
 2437SOL    HW1 2048   3.103   2.395   2.557
 2437SOL    HW2 2049   3.177   2.280   2.646
 2438SOL     OW 2050   3.455   2.083   2.744
 2438SOL    HW1 2051   3.371   2.082   2.798
 2438SOL    HW2 2052   3.457   2.166   2.688
 2439SOL     OW 2053   1.901   2.939   2.162
 2439SOL    HW1 2054   2.000   2.928   2.153
 2439SOL    HW2 2055   1.861   2.853   2.194
 2440SOL     OW 2056   2.737   3.508   2.199
 2440SOL    HW1 2057   2.660   3.473   2.145
 2440SOL    HW2 2058   2.705   3.579   2.261
 2441SOL     OW 2059   2.092   2.490   3.837
 2441SOL    HW1 2060   1.999   2.488   3.874
 2441SOL    HW2 2061   2.093   2.451   3.745
 2454SOL     OW 2062   2.468   2.826   3.847
 2454SOL    HW1 2063   2.475   2.910   3.793
 2454SOL    HW2 2064   2.514   2.839   3.935
 2463SOL     OW 2065   3.387   2.861   3.914
 2463SOL    HW1 2066   3.324   2.785   3.927
 2463SOL    HW2 2067   3.435   2.879   4.000
 2466SOL     OW 2068   2.460   2.591   3.994
 2466SOL    HW1 2069   2.484   2.660   3.926
 2466SOL    HW2 2070   2.382   2.624   4.048
 2469SOL     OW 2071   2.903   2.563   4.153
 2469SOL    HW1 2072   2.929   2.559   4.249
 2469SOL    HW2 2073   2.818   2.512   4.139
 2471SOL     OW 2074   2.727   2.210   3.919
 2471SOL    HW1 2075   2.786   2.273   3.870
 2471SOL    HW2 2076   2.746   2.116   3.890
 2477SOL     OW 2077   2.183   2.805   3.966
 2477SOL    HW1 2078   2.265   2.844   3.924
 2477SOL    HW2 2079   2.156   2.723   3.917
 2485SOL     OW 2080   2.244   2.562   4.204
 2485SOL    HW1 2081   2.289   2.472   4.201
 2485SOL    HW2 2082   2.150   2.551   4.237
 2486SOL     OW 2083   2.476   1.984   3.841
 2486SOL    HW1 2084   2.574   1.962   3.848
 2486SOL    HW2 2085   2.445   1.967   3.748
 2490SOL     OW 2086   3.296   3.050   3.765
 2490SOL    HW1 2087   3.328   2.974   3.822
 2490SOL    HW2 2088   3.204   3.077   3.795
 2491SOL     OW 2089   2.159   1.897   3.895
 2491SOL    HW1 2090   2.208   1.981   3.874
 2491SOL    HW2 2091   2.221   1.832   3.940
 2496SOL     OW 2092   2.894   2.411   3.740
 2496SOL    HW1 2093   2.853   2.493   3.701
 2496SOL    HW2 2094   2.958   2.437   3.813
 2502SOL     OW 2095   2.350   3.247   3.898
 2502SOL    HW1 2096   2.263   3.232   3.945
 2502SOL    HW2 2097   2.333   3.273   3.803
 2504SOL     OW 2098   3.252   2.437   3.802
 2504SOL    HW1 2099   3.198   2.416   3.883
 2504SOL    HW2 2100   3.343   2.396   3.811
 2505SOL     OW 2101   2.389   2.118   4.052
 2505SOL    HW1 2102   2.416   2.059   3.977
 2505SOL    HW2 2103   2.389   2.213   4.021
 2508SOL     OW 2104   2.567   2.912   4.092
 2508SOL    HW1 2105   2.553   2.919   4.191
 2508SOL    HW2 2106   2.651   2.861   4.074
 2516SOL     OW 2107   3.071   2.387   3.999
 2516SOL    HW1 2108   3.084   2.303   4.053
 2516SOL    HW2 2109   3.042   2.461   4.059
 2522SOL     OW 2110   3.402   2.136   3.849
 2522SOL    HW1 2111   3.341   2.061   3.872
 2522SOL    HW2 2112   3.424   2.188   3.932
 2523SOL     OW 2113   3.165   2.700   3.766
 2523SOL    HW1 2114   3.199   2.607   3.781
 2523SOL    HW2 2115   3.183   2.727   3.671
 2527SOL     OW 2116   1.870   3.188   3.924
 2527SOL    HW1 2117   1.777   3.209   3.893
 2527SOL    HW2 2118   1.880   3.089   3.937
 2532SOL     OW 2119   2.677   2.434   4.049
 2532SOL    HW1 2120   2.684   2.345   4.003
 2532SOL    HW2 2121   2.583   2.468   4.041
 2534SOL     OW 2122   2.335   2.362   3.915
 2534SOL    HW1 2123   2.396   2.442   3.919
 2534SOL    HW2 2124   2.240   2.393   3.922
 2535SOL     OW 2125   3.164   2.717   4.033
 2535SOL    HW1 2126   3.078   2.686   4.075
 2535SOL    HW2 2127   3.160   2.703   3.934
 2541SOL     OW 2128   2.534   3.478   3.878
 2541SOL    HW1 2129   2.543   3.488   3.779
 2541SOL    HW2 2130   2.494   3.389   3.899
 2544SOL     OW 2131   3.056   3.474   3.755
 2544SOL    HW1 2132   3.062   3.381   3.792
 2544SOL    HW2 2133   2.997   3.474   3.675
 2545SOL     OW 2134   2.778   2.772   4.015
 2545SOL    HW1 2135   2.841   2.810   3.947
 2545SOL    HW2 2136   2.818   2.689   4.054
 2550SOL     OW 2137   2.117   3.210   4.014
 2550SOL    HW1 2138   2.021   3.211   3.987
 2550SOL    HW2 2139   2.129   3.263   4.098
 2551SOL     OW 2140   1.937   2.207   3.757
 2551SOL    HW1 2141   1.845   2.179   3.728
 2551SOL    HW2 2142   1.968   2.284   3.701
 2552SOL     OW 2143   1.934   2.028   4.042
 2552SOL    HW1 2144   1.917   2.111   3.988
 2552SOL    HW2 2145   2.024   1.991   4.020
 2553SOL     OW 2146   3.045   3.197   3.843
 2553SOL    HW1 2147   2.946   3.186   3.845
 2553SOL    HW2 2148   3.079   3.212   3.936
 2558SOL     OW 2149   2.721   3.236   3.740
 2558SOL    HW1 2150   2.675   3.251   3.828
 2558SOL    HW2 2151   2.765   3.321   3.710
 2561SOL     OW 2152   2.945   2.846   3.811
 2561SOL    HW1 2153   2.922   2.899   3.729
 2561SOL    HW2 2154   3.026   2.790   3.792
 2568SOL     OW 2155   2.632   3.192   4.025
 2568SOL    HW1 2156   2.586   3.105   4.042
 2568SOL    HW2 2157   2.723   3.189   4.066
 2569SOL     OW 2158   3.214   1.914   3.892
 2569SOL    HW1 2159   3.249   1.873   3.808
 2569SOL    HW2 2160   3.124   1.876   3.912
 2572SOL     OW 2161   1.901   2.939   4.024
 2572SOL    HW1 2162   2.000   2.928   4.015
 2572SOL    HW2 2163   1.861   2.853   4.056
 2595SOL     OW 2164   2.179   3.975   1.801
 2595SOL    HW1 2165   2.250   4.046   1.807
 2595SOL    HW2 2166   2.091   4.014   1.829
 2615SOL     OW 2167   2.643   3.988   1.749
 2615SOL    HW1 2168   2.710   3.927   1.792
 2615SOL    HW2 2169   2.570   4.007   1.814
 2634SOL     OW 2170   2.777   3.813   1.402
 2634SOL    HW1 2171   2.802   3.793   1.307
 2634SOL    HW2 2172   2.849   3.869   1.444
 2643SOL     OW 2173   2.875   3.829   1.770
 2643SOL    HW1 2174   2.881   3.914   1.718
 2643SOL    HW2 2175   2.907   3.753   1.713
 2644SOL     OW 2176   2.366   3.774   1.740
 2644SOL    HW1 2177   2.324   3.717   1.670
 2644SOL    HW2 2178   2.300   3.843   1.772
 2683SOL     OW 2179   2.534   3.927   1.489
 2683SOL    HW1 2180   2.624   3.911   1.449
 2683SOL    HW2 2181   2.542   3.932   1.588
 2707SOL     OW 2182   2.087   3.999   2.858
 2707SOL    HW1 2183   2.122   3.982   2.950
 2707SOL    HW2 2184   1.999   3.954   2.846
 2708SOL     OW 2185   1.881   4.092   2.509
 2708SOL    HW1 2186   1.799   4.135   2.548
 2708SOL    HW2 2187   1.853   4.019   2.446
 2724SOL     OW 2188   2.671   3.728   2.364
 2724SOL    HW1 2189   2.711   3.819   2.355
 2724SOL    HW2 2190   2.571   3.736   2.370
 2729SOL     OW 2191   3.143   4.069   2.806
 2729SOL    HW1 2192   3.057   4.019   2.793
 2729SOL    HW2 2193   3.205   4.015   2.862
 2736SOL     OW 2194   2.727   4.072   2.057
 2736SOL    HW1 2195   2.786   4.135   2.008
 2736SOL    HW2 2196   2.746   3.978   2.028
 2738SOL     OW 2197   2.412   3.920   2.747
 2738SOL    HW1 2198   2.407   3.915   2.847
 2738SOL    HW2 2199   2.414   4.016   2.718
 2743SOL     OW 2200   3.262   3.831   2.288
 2743SOL    HW1 2201   3.238   3.794   2.198
 2743SOL    HW2 2202   3.361   3.847   2.292
 2746SOL     OW 2203   2.476   3.846   1.979
 2746SOL    HW1 2204   2.574   3.824   1.986
 2746SOL    HW2 2205   2.445   3.829   1.886
 2750SOL     OW 2206   2.401   3.788   2.374
 2750SOL    HW1 2207   2.320   3.789   2.432
 2750SOL    HW2 2208   2.404   3.871   2.319
 2751SOL     OW 2209   2.159   3.759   2.033
 2751SOL    HW1 2210   2.208   3.843   2.012
 2751SOL    HW2 2211   2.221   3.694   2.078
 2752SOL     OW 2212   2.797   3.960   2.342
 2752SOL    HW1 2213   2.749   4.001   2.264
 2752SOL    HW2 2214   2.896   3.958   2.323
 2757SOL     OW 2215   2.423   3.946   3.009
 2757SOL    HW1 2216   2.461   3.862   3.046
 2757SOL    HW2 2217   2.335   3.965   3.053
 2758SOL     OW 2218   2.728   4.178   2.504
 2758SOL    HW1 2219   2.696   4.250   2.442
 2758SOL    HW2 2220   2.752   4.097   2.451
 2759SOL     OW 2221   2.879   3.763   2.615
 2759SOL    HW1 2222   2.807   3.768   2.546
 2759SOL    HW2 2223   2.855   3.694   2.684
 2764SOL     OW 2224   2.389   3.980   2.190
 2764SOL    HW1 2225   2.416   3.921   2.115
 2764SOL    HW2 2226   2.389   4.075   2.159
 2767SOL     OW 2227   2.777   3.813   3.264
 2767SOL    HW1 2228   2.802   3.793   3.169
 2767SOL    HW2 2229   2.849   3.869   3.306
 2777SOL     OW 2230   2.366   3.774   3.602
 2777SOL    HW1 2231   2.324   3.717   3.532
 2777SOL    HW2 2232   2.300   3.843   3.634
 2781SOL     OW 2233   2.169   3.937   3.093
 2781SOL    HW1 2234   2.146   3.974   3.183
 2781SOL    HW2 2235   2.139   3.842   3.087
 2784SOL     OW 2236   2.169   3.787   2.480
 2784SOL    HW1 2237   2.158   3.881   2.513
 2784SOL    HW2 2238   2.164   3.724   2.557
 2808SOL     OW 2239   2.125   4.050   2.582
 2808SOL    HW1 2240   2.046   4.101   2.548
 2808SOL    HW2 2241   2.116   4.035   2.680
 2812SOL     OW 2242   2.876   3.960   2.833
 2812SOL    HW1 2243   2.868   3.924   2.740
 2812SOL    HW2 2244   2.874   3.884   2.898
 2815SOL     OW 2245   2.534   3.927   3.351
 2815SOL    HW1 2246   2.624   3.911   3.311
 2815SOL    HW2 2247   2.542   3.932   3.450
 2816SOL     OW 2248   1.937   4.069   1.895
 2816SOL    HW1 2249   1.845   4.041   1.866
 2816SOL    HW2 2250   1.968   4.146   1.839
 2818SOL     OW 2251   1.934   3.890   2.180
 2818SOL    HW1 2252   1.917   3.973   2.126
 2818SOL    HW2 2253   2.024   3.853   2.158
 2823SOL     OW 2254   3.087   4.049   2.311
 2823SOL    HW1 2255   3.152   3.975   2.300
 2823SOL    HW2 2256   3.107   4.099   2.395
 2830SOL     OW 2257   2.290   4.148   2.382
 2830SOL    HW1 2258   2.320   4.076   2.320
 2830SOL    HW2 2259   2.251   4.108   2.465
 2832SOL     OW 2260   3.286   3.938   2.974
 2832SOL    HW1 2261   3.338   3.873   3.029
 2832SOL    HW2 2262   3.237   4.001   3.035
 2833SOL     OW 2263   2.863   3.758   3.016
 2833SOL    HW1 2264   2.800   3.686   2.985
 2833SOL    HW2 2265   2.956   3.722   3.016
 2835SOL     OW 2266   3.214   3.776   2.030
 2835SOL    HW1 2267   3.249   3.735   1.946
 2835SOL    HW2 2268   3.124   3.738   2.050
 2954SOL     OW 2269   3.854   1.821   1.571
 2954SOL    HW1 2270   3.844   1.806   1.670
 2954SOL    HW2 2271   3.768   1.857   1.535
 3025SOL     OW 2272   3.854   1.794   1.851
 3025SOL    HW1 2273   3.813   1.720   1.904
 3025SOL    HW2 2274   3.918   1.845   1.909
 3068SOL     OW 2275   3.955   1.713   2.345
 3068SOL    HW1 2276   3.989   1.790   2.399
 3068SOL    HW2 2277   3.999   1.713   2.255
 3075SOL     OW 2278   3.751   1.596   1.979
 3075SOL    HW1 2279   3.732   1.500   2.000
 3075SOL    HW2 2280   3.718   1.654   2.054
 3091SOL     OW 2281   4.075   1.801   2.715
 3091SOL    HW1 2282   4.125   1.715   2.721
 3091SOL    HW2 2283   4.140   1.878   2.712
 3096SOL     OW 2284   3.973   1.785   3.103
 3096SOL    HW1 2285   4.030   1.720   3.153
 3096SOL    HW2 2286   3.957   1.752   3.010
 3121SOL     OW 2287   3.788   1.564   3.193
 3121SOL    HW1 2288   3.742   1.646   3.159
 3121SOL    HW2 2289   3.886   1.583   3.202
 3141SOL     OW 2290   3.732   1.326   2.062
 3141SOL    HW1 2291   3.639   1.347   2.031
 3141SOL    HW2 2292   3.742   1.227   2.075
 3142SOL     OW 2293   3.812   1.801   2.789
 3142SOL    HW1 2294   3.770   1.715   2.762
 3142SOL    HW2 2295   3.906   1.804   2.755
 3292SOL     OW 2296   3.837   2.599   1.597
 3292SOL    HW1 2297   3.925   2.586   1.642
 3292SOL    HW2 2298   3.824   2.696   1.575
 3296SOL     OW 2299   4.041   2.113   1.801
 3296SOL    HW1 2300   4.112   2.184   1.807
 3296SOL    HW2 2301   3.953   2.152   1.829
 3310SOL     OW 2302   3.926   2.147   1.498
 3310SOL    HW1 2303   3.846   2.207   1.485
 3310SOL    HW2 2304   3.916   2.098   1.584
 3327SOL     OW 2305   3.802   2.418   1.386
 3327SOL    HW1 2306   3.894   2.417   1.345
 3327SOL    HW2 2307   3.796   2.492   1.453
 3352SOL     OW 2308   4.074   2.760   1.804
 3352SOL    HW1 2309   4.150   2.804   1.852
 3352SOL    HW2 2310   4.109   2.713   1.722
 3363SOL     OW 2311   3.913   2.382   1.722
 3363SOL    HW1 2312   3.972   2.342   1.652
 3363SOL    HW2 2313   3.855   2.453   1.681
 3385SOL     OW 2314   3.829   2.875   1.726
 3385SOL    HW1 2315   3.752   2.842   1.780
 3385SOL    HW2 2316   3.914   2.845   1.768
 3396SOL     OW 2317   3.945   3.176   1.844
 3396SOL    HW1 2318   3.880   3.103   1.823
 3396SOL    HW2 2319   3.949   3.190   1.942
 3407SOL     OW 2320   3.954   2.490   1.975
 3407SOL    HW1 2321   3.861   2.488   2.012
 3407SOL    HW2 2322   3.955   2.451   1.883
 3408SOL     OW 2323   3.949   2.137   2.858
 3408SOL    HW1 2324   3.984   2.120   2.950
 3408SOL    HW2 2325   3.861   2.092   2.846
 3409SOL     OW 2326   3.743   2.230   2.509
 3409SOL    HW1 2327   3.661   2.273   2.548
 3409SOL    HW2 2328   3.715   2.157   2.446
 3419SOL     OW 2329   3.954   3.296   2.400
 3419SOL    HW1 2330   3.928   3.392   2.400
 3419SOL    HW2 2331   3.883   3.242   2.445
 3420SOL     OW 2332   3.964   2.953   2.748
 3420SOL    HW1 2333   3.978   2.869   2.800
 3420SOL    HW2 2334   3.909   3.017   2.803
 3423SOL     OW 2335   3.846   2.505   2.425
 3423SOL    HW1 2336   3.801   2.417   2.442
 3423SOL    HW2 2337   3.845   2.559   2.509
 3424SOL     OW 2338   3.751   3.458   1.979
 3424SOL    HW1 2339   3.732   3.362   2.000
 3424SOL    HW2 2340   3.718   3.516   2.054
 3425SOL     OW 2341   3.837   2.599   3.459
 3425SOL    HW1 2342   3.925   2.586   3.504
 3425SOL    HW2 2343   3.824   2.696   3.437
 3428SOL     OW 2344   3.921   2.838   3.126
 3428SOL    HW1 2345   4.010   2.793   3.112
 3428SOL    HW2 2346   3.848   2.773   3.107
 3435SOL     OW 2347   3.800   2.673   2.651
 3435SOL    HW1 2348   3.899   2.661   2.660
 3435SOL    HW2 2349   3.776   2.768   2.672
 3441SOL     OW 2350   4.045   2.805   2.104
 3441SOL    HW1 2351   4.127   2.844   2.062
 3441SOL    HW2 2352   4.018   2.723   2.055
 3443SOL     OW 2353   3.926   2.147   3.360
 3443SOL    HW1 2354   3.846   2.207   3.347
 3443SOL    HW2 2355   3.916   2.098   3.446
 3447SOL     OW 2356   4.106   2.562   2.342
 3447SOL    HW1 2357   4.151   2.472   2.339
 3447SOL    HW2 2358   4.012   2.551   2.375
 3454SOL     OW 2359   4.021   1.897   2.033
 3454SOL    HW1 2360   4.070   1.981   2.012
 3454SOL    HW2 2361   4.083   1.832   2.078
 3460SOL     OW 2362   3.802   2.418   3.248
 3460SOL    HW1 2363   3.894   2.417   3.207
 3460SOL    HW2 2364   3.796   2.492   3.315
 3471SOL     OW 2365   4.091   2.962   2.363
 3471SOL    HW1 2366   4.084   3.045   2.307
 3471SOL    HW2 2367   4.095   2.882   2.303
 3479SOL     OW 2368   4.031   2.075   3.093
 3479SOL    HW1 2369   4.008   2.112   3.183
 3479SOL    HW2 2370   4.001   1.980   3.087
 3480SOL     OW 2371   3.761   3.172   3.144
 3480SOL    HW1 2372   3.814   3.123   3.212
 3480SOL    HW2 2373   3.783   3.270   3.149
 3482SOL     OW 2374   4.031   1.925   2.480
 3482SOL    HW1 2375   4.020   2.019   2.513
 3482SOL    HW2 2376   4.026   1.862   2.557
 3487SOL     OW 2377   4.043   2.672   2.811
 3487SOL    HW1 2378   4.136   2.708   2.816
 3487SOL    HW2 2379   4.037   2.587   2.863
 3488SOL     OW 2380   4.063   2.371   2.868
 3488SOL    HW1 2381   4.011   2.288   2.851
 3488SOL    HW2 2382   4.140   2.376   2.804
 3491SOL     OW 2383   3.732   3.188   2.062
 3491SOL    HW1 2384   3.639   3.209   2.031
 3491SOL    HW2 2385   3.742   3.089   2.075
 3495SOL     OW 2386   3.764   2.406   2.976
 3495SOL    HW1 2387   3.849   2.373   2.935
 3495SOL    HW2 2388   3.777   2.421   3.074
 3501SOL     OW 2389   4.197   2.362   2.053
 3501SOL    HW1 2390   4.258   2.442   2.057
 3501SOL    HW2 2391   4.102   2.393   2.060
 3502SOL     OW 2392   3.883   2.999   3.328
 3502SOL    HW1 2393   3.905   2.938   3.404
 3502SOL    HW2 2394   3.893   2.950   3.242
 3504SOL     OW 2395   3.807   3.120   2.884
 3504SOL    HW1 2396   3.802   3.119   2.984
 3504SOL    HW2 2397   3.724   3.079   2.846
 3509SOL     OW 2398   3.987   2.188   2.582
 3509SOL    HW1 2399   3.908   2.239   2.548
 3509SOL    HW2 2400   3.978   2.173   2.680
 3516SOL     OW 2401   3.979   3.210   2.152
 3516SOL    HW1 2402   3.883   3.211   2.125
 3516SOL    HW2 2403   3.991   3.263   2.236
 3519SOL     OW 2404   3.799   2.207   1.895
 3519SOL    HW1 2405   3.707   2.179   1.866
 3519SOL    HW2 2406   3.830   2.284   1.839
 3520SOL     OW 2407   3.796   2.028   2.180
 3520SOL    HW1 2408   3.779   2.111   2.126
 3520SOL    HW2 2409   3.886   1.991   2.158
 3530SOL     OW 2410   3.803   3.102   2.515
 3530SOL    HW1 2411   3.802   3.055   2.603
 3530SOL    HW2 2412   3.885   3.074   2.464
 3532SOL     OW 2413   4.152   2.286   2.382
 3532SOL    HW1 2414   4.182   2.214   2.320
 3532SOL    HW2 2415   4.113   2.246   2.465
 3533SOL     OW 2416   4.041   2.409   3.142
 3533SOL    HW1 2417   4.079   2.350   3.214
 3533SOL    HW2 2418   4.081   2.383   3.054
 3538SOL     OW 2419   3.763   2.939   2.162
 3538SOL    HW1 2420   3.862   2.928   2.153
 3538SOL    HW2 2421   3.723   2.853   2.194
   4.90791   4.90791   4.90791
