; mobley_8983100_GMX.itp created by acpype (v: 2023.10.27) on Thu May 21 00:12:25 2026

[ atomtypes ]
;name   bond_type     mass     charge   ptype   sigma         epsilon       Amb
 c3       c3          0.00000  0.00000   A     3.39771e-01   4.51035e-01 ; 1.91  0.1078
 br       br          0.00000  0.00000   A     3.61259e-01   1.64515e+00 ; 2.03  0.3932
 h1       h1          0.00000  0.00000   A     2.42200e-01   8.70272e-02 ; 1.36  0.0208

[ moleculetype ]
;name            nrexcl
 mobley_8983100   3

[ atoms ]
;   nr  type  resi  res  atom  cgnr     charge      mass       ; qtot   bond_type
     1   c3     1   MOL    C1    1    -0.039700     12.01000 ; qtot -0.040
     2   br     1   MOL   BR1    2    -0.166400     79.90000 ; qtot -0.206
     3   h1     1   MOL    H1    3     0.068700      1.00800 ; qtot -0.137
     4   h1     1   MOL    H2    4     0.068700      1.00800 ; qtot -0.069
     5   h1     1   MOL    H3    5     0.068700      1.00800 ; qtot -0.000

[ bonds ]
;   ai     aj funct   r             k
     1      2   1    1.9805e-01    1.0319e+05 ;     C1 - BR1   
     1      3   1    1.0969e-01    2.8804e+05 ;     C1 - H1    
     1      4   1    1.0969e-01    2.8804e+05 ;     C1 - H2    
     1      5   1    1.0969e-01    2.8804e+05 ;     C1 - H3    

[ angles ]
;   ai     aj     ak    funct   theta         cth
     2      1      3      1    1.0552e+02    3.3748e+02 ;    BR1 - C1     - H1    
     2      1      4      1    1.0552e+02    3.3748e+02 ;    BR1 - C1     - H2    
     2      1      5      1    1.0552e+02    3.3748e+02 ;    BR1 - C1     - H3    
     3      1      4      1    1.0855e+02    2.9824e+02 ;     H1 - C1     - H2    
     3      1      5      1    1.0855e+02    2.9824e+02 ;     H1 - C1     - H3    
     4      1      5      1    1.0855e+02    2.9824e+02 ;     H2 - C1     - H3    
