; mobley_3269819_GMX.itp created by acpype (v: 2023.10.27) on Thu May 21 00:16:19 2026

[ atomtypes ]
;name   bond_type     mass     charge   ptype   sigma         epsilon       Amb
 ca       ca          0.00000  0.00000   A     3.31521e-01   4.13379e-01 ; 1.86  0.0988
 cp       cp          0.00000  0.00000   A     3.31521e-01   4.13379e-01 ; 1.86  0.0988
 cl       cl          0.00000  0.00000   A     3.46595e-01   1.10374e+00 ; 1.95  0.2638
 ha       ha          0.00000  0.00000   A     2.62548e-01   6.73624e-02 ; 1.47  0.0161

[ moleculetype ]
;name            nrexcl
 mobley_3269819   3

[ atoms ]
;   nr  type  resi  res  atom  cgnr     charge      mass       ; qtot   bond_type
     1   ca     1   MOL    C1    1    -0.096000     12.01000 ; qtot -0.096
     2   ca     1   MOL    C2    2    -0.096000     12.01000 ; qtot -0.192
     3   ca     1   MOL    C3    3    -0.097000     12.01000 ; qtot -0.289
     4   cp     1   MOL    C4    4    -0.034000     12.01000 ; qtot -0.323
     5   cp     1   MOL    C5    5    -0.027000     12.01000 ; qtot -0.350
     6   ca     1   MOL    C6    6     0.021400     12.01000 ; qtot -0.329
     7   ca     1   MOL    C7    7     0.021400     12.01000 ; qtot -0.307
     8   ca     1   MOL    C8    8     0.019400     12.01000 ; qtot -0.288
     9   ca     1   MOL    C9    9     0.034400     12.01000 ; qtot -0.253
    10   ca     1   MOL   C10   10     0.023400     12.01000 ; qtot -0.230
    11   ca     1   MOL   C11   11     0.027400     12.01000 ; qtot -0.203
    12   ca     1   MOL   C12   12     0.019400     12.01000 ; qtot -0.183
    13   cl     1   MOL   CL1   13    -0.055400     35.45000 ; qtot -0.239
    14   cl     1   MOL   CL2   14    -0.055400     35.45000 ; qtot -0.294
    15   cl     1   MOL   CL3   15    -0.049400     35.45000 ; qtot -0.343
    16   cl     1   MOL   CL4   16    -0.041400     35.45000 ; qtot -0.385
    17   cl     1   MOL   CL5   17    -0.038400     35.45000 ; qtot -0.423
    18   cl     1   MOL   CL6   18    -0.032400     35.45000 ; qtot -0.456
    19   cl     1   MOL   CL7   19    -0.033400     35.45000 ; qtot -0.489
    20   ha     1   MOL    H1   20     0.162000      1.00800 ; qtot -0.327
    21   ha     1   MOL    H2   21     0.162000      1.00800 ; qtot -0.165
    22   ha     1   MOL    H3   22     0.165000      1.00800 ; qtot -0.000

[ bonds ]
;   ai     aj funct   r             k
     1      4   1    1.4056e-01    2.8959e+05 ;     C1 - C4    
     1      6   1    1.3986e-01    2.9644e+05 ;     C1 - C6    
     1     20   1    1.0860e-01    3.0183e+05 ;     C1 - H1    
     2      4   1    1.4056e-01    2.8959e+05 ;     C2 - C4    
     2      7   1    1.3986e-01    2.9644e+05 ;     C2 - C7    
     2     21   1    1.0860e-01    3.0183e+05 ;     C2 - H2    
     3      5   1    1.4056e-01    2.8959e+05 ;     C3 - C5    
     3      8   1    1.3986e-01    2.9644e+05 ;     C3 - C8    
     3     22   1    1.0860e-01    3.0183e+05 ;     C3 - H3    
     4      5   1    1.4829e-01    2.2541e+05 ;     C4 - C5    
     5      9   1    1.4056e-01    2.8959e+05 ;     C5 - C9    
     6     10   1    1.3986e-01    2.9644e+05 ;     C6 - C10   
     6     13   1    1.7572e-01    1.5730e+05 ;     C6 - CL1   
     7     10   1    1.3986e-01    2.9644e+05 ;     C7 - C10   
     7     14   1    1.7572e-01    1.5730e+05 ;     C7 - CL2   
     8     11   1    1.3986e-01    2.9644e+05 ;     C8 - C11   
     8     15   1    1.7572e-01    1.5730e+05 ;     C8 - CL3   
     9     12   1    1.3986e-01    2.9644e+05 ;     C9 - C12   
     9     16   1    1.7572e-01    1.5730e+05 ;     C9 - CL4   
    10     17   1    1.7572e-01    1.5730e+05 ;    C10 - CL5   
    11     12   1    1.3986e-01    2.9644e+05 ;    C11 - C12   
    11     18   1    1.7572e-01    1.5730e+05 ;    C11 - CL6   
    12     19   1    1.7572e-01    1.5730e+05 ;    C12 - CL7   

[ pairs ]
;   ai     aj    funct
     1      3      1 ;     C1 - C3    
     1      7      1 ;     C1 - C7    
     1      9      1 ;     C1 - C9    
     1     17      1 ;     C1 - CL5   
     1     21      1 ;     C1 - H2    
     2      3      1 ;     C2 - C3    
     2      9      1 ;     C2 - C9    
     2     17      1 ;     C2 - CL5   
     3     12      1 ;     C3 - C12   
     3     16      1 ;     C3 - CL4   
     3     18      1 ;     C3 - CL6   
     4      8      1 ;     C4 - C8    
     4     10      1 ;     C4 - C10   
     4     12      1 ;     C4 - C12   
     4     13      1 ;     C4 - CL1   
     4     14      1 ;     C4 - CL2   
     4     16      1 ;     C4 - CL4   
     4     22      1 ;     C4 - H3    
     5      7      1 ;     C5 - C7    
     5     11      1 ;     C5 - C11   
     5     15      1 ;     C5 - CL3   
     5     19      1 ;     C5 - CL7   
     5     21      1 ;     C5 - H2    
     6      2      1 ;     C6 - C2    
     6      5      1 ;     C6 - C5    
     6     14      1 ;     C6 - CL2   
     7     13      1 ;     C7 - CL1   
     8      9      1 ;     C8 - C9    
     8     19      1 ;     C8 - CL7   
     9     18      1 ;     C9 - CL6   
     9     22      1 ;     C9 - H3    
    10     21      1 ;    C10 - H2    
    11     16      1 ;    C11 - CL4   
    11     22      1 ;    C11 - H3    
    12     15      1 ;    C12 - CL3   
    13     17      1 ;    CL1 - CL5   
    14     17      1 ;    CL2 - CL5   
    14     21      1 ;    CL2 - H2    
    15     18      1 ;    CL3 - CL6   
    15     22      1 ;    CL3 - H3    
    16     19      1 ;    CL4 - CL7   
    18     19      1 ;    CL6 - CL7   
    20      2      1 ;     H1 - C2    
    20      5      1 ;     H1 - C5    
    20     10      1 ;     H1 - C10   
    20     13      1 ;     H1 - CL1   

[ angles ]
;   ai     aj     ak    funct   theta         cth
     1      4      2      1    1.1841e+02    5.3379e+02 ;     C1 - C4     - C2    
     1      4      5      1    1.2110e+02    5.1296e+02 ;     C1 - C4     - C5    
     1      6     10      1    1.2002e+02    5.3279e+02 ;     C1 - C6     - C10   
     1      6     13      1    1.1938e+02    5.3605e+02 ;     C1 - C6     - CL1   
     2      4      5      1    1.2110e+02    5.1296e+02 ;     C2 - C4     - C5    
     2      7     10      1    1.2002e+02    5.3279e+02 ;     C2 - C7     - C10   
     2      7     14      1    1.1938e+02    5.3605e+02 ;     C2 - C7     - CL2   
     3      5      4      1    1.2110e+02    5.1296e+02 ;     C3 - C5     - C4    
     3      5      9      1    1.1841e+02    5.3379e+02 ;     C3 - C5     - C9    
     3      8     11      1    1.2002e+02    5.3279e+02 ;     C3 - C8     - C11   
     3      8     15      1    1.1938e+02    5.3605e+02 ;     C3 - C8     - CL3   
     4      1      6      1    1.2073e+02    5.2995e+02 ;     C4 - C1     - C6    
     4      1     20      1    1.1982e+02    3.7430e+02 ;     C4 - C1     - H1    
     4      2      7      1    1.2073e+02    5.2995e+02 ;     C4 - C2     - C7    
     4      2     21      1    1.1982e+02    3.7430e+02 ;     C4 - C2     - H2    
     4      5      9      1    1.2110e+02    5.1296e+02 ;     C4 - C5     - C9    
     5      3      8      1    1.2073e+02    5.2995e+02 ;     C5 - C3     - C8    
     5      3     22      1    1.1982e+02    3.7430e+02 ;     C5 - C3     - H3    
     5      9     12      1    1.2073e+02    5.2995e+02 ;     C5 - C9     - C12   
     5      9     16      1    1.2044e+02    5.3304e+02 ;     C5 - C9     - CL4   
     6      1     20      1    1.1988e+02    3.7572e+02 ;     C6 - C1     - H1    
     6     10      7      1    1.2002e+02    5.3279e+02 ;     C6 - C10    - C7    
     6     10     17      1    1.1938e+02    5.3605e+02 ;     C6 - C10    - CL5   
     7      2     21      1    1.1988e+02    3.7572e+02 ;     C7 - C2     - H2    
     7     10     17      1    1.1938e+02    5.3605e+02 ;     C7 - C10    - CL5   
     8      3     22      1    1.1988e+02    3.7572e+02 ;     C8 - C3     - H3    
     8     11     12      1    1.2002e+02    5.3279e+02 ;     C8 - C11    - C12   
     8     11     18      1    1.1938e+02    5.3605e+02 ;     C8 - C11    - CL6   
     9     12     11      1    1.2002e+02    5.3279e+02 ;     C9 - C12    - C11   
     9     12     19      1    1.1938e+02    5.3605e+02 ;     C9 - C12    - CL7   
    10      6     13      1    1.1938e+02    5.3605e+02 ;    C10 - C6     - CL1   
    10      7     14      1    1.1938e+02    5.3605e+02 ;    C10 - C7     - CL2   
    11      8     15      1    1.1938e+02    5.3605e+02 ;    C11 - C8     - CL3   
    11     12     19      1    1.1938e+02    5.3605e+02 ;    C11 - C12    - CL7   
    12      9     16      1    1.1938e+02    5.3605e+02 ;    C12 - C9     - CL4   
    12     11     18      1    1.1938e+02    5.3605e+02 ;    C12 - C11    - CL6   

[ dihedrals ] ; propers
; for gromacs 4.5 or higher, using funct 9
;    i      j      k      l   func   phase     kd      pn
     1      4      2      7      9   180.00  15.16700   2 ;     C1-    C4-    C2-    C7
     1      4      2     21      9   180.00  15.16700   2 ;     C1-    C4-    C2-    H2
     1      4      5      3      9   180.00   3.20076   2 ;     C1-    C4-    C5-    C3
     1      4      5      9      9   180.00   3.20076   2 ;     C1-    C4-    C5-    C9
     1      6     10      7      9   180.00  15.16700   2 ;     C1-    C6-   C10-    C7
     1      6     10     17      9   180.00  15.16700   2 ;     C1-    C6-   C10-   CL5
     2      4      5      3      9   180.00   3.20076   2 ;     C2-    C4-    C5-    C3
     2      4      5      9      9   180.00   3.20076   2 ;     C2-    C4-    C5-    C9
     2      7     10      6      9   180.00  15.16700   2 ;     C2-    C7-   C10-    C6
     2      7     10     17      9   180.00  15.16700   2 ;     C2-    C7-   C10-   CL5
     3      5      9     12      9   180.00  15.16700   2 ;     C3-    C5-    C9-   C12
     3      5      9     16      9   180.00  15.16700   2 ;     C3-    C5-    C9-   CL4
     3      8     11     12      9   180.00  15.16700   2 ;     C3-    C8-   C11-   C12
     3      8     11     18      9   180.00  15.16700   2 ;     C3-    C8-   C11-   CL6
     4      1      6     10      9   180.00  15.16700   2 ;     C4-    C1-    C6-   C10
     4      1      6     13      9   180.00  15.16700   2 ;     C4-    C1-    C6-   CL1
     4      2      7     10      9   180.00  15.16700   2 ;     C4-    C2-    C7-   C10
     4      2      7     14      9   180.00  15.16700   2 ;     C4-    C2-    C7-   CL2
     4      5      3      8      9   180.00  15.16700   2 ;     C4-    C5-    C3-    C8
     4      5      3     22      9   180.00  15.16700   2 ;     C4-    C5-    C3-    H3
     4      5      9     12      9   180.00  15.16700   2 ;     C4-    C5-    C9-   C12
     4      5      9     16      9   180.00  15.16700   2 ;     C4-    C5-    C9-   CL4
     5      3      8     11      9   180.00  15.16700   2 ;     C5-    C3-    C8-   C11
     5      3      8     15      9   180.00  15.16700   2 ;     C5-    C3-    C8-   CL3
     5      4      2      7      9   180.00  15.16700   2 ;     C5-    C4-    C2-    C7
     5      4      2     21      9   180.00  15.16700   2 ;     C5-    C4-    C2-    H2
     5      9     12     11      9   180.00  15.16700   2 ;     C5-    C9-   C12-   C11
     5      9     12     19      9   180.00  15.16700   2 ;     C5-    C9-   C12-   CL7
     6      1      4      2      9   180.00  15.16700   2 ;     C6-    C1-    C4-    C2
     6      1      4      5      9   180.00  15.16700   2 ;     C6-    C1-    C4-    C5
     6     10      7     14      9   180.00  15.16700   2 ;     C6-   C10-    C7-   CL2
     7     10      6     13      9   180.00  15.16700   2 ;     C7-   C10-    C6-   CL1
     8      3      5      9      9   180.00  15.16700   2 ;     C8-    C3-    C5-    C9
     8     11     12      9      9   180.00  15.16700   2 ;     C8-   C11-   C12-    C9
     8     11     12     19      9   180.00  15.16700   2 ;     C8-   C11-   C12-   CL7
     9      5      3     22      9   180.00  15.16700   2 ;     C9-    C5-    C3-    H3
     9     12     11     18      9   180.00  15.16700   2 ;     C9-   C12-   C11-   CL6
    10      7      2     21      9   180.00  15.16700   2 ;    C10-    C7-    C2-    H2
    11      8      3     22      9   180.00  15.16700   2 ;    C11-    C8-    C3-    H3
    11     12      9     16      9   180.00  15.16700   2 ;    C11-   C12-    C9-   CL4
    12     11      8     15      9   180.00  15.16700   2 ;    C12-   C11-    C8-   CL3
    13      6     10     17      9   180.00  15.16700   2 ;    CL1-    C6-   C10-   CL5
    14      7      2     21      9   180.00  15.16700   2 ;    CL2-    C7-    C2-    H2
    14      7     10     17      9   180.00  15.16700   2 ;    CL2-    C7-   C10-   CL5
    15      8      3     22      9   180.00  15.16700   2 ;    CL3-    C8-    C3-    H3
    15      8     11     18      9   180.00  15.16700   2 ;    CL3-    C8-   C11-   CL6
    16      9     12     19      9   180.00  15.16700   2 ;    CL4-    C9-   C12-   CL7
    18     11     12     19      9   180.00  15.16700   2 ;    CL6-   C11-   C12-   CL7
    20      1      4      2      9   180.00  15.16700   2 ;     H1-    C1-    C4-    C2
    20      1      4      5      9   180.00  15.16700   2 ;     H1-    C1-    C4-    C5
    20      1      6     10      9   180.00  15.16700   2 ;     H1-    C1-    C6-   C10
    20      1      6     13      9   180.00  15.16700   2 ;     H1-    C1-    C6-   CL1

[ dihedrals ] ; impropers
; treated as propers in GROMACS to use correct AMBER analytical function
;    i      j      k      l   func   phase     kd      pn
     1      2      4      5      4   180.00   4.60240   2 ;     C1-    C2-    C4-    C5
     1     10      6     13      4   180.00   4.60240   2 ;     C1-   C10-    C6-   CL1
     2     10      7     14      4   180.00   4.60240   2 ;     C2-   C10-    C7-   CL2
     3      9      5      4      4   180.00   4.60240   2 ;     C3-    C9-    C5-    C4
     3     11      8     15      4   180.00   4.60240   2 ;     C3-   C11-    C8-   CL3
     6      7     10     17      4   180.00   4.60240   2 ;     C6-    C7-   C10-   CL5
     7      4      2     21      4   180.00   4.60240   2 ;     C7-    C4-    C2-    H2
     8      5      3     22      4   180.00   4.60240   2 ;     C8-    C5-    C3-    H3
     8     12     11     18      4   180.00   4.60240   2 ;     C8-   C12-   C11-   CL6
     9     11     12     19      4   180.00   4.60240   2 ;     C9-   C11-   C12-   CL7
    12     16      9      5      4   180.00   4.60240   2 ;    C12-   CL4-    C9-    C5
    20      1      4      6      4   180.00   4.60240   2 ;     H1-    C1-    C4-    C6
