mobley_7497999_GMX.gro created by acpype (v: 2023.10.27) on Tue May 19 14:04:08 2026
 2402
    1MOL     C1    1   2.394   2.343   2.114
    1MOL     C2    2   2.287   2.403   2.181
    1MOL     C3    3   2.499   2.287   2.186
    1MOL     C4    4   2.285   2.406   2.321
    1MOL     C5    5   2.497   2.290   2.326
    1MOL     C6    6   2.390   2.349   2.393
    1MOL     C7    7   2.388   2.352   2.538
    1MOL     C8    8   2.272   2.418   2.612
    1MOL     O1    9   2.481   2.303   2.606
    1MOL     H1   10   2.395   2.341   2.005
    1MOL     H2   11   2.205   2.447   2.125
    1MOL     H3   12   2.582   2.240   2.134
    1MOL     H4   13   2.201   2.453   2.372
    1MOL     H5   14   2.579   2.245   2.381
    1MOL     H6   15   2.179   2.365   2.589
    1MOL     H7   16   2.265   2.523   2.585
    1MOL     H8   17   2.288   2.412   2.721
   14SOL     OW   18   1.460   1.505   1.339
   14SOL    HW1   19   1.484   1.599   1.365
   14SOL    HW2   20   1.444   1.451   1.421
   18SOL     OW   21   1.127   1.341   1.690
   18SOL    HW1   22   1.174   1.341   1.778
   18SOL    HW2   23   1.079   1.254   1.679
   35SOL     OW   24   1.187   1.792   1.616
   35SOL    HW1   25   1.211   1.852   1.540
   35SOL    HW2   26   1.194   1.697   1.586
   56SOL     OW   27   1.227   1.550   1.506
   56SOL    HW1   28   1.233   1.473   1.570
   56SOL    HW2   29   1.175   1.524   1.426
   95SOL     OW   30   1.754   1.223   1.588
   95SOL    HW1   31   1.845   1.184   1.575
   95SOL    HW2   32   1.762   1.319   1.612
   97SOL     OW   33   1.592   1.629   1.625
   97SOL    HW1   34   1.619   1.663   1.535
   97SOL    HW2   35   1.671   1.591   1.671
  122SOL     OW   36   1.728   0.935   1.854
  122SOL    HW1   37   1.682   0.928   1.765
  122SOL    HW2   38   1.666   0.979   1.920
  126SOL     OW   39   0.980   1.573   1.700
  126SOL    HW1   40   0.960   1.617   1.612
  126SOL    HW2   41   1.019   1.482   1.684
  127SOL     OW   42   1.859   1.518   1.605
  127SOL    HW1   43   1.873   1.545   1.510
  127SOL    HW2   44   1.942   1.540   1.658
  152SOL     OW   45   1.759   1.747   1.154
  152SOL    HW1   46   1.820   1.777   1.081
  152SOL    HW2   47   1.721   1.658   1.132
  153SOL     OW   48   1.252   1.731   1.128
  153SOL    HW1   49   1.336   1.736   1.074
  153SOL    HW2   50   1.229   1.635   1.146
  163SOL     OW   51   1.650   1.720   1.394
  163SOL    HW1   52   1.703   1.730   1.310
  163SOL    HW2   53   1.623   1.810   1.428
  171SOL     OW   54   1.614   1.292   1.289
  171SOL    HW1   55   1.674   1.295   1.369
  171SOL    HW2   56   1.539   1.356   1.302
  184SOL     OW   57   1.493   1.767   0.959
  184SOL    HW1   58   1.526   1.831   0.890
  184SOL    HW2   59   1.559   1.761   1.034
  186SOL     OW   60   1.450   1.220   1.633
  186SOL    HW1   61   1.441   1.210   1.732
  186SOL    HW2   62   1.546   1.213   1.607
  192SOL     OW   63   1.730   0.934   1.517
  192SOL    HW1   64   1.768   1.025   1.532
  192SOL    HW2   65   1.722   0.917   1.418
  197SOL     OW   66   1.861   1.569   0.851
  197SOL    HW1   67   1.790   1.557   0.781
  197SOL    HW2   68   1.862   1.490   0.911
  203SOL     OW   69   1.705   1.487   1.104
  203SOL    HW1   70   1.612   1.462   1.077
  203SOL    HW2   71   1.731   1.437   1.186
  219SOL     OW   72   1.555   1.511   2.565
  219SOL    HW1   73   1.498   1.495   2.646
  219SOL    HW2   74   1.496   1.521   2.485
  227SOL     OW   75   1.460   1.505   3.201
  227SOL    HW1   76   1.484   1.599   3.227
  227SOL    HW2   77   1.444   1.451   3.283
  238SOL     OW   78   1.842   1.767   2.221
  238SOL    HW1   79   1.896   1.738   2.301
  238SOL    HW2   80   1.872   1.857   2.192
  240SOL     OW   81   1.689   0.922   2.474
  240SOL    HW1   82   1.784   0.893   2.482
  240SOL    HW2   83   1.681   0.987   2.399
  241SOL     OW   84   1.641   1.108   2.294
  241SOL    HW1   85   1.727   1.110   2.242
  241SOL    HW2   86   1.655   1.155   2.382
  247SOL     OW   87   1.525   0.999   2.052
  247SOL    HW1   88   1.462   0.923   2.065
  247SOL    HW2   89   1.573   1.017   2.138
  248SOL     OW   90   1.187   1.792   3.478
  248SOL    HW1   91   1.211   1.852   3.402
  248SOL    HW2   92   1.194   1.697   3.448
  250SOL     OW   93   1.466   1.417   2.815
  250SOL    HW1   94   1.407   1.423   2.895
  250SOL    HW2   95   1.451   1.329   2.769
  251SOL     OW   96   1.667   1.714   2.434
  251SOL    HW1   97   1.626   1.691   2.346
  251SOL    HW2   98   1.649   1.640   2.499
  254SOL     OW   99   1.576   1.662   2.169
  254SOL    HW1  100   1.665   1.708   2.172
  254SOL    HW2  101   1.555   1.638   2.074
  264SOL     OW  102   1.362   1.144   2.407
  264SOL    HW1  103   1.445   1.115   2.359
  264SOL    HW2  104   1.313   1.211   2.351
  266SOL     OW  105   1.008   1.456   2.339
  266SOL    HW1  106   0.962   1.528   2.287
  266SOL    HW2  107   1.004   1.476   2.437
  268SOL     OW  108   1.795   1.066   2.735
  268SOL    HW1  109   1.733   1.051   2.659
  268SOL    HW2  110   1.743   1.077   2.820
  269SOL     OW  111   1.227   1.550   3.368
  269SOL    HW1  112   1.233   1.473   3.432
  269SOL    HW2  113   1.175   1.524   3.288
  273SOL     OW  114   1.111   1.776   2.099
  273SOL    HW1  115   1.051   1.714   2.149
  273SOL    HW2  116   1.142   1.732   2.014
  275SOL     OW  117   1.632   1.377   1.943
  275SOL    HW1  118   1.600   1.471   1.933
  275SOL    HW2  119   1.556   1.314   1.931
  279SOL     OW  120   0.940   1.698   2.766
  279SOL    HW1  121   1.020   1.641   2.787
  279SOL    HW2  122   0.891   1.658   2.689
  289SOL     OW  123   1.434   1.188   1.903
  289SOL    HW1  124   1.466   1.112   1.960
  289SOL    HW2  125   1.342   1.215   1.933
  293SOL     OW  126   1.227   1.570   2.655
  293SOL    HW1  127   1.248   1.644   2.590
  293SOL    HW2  128   1.295   1.570   2.728
  295SOL     OW  129   1.271   1.797   2.453
  295SOL    HW1  130   1.315   1.861   2.389
  295SOL    HW2  131   1.221   1.849   2.523
  301SOL     OW  132   1.429   1.173   2.729
  301SOL    HW1  133   1.374   1.089   2.722
  301SOL    HW2  134   1.455   1.202   2.637
  303SOL     OW  135   1.857   0.833   2.239
  303SOL    HW1  136   1.899   0.769   2.303
  303SOL    HW2  137   1.819   0.782   2.161
  305SOL     OW  138   1.664   1.280   2.519
  305SOL    HW1  139   1.763   1.288   2.533
  305SOL    HW2  140   1.619   1.364   2.550
  308SOL     OW  141   1.754   1.223   3.450
  308SOL    HW1  142   1.845   1.184   3.437
  308SOL    HW2  143   1.762   1.319   3.474
  310SOL     OW  144   1.592   1.629   3.487
  310SOL    HW1  145   1.619   1.663   3.397
  310SOL    HW2  146   1.671   1.591   3.533
  312SOL     OW  147   1.638   1.099   2.941
  312SOL    HW1  148   1.643   1.180   3.000
  312SOL    HW2  149   1.552   1.101   2.890
  321SOL     OW  150   1.252   1.348   2.250
  321SOL    HW1  151   1.302   1.425   2.290
  321SOL    HW2  152   1.157   1.350   2.282
  322SOL     OW  153   1.272   1.445   3.004
  322SOL    HW1  154   1.319   1.458   3.091
  322SOL    HW2  155   1.206   1.371   3.013
  340SOL     OW  156   1.859   1.518   3.467
  340SOL    HW1  157   1.873   1.545   3.372
  340SOL    HW2  158   1.942   1.540   3.520
  344SOL     OW  159   1.068   1.333   2.711
  344SOL    HW1  160   1.075   1.249   2.656
  344SOL    HW2  161   1.130   1.402   2.675
  365SOL     OW  162   1.759   1.747   3.016
  365SOL    HW1  163   1.820   1.777   2.943
  365SOL    HW2  164   1.721   1.658   2.994
  366SOL     OW  165   1.252   1.731   2.990
  366SOL    HW1  166   1.336   1.736   2.936
  366SOL    HW2  167   1.229   1.635   3.008
  370SOL     OW  168   1.388   1.573   2.339
  370SOL    HW1  169   1.455   1.585   2.265
  370SOL    HW2  170   1.348   1.662   2.362
  375SOL     OW  171   1.650   1.720   3.256
  375SOL    HW1  172   1.703   1.730   3.172
  375SOL    HW2  173   1.623   1.810   3.290
  378SOL     OW  174   1.194   1.612   1.893
  378SOL    HW1  175   1.200   1.519   1.930
  378SOL    HW2  176   1.135   1.612   1.813
  381SOL     OW  177   1.504   1.607   1.906
  381SOL    HW1  178   1.412   1.644   1.913
  381SOL    HW2  179   1.542   1.627   1.816
  383SOL     OW  180   1.614   1.292   3.151
  383SOL    HW1  181   1.674   1.295   3.231
  383SOL    HW2  182   1.539   1.356   3.164
  394SOL     OW  183   1.183   1.335   1.981
  394SOL    HW1  184   1.084   1.324   1.983
  394SOL    HW2  185   1.217   1.350   2.074
  396SOL     OW  186   1.493   1.767   2.821
  396SOL    HW1  187   1.526   1.831   2.752
  396SOL    HW2  188   1.559   1.761   2.896
  400SOL     OW  189   1.674   0.883   3.116
  400SOL    HW1  190   1.647   0.794   3.079
  400SOL    HW2  191   1.675   0.951   3.043
  409SOL     OW  192   1.861   1.569   2.713
  409SOL    HW1  193   1.790   1.557   2.643
  409SOL    HW2  194   1.862   1.490   2.773
  415SOL     OW  195   1.705   1.487   2.966
  415SOL    HW1  196   1.612   1.462   2.939
  415SOL    HW2  197   1.731   1.437   3.048
  417SOL     OW  198   0.812   1.586   2.549
  417SOL    HW1  199   0.844   1.596   2.455
  417SOL    HW2  200   0.733   1.524   2.551
  426SOL     OW  201   0.875   1.646   2.199
  426SOL    HW1  202   0.798   1.611   2.145
  426SOL    HW2  203   0.843   1.717   2.261
  544SOL     OW  204   0.850   2.660   1.823
  544SOL    HW1  205   0.846   2.736   1.888
  544SOL    HW2  206   0.872   2.696   1.732
  548SOL     OW  207   1.460   3.367   1.339
  548SOL    HW1  208   1.484   3.461   1.365
  548SOL    HW2  209   1.444   3.313   1.421
  550SOL     OW  210   1.603   2.309   0.737
  550SOL    HW1  211   1.529   2.355   0.687
  550SOL    HW2  212   1.654   2.377   0.790
  552SOL     OW  213   1.127   3.203   1.690
  552SOL    HW1  214   1.174   3.203   1.778
  552SOL    HW2  215   1.079   3.116   1.679
  557SOL     OW  216   1.594   1.976   1.480
  557SOL    HW1  217   1.576   2.043   1.408
  557SOL    HW2  218   1.591   2.022   1.569
  565SOL     OW  219   1.293   3.090   1.423
  565SOL    HW1  220   1.330   3.017   1.365
  565SOL    HW2  221   1.345   3.095   1.508
  574SOL     OW  222   1.281   2.207   0.944
  574SOL    HW1  223   1.195   2.157   0.931
  574SOL    HW2  224   1.343   2.153   1.000
  577SOL     OW  225   1.394   2.331   1.674
  577SOL    HW1  226   1.374   2.374   1.762
  577SOL    HW2  227   1.472   2.269   1.683
  578SOL     OW  228   0.973   2.752   1.572
  578SOL    HW1  229   1.019   2.668   1.543
  578SOL    HW2  230   0.917   2.786   1.497
  579SOL     OW  231   0.991   2.272   1.242
  579SOL    HW1  232   0.914   2.306   1.296
  579SOL    HW2  233   0.957   2.221   1.163
  584SOL     OW  234   1.719   2.447   1.831
  584SOL    HW1  235   1.693   2.536   1.795
  584SOL    HW2  236   1.717   2.379   1.758
  589SOL     OW  237   1.795   2.928   0.873
  589SOL    HW1  238   1.733   2.913   0.797
  589SOL    HW2  239   1.743   2.939   0.958
  590SOL     OW  240   1.227   3.412   1.506
  590SOL    HW1  241   1.233   3.335   1.570
  590SOL    HW2  242   1.175   3.386   1.426
  602SOL     OW  243   1.547   2.084   1.729
  602SOL    HW1  244   1.542   2.121   1.821
  602SOL    HW2  245   1.475   2.015   1.717
  603SOL     OW  246   0.781   2.126   1.749
  603SOL    HW1  247   0.848   2.065   1.792
  603SOL    HW2  248   0.708   2.145   1.814
  605SOL     OW  249   1.351   2.452   1.433
  605SOL    HW1  250   1.379   2.409   1.518
  605SOL    HW2  251   1.376   2.548   1.434
  612SOL     OW  252   1.076   2.545   1.464
  612SOL    HW1  253   0.996   2.484   1.467
  612SOL    HW2  254   1.157   2.492   1.440
  622SOL     OW  255   1.466   2.452   0.992
  622SOL    HW1  256   1.436   2.357   0.999
  622SOL    HW2  257   1.539   2.468   1.058
  628SOL     OW  258   1.754   3.085   1.588
  628SOL    HW1  259   1.845   3.046   1.575
  628SOL    HW2  260   1.762   3.181   1.612
  630SOL     OW  261   1.592   3.491   1.625
  630SOL    HW1  262   1.619   3.525   1.535
  630SOL    HW2  263   1.671   3.453   1.671
  632SOL     OW  264   1.638   2.961   1.079
  632SOL    HW1  265   1.643   3.042   1.138
  632SOL    HW2  266   1.552   2.963   1.028
  633SOL     OW  267   0.915   1.951   1.402
  633SOL    HW1  268   0.940   1.931   1.307
  633SOL    HW2  269   0.987   2.007   1.444
  634SOL     OW  270   0.980   2.978   1.719
  634SOL    HW1  271   0.881   2.984   1.729
  634SOL    HW2  272   1.003   2.898   1.663
  637SOL     OW  273   1.274   2.248   1.262
  637SOL    HW1  274   1.295   2.322   1.326
  637SOL    HW2  275   1.185   2.265   1.219
  646SOL     OW  276   1.587   2.641   1.670
  646SOL    HW1  277   1.495   2.679   1.665
  646SOL    HW2  278   1.647   2.688   1.605
  647SOL     OW  279   1.013   1.967   1.770
  647SOL    HW1  280   1.019   2.052   1.718
  647SOL    HW2  281   1.045   1.891   1.713
  650SOL     OW  282   1.360   2.724   1.045
  650SOL    HW1  283   1.285   2.724   0.979
  650SOL    HW2  284   1.397   2.632   1.054
  655SOL     OW  285   1.728   2.797   1.854
  655SOL    HW1  286   1.682   2.790   1.765
  655SOL    HW2  287   1.666   2.841   1.920
  660SOL     OW  288   1.859   3.380   1.605
  660SOL    HW1  289   1.873   3.407   1.510
  660SOL    HW2  290   1.942   3.402   1.658
  667SOL     OW  291   1.138   2.242   1.678
  667SOL    HW1  292   1.093   2.305   1.742
  667SOL    HW2  293   1.231   2.273   1.661
  668SOL     OW  294   1.160   2.069   1.477
  668SOL    HW1  295   1.160   2.133   1.554
  668SOL    HW2  296   1.188   2.117   1.394
  672SOL     OW  297   1.002   2.658   1.238
  672SOL    HW1  298   1.043   2.626   1.324
  672SOL    HW2  299   0.906   2.631   1.235
  675SOL     OW  300   1.369   2.812   1.660
  675SOL    HW1  301   1.408   2.901   1.680
  675SOL    HW2  302   1.379   2.792   1.563
  677SOL     OW  303   1.657   2.466   1.206
  677SOL    HW1  304   1.619   2.397   1.268
  677SOL    HW2  305   1.739   2.430   1.162
  683SOL     OW  306   1.347   2.921   1.234
  683SOL    HW1  307   1.371   2.858   1.160
  683SOL    HW2  308   1.257   2.961   1.216
  696SOL     OW  309   1.650   3.582   1.394
  696SOL    HW1  310   1.703   3.592   1.310
  696SOL    HW2  311   1.623   3.672   1.428
  697SOL     OW  312   1.841   2.037   0.963
  697SOL    HW1  313   1.880   1.952   0.927
  697SOL    HW2  314   1.743   2.039   0.944
  704SOL     OW  315   1.614   3.154   1.289
  704SOL    HW1  316   1.674   3.157   1.369
  704SOL    HW2  317   1.539   3.218   1.302
  708SOL     OW  318   1.709   2.247   1.381
  708SOL    HW1  319   1.782   2.316   1.385
  708SOL    HW2  320   1.737   2.172   1.322
  713SOL     OW  321   1.440   2.718   1.398
  713SOL    HW1  322   1.383   2.770   1.335
  713SOL    HW2  323   1.536   2.730   1.374
  718SOL     OW  324   0.716   2.427   1.708
  718SOL    HW1  325   0.735   2.492   1.782
  718SOL    HW2  326   0.776   2.347   1.717
  719SOL     OW  327   1.450   3.082   1.633
  719SOL    HW1  328   1.441   3.072   1.732
  719SOL    HW2  329   1.546   3.075   1.607
  721SOL     OW  330   1.674   2.745   1.254
  721SOL    HW1  331   1.647   2.656   1.217
  721SOL    HW2  332   1.675   2.813   1.181
  724SOL     OW  333   1.777   2.204   1.642
  724SOL    HW1  334   1.760   2.235   1.548
  724SOL    HW2  335   1.693   2.167   1.680
  725SOL     OW  336   1.730   2.796   1.517
  725SOL    HW1  337   1.768   2.887   1.532
  725SOL    HW2  338   1.722   2.779   1.418
  734SOL     OW  339   1.824   2.054   1.227
  734SOL    HW1  340   1.820   1.964   1.271
  734SOL    HW2  341   1.827   2.043   1.128
  736SOL     OW  342   1.705   3.349   1.104
  736SOL    HW1  343   1.612   3.324   1.077
  736SOL    HW2  344   1.731   3.299   1.186
  739SOL     OW  345   1.424   2.076   1.112
  739SOL    HW1  346   1.476   2.011   1.167
  739SOL    HW2  347   1.375   2.139   1.173
  745SOL     OW  348   1.593   2.083   0.882
  745SOL    HW1  349   1.509   2.082   0.936
  745SOL    HW2  350   1.595   2.166   0.826
  752SOL     OW  351   1.555   3.373   2.565
  752SOL    HW1  352   1.498   3.357   2.646
  752SOL    HW2  353   1.496   3.383   2.485
  753SOL     OW  354   1.135   2.565   2.579
  753SOL    HW1  355   1.192   2.643   2.554
  753SOL    HW2  356   1.075   2.591   2.655
  754SOL     OW  357   1.755   2.469   2.093
  754SOL    HW1  358   1.743   2.456   1.994
  754SOL    HW2  359   1.725   2.388   2.142
  755SOL     OW  360   0.768   3.006   2.885
  755SOL    HW1  361   0.690   3.023   2.945
  755SOL    HW2  362   0.802   3.093   2.849
  757SOL     OW  363   0.685   2.874   2.527
  757SOL    HW1  364   0.754   2.858   2.597
  757SOL    HW2  365   0.612   2.931   2.565
  760SOL     OW  366   1.460   3.367   3.201
  760SOL    HW1  367   1.484   3.461   3.227
  760SOL    HW2  368   1.444   3.313   3.283
  762SOL     OW  369   1.603   2.309   2.599
  762SOL    HW1  370   1.529   2.355   2.549
  762SOL    HW2  371   1.654   2.377   2.652
  769SOL     OW  372   1.594   1.976   3.342
  769SOL    HW1  373   1.576   2.043   3.270
  769SOL    HW2  374   1.591   2.022   3.431
  771SOL     OW  375   1.842   3.629   2.221
  771SOL    HW1  376   1.896   3.600   2.301
  771SOL    HW2  377   1.872   3.719   2.192
  773SOL     OW  378   1.689   2.784   2.474
  773SOL    HW1  379   1.784   2.755   2.482
  773SOL    HW2  380   1.681   2.849   2.399
  774SOL     OW  381   1.641   2.970   2.294
  774SOL    HW1  382   1.727   2.972   2.242
  774SOL    HW2  383   1.655   3.017   2.382
  777SOL     OW  384   1.293   3.090   3.285
  777SOL    HW1  385   1.330   3.017   3.227
  777SOL    HW2  386   1.345   3.095   3.370
  778SOL     OW  387   0.809   1.866   2.364
  778SOL    HW1  388   0.849   1.957   2.355
  778SOL    HW2  389   0.709   1.874   2.370
  780SOL     OW  390   1.525   2.861   2.052
  780SOL    HW1  391   1.462   2.785   2.065
  780SOL    HW2  392   1.573   2.879   2.138
  783SOL     OW  393   1.466   3.279   2.815
  783SOL    HW1  394   1.407   3.285   2.895
  783SOL    HW2  395   1.451   3.191   2.769
  784SOL     OW  396   1.667   3.576   2.434
  784SOL    HW1  397   1.626   3.553   2.346
  784SOL    HW2  398   1.649   3.502   2.499
  785SOL     OW  399   0.598   2.591   2.132
  785SOL    HW1  400   0.622   2.660   2.064
  785SOL    HW2  401   0.520   2.624   2.186
  786SOL     OW  402   1.281   2.207   2.806
  786SOL    HW1  403   1.195   2.157   2.793
  786SOL    HW2  404   1.343   2.153   2.862
  787SOL     OW  405   1.576   3.524   2.169
  787SOL    HW1  406   1.665   3.570   2.172
  787SOL    HW2  407   1.555   3.500   2.074
  789SOL     OW  408   1.394   2.331   3.536
  789SOL    HW1  409   1.374   2.374   3.624
  789SOL    HW2  410   1.472   2.269   3.545
  790SOL     OW  411   0.973   2.752   3.434
  790SOL    HW1  412   1.019   2.668   3.405
  790SOL    HW2  413   0.917   2.786   3.359
  791SOL     OW  414   0.991   2.272   3.104
  791SOL    HW1  415   0.914   2.306   3.158
  791SOL    HW2  416   0.957   2.221   3.025
  792SOL     OW  417   1.041   2.563   2.291
  792SOL    HW1  418   1.067   2.559   2.387
  792SOL    HW2  419   0.956   2.512   2.277
  795SOL     OW  420   0.865   2.210   2.057
  795SOL    HW1  421   0.924   2.273   2.008
  795SOL    HW2  422   0.884   2.116   2.028
  796SOL     OW  423   1.719   2.447   3.693
  796SOL    HW1  424   1.693   2.536   3.657
  796SOL    HW2  425   1.717   2.379   3.620
  797SOL     OW  426   1.362   3.006   2.407
  797SOL    HW1  427   1.445   2.977   2.359
  797SOL    HW2  428   1.313   3.073   2.351
  799SOL     OW  429   1.008   3.318   2.339
  799SOL    HW1  430   0.962   3.390   2.287
  799SOL    HW2  431   1.004   3.338   2.437
  801SOL     OW  432   1.795   2.928   2.735
  801SOL    HW1  433   1.733   2.913   2.659
  801SOL    HW2  434   1.743   2.939   2.820
  804SOL     OW  435   1.458   2.597   2.590
  804SOL    HW1  436   1.453   2.532   2.665
  804SOL    HW2  437   1.538   2.656   2.603
  808SOL     OW  438   1.632   3.239   1.943
  808SOL    HW1  439   1.600   3.333   1.933
  808SOL    HW2  440   1.556   3.176   1.931
  810SOL     OW  441   1.400   1.969   2.288
  810SOL    HW1  442   1.376   1.932   2.198
  810SOL    HW2  443   1.499   1.985   2.292
  814SOL     OW  444   1.547   2.084   3.591
  814SOL    HW1  445   1.542   2.121   3.683
  814SOL    HW2  446   1.475   2.015   3.579
  818SOL     OW  447   1.351   2.452   3.295
  818SOL    HW1  448   1.379   2.409   3.380
  818SOL    HW2  449   1.376   2.548   3.296
  820SOL     OW  450   0.922   2.365   2.761
  820SOL    HW1  451   0.897   2.356   2.665
  820SOL    HW2  452   0.970   2.283   2.792
  822SOL     OW  453   1.434   3.050   1.903
  822SOL    HW1  454   1.466   2.974   1.960
  822SOL    HW2  455   1.342   3.077   1.933
  824SOL     OW  456   0.935   2.098   2.342
  824SOL    HW1  457   0.887   2.139   2.264
  824SOL    HW2  458   1.034   2.096   2.323
  825SOL     OW  459   1.076   2.545   3.326
  825SOL    HW1  460   0.996   2.484   3.329
  825SOL    HW2  461   1.157   2.492   3.302
  826SOL     OW  462   1.227   3.432   2.655
  826SOL    HW1  463   1.248   3.506   2.590
  826SOL    HW2  464   1.295   3.432   2.728
  828SOL     OW  465   1.271   3.659   2.453
  828SOL    HW1  466   1.315   3.723   2.389
  828SOL    HW2  467   1.221   3.711   2.523
  829SOL     OW  468   1.032   2.411   1.878
  829SOL    HW1  469   0.991   2.493   1.839
  829SOL    HW2  470   1.096   2.437   1.951
  832SOL     OW  471   0.866   2.316   2.504
  832SOL    HW1  472   0.834   2.388   2.442
  832SOL    HW2  473   0.890   2.235   2.451
  833SOL     OW  474   1.017   1.901   2.615
  833SOL    HW1  475   0.945   1.906   2.546
  833SOL    HW2  476   0.993   1.832   2.684
  834SOL     OW  477   1.429   3.035   2.729
  834SOL    HW1  478   1.374   2.951   2.722
  834SOL    HW2  479   1.455   3.064   2.637
  835SOL     OW  480   1.466   2.452   2.854
  835SOL    HW1  481   1.436   2.357   2.861
  835SOL    HW2  482   1.539   2.468   2.920
  836SOL     OW  483   1.857   2.695   2.239
  836SOL    HW1  484   1.899   2.631   2.303
  836SOL    HW2  485   1.819   2.644   2.161
  838SOL     OW  486   1.664   3.142   2.519
  838SOL    HW1  487   1.763   3.150   2.533
  838SOL    HW2  488   1.619   3.226   2.550
  839SOL     OW  489   1.390   2.437   1.940
  839SOL    HW1  490   1.336   2.416   2.021
  839SOL    HW2  491   1.481   2.396   1.949
  841SOL     OW  492   1.754   3.085   3.450
  841SOL    HW1  493   1.845   3.046   3.437
  841SOL    HW2  494   1.762   3.181   3.474
  842SOL     OW  495   1.064   3.209   3.202
  842SOL    HW1  496   0.984   3.186   3.257
  842SOL    HW2  497   1.147   3.183   3.251
  843SOL     OW  498   1.592   3.491   3.487
  843SOL    HW1  499   1.619   3.525   3.397
  843SOL    HW2  500   1.671   3.453   3.533
  844SOL     OW  501   1.111   3.057   2.962
  844SOL    HW1  502   1.071   3.101   3.043
  844SOL    HW2  503   1.070   3.094   2.879
  845SOL     OW  504   1.638   2.961   2.941
  845SOL    HW1  505   1.643   3.042   3.000
  845SOL    HW2  506   1.552   2.963   2.890
  846SOL     OW  507   0.915   1.951   3.264
  846SOL    HW1  508   0.940   1.931   3.169
  846SOL    HW2  509   0.987   2.007   3.306
  848SOL     OW  510   0.705   2.912   2.230
  848SOL    HW1  511   0.691   2.919   2.329
  848SOL    HW2  512   0.789   2.861   2.212
  850SOL     OW  513   1.274   2.248   3.124
  850SOL    HW1  514   1.295   2.322   3.188
  850SOL    HW2  515   1.185   2.265   3.081
  854SOL     OW  516   1.252   3.210   2.250
  854SOL    HW1  517   1.302   3.287   2.290
  854SOL    HW2  518   1.157   3.212   2.282
  855SOL     OW  519   1.272   3.307   3.004
  855SOL    HW1  520   1.319   3.320   3.091
  855SOL    HW2  521   1.206   3.233   3.013
  856SOL     OW  522   1.582   2.501   2.334
  856SOL    HW1  523   1.551   2.562   2.407
  856SOL    HW2  524   1.632   2.553   2.265
  859SOL     OW  525   1.587   2.641   3.532
  859SOL    HW1  526   1.495   2.679   3.527
  859SOL    HW2  527   1.647   2.688   3.467
  863SOL     OW  528   1.360   2.724   2.907
  863SOL    HW1  529   1.285   2.724   2.841
  863SOL    HW2  530   1.397   2.632   2.916
  864SOL     OW  531   1.209   2.387   2.137
  864SOL    HW1  532   1.222   2.303   2.191
  864SOL    HW2  533   1.180   2.461   2.197
  867SOL     OW  534   0.732   2.496   2.926
  867SOL    HW1  535   0.791   2.470   2.850
  867SOL    HW2  536   0.704   2.592   2.915
  868SOL     OW  537   1.728   2.797   3.716
  868SOL    HW1  538   1.682   2.790   3.627
  868SOL    HW2  539   1.666   2.841   3.782
  870SOL     OW  540   1.622   2.229   2.236
  870SOL    HW1  541   1.624   2.153   2.300
  870SOL    HW2  542   1.574   2.306   2.276
  871SOL     OW  543   1.023   2.628   2.828
  871SOL    HW1  544   1.038   2.649   2.924
  871SOL    HW2  545   0.993   2.533   2.819
  873SOL     OW  546   1.859   3.380   3.467
  873SOL    HW1  547   1.873   3.407   3.372
  873SOL    HW2  548   1.942   3.402   3.520
  875SOL     OW  549   1.540   2.136   1.987
  875SOL    HW1  550   1.479   2.061   2.010
  875SOL    HW2  551   1.562   2.188   2.070
  876SOL     OW  552   1.303   2.700   1.904
  876SOL    HW1  553   1.337   2.607   1.919
  876SOL    HW2  554   1.321   2.727   1.809
  877SOL     OW  555   1.068   3.195   2.711
  877SOL    HW1  556   1.075   3.111   2.656
  877SOL    HW2  557   1.130   3.264   2.675
  880SOL     OW  558   1.138   2.242   3.540
  880SOL    HW1  559   1.093   2.305   3.604
  880SOL    HW2  560   1.231   2.273   3.523
  881SOL     OW  561   1.160   2.069   3.339
  881SOL    HW1  562   1.160   2.133   3.416
  881SOL    HW2  563   1.188   2.117   3.256
  885SOL     OW  564   1.002   2.658   3.100
  885SOL    HW1  565   1.043   2.626   3.186
  885SOL    HW2  566   0.906   2.631   3.097
  888SOL     OW  567   1.369   2.812   3.522
  888SOL    HW1  568   1.408   2.901   3.542
  888SOL    HW2  569   1.379   2.792   3.425
  889SOL     OW  570   0.815   2.434   2.187
  889SOL    HW1  571   0.822   2.345   2.141
  889SOL    HW2  572   0.721   2.468   2.179
  890SOL     OW  573   1.657   2.466   3.068
  890SOL    HW1  574   1.619   2.397   3.130
  890SOL    HW2  575   1.739   2.430   3.024
  896SOL     OW  576   1.347   2.921   3.096
  896SOL    HW1  577   1.371   2.858   3.022
  896SOL    HW2  578   1.257   2.961   3.078
  897SOL     OW  579   1.302   2.717   2.171
  897SOL    HW1  580   1.216   2.686   2.213
  897SOL    HW2  581   1.298   2.703   2.072
  898SOL     OW  582   1.759   3.609   3.016
  898SOL    HW1  583   1.820   3.639   2.943
  898SOL    HW2  584   1.721   3.520   2.994
  899SOL     OW  585   1.252   3.593   2.990
  899SOL    HW1  586   1.336   3.598   2.936
  899SOL    HW2  587   1.229   3.497   3.008
  902SOL     OW  588   1.726   1.997   2.385
  902SOL    HW1  589   1.799   1.980   2.318
  902SOL    HW2  590   1.695   1.910   2.423
  903SOL     OW  591   1.388   3.435   2.339
  903SOL    HW1  592   1.455   3.447   2.265
  903SOL    HW2  593   1.348   3.524   2.362
  905SOL     OW  594   1.280   2.789   2.534
  905SOL    HW1  595   1.340   2.708   2.536
  905SOL    HW2  596   1.320   2.858   2.474
  908SOL     OW  597   1.650   3.582   3.256
  908SOL    HW1  598   1.703   3.592   3.172
  908SOL    HW2  599   1.623   3.672   3.290
  909SOL     OW  600   1.841   2.037   2.825
  909SOL    HW1  601   1.880   1.952   2.789
  909SOL    HW2  602   1.743   2.039   2.806
  911SOL     OW  603   1.194   3.474   1.893
  911SOL    HW1  604   1.200   3.381   1.930
  911SOL    HW2  605   1.135   3.474   1.813
  913SOL     OW  606   0.916   2.772   2.153
  913SOL    HW1  607   0.979   2.810   2.085
  913SOL    HW2  608   0.956   2.689   2.192
  914SOL     OW  609   1.504   3.469   1.906
  914SOL    HW1  610   1.412   3.506   1.913
  914SOL    HW2  611   1.542   3.489   1.816
  916SOL     OW  612   1.614   3.154   3.151
  916SOL    HW1  613   1.674   3.157   3.231
  916SOL    HW2  614   1.539   3.218   3.164
  917SOL     OW  615   1.039   2.960   2.558
  917SOL    HW1  616   0.969   2.913   2.612
  917SOL    HW2  617   1.098   2.892   2.515
  918SOL     OW  618   1.014   2.098   2.833
  918SOL    HW1  619   1.006   2.062   2.740
  918SOL    HW2  620   1.012   2.022   2.898
  920SOL     OW  621   1.709   2.247   3.243
  920SOL    HW1  622   1.782   2.316   3.247
  920SOL    HW2  623   1.737   2.172   3.184
  925SOL     OW  624   1.440   2.718   3.260
  925SOL    HW1  625   1.383   2.770   3.197
  925SOL    HW2  626   1.536   2.730   3.236
  927SOL     OW  627   1.183   3.197   1.981
  927SOL    HW1  628   1.084   3.186   1.983
  927SOL    HW2  629   1.217   3.212   2.074
  929SOL     OW  630   1.493   3.629   2.821
  929SOL    HW1  631   1.526   3.693   2.752
  929SOL    HW2  632   1.559   3.623   2.896
  931SOL     OW  633   1.450   3.082   3.495
  931SOL    HW1  634   1.441   3.072   3.594
  931SOL    HW2  635   1.546   3.075   3.469
  933SOL     OW  636   1.674   2.745   3.116
  933SOL    HW1  637   1.647   2.656   3.079
  933SOL    HW2  638   1.675   2.813   3.043
  934SOL     OW  639   1.225   2.187   2.311
  934SOL    HW1  640   1.290   2.113   2.300
  934SOL    HW2  641   1.245   2.237   2.395
  935SOL     OW  642   0.594   2.607   2.514
  935SOL    HW1  643   0.644   2.692   2.495
  935SOL    HW2  644   0.506   2.609   2.466
  936SOL     OW  645   1.777   2.204   3.504
  936SOL    HW1  646   1.760   2.235   3.410
  936SOL    HW2  647   1.693   2.167   3.542
  937SOL     OW  648   1.730   2.796   3.379
  937SOL    HW1  649   1.768   2.887   3.394
  937SOL    HW2  650   1.722   2.779   3.280
  940SOL     OW  651   0.859   2.818   2.723
  940SOL    HW1  652   0.913   2.749   2.771
  940SOL    HW2  653   0.827   2.887   2.789
  941SOL     OW  654   1.083   2.846   1.949
  941SOL    HW1  655   1.060   2.899   1.867
  941SOL    HW2  656   1.164   2.790   1.930
  942SOL     OW  657   1.861   3.431   2.713
  942SOL    HW1  658   1.790   3.419   2.643
  942SOL    HW2  659   1.862   3.352   2.773
  946SOL     OW  660   1.824   2.054   3.089
  946SOL    HW1  661   1.820   1.964   3.133
  946SOL    HW2  662   1.827   2.043   2.990
  948SOL     OW  663   1.705   3.349   2.966
  948SOL    HW1  664   1.612   3.324   2.939
  948SOL    HW2  665   1.731   3.299   3.048
  951SOL     OW  666   1.424   2.076   2.974
  951SOL    HW1  667   1.476   2.011   3.029
  951SOL    HW2  668   1.375   2.139   3.035
  952SOL     OW  669   1.001   1.896   3.016
  952SOL    HW1  670   0.938   1.824   2.985
  952SOL    HW2  671   1.094   1.860   3.016
  955SOL     OW  672   1.352   1.914   2.030
  955SOL    HW1  673   1.387   1.873   1.946
  955SOL    HW2  674   1.262   1.876   2.050
  956SOL     OW  675   1.300   2.315   2.553
  956SOL    HW1  676   1.241   2.395   2.557
  956SOL    HW2  677   1.315   2.280   2.646
  957SOL     OW  678   1.593   2.083   2.744
  957SOL    HW1  679   1.509   2.082   2.798
  957SOL    HW2  680   1.595   2.166   2.688
  964SOL     OW  681   1.755   2.469   3.955
  964SOL    HW1  682   1.743   2.456   3.856
  964SOL    HW2  683   1.725   2.388   4.004
 1015SOL     OW  684   1.390   2.437   3.802
 1015SOL    HW1  685   1.336   2.416   3.883
 1015SOL    HW2  686   1.481   2.396   3.811
 1026SOL     OW  687   1.540   2.136   3.849
 1026SOL    HW1  688   1.479   2.061   3.872
 1026SOL    HW2  689   1.562   2.188   3.932
 1027SOL     OW  690   1.303   2.700   3.766
 1027SOL    HW1  691   1.337   2.607   3.781
 1027SOL    HW2  692   1.321   2.727   3.671
 1212SOL     OW  693   1.400   3.831   2.288
 1212SOL    HW1  694   1.376   3.794   2.198
 1212SOL    HW2  695   1.499   3.847   2.292
 1269SOL     OW  696   1.726   3.859   2.385
 1269SOL    HW1  697   1.799   3.842   2.318
 1269SOL    HW2  698   1.695   3.772   2.423
 1271SOL     OW  699   1.841   3.899   2.825
 1271SOL    HW1  700   1.880   3.814   2.789
 1271SOL    HW2  701   1.743   3.901   2.806
 1288SOL     OW  702   1.824   3.916   3.089
 1288SOL    HW1  703   1.820   3.826   3.133
 1288SOL    HW2  704   1.827   3.905   2.990
 1293SOL     OW  705   1.352   3.776   2.030
 1293SOL    HW1  706   1.387   3.735   1.946
 1293SOL    HW2  707   1.262   3.738   2.050
 1357SOL     OW  708   2.431   1.275   1.165
 1357SOL    HW1  709   2.338   1.268   1.128
 1357SOL    HW2  710   2.442   1.364   1.209
 1362SOL     OW  711   2.712   0.798   1.823
 1362SOL    HW1  712   2.708   0.874   1.888
 1362SOL    HW2  713   2.734   0.834   1.732
 1364SOL     OW  714   2.548   1.161   1.803
 1364SOL    HW1  715   2.608   1.240   1.817
 1364SOL    HW2  716   2.462   1.192   1.762
 1365SOL     OW  717   2.197   1.435   1.061
 1365SOL    HW1  718   2.119   1.404   1.008
 1365SOL    HW2  719   2.255   1.493   1.004
 1366SOL     OW  720   3.322   1.505   1.339
 1366SOL    HW1  721   3.346   1.599   1.365
 1366SOL    HW2  722   3.306   1.451   1.421
 1370SOL     OW  723   2.989   1.341   1.690
 1370SOL    HW1  724   3.036   1.341   1.778
 1370SOL    HW2  725   2.941   1.254   1.679
 1373SOL     OW  726   2.482   1.786   1.439
 1373SOL    HW1  727   2.390   1.769   1.474
 1373SOL    HW2  728   2.510   1.878   1.465
 1382SOL     OW  729   3.155   1.228   1.423
 1382SOL    HW1  730   3.192   1.155   1.365
 1382SOL    HW2  731   3.207   1.233   1.508
 1384SOL     OW  732   2.059   0.976   1.264
 1384SOL    HW1  733   2.148   0.931   1.250
 1384SOL    HW2  734   1.986   0.911   1.245
 1386SOL     OW  735   3.049   1.792   1.616
 1386SOL    HW1  736   3.073   1.852   1.540
 1386SOL    HW2  737   3.056   1.697   1.586
 1395SOL     OW  738   2.835   0.890   1.572
 1395SOL    HW1  739   2.881   0.806   1.543
 1395SOL    HW2  740   2.779   0.924   1.497
 1399SOL     OW  741   1.992   1.821   1.571
 1399SOL    HW1  742   1.982   1.806   1.670
 1399SOL    HW2  743   1.906   1.857   1.535
 1405SOL     OW  744   2.213   1.801   0.853
 1405SOL    HW1  745   2.263   1.715   0.859
 1405SOL    HW2  746   2.278   1.878   0.850
 1407SOL     OW  747   3.089   1.550   1.506
 1407SOL    HW1  748   3.095   1.473   1.570
 1407SOL    HW2  749   3.037   1.524   1.426
 1410SOL     OW  750   2.323   1.266   1.727
 1410SOL    HW1  751   2.273   1.267   1.641
 1410SOL    HW2  752   2.260   1.248   1.803
 1416SOL     OW  753   2.111   1.785   1.241
 1416SOL    HW1  754   2.168   1.720   1.291
 1416SOL    HW2  755   2.095   1.752   1.148
 1417SOL     OW  756   2.802   1.698   0.904
 1417SOL    HW1  757   2.882   1.641   0.925
 1417SOL    HW2  758   2.753   1.658   0.827
 1422SOL     OW  759   2.750   1.514   1.195
 1422SOL    HW1  760   2.727   1.489   1.101
 1422SOL    HW2  761   2.811   1.445   1.234
 1424SOL     OW  762   2.665   1.402   0.924
 1424SOL    HW1  763   2.755   1.416   0.882
 1424SOL    HW2  764   2.594   1.404   0.853
 1447SOL     OW  765   2.926   1.347   1.340
 1447SOL    HW1  766   2.846   1.324   1.395
 1447SOL    HW2  767   3.009   1.321   1.389
 1448SOL     OW  768   3.454   1.629   1.625
 1448SOL    HW1  769   3.481   1.663   1.535
 1448SOL    HW2  770   3.533   1.591   1.671
 1452SOL     OW  771   2.842   1.116   1.719
 1452SOL    HW1  772   2.743   1.122   1.729
 1452SOL    HW2  773   2.865   1.036   1.663
 1456SOL     OW  774   1.926   1.564   1.331
 1456SOL    HW1  775   1.880   1.646   1.297
 1456SOL    HW2  776   2.024   1.583   1.340
 1460SOL     OW  777   3.134   1.445   1.142
 1460SOL    HW1  778   3.181   1.458   1.229
 1460SOL    HW2  779   3.068   1.371   1.151
 1462SOL     OW  780   2.216   1.510   1.329
 1462SOL    HW1  781   2.195   1.466   1.242
 1462SOL    HW2  782   2.313   1.536   1.332
 1463SOL     OW  783   2.264   0.751   1.598
 1463SOL    HW1  784   2.332   0.806   1.551
 1463SOL    HW2  785   2.304   0.663   1.625
 1471SOL     OW  786   1.899   1.310   1.282
 1471SOL    HW1  787   1.952   1.261   1.350
 1471SOL    HW2  788   1.921   1.408   1.287
 1477SOL     OW  789   2.842   1.573   1.700
 1477SOL    HW1  790   2.822   1.617   1.612
 1477SOL    HW2  791   2.881   1.482   1.684
 1478SOL     OW  792   3.721   1.518   1.605
 1478SOL    HW1  793   3.735   1.545   1.510
 1478SOL    HW2  794   3.804   1.540   1.658
 1479SOL     OW  795   2.212   0.898   1.804
 1479SOL    HW1  796   2.288   0.942   1.852
 1479SOL    HW2  797   2.247   0.851   1.722
 1488SOL     OW  798   1.950   1.801   0.927
 1488SOL    HW1  799   1.908   1.715   0.900
 1488SOL    HW2  800   2.044   1.804   0.893
 1489SOL     OW  801   2.366   1.568   0.910
 1489SOL    HW1  802   2.432   1.642   0.919
 1489SOL    HW2  803   2.410   1.489   0.868
 1496SOL     OW  804   2.114   1.564   1.744
 1496SOL    HW1  805   2.084   1.621   1.820
 1496SOL    HW2  806   2.107   1.467   1.770
 1498SOL     OW  807   2.792   1.678   1.465
 1498SOL    HW1  808   2.768   1.660   1.370
 1498SOL    HW2  809   2.822   1.772   1.475
 1500SOL     OW  810   2.021   1.137   1.466
 1500SOL    HW1  811   2.043   1.076   1.542
 1500SOL    HW2  812   2.031   1.088   1.380
 1504SOL     OW  813   3.114   1.731   1.128
 1504SOL    HW1  814   3.198   1.736   1.074
 1504SOL    HW2  815   3.091   1.635   1.146
 1505SOL     OW  816   1.945   1.258   1.022
 1505SOL    HW1  817   1.940   1.257   1.122
 1505SOL    HW2  818   1.862   1.217   0.984
 1506SOL     OW  819   2.550   1.662   1.716
 1506SOL    HW1  820   2.494   1.743   1.725
 1506SOL    HW2  821   2.602   1.666   1.630
 1510SOL     OW  822   1.992   1.794   1.851
 1510SOL    HW1  823   1.951   1.720   1.904
 1510SOL    HW2  824   2.056   1.845   1.909
 1512SOL     OW  825   2.692   1.273   1.422
 1512SOL    HW1  826   2.687   1.306   1.517
 1512SOL    HW2  827   2.606   1.292   1.376
 1514SOL     OW  828   3.512   1.720   1.394
 1514SOL    HW1  829   3.565   1.730   1.310
 1514SOL    HW2  830   3.485   1.810   1.428
 1518SOL     OW  831   2.684   1.002   1.372
 1518SOL    HW1  832   2.724   1.001   1.280
 1518SOL    HW2  833   2.694   1.094   1.412
 1521SOL     OW  834   2.234   1.288   1.490
 1521SOL    HW1  835   2.221   1.381   1.456
 1521SOL    HW2  836   2.150   1.236   1.477
 1528SOL     OW  837   1.967   1.013   1.726
 1528SOL    HW1  838   1.890   0.980   1.780
 1528SOL    HW2  839   2.052   0.983   1.768
 1532SOL     OW  840   2.475   0.842   1.431
 1532SOL    HW1  841   2.531   0.923   1.414
 1532SOL    HW2  842   2.534   0.762   1.434
 1535SOL     OW  843   3.312   1.220   1.633
 1535SOL    HW1  844   3.303   1.210   1.732
 1535SOL    HW2  845   3.408   1.213   1.607
 1536SOL     OW  846   2.252   1.741   1.560
 1536SOL    HW1  847   2.161   1.782   1.558
 1536SOL    HW2  848   2.245   1.647   1.592
 1543SOL     OW  849   2.523   1.790   0.953
 1543SOL    HW1  850   2.477   1.878   0.940
 1543SOL    HW2  851   2.622   1.802   0.946
 1547SOL     OW  852   2.083   1.314   1.844
 1547SOL    HW1  853   2.018   1.241   1.823
 1547SOL    HW2  854   2.087   1.328   1.942
 1549SOL     OW  855   2.534   1.391   1.624
 1549SOL    HW1  856   2.456   1.341   1.662
 1549SOL    HW2  857   2.531   1.486   1.655
 1558SOL     OW  858   2.480   1.567   1.284
 1558SOL    HW1  859   2.475   1.649   1.341
 1558SOL    HW2  860   2.569   1.564   1.239
 1564SOL     OW  861   2.092   0.628   1.975
 1564SOL    HW1  862   1.999   0.626   2.012
 1564SOL    HW2  863   2.093   0.589   1.883
 1567SOL     OW  864   2.431   1.275   3.027
 1567SOL    HW1  865   2.338   1.268   2.990
 1567SOL    HW2  866   2.442   1.364   3.071
 1568SOL     OW  867   3.417   1.511   2.565
 1568SOL    HW1  868   3.360   1.495   2.646
 1568SOL    HW2  869   3.358   1.521   2.485
 1569SOL     OW  870   2.997   0.703   2.579
 1569SOL    HW1  871   3.054   0.781   2.554
 1569SOL    HW2  872   2.937   0.729   2.655
 1571SOL     OW  873   2.630   1.144   2.885
 1571SOL    HW1  874   2.552   1.161   2.945
 1571SOL    HW2  875   2.664   1.231   2.849
 1573SOL     OW  876   2.547   1.012   2.527
 1573SOL    HW1  877   2.616   0.996   2.597
 1573SOL    HW2  878   2.474   1.069   2.565
 1574SOL     OW  879   2.548   1.161   3.665
 1574SOL    HW1  880   2.608   1.240   3.679
 1574SOL    HW2  881   2.462   1.192   3.624
 1575SOL     OW  882   2.197   1.435   2.923
 1575SOL    HW1  883   2.119   1.404   2.870
 1575SOL    HW2  884   2.255   1.493   2.866
 1576SOL     OW  885   3.322   1.505   3.201
 1576SOL    HW1  886   3.346   1.599   3.227
 1576SOL    HW2  887   3.306   1.451   3.283
 1579SOL     OW  888   2.093   1.713   2.345
 1579SOL    HW1  889   2.127   1.790   2.399
 1579SOL    HW2  890   2.137   1.713   2.255
 1580SOL     OW  891   2.989   1.341   3.552
 1580SOL    HW1  892   3.036   1.341   3.640
 1580SOL    HW2  893   2.941   1.254   3.541
 1581SOL     OW  894   2.092   1.434   2.400
 1581SOL    HW1  895   2.066   1.530   2.400
 1581SOL    HW2  896   2.021   1.380   2.445
 1582SOL     OW  897   2.102   1.091   2.748
 1582SOL    HW1  898   2.116   1.007   2.800
 1582SOL    HW2  899   2.047   1.155   2.803
 1583SOL     OW  900   2.482   1.786   3.301
 1583SOL    HW1  901   2.390   1.769   3.336
 1583SOL    HW2  902   2.510   1.878   3.327
 1584SOL     OW  903   2.468   0.964   1.985
 1584SOL    HW1  904   2.475   1.048   1.931
 1584SOL    HW2  905   2.514   0.977   2.073
 1586SOL     OW  906   1.984   0.643   2.425
 1586SOL    HW1  907   1.939   0.555   2.442
 1586SOL    HW2  908   1.983   0.697   2.509
 1587SOL     OW  909   3.704   1.767   2.221
 1587SOL    HW1  910   3.758   1.738   2.301
 1587SOL    HW2  911   3.734   1.857   2.192
 1588SOL     OW  912   1.889   1.596   1.979
 1588SOL    HW1  913   1.870   1.500   2.000
 1588SOL    HW2  914   1.856   1.654   2.054
 1590SOL     OW  915   3.503   1.108   2.294
 1590SOL    HW1  916   3.589   1.110   2.242
 1590SOL    HW2  917   3.517   1.155   2.382
 1592SOL     OW  918   2.475   1.365   2.588
 1592SOL    HW1  919   2.426   1.278   2.597
 1592SOL    HW2  920   2.452   1.408   2.501
 1593SOL     OW  921   3.155   1.228   3.285
 1593SOL    HW1  922   3.192   1.155   3.227
 1593SOL    HW2  923   3.207   1.233   3.370
 1595SOL     OW  924   2.059   0.976   3.126
 1595SOL    HW1  925   2.148   0.931   3.112
 1595SOL    HW2  926   1.986   0.911   3.107
 1596SOL     OW  927   3.387   0.999   2.052
 1596SOL    HW1  928   3.324   0.923   2.065
 1596SOL    HW2  929   3.435   1.017   2.138
 1597SOL     OW  930   3.049   1.792   3.478
 1597SOL    HW1  931   3.073   1.852   3.402
 1597SOL    HW2  932   3.056   1.697   3.448
 1599SOL     OW  933   3.328   1.417   2.815
 1599SOL    HW1  934   3.269   1.423   2.895
 1599SOL    HW2  935   3.313   1.329   2.769
 1600SOL     OW  936   3.529   1.714   2.434
 1600SOL    HW1  937   3.488   1.691   2.346
 1600SOL    HW2  938   3.511   1.640   2.499
 1601SOL     OW  939   2.460   0.729   2.132
 1601SOL    HW1  940   2.484   0.798   2.064
 1601SOL    HW2  941   2.382   0.762   2.186
 1603SOL     OW  942   3.438   1.662   2.169
 1603SOL    HW1  943   3.527   1.708   2.172
 1603SOL    HW2  944   3.417   1.638   2.074
 1608SOL     OW  945   2.903   0.701   2.291
 1608SOL    HW1  946   2.929   0.697   2.387
 1608SOL    HW2  947   2.818   0.650   2.277
 1609SOL     OW  948   1.938   0.811   2.651
 1609SOL    HW1  949   2.037   0.799   2.660
 1609SOL    HW2  950   1.914   0.906   2.672
 1610SOL     OW  951   1.992   1.821   3.433
 1610SOL    HW1  952   1.982   1.806   3.532
 1610SOL    HW2  953   1.906   1.857   3.397
 1613SOL     OW  954   3.224   1.144   2.407
 1613SOL    HW1  955   3.307   1.115   2.359
 1613SOL    HW2  956   3.175   1.211   2.351
 1615SOL     OW  957   2.870   1.456   2.339
 1615SOL    HW1  958   2.824   1.528   2.287
 1615SOL    HW2  959   2.866   1.476   2.437
 1616SOL     OW  960   2.213   1.801   2.715
 1616SOL    HW1  961   2.263   1.715   2.721
 1616SOL    HW2  962   2.278   1.878   2.712
 1618SOL     OW  963   3.089   1.550   3.368
 1618SOL    HW1  964   3.095   1.473   3.432
 1618SOL    HW2  965   3.037   1.524   3.288
 1619SOL     OW  966   2.183   0.943   2.104
 1619SOL    HW1  967   2.265   0.982   2.062
 1619SOL    HW2  968   2.156   0.861   2.055
 1621SOL     OW  969   2.323   1.266   3.589
 1621SOL    HW1  970   2.273   1.267   3.503
 1621SOL    HW2  971   2.260   1.248   3.665
 1622SOL     OW  972   2.973   1.776   2.099
 1622SOL    HW1  973   2.913   1.714   2.149
 1622SOL    HW2  974   3.004   1.732   2.014
 1624SOL     OW  975   3.494   1.377   1.943
 1624SOL    HW1  976   3.462   1.471   1.933
 1624SOL    HW2  977   3.418   1.314   1.931
 1625SOL     OW  978   2.326   1.743   2.185
 1625SOL    HW1  979   2.359   1.782   2.271
 1625SOL    HW2  980   2.402   1.736   2.120
 1627SOL     OW  981   2.111   1.785   3.103
 1627SOL    HW1  982   2.168   1.720   3.153
 1627SOL    HW2  983   2.095   1.752   3.010
 1628SOL     OW  984   2.802   1.698   2.766
 1628SOL    HW1  985   2.882   1.641   2.787
 1628SOL    HW2  986   2.753   1.658   2.689
 1629SOL     OW  987   2.244   0.700   2.342
 1629SOL    HW1  988   2.289   0.610   2.339
 1629SOL    HW2  989   2.150   0.689   2.375
 1633SOL     OW  990   2.750   1.514   3.057
 1633SOL    HW1  991   2.727   1.489   2.963
 1633SOL    HW2  992   2.811   1.445   3.096
 1635SOL     OW  993   2.665   1.402   2.786
 1635SOL    HW1  994   2.755   1.416   2.744
 1635SOL    HW2  995   2.594   1.404   2.715
 1638SOL     OW  996   3.296   1.188   1.903
 1638SOL    HW1  997   3.328   1.112   1.960
 1638SOL    HW2  998   3.204   1.215   1.933
 1642SOL     OW  999   3.089   1.570   2.655
 1642SOL    HW1 1000   3.110   1.644   2.590
 1642SOL    HW2 1001   3.157   1.570   2.728
 1643SOL     OW 1002   2.321   1.152   2.603
 1643SOL    HW1 1003   2.250   1.125   2.668
 1643SOL    HW2 1004   2.295   1.124   2.510
 1644SOL     OW 1005   3.133   1.797   2.453
 1644SOL    HW1 1006   3.177   1.861   2.389
 1644SOL    HW2 1007   3.083   1.849   2.523
 1650SOL     OW 1008   3.291   1.173   2.729
 1650SOL    HW1 1009   3.236   1.089   2.722
 1650SOL    HW2 1010   3.317   1.202   2.637
 1653SOL     OW 1011   2.350   1.385   2.036
 1653SOL    HW1 1012   2.263   1.370   2.083
 1653SOL    HW2 1013   2.333   1.411   1.941
 1654SOL     OW 1014   3.526   1.280   2.519
 1654SOL    HW1 1015   3.625   1.288   2.533
 1654SOL    HW2 1016   3.481   1.364   2.550
 1658SOL     OW 1017   2.926   1.347   3.202
 1658SOL    HW1 1018   2.846   1.324   3.257
 1658SOL    HW2 1019   3.009   1.321   3.251
 1659SOL     OW 1020   3.454   1.629   3.487
 1659SOL    HW1 1021   3.481   1.663   3.397
 1659SOL    HW2 1022   3.533   1.591   3.533
 1660SOL     OW 1023   2.973   1.195   2.962
 1660SOL    HW1 1024   2.933   1.239   3.043
 1660SOL    HW2 1025   2.932   1.232   2.879
 1661SOL     OW 1026   3.500   1.099   2.941
 1661SOL    HW1 1027   3.505   1.180   3.000
 1661SOL    HW2 1028   3.414   1.101   2.890
 1664SOL     OW 1029   2.567   1.050   2.230
 1664SOL    HW1 1030   2.553   1.057   2.329
 1664SOL    HW2 1031   2.651   0.999   2.212
 1665SOL     OW 1032   2.272   0.813   3.113
 1665SOL    HW1 1033   2.358   0.825   3.163
 1665SOL    HW2 1034   2.230   0.726   3.140
 1667SOL     OW 1035   1.926   1.564   3.193
 1667SOL    HW1 1036   1.880   1.646   3.159
 1667SOL    HW2 1037   2.024   1.583   3.202
 1668SOL     OW 1038   2.229   1.100   2.363
 1668SOL    HW1 1039   2.222   1.183   2.307
 1668SOL    HW2 1040   2.233   1.020   2.303
 1670SOL     OW 1041   3.114   1.348   2.250
 1670SOL    HW1 1042   3.164   1.425   2.290
 1670SOL    HW2 1043   3.019   1.350   2.282
 1671SOL     OW 1044   3.134   1.445   3.004
 1671SOL    HW1 1045   3.181   1.458   3.091
 1671SOL    HW2 1046   3.068   1.371   3.013
 1673SOL     OW 1047   2.216   1.510   3.191
 1673SOL    HW1 1048   2.195   1.466   3.104
 1673SOL    HW2 1049   2.313   1.536   3.194
 1678SOL     OW 1050   2.435   0.870   2.891
 1678SOL    HW1 1051   2.479   0.959   2.882
 1678SOL    HW2 1052   2.372   0.870   2.968
 1682SOL     OW 1053   1.899   1.310   3.144
 1682SOL    HW1 1054   1.952   1.261   3.212
 1682SOL    HW2 1055   1.921   1.408   3.149
 1687SOL     OW 1056   2.885   0.766   2.828
 1687SOL    HW1 1057   2.900   0.787   2.924
 1687SOL    HW2 1058   2.855   0.671   2.819
 1688SOL     OW 1059   2.842   1.573   3.562
 1688SOL    HW1 1060   2.822   1.617   3.474
 1688SOL    HW2 1061   2.881   1.482   3.546
 1692SOL     OW 1062   3.165   0.838   1.904
 1692SOL    HW1 1063   3.199   0.745   1.919
 1692SOL    HW2 1064   3.183   0.865   1.809
 1693SOL     OW 1065   2.930   1.333   2.711
 1693SOL    HW1 1066   2.937   1.249   2.656
 1693SOL    HW2 1067   2.992   1.402   2.675
 1694SOL     OW 1068   2.181   0.810   2.811
 1694SOL    HW1 1069   2.274   0.846   2.816
 1694SOL    HW2 1070   2.175   0.725   2.863
 1698SOL     OW 1071   1.870   1.326   2.062
 1698SOL    HW1 1072   1.777   1.347   2.031
 1698SOL    HW2 1073   1.880   1.227   2.075
 1699SOL     OW 1074   1.950   1.801   2.789
 1699SOL    HW1 1075   1.908   1.715   2.762
 1699SOL    HW2 1076   2.044   1.804   2.755
 1700SOL     OW 1077   2.366   1.568   2.772
 1700SOL    HW1 1078   2.432   1.642   2.781
 1700SOL    HW2 1079   2.410   1.489   2.730
 1707SOL     OW 1080   2.114   1.564   3.606
 1707SOL    HW1 1081   2.084   1.621   3.682
 1707SOL    HW2 1082   2.107   1.467   3.632
 1709SOL     OW 1083   2.792   1.678   3.327
 1709SOL    HW1 1084   2.768   1.660   3.232
 1709SOL    HW2 1085   2.822   1.772   3.337
 1711SOL     OW 1086   2.021   1.137   3.328
 1711SOL    HW1 1087   2.043   1.076   3.404
 1711SOL    HW2 1088   2.031   1.088   3.242
 1712SOL     OW 1089   3.209   1.059   3.096
 1712SOL    HW1 1090   3.233   0.996   3.022
 1712SOL    HW2 1091   3.119   1.099   3.078
 1713SOL     OW 1092   3.164   0.855   2.171
 1713SOL    HW1 1093   3.078   0.824   2.213
 1713SOL    HW2 1094   3.160   0.841   2.072
 1714SOL     OW 1095   3.621   1.747   3.016
 1714SOL    HW1 1096   3.682   1.777   2.943
 1714SOL    HW2 1097   3.583   1.658   2.994
 1715SOL     OW 1098   3.114   1.731   2.990
 1715SOL    HW1 1099   3.198   1.736   2.936
 1715SOL    HW2 1100   3.091   1.635   3.008
 1716SOL     OW 1101   1.945   1.258   2.884
 1716SOL    HW1 1102   1.940   1.257   2.984
 1716SOL    HW2 1103   1.862   1.217   2.846
 1717SOL     OW 1104   2.550   1.662   3.578
 1717SOL    HW1 1105   2.494   1.743   3.587
 1717SOL    HW2 1106   2.602   1.666   3.492
 1719SOL     OW 1107   3.250   1.573   2.339
 1719SOL    HW1 1108   3.317   1.585   2.265
 1719SOL    HW2 1109   3.210   1.662   2.362
 1720SOL     OW 1110   1.992   1.794   3.713
 1720SOL    HW1 1111   1.951   1.720   3.766
 1720SOL    HW2 1112   2.056   1.845   3.771
 1721SOL     OW 1113   3.142   0.927   2.534
 1721SOL    HW1 1114   3.202   0.846   2.536
 1721SOL    HW2 1115   3.182   0.996   2.474
 1722SOL     OW 1116   2.692   1.273   3.284
 1722SOL    HW1 1117   2.687   1.306   3.379
 1722SOL    HW2 1118   2.606   1.292   3.238
 1723SOL     OW 1119   2.534   1.616   2.016
 1723SOL    HW1 1120   2.543   1.626   1.917
 1723SOL    HW2 1121   2.494   1.527   2.037
 1724SOL     OW 1122   3.512   1.720   3.256
 1724SOL    HW1 1123   3.565   1.730   3.172
 1724SOL    HW2 1124   3.485   1.810   3.290
 1727SOL     OW 1125   3.056   1.612   1.893
 1727SOL    HW1 1126   3.062   1.519   1.930
 1727SOL    HW2 1127   2.997   1.612   1.813
 1728SOL     OW 1128   2.684   1.002   3.234
 1728SOL    HW1 1129   2.724   1.001   3.142
 1728SOL    HW2 1130   2.694   1.094   3.274
 1729SOL     OW 1131   2.778   0.910   2.153
 1729SOL    HW1 1132   2.841   0.948   2.085
 1729SOL    HW2 1133   2.818   0.827   2.192
 1730SOL     OW 1134   3.366   1.607   1.906
 1730SOL    HW1 1135   3.274   1.644   1.913
 1730SOL    HW2 1136   3.404   1.627   1.816
 1731SOL     OW 1137   2.234   1.288   3.352
 1731SOL    HW1 1138   2.221   1.381   3.318
 1731SOL    HW2 1139   2.150   1.236   3.339
 1732SOL     OW 1140   3.476   1.292   3.151
 1732SOL    HW1 1141   3.536   1.295   3.231
 1732SOL    HW2 1142   3.401   1.356   3.164
 1733SOL     OW 1143   2.901   1.098   2.558
 1733SOL    HW1 1144   2.831   1.051   2.612
 1733SOL    HW2 1145   2.960   1.030   2.515
 1735SOL     OW 1146   2.452   1.487   2.353
 1735SOL    HW1 1147   2.494   1.429   2.283
 1735SOL    HW2 1148   2.408   1.566   2.309
 1737SOL     OW 1149   2.117   1.348   2.152
 1737SOL    HW1 1150   2.021   1.349   2.125
 1737SOL    HW2 1151   2.129   1.401   2.236
 1743SOL     OW 1152   3.045   1.335   1.981
 1743SOL    HW1 1153   2.946   1.324   1.983
 1743SOL    HW2 1154   3.079   1.350   2.074
 1744SOL     OW 1155   2.475   0.842   3.293
 1744SOL    HW1 1156   2.531   0.923   3.276
 1744SOL    HW2 1157   2.534   0.762   3.296
 1745SOL     OW 1158   3.355   1.767   2.821
 1745SOL    HW1 1159   3.388   1.831   2.752
 1745SOL    HW2 1160   3.421   1.761   2.896
 1748SOL     OW 1161   2.252   1.741   3.422
 1748SOL    HW1 1162   2.161   1.782   3.420
 1748SOL    HW2 1163   2.245   1.647   3.454
 1751SOL     OW 1164   2.456   0.745   2.514
 1751SOL    HW1 1165   2.506   0.830   2.495
 1751SOL    HW2 1166   2.368   0.747   2.466
 1754SOL     OW 1167   2.721   1.374   1.878
 1754SOL    HW1 1168   2.675   1.389   1.966
 1754SOL    HW2 1169   2.765   1.459   1.848
 1755SOL     OW 1170   2.523   1.790   2.815
 1755SOL    HW1 1171   2.477   1.878   2.802
 1755SOL    HW2 1172   2.622   1.802   2.808
 1756SOL     OW 1173   2.721   0.956   2.723
 1756SOL    HW1 1174   2.775   0.887   2.771
 1756SOL    HW2 1175   2.689   1.025   2.789
 1757SOL     OW 1176   2.945   0.984   1.949
 1757SOL    HW1 1177   2.922   1.037   1.867
 1757SOL    HW2 1178   3.026   0.928   1.930
 1758SOL     OW 1179   3.723   1.569   2.713
 1758SOL    HW1 1180   3.652   1.557   2.643
 1758SOL    HW2 1181   3.724   1.490   2.773
 1759SOL     OW 1182   2.083   1.314   3.706
 1759SOL    HW1 1183   2.018   1.241   3.685
 1759SOL    HW2 1184   2.087   1.328   3.804
 1760SOL     OW 1185   1.941   1.240   2.515
 1760SOL    HW1 1186   1.940   1.193   2.603
 1760SOL    HW2 1187   2.023   1.212   2.464
 1761SOL     OW 1188   2.534   1.391   3.486
 1761SOL    HW1 1189   2.456   1.341   3.524
 1761SOL    HW2 1190   2.531   1.486   3.517
 1764SOL     OW 1191   3.567   1.487   2.966
 1764SOL    HW1 1192   3.474   1.462   2.939
 1764SOL    HW2 1193   3.593   1.437   3.048
 1766SOL     OW 1194   2.674   1.586   2.549
 1766SOL    HW1 1195   2.706   1.596   2.455
 1766SOL    HW2 1196   2.595   1.524   2.551
 1769SOL     OW 1197   2.632   1.330   2.163
 1769SOL    HW1 1198   2.586   1.243   2.180
 1769SOL    HW2 1199   2.723   1.327   2.204
 1770SOL     OW 1200   2.480   1.567   3.146
 1770SOL    HW1 1201   2.475   1.649   3.203
 1770SOL    HW2 1202   2.569   1.564   3.101
 1774SOL     OW 1203   1.901   1.077   2.162
 1774SOL    HW1 1204   2.000   1.066   2.153
 1774SOL    HW2 1205   1.861   0.991   2.194
 1775SOL     OW 1206   2.737   1.646   2.199
 1775SOL    HW1 1207   2.660   1.611   2.145
 1775SOL    HW2 1208   2.705   1.717   2.261
 1791SOL     OW 1209   1.889   1.596   3.841
 1791SOL    HW1 1210   1.870   1.500   3.862
 1791SOL    HW2 1211   1.856   1.654   3.916
 1813SOL     OW 1212   2.326   1.743   4.047
 1813SOL    HW1 1213   2.359   1.782   4.133
 1813SOL    HW2 1214   2.402   1.736   3.982
 1856SOL     OW 1215   2.534   1.616   3.878
 1856SOL    HW1 1216   2.543   1.626   3.779
 1856SOL    HW2 1217   2.494   1.527   3.899
 1859SOL     OW 1218   3.056   1.612   3.755
 1859SOL    HW1 1219   3.062   1.519   3.792
 1859SOL    HW2 1220   2.997   1.612   3.675
 1871SOL     OW 1221   2.721   1.374   3.740
 1871SOL    HW1 1222   2.675   1.389   3.828
 1871SOL    HW2 1223   2.765   1.459   3.710
 1887SOL     OW 1224   2.087   2.137   0.996
 1887SOL    HW1 1225   2.122   2.120   1.088
 1887SOL    HW2 1226   1.999   2.092   0.984
 1888SOL     OW 1227   1.881   2.230   0.647
 1888SOL    HW1 1228   1.799   2.273   0.686
 1888SOL    HW2 1229   1.853   2.157   0.584
 1889SOL     OW 1230   2.431   3.137   1.165
 1889SOL    HW1 1231   2.338   3.130   1.128
 1889SOL    HW2 1232   2.442   3.226   1.209
 1891SOL     OW 1233   2.997   2.565   0.717
 1891SOL    HW1 1234   3.054   2.643   0.692
 1891SOL    HW2 1235   2.937   2.591   0.793
 1893SOL     OW 1236   2.630   3.006   1.023
 1893SOL    HW1 1237   2.552   3.023   1.083
 1893SOL    HW2 1238   2.664   3.093   0.987
 1894SOL     OW 1239   2.712   2.660   1.823
 1894SOL    HW1 1240   2.708   2.736   1.888
 1894SOL    HW2 1241   2.734   2.696   1.732
 1895SOL     OW 1242   2.547   2.874   0.665
 1895SOL    HW1 1243   2.616   2.858   0.735
 1895SOL    HW2 1244   2.474   2.931   0.703
 1896SOL     OW 1245   2.548   3.023   1.803
 1896SOL    HW1 1246   2.608   3.102   1.817
 1896SOL    HW2 1247   2.462   3.054   1.762
 1897SOL     OW 1248   2.197   3.297   1.061
 1897SOL    HW1 1249   2.119   3.266   1.008
 1897SOL    HW2 1250   2.255   3.355   1.004
 1898SOL     OW 1251   3.322   3.367   1.339
 1898SOL    HW1 1252   3.346   3.461   1.365
 1898SOL    HW2 1253   3.306   3.313   1.421
 1899SOL     OW 1254   2.300   2.254   1.499
 1899SOL    HW1 1255   2.382   2.198   1.508
 1899SOL    HW2 1256   2.219   2.196   1.503
 1902SOL     OW 1257   2.989   3.203   1.690
 1902SOL    HW1 1258   3.036   3.203   1.778
 1902SOL    HW2 1259   2.941   3.116   1.679
 1904SOL     OW 1260   2.102   2.953   0.886
 1904SOL    HW1 1261   2.116   2.869   0.938
 1904SOL    HW2 1262   2.047   3.017   0.941
 1905SOL     OW 1263   2.482   3.648   1.439
 1905SOL    HW1 1264   2.390   3.631   1.474
 1905SOL    HW2 1265   2.510   3.740   1.465
 1907SOL     OW 1266   3.456   1.976   1.480
 1907SOL    HW1 1267   3.438   2.043   1.408
 1907SOL    HW2 1268   3.453   2.022   1.569
 1912SOL     OW 1269   1.975   2.599   1.597
 1912SOL    HW1 1270   2.063   2.586   1.642
 1912SOL    HW2 1271   1.962   2.696   1.575
 1914SOL     OW 1272   3.155   3.090   1.423
 1914SOL    HW1 1273   3.192   3.017   1.365
 1914SOL    HW2 1274   3.207   3.095   1.508
 1916SOL     OW 1275   2.059   2.838   1.264
 1916SOL    HW1 1276   2.148   2.793   1.250
 1916SOL    HW2 1277   1.986   2.773   1.245
 1918SOL     OW 1278   3.049   3.654   1.616
 1918SOL    HW1 1279   3.073   3.714   1.540
 1918SOL    HW2 1280   3.056   3.559   1.586
 1919SOL     OW 1281   2.179   2.113   1.801
 1919SOL    HW1 1282   2.250   2.184   1.807
 1919SOL    HW2 1283   2.091   2.152   1.829
 1923SOL     OW 1284   3.143   2.207   0.944
 1923SOL    HW1 1285   3.057   2.157   0.931
 1923SOL    HW2 1286   3.205   2.153   1.000
 1925SOL     OW 1287   2.669   2.467   1.465
 1925SOL    HW1 1288   2.622   2.464   1.554
 1925SOL    HW2 1289   2.618   2.412   1.399
 1926SOL     OW 1290   3.256   2.331   1.674
 1926SOL    HW1 1291   3.236   2.374   1.762
 1926SOL    HW2 1292   3.334   2.269   1.683
 1927SOL     OW 1293   2.835   2.752   1.572
 1927SOL    HW1 1294   2.881   2.668   1.543
 1927SOL    HW2 1295   2.779   2.786   1.497
 1928SOL     OW 1296   2.853   2.272   1.242
 1928SOL    HW1 1297   2.776   2.306   1.296
 1928SOL    HW2 1298   2.819   2.221   1.163
 1930SOL     OW 1299   1.938   2.673   0.789
 1930SOL    HW1 1300   2.037   2.661   0.798
 1930SOL    HW2 1301   1.914   2.768   0.810
 1931SOL     OW 1302   1.992   3.683   1.571
 1931SOL    HW1 1303   1.982   3.668   1.670
 1931SOL    HW2 1304   1.906   3.719   1.535
 1933SOL     OW 1305   3.581   2.447   1.831
 1933SOL    HW1 1306   3.555   2.536   1.795
 1933SOL    HW2 1307   3.579   2.379   1.758
 1935SOL     OW 1308   2.412   2.058   0.885
 1935SOL    HW1 1309   2.407   2.053   0.985
 1935SOL    HW2 1310   2.414   2.154   0.856
 1939SOL     OW 1311   3.089   3.412   1.506
 1939SOL    HW1 1312   3.095   3.335   1.570
 1939SOL    HW2 1313   3.037   3.386   1.426
 1942SOL     OW 1314   2.323   3.128   1.727
 1942SOL    HW1 1315   2.273   3.129   1.641
 1942SOL    HW2 1316   2.260   3.110   1.803
 1944SOL     OW 1317   2.064   2.147   1.498
 1944SOL    HW1 1318   1.984   2.207   1.485
 1944SOL    HW2 1319   2.054   2.098   1.584
 1948SOL     OW 1320   2.111   3.647   1.241
 1948SOL    HW1 1321   2.168   3.582   1.291
 1948SOL    HW2 1322   2.095   3.614   1.148
 1951SOL     OW 1323   3.409   2.084   1.729
 1951SOL    HW1 1324   3.404   2.121   1.821
 1951SOL    HW2 1325   3.337   2.015   1.717
 1952SOL     OW 1326   2.643   2.126   1.749
 1952SOL    HW1 1327   2.710   2.065   1.792
 1952SOL    HW2 1328   2.570   2.145   1.814
 1953SOL     OW 1329   2.750   3.376   1.195
 1953SOL    HW1 1330   2.727   3.351   1.101
 1953SOL    HW2 1331   2.811   3.307   1.234
 1954SOL     OW 1332   3.213   2.452   1.433
 1954SOL    HW1 1333   3.241   2.409   1.518
 1954SOL    HW2 1334   3.238   2.548   1.434
 1955SOL     OW 1335   2.665   3.264   0.924
 1955SOL    HW1 1336   2.755   3.278   0.882
 1955SOL    HW2 1337   2.594   3.266   0.853
 1956SOL     OW 1338   2.784   2.365   0.899
 1956SOL    HW1 1339   2.759   2.356   0.803
 1956SOL    HW2 1340   2.832   2.283   0.930
 1961SOL     OW 1341   2.938   2.545   1.464
 1961SOL    HW1 1342   2.858   2.484   1.467
 1961SOL    HW2 1343   3.019   2.492   1.440
 1963SOL     OW 1344   2.321   3.014   0.741
 1963SOL    HW1 1345   2.250   2.987   0.806
 1963SOL    HW2 1346   2.295   2.986   0.648
 1966SOL     OW 1347   1.940   2.418   1.386
 1966SOL    HW1 1348   2.032   2.417   1.345
 1966SOL    HW2 1349   1.934   2.492   1.453
 1967SOL     OW 1350   2.423   2.084   1.147
 1967SOL    HW1 1351   2.461   2.000   1.184
 1967SOL    HW2 1352   2.335   2.103   1.191
 1968SOL     OW 1353   2.728   2.316   0.642
 1968SOL    HW1 1354   2.696   2.388   0.580
 1968SOL    HW2 1355   2.752   2.235   0.589
 1969SOL     OW 1356   2.879   1.901   0.753
 1969SOL    HW1 1357   2.807   1.906   0.684
 1969SOL    HW2 1358   2.855   1.832   0.822
 1971SOL     OW 1359   3.328   2.452   0.992
 1971SOL    HW1 1360   3.298   2.357   0.999
 1971SOL    HW2 1361   3.401   2.468   1.058
 1977SOL     OW 1362   3.616   3.085   1.588
 1977SOL    HW1 1363   3.707   3.046   1.575
 1977SOL    HW2 1364   3.624   3.181   1.612
 1978SOL     OW 1365   2.926   3.209   1.340
 1978SOL    HW1 1366   2.846   3.186   1.395
 1978SOL    HW2 1367   3.009   3.183   1.389
 1979SOL     OW 1368   3.454   3.491   1.625
 1979SOL    HW1 1369   3.481   3.525   1.535
 1979SOL    HW2 1370   3.533   3.453   1.671
 1980SOL     OW 1371   2.973   3.057   1.100
 1980SOL    HW1 1372   2.933   3.101   1.181
 1980SOL    HW2 1373   2.932   3.094   1.017
 1982SOL     OW 1374   2.777   1.951   1.402
 1982SOL    HW1 1375   2.802   1.931   1.307
 1982SOL    HW2 1376   2.849   2.007   1.444
 1983SOL     OW 1377   2.842   2.978   1.719
 1983SOL    HW1 1378   2.743   2.984   1.729
 1983SOL    HW2 1379   2.865   2.898   1.663
 1985SOL     OW 1380   2.272   2.675   1.251
 1985SOL    HW1 1381   2.358   2.687   1.301
 1985SOL    HW2 1382   2.230   2.588   1.278
 1986SOL     OW 1383   3.136   2.248   1.262
 1986SOL    HW1 1384   3.157   2.322   1.326
 1986SOL    HW2 1385   3.047   2.265   1.219
 1987SOL     OW 1386   1.926   3.426   1.331
 1987SOL    HW1 1387   1.880   3.508   1.297
 1987SOL    HW2 1388   2.024   3.445   1.340
 1989SOL     OW 1389   2.428   2.399   0.865
 1989SOL    HW1 1390   2.440   2.465   0.791
 1989SOL    HW2 1391   2.474   2.433   0.948
 1991SOL     OW 1392   3.134   3.307   1.142
 1991SOL    HW1 1393   3.181   3.320   1.229
 1991SOL    HW2 1394   3.068   3.233   1.151
 1993SOL     OW 1395   2.216   3.372   1.329
 1993SOL    HW1 1396   2.195   3.328   1.242
 1993SOL    HW2 1397   2.313   3.398   1.332
 1994SOL     OW 1398   2.264   2.613   1.598
 1994SOL    HW1 1399   2.332   2.668   1.551
 1994SOL    HW2 1400   2.304   2.525   1.625
 1995SOL     OW 1401   3.449   2.641   1.670
 1995SOL    HW1 1402   3.357   2.679   1.665
 1995SOL    HW2 1403   3.509   2.688   1.605
 1996SOL     OW 1404   2.875   1.967   1.770
 1996SOL    HW1 1405   2.881   2.052   1.718
 1996SOL    HW2 1406   2.907   1.891   1.713
 1997SOL     OW 1407   2.366   1.912   1.740
 1997SOL    HW1 1408   2.324   1.855   1.670
 1997SOL    HW2 1409   2.300   1.981   1.772
 1998SOL     OW 1410   2.435   2.732   1.029
 1998SOL    HW1 1411   2.479   2.821   1.020
 1998SOL    HW2 1412   2.372   2.732   1.106
 1999SOL     OW 1413   3.222   2.724   1.045
 1999SOL    HW1 1414   3.147   2.724   0.979
 1999SOL    HW2 1415   3.259   2.632   1.054
 2001SOL     OW 1416   2.169   2.075   1.231
 2001SOL    HW1 1417   2.146   2.112   1.321
 2001SOL    HW2 1418   2.139   1.980   1.225
 2002SOL     OW 1419   1.899   3.172   1.282
 2002SOL    HW1 1420   1.952   3.123   1.350
 2002SOL    HW2 1421   1.921   3.270   1.287
 2003SOL     OW 1422   2.594   2.496   1.064
 2003SOL    HW1 1423   2.653   2.470   0.988
 2003SOL    HW2 1424   2.566   2.592   1.053
 2004SOL     OW 1425   3.590   2.797   1.854
 2004SOL    HW1 1426   3.544   2.790   1.765
 2004SOL    HW2 1427   3.528   2.841   1.920
 2007SOL     OW 1428   2.885   2.628   0.966
 2007SOL    HW1 1429   2.900   2.649   1.062
 2007SOL    HW2 1430   2.855   2.533   0.957
 2008SOL     OW 1431   2.842   3.435   1.700
 2008SOL    HW1 1432   2.822   3.479   1.612
 2008SOL    HW2 1433   2.881   3.344   1.684
 2010SOL     OW 1434   2.212   2.760   1.804
 2010SOL    HW1 1435   2.288   2.804   1.852
 2010SOL    HW2 1436   2.247   2.713   1.722
 2014SOL     OW 1437   2.181   2.672   0.949
 2014SOL    HW1 1438   2.274   2.708   0.954
 2014SOL    HW2 1439   2.175   2.587   1.001
 2015SOL     OW 1440   2.201   2.371   1.006
 2015SOL    HW1 1441   2.149   2.288   0.989
 2015SOL    HW2 1442   2.278   2.376   0.942
 2016SOL     OW 1443   3.000   2.242   1.678
 2016SOL    HW1 1444   2.955   2.305   1.742
 2016SOL    HW2 1445   3.093   2.273   1.661
 2017SOL     OW 1446   3.022   2.069   1.477
 2017SOL    HW1 1447   3.022   2.133   1.554
 2017SOL    HW2 1448   3.050   2.117   1.394
 2021SOL     OW 1449   2.864   2.658   1.238
 2021SOL    HW1 1450   2.905   2.626   1.324
 2021SOL    HW2 1451   2.768   2.631   1.235
 2022SOL     OW 1452   1.902   2.406   1.114
 2022SOL    HW1 1453   1.987   2.373   1.073
 2022SOL    HW2 1454   1.915   2.421   1.212
 2023SOL     OW 1455   2.051   2.382   1.722
 2023SOL    HW1 1456   2.110   2.342   1.652
 2023SOL    HW2 1457   1.993   2.453   1.681
 2024SOL     OW 1458   3.231   2.812   1.660
 2024SOL    HW1 1459   3.270   2.901   1.680
 2024SOL    HW2 1460   3.241   2.792   1.563
 2026SOL     OW 1461   3.519   2.466   1.206
 2026SOL    HW1 1462   3.481   2.397   1.268
 2026SOL    HW2 1463   3.601   2.430   1.162
 2027SOL     OW 1464   2.114   3.426   1.744
 2027SOL    HW1 1465   2.084   3.483   1.820
 2027SOL    HW2 1466   2.107   3.329   1.770
 2028SOL     OW 1467   2.533   2.326   1.269
 2028SOL    HW1 1468   2.499   2.237   1.239
 2028SOL    HW2 1469   2.559   2.380   1.189
 2029SOL     OW 1470   2.792   3.540   1.465
 2029SOL    HW1 1471   2.768   3.522   1.370
 2029SOL    HW2 1472   2.822   3.634   1.475
 2031SOL     OW 1473   2.021   2.999   1.466
 2031SOL    HW1 1474   2.043   2.938   1.542
 2031SOL    HW2 1475   2.031   2.950   1.380
 2032SOL     OW 1476   3.209   2.921   1.234
 2032SOL    HW1 1477   3.233   2.858   1.160
 2032SOL    HW2 1478   3.119   2.961   1.216
 2036SOL     OW 1479   1.945   3.120   1.022
 2036SOL    HW1 1480   1.940   3.119   1.122
 2036SOL    HW2 1481   1.862   3.079   0.984
 2037SOL     OW 1482   2.550   3.524   1.716
 2037SOL    HW1 1483   2.494   3.605   1.725
 2037SOL    HW2 1484   2.602   3.528   1.630
 2041SOL     OW 1485   1.992   3.656   1.851
 2041SOL    HW1 1486   1.951   3.582   1.904
 2041SOL    HW2 1487   2.056   3.707   1.909
 2043SOL     OW 1488   2.692   3.135   1.422
 2043SOL    HW1 1489   2.687   3.168   1.517
 2043SOL    HW2 1490   2.606   3.154   1.376
 2047SOL     OW 1491   2.125   2.188   0.720
 2047SOL    HW1 1492   2.046   2.239   0.686
 2047SOL    HW2 1493   2.116   2.173   0.818
 2049SOL     OW 1494   2.684   2.864   1.372
 2049SOL    HW1 1495   2.724   2.863   1.280
 2049SOL    HW2 1496   2.694   2.956   1.412
 2052SOL     OW 1497   2.234   3.150   1.490
 2052SOL    HW1 1498   2.221   3.243   1.456
 2052SOL    HW2 1499   2.150   3.098   1.477
 2053SOL     OW 1500   3.476   3.154   1.289
 2053SOL    HW1 1501   3.536   3.157   1.369
 2053SOL    HW2 1502   3.401   3.218   1.302
 2055SOL     OW 1503   2.876   2.098   0.971
 2055SOL    HW1 1504   2.868   2.062   0.878
 2055SOL    HW2 1505   2.874   2.022   1.036
 2057SOL     OW 1506   3.571   2.247   1.381
 2057SOL    HW1 1507   3.644   2.316   1.385
 2057SOL    HW2 1508   3.599   2.172   1.322
 2059SOL     OW 1509   1.967   2.875   1.726
 2059SOL    HW1 1510   1.890   2.842   1.780
 2059SOL    HW2 1511   2.052   2.845   1.768
 2060SOL     OW 1512   2.534   2.065   1.489
 2060SOL    HW1 1513   2.624   2.049   1.449
 2060SOL    HW2 1514   2.542   2.070   1.588
 2061SOL     OW 1515   3.302   2.718   1.398
 2061SOL    HW1 1516   3.245   2.770   1.335
 2061SOL    HW2 1517   3.398   2.730   1.374
 2064SOL     OW 1518   2.475   2.704   1.431
 2064SOL    HW1 1519   2.531   2.785   1.414
 2064SOL    HW2 1520   2.534   2.624   1.434
 2066SOL     OW 1521   2.578   2.427   1.708
 2066SOL    HW1 1522   2.597   2.492   1.782
 2066SOL    HW2 1523   2.638   2.347   1.717
 2067SOL     OW 1524   3.312   3.082   1.633
 2067SOL    HW1 1525   3.303   3.072   1.732
 2067SOL    HW2 1526   3.408   3.075   1.607
 2068SOL     OW 1527   2.252   3.603   1.560
 2068SOL    HW1 1528   2.161   3.644   1.558
 2068SOL    HW2 1529   2.245   3.509   1.592
 2069SOL     OW 1530   3.536   2.745   1.254
 2069SOL    HW1 1531   3.509   2.656   1.217
 2069SOL    HW2 1532   3.537   2.813   1.181
 2071SOL     OW 1533   2.456   2.607   0.652
 2071SOL    HW1 1534   2.506   2.692   0.633
 2071SOL    HW2 1535   2.368   2.609   0.604
 2072SOL     OW 1536   3.639   2.204   1.642
 2072SOL    HW1 1537   3.622   2.235   1.548
 2072SOL    HW2 1538   3.555   2.167   1.680
 2073SOL     OW 1539   3.592   2.796   1.517
 2073SOL    HW1 1540   3.630   2.887   1.532
 2073SOL    HW2 1541   3.584   2.779   1.418
 2076SOL     OW 1542   2.721   2.818   0.861
 2076SOL    HW1 1543   2.775   2.749   0.909
 2076SOL    HW2 1544   2.689   2.887   0.927
 2079SOL     OW 1545   2.083   3.176   1.844
 2079SOL    HW1 1546   2.018   3.103   1.823
 2079SOL    HW2 1547   2.087   3.190   1.942
 2081SOL     OW 1548   2.534   3.253   1.624
 2081SOL    HW1 1549   2.456   3.203   1.662
 2081SOL    HW2 1550   2.531   3.348   1.655
 2082SOL     OW 1551   3.686   2.054   1.227
 2082SOL    HW1 1552   3.682   1.964   1.271
 2082SOL    HW2 1553   3.689   2.043   1.128
 2085SOL     OW 1554   2.179   2.409   1.280
 2085SOL    HW1 1555   2.217   2.350   1.352
 2085SOL    HW2 1556   2.219   2.383   1.192
 2087SOL     OW 1557   3.286   2.076   1.112
 2087SOL    HW1 1558   3.338   2.011   1.167
 2087SOL    HW2 1559   3.237   2.139   1.173
 2088SOL     OW 1560   2.863   1.896   1.154
 2088SOL    HW1 1561   2.800   1.824   1.123
 2088SOL    HW2 1562   2.956   1.860   1.154
 2090SOL     OW 1563   2.480   3.429   1.284
 2090SOL    HW1 1564   2.475   3.511   1.341
 2090SOL    HW2 1565   2.569   3.426   1.239
 2096SOL     OW 1566   2.092   2.490   1.975
 2096SOL    HW1 1567   1.999   2.488   2.012
 2096SOL    HW2 1568   2.093   2.451   1.883
 2097SOL     OW 1569   2.087   2.137   2.858
 2097SOL    HW1 1570   2.122   2.120   2.950
 2097SOL    HW2 1571   1.999   2.092   2.846
 2098SOL     OW 1572   1.881   2.230   2.509
 2098SOL    HW1 1573   1.799   2.273   2.548
 2098SOL    HW2 1574   1.853   2.157   2.446
 2099SOL     OW 1575   2.431   3.137   3.027
 2099SOL    HW1 1576   2.338   3.130   2.990
 2099SOL    HW2 1577   2.442   3.226   3.071
 2100SOL     OW 1578   3.417   3.373   2.565
 2100SOL    HW1 1579   3.360   3.357   2.646
 2100SOL    HW2 1580   3.358   3.383   2.485
 2101SOL     OW 1581   2.997   2.565   2.579
 2101SOL    HW1 1582   3.054   2.643   2.554
 2101SOL    HW2 1583   2.937   2.591   2.655
 2102SOL     OW 1584   3.617   2.469   2.093
 2102SOL    HW1 1585   3.605   2.456   1.994
 2102SOL    HW2 1586   3.587   2.388   2.142
 2103SOL     OW 1587   2.630   3.006   2.885
 2103SOL    HW1 1588   2.552   3.023   2.945
 2103SOL    HW2 1589   2.664   3.093   2.849
 2104SOL     OW 1590   2.712   2.660   3.685
 2104SOL    HW1 1591   2.708   2.736   3.750
 2104SOL    HW2 1592   2.734   2.696   3.594
 2105SOL     OW 1593   2.547   2.874   2.527
 2105SOL    HW1 1594   2.616   2.858   2.597
 2105SOL    HW2 1595   2.474   2.931   2.565
 2106SOL     OW 1596   2.548   3.023   3.665
 2106SOL    HW1 1597   2.608   3.102   3.679
 2106SOL    HW2 1598   2.462   3.054   3.624
 2107SOL     OW 1599   2.197   3.297   2.923
 2107SOL    HW1 1600   2.119   3.266   2.870
 2107SOL    HW2 1601   2.255   3.355   2.866
 2108SOL     OW 1602   3.322   3.367   3.201
 2108SOL    HW1 1603   3.346   3.461   3.227
 2108SOL    HW2 1604   3.306   3.313   3.283
 2109SOL     OW 1605   2.300   2.254   3.361
 2109SOL    HW1 1606   2.382   2.198   3.370
 2109SOL    HW2 1607   2.219   2.196   3.365
 2110SOL     OW 1608   3.465   2.309   2.599
 2110SOL    HW1 1609   3.391   2.355   2.549
 2110SOL    HW2 1610   3.516   2.377   2.652
 2111SOL     OW 1611   2.093   3.575   2.345
 2111SOL    HW1 1612   2.127   3.652   2.399
 2111SOL    HW2 1613   2.137   3.575   2.255
 2112SOL     OW 1614   2.989   3.203   3.552
 2112SOL    HW1 1615   3.036   3.203   3.640
 2112SOL    HW2 1616   2.941   3.116   3.541
 2113SOL     OW 1617   2.092   3.296   2.400
 2113SOL    HW1 1618   2.066   3.392   2.400
 2113SOL    HW2 1619   2.021   3.242   2.445
 2114SOL     OW 1620   2.102   2.953   2.748
 2114SOL    HW1 1621   2.116   2.869   2.800
 2114SOL    HW2 1622   2.047   3.017   2.803
 2115SOL     OW 1623   2.482   3.648   3.301
 2115SOL    HW1 1624   2.390   3.631   3.336
 2115SOL    HW2 1625   2.510   3.740   3.327
 2116SOL     OW 1626   2.468   2.826   1.985
 2116SOL    HW1 1627   2.475   2.910   1.931
 2116SOL    HW2 1628   2.514   2.839   2.073
 2117SOL     OW 1629   3.456   1.976   3.342
 2117SOL    HW1 1630   3.438   2.043   3.270
 2117SOL    HW2 1631   3.453   2.022   3.431
 2118SOL     OW 1632   1.984   2.505   2.425
 2118SOL    HW1 1633   1.939   2.417   2.442
 2118SOL    HW2 1634   1.983   2.559   2.509
 2120SOL     OW 1635   1.889   3.458   1.979
 2120SOL    HW1 1636   1.870   3.362   2.000
 2120SOL    HW2 1637   1.856   3.516   2.054
 2121SOL     OW 1638   3.551   2.784   2.474
 2121SOL    HW1 1639   3.646   2.755   2.482
 2121SOL    HW2 1640   3.543   2.849   2.399
 2122SOL     OW 1641   3.503   2.970   2.294
 2122SOL    HW1 1642   3.589   2.972   2.242
 2122SOL    HW2 1643   3.517   3.017   2.382
 2123SOL     OW 1644   1.975   2.599   3.459
 2123SOL    HW1 1645   2.063   2.586   3.504
 2123SOL    HW2 1646   1.962   2.696   3.437
 2124SOL     OW 1647   2.475   3.227   2.588
 2124SOL    HW1 1648   2.426   3.140   2.597
 2124SOL    HW2 1649   2.452   3.270   2.501
 2125SOL     OW 1650   3.155   3.090   3.285
 2125SOL    HW1 1651   3.192   3.017   3.227
 2125SOL    HW2 1652   3.207   3.095   3.370
 2126SOL     OW 1653   2.671   1.866   2.364
 2126SOL    HW1 1654   2.711   1.957   2.355
 2126SOL    HW2 1655   2.571   1.874   2.370
 2127SOL     OW 1656   2.059   2.838   3.126
 2127SOL    HW1 1657   2.148   2.793   3.112
 2127SOL    HW2 1658   1.986   2.773   3.107
 2128SOL     OW 1659   3.387   2.861   2.052
 2128SOL    HW1 1660   3.324   2.785   2.065
 2128SOL    HW2 1661   3.435   2.879   2.138
 2130SOL     OW 1662   2.179   2.113   3.663
 2130SOL    HW1 1663   2.250   2.184   3.669
 2130SOL    HW2 1664   2.091   2.152   3.691
 2131SOL     OW 1665   3.328   3.279   2.815
 2131SOL    HW1 1666   3.269   3.285   2.895
 2131SOL    HW2 1667   3.313   3.191   2.769
 2132SOL     OW 1668   3.529   3.576   2.434
 2132SOL    HW1 1669   3.488   3.553   2.346
 2132SOL    HW2 1670   3.511   3.502   2.499
 2133SOL     OW 1671   2.460   2.591   2.132
 2133SOL    HW1 1672   2.484   2.660   2.064
 2133SOL    HW2 1673   2.382   2.624   2.186
 2134SOL     OW 1674   3.143   2.207   2.806
 2134SOL    HW1 1675   3.057   2.157   2.793
 2134SOL    HW2 1676   3.205   2.153   2.862
 2135SOL     OW 1677   3.438   3.524   2.169
 2135SOL    HW1 1678   3.527   3.570   2.172
 2135SOL    HW2 1679   3.417   3.500   2.074
 2136SOL     OW 1680   2.669   2.467   3.327
 2136SOL    HW1 1681   2.622   2.464   3.416
 2136SOL    HW2 1682   2.618   2.412   3.261
 2137SOL     OW 1683   3.256   2.331   3.536
 2137SOL    HW1 1684   3.236   2.374   3.624
 2137SOL    HW2 1685   3.334   2.269   3.545
 2138SOL     OW 1686   2.835   2.752   3.434
 2138SOL    HW1 1687   2.881   2.668   3.405
 2138SOL    HW2 1688   2.779   2.786   3.359
 2139SOL     OW 1689   2.853   2.272   3.104
 2139SOL    HW1 1690   2.776   2.306   3.158
 2139SOL    HW2 1691   2.819   2.221   3.025
 2140SOL     OW 1692   2.903   2.563   2.291
 2140SOL    HW1 1693   2.929   2.559   2.387
 2140SOL    HW2 1694   2.818   2.512   2.277
 2141SOL     OW 1695   1.938   2.673   2.651
 2141SOL    HW1 1696   2.037   2.661   2.660
 2141SOL    HW2 1697   1.914   2.768   2.672
 2142SOL     OW 1698   1.992   3.683   3.433
 2142SOL    HW1 1699   1.982   3.668   3.532
 2142SOL    HW2 1700   1.906   3.719   3.397
 2143SOL     OW 1701   2.727   2.210   2.057
 2143SOL    HW1 1702   2.786   2.273   2.008
 2143SOL    HW2 1703   2.746   2.116   2.028
 2145SOL     OW 1704   3.224   3.006   2.407
 2145SOL    HW1 1705   3.307   2.977   2.359
 2145SOL    HW2 1706   3.175   3.073   2.351
 2146SOL     OW 1707   2.412   2.058   2.747
 2146SOL    HW1 1708   2.407   2.053   2.847
 2146SOL    HW2 1709   2.414   2.154   2.718
 2147SOL     OW 1710   2.870   3.318   2.339
 2147SOL    HW1 1711   2.824   3.390   2.287
 2147SOL    HW2 1712   2.866   3.338   2.437
 2148SOL     OW 1713   2.213   3.663   2.715
 2148SOL    HW1 1714   2.263   3.577   2.721
 2148SOL    HW2 1715   2.278   3.740   2.712
 2149SOL     OW 1716   3.657   2.928   2.735
 2149SOL    HW1 1717   3.595   2.913   2.659
 2149SOL    HW2 1718   3.605   2.939   2.820
 2150SOL     OW 1719   3.089   3.412   3.368
 2150SOL    HW1 1720   3.095   3.335   3.432
 2150SOL    HW2 1721   3.037   3.386   3.288
 2151SOL     OW 1722   2.183   2.805   2.104
 2151SOL    HW1 1723   2.265   2.844   2.062
 2151SOL    HW2 1724   2.156   2.723   2.055
 2152SOL     OW 1725   3.320   2.597   2.590
 2152SOL    HW1 1726   3.315   2.532   2.665
 2152SOL    HW2 1727   3.400   2.656   2.603
 2153SOL     OW 1728   2.323   3.128   3.589
 2153SOL    HW1 1729   2.273   3.129   3.503
 2153SOL    HW2 1730   2.260   3.110   3.665
 2154SOL     OW 1731   2.973   3.638   2.099
 2154SOL    HW1 1732   2.913   3.576   2.149
 2154SOL    HW2 1733   3.004   3.594   2.014
 2155SOL     OW 1734   2.064   2.147   3.360
 2155SOL    HW1 1735   1.984   2.207   3.347
 2155SOL    HW2 1736   2.054   2.098   3.446
 2156SOL     OW 1737   3.494   3.239   1.943
 2156SOL    HW1 1738   3.462   3.333   1.933
 2156SOL    HW2 1739   3.418   3.176   1.931
 2157SOL     OW 1740   2.326   3.605   2.185
 2157SOL    HW1 1741   2.359   3.644   2.271
 2157SOL    HW2 1742   2.402   3.598   2.120
 2158SOL     OW 1743   3.262   1.969   2.288
 2158SOL    HW1 1744   3.238   1.932   2.198
 2158SOL    HW2 1745   3.361   1.985   2.292
 2159SOL     OW 1746   2.111   3.647   3.103
 2159SOL    HW1 1747   2.168   3.582   3.153
 2159SOL    HW2 1748   2.095   3.614   3.010
 2160SOL     OW 1749   2.802   3.560   2.766
 2160SOL    HW1 1750   2.882   3.503   2.787
 2160SOL    HW2 1751   2.753   3.520   2.689
 2161SOL     OW 1752   3.409   2.084   3.591
 2161SOL    HW1 1753   3.404   2.121   3.683
 2161SOL    HW2 1754   3.337   2.015   3.579
 2162SOL     OW 1755   2.476   1.984   1.979
 2162SOL    HW1 1756   2.574   1.962   1.986
 2162SOL    HW2 1757   2.445   1.967   1.886
 2163SOL     OW 1758   2.643   2.126   3.611
 2163SOL    HW1 1759   2.710   2.065   3.654
 2163SOL    HW2 1760   2.570   2.145   3.676
 2164SOL     OW 1761   2.750   3.376   3.057
 2164SOL    HW1 1762   2.727   3.351   2.963
 2164SOL    HW2 1763   2.811   3.307   3.096
 2165SOL     OW 1764   3.213   2.452   3.295
 2165SOL    HW1 1765   3.241   2.409   3.380
 2165SOL    HW2 1766   3.238   2.548   3.296
 2166SOL     OW 1767   2.665   3.264   2.786
 2166SOL    HW1 1768   2.755   3.278   2.744
 2166SOL    HW2 1769   2.594   3.266   2.715
 2167SOL     OW 1770   2.784   2.365   2.761
 2167SOL    HW1 1771   2.759   2.356   2.665
 2167SOL    HW2 1772   2.832   2.283   2.792
 2168SOL     OW 1773   2.401   1.926   2.374
 2168SOL    HW1 1774   2.320   1.927   2.432
 2168SOL    HW2 1775   2.404   2.009   2.319
 2169SOL     OW 1776   3.296   3.050   1.903
 2169SOL    HW1 1777   3.328   2.974   1.960
 2169SOL    HW2 1778   3.204   3.077   1.933
 2170SOL     OW 1779   2.159   1.897   2.033
 2170SOL    HW1 1780   2.208   1.981   2.012
 2170SOL    HW2 1781   2.221   1.832   2.078
 2171SOL     OW 1782   2.797   2.098   2.342
 2171SOL    HW1 1783   2.749   2.139   2.264
 2171SOL    HW2 1784   2.896   2.096   2.323
 2172SOL     OW 1785   2.938   2.545   3.326
 2172SOL    HW1 1786   2.858   2.484   3.329
 2172SOL    HW2 1787   3.019   2.492   3.302
 2173SOL     OW 1788   3.089   3.432   2.655
 2173SOL    HW1 1789   3.110   3.506   2.590
 2173SOL    HW2 1790   3.157   3.432   2.728
 2174SOL     OW 1791   2.321   3.014   2.603
 2174SOL    HW1 1792   2.250   2.987   2.668
 2174SOL    HW2 1793   2.295   2.986   2.510
 2175SOL     OW 1794   3.133   3.659   2.453
 2175SOL    HW1 1795   3.177   3.723   2.389
 2175SOL    HW2 1796   3.083   3.711   2.523
 2176SOL     OW 1797   2.894   2.411   1.878
 2176SOL    HW1 1798   2.853   2.493   1.839
 2176SOL    HW2 1799   2.958   2.437   1.951
 2177SOL     OW 1800   1.940   2.418   3.248
 2177SOL    HW1 1801   2.032   2.417   3.207
 2177SOL    HW2 1802   1.934   2.492   3.315
 2178SOL     OW 1803   2.423   2.084   3.009
 2178SOL    HW1 1804   2.461   2.000   3.046
 2178SOL    HW2 1805   2.335   2.103   3.053
 2179SOL     OW 1806   2.728   2.316   2.504
 2179SOL    HW1 1807   2.696   2.388   2.442
 2179SOL    HW2 1808   2.752   2.235   2.451
 2180SOL     OW 1809   2.879   1.901   2.615
 2180SOL    HW1 1810   2.807   1.906   2.546
 2180SOL    HW2 1811   2.855   1.832   2.684
 2181SOL     OW 1812   3.291   3.035   2.729
 2181SOL    HW1 1813   3.236   2.951   2.722
 2181SOL    HW2 1814   3.317   3.064   2.637
 2182SOL     OW 1815   3.328   2.452   2.854
 2182SOL    HW1 1816   3.298   2.357   2.861
 2182SOL    HW2 1817   3.401   2.468   2.920
 2183SOL     OW 1818   3.719   2.695   2.239
 2183SOL    HW1 1819   3.761   2.631   2.303
 2183SOL    HW2 1820   3.681   2.644   2.161
 2184SOL     OW 1821   2.350   3.247   2.036
 2184SOL    HW1 1822   2.263   3.232   2.083
 2184SOL    HW2 1823   2.333   3.273   1.941
 2185SOL     OW 1824   3.526   3.142   2.519
 2185SOL    HW1 1825   3.625   3.150   2.533
 2185SOL    HW2 1826   3.481   3.226   2.550
 2186SOL     OW 1827   3.252   2.437   1.940
 2186SOL    HW1 1828   3.198   2.416   2.021
 2186SOL    HW2 1829   3.343   2.396   1.949
 2188SOL     OW 1830   2.926   3.209   3.202
 2188SOL    HW1 1831   2.846   3.186   3.257
 2188SOL    HW2 1832   3.009   3.183   3.251
 2190SOL     OW 1833   2.973   3.057   2.962
 2190SOL    HW1 1834   2.933   3.101   3.043
 2190SOL    HW2 1835   2.932   3.094   2.879
 2191SOL     OW 1836   3.500   2.961   2.941
 2191SOL    HW1 1837   3.505   3.042   3.000
 2191SOL    HW2 1838   3.414   2.963   2.890
 2192SOL     OW 1839   2.777   1.951   3.264
 2192SOL    HW1 1840   2.802   1.931   3.169
 2192SOL    HW2 1841   2.849   2.007   3.306
 2193SOL     OW 1842   2.842   2.978   3.581
 2193SOL    HW1 1843   2.743   2.984   3.591
 2193SOL    HW2 1844   2.865   2.898   3.525
 2194SOL     OW 1845   2.567   2.912   2.230
 2194SOL    HW1 1846   2.553   2.919   2.329
 2194SOL    HW2 1847   2.651   2.861   2.212
 2195SOL     OW 1848   2.272   2.675   3.113
 2195SOL    HW1 1849   2.358   2.687   3.163
 2195SOL    HW2 1850   2.230   2.588   3.140
 2196SOL     OW 1851   3.136   2.248   3.124
 2196SOL    HW1 1852   3.157   2.322   3.188
 2196SOL    HW2 1853   3.047   2.265   3.081
 2197SOL     OW 1854   1.926   3.426   3.193
 2197SOL    HW1 1855   1.880   3.508   3.159
 2197SOL    HW2 1856   2.024   3.445   3.202
 2198SOL     OW 1857   2.229   2.962   2.363
 2198SOL    HW1 1858   2.222   3.045   2.307
 2198SOL    HW2 1859   2.233   2.882   2.303
 2199SOL     OW 1860   3.114   3.210   2.250
 2199SOL    HW1 1861   3.164   3.287   2.290
 2199SOL    HW2 1862   3.019   3.212   2.282
 2200SOL     OW 1863   3.134   3.307   3.004
 2200SOL    HW1 1864   3.181   3.320   3.091
 2200SOL    HW2 1865   3.068   3.233   3.013
 2201SOL     OW 1866   3.444   2.501   2.334
 2201SOL    HW1 1867   3.413   2.562   2.407
 2201SOL    HW2 1868   3.494   2.553   2.265
 2202SOL     OW 1869   2.216   3.372   3.191
 2202SOL    HW1 1870   2.195   3.328   3.104
 2202SOL    HW2 1871   2.313   3.398   3.194
 2203SOL     OW 1872   2.264   2.613   3.460
 2203SOL    HW1 1873   2.332   2.668   3.413
 2203SOL    HW2 1874   2.304   2.525   3.487
 2204SOL     OW 1875   3.449   2.641   3.532
 2204SOL    HW1 1876   3.357   2.679   3.527
 2204SOL    HW2 1877   3.509   2.688   3.467
 2205SOL     OW 1878   2.875   1.967   3.632
 2205SOL    HW1 1879   2.881   2.052   3.580
 2205SOL    HW2 1880   2.907   1.891   3.575
 2206SOL     OW 1881   2.366   1.912   3.602
 2206SOL    HW1 1882   2.324   1.855   3.532
 2206SOL    HW2 1883   2.300   1.981   3.634
 2207SOL     OW 1884   2.435   2.732   2.891
 2207SOL    HW1 1885   2.479   2.821   2.882
 2207SOL    HW2 1886   2.372   2.732   2.968
 2208SOL     OW 1887   3.222   2.724   2.907
 2208SOL    HW1 1888   3.147   2.724   2.841
 2208SOL    HW2 1889   3.259   2.632   2.916
 2209SOL     OW 1890   3.071   2.387   2.137
 2209SOL    HW1 1891   3.084   2.303   2.191
 2209SOL    HW2 1892   3.042   2.461   2.197
 2210SOL     OW 1893   2.169   2.075   3.093
 2210SOL    HW1 1894   2.146   2.112   3.183
 2210SOL    HW2 1895   2.139   1.980   3.087
 2211SOL     OW 1896   1.899   3.172   3.144
 2211SOL    HW1 1897   1.952   3.123   3.212
 2211SOL    HW2 1898   1.921   3.270   3.149
 2212SOL     OW 1899   2.594   2.496   2.926
 2212SOL    HW1 1900   2.653   2.470   2.850
 2212SOL    HW2 1901   2.566   2.592   2.915
 2214SOL     OW 1902   2.169   1.925   2.480
 2214SOL    HW1 1903   2.158   2.019   2.513
 2214SOL    HW2 1904   2.164   1.862   2.557
 2215SOL     OW 1905   3.484   2.229   2.236
 2215SOL    HW1 1906   3.486   2.153   2.300
 2215SOL    HW2 1907   3.436   2.306   2.276
 2216SOL     OW 1908   2.885   2.628   2.828
 2216SOL    HW1 1909   2.900   2.649   2.924
 2216SOL    HW2 1910   2.855   2.533   2.819
 2217SOL     OW 1911   2.842   3.435   3.562
 2217SOL    HW1 1912   2.822   3.479   3.474
 2217SOL    HW2 1913   2.881   3.344   3.546
 2219SOL     OW 1914   2.212   2.760   3.666
 2219SOL    HW1 1915   2.288   2.804   3.714
 2219SOL    HW2 1916   2.247   2.713   3.584
 2220SOL     OW 1917   3.402   2.136   1.987
 2220SOL    HW1 1918   3.341   2.061   2.010
 2220SOL    HW2 1919   3.424   2.188   2.070
 2221SOL     OW 1920   3.165   2.700   1.904
 2221SOL    HW1 1921   3.199   2.607   1.919
 2221SOL    HW2 1922   3.183   2.727   1.809
 2222SOL     OW 1923   2.930   3.195   2.711
 2222SOL    HW1 1924   2.937   3.111   2.656
 2222SOL    HW2 1925   2.992   3.264   2.675
 2223SOL     OW 1926   2.181   2.672   2.811
 2223SOL    HW1 1927   2.274   2.708   2.816
 2223SOL    HW2 1928   2.175   2.587   2.863
 2224SOL     OW 1929   3.000   2.242   3.540
 2224SOL    HW1 1930   2.955   2.305   3.604
 2224SOL    HW2 1931   3.093   2.273   3.523
 2225SOL     OW 1932   3.022   2.069   3.339
 2225SOL    HW1 1933   3.022   2.133   3.416
 2225SOL    HW2 1934   3.050   2.117   3.256
 2226SOL     OW 1935   1.870   3.188   2.062
 2226SOL    HW1 1936   1.777   3.209   2.031
 2226SOL    HW2 1937   1.880   3.089   2.075
 2227SOL     OW 1938   1.950   3.663   2.789
 2227SOL    HW1 1939   1.908   3.577   2.762
 2227SOL    HW2 1940   2.044   3.666   2.755
 2228SOL     OW 1941   2.366   3.430   2.772
 2228SOL    HW1 1942   2.432   3.504   2.781
 2228SOL    HW2 1943   2.410   3.351   2.730
 2229SOL     OW 1944   2.864   2.658   3.100
 2229SOL    HW1 1945   2.905   2.626   3.186
 2229SOL    HW2 1946   2.768   2.631   3.097
 2230SOL     OW 1947   1.902   2.406   2.976
 2230SOL    HW1 1948   1.987   2.373   2.935
 2230SOL    HW2 1949   1.915   2.421   3.074
 2231SOL     OW 1950   2.051   2.382   3.584
 2231SOL    HW1 1951   2.110   2.342   3.514
 2231SOL    HW2 1952   1.993   2.453   3.543
 2232SOL     OW 1953   3.231   2.812   3.522
 2232SOL    HW1 1954   3.270   2.901   3.542
 2232SOL    HW2 1955   3.241   2.792   3.425
 2233SOL     OW 1956   2.677   2.434   2.187
 2233SOL    HW1 1957   2.684   2.345   2.141
 2233SOL    HW2 1958   2.583   2.468   2.179
 2234SOL     OW 1959   3.519   2.466   3.068
 2234SOL    HW1 1960   3.481   2.397   3.130
 2234SOL    HW2 1961   3.601   2.430   3.024
 2235SOL     OW 1962   2.114   3.426   3.606
 2235SOL    HW1 1963   2.084   3.483   3.682
 2235SOL    HW2 1964   2.107   3.329   3.632
 2236SOL     OW 1965   2.533   2.326   3.131
 2236SOL    HW1 1966   2.499   2.237   3.101
 2236SOL    HW2 1967   2.559   2.380   3.051
 2237SOL     OW 1968   2.792   3.540   3.327
 2237SOL    HW1 1969   2.768   3.522   3.232
 2237SOL    HW2 1970   2.822   3.634   3.337
 2238SOL     OW 1971   2.021   2.999   3.328
 2238SOL    HW1 1972   2.043   2.938   3.404
 2238SOL    HW2 1973   2.031   2.950   3.242
 2239SOL     OW 1974   3.209   2.921   3.096
 2239SOL    HW1 1975   3.233   2.858   3.022
 2239SOL    HW2 1976   3.119   2.961   3.078
 2240SOL     OW 1977   3.164   2.717   2.171
 2240SOL    HW1 1978   3.078   2.686   2.213
 2240SOL    HW2 1979   3.160   2.703   2.072
 2242SOL     OW 1980   3.114   3.593   2.990
 2242SOL    HW1 1981   3.198   3.598   2.936
 2242SOL    HW2 1982   3.091   3.497   3.008
 2243SOL     OW 1983   1.945   3.120   2.884
 2243SOL    HW1 1984   1.940   3.119   2.984
 2243SOL    HW2 1985   1.862   3.079   2.846
 2244SOL     OW 1986   2.550   3.524   3.578
 2244SOL    HW1 1987   2.494   3.605   3.587
 2244SOL    HW2 1988   2.602   3.528   3.492
 2245SOL     OW 1989   3.588   1.997   2.385
 2245SOL    HW1 1990   3.661   1.980   2.318
 2245SOL    HW2 1991   3.557   1.910   2.423
 2246SOL     OW 1992   3.250   3.435   2.339
 2246SOL    HW1 1993   3.317   3.447   2.265
 2246SOL    HW2 1994   3.210   3.524   2.362
 2248SOL     OW 1995   3.142   2.789   2.534
 2248SOL    HW1 1996   3.202   2.708   2.536
 2248SOL    HW2 1997   3.182   2.858   2.474
 2249SOL     OW 1998   2.692   3.135   3.284
 2249SOL    HW1 1999   2.687   3.168   3.379
 2249SOL    HW2 2000   2.606   3.154   3.238
 2250SOL     OW 2001   2.534   3.478   2.016
 2250SOL    HW1 2002   2.543   3.488   1.917
 2250SOL    HW2 2003   2.494   3.389   2.037
 2252SOL     OW 2004   3.703   2.037   2.825
 2252SOL    HW1 2005   3.742   1.952   2.789
 2252SOL    HW2 2006   3.605   2.039   2.806
 2253SOL     OW 2007   2.125   2.188   2.582
 2253SOL    HW1 2008   2.046   2.239   2.548
 2253SOL    HW2 2009   2.116   2.173   2.680
 2254SOL     OW 2010   3.056   3.474   1.893
 2254SOL    HW1 2011   3.062   3.381   1.930
 2254SOL    HW2 2012   2.997   3.474   1.813
 2255SOL     OW 2013   2.684   2.864   3.234
 2255SOL    HW1 2014   2.724   2.863   3.142
 2255SOL    HW2 2015   2.694   2.956   3.274
 2256SOL     OW 2016   2.778   2.772   2.153
 2256SOL    HW1 2017   2.841   2.810   2.085
 2256SOL    HW2 2018   2.818   2.689   2.192
 2257SOL     OW 2019   3.366   3.469   1.906
 2257SOL    HW1 2020   3.274   3.506   1.913
 2257SOL    HW2 2021   3.404   3.489   1.816
 2258SOL     OW 2022   2.234   3.150   3.352
 2258SOL    HW1 2023   2.221   3.243   3.318
 2258SOL    HW2 2024   2.150   3.098   3.339
 2259SOL     OW 2025   3.476   3.154   3.151
 2259SOL    HW1 2026   3.536   3.157   3.231
 2259SOL    HW2 2027   3.401   3.218   3.164
 2260SOL     OW 2028   2.901   2.960   2.558
 2260SOL    HW1 2029   2.831   2.913   2.612
 2260SOL    HW2 2030   2.960   2.892   2.515
 2261SOL     OW 2031   2.876   2.098   2.833
 2261SOL    HW1 2032   2.868   2.062   2.740
 2261SOL    HW2 2033   2.874   2.022   2.898
 2262SOL     OW 2034   2.452   3.349   2.353
 2262SOL    HW1 2035   2.494   3.291   2.283
 2262SOL    HW2 2036   2.408   3.428   2.309
 2263SOL     OW 2037   3.571   2.247   3.243
 2263SOL    HW1 2038   3.644   2.316   3.247
 2263SOL    HW2 2039   3.599   2.172   3.184
 2264SOL     OW 2040   2.117   3.210   2.152
 2264SOL    HW1 2041   2.021   3.211   2.125
 2264SOL    HW2 2042   2.129   3.263   2.236
 2265SOL     OW 2043   1.967   2.875   3.588
 2265SOL    HW1 2044   1.890   2.842   3.642
 2265SOL    HW2 2045   2.052   2.845   3.630
 2266SOL     OW 2046   2.534   2.065   3.351
 2266SOL    HW1 2047   2.624   2.049   3.311
 2266SOL    HW2 2048   2.542   2.070   3.450
 2267SOL     OW 2049   1.937   2.207   1.895
 2267SOL    HW1 2050   1.845   2.179   1.866
 2267SOL    HW2 2051   1.968   2.284   1.839
 2268SOL     OW 2052   3.302   2.718   3.260
 2268SOL    HW1 2053   3.245   2.770   3.197
 2268SOL    HW2 2054   3.398   2.730   3.236
 2269SOL     OW 2055   1.934   2.028   2.180
 2269SOL    HW1 2056   1.917   2.111   2.126
 2269SOL    HW2 2057   2.024   1.991   2.158
 2270SOL     OW 2058   3.045   3.197   1.981
 2270SOL    HW1 2059   2.946   3.186   1.983
 2270SOL    HW2 2060   3.079   3.212   2.074
 2271SOL     OW 2061   2.475   2.704   3.293
 2271SOL    HW1 2062   2.531   2.785   3.276
 2271SOL    HW2 2063   2.534   2.624   3.296
 2272SOL     OW 2064   3.355   3.629   2.821
 2272SOL    HW1 2065   3.388   3.693   2.752
 2272SOL    HW2 2066   3.421   3.623   2.896
 2273SOL     OW 2067   2.578   2.427   3.570
 2273SOL    HW1 2068   2.597   2.492   3.644
 2273SOL    HW2 2069   2.638   2.347   3.579
 2274SOL     OW 2070   3.312   3.082   3.495
 2274SOL    HW1 2071   3.303   3.072   3.594
 2274SOL    HW2 2072   3.408   3.075   3.469
 2275SOL     OW 2073   2.252   3.603   3.422
 2275SOL    HW1 2074   2.161   3.644   3.420
 2275SOL    HW2 2075   2.245   3.509   3.454
 2276SOL     OW 2076   3.536   2.745   3.116
 2276SOL    HW1 2077   3.509   2.656   3.079
 2276SOL    HW2 2078   3.537   2.813   3.043
 2277SOL     OW 2079   3.087   2.187   2.311
 2277SOL    HW1 2080   3.152   2.113   2.300
 2277SOL    HW2 2081   3.107   2.237   2.395
 2278SOL     OW 2082   2.456   2.607   2.514
 2278SOL    HW1 2083   2.506   2.692   2.495
 2278SOL    HW2 2084   2.368   2.609   2.466
 2279SOL     OW 2085   3.639   2.204   3.504
 2279SOL    HW1 2086   3.622   2.235   3.410
 2279SOL    HW2 2087   3.555   2.167   3.542
 2280SOL     OW 2088   3.592   2.796   3.379
 2280SOL    HW1 2089   3.630   2.887   3.394
 2280SOL    HW2 2090   3.584   2.779   3.280
 2281SOL     OW 2091   2.721   3.236   1.878
 2281SOL    HW1 2092   2.675   3.251   1.966
 2281SOL    HW2 2093   2.765   3.321   1.848
 2282SOL     OW 2094   2.523   3.652   2.815
 2282SOL    HW1 2095   2.477   3.740   2.802
 2282SOL    HW2 2096   2.622   3.664   2.808
 2283SOL     OW 2097   2.721   2.818   2.723
 2283SOL    HW1 2098   2.775   2.749   2.771
 2283SOL    HW2 2099   2.689   2.887   2.789
 2284SOL     OW 2100   2.945   2.846   1.949
 2284SOL    HW1 2101   2.922   2.899   1.867
 2284SOL    HW2 2102   3.026   2.790   1.930
 2285SOL     OW 2103   3.723   3.431   2.713
 2285SOL    HW1 2104   3.652   3.419   2.643
 2285SOL    HW2 2105   3.724   3.352   2.773
 2286SOL     OW 2106   2.083   3.176   3.706
 2286SOL    HW1 2107   2.018   3.103   3.685
 2286SOL    HW2 2108   2.087   3.190   3.804
 2287SOL     OW 2109   1.941   3.102   2.515
 2287SOL    HW1 2110   1.940   3.055   2.603
 2287SOL    HW2 2111   2.023   3.074   2.464
 2288SOL     OW 2112   2.534   3.253   3.486
 2288SOL    HW1 2113   2.456   3.203   3.524
 2288SOL    HW2 2114   2.531   3.348   3.517
 2289SOL     OW 2115   3.686   2.054   3.089
 2289SOL    HW1 2116   3.682   1.964   3.133
 2289SOL    HW2 2117   3.689   2.043   2.990
 2290SOL     OW 2118   3.567   3.349   2.966
 2290SOL    HW1 2119   3.474   3.324   2.939
 2290SOL    HW2 2120   3.593   3.299   3.048
 2291SOL     OW 2121   2.179   2.409   3.142
 2291SOL    HW1 2122   2.217   2.350   3.214
 2291SOL    HW2 2123   2.219   2.383   3.054
 2292SOL     OW 2124   2.674   3.448   2.549
 2292SOL    HW1 2125   2.706   3.458   2.455
 2292SOL    HW2 2126   2.595   3.386   2.551
 2293SOL     OW 2127   3.286   2.076   2.974
 2293SOL    HW1 2128   3.338   2.011   3.029
 2293SOL    HW2 2129   3.237   2.139   3.035
 2294SOL     OW 2130   2.863   1.896   3.016
 2294SOL    HW1 2131   2.800   1.824   2.985
 2294SOL    HW2 2132   2.956   1.860   3.016
 2295SOL     OW 2133   2.632   3.192   2.163
 2295SOL    HW1 2134   2.586   3.105   2.180
 2295SOL    HW2 2135   2.723   3.189   2.204
 2296SOL     OW 2136   2.480   3.429   3.146
 2296SOL    HW1 2137   2.475   3.511   3.203
 2296SOL    HW2 2138   2.569   3.426   3.101
 2297SOL     OW 2139   3.214   1.914   2.030
 2297SOL    HW1 2140   3.249   1.873   1.946
 2297SOL    HW2 2141   3.124   1.876   2.050
 2298SOL     OW 2142   3.162   2.315   2.553
 2298SOL    HW1 2143   3.103   2.395   2.557
 2298SOL    HW2 2144   3.177   2.280   2.646
 2299SOL     OW 2145   3.455   2.083   2.744
 2299SOL    HW1 2146   3.371   2.082   2.798
 2299SOL    HW2 2147   3.457   2.166   2.688
 2300SOL     OW 2148   1.901   2.939   2.162
 2300SOL    HW1 2149   2.000   2.928   2.153
 2300SOL    HW2 2150   1.861   2.853   2.194
 2301SOL     OW 2151   2.737   3.508   2.199
 2301SOL    HW1 2152   2.660   3.473   2.145
 2301SOL    HW2 2153   2.705   3.579   2.261
 2302SOL     OW 2154   2.092   2.490   3.837
 2302SOL    HW1 2155   1.999   2.488   3.874
 2302SOL    HW2 2156   2.093   2.451   3.745
 2314SOL     OW 2157   2.468   2.826   3.847
 2314SOL    HW1 2158   2.475   2.910   3.793
 2314SOL    HW2 2159   2.514   2.839   3.935
 2325SOL     OW 2160   2.460   2.591   3.994
 2325SOL    HW1 2161   2.484   2.660   3.926
 2325SOL    HW2 2162   2.382   2.624   4.048
 2330SOL     OW 2163   2.727   2.210   3.919
 2330SOL    HW1 2164   2.786   2.273   3.870
 2330SOL    HW2 2165   2.746   2.116   3.890
 2336SOL     OW 2166   2.183   2.805   3.966
 2336SOL    HW1 2167   2.265   2.844   3.924
 2336SOL    HW2 2168   2.156   2.723   3.917
 2343SOL     OW 2169   2.476   1.984   3.841
 2343SOL    HW1 2170   2.574   1.962   3.848
 2343SOL    HW2 2171   2.445   1.967   3.748
 2346SOL     OW 2172   2.159   1.897   3.895
 2346SOL    HW1 2173   2.208   1.981   3.874
 2346SOL    HW2 2174   2.221   1.832   3.940
 2351SOL     OW 2175   2.894   2.411   3.740
 2351SOL    HW1 2176   2.853   2.493   3.701
 2351SOL    HW2 2177   2.958   2.437   3.813
 2356SOL     OW 2178   2.350   3.247   3.898
 2356SOL    HW1 2179   2.263   3.232   3.945
 2356SOL    HW2 2180   2.333   3.273   3.803
 2358SOL     OW 2181   3.252   2.437   3.802
 2358SOL    HW1 2182   3.198   2.416   3.883
 2358SOL    HW2 2183   3.343   2.396   3.811
 2359SOL     OW 2184   2.389   2.118   4.052
 2359SOL    HW1 2185   2.416   2.059   3.977
 2359SOL    HW2 2186   2.389   2.213   4.021
 2365SOL     OW 2187   3.071   2.387   3.999
 2365SOL    HW1 2188   3.084   2.303   4.053
 2365SOL    HW2 2189   3.042   2.461   4.059
 2370SOL     OW 2190   3.165   2.700   3.766
 2370SOL    HW1 2191   3.199   2.607   3.781
 2370SOL    HW2 2192   3.183   2.727   3.671
 2376SOL     OW 2193   2.677   2.434   4.049
 2376SOL    HW1 2194   2.684   2.345   4.003
 2376SOL    HW2 2195   2.583   2.468   4.041
 2377SOL     OW 2196   2.335   2.362   3.915
 2377SOL    HW1 2197   2.396   2.442   3.919
 2377SOL    HW2 2198   2.240   2.393   3.922
 2387SOL     OW 2199   2.778   2.772   4.015
 2387SOL    HW1 2200   2.841   2.810   3.947
 2387SOL    HW2 2201   2.818   2.689   4.054
 2392SOL     OW 2202   1.937   2.207   3.757
 2392SOL    HW1 2203   1.845   2.179   3.728
 2392SOL    HW2 2204   1.968   2.284   3.701
 2393SOL     OW 2205   1.934   2.028   4.042
 2393SOL    HW1 2206   1.917   2.111   3.988
 2393SOL    HW2 2207   2.024   1.991   4.020
 2398SOL     OW 2208   2.721   3.236   3.740
 2398SOL    HW1 2209   2.675   3.251   3.828
 2398SOL    HW2 2210   2.765   3.321   3.710
 2401SOL     OW 2211   2.945   2.846   3.811
 2401SOL    HW1 2212   2.922   2.899   3.729
 2401SOL    HW2 2213   3.026   2.790   3.792
 2428SOL     OW 2214   2.179   3.975   1.801
 2428SOL    HW1 2215   2.250   4.046   1.807
 2428SOL    HW2 2216   2.091   4.014   1.829
 2445SOL     OW 2217   2.643   3.988   1.749
 2445SOL    HW1 2218   2.710   3.927   1.792
 2445SOL    HW2 2219   2.570   4.007   1.814
 2462SOL     OW 2220   2.777   3.813   1.402
 2462SOL    HW1 2221   2.802   3.793   1.307
 2462SOL    HW2 2222   2.849   3.869   1.444
 2469SOL     OW 2223   2.875   3.829   1.770
 2469SOL    HW1 2224   2.881   3.914   1.718
 2469SOL    HW2 2225   2.907   3.753   1.713
 2470SOL     OW 2226   2.366   3.774   1.740
 2470SOL    HW1 2227   2.324   3.717   1.670
 2470SOL    HW2 2228   2.300   3.843   1.772
 2505SOL     OW 2229   2.534   3.927   1.489
 2505SOL    HW1 2230   2.624   3.911   1.449
 2505SOL    HW2 2231   2.542   3.932   1.588
 2524SOL     OW 2232   2.087   3.999   2.858
 2524SOL    HW1 2233   2.122   3.982   2.950
 2524SOL    HW2 2234   1.999   3.954   2.846
 2536SOL     OW 2235   2.671   3.728   2.364
 2536SOL    HW1 2236   2.711   3.819   2.355
 2536SOL    HW2 2237   2.571   3.736   2.370
 2548SOL     OW 2238   2.727   4.072   2.057
 2548SOL    HW1 2239   2.786   4.135   2.008
 2548SOL    HW2 2240   2.746   3.978   2.028
 2550SOL     OW 2241   2.412   3.920   2.747
 2550SOL    HW1 2242   2.407   3.915   2.847
 2550SOL    HW2 2243   2.414   4.016   2.718
 2553SOL     OW 2244   3.262   3.831   2.288
 2553SOL    HW1 2245   3.238   3.794   2.198
 2553SOL    HW2 2246   3.361   3.847   2.292
 2556SOL     OW 2247   2.476   3.846   1.979
 2556SOL    HW1 2248   2.574   3.824   1.986
 2556SOL    HW2 2249   2.445   3.829   1.886
 2560SOL     OW 2250   2.401   3.788   2.374
 2560SOL    HW1 2251   2.320   3.789   2.432
 2560SOL    HW2 2252   2.404   3.871   2.319
 2561SOL     OW 2253   2.159   3.759   2.033
 2561SOL    HW1 2254   2.208   3.843   2.012
 2561SOL    HW2 2255   2.221   3.694   2.078
 2562SOL     OW 2256   2.797   3.960   2.342
 2562SOL    HW1 2257   2.749   4.001   2.264
 2562SOL    HW2 2258   2.896   3.958   2.323
 2566SOL     OW 2259   2.423   3.946   3.009
 2566SOL    HW1 2260   2.461   3.862   3.046
 2566SOL    HW2 2261   2.335   3.965   3.053
 2568SOL     OW 2262   2.879   3.763   2.615
 2568SOL    HW1 2263   2.807   3.768   2.546
 2568SOL    HW2 2264   2.855   3.694   2.684
 2572SOL     OW 2265   2.389   3.980   2.190
 2572SOL    HW1 2266   2.416   3.921   2.115
 2572SOL    HW2 2267   2.389   4.075   2.159
 2574SOL     OW 2268   2.777   3.813   3.264
 2574SOL    HW1 2269   2.802   3.793   3.169
 2574SOL    HW2 2270   2.849   3.869   3.306
 2586SOL     OW 2271   2.169   3.937   3.093
 2586SOL    HW1 2272   2.146   3.974   3.183
 2586SOL    HW2 2273   2.139   3.842   3.087
 2589SOL     OW 2274   2.169   3.787   2.480
 2589SOL    HW1 2275   2.158   3.881   2.513
 2589SOL    HW2 2276   2.164   3.724   2.557
 2612SOL     OW 2277   2.125   4.050   2.582
 2612SOL    HW1 2278   2.046   4.101   2.548
 2612SOL    HW2 2279   2.116   4.035   2.680
 2614SOL     OW 2280   2.876   3.960   2.833
 2614SOL    HW1 2281   2.868   3.924   2.740
 2614SOL    HW2 2282   2.874   3.884   2.898
 2620SOL     OW 2283   1.934   3.890   2.180
 2620SOL    HW1 2284   1.917   3.973   2.126
 2620SOL    HW2 2285   2.024   3.853   2.158
 2629SOL     OW 2286   2.290   4.148   2.382
 2629SOL    HW1 2287   2.320   4.076   2.320
 2629SOL    HW2 2288   2.251   4.108   2.465
 2632SOL     OW 2289   2.863   3.758   3.016
 2632SOL    HW1 2290   2.800   3.686   2.985
 2632SOL    HW2 2291   2.956   3.722   3.016
 2633SOL     OW 2292   3.214   3.776   2.030
 2633SOL    HW1 2293   3.249   3.735   1.946
 2633SOL    HW2 2294   3.124   3.738   2.050
 2718SOL     OW 2295   3.854   1.821   1.571
 2718SOL    HW1 2296   3.844   1.806   1.670
 2718SOL    HW2 2297   3.768   1.857   1.535
 2775SOL     OW 2298   3.854   1.794   1.851
 2775SOL    HW1 2299   3.813   1.720   1.904
 2775SOL    HW2 2300   3.918   1.845   1.909
 2814SOL     OW 2301   3.955   1.713   2.345
 2814SOL    HW1 2302   3.989   1.790   2.399
 2814SOL    HW2 2303   3.999   1.713   2.255
 2820SOL     OW 2304   3.751   1.596   1.979
 2820SOL    HW1 2305   3.732   1.500   2.000
 2820SOL    HW2 2306   3.718   1.654   2.054
 2872SOL     OW 2307   3.732   1.326   2.062
 2872SOL    HW1 2308   3.639   1.347   2.031
 2872SOL    HW2 2309   3.742   1.227   2.075
 2873SOL     OW 2310   3.812   1.801   2.789
 2873SOL    HW1 2311   3.770   1.715   2.762
 2873SOL    HW2 2312   3.906   1.804   2.755
 2991SOL     OW 2313   3.837   2.599   1.597
 2991SOL    HW1 2314   3.925   2.586   1.642
 2991SOL    HW2 2315   3.824   2.696   1.575
 2995SOL     OW 2316   4.041   2.113   1.801
 2995SOL    HW1 2317   4.112   2.184   1.807
 2995SOL    HW2 2318   3.953   2.152   1.829
 3007SOL     OW 2319   3.926   2.147   1.498
 3007SOL    HW1 2320   3.846   2.207   1.485
 3007SOL    HW2 2321   3.916   2.098   1.584
 3018SOL     OW 2322   3.802   2.418   1.386
 3018SOL    HW1 2323   3.894   2.417   1.345
 3018SOL    HW2 2324   3.796   2.492   1.453
 3047SOL     OW 2325   3.913   2.382   1.722
 3047SOL    HW1 2326   3.972   2.342   1.652
 3047SOL    HW2 2327   3.855   2.453   1.681
 3065SOL     OW 2328   3.829   2.875   1.726
 3065SOL    HW1 2329   3.752   2.842   1.780
 3065SOL    HW2 2330   3.914   2.845   1.768
 3087SOL     OW 2331   3.954   2.490   1.975
 3087SOL    HW1 2332   3.861   2.488   2.012
 3087SOL    HW2 2333   3.955   2.451   1.883
 3088SOL     OW 2334   3.949   2.137   2.858
 3088SOL    HW1 2335   3.984   2.120   2.950
 3088SOL    HW2 2336   3.861   2.092   2.846
 3089SOL     OW 2337   3.743   2.230   2.509
 3089SOL    HW1 2338   3.661   2.273   2.548
 3089SOL    HW2 2339   3.715   2.157   2.446
 3099SOL     OW 2340   3.964   2.953   2.748
 3099SOL    HW1 2341   3.978   2.869   2.800
 3099SOL    HW2 2342   3.909   3.017   2.803
 3102SOL     OW 2343   3.846   2.505   2.425
 3102SOL    HW1 2344   3.801   2.417   2.442
 3102SOL    HW2 2345   3.845   2.559   2.509
 3107SOL     OW 2346   3.921   2.838   3.126
 3107SOL    HW1 2347   4.010   2.793   3.112
 3107SOL    HW2 2348   3.848   2.773   3.107
 3112SOL     OW 2349   3.800   2.673   2.651
 3112SOL    HW1 2350   3.899   2.661   2.660
 3112SOL    HW2 2351   3.776   2.768   2.672
 3118SOL     OW 2352   4.045   2.805   2.104
 3118SOL    HW1 2353   4.127   2.844   2.062
 3118SOL    HW2 2354   4.018   2.723   2.055
 3123SOL     OW 2355   4.106   2.562   2.342
 3123SOL    HW1 2356   4.151   2.472   2.339
 3123SOL    HW2 2357   4.012   2.551   2.375
 3129SOL     OW 2358   4.021   1.897   2.033
 3129SOL    HW1 2359   4.070   1.981   2.012
 3129SOL    HW2 2360   4.083   1.832   2.078
 3132SOL     OW 2361   3.802   2.418   3.248
 3132SOL    HW1 2362   3.894   2.417   3.207
 3132SOL    HW2 2363   3.796   2.492   3.315
 3148SOL     OW 2364   3.761   3.172   3.144
 3148SOL    HW1 2365   3.814   3.123   3.212
 3148SOL    HW2 2366   3.783   3.270   3.149
 3150SOL     OW 2367   4.031   1.925   2.480
 3150SOL    HW1 2368   4.020   2.019   2.513
 3150SOL    HW2 2369   4.026   1.862   2.557
 3154SOL     OW 2370   4.043   2.672   2.811
 3154SOL    HW1 2371   4.136   2.708   2.816
 3154SOL    HW2 2372   4.037   2.587   2.863
 3155SOL     OW 2373   4.063   2.371   2.868
 3155SOL    HW1 2374   4.011   2.288   2.851
 3155SOL    HW2 2375   4.140   2.376   2.804
 3156SOL     OW 2376   3.732   3.188   2.062
 3156SOL    HW1 2377   3.639   3.209   2.031
 3156SOL    HW2 2378   3.742   3.089   2.075
 3160SOL     OW 2379   3.764   2.406   2.976
 3160SOL    HW1 2380   3.849   2.373   2.935
 3160SOL    HW2 2381   3.777   2.421   3.074
 3167SOL     OW 2382   3.807   3.120   2.884
 3167SOL    HW1 2383   3.802   3.119   2.984
 3167SOL    HW2 2384   3.724   3.079   2.846
 3173SOL     OW 2385   3.987   2.188   2.582
 3173SOL    HW1 2386   3.908   2.239   2.548
 3173SOL    HW2 2387   3.978   2.173   2.680
 3180SOL     OW 2388   3.799   2.207   1.895
 3180SOL    HW1 2389   3.707   2.179   1.866
 3180SOL    HW2 2390   3.830   2.284   1.839
 3181SOL     OW 2391   3.796   2.028   2.180
 3181SOL    HW1 2392   3.779   2.111   2.126
 3181SOL    HW2 2393   3.886   1.991   2.158
 3190SOL     OW 2394   3.803   3.102   2.515
 3190SOL    HW1 2395   3.802   3.055   2.603
 3190SOL    HW2 2396   3.885   3.074   2.464
 3192SOL     OW 2397   4.152   2.286   2.382
 3192SOL    HW1 2398   4.182   2.214   2.320
 3192SOL    HW2 2399   4.113   2.246   2.465
 3198SOL     OW 2400   3.763   2.939   2.162
 3198SOL    HW1 2401   3.862   2.928   2.153
 3198SOL    HW2 2402   3.723   2.853   2.194
   4.72742   4.72742   4.72742
