; mobley_8578590_GMX.itp created by acpype (v: 2023.10.27) on Thu May 21 00:26:32 2026

[ atomtypes ]
;name   bond_type     mass     charge   ptype   sigma         epsilon       Amb
 c3       c3          0.00000  0.00000   A     3.39771e-01   4.51035e-01 ; 1.91  0.1078
 o        o           0.00000  0.00000   A     3.04812e-01   6.12119e-01 ; 1.71  0.1463
 s4       s4          0.00000  0.00000   A     3.53241e-01   1.18156e+00 ; 1.98  0.2824
 h1       h1          0.00000  0.00000   A     2.42200e-01   8.70272e-02 ; 1.36  0.0208

[ moleculetype ]
;name            nrexcl
 mobley_8578590   3

[ atoms ]
;   nr  type  resi  res  atom  cgnr     charge      mass       ; qtot   bond_type
     1   c3     1   MOL    C1    1    -0.130800     12.01000 ; qtot -0.131
     2   c3     1   MOL    C2    2    -0.130800     12.01000 ; qtot -0.262
     3    o     1   MOL    O1    3    -0.507202     16.00000 ; qtot -0.769
     4   s4     1   MOL    S1    4     0.268600     32.06000 ; qtot -0.500
     5   h1     1   MOL    H1    5     0.083367      1.00800 ; qtot -0.417
     6   h1     1   MOL    H2    6     0.083367      1.00800 ; qtot -0.333
     7   h1     1   MOL    H3    7     0.083367      1.00800 ; qtot -0.250
     8   h1     1   MOL    H4    8     0.083367      1.00800 ; qtot -0.167
     9   h1     1   MOL    H5    9     0.083367      1.00800 ; qtot -0.083
    10   h1     1   MOL    H6   10     0.083367      1.00800 ; qtot -0.000

[ bonds ]
;   ai     aj funct   r             k
     1      4   1    1.8442e-01    1.5322e+05 ;     C1 - S1    
     1      5   1    1.0969e-01    2.8804e+05 ;     C1 - H1    
     1      6   1    1.0969e-01    2.8804e+05 ;     C1 - H2    
     1      7   1    1.0969e-01    2.8804e+05 ;     C1 - H3    
     2      4   1    1.8442e-01    1.5322e+05 ;     C2 - S1    
     2      8   1    1.0969e-01    2.8804e+05 ;     C2 - H4    
     2      9   1    1.0969e-01    2.8804e+05 ;     C2 - H5    
     2     10   1    1.0969e-01    2.8804e+05 ;     C2 - H6    
     3      4   1    1.5086e-01    4.4926e+05 ;     O1 - S1    

[ pairs ]
;   ai     aj    funct
     1      8      1 ;     C1 - H4    
     1      9      1 ;     C1 - H5    
     1     10      1 ;     C1 - H6    
     3      8      1 ;     O1 - H4    
     3      9      1 ;     O1 - H5    
     3     10      1 ;     O1 - H6    
     5      2      1 ;     H1 - C2    
     5      3      1 ;     H1 - O1    
     6      2      1 ;     H2 - C2    
     6      3      1 ;     H2 - O1    
     7      2      1 ;     H3 - C2    
     7      3      1 ;     H3 - O1    

[ angles ]
;   ai     aj     ak    funct   theta         cth
     1      4      2      1    9.5930e+01    7.8885e+02 ;     C1 - S1     - C2    
     1      4      3      1    1.0688e+02    9.8558e+02 ;     C1 - S1     - O1    
     2      4      3      1    1.0688e+02    9.8558e+02 ;     C2 - S1     - O1    
     4      1      5      1    1.0762e+02    3.5296e+02 ;     S1 - C1     - H1    
     4      1      6      1    1.0762e+02    3.5296e+02 ;     S1 - C1     - H2    
     4      1      7      1    1.0762e+02    3.5296e+02 ;     S1 - C1     - H3    
     4      2      8      1    1.0762e+02    3.5296e+02 ;     S1 - C2     - H4    
     4      2      9      1    1.0762e+02    3.5296e+02 ;     S1 - C2     - H5    
     4      2     10      1    1.0762e+02    3.5296e+02 ;     S1 - C2     - H6    
     5      1      6      1    1.0855e+02    2.9824e+02 ;     H1 - C1     - H2    
     5      1      7      1    1.0855e+02    2.9824e+02 ;     H1 - C1     - H3    
     6      1      7      1    1.0855e+02    2.9824e+02 ;     H2 - C1     - H3    
     8      2      9      1    1.0855e+02    2.9824e+02 ;     H4 - C2     - H5    
     8      2     10      1    1.0855e+02    2.9824e+02 ;     H4 - C2     - H6    
     9      2     10      1    1.0855e+02    2.9824e+02 ;     H5 - C2     - H6    

[ dihedrals ] ; propers
; for gromacs 4.5 or higher, using funct 9
;    i      j      k      l   func   phase     kd      pn
     1      4      2      8      9     0.00   0.00000   0 ;     C1-    S1-    C2-    H4
     1      4      2      9      9     0.00   0.00000   0 ;     C1-    S1-    C2-    H5
     1      4      2     10      9     0.00   0.00000   0 ;     C1-    S1-    C2-    H6
     3      4      2      8      9     0.00   0.83680   3 ;     O1-    S1-    C2-    H4
     3      4      2      9      9     0.00   0.83680   3 ;     O1-    S1-    C2-    H5
     3      4      2     10      9     0.00   0.83680   3 ;     O1-    S1-    C2-    H6
     5      1      4      2      9     0.00   0.00000   0 ;     H1-    C1-    S1-    C2
     5      1      4      3      9     0.00   0.83680   3 ;     H1-    C1-    S1-    O1
     6      1      4      2      9     0.00   0.00000   0 ;     H2-    C1-    S1-    C2
     6      1      4      3      9     0.00   0.83680   3 ;     H2-    C1-    S1-    O1
     7      1      4      2      9     0.00   0.00000   0 ;     H3-    C1-    S1-    C2
     7      1      4      3      9     0.00   0.83680   3 ;     H3-    C1-    S1-    O1
