mobley_6309289_GMX.gro created by acpype (v: 2023.10.27) on Thu May 21 00:22:12 2026
 2414
    1MOL     C1    1   2.305   2.249   2.120
    1MOL     C2    2   2.311   2.124   2.207
    1MOL     C3    3   2.295   2.374   2.207
    1MOL     C4    4   2.197   2.121   2.308
    1MOL     C5    5   2.181   2.363   2.308
    1MOL     N1    6   2.195   2.242   2.390
    1MOL     H1    7   2.394   2.255   2.056
    1MOL     H2    8   2.218   2.244   2.054
    1MOL     H3    9   2.307   2.035   2.143
    1MOL     H4   10   2.407   2.121   2.260
    1MOL     H5   11   2.390   2.389   2.261
    1MOL     H6   12   2.280   2.462   2.144
    1MOL     H7   13   2.101   2.109   2.256
    1MOL     H8   14   2.208   2.034   2.373
    1MOL     H9   15   2.182   2.450   2.374
    1MOL    H10   16   2.085   2.362   2.256
    1MOL    H11   17   2.117   2.237   2.456
   14SOL     OW   18   1.460   1.505   1.339
   14SOL    HW1   19   1.484   1.599   1.365
   14SOL    HW2   20   1.444   1.451   1.421
   18SOL     OW   21   1.127   1.341   1.690
   18SOL    HW1   22   1.174   1.341   1.778
   18SOL    HW2   23   1.079   1.254   1.679
   31SOL     OW   24   1.293   1.228   1.423
   31SOL    HW1   25   1.330   1.155   1.365
   31SOL    HW2   26   1.345   1.233   1.508
   35SOL     OW   27   1.187   1.792   1.616
   35SOL    HW1   28   1.211   1.852   1.540
   35SOL    HW2   29   1.194   1.697   1.586
   37SOL     OW   30   1.466   1.417   0.953
   37SOL    HW1   31   1.407   1.423   1.033
   37SOL    HW2   32   1.451   1.329   0.907
   50SOL     OW   33   1.719   0.585   1.831
   50SOL    HW1   34   1.693   0.674   1.795
   50SOL    HW2   35   1.717   0.517   1.758
   56SOL     OW   36   1.227   1.550   1.506
   56SOL    HW1   37   1.233   1.473   1.570
   56SOL    HW2   38   1.175   1.524   1.426
   95SOL     OW   39   1.754   1.223   1.588
   95SOL    HW1   40   1.845   1.184   1.575
   95SOL    HW2   41   1.762   1.319   1.612
   96SOL     OW   42   1.064   1.347   1.340
   96SOL    HW1   43   0.984   1.324   1.395
   96SOL    HW2   44   1.147   1.321   1.389
   97SOL     OW   45   1.592   1.629   1.625
   97SOL    HW1   46   1.619   1.663   1.535
   97SOL    HW2   47   1.671   1.591   1.671
   99SOL     OW   48   1.638   1.099   1.079
   99SOL    HW1   49   1.643   1.180   1.138
   99SOL    HW2   50   1.552   1.101   1.028
  101SOL     OW   51   0.980   1.116   1.719
  101SOL    HW1   52   0.881   1.122   1.729
  101SOL    HW2   53   1.003   1.036   1.663
  109SOL     OW   54   1.272   1.445   1.142
  109SOL    HW1   55   1.319   1.458   1.229
  109SOL    HW2   56   1.206   1.371   1.151
  113SOL     OW   57   1.587   0.779   1.670
  113SOL    HW1   58   1.495   0.817   1.665
  113SOL    HW2   59   1.647   0.826   1.605
  122SOL     OW   60   1.728   0.935   1.854
  122SOL    HW1   61   1.682   0.928   1.765
  122SOL    HW2   62   1.666   0.979   1.920
  126SOL     OW   63   0.980   1.573   1.700
  126SOL    HW1   64   0.960   1.617   1.612
  126SOL    HW2   65   1.019   1.482   1.684
  127SOL     OW   66   1.859   1.518   1.605
  127SOL    HW1   67   1.873   1.545   1.510
  127SOL    HW2   68   1.942   1.540   1.658
  142SOL     OW   69   1.369   0.950   1.660
  142SOL    HW1   70   1.408   1.039   1.680
  142SOL    HW2   71   1.379   0.930   1.563
  147SOL     OW   72   0.930   1.678   1.465
  147SOL    HW1   73   0.906   1.660   1.370
  147SOL    HW2   74   0.960   1.772   1.475
  150SOL     OW   75   1.347   1.059   1.234
  150SOL    HW1   76   1.371   0.996   1.160
  150SOL    HW2   77   1.257   1.099   1.216
  152SOL     OW   78   1.759   1.747   1.154
  152SOL    HW1   79   1.820   1.777   1.081
  152SOL    HW2   80   1.721   1.658   1.132
  153SOL     OW   81   1.252   1.731   1.128
  153SOL    HW1   82   1.336   1.736   1.074
  153SOL    HW2   83   1.229   1.635   1.146
  155SOL     OW   84   0.688   1.662   1.716
  155SOL    HW1   85   0.632   1.743   1.725
  155SOL    HW2   86   0.740   1.666   1.630
  163SOL     OW   87   1.650   1.720   1.394
  163SOL    HW1   88   1.703   1.730   1.310
  163SOL    HW2   89   1.623   1.810   1.428
  171SOL     OW   90   1.614   1.292   1.289
  171SOL    HW1   91   1.674   1.295   1.369
  171SOL    HW2   92   1.539   1.356   1.302
  184SOL     OW   93   1.493   1.767   0.959
  184SOL    HW1   94   1.526   1.831   0.890
  184SOL    HW2   95   1.559   1.761   1.034
  186SOL     OW   96   1.450   1.220   1.633
  186SOL    HW1   97   1.441   1.210   1.732
  186SOL    HW2   98   1.546   1.213   1.607
  188SOL     OW   99   1.674   0.883   1.254
  188SOL    HW1  100   1.647   0.794   1.217
  188SOL    HW2  101   1.675   0.951   1.181
  192SOL     OW  102   1.730   0.934   1.517
  192SOL    HW1  103   1.768   1.025   1.532
  192SOL    HW2  104   1.722   0.917   1.418
  197SOL     OW  105   1.861   1.569   0.851
  197SOL    HW1  106   1.790   1.557   0.781
  197SOL    HW2  107   1.862   1.490   0.911
  203SOL     OW  108   1.705   1.487   1.104
  203SOL    HW1  109   1.612   1.462   1.077
  203SOL    HW2  110   1.731   1.437   1.186
  219SOL     OW  111   1.555   1.511   2.565
  219SOL    HW1  112   1.498   1.495   2.646
  219SOL    HW2  113   1.496   1.521   2.485
  221SOL     OW  114   1.755   0.607   2.093
  221SOL    HW1  115   1.743   0.594   1.994
  221SOL    HW2  116   1.725   0.526   2.142
  227SOL     OW  117   1.460   1.505   3.201
  227SOL    HW1  118   1.484   1.599   3.227
  227SOL    HW2  119   1.444   1.451   3.283
  238SOL     OW  120   1.842   1.767   2.221
  238SOL    HW1  121   1.896   1.738   2.301
  238SOL    HW2  122   1.872   1.857   2.192
  240SOL     OW  123   1.689   0.922   2.474
  240SOL    HW1  124   1.784   0.893   2.482
  240SOL    HW2  125   1.681   0.987   2.399
  241SOL     OW  126   1.641   1.108   2.294
  241SOL    HW1  127   1.727   1.110   2.242
  241SOL    HW2  128   1.655   1.155   2.382
  244SOL     OW  129   1.293   1.228   3.285
  244SOL    HW1  130   1.330   1.155   3.227
  244SOL    HW2  131   1.345   1.233   3.370
  247SOL     OW  132   1.525   0.999   2.052
  247SOL    HW1  133   1.462   0.923   2.065
  247SOL    HW2  134   1.573   1.017   2.138
  248SOL     OW  135   1.187   1.792   3.478
  248SOL    HW1  136   1.211   1.852   3.402
  248SOL    HW2  137   1.194   1.697   3.448
  250SOL     OW  138   1.466   1.417   2.815
  250SOL    HW1  139   1.407   1.423   2.895
  250SOL    HW2  140   1.451   1.329   2.769
  251SOL     OW  141   1.667   1.714   2.434
  251SOL    HW1  142   1.626   1.691   2.346
  251SOL    HW2  143   1.649   1.640   2.499
  254SOL     OW  144   1.576   1.662   2.169
  254SOL    HW1  145   1.665   1.708   2.172
  254SOL    HW2  146   1.555   1.638   2.074
  264SOL     OW  147   1.362   1.144   2.407
  264SOL    HW1  148   1.445   1.115   2.359
  264SOL    HW2  149   1.313   1.211   2.351
  266SOL     OW  150   1.008   1.456   2.339
  266SOL    HW1  151   0.962   1.528   2.287
  266SOL    HW2  152   1.004   1.476   2.437
  268SOL     OW  153   1.795   1.066   2.735
  268SOL    HW1  154   1.733   1.051   2.659
  268SOL    HW2  155   1.743   1.077   2.820
  269SOL     OW  156   1.227   1.550   3.368
  269SOL    HW1  157   1.233   1.473   3.432
  269SOL    HW2  158   1.175   1.524   3.288
  271SOL     OW  159   1.458   0.735   2.590
  271SOL    HW1  160   1.453   0.670   2.665
  271SOL    HW2  161   1.538   0.794   2.603
  273SOL     OW  162   1.111   1.776   2.099
  273SOL    HW1  163   1.051   1.714   2.149
  273SOL    HW2  164   1.142   1.732   2.014
  275SOL     OW  165   1.632   1.377   1.943
  275SOL    HW1  166   1.600   1.471   1.933
  275SOL    HW2  167   1.556   1.314   1.931
  279SOL     OW  168   0.940   1.698   2.766
  279SOL    HW1  169   1.020   1.641   2.787
  279SOL    HW2  170   0.891   1.658   2.689
  284SOL     OW  171   0.888   1.514   3.057
  284SOL    HW1  172   0.865   1.489   2.963
  284SOL    HW2  173   0.949   1.445   3.096
  286SOL     OW  174   0.803   1.402   2.786
  286SOL    HW1  175   0.893   1.416   2.744
  286SOL    HW2  176   0.732   1.404   2.715
  289SOL     OW  177   1.434   1.188   1.903
  289SOL    HW1  178   1.466   1.112   1.960
  289SOL    HW2  179   1.342   1.215   1.933
  293SOL     OW  180   1.227   1.570   2.655
  293SOL    HW1  181   1.248   1.644   2.590
  293SOL    HW2  182   1.295   1.570   2.728
  295SOL     OW  183   1.271   1.797   2.453
  295SOL    HW1  184   1.315   1.861   2.389
  295SOL    HW2  185   1.221   1.849   2.523
  301SOL     OW  186   1.429   1.173   2.729
  301SOL    HW1  187   1.374   1.089   2.722
  301SOL    HW2  188   1.455   1.202   2.637
  303SOL     OW  189   1.857   0.833   2.239
  303SOL    HW1  190   1.899   0.769   2.303
  303SOL    HW2  191   1.819   0.782   2.161
  305SOL     OW  192   1.664   1.280   2.519
  305SOL    HW1  193   1.763   1.288   2.533
  305SOL    HW2  194   1.619   1.364   2.550
  308SOL     OW  195   1.754   1.223   3.450
  308SOL    HW1  196   1.845   1.184   3.437
  308SOL    HW2  197   1.762   1.319   3.474
  309SOL     OW  198   1.064   1.347   3.202
  309SOL    HW1  199   0.984   1.324   3.257
  309SOL    HW2  200   1.147   1.321   3.251
  310SOL     OW  201   1.592   1.629   3.487
  310SOL    HW1  202   1.619   1.663   3.397
  310SOL    HW2  203   1.671   1.591   3.533
  311SOL     OW  204   1.111   1.195   2.962
  311SOL    HW1  205   1.071   1.239   3.043
  311SOL    HW2  206   1.070   1.232   2.879
  312SOL     OW  207   1.638   1.099   2.941
  312SOL    HW1  208   1.643   1.180   3.000
  312SOL    HW2  209   1.552   1.101   2.890
  321SOL     OW  210   1.252   1.348   2.250
  321SOL    HW1  211   1.302   1.425   2.290
  321SOL    HW2  212   1.157   1.350   2.282
  322SOL     OW  213   1.272   1.445   3.004
  322SOL    HW1  214   1.319   1.458   3.091
  322SOL    HW2  215   1.206   1.371   3.013
  323SOL     OW  216   1.582   0.639   2.334
  323SOL    HW1  217   1.551   0.700   2.407
  323SOL    HW2  218   1.632   0.691   2.265
  330SOL     OW  219   1.360   0.862   2.907
  330SOL    HW1  220   1.285   0.862   2.841
  330SOL    HW2  221   1.397   0.770   2.916
  340SOL     OW  222   1.859   1.518   3.467
  340SOL    HW1  223   1.873   1.545   3.372
  340SOL    HW2  224   1.942   1.540   3.520
  343SOL     OW  225   1.303   0.838   1.904
  343SOL    HW1  226   1.337   0.745   1.919
  343SOL    HW2  227   1.321   0.865   1.809
  344SOL     OW  228   1.068   1.333   2.711
  344SOL    HW1  229   1.075   1.249   2.656
  344SOL    HW2  230   1.130   1.402   2.675
  360SOL     OW  231   0.930   1.678   3.327
  360SOL    HW1  232   0.906   1.660   3.232
  360SOL    HW2  233   0.960   1.772   3.337
  363SOL     OW  234   1.347   1.059   3.096
  363SOL    HW1  235   1.371   0.996   3.022
  363SOL    HW2  236   1.257   1.099   3.078
  364SOL     OW  237   1.302   0.855   2.171
  364SOL    HW1  238   1.216   0.824   2.213
  364SOL    HW2  239   1.298   0.841   2.072
  365SOL     OW  240   1.759   1.747   3.016
  365SOL    HW1  241   1.820   1.777   2.943
  365SOL    HW2  242   1.721   1.658   2.994
  366SOL     OW  243   1.252   1.731   2.990
  366SOL    HW1  244   1.336   1.736   2.936
  366SOL    HW2  245   1.229   1.635   3.008
  370SOL     OW  246   1.388   1.573   2.339
  370SOL    HW1  247   1.455   1.585   2.265
  370SOL    HW2  248   1.348   1.662   2.362
  372SOL     OW  249   1.280   0.927   2.534
  372SOL    HW1  250   1.340   0.846   2.536
  372SOL    HW2  251   1.320   0.996   2.474
  374SOL     OW  252   0.672   1.616   2.016
  374SOL    HW1  253   0.681   1.626   1.917
  374SOL    HW2  254   0.632   1.527   2.037
  375SOL     OW  255   1.650   1.720   3.256
  375SOL    HW1  256   1.703   1.730   3.172
  375SOL    HW2  257   1.623   1.810   3.290
  378SOL     OW  258   1.194   1.612   1.893
  378SOL    HW1  259   1.200   1.519   1.930
  378SOL    HW2  260   1.135   1.612   1.813
  381SOL     OW  261   1.504   1.607   1.906
  381SOL    HW1  262   1.412   1.644   1.913
  381SOL    HW2  263   1.542   1.627   1.816
  383SOL     OW  264   1.614   1.292   3.151
  383SOL    HW1  265   1.674   1.295   3.231
  383SOL    HW2  266   1.539   1.356   3.164
  384SOL     OW  267   1.039   1.098   2.558
  384SOL    HW1  268   0.969   1.051   2.612
  384SOL    HW2  269   1.098   1.030   2.515
  394SOL     OW  270   1.183   1.335   1.981
  394SOL    HW1  271   1.084   1.324   1.983
  394SOL    HW2  272   1.217   1.350   2.074
  396SOL     OW  273   1.493   1.767   2.821
  396SOL    HW1  274   1.526   1.831   2.752
  396SOL    HW2  275   1.559   1.761   2.896
  400SOL     OW  276   1.674   0.883   3.116
  400SOL    HW1  277   1.647   0.794   3.079
  400SOL    HW2  278   1.675   0.951   3.043
  405SOL     OW  279   0.859   1.374   1.878
  405SOL    HW1  280   0.813   1.389   1.966
  405SOL    HW2  281   0.903   1.459   1.848
  406SOL     OW  282   0.661   1.790   2.815
  406SOL    HW1  283   0.615   1.878   2.802
  406SOL    HW2  284   0.760   1.802   2.808
  408SOL     OW  285   1.083   0.984   1.949
  408SOL    HW1  286   1.060   1.037   1.867
  408SOL    HW2  287   1.164   0.928   1.930
  409SOL     OW  288   1.861   1.569   2.713
  409SOL    HW1  289   1.790   1.557   2.643
  409SOL    HW2  290   1.862   1.490   2.773
  415SOL     OW  291   1.705   1.487   2.966
  415SOL    HW1  292   1.612   1.462   2.939
  415SOL    HW2  293   1.731   1.437   3.048
  417SOL     OW  294   0.812   1.586   2.549
  417SOL    HW1  295   0.844   1.596   2.455
  417SOL    HW2  296   0.733   1.524   2.551
  420SOL     OW  297   0.770   1.330   2.163
  420SOL    HW1  298   0.724   1.243   2.180
  420SOL    HW2  299   0.861   1.327   2.204
  426SOL     OW  300   0.875   1.646   2.199
  426SOL    HW1  301   0.798   1.611   2.145
  426SOL    HW2  302   0.843   1.717   2.261
  519SOL     OW  303   0.850   2.660   1.823
  519SOL    HW1  304   0.846   2.736   1.888
  519SOL    HW2  305   0.872   2.696   1.732
  521SOL     OW  306   0.686   3.023   1.803
  521SOL    HW1  307   0.746   3.102   1.817
  521SOL    HW2  308   0.600   3.054   1.762
  523SOL     OW  309   1.460   3.367   1.339
  523SOL    HW1  310   1.484   3.461   1.365
  523SOL    HW2  311   1.444   3.313   1.421
  525SOL     OW  312   1.603   2.309   0.737
  525SOL    HW1  313   1.529   2.355   0.687
  525SOL    HW2  314   1.654   2.377   0.790
  527SOL     OW  315   1.127   3.203   1.690
  527SOL    HW1  316   1.174   3.203   1.778
  527SOL    HW2  317   1.079   3.116   1.679
  532SOL     OW  318   1.594   1.976   1.480
  532SOL    HW1  319   1.576   2.043   1.408
  532SOL    HW2  320   1.591   2.022   1.569
  540SOL     OW  321   1.293   3.090   1.423
  540SOL    HW1  322   1.330   3.017   1.365
  540SOL    HW2  323   1.345   3.095   1.508
  549SOL     OW  324   1.281   2.207   0.944
  549SOL    HW1  325   1.195   2.157   0.931
  549SOL    HW2  326   1.343   2.153   1.000
  551SOL     OW  327   0.807   2.467   1.465
  551SOL    HW1  328   0.760   2.464   1.554
  551SOL    HW2  329   0.756   2.412   1.399
  552SOL     OW  330   1.394   2.331   1.674
  552SOL    HW1  331   1.374   2.374   1.762
  552SOL    HW2  332   1.472   2.269   1.683
  553SOL     OW  333   0.973   2.752   1.572
  553SOL    HW1  334   1.019   2.668   1.543
  553SOL    HW2  335   0.917   2.786   1.497
  554SOL     OW  336   0.991   2.272   1.242
  554SOL    HW1  337   0.914   2.306   1.296
  554SOL    HW2  338   0.957   2.221   1.163
  559SOL     OW  339   1.719   2.447   1.831
  559SOL    HW1  340   1.693   2.536   1.795
  559SOL    HW2  341   1.717   2.379   1.758
  564SOL     OW  342   1.795   2.928   0.873
  564SOL    HW1  343   1.733   2.913   0.797
  564SOL    HW2  344   1.743   2.939   0.958
  565SOL     OW  345   1.227   3.412   1.506
  565SOL    HW1  346   1.233   3.335   1.570
  565SOL    HW2  347   1.175   3.386   1.426
  567SOL     OW  348   1.458   2.597   0.728
  567SOL    HW1  349   1.453   2.532   0.803
  567SOL    HW2  350   1.538   2.656   0.741
  577SOL     OW  351   1.547   2.084   1.729
  577SOL    HW1  352   1.542   2.121   1.821
  577SOL    HW2  353   1.475   2.015   1.717
  579SOL     OW  354   0.781   2.126   1.749
  579SOL    HW1  355   0.848   2.065   1.792
  579SOL    HW2  356   0.708   2.145   1.814
  581SOL     OW  357   1.351   2.452   1.433
  581SOL    HW1  358   1.379   2.409   1.518
  581SOL    HW2  359   1.376   2.548   1.434
  587SOL     OW  360   1.076   2.545   1.464
  587SOL    HW1  361   0.996   2.484   1.467
  587SOL    HW2  362   1.157   2.492   1.440
  596SOL     OW  363   1.429   3.035   0.867
  596SOL    HW1  364   1.374   2.951   0.860
  596SOL    HW2  365   1.455   3.064   0.775
  597SOL     OW  366   1.466   2.452   0.992
  597SOL    HW1  367   1.436   2.357   0.999
  597SOL    HW2  368   1.539   2.468   1.058
  603SOL     OW  369   1.754   3.085   1.588
  603SOL    HW1  370   1.845   3.046   1.575
  603SOL    HW2  371   1.762   3.181   1.612
  604SOL     OW  372   1.064   3.209   1.340
  604SOL    HW1  373   0.984   3.186   1.395
  604SOL    HW2  374   1.147   3.183   1.389
  605SOL     OW  375   1.592   3.491   1.625
  605SOL    HW1  376   1.619   3.525   1.535
  605SOL    HW2  377   1.671   3.453   1.671
  607SOL     OW  378   1.638   2.961   1.079
  607SOL    HW1  379   1.643   3.042   1.138
  607SOL    HW2  380   1.552   2.963   1.028
  608SOL     OW  381   0.915   1.951   1.402
  608SOL    HW1  382   0.940   1.931   1.307
  608SOL    HW2  383   0.987   2.007   1.444
  609SOL     OW  384   0.980   2.978   1.719
  609SOL    HW1  385   0.881   2.984   1.729
  609SOL    HW2  386   1.003   2.898   1.663
  612SOL     OW  387   1.274   2.248   1.262
  612SOL    HW1  388   1.295   2.322   1.326
  612SOL    HW2  389   1.185   2.265   1.219
  621SOL     OW  390   1.587   2.641   1.670
  621SOL    HW1  391   1.495   2.679   1.665
  621SOL    HW2  392   1.647   2.688   1.605
  622SOL     OW  393   1.013   1.967   1.770
  622SOL    HW1  394   1.019   2.052   1.718
  622SOL    HW2  395   1.045   1.891   1.713
  625SOL     OW  396   1.360   2.724   1.045
  625SOL    HW1  397   1.285   2.724   0.979
  625SOL    HW2  398   1.397   2.632   1.054
  630SOL     OW  399   1.728   2.797   1.854
  630SOL    HW1  400   1.682   2.790   1.765
  630SOL    HW2  401   1.666   2.841   1.920
  635SOL     OW  402   1.859   3.380   1.605
  635SOL    HW1  403   1.873   3.407   1.510
  635SOL    HW2  404   1.942   3.402   1.658
  642SOL     OW  405   1.138   2.242   1.678
  642SOL    HW1  406   1.093   2.305   1.742
  642SOL    HW2  407   1.231   2.273   1.661
  643SOL     OW  408   1.160   2.069   1.477
  643SOL    HW1  409   1.160   2.133   1.554
  643SOL    HW2  410   1.188   2.117   1.394
  647SOL     OW  411   1.002   2.658   1.238
  647SOL    HW1  412   1.043   2.626   1.324
  647SOL    HW2  413   0.906   2.631   1.235
  650SOL     OW  414   1.369   2.812   1.660
  650SOL    HW1  415   1.408   2.901   1.680
  650SOL    HW2  416   1.379   2.792   1.563
  652SOL     OW  417   1.657   2.466   1.206
  652SOL    HW1  418   1.619   2.397   1.268
  652SOL    HW2  419   1.739   2.430   1.162
  658SOL     OW  420   1.347   2.921   1.234
  658SOL    HW1  421   1.371   2.858   1.160
  658SOL    HW2  422   1.257   2.961   1.216
  671SOL     OW  423   1.650   3.582   1.394
  671SOL    HW1  424   1.703   3.592   1.310
  671SOL    HW2  425   1.623   3.672   1.428
  672SOL     OW  426   1.841   2.037   0.963
  672SOL    HW1  427   1.880   1.952   0.927
  672SOL    HW2  428   1.743   2.039   0.944
  675SOL     OW  429   0.822   2.864   1.372
  675SOL    HW1  430   0.862   2.863   1.280
  675SOL    HW2  431   0.832   2.956   1.412
  679SOL     OW  432   1.614   3.154   1.289
  679SOL    HW1  433   1.674   3.157   1.369
  679SOL    HW2  434   1.539   3.218   1.302
  681SOL     OW  435   1.014   2.098   0.971
  681SOL    HW1  436   1.006   2.062   0.878
  681SOL    HW2  437   1.012   2.022   1.036
  683SOL     OW  438   1.709   2.247   1.381
  683SOL    HW1  439   1.782   2.316   1.385
  683SOL    HW2  440   1.737   2.172   1.322
  686SOL     OW  441   0.672   2.065   1.489
  686SOL    HW1  442   0.762   2.049   1.449
  686SOL    HW2  443   0.680   2.070   1.588
  688SOL     OW  444   1.440   2.718   1.398
  688SOL    HW1  445   1.383   2.770   1.335
  688SOL    HW2  446   1.536   2.730   1.374
  693SOL     OW  447   0.716   2.427   1.708
  693SOL    HW1  448   0.735   2.492   1.782
  693SOL    HW2  449   0.776   2.347   1.717
  694SOL     OW  450   1.450   3.082   1.633
  694SOL    HW1  451   1.441   3.072   1.732
  694SOL    HW2  452   1.546   3.075   1.607
  696SOL     OW  453   1.674   2.745   1.254
  696SOL    HW1  454   1.647   2.656   1.217
  696SOL    HW2  455   1.675   2.813   1.181
  699SOL     OW  456   1.777   2.204   1.642
  699SOL    HW1  457   1.760   2.235   1.548
  699SOL    HW2  458   1.693   2.167   1.680
  700SOL     OW  459   1.730   2.796   1.517
  700SOL    HW1  460   1.768   2.887   1.532
  700SOL    HW2  461   1.722   2.779   1.418
  709SOL     OW  462   1.824   2.054   1.227
  709SOL    HW1  463   1.820   1.964   1.271
  709SOL    HW2  464   1.827   2.043   1.128
  711SOL     OW  465   1.705   3.349   1.104
  711SOL    HW1  466   1.612   3.324   1.077
  711SOL    HW2  467   1.731   3.299   1.186
  714SOL     OW  468   1.424   2.076   1.112
  714SOL    HW1  469   1.476   2.011   1.167
  714SOL    HW2  470   1.375   2.139   1.173
  715SOL     OW  471   1.001   1.896   1.154
  715SOL    HW1  472   0.938   1.824   1.123
  715SOL    HW2  473   1.094   1.860   1.154
  720SOL     OW  474   1.593   2.083   0.882
  720SOL    HW1  475   1.509   2.082   0.936
  720SOL    HW2  476   1.595   2.166   0.826
  727SOL     OW  477   1.555   3.373   2.565
  727SOL    HW1  478   1.498   3.357   2.646
  727SOL    HW2  479   1.496   3.383   2.485
  728SOL     OW  480   1.135   2.565   2.579
  728SOL    HW1  481   1.192   2.643   2.554
  728SOL    HW2  482   1.075   2.591   2.655
  729SOL     OW  483   1.755   2.469   2.093
  729SOL    HW1  484   1.743   2.456   1.994
  729SOL    HW2  485   1.725   2.388   2.142
  730SOL     OW  486   0.768   3.006   2.885
  730SOL    HW1  487   0.690   3.023   2.945
  730SOL    HW2  488   0.802   3.093   2.849
  732SOL     OW  489   0.685   2.874   2.527
  732SOL    HW1  490   0.754   2.858   2.597
  732SOL    HW2  491   0.612   2.931   2.565
  735SOL     OW  492   1.460   3.367   3.201
  735SOL    HW1  493   1.484   3.461   3.227
  735SOL    HW2  494   1.444   3.313   3.283
  737SOL     OW  495   1.603   2.309   2.599
  737SOL    HW1  496   1.529   2.355   2.549
  737SOL    HW2  497   1.654   2.377   2.652
  743SOL     OW  498   0.606   2.826   1.985
  743SOL    HW1  499   0.613   2.910   1.931
  743SOL    HW2  500   0.652   2.839   2.073
  744SOL     OW  501   1.594   1.976   3.342
  744SOL    HW1  502   1.576   2.043   3.270
  744SOL    HW2  503   1.591   2.022   3.431
  746SOL     OW  504   1.842   3.629   2.221
  746SOL    HW1  505   1.896   3.600   2.301
  746SOL    HW2  506   1.872   3.719   2.192
  748SOL     OW  507   1.689   2.784   2.474
  748SOL    HW1  508   1.784   2.755   2.482
  748SOL    HW2  509   1.681   2.849   2.399
  749SOL     OW  510   1.641   2.970   2.294
  749SOL    HW1  511   1.727   2.972   2.242
  749SOL    HW2  512   1.655   3.017   2.382
  752SOL     OW  513   1.293   3.090   3.285
  752SOL    HW1  514   1.330   3.017   3.227
  752SOL    HW2  515   1.345   3.095   3.370
  753SOL     OW  516   0.809   1.866   2.364
  753SOL    HW1  517   0.849   1.957   2.355
  753SOL    HW2  518   0.709   1.874   2.370
  755SOL     OW  519   1.525   2.861   2.052
  755SOL    HW1  520   1.462   2.785   2.065
  755SOL    HW2  521   1.573   2.879   2.138
  758SOL     OW  522   1.466   3.279   2.815
  758SOL    HW1  523   1.407   3.285   2.895
  758SOL    HW2  524   1.451   3.191   2.769
  759SOL     OW  525   1.667   3.576   2.434
  759SOL    HW1  526   1.626   3.553   2.346
  759SOL    HW2  527   1.649   3.502   2.499
  760SOL     OW  528   0.598   2.591   2.132
  760SOL    HW1  529   0.622   2.660   2.064
  760SOL    HW2  530   0.520   2.624   2.186
  761SOL     OW  531   1.281   2.207   2.806
  761SOL    HW1  532   1.195   2.157   2.793
  761SOL    HW2  533   1.343   2.153   2.862
  762SOL     OW  534   1.576   3.524   2.169
  762SOL    HW1  535   1.665   3.570   2.172
  762SOL    HW2  536   1.555   3.500   2.074
  764SOL     OW  537   1.394   2.331   3.536
  764SOL    HW1  538   1.374   2.374   3.624
  764SOL    HW2  539   1.472   2.269   3.545
  766SOL     OW  540   0.991   2.272   3.104
  766SOL    HW1  541   0.914   2.306   3.158
  766SOL    HW2  542   0.957   2.221   3.025
  767SOL     OW  543   1.041   2.563   2.291
  767SOL    HW1  544   1.067   2.559   2.387
  767SOL    HW2  545   0.956   2.512   2.277
  770SOL     OW  546   0.865   2.210   2.057
  770SOL    HW1  547   0.924   2.273   2.008
  770SOL    HW2  548   0.884   2.116   2.028
  771SOL     OW  549   1.719   2.447   3.693
  771SOL    HW1  550   1.693   2.536   3.657
  771SOL    HW2  551   1.717   2.379   3.620
  772SOL     OW  552   1.362   3.006   2.407
  772SOL    HW1  553   1.445   2.977   2.359
  772SOL    HW2  554   1.313   3.073   2.351
  773SOL     OW  555   0.550   2.058   2.747
  773SOL    HW1  556   0.545   2.053   2.847
  773SOL    HW2  557   0.552   2.154   2.718
  774SOL     OW  558   1.008   3.318   2.339
  774SOL    HW1  559   0.962   3.390   2.287
  774SOL    HW2  560   1.004   3.338   2.437
  776SOL     OW  561   1.795   2.928   2.735
  776SOL    HW1  562   1.733   2.913   2.659
  776SOL    HW2  563   1.743   2.939   2.820
  779SOL     OW  564   1.458   2.597   2.590
  779SOL    HW1  565   1.453   2.532   2.665
  779SOL    HW2  566   1.538   2.656   2.603
  783SOL     OW  567   1.632   3.239   1.943
  783SOL    HW1  568   1.600   3.333   1.933
  783SOL    HW2  569   1.556   3.176   1.931
  785SOL     OW  570   1.400   1.969   2.288
  785SOL    HW1  571   1.376   1.932   2.198
  785SOL    HW2  572   1.499   1.985   2.292
  789SOL     OW  573   1.547   2.084   3.591
  789SOL    HW1  574   1.542   2.121   3.683
  789SOL    HW2  575   1.475   2.015   3.579
  790SOL     OW  576   0.614   1.984   1.979
  790SOL    HW1  577   0.712   1.962   1.986
  790SOL    HW2  578   0.583   1.967   1.886
  793SOL     OW  579   1.351   2.452   3.295
  793SOL    HW1  580   1.379   2.409   3.380
  793SOL    HW2  581   1.376   2.548   3.296
  795SOL     OW  582   0.922   2.365   2.761
  795SOL    HW1  583   0.897   2.356   2.665
  795SOL    HW2  584   0.970   2.283   2.792
  796SOL     OW  585   0.539   1.926   2.374
  796SOL    HW1  586   0.458   1.927   2.432
  796SOL    HW2  587   0.542   2.009   2.319
  797SOL     OW  588   1.434   3.050   1.903
  797SOL    HW1  589   1.466   2.974   1.960
  797SOL    HW2  590   1.342   3.077   1.933
  799SOL     OW  591   0.935   2.098   2.342
  799SOL    HW1  592   0.887   2.139   2.264
  799SOL    HW2  593   1.034   2.096   2.323
  800SOL     OW  594   1.076   2.545   3.326
  800SOL    HW1  595   0.996   2.484   3.329
  800SOL    HW2  596   1.157   2.492   3.302
  801SOL     OW  597   1.227   3.432   2.655
  801SOL    HW1  598   1.248   3.506   2.590
  801SOL    HW2  599   1.295   3.432   2.728
  803SOL     OW  600   1.271   3.659   2.453
  803SOL    HW1  601   1.315   3.723   2.389
  803SOL    HW2  602   1.221   3.711   2.523
  804SOL     OW  603   1.032   2.411   1.878
  804SOL    HW1  604   0.991   2.493   1.839
  804SOL    HW2  605   1.096   2.437   1.951
  807SOL     OW  606   0.866   2.316   2.504
  807SOL    HW1  607   0.834   2.388   2.442
  807SOL    HW2  608   0.890   2.235   2.451
  808SOL     OW  609   1.017   1.901   2.615
  808SOL    HW1  610   0.945   1.906   2.546
  808SOL    HW2  611   0.993   1.832   2.684
  809SOL     OW  612   1.429   3.035   2.729
  809SOL    HW1  613   1.374   2.951   2.722
  809SOL    HW2  614   1.455   3.064   2.637
  810SOL     OW  615   1.466   2.452   2.854
  810SOL    HW1  616   1.436   2.357   2.861
  810SOL    HW2  617   1.539   2.468   2.920
  811SOL     OW  618   1.857   2.695   2.239
  811SOL    HW1  619   1.899   2.631   2.303
  811SOL    HW2  620   1.819   2.644   2.161
  813SOL     OW  621   1.664   3.142   2.519
  813SOL    HW1  622   1.763   3.150   2.533
  813SOL    HW2  623   1.619   3.226   2.550
  814SOL     OW  624   1.390   2.437   1.940
  814SOL    HW1  625   1.336   2.416   2.021
  814SOL    HW2  626   1.481   2.396   1.949
  815SOL     OW  627   0.527   2.118   2.190
  815SOL    HW1  628   0.554   2.059   2.115
  815SOL    HW2  629   0.527   2.213   2.159
  816SOL     OW  630   1.754   3.085   3.450
  816SOL    HW1  631   1.845   3.046   3.437
  816SOL    HW2  632   1.762   3.181   3.474
  817SOL     OW  633   1.064   3.209   3.202
  817SOL    HW1  634   0.984   3.186   3.257
  817SOL    HW2  635   1.147   3.183   3.251
  819SOL     OW  636   1.111   3.057   2.962
  819SOL    HW1  637   1.071   3.101   3.043
  819SOL    HW2  638   1.070   3.094   2.879
  820SOL     OW  639   1.638   2.961   2.941
  820SOL    HW1  640   1.643   3.042   3.000
  820SOL    HW2  641   1.552   2.963   2.890
  821SOL     OW  642   0.915   1.951   3.264
  821SOL    HW1  643   0.940   1.931   3.169
  821SOL    HW2  644   0.987   2.007   3.306
  823SOL     OW  645   0.705   2.912   2.230
  823SOL    HW1  646   0.691   2.919   2.329
  823SOL    HW2  647   0.789   2.861   2.212
  825SOL     OW  648   1.274   2.248   3.124
  825SOL    HW1  649   1.295   2.322   3.188
  825SOL    HW2  650   1.185   2.265   3.081
  828SOL     OW  651   0.566   2.399   2.727
  828SOL    HW1  652   0.578   2.465   2.653
  828SOL    HW2  653   0.612   2.433   2.810
  829SOL     OW  654   1.252   3.210   2.250
  829SOL    HW1  655   1.302   3.287   2.290
  829SOL    HW2  656   1.157   3.212   2.282
  830SOL     OW  657   1.272   3.307   3.004
  830SOL    HW1  658   1.319   3.320   3.091
  830SOL    HW2  659   1.206   3.233   3.013
  831SOL     OW  660   1.582   2.501   2.334
  831SOL    HW1  661   1.551   2.562   2.407
  831SOL    HW2  662   1.632   2.553   2.265
  834SOL     OW  663   1.587   2.641   3.532
  834SOL    HW1  664   1.495   2.679   3.527
  834SOL    HW2  665   1.647   2.688   3.467
  838SOL     OW  666   1.360   2.724   2.907
  838SOL    HW1  667   1.285   2.724   2.841
  838SOL    HW2  668   1.397   2.632   2.916
  839SOL     OW  669   1.209   2.387   2.137
  839SOL    HW1  670   1.222   2.303   2.191
  839SOL    HW2  671   1.180   2.461   2.197
  842SOL     OW  672   0.732   2.496   2.926
  842SOL    HW1  673   0.791   2.470   2.850
  842SOL    HW2  674   0.704   2.592   2.915
  843SOL     OW  675   1.728   2.797   3.716
  843SOL    HW1  676   1.682   2.790   3.627
  843SOL    HW2  677   1.666   2.841   3.782
  845SOL     OW  678   1.622   2.229   2.236
  845SOL    HW1  679   1.624   2.153   2.300
  845SOL    HW2  680   1.574   2.306   2.276
  846SOL     OW  681   1.023   2.628   2.828
  846SOL    HW1  682   1.038   2.649   2.924
  846SOL    HW2  683   0.993   2.533   2.819
  848SOL     OW  684   1.859   3.380   3.467
  848SOL    HW1  685   1.873   3.407   3.372
  848SOL    HW2  686   1.942   3.402   3.520
  850SOL     OW  687   1.540   2.136   1.987
  850SOL    HW1  688   1.479   2.061   2.010
  850SOL    HW2  689   1.562   2.188   2.070
  851SOL     OW  690   1.303   2.700   1.904
  851SOL    HW1  691   1.337   2.607   1.919
  851SOL    HW2  692   1.321   2.727   1.809
  852SOL     OW  693   1.068   3.195   2.711
  852SOL    HW1  694   1.075   3.111   2.656
  852SOL    HW2  695   1.130   3.264   2.675
  855SOL     OW  696   1.138   2.242   3.540
  855SOL    HW1  697   1.093   2.305   3.604
  855SOL    HW2  698   1.231   2.273   3.523
  856SOL     OW  699   1.160   2.069   3.339
  856SOL    HW1  700   1.160   2.133   3.416
  856SOL    HW2  701   1.188   2.117   3.256
  860SOL     OW  702   1.002   2.658   3.100
  860SOL    HW1  703   1.043   2.626   3.186
  860SOL    HW2  704   0.906   2.631   3.097
  863SOL     OW  705   1.369   2.812   3.522
  863SOL    HW1  706   1.408   2.901   3.542
  863SOL    HW2  707   1.379   2.792   3.425
  864SOL     OW  708   0.815   2.434   2.187
  864SOL    HW1  709   0.822   2.345   2.141
  864SOL    HW2  710   0.721   2.468   2.179
  865SOL     OW  711   1.657   2.466   3.068
  865SOL    HW1  712   1.619   2.397   3.130
  865SOL    HW2  713   1.739   2.430   3.024
  869SOL     OW  714   0.473   2.362   2.053
  869SOL    HW1  715   0.534   2.442   2.057
  869SOL    HW2  716   0.378   2.393   2.060
  871SOL     OW  717   1.347   2.921   3.096
  871SOL    HW1  718   1.371   2.858   3.022
  871SOL    HW2  719   1.257   2.961   3.078
  872SOL     OW  720   1.302   2.717   2.171
  872SOL    HW1  721   1.216   2.686   2.213
  872SOL    HW2  722   1.298   2.703   2.072
  873SOL     OW  723   1.759   3.609   3.016
  873SOL    HW1  724   1.820   3.639   2.943
  873SOL    HW2  725   1.721   3.520   2.994
  877SOL     OW  726   1.726   1.997   2.385
  877SOL    HW1  727   1.799   1.980   2.318
  877SOL    HW2  728   1.695   1.910   2.423
  878SOL     OW  729   1.388   3.435   2.339
  878SOL    HW1  730   1.455   3.447   2.265
  878SOL    HW2  731   1.348   3.524   2.362
  880SOL     OW  732   1.280   2.789   2.534
  880SOL    HW1  733   1.340   2.708   2.536
  880SOL    HW2  734   1.320   2.858   2.474
  883SOL     OW  735   1.650   3.582   3.256
  883SOL    HW1  736   1.703   3.592   3.172
  883SOL    HW2  737   1.623   3.672   3.290
  884SOL     OW  738   1.841   2.037   2.825
  884SOL    HW1  739   1.880   1.952   2.789
  884SOL    HW2  740   1.743   2.039   2.806
  886SOL     OW  741   1.194   3.474   1.893
  886SOL    HW1  742   1.200   3.381   1.930
  886SOL    HW2  743   1.135   3.474   1.813
  888SOL     OW  744   0.916   2.772   2.153
  888SOL    HW1  745   0.979   2.810   2.085
  888SOL    HW2  746   0.956   2.689   2.192
  889SOL     OW  747   1.504   3.469   1.906
  889SOL    HW1  748   1.412   3.506   1.913
  889SOL    HW2  749   1.542   3.489   1.816
  891SOL     OW  750   1.614   3.154   3.151
  891SOL    HW1  751   1.674   3.157   3.231
  891SOL    HW2  752   1.539   3.218   3.164
  892SOL     OW  753   1.039   2.960   2.558
  892SOL    HW1  754   0.969   2.913   2.612
  892SOL    HW2  755   1.098   2.892   2.515
  893SOL     OW  756   1.014   2.098   2.833
  893SOL    HW1  757   1.006   2.062   2.740
  893SOL    HW2  758   1.012   2.022   2.898
  895SOL     OW  759   1.709   2.247   3.243
  895SOL    HW1  760   1.782   2.316   3.247
  895SOL    HW2  761   1.737   2.172   3.184
  900SOL     OW  762   1.440   2.718   3.260
  900SOL    HW1  763   1.383   2.770   3.197
  900SOL    HW2  764   1.536   2.730   3.236
  902SOL     OW  765   1.183   3.197   1.981
  902SOL    HW1  766   1.084   3.186   1.983
  902SOL    HW2  767   1.217   3.212   2.074
  904SOL     OW  768   1.493   3.629   2.821
  904SOL    HW1  769   1.526   3.693   2.752
  904SOL    HW2  770   1.559   3.623   2.896
  906SOL     OW  771   1.450   3.082   3.495
  906SOL    HW1  772   1.441   3.072   3.594
  906SOL    HW2  773   1.546   3.075   3.469
  908SOL     OW  774   1.674   2.745   3.116
  908SOL    HW1  775   1.647   2.656   3.079
  908SOL    HW2  776   1.675   2.813   3.043
  909SOL     OW  777   1.225   2.187   2.311
  909SOL    HW1  778   1.290   2.113   2.300
  909SOL    HW2  779   1.245   2.237   2.395
  910SOL     OW  780   0.594   2.607   2.514
  910SOL    HW1  781   0.644   2.692   2.495
  910SOL    HW2  782   0.506   2.609   2.466
  911SOL     OW  783   1.777   2.204   3.504
  911SOL    HW1  784   1.760   2.235   3.410
  911SOL    HW2  785   1.693   2.167   3.542
  912SOL     OW  786   1.730   2.796   3.379
  912SOL    HW1  787   1.768   2.887   3.394
  912SOL    HW2  788   1.722   2.779   3.280
  913SOL     OW  789   0.859   3.236   1.878
  913SOL    HW1  790   0.813   3.251   1.966
  913SOL    HW2  791   0.903   3.321   1.848
  915SOL     OW  792   0.859   2.818   2.723
  915SOL    HW1  793   0.913   2.749   2.771
  915SOL    HW2  794   0.827   2.887   2.789
  916SOL     OW  795   1.083   2.846   1.949
  916SOL    HW1  796   1.060   2.899   1.867
  916SOL    HW2  797   1.164   2.790   1.930
  917SOL     OW  798   1.861   3.431   2.713
  917SOL    HW1  799   1.790   3.419   2.643
  917SOL    HW2  800   1.862   3.352   2.773
  921SOL     OW  801   1.824   2.054   3.089
  921SOL    HW1  802   1.820   1.964   3.133
  921SOL    HW2  803   1.827   2.043   2.990
  923SOL     OW  804   1.705   3.349   2.966
  923SOL    HW1  805   1.612   3.324   2.939
  923SOL    HW2  806   1.731   3.299   3.048
  926SOL     OW  807   1.424   2.076   2.974
  926SOL    HW1  808   1.476   2.011   3.029
  926SOL    HW2  809   1.375   2.139   3.035
  927SOL     OW  810   1.001   1.896   3.016
  927SOL    HW1  811   0.938   1.824   2.985
  927SOL    HW2  812   1.094   1.860   3.016
  928SOL     OW  813   0.770   3.192   2.163
  928SOL    HW1  814   0.724   3.105   2.180
  928SOL    HW2  815   0.861   3.189   2.204
  930SOL     OW  816   1.352   1.914   2.030
  930SOL    HW1  817   1.387   1.873   1.946
  930SOL    HW2  818   1.262   1.876   2.050
  931SOL     OW  819   1.300   2.315   2.553
  931SOL    HW1  820   1.241   2.395   2.557
  931SOL    HW2  821   1.315   2.280   2.646
  932SOL     OW  822   1.593   2.083   2.744
  932SOL    HW1  823   1.509   2.082   2.798
  932SOL    HW2  824   1.595   2.166   2.688
  937SOL     OW  825   1.755   2.469   3.955
  937SOL    HW1  826   1.743   2.456   3.856
  937SOL    HW2  827   1.725   2.388   4.004
  979SOL     OW  828   1.390   2.437   3.802
  979SOL    HW1  829   1.336   2.416   3.883
  979SOL    HW2  830   1.481   2.396   3.811
  989SOL     OW  831   1.540   2.136   3.849
  989SOL    HW1  832   1.479   2.061   3.872
  989SOL    HW2  833   1.562   2.188   3.932
 1127SOL     OW  834   1.400   3.831   2.288
 1127SOL    HW1  835   1.376   3.794   2.198
 1127SOL    HW2  836   1.499   3.847   2.292
 1168SOL     OW  837   1.726   3.859   2.385
 1168SOL    HW1  838   1.799   3.842   2.318
 1168SOL    HW2  839   1.695   3.772   2.423
 1170SOL     OW  840   1.841   3.899   2.825
 1170SOL    HW1  841   1.880   3.814   2.789
 1170SOL    HW2  842   1.743   3.901   2.806
 1186SOL     OW  843   1.352   3.776   2.030
 1186SOL    HW1  844   1.387   3.735   1.946
 1186SOL    HW2  845   1.262   3.738   2.050
 1231SOL     OW  846   2.431   1.275   1.165
 1231SOL    HW1  847   2.338   1.268   1.128
 1231SOL    HW2  848   2.442   1.364   1.209
 1235SOL     OW  849   2.630   1.144   1.023
 1235SOL    HW1  850   2.552   1.161   1.083
 1235SOL    HW2  851   2.664   1.231   0.987
 1236SOL     OW  852   2.712   0.798   1.823
 1236SOL    HW1  853   2.708   0.874   1.888
 1236SOL    HW2  854   2.734   0.834   1.732
 1238SOL     OW  855   2.548   1.161   1.803
 1238SOL    HW1  856   2.608   1.240   1.817
 1238SOL    HW2  857   2.462   1.192   1.762
 1239SOL     OW  858   2.197   1.435   1.061
 1239SOL    HW1  859   2.119   1.404   1.008
 1239SOL    HW2  860   2.255   1.493   1.004
 1240SOL     OW  861   3.322   1.505   1.339
 1240SOL    HW1  862   3.346   1.599   1.365
 1240SOL    HW2  863   3.306   1.451   1.421
 1244SOL     OW  864   2.989   1.341   1.690
 1244SOL    HW1  865   3.036   1.341   1.778
 1244SOL    HW2  866   2.941   1.254   1.679
 1246SOL     OW  867   2.102   1.091   0.886
 1246SOL    HW1  868   2.116   1.007   0.938
 1246SOL    HW2  869   2.047   1.155   0.941
 1247SOL     OW  870   2.482   1.786   1.439
 1247SOL    HW1  871   2.390   1.769   1.474
 1247SOL    HW2  872   2.510   1.878   1.465
 1255SOL     OW  873   1.975   0.737   1.597
 1255SOL    HW1  874   2.063   0.724   1.642
 1255SOL    HW2  875   1.962   0.834   1.575
 1256SOL     OW  876   2.475   1.365   0.726
 1256SOL    HW1  877   2.426   1.278   0.735
 1256SOL    HW2  878   2.452   1.408   0.639
 1257SOL     OW  879   3.155   1.228   1.423
 1257SOL    HW1  880   3.192   1.155   1.365
 1257SOL    HW2  881   3.207   1.233   1.508
 1259SOL     OW  882   2.059   0.976   1.264
 1259SOL    HW1  883   2.148   0.931   1.250
 1259SOL    HW2  884   1.986   0.911   1.245
 1261SOL     OW  885   3.049   1.792   1.616
 1261SOL    HW1  886   3.073   1.852   1.540
 1261SOL    HW2  887   3.056   1.697   1.586
 1270SOL     OW  888   2.835   0.890   1.572
 1270SOL    HW1  889   2.881   0.806   1.543
 1270SOL    HW2  890   2.779   0.924   1.497
 1274SOL     OW  891   1.992   1.821   1.571
 1274SOL    HW1  892   1.982   1.806   1.670
 1274SOL    HW2  893   1.906   1.857   1.535
 1280SOL     OW  894   2.213   1.801   0.853
 1280SOL    HW1  895   2.263   1.715   0.859
 1280SOL    HW2  896   2.278   1.878   0.850
 1282SOL     OW  897   3.089   1.550   1.506
 1282SOL    HW1  898   3.095   1.473   1.570
 1282SOL    HW2  899   3.037   1.524   1.426
 1285SOL     OW  900   2.323   1.266   1.727
 1285SOL    HW1  901   2.273   1.267   1.641
 1285SOL    HW2  902   2.260   1.248   1.803
 1291SOL     OW  903   2.111   1.785   1.241
 1291SOL    HW1  904   2.168   1.720   1.291
 1291SOL    HW2  905   2.095   1.752   1.148
 1292SOL     OW  906   2.802   1.698   0.904
 1292SOL    HW1  907   2.882   1.641   0.925
 1292SOL    HW2  908   2.753   1.658   0.827
 1297SOL     OW  909   2.750   1.514   1.195
 1297SOL    HW1  910   2.727   1.489   1.101
 1297SOL    HW2  911   2.811   1.445   1.234
 1299SOL     OW  912   2.665   1.402   0.924
 1299SOL    HW1  913   2.755   1.416   0.882
 1299SOL    HW2  914   2.594   1.404   0.853
 1322SOL     OW  915   2.926   1.347   1.340
 1322SOL    HW1  916   2.846   1.324   1.395
 1322SOL    HW2  917   3.009   1.321   1.389
 1323SOL     OW  918   3.454   1.629   1.625
 1323SOL    HW1  919   3.481   1.663   1.535
 1323SOL    HW2  920   3.533   1.591   1.671
 1324SOL     OW  921   2.973   1.195   1.100
 1324SOL    HW1  922   2.933   1.239   1.181
 1324SOL    HW2  923   2.932   1.232   1.017
 1327SOL     OW  924   2.842   1.116   1.719
 1327SOL    HW1  925   2.743   1.122   1.729
 1327SOL    HW2  926   2.865   1.036   1.663
 1329SOL     OW  927   2.272   0.813   1.251
 1329SOL    HW1  928   2.358   0.825   1.301
 1329SOL    HW2  929   2.230   0.726   1.278
 1331SOL     OW  930   1.926   1.564   1.331
 1331SOL    HW1  931   1.880   1.646   1.297
 1331SOL    HW2  932   2.024   1.583   1.340
 1335SOL     OW  933   3.134   1.445   1.142
 1335SOL    HW1  934   3.181   1.458   1.229
 1335SOL    HW2  935   3.068   1.371   1.151
 1337SOL     OW  936   2.216   1.510   1.329
 1337SOL    HW1  937   2.195   1.466   1.242
 1337SOL    HW2  938   2.313   1.536   1.332
 1338SOL     OW  939   2.264   0.751   1.598
 1338SOL    HW1  940   2.332   0.806   1.551
 1338SOL    HW2  941   2.304   0.663   1.625
 1346SOL     OW  942   1.899   1.310   1.282
 1346SOL    HW1  943   1.952   1.261   1.350
 1346SOL    HW2  944   1.921   1.408   1.287
 1352SOL     OW  945   2.842   1.573   1.700
 1352SOL    HW1  946   2.822   1.617   1.612
 1352SOL    HW2  947   2.881   1.482   1.684
 1353SOL     OW  948   3.721   1.518   1.605
 1353SOL    HW1  949   3.735   1.545   1.510
 1353SOL    HW2  950   3.804   1.540   1.658
 1354SOL     OW  951   2.212   0.898   1.804
 1354SOL    HW1  952   2.288   0.942   1.852
 1354SOL    HW2  953   2.247   0.851   1.722
 1363SOL     OW  954   1.950   1.801   0.927
 1363SOL    HW1  955   1.908   1.715   0.900
 1363SOL    HW2  956   2.044   1.804   0.893
 1364SOL     OW  957   2.366   1.568   0.910
 1364SOL    HW1  958   2.432   1.642   0.919
 1364SOL    HW2  959   2.410   1.489   0.868
 1368SOL     OW  960   3.231   0.950   1.660
 1368SOL    HW1  961   3.270   1.039   1.680
 1368SOL    HW2  962   3.241   0.930   1.563
 1371SOL     OW  963   2.114   1.564   1.744
 1371SOL    HW1  964   2.084   1.621   1.820
 1371SOL    HW2  965   2.107   1.467   1.770
 1373SOL     OW  966   2.792   1.678   1.465
 1373SOL    HW1  967   2.768   1.660   1.370
 1373SOL    HW2  968   2.822   1.772   1.475
 1375SOL     OW  969   2.021   1.137   1.466
 1375SOL    HW1  970   2.043   1.076   1.542
 1375SOL    HW2  971   2.031   1.088   1.380
 1379SOL     OW  972   3.114   1.731   1.128
 1379SOL    HW1  973   3.198   1.736   1.074
 1379SOL    HW2  974   3.091   1.635   1.146
 1380SOL     OW  975   1.945   1.258   1.022
 1380SOL    HW1  976   1.940   1.257   1.122
 1380SOL    HW2  977   1.862   1.217   0.984
 1381SOL     OW  978   2.550   1.662   1.716
 1381SOL    HW1  979   2.494   1.743   1.725
 1381SOL    HW2  980   2.602   1.666   1.630
 1385SOL     OW  981   1.992   1.794   1.851
 1385SOL    HW1  982   1.951   1.720   1.904
 1385SOL    HW2  983   2.056   1.845   1.909
 1387SOL     OW  984   2.692   1.273   1.422
 1387SOL    HW1  985   2.687   1.306   1.517
 1387SOL    HW2  986   2.606   1.292   1.376
 1389SOL     OW  987   3.512   1.720   1.394
 1389SOL    HW1  988   3.565   1.730   1.310
 1389SOL    HW2  989   3.485   1.810   1.428
 1393SOL     OW  990   2.684   1.002   1.372
 1393SOL    HW1  991   2.724   1.001   1.280
 1393SOL    HW2  992   2.694   1.094   1.412
 1396SOL     OW  993   2.234   1.288   1.490
 1396SOL    HW1  994   2.221   1.381   1.456
 1396SOL    HW2  995   2.150   1.236   1.477
 1403SOL     OW  996   1.967   1.013   1.726
 1403SOL    HW1  997   1.890   0.980   1.780
 1403SOL    HW2  998   2.052   0.983   1.768
 1408SOL     OW  999   2.475   0.842   1.431
 1408SOL    HW1 1000   2.531   0.923   1.414
 1408SOL    HW2 1001   2.534   0.762   1.434
 1409SOL     OW 1002   3.355   1.767   0.959
 1409SOL    HW1 1003   3.388   1.831   0.890
 1409SOL    HW2 1004   3.421   1.761   1.034
 1410SOL     OW 1005   2.578   0.565   1.708
 1410SOL    HW1 1006   2.597   0.630   1.782
 1410SOL    HW2 1007   2.638   0.485   1.717
 1411SOL     OW 1008   3.312   1.220   1.633
 1411SOL    HW1 1009   3.303   1.210   1.732
 1411SOL    HW2 1010   3.408   1.213   1.607
 1412SOL     OW 1011   2.252   1.741   1.560
 1412SOL    HW1 1012   2.161   1.782   1.558
 1412SOL    HW2 1013   2.245   1.647   1.592
 1419SOL     OW 1014   2.523   1.790   0.953
 1419SOL    HW1 1015   2.477   1.878   0.940
 1419SOL    HW2 1016   2.622   1.802   0.946
 1423SOL     OW 1017   2.083   1.314   1.844
 1423SOL    HW1 1018   2.018   1.241   1.823
 1423SOL    HW2 1019   2.087   1.328   1.942
 1425SOL     OW 1020   2.534   1.391   1.624
 1425SOL    HW1 1021   2.456   1.341   1.662
 1425SOL    HW2 1022   2.531   1.486   1.655
 1430SOL     OW 1023   2.674   1.586   0.687
 1430SOL    HW1 1024   2.706   1.596   0.593
 1430SOL    HW2 1025   2.595   1.524   0.689
 1434SOL     OW 1026   2.480   1.567   1.284
 1434SOL    HW1 1027   2.475   1.649   1.341
 1434SOL    HW2 1028   2.569   1.564   1.239
 1440SOL     OW 1029   2.092   0.628   1.975
 1440SOL    HW1 1030   1.999   0.626   2.012
 1440SOL    HW2 1031   2.093   0.589   1.883
 1443SOL     OW 1032   2.431   1.275   3.027
 1443SOL    HW1 1033   2.338   1.268   2.990
 1443SOL    HW2 1034   2.442   1.364   3.071
 1444SOL     OW 1035   3.417   1.511   2.565
 1444SOL    HW1 1036   3.360   1.495   2.646
 1444SOL    HW2 1037   3.358   1.521   2.485
 1445SOL     OW 1038   2.997   0.703   2.579
 1445SOL    HW1 1039   3.054   0.781   2.554
 1445SOL    HW2 1040   2.937   0.729   2.655
 1447SOL     OW 1041   2.630   1.144   2.885
 1447SOL    HW1 1042   2.552   1.161   2.945
 1447SOL    HW2 1043   2.664   1.231   2.849
 1449SOL     OW 1044   2.547   1.012   2.527
 1449SOL    HW1 1045   2.616   0.996   2.597
 1449SOL    HW2 1046   2.474   1.069   2.565
 1451SOL     OW 1047   2.197   1.435   2.923
 1451SOL    HW1 1048   2.119   1.404   2.870
 1451SOL    HW2 1049   2.255   1.493   2.866
 1452SOL     OW 1050   3.322   1.505   3.201
 1452SOL    HW1 1051   3.346   1.599   3.227
 1452SOL    HW2 1052   3.306   1.451   3.283
 1455SOL     OW 1053   2.093   1.713   2.345
 1455SOL    HW1 1054   2.127   1.790   2.399
 1455SOL    HW2 1055   2.137   1.713   2.255
 1456SOL     OW 1056   2.989   1.341   3.552
 1456SOL    HW1 1057   3.036   1.341   3.640
 1456SOL    HW2 1058   2.941   1.254   3.541
 1457SOL     OW 1059   2.092   1.434   2.400
 1457SOL    HW1 1060   2.066   1.530   2.400
 1457SOL    HW2 1061   2.021   1.380   2.445
 1458SOL     OW 1062   2.102   1.091   2.748
 1458SOL    HW1 1063   2.116   1.007   2.800
 1458SOL    HW2 1064   2.047   1.155   2.803
 1459SOL     OW 1065   2.482   1.786   3.301
 1459SOL    HW1 1066   2.390   1.769   3.336
 1459SOL    HW2 1067   2.510   1.878   3.327
 1460SOL     OW 1068   2.468   0.964   1.985
 1460SOL    HW1 1069   2.475   1.048   1.931
 1460SOL    HW2 1070   2.514   0.977   2.073
 1462SOL     OW 1071   1.984   0.643   2.425
 1462SOL    HW1 1072   1.939   0.555   2.442
 1462SOL    HW2 1073   1.983   0.697   2.509
 1463SOL     OW 1074   3.704   1.767   2.221
 1463SOL    HW1 1075   3.758   1.738   2.301
 1463SOL    HW2 1076   3.734   1.857   2.192
 1464SOL     OW 1077   1.889   1.596   1.979
 1464SOL    HW1 1078   1.870   1.500   2.000
 1464SOL    HW2 1079   1.856   1.654   2.054
 1466SOL     OW 1080   3.503   1.108   2.294
 1466SOL    HW1 1081   3.589   1.110   2.242
 1466SOL    HW2 1082   3.517   1.155   2.382
 1468SOL     OW 1083   2.475   1.365   2.588
 1468SOL    HW1 1084   2.426   1.278   2.597
 1468SOL    HW2 1085   2.452   1.408   2.501
 1469SOL     OW 1086   3.155   1.228   3.285
 1469SOL    HW1 1087   3.192   1.155   3.227
 1469SOL    HW2 1088   3.207   1.233   3.370
 1471SOL     OW 1089   2.059   0.976   3.126
 1471SOL    HW1 1090   2.148   0.931   3.112
 1471SOL    HW2 1091   1.986   0.911   3.107
 1472SOL     OW 1092   3.387   0.999   2.052
 1472SOL    HW1 1093   3.324   0.923   2.065
 1472SOL    HW2 1094   3.435   1.017   2.138
 1473SOL     OW 1095   3.049   1.792   3.478
 1473SOL    HW1 1096   3.073   1.852   3.402
 1473SOL    HW2 1097   3.056   1.697   3.448
 1475SOL     OW 1098   3.328   1.417   2.815
 1475SOL    HW1 1099   3.269   1.423   2.895
 1475SOL    HW2 1100   3.313   1.329   2.769
 1476SOL     OW 1101   3.529   1.714   2.434
 1476SOL    HW1 1102   3.488   1.691   2.346
 1476SOL    HW2 1103   3.511   1.640   2.499
 1477SOL     OW 1104   2.460   0.729   2.132
 1477SOL    HW1 1105   2.484   0.798   2.064
 1477SOL    HW2 1106   2.382   0.762   2.186
 1479SOL     OW 1107   3.438   1.662   2.169
 1479SOL    HW1 1108   3.527   1.708   2.172
 1479SOL    HW2 1109   3.417   1.638   2.074
 1484SOL     OW 1110   2.903   0.701   2.291
 1484SOL    HW1 1111   2.929   0.697   2.387
 1484SOL    HW2 1112   2.818   0.650   2.277
 1485SOL     OW 1113   1.938   0.811   2.651
 1485SOL    HW1 1114   2.037   0.799   2.660
 1485SOL    HW2 1115   1.914   0.906   2.672
 1486SOL     OW 1116   1.992   1.821   3.433
 1486SOL    HW1 1117   1.982   1.806   3.532
 1486SOL    HW2 1118   1.906   1.857   3.397
 1489SOL     OW 1119   3.224   1.144   2.407
 1489SOL    HW1 1120   3.307   1.115   2.359
 1489SOL    HW2 1121   3.175   1.211   2.351
 1491SOL     OW 1122   2.870   1.456   2.339
 1491SOL    HW1 1123   2.824   1.528   2.287
 1491SOL    HW2 1124   2.866   1.476   2.437
 1492SOL     OW 1125   2.213   1.801   2.715
 1492SOL    HW1 1126   2.263   1.715   2.721
 1492SOL    HW2 1127   2.278   1.878   2.712
 1494SOL     OW 1128   3.089   1.550   3.368
 1494SOL    HW1 1129   3.095   1.473   3.432
 1494SOL    HW2 1130   3.037   1.524   3.288
 1495SOL     OW 1131   2.183   0.943   2.104
 1495SOL    HW1 1132   2.265   0.982   2.062
 1495SOL    HW2 1133   2.156   0.861   2.055
 1497SOL     OW 1134   2.323   1.266   3.589
 1497SOL    HW1 1135   2.273   1.267   3.503
 1497SOL    HW2 1136   2.260   1.248   3.665
 1498SOL     OW 1137   2.973   1.776   2.099
 1498SOL    HW1 1138   2.913   1.714   2.149
 1498SOL    HW2 1139   3.004   1.732   2.014
 1500SOL     OW 1140   3.494   1.377   1.943
 1500SOL    HW1 1141   3.462   1.471   1.933
 1500SOL    HW2 1142   3.418   1.314   1.931
 1501SOL     OW 1143   2.326   1.743   2.185
 1501SOL    HW1 1144   2.359   1.782   2.271
 1501SOL    HW2 1145   2.402   1.736   2.120
 1503SOL     OW 1146   2.111   1.785   3.103
 1503SOL    HW1 1147   2.168   1.720   3.153
 1503SOL    HW2 1148   2.095   1.752   3.010
 1504SOL     OW 1149   2.802   1.698   2.766
 1504SOL    HW1 1150   2.882   1.641   2.787
 1504SOL    HW2 1151   2.753   1.658   2.689
 1505SOL     OW 1152   2.244   0.700   2.342
 1505SOL    HW1 1153   2.289   0.610   2.339
 1505SOL    HW2 1154   2.150   0.689   2.375
 1509SOL     OW 1155   2.750   1.514   3.057
 1509SOL    HW1 1156   2.727   1.489   2.963
 1509SOL    HW2 1157   2.811   1.445   3.096
 1511SOL     OW 1158   2.665   1.402   2.786
 1511SOL    HW1 1159   2.755   1.416   2.744
 1511SOL    HW2 1160   2.594   1.404   2.715
 1514SOL     OW 1161   3.296   1.188   1.903
 1514SOL    HW1 1162   3.328   1.112   1.960
 1514SOL    HW2 1163   3.204   1.215   1.933
 1518SOL     OW 1164   3.089   1.570   2.655
 1518SOL    HW1 1165   3.110   1.644   2.590
 1518SOL    HW2 1166   3.157   1.570   2.728
 1519SOL     OW 1167   2.321   1.152   2.603
 1519SOL    HW1 1168   2.250   1.125   2.668
 1519SOL    HW2 1169   2.295   1.124   2.510
 1520SOL     OW 1170   3.133   1.797   2.453
 1520SOL    HW1 1171   3.177   1.861   2.389
 1520SOL    HW2 1172   3.083   1.849   2.523
 1526SOL     OW 1173   3.291   1.173   2.729
 1526SOL    HW1 1174   3.236   1.089   2.722
 1526SOL    HW2 1175   3.317   1.202   2.637
 1529SOL     OW 1176   2.350   1.385   2.036
 1529SOL    HW1 1177   2.263   1.370   2.083
 1529SOL    HW2 1178   2.333   1.411   1.941
 1530SOL     OW 1179   3.526   1.280   2.519
 1530SOL    HW1 1180   3.625   1.288   2.533
 1530SOL    HW2 1181   3.481   1.364   2.550
 1534SOL     OW 1182   2.926   1.347   3.202
 1534SOL    HW1 1183   2.846   1.324   3.257
 1534SOL    HW2 1184   3.009   1.321   3.251
 1536SOL     OW 1185   2.973   1.195   2.962
 1536SOL    HW1 1186   2.933   1.239   3.043
 1536SOL    HW2 1187   2.932   1.232   2.879
 1540SOL     OW 1188   2.567   1.050   2.230
 1540SOL    HW1 1189   2.553   1.057   2.329
 1540SOL    HW2 1190   2.651   0.999   2.212
 1541SOL     OW 1191   2.272   0.813   3.113
 1541SOL    HW1 1192   2.358   0.825   3.163
 1541SOL    HW2 1193   2.230   0.726   3.140
 1543SOL     OW 1194   1.926   1.564   3.193
 1543SOL    HW1 1195   1.880   1.646   3.159
 1543SOL    HW2 1196   2.024   1.583   3.202
 1544SOL     OW 1197   2.229   1.100   2.363
 1544SOL    HW1 1198   2.222   1.183   2.307
 1544SOL    HW2 1199   2.233   1.020   2.303
 1545SOL     OW 1200   2.428   0.537   2.727
 1545SOL    HW1 1201   2.440   0.603   2.653
 1545SOL    HW2 1202   2.474   0.571   2.810
 1546SOL     OW 1203   3.114   1.348   2.250
 1546SOL    HW1 1204   3.164   1.425   2.290
 1546SOL    HW2 1205   3.019   1.350   2.282
 1547SOL     OW 1206   3.134   1.445   3.004
 1547SOL    HW1 1207   3.181   1.458   3.091
 1547SOL    HW2 1208   3.068   1.371   3.013
 1549SOL     OW 1209   2.216   1.510   3.191
 1549SOL    HW1 1210   2.195   1.466   3.104
 1549SOL    HW2 1211   2.313   1.536   3.194
 1554SOL     OW 1212   2.435   0.870   2.891
 1554SOL    HW1 1213   2.479   0.959   2.882
 1554SOL    HW2 1214   2.372   0.870   2.968
 1558SOL     OW 1215   1.899   1.310   3.144
 1558SOL    HW1 1216   1.952   1.261   3.212
 1558SOL    HW2 1217   1.921   1.408   3.149
 1559SOL     OW 1218   2.594   0.634   2.926
 1559SOL    HW1 1219   2.653   0.608   2.850
 1559SOL    HW2 1220   2.566   0.730   2.915
 1563SOL     OW 1221   2.885   0.766   2.828
 1563SOL    HW1 1222   2.900   0.787   2.924
 1563SOL    HW2 1223   2.855   0.671   2.819
 1564SOL     OW 1224   2.842   1.573   3.562
 1564SOL    HW1 1225   2.822   1.617   3.474
 1564SOL    HW2 1226   2.881   1.482   3.546
 1568SOL     OW 1227   3.165   0.838   1.904
 1568SOL    HW1 1228   3.199   0.745   1.919
 1568SOL    HW2 1229   3.183   0.865   1.809
 1569SOL     OW 1230   2.930   1.333   2.711
 1569SOL    HW1 1231   2.937   1.249   2.656
 1569SOL    HW2 1232   2.992   1.402   2.675
 1570SOL     OW 1233   2.181   0.810   2.811
 1570SOL    HW1 1234   2.274   0.846   2.816
 1570SOL    HW2 1235   2.175   0.725   2.863
 1574SOL     OW 1236   1.870   1.326   2.062
 1574SOL    HW1 1237   1.777   1.347   2.031
 1574SOL    HW2 1238   1.880   1.227   2.075
 1575SOL     OW 1239   1.950   1.801   2.789
 1575SOL    HW1 1240   1.908   1.715   2.762
 1575SOL    HW2 1241   2.044   1.804   2.755
 1576SOL     OW 1242   2.366   1.568   2.772
 1576SOL    HW1 1243   2.432   1.642   2.781
 1576SOL    HW2 1244   2.410   1.489   2.730
 1577SOL     OW 1245   2.864   0.796   3.100
 1577SOL    HW1 1246   2.905   0.764   3.186
 1577SOL    HW2 1247   2.768   0.769   3.097
 1581SOL     OW 1248   2.677   0.572   2.187
 1581SOL    HW1 1249   2.684   0.483   2.141
 1581SOL    HW2 1250   2.583   0.606   2.179
 1583SOL     OW 1251   2.114   1.564   3.606
 1583SOL    HW1 1252   2.084   1.621   3.682
 1583SOL    HW2 1253   2.107   1.467   3.632
 1585SOL     OW 1254   2.792   1.678   3.327
 1585SOL    HW1 1255   2.768   1.660   3.232
 1585SOL    HW2 1256   2.822   1.772   3.337
 1586SOL     OW 1257   2.335   0.500   2.053
 1586SOL    HW1 1258   2.396   0.580   2.057
 1586SOL    HW2 1259   2.240   0.531   2.060
 1587SOL     OW 1260   2.021   1.137   3.328
 1587SOL    HW1 1261   2.043   1.076   3.404
 1587SOL    HW2 1262   2.031   1.088   3.242
 1588SOL     OW 1263   3.209   1.059   3.096
 1588SOL    HW1 1264   3.233   0.996   3.022
 1588SOL    HW2 1265   3.119   1.099   3.078
 1589SOL     OW 1266   3.164   0.855   2.171
 1589SOL    HW1 1267   3.078   0.824   2.213
 1589SOL    HW2 1268   3.160   0.841   2.072
 1590SOL     OW 1269   3.621   1.747   3.016
 1590SOL    HW1 1270   3.682   1.777   2.943
 1590SOL    HW2 1271   3.583   1.658   2.994
 1591SOL     OW 1272   3.114   1.731   2.990
 1591SOL    HW1 1273   3.198   1.736   2.936
 1591SOL    HW2 1274   3.091   1.635   3.008
 1592SOL     OW 1275   1.945   1.258   2.884
 1592SOL    HW1 1276   1.940   1.257   2.984
 1592SOL    HW2 1277   1.862   1.217   2.846
 1593SOL     OW 1278   2.550   1.662   3.578
 1593SOL    HW1 1279   2.494   1.743   3.587
 1593SOL    HW2 1280   2.602   1.666   3.492
 1595SOL     OW 1281   3.250   1.573   2.339
 1595SOL    HW1 1282   3.317   1.585   2.265
 1595SOL    HW2 1283   3.210   1.662   2.362
 1596SOL     OW 1284   1.992   1.794   3.713
 1596SOL    HW1 1285   1.951   1.720   3.766
 1596SOL    HW2 1286   2.056   1.845   3.771
 1597SOL     OW 1287   3.142   0.927   2.534
 1597SOL    HW1 1288   3.202   0.846   2.536
 1597SOL    HW2 1289   3.182   0.996   2.474
 1598SOL     OW 1290   2.692   1.273   3.284
 1598SOL    HW1 1291   2.687   1.306   3.379
 1598SOL    HW2 1292   2.606   1.292   3.238
 1599SOL     OW 1293   2.534   1.616   2.016
 1599SOL    HW1 1294   2.543   1.626   1.917
 1599SOL    HW2 1295   2.494   1.527   2.037
 1600SOL     OW 1296   3.512   1.720   3.256
 1600SOL    HW1 1297   3.565   1.730   3.172
 1600SOL    HW2 1298   3.485   1.810   3.290
 1603SOL     OW 1299   3.056   1.612   1.893
 1603SOL    HW1 1300   3.062   1.519   1.930
 1603SOL    HW2 1301   2.997   1.612   1.813
 1604SOL     OW 1302   2.684   1.002   3.234
 1604SOL    HW1 1303   2.724   1.001   3.142
 1604SOL    HW2 1304   2.694   1.094   3.274
 1605SOL     OW 1305   2.778   0.910   2.153
 1605SOL    HW1 1306   2.841   0.948   2.085
 1605SOL    HW2 1307   2.818   0.827   2.192
 1606SOL     OW 1308   3.366   1.607   1.906
 1606SOL    HW1 1309   3.274   1.644   1.913
 1606SOL    HW2 1310   3.404   1.627   1.816
 1607SOL     OW 1311   2.234   1.288   3.352
 1607SOL    HW1 1312   2.221   1.381   3.318
 1607SOL    HW2 1313   2.150   1.236   3.339
 1609SOL     OW 1314   2.901   1.098   2.558
 1609SOL    HW1 1315   2.831   1.051   2.612
 1609SOL    HW2 1316   2.960   1.030   2.515
 1611SOL     OW 1317   2.452   1.487   2.353
 1611SOL    HW1 1318   2.494   1.429   2.283
 1611SOL    HW2 1319   2.408   1.566   2.309
 1613SOL     OW 1320   2.117   1.348   2.152
 1613SOL    HW1 1321   2.021   1.349   2.125
 1613SOL    HW2 1322   2.129   1.401   2.236
 1619SOL     OW 1323   3.045   1.335   1.981
 1619SOL    HW1 1324   2.946   1.324   1.983
 1619SOL    HW2 1325   3.079   1.350   2.074
 1620SOL     OW 1326   2.475   0.842   3.293
 1620SOL    HW1 1327   2.531   0.923   3.276
 1620SOL    HW2 1328   2.534   0.762   3.296
 1621SOL     OW 1329   3.355   1.767   2.821
 1621SOL    HW1 1330   3.388   1.831   2.752
 1621SOL    HW2 1331   3.421   1.761   2.896
 1624SOL     OW 1332   2.252   1.741   3.422
 1624SOL    HW1 1333   2.161   1.782   3.420
 1624SOL    HW2 1334   2.245   1.647   3.454
 1627SOL     OW 1335   2.456   0.745   2.514
 1627SOL    HW1 1336   2.506   0.830   2.495
 1627SOL    HW2 1337   2.368   0.747   2.466
 1630SOL     OW 1338   2.721   1.374   1.878
 1630SOL    HW1 1339   2.675   1.389   1.966
 1630SOL    HW2 1340   2.765   1.459   1.848
 1631SOL     OW 1341   2.523   1.790   2.815
 1631SOL    HW1 1342   2.477   1.878   2.802
 1631SOL    HW2 1343   2.622   1.802   2.808
 1632SOL     OW 1344   2.721   0.956   2.723
 1632SOL    HW1 1345   2.775   0.887   2.771
 1632SOL    HW2 1346   2.689   1.025   2.789
 1633SOL     OW 1347   2.945   0.984   1.949
 1633SOL    HW1 1348   2.922   1.037   1.867
 1633SOL    HW2 1349   3.026   0.928   1.930
 1634SOL     OW 1350   3.723   1.569   2.713
 1634SOL    HW1 1351   3.652   1.557   2.643
 1634SOL    HW2 1352   3.724   1.490   2.773
 1635SOL     OW 1353   2.083   1.314   3.706
 1635SOL    HW1 1354   2.018   1.241   3.685
 1635SOL    HW2 1355   2.087   1.328   3.804
 1636SOL     OW 1356   1.941   1.240   2.515
 1636SOL    HW1 1357   1.940   1.193   2.603
 1636SOL    HW2 1358   2.023   1.212   2.464
 1637SOL     OW 1359   2.534   1.391   3.486
 1637SOL    HW1 1360   2.456   1.341   3.524
 1637SOL    HW2 1361   2.531   1.486   3.517
 1640SOL     OW 1362   3.567   1.487   2.966
 1640SOL    HW1 1363   3.474   1.462   2.939
 1640SOL    HW2 1364   3.593   1.437   3.048
 1642SOL     OW 1365   2.674   1.586   2.549
 1642SOL    HW1 1366   2.706   1.596   2.455
 1642SOL    HW2 1367   2.595   1.524   2.551
 1645SOL     OW 1368   2.632   1.330   2.163
 1645SOL    HW1 1369   2.586   1.243   2.180
 1645SOL    HW2 1370   2.723   1.327   2.204
 1646SOL     OW 1371   2.480   1.567   3.146
 1646SOL    HW1 1372   2.475   1.649   3.203
 1646SOL    HW2 1373   2.569   1.564   3.101
 1650SOL     OW 1374   1.901   1.077   2.162
 1650SOL    HW1 1375   2.000   1.066   2.153
 1650SOL    HW2 1376   1.861   0.991   2.194
 1651SOL     OW 1377   2.737   1.646   2.199
 1651SOL    HW1 1378   2.660   1.611   2.145
 1651SOL    HW2 1379   2.705   1.717   2.261
 1662SOL     OW 1380   1.889   1.596   3.841
 1662SOL    HW1 1381   1.870   1.500   3.862
 1662SOL    HW2 1382   1.856   1.654   3.916
 1715SOL     OW 1383   2.534   1.616   3.878
 1715SOL    HW1 1384   2.543   1.626   3.779
 1715SOL    HW2 1385   2.494   1.527   3.899
 1727SOL     OW 1386   2.721   1.374   3.740
 1727SOL    HW1 1387   2.675   1.389   3.828
 1727SOL    HW2 1388   2.765   1.459   3.710
 1738SOL     OW 1389   2.087   2.137   0.996
 1738SOL    HW1 1390   2.122   2.120   1.088
 1738SOL    HW2 1391   1.999   2.092   0.984
 1739SOL     OW 1392   1.881   2.230   0.647
 1739SOL    HW1 1393   1.799   2.273   0.686
 1739SOL    HW2 1394   1.853   2.157   0.584
 1740SOL     OW 1395   2.431   3.137   1.165
 1740SOL    HW1 1396   2.338   3.130   1.128
 1740SOL    HW2 1397   2.442   3.226   1.209
 1742SOL     OW 1398   2.997   2.565   0.717
 1742SOL    HW1 1399   3.054   2.643   0.692
 1742SOL    HW2 1400   2.937   2.591   0.793
 1744SOL     OW 1401   2.630   3.006   1.023
 1744SOL    HW1 1402   2.552   3.023   1.083
 1744SOL    HW2 1403   2.664   3.093   0.987
 1745SOL     OW 1404   2.712   2.660   1.823
 1745SOL    HW1 1405   2.708   2.736   1.888
 1745SOL    HW2 1406   2.734   2.696   1.732
 1746SOL     OW 1407   2.547   2.874   0.665
 1746SOL    HW1 1408   2.616   2.858   0.735
 1746SOL    HW2 1409   2.474   2.931   0.703
 1747SOL     OW 1410   2.548   3.023   1.803
 1747SOL    HW1 1411   2.608   3.102   1.817
 1747SOL    HW2 1412   2.462   3.054   1.762
 1748SOL     OW 1413   2.197   3.297   1.061
 1748SOL    HW1 1414   2.119   3.266   1.008
 1748SOL    HW2 1415   2.255   3.355   1.004
 1749SOL     OW 1416   3.322   3.367   1.339
 1749SOL    HW1 1417   3.346   3.461   1.365
 1749SOL    HW2 1418   3.306   3.313   1.421
 1750SOL     OW 1419   2.300   2.254   1.499
 1750SOL    HW1 1420   2.382   2.198   1.508
 1750SOL    HW2 1421   2.219   2.196   1.503
 1753SOL     OW 1422   2.989   3.203   1.690
 1753SOL    HW1 1423   3.036   3.203   1.778
 1753SOL    HW2 1424   2.941   3.116   1.679
 1755SOL     OW 1425   2.102   2.953   0.886
 1755SOL    HW1 1426   2.116   2.869   0.938
 1755SOL    HW2 1427   2.047   3.017   0.941
 1756SOL     OW 1428   2.482   3.648   1.439
 1756SOL    HW1 1429   2.390   3.631   1.474
 1756SOL    HW2 1430   2.510   3.740   1.465
 1758SOL     OW 1431   3.456   1.976   1.480
 1758SOL    HW1 1432   3.438   2.043   1.408
 1758SOL    HW2 1433   3.453   2.022   1.569
 1759SOL     OW 1434   1.984   2.505   0.563
 1759SOL    HW1 1435   1.939   2.417   0.580
 1759SOL    HW2 1436   1.983   2.559   0.647
 1764SOL     OW 1437   1.975   2.599   1.597
 1764SOL    HW1 1438   2.063   2.586   1.642
 1764SOL    HW2 1439   1.962   2.696   1.575
 1766SOL     OW 1440   3.155   3.090   1.423
 1766SOL    HW1 1441   3.192   3.017   1.365
 1766SOL    HW2 1442   3.207   3.095   1.508
 1768SOL     OW 1443   2.059   2.838   1.264
 1768SOL    HW1 1444   2.148   2.793   1.250
 1768SOL    HW2 1445   1.986   2.773   1.245
 1770SOL     OW 1446   3.049   3.654   1.616
 1770SOL    HW1 1447   3.073   3.714   1.540
 1770SOL    HW2 1448   3.056   3.559   1.586
 1771SOL     OW 1449   2.179   2.113   1.801
 1771SOL    HW1 1450   2.250   2.184   1.807
 1771SOL    HW2 1451   2.091   2.152   1.829
 1775SOL     OW 1452   3.143   2.207   0.944
 1775SOL    HW1 1453   3.057   2.157   0.931
 1775SOL    HW2 1454   3.205   2.153   1.000
 1777SOL     OW 1455   2.669   2.467   1.465
 1777SOL    HW1 1456   2.622   2.464   1.554
 1777SOL    HW2 1457   2.618   2.412   1.399
 1778SOL     OW 1458   3.256   2.331   1.674
 1778SOL    HW1 1459   3.236   2.374   1.762
 1778SOL    HW2 1460   3.334   2.269   1.683
 1779SOL     OW 1461   2.835   2.752   1.572
 1779SOL    HW1 1462   2.881   2.668   1.543
 1779SOL    HW2 1463   2.779   2.786   1.497
 1780SOL     OW 1464   2.853   2.272   1.242
 1780SOL    HW1 1465   2.776   2.306   1.296
 1780SOL    HW2 1466   2.819   2.221   1.163
 1782SOL     OW 1467   1.938   2.673   0.789
 1782SOL    HW1 1468   2.037   2.661   0.798
 1782SOL    HW2 1469   1.914   2.768   0.810
 1783SOL     OW 1470   1.992   3.683   1.571
 1783SOL    HW1 1471   1.982   3.668   1.670
 1783SOL    HW2 1472   1.906   3.719   1.535
 1785SOL     OW 1473   3.581   2.447   1.831
 1785SOL    HW1 1474   3.555   2.536   1.795
 1785SOL    HW2 1475   3.579   2.379   1.758
 1787SOL     OW 1476   2.412   2.058   0.885
 1787SOL    HW1 1477   2.407   2.053   0.985
 1787SOL    HW2 1478   2.414   2.154   0.856
 1791SOL     OW 1479   3.089   3.412   1.506
 1791SOL    HW1 1480   3.095   3.335   1.570
 1791SOL    HW2 1481   3.037   3.386   1.426
 1794SOL     OW 1482   2.323   3.128   1.727
 1794SOL    HW1 1483   2.273   3.129   1.641
 1794SOL    HW2 1484   2.260   3.110   1.803
 1796SOL     OW 1485   2.064   2.147   1.498
 1796SOL    HW1 1486   1.984   2.207   1.485
 1796SOL    HW2 1487   2.054   2.098   1.584
 1800SOL     OW 1488   2.111   3.647   1.241
 1800SOL    HW1 1489   2.168   3.582   1.291
 1800SOL    HW2 1490   2.095   3.614   1.148
 1802SOL     OW 1491   2.244   2.562   0.480
 1802SOL    HW1 1492   2.289   2.472   0.477
 1802SOL    HW2 1493   2.150   2.551   0.513
 1803SOL     OW 1494   3.409   2.084   1.729
 1803SOL    HW1 1495   3.404   2.121   1.821
 1803SOL    HW2 1496   3.337   2.015   1.717
 1805SOL     OW 1497   2.643   2.126   1.749
 1805SOL    HW1 1498   2.710   2.065   1.792
 1805SOL    HW2 1499   2.570   2.145   1.814
 1806SOL     OW 1500   2.750   3.376   1.195
 1806SOL    HW1 1501   2.727   3.351   1.101
 1806SOL    HW2 1502   2.811   3.307   1.234
 1807SOL     OW 1503   3.213   2.452   1.433
 1807SOL    HW1 1504   3.241   2.409   1.518
 1807SOL    HW2 1505   3.238   2.548   1.434
 1808SOL     OW 1506   2.665   3.264   0.924
 1808SOL    HW1 1507   2.755   3.278   0.882
 1808SOL    HW2 1508   2.594   3.266   0.853
 1809SOL     OW 1509   2.784   2.365   0.899
 1809SOL    HW1 1510   2.759   2.356   0.803
 1809SOL    HW2 1511   2.832   2.283   0.930
 1810SOL     OW 1512   2.401   1.926   0.512
 1810SOL    HW1 1513   2.320   1.927   0.570
 1810SOL    HW2 1514   2.404   2.009   0.457
 1813SOL     OW 1515   2.938   2.545   1.464
 1813SOL    HW1 1516   2.858   2.484   1.467
 1813SOL    HW2 1517   3.019   2.492   1.440
 1815SOL     OW 1518   2.321   3.014   0.741
 1815SOL    HW1 1519   2.250   2.987   0.806
 1815SOL    HW2 1520   2.295   2.986   0.648
 1818SOL     OW 1521   1.940   2.418   1.386
 1818SOL    HW1 1522   2.032   2.417   1.345
 1818SOL    HW2 1523   1.934   2.492   1.453
 1819SOL     OW 1524   2.423   2.084   1.147
 1819SOL    HW1 1525   2.461   2.000   1.184
 1819SOL    HW2 1526   2.335   2.103   1.191
 1820SOL     OW 1527   2.728   2.316   0.642
 1820SOL    HW1 1528   2.696   2.388   0.580
 1820SOL    HW2 1529   2.752   2.235   0.589
 1821SOL     OW 1530   2.879   1.901   0.753
 1821SOL    HW1 1531   2.807   1.906   0.684
 1821SOL    HW2 1532   2.855   1.832   0.822
 1823SOL     OW 1533   3.328   2.452   0.992
 1823SOL    HW1 1534   3.298   2.357   0.999
 1823SOL    HW2 1535   3.401   2.468   1.058
 1829SOL     OW 1536   3.616   3.085   1.588
 1829SOL    HW1 1537   3.707   3.046   1.575
 1829SOL    HW2 1538   3.624   3.181   1.612
 1830SOL     OW 1539   2.926   3.209   1.340
 1830SOL    HW1 1540   2.846   3.186   1.395
 1830SOL    HW2 1541   3.009   3.183   1.389
 1832SOL     OW 1542   2.973   3.057   1.100
 1832SOL    HW1 1543   2.933   3.101   1.181
 1832SOL    HW2 1544   2.932   3.094   1.017
 1834SOL     OW 1545   2.777   1.951   1.402
 1834SOL    HW1 1546   2.802   1.931   1.307
 1834SOL    HW2 1547   2.849   2.007   1.444
 1835SOL     OW 1548   2.842   2.978   1.719
 1835SOL    HW1 1549   2.743   2.984   1.729
 1835SOL    HW2 1550   2.865   2.898   1.663
 1837SOL     OW 1551   2.272   2.675   1.251
 1837SOL    HW1 1552   2.358   2.687   1.301
 1837SOL    HW2 1553   2.230   2.588   1.278
 1838SOL     OW 1554   3.136   2.248   1.262
 1838SOL    HW1 1555   3.157   2.322   1.326
 1838SOL    HW2 1556   3.047   2.265   1.219
 1839SOL     OW 1557   1.926   3.426   1.331
 1839SOL    HW1 1558   1.880   3.508   1.297
 1839SOL    HW2 1559   2.024   3.445   1.340
 1841SOL     OW 1560   2.428   2.399   0.865
 1841SOL    HW1 1561   2.440   2.465   0.791
 1841SOL    HW2 1562   2.474   2.433   0.948
 1843SOL     OW 1563   3.134   3.307   1.142
 1843SOL    HW1 1564   3.181   3.320   1.229
 1843SOL    HW2 1565   3.068   3.233   1.151
 1845SOL     OW 1566   2.216   3.372   1.329
 1845SOL    HW1 1567   2.195   3.328   1.242
 1845SOL    HW2 1568   2.313   3.398   1.332
 1846SOL     OW 1569   2.264   2.613   1.598
 1846SOL    HW1 1570   2.332   2.668   1.551
 1846SOL    HW2 1571   2.304   2.525   1.625
 1847SOL     OW 1572   3.449   2.641   1.670
 1847SOL    HW1 1573   3.357   2.679   1.665
 1847SOL    HW2 1574   3.509   2.688   1.605
 1848SOL     OW 1575   2.875   1.967   1.770
 1848SOL    HW1 1576   2.881   2.052   1.718
 1848SOL    HW2 1577   2.907   1.891   1.713
 1849SOL     OW 1578   2.366   1.912   1.740
 1849SOL    HW1 1579   2.324   1.855   1.670
 1849SOL    HW2 1580   2.300   1.981   1.772
 1850SOL     OW 1581   2.435   2.732   1.029
 1850SOL    HW1 1582   2.479   2.821   1.020
 1850SOL    HW2 1583   2.372   2.732   1.106
 1851SOL     OW 1584   3.222   2.724   1.045
 1851SOL    HW1 1585   3.147   2.724   0.979
 1851SOL    HW2 1586   3.259   2.632   1.054
 1853SOL     OW 1587   2.169   2.075   1.231
 1853SOL    HW1 1588   2.146   2.112   1.321
 1853SOL    HW2 1589   2.139   1.980   1.225
 1854SOL     OW 1590   1.899   3.172   1.282
 1854SOL    HW1 1591   1.952   3.123   1.350
 1854SOL    HW2 1592   1.921   3.270   1.287
 1855SOL     OW 1593   2.594   2.496   1.064
 1855SOL    HW1 1594   2.653   2.470   0.988
 1855SOL    HW2 1595   2.566   2.592   1.053
 1856SOL     OW 1596   3.590   2.797   1.854
 1856SOL    HW1 1597   3.544   2.790   1.765
 1856SOL    HW2 1598   3.528   2.841   1.920
 1857SOL     OW 1599   2.169   1.925   0.618
 1857SOL    HW1 1600   2.158   2.019   0.651
 1857SOL    HW2 1601   2.164   1.862   0.695
 1859SOL     OW 1602   2.885   2.628   0.966
 1859SOL    HW1 1603   2.900   2.649   1.062
 1859SOL    HW2 1604   2.855   2.533   0.957
 1860SOL     OW 1605   2.842   3.435   1.700
 1860SOL    HW1 1606   2.822   3.479   1.612
 1860SOL    HW2 1607   2.881   3.344   1.684
 1862SOL     OW 1608   2.212   2.760   1.804
 1862SOL    HW1 1609   2.288   2.804   1.852
 1862SOL    HW2 1610   2.247   2.713   1.722
 1866SOL     OW 1611   2.181   2.672   0.949
 1866SOL    HW1 1612   2.274   2.708   0.954
 1866SOL    HW2 1613   2.175   2.587   1.001
 1867SOL     OW 1614   2.201   2.371   1.006
 1867SOL    HW1 1615   2.149   2.288   0.989
 1867SOL    HW2 1616   2.278   2.376   0.942
 1868SOL     OW 1617   3.000   2.242   1.678
 1868SOL    HW1 1618   2.955   2.305   1.742
 1868SOL    HW2 1619   3.093   2.273   1.661
 1869SOL     OW 1620   3.022   2.069   1.477
 1869SOL    HW1 1621   3.022   2.133   1.554
 1869SOL    HW2 1622   3.050   2.117   1.394
 1872SOL     OW 1623   2.366   3.430   0.910
 1872SOL    HW1 1624   2.432   3.504   0.919
 1872SOL    HW2 1625   2.410   3.351   0.868
 1873SOL     OW 1626   2.864   2.658   1.238
 1873SOL    HW1 1627   2.905   2.626   1.324
 1873SOL    HW2 1628   2.768   2.631   1.235
 1874SOL     OW 1629   1.902   2.406   1.114
 1874SOL    HW1 1630   1.987   2.373   1.073
 1874SOL    HW2 1631   1.915   2.421   1.212
 1875SOL     OW 1632   2.051   2.382   1.722
 1875SOL    HW1 1633   2.110   2.342   1.652
 1875SOL    HW2 1634   1.993   2.453   1.681
 1876SOL     OW 1635   3.231   2.812   1.660
 1876SOL    HW1 1636   3.270   2.901   1.680
 1876SOL    HW2 1637   3.241   2.792   1.563
 1878SOL     OW 1638   3.519   2.466   1.206
 1878SOL    HW1 1639   3.481   2.397   1.268
 1878SOL    HW2 1640   3.601   2.430   1.162
 1879SOL     OW 1641   2.114   3.426   1.744
 1879SOL    HW1 1642   2.084   3.483   1.820
 1879SOL    HW2 1643   2.107   3.329   1.770
 1880SOL     OW 1644   2.533   2.326   1.269
 1880SOL    HW1 1645   2.499   2.237   1.239
 1880SOL    HW2 1646   2.559   2.380   1.189
 1881SOL     OW 1647   2.792   3.540   1.465
 1881SOL    HW1 1648   2.768   3.522   1.370
 1881SOL    HW2 1649   2.822   3.634   1.475
 1883SOL     OW 1650   2.021   2.999   1.466
 1883SOL    HW1 1651   2.043   2.938   1.542
 1883SOL    HW2 1652   2.031   2.950   1.380
 1884SOL     OW 1653   3.209   2.921   1.234
 1884SOL    HW1 1654   3.233   2.858   1.160
 1884SOL    HW2 1655   3.119   2.961   1.216
 1888SOL     OW 1656   1.945   3.120   1.022
 1888SOL    HW1 1657   1.940   3.119   1.122
 1888SOL    HW2 1658   1.862   3.079   0.984
 1889SOL     OW 1659   2.550   3.524   1.716
 1889SOL    HW1 1660   2.494   3.605   1.725
 1889SOL    HW2 1661   2.602   3.528   1.630
 1893SOL     OW 1662   1.992   3.656   1.851
 1893SOL    HW1 1663   1.951   3.582   1.904
 1893SOL    HW2 1664   2.056   3.707   1.909
 1895SOL     OW 1665   2.692   3.135   1.422
 1895SOL    HW1 1666   2.687   3.168   1.517
 1895SOL    HW2 1667   2.606   3.154   1.376
 1899SOL     OW 1668   2.125   2.188   0.720
 1899SOL    HW1 1669   2.046   2.239   0.686
 1899SOL    HW2 1670   2.116   2.173   0.818
 1901SOL     OW 1671   2.684   2.864   1.372
 1901SOL    HW1 1672   2.724   2.863   1.280
 1901SOL    HW2 1673   2.694   2.956   1.412
 1904SOL     OW 1674   2.234   3.150   1.490
 1904SOL    HW1 1675   2.221   3.243   1.456
 1904SOL    HW2 1676   2.150   3.098   1.477
 1907SOL     OW 1677   2.876   2.098   0.971
 1907SOL    HW1 1678   2.868   2.062   0.878
 1907SOL    HW2 1679   2.874   2.022   1.036
 1909SOL     OW 1680   3.571   2.247   1.381
 1909SOL    HW1 1681   3.644   2.316   1.385
 1909SOL    HW2 1682   3.599   2.172   1.322
 1911SOL     OW 1683   1.967   2.875   1.726
 1911SOL    HW1 1684   1.890   2.842   1.780
 1911SOL    HW2 1685   2.052   2.845   1.768
 1912SOL     OW 1686   2.534   2.065   1.489
 1912SOL    HW1 1687   2.624   2.049   1.449
 1912SOL    HW2 1688   2.542   2.070   1.588
 1914SOL     OW 1689   3.302   2.718   1.398
 1914SOL    HW1 1690   3.245   2.770   1.335
 1914SOL    HW2 1691   3.398   2.730   1.374
 1916SOL     OW 1692   2.475   2.704   1.431
 1916SOL    HW1 1693   2.531   2.785   1.414
 1916SOL    HW2 1694   2.534   2.624   1.434
 1918SOL     OW 1695   2.578   2.427   1.708
 1918SOL    HW1 1696   2.597   2.492   1.782
 1918SOL    HW2 1697   2.638   2.347   1.717
 1919SOL     OW 1698   3.312   3.082   1.633
 1919SOL    HW1 1699   3.303   3.072   1.732
 1919SOL    HW2 1700   3.408   3.075   1.607
 1920SOL     OW 1701   2.252   3.603   1.560
 1920SOL    HW1 1702   2.161   3.644   1.558
 1920SOL    HW2 1703   2.245   3.509   1.592
 1921SOL     OW 1704   3.536   2.745   1.254
 1921SOL    HW1 1705   3.509   2.656   1.217
 1921SOL    HW2 1706   3.537   2.813   1.181
 1923SOL     OW 1707   2.456   2.607   0.652
 1923SOL    HW1 1708   2.506   2.692   0.633
 1923SOL    HW2 1709   2.368   2.609   0.604
 1924SOL     OW 1710   3.639   2.204   1.642
 1924SOL    HW1 1711   3.622   2.235   1.548
 1924SOL    HW2 1712   3.555   2.167   1.680
 1925SOL     OW 1713   3.592   2.796   1.517
 1925SOL    HW1 1714   3.630   2.887   1.532
 1925SOL    HW2 1715   3.584   2.779   1.418
 1928SOL     OW 1716   2.721   2.818   0.861
 1928SOL    HW1 1717   2.775   2.749   0.909
 1928SOL    HW2 1718   2.689   2.887   0.927
 1931SOL     OW 1719   2.083   3.176   1.844
 1931SOL    HW1 1720   2.018   3.103   1.823
 1931SOL    HW2 1721   2.087   3.190   1.942
 1933SOL     OW 1722   2.534   3.253   1.624
 1933SOL    HW1 1723   2.456   3.203   1.662
 1933SOL    HW2 1724   2.531   3.348   1.655
 1934SOL     OW 1725   3.686   2.054   1.227
 1934SOL    HW1 1726   3.682   1.964   1.271
 1934SOL    HW2 1727   3.689   2.043   1.128
 1935SOL     OW 1728   2.290   2.286   0.520
 1935SOL    HW1 1729   2.320   2.214   0.458
 1935SOL    HW2 1730   2.251   2.246   0.603
 1937SOL     OW 1731   2.179   2.409   1.280
 1937SOL    HW1 1732   2.217   2.350   1.352
 1937SOL    HW2 1733   2.219   2.383   1.192
 1939SOL     OW 1734   3.286   2.076   1.112
 1939SOL    HW1 1735   3.338   2.011   1.167
 1939SOL    HW2 1736   3.237   2.139   1.173
 1940SOL     OW 1737   2.863   1.896   1.154
 1940SOL    HW1 1738   2.800   1.824   1.123
 1940SOL    HW2 1739   2.956   1.860   1.154
 1942SOL     OW 1740   2.480   3.429   1.284
 1942SOL    HW1 1741   2.475   3.511   1.341
 1942SOL    HW2 1742   2.569   3.426   1.239
 1948SOL     OW 1743   2.092   2.490   1.975
 1948SOL    HW1 1744   1.999   2.488   2.012
 1948SOL    HW2 1745   2.093   2.451   1.883
 1949SOL     OW 1746   2.087   2.137   2.858
 1949SOL    HW1 1747   2.122   2.120   2.950
 1949SOL    HW2 1748   1.999   2.092   2.846
 1950SOL     OW 1749   1.881   2.230   2.509
 1950SOL    HW1 1750   1.799   2.273   2.548
 1950SOL    HW2 1751   1.853   2.157   2.446
 1951SOL     OW 1752   2.431   3.137   3.027
 1951SOL    HW1 1753   2.338   3.130   2.990
 1951SOL    HW2 1754   2.442   3.226   3.071
 1952SOL     OW 1755   3.417   3.373   2.565
 1952SOL    HW1 1756   3.360   3.357   2.646
 1952SOL    HW2 1757   3.358   3.383   2.485
 1953SOL     OW 1758   2.997   2.565   2.579
 1953SOL    HW1 1759   3.054   2.643   2.554
 1953SOL    HW2 1760   2.937   2.591   2.655
 1954SOL     OW 1761   3.617   2.469   2.093
 1954SOL    HW1 1762   3.605   2.456   1.994
 1954SOL    HW2 1763   3.587   2.388   2.142
 1955SOL     OW 1764   2.630   3.006   2.885
 1955SOL    HW1 1765   2.552   3.023   2.945
 1955SOL    HW2 1766   2.664   3.093   2.849
 1956SOL     OW 1767   2.712   2.660   3.685
 1956SOL    HW1 1768   2.708   2.736   3.750
 1956SOL    HW2 1769   2.734   2.696   3.594
 1957SOL     OW 1770   2.547   2.874   2.527
 1957SOL    HW1 1771   2.616   2.858   2.597
 1957SOL    HW2 1772   2.474   2.931   2.565
 1958SOL     OW 1773   2.548   3.023   3.665
 1958SOL    HW1 1774   2.608   3.102   3.679
 1958SOL    HW2 1775   2.462   3.054   3.624
 1959SOL     OW 1776   2.197   3.297   2.923
 1959SOL    HW1 1777   2.119   3.266   2.870
 1959SOL    HW2 1778   2.255   3.355   2.866
 1961SOL     OW 1779   2.300   2.254   3.361
 1961SOL    HW1 1780   2.382   2.198   3.370
 1961SOL    HW2 1781   2.219   2.196   3.365
 1962SOL     OW 1782   3.465   2.309   2.599
 1962SOL    HW1 1783   3.391   2.355   2.549
 1962SOL    HW2 1784   3.516   2.377   2.652
 1963SOL     OW 1785   2.093   3.575   2.345
 1963SOL    HW1 1786   2.127   3.652   2.399
 1963SOL    HW2 1787   2.137   3.575   2.255
 1964SOL     OW 1788   2.989   3.203   3.552
 1964SOL    HW1 1789   3.036   3.203   3.640
 1964SOL    HW2 1790   2.941   3.116   3.541
 1965SOL     OW 1791   2.092   3.296   2.400
 1965SOL    HW1 1792   2.066   3.392   2.400
 1965SOL    HW2 1793   2.021   3.242   2.445
 1966SOL     OW 1794   2.102   2.953   2.748
 1966SOL    HW1 1795   2.116   2.869   2.800
 1966SOL    HW2 1796   2.047   3.017   2.803
 1967SOL     OW 1797   2.482   3.648   3.301
 1967SOL    HW1 1798   2.390   3.631   3.336
 1967SOL    HW2 1799   2.510   3.740   3.327
 1968SOL     OW 1800   2.468   2.826   1.985
 1968SOL    HW1 1801   2.475   2.910   1.931
 1968SOL    HW2 1802   2.514   2.839   2.073
 1969SOL     OW 1803   3.456   1.976   3.342
 1969SOL    HW1 1804   3.438   2.043   3.270
 1969SOL    HW2 1805   3.453   2.022   3.431
 1970SOL     OW 1806   1.984   2.505   2.425
 1970SOL    HW1 1807   1.939   2.417   2.442
 1970SOL    HW2 1808   1.983   2.559   2.509
 1972SOL     OW 1809   1.889   3.458   1.979
 1972SOL    HW1 1810   1.870   3.362   2.000
 1972SOL    HW2 1811   1.856   3.516   2.054
 1973SOL     OW 1812   3.551   2.784   2.474
 1973SOL    HW1 1813   3.646   2.755   2.482
 1973SOL    HW2 1814   3.543   2.849   2.399
 1974SOL     OW 1815   3.503   2.970   2.294
 1974SOL    HW1 1816   3.589   2.972   2.242
 1974SOL    HW2 1817   3.517   3.017   2.382
 1975SOL     OW 1818   1.975   2.599   3.459
 1975SOL    HW1 1819   2.063   2.586   3.504
 1975SOL    HW2 1820   1.962   2.696   3.437
 1976SOL     OW 1821   2.475   3.227   2.588
 1976SOL    HW1 1822   2.426   3.140   2.597
 1976SOL    HW2 1823   2.452   3.270   2.501
 1977SOL     OW 1824   3.155   3.090   3.285
 1977SOL    HW1 1825   3.192   3.017   3.227
 1977SOL    HW2 1826   3.207   3.095   3.370
 1978SOL     OW 1827   2.671   1.866   2.364
 1978SOL    HW1 1828   2.711   1.957   2.355
 1978SOL    HW2 1829   2.571   1.874   2.370
 1979SOL     OW 1830   2.059   2.838   3.126
 1979SOL    HW1 1831   2.148   2.793   3.112
 1979SOL    HW2 1832   1.986   2.773   3.107
 1980SOL     OW 1833   3.387   2.861   2.052
 1980SOL    HW1 1834   3.324   2.785   2.065
 1980SOL    HW2 1835   3.435   2.879   2.138
 1982SOL     OW 1836   2.179   2.113   3.663
 1982SOL    HW1 1837   2.250   2.184   3.669
 1982SOL    HW2 1838   2.091   2.152   3.691
 1983SOL     OW 1839   3.328   3.279   2.815
 1983SOL    HW1 1840   3.269   3.285   2.895
 1983SOL    HW2 1841   3.313   3.191   2.769
 1985SOL     OW 1842   2.460   2.591   2.132
 1985SOL    HW1 1843   2.484   2.660   2.064
 1985SOL    HW2 1844   2.382   2.624   2.186
 1986SOL     OW 1845   3.143   2.207   2.806
 1986SOL    HW1 1846   3.057   2.157   2.793
 1986SOL    HW2 1847   3.205   2.153   2.862
 1987SOL     OW 1848   3.438   3.524   2.169
 1987SOL    HW1 1849   3.527   3.570   2.172
 1987SOL    HW2 1850   3.417   3.500   2.074
 1988SOL     OW 1851   2.669   2.467   3.327
 1988SOL    HW1 1852   2.622   2.464   3.416
 1988SOL    HW2 1853   2.618   2.412   3.261
 1989SOL     OW 1854   3.256   2.331   3.536
 1989SOL    HW1 1855   3.236   2.374   3.624
 1989SOL    HW2 1856   3.334   2.269   3.545
 1990SOL     OW 1857   2.835   2.752   3.434
 1990SOL    HW1 1858   2.881   2.668   3.405
 1990SOL    HW2 1859   2.779   2.786   3.359
 1991SOL     OW 1860   2.853   2.272   3.104
 1991SOL    HW1 1861   2.776   2.306   3.158
 1991SOL    HW2 1862   2.819   2.221   3.025
 1992SOL     OW 1863   2.903   2.563   2.291
 1992SOL    HW1 1864   2.929   2.559   2.387
 1992SOL    HW2 1865   2.818   2.512   2.277
 1993SOL     OW 1866   1.938   2.673   2.651
 1993SOL    HW1 1867   2.037   2.661   2.660
 1993SOL    HW2 1868   1.914   2.768   2.672
 1995SOL     OW 1869   2.727   2.210   2.057
 1995SOL    HW1 1870   2.786   2.273   2.008
 1995SOL    HW2 1871   2.746   2.116   2.028
 1997SOL     OW 1872   3.224   3.006   2.407
 1997SOL    HW1 1873   3.307   2.977   2.359
 1997SOL    HW2 1874   3.175   3.073   2.351
 1998SOL     OW 1875   2.412   2.058   2.747
 1998SOL    HW1 1876   2.407   2.053   2.847
 1998SOL    HW2 1877   2.414   2.154   2.718
 1999SOL     OW 1878   2.870   3.318   2.339
 1999SOL    HW1 1879   2.824   3.390   2.287
 1999SOL    HW2 1880   2.866   3.338   2.437
 2000SOL     OW 1881   2.213   3.663   2.715
 2000SOL    HW1 1882   2.263   3.577   2.721
 2000SOL    HW2 1883   2.278   3.740   2.712
 2001SOL     OW 1884   3.657   2.928   2.735
 2001SOL    HW1 1885   3.595   2.913   2.659
 2001SOL    HW2 1886   3.605   2.939   2.820
 2003SOL     OW 1887   2.183   2.805   2.104
 2003SOL    HW1 1888   2.265   2.844   2.062
 2003SOL    HW2 1889   2.156   2.723   2.055
 2004SOL     OW 1890   3.320   2.597   2.590
 2004SOL    HW1 1891   3.315   2.532   2.665
 2004SOL    HW2 1892   3.400   2.656   2.603
 2005SOL     OW 1893   2.323   3.128   3.589
 2005SOL    HW1 1894   2.273   3.129   3.503
 2005SOL    HW2 1895   2.260   3.110   3.665
 2006SOL     OW 1896   2.973   3.638   2.099
 2006SOL    HW1 1897   2.913   3.576   2.149
 2006SOL    HW2 1898   3.004   3.594   2.014
 2007SOL     OW 1899   2.064   2.147   3.360
 2007SOL    HW1 1900   1.984   2.207   3.347
 2007SOL    HW2 1901   2.054   2.098   3.446
 2008SOL     OW 1902   3.494   3.239   1.943
 2008SOL    HW1 1903   3.462   3.333   1.933
 2008SOL    HW2 1904   3.418   3.176   1.931
 2009SOL     OW 1905   2.326   3.605   2.185
 2009SOL    HW1 1906   2.359   3.644   2.271
 2009SOL    HW2 1907   2.402   3.598   2.120
 2010SOL     OW 1908   3.262   1.969   2.288
 2010SOL    HW1 1909   3.238   1.932   2.198
 2010SOL    HW2 1910   3.361   1.985   2.292
 2011SOL     OW 1911   2.111   3.647   3.103
 2011SOL    HW1 1912   2.168   3.582   3.153
 2011SOL    HW2 1913   2.095   3.614   3.010
 2012SOL     OW 1914   2.802   3.560   2.766
 2012SOL    HW1 1915   2.882   3.503   2.787
 2012SOL    HW2 1916   2.753   3.520   2.689
 2013SOL     OW 1917   3.409   2.084   3.591
 2013SOL    HW1 1918   3.404   2.121   3.683
 2013SOL    HW2 1919   3.337   2.015   3.579
 2014SOL     OW 1920   2.476   1.984   1.979
 2014SOL    HW1 1921   2.574   1.962   1.986
 2014SOL    HW2 1922   2.445   1.967   1.886
 2015SOL     OW 1923   2.643   2.126   3.611
 2015SOL    HW1 1924   2.710   2.065   3.654
 2015SOL    HW2 1925   2.570   2.145   3.676
 2016SOL     OW 1926   2.750   3.376   3.057
 2016SOL    HW1 1927   2.727   3.351   2.963
 2016SOL    HW2 1928   2.811   3.307   3.096
 2017SOL     OW 1929   3.213   2.452   3.295
 2017SOL    HW1 1930   3.241   2.409   3.380
 2017SOL    HW2 1931   3.238   2.548   3.296
 2018SOL     OW 1932   2.665   3.264   2.786
 2018SOL    HW1 1933   2.755   3.278   2.744
 2018SOL    HW2 1934   2.594   3.266   2.715
 2019SOL     OW 1935   2.784   2.365   2.761
 2019SOL    HW1 1936   2.759   2.356   2.665
 2019SOL    HW2 1937   2.832   2.283   2.792
 2020SOL     OW 1938   3.296   3.050   1.903
 2020SOL    HW1 1939   3.328   2.974   1.960
 2020SOL    HW2 1940   3.204   3.077   1.933
 2021SOL     OW 1941   2.159   1.897   2.033
 2021SOL    HW1 1942   2.208   1.981   2.012
 2021SOL    HW2 1943   2.221   1.832   2.078
 2022SOL     OW 1944   2.797   2.098   2.342
 2022SOL    HW1 1945   2.749   2.139   2.264
 2022SOL    HW2 1946   2.896   2.096   2.323
 2023SOL     OW 1947   2.938   2.545   3.326
 2023SOL    HW1 1948   2.858   2.484   3.329
 2023SOL    HW2 1949   3.019   2.492   3.302
 2024SOL     OW 1950   3.089   3.432   2.655
 2024SOL    HW1 1951   3.110   3.506   2.590
 2024SOL    HW2 1952   3.157   3.432   2.728
 2025SOL     OW 1953   2.321   3.014   2.603
 2025SOL    HW1 1954   2.250   2.987   2.668
 2025SOL    HW2 1955   2.295   2.986   2.510
 2026SOL     OW 1956   3.133   3.659   2.453
 2026SOL    HW1 1957   3.177   3.723   2.389
 2026SOL    HW2 1958   3.083   3.711   2.523
 2027SOL     OW 1959   2.894   2.411   1.878
 2027SOL    HW1 1960   2.853   2.493   1.839
 2027SOL    HW2 1961   2.958   2.437   1.951
 2028SOL     OW 1962   1.940   2.418   3.248
 2028SOL    HW1 1963   2.032   2.417   3.207
 2028SOL    HW2 1964   1.934   2.492   3.315
 2029SOL     OW 1965   2.423   2.084   3.009
 2029SOL    HW1 1966   2.461   2.000   3.046
 2029SOL    HW2 1967   2.335   2.103   3.053
 2030SOL     OW 1968   2.728   2.316   2.504
 2030SOL    HW1 1969   2.696   2.388   2.442
 2030SOL    HW2 1970   2.752   2.235   2.451
 2031SOL     OW 1971   2.879   1.901   2.615
 2031SOL    HW1 1972   2.807   1.906   2.546
 2031SOL    HW2 1973   2.855   1.832   2.684
 2032SOL     OW 1974   3.291   3.035   2.729
 2032SOL    HW1 1975   3.236   2.951   2.722
 2032SOL    HW2 1976   3.317   3.064   2.637
 2033SOL     OW 1977   3.328   2.452   2.854
 2033SOL    HW1 1978   3.298   2.357   2.861
 2033SOL    HW2 1979   3.401   2.468   2.920
 2034SOL     OW 1980   3.719   2.695   2.239
 2034SOL    HW1 1981   3.761   2.631   2.303
 2034SOL    HW2 1982   3.681   2.644   2.161
 2035SOL     OW 1983   2.350   3.247   2.036
 2035SOL    HW1 1984   2.263   3.232   2.083
 2035SOL    HW2 1985   2.333   3.273   1.941
 2036SOL     OW 1986   3.526   3.142   2.519
 2036SOL    HW1 1987   3.625   3.150   2.533
 2036SOL    HW2 1988   3.481   3.226   2.550
 2037SOL     OW 1989   3.252   2.437   1.940
 2037SOL    HW1 1990   3.198   2.416   2.021
 2037SOL    HW2 1991   3.343   2.396   1.949
 2039SOL     OW 1992   2.926   3.209   3.202
 2039SOL    HW1 1993   2.846   3.186   3.257
 2039SOL    HW2 1994   3.009   3.183   3.251
 2041SOL     OW 1995   2.973   3.057   2.962
 2041SOL    HW1 1996   2.933   3.101   3.043
 2041SOL    HW2 1997   2.932   3.094   2.879
 2042SOL     OW 1998   3.500   2.961   2.941
 2042SOL    HW1 1999   3.505   3.042   3.000
 2042SOL    HW2 2000   3.414   2.963   2.890
 2043SOL     OW 2001   2.777   1.951   3.264
 2043SOL    HW1 2002   2.802   1.931   3.169
 2043SOL    HW2 2003   2.849   2.007   3.306
 2044SOL     OW 2004   2.842   2.978   3.581
 2044SOL    HW1 2005   2.743   2.984   3.591
 2044SOL    HW2 2006   2.865   2.898   3.525
 2045SOL     OW 2007   2.567   2.912   2.230
 2045SOL    HW1 2008   2.553   2.919   2.329
 2045SOL    HW2 2009   2.651   2.861   2.212
 2046SOL     OW 2010   2.272   2.675   3.113
 2046SOL    HW1 2011   2.358   2.687   3.163
 2046SOL    HW2 2012   2.230   2.588   3.140
 2047SOL     OW 2013   3.136   2.248   3.124
 2047SOL    HW1 2014   3.157   2.322   3.188
 2047SOL    HW2 2015   3.047   2.265   3.081
 2048SOL     OW 2016   1.926   3.426   3.193
 2048SOL    HW1 2017   1.880   3.508   3.159
 2048SOL    HW2 2018   2.024   3.445   3.202
 2049SOL     OW 2019   2.229   2.962   2.363
 2049SOL    HW1 2020   2.222   3.045   2.307
 2049SOL    HW2 2021   2.233   2.882   2.303
 2050SOL     OW 2022   2.428   2.399   2.727
 2050SOL    HW1 2023   2.440   2.465   2.653
 2050SOL    HW2 2024   2.474   2.433   2.810
 2051SOL     OW 2025   3.114   3.210   2.250
 2051SOL    HW1 2026   3.164   3.287   2.290
 2051SOL    HW2 2027   3.019   3.212   2.282
 2052SOL     OW 2028   3.134   3.307   3.004
 2052SOL    HW1 2029   3.181   3.320   3.091
 2052SOL    HW2 2030   3.068   3.233   3.013
 2053SOL     OW 2031   3.444   2.501   2.334
 2053SOL    HW1 2032   3.413   2.562   2.407
 2053SOL    HW2 2033   3.494   2.553   2.265
 2054SOL     OW 2034   2.216   3.372   3.191
 2054SOL    HW1 2035   2.195   3.328   3.104
 2054SOL    HW2 2036   2.313   3.398   3.194
 2055SOL     OW 2037   2.264   2.613   3.460
 2055SOL    HW1 2038   2.332   2.668   3.413
 2055SOL    HW2 2039   2.304   2.525   3.487
 2057SOL     OW 2040   2.875   1.967   3.632
 2057SOL    HW1 2041   2.881   2.052   3.580
 2057SOL    HW2 2042   2.907   1.891   3.575
 2058SOL     OW 2043   2.366   1.912   3.602
 2058SOL    HW1 2044   2.324   1.855   3.532
 2058SOL    HW2 2045   2.300   1.981   3.634
 2059SOL     OW 2046   2.435   2.732   2.891
 2059SOL    HW1 2047   2.479   2.821   2.882
 2059SOL    HW2 2048   2.372   2.732   2.968
 2060SOL     OW 2049   3.222   2.724   2.907
 2060SOL    HW1 2050   3.147   2.724   2.841
 2060SOL    HW2 2051   3.259   2.632   2.916
 2061SOL     OW 2052   3.071   2.387   2.137
 2061SOL    HW1 2053   3.084   2.303   2.191
 2061SOL    HW2 2054   3.042   2.461   2.197
 2062SOL     OW 2055   2.169   2.075   3.093
 2062SOL    HW1 2056   2.146   2.112   3.183
 2062SOL    HW2 2057   2.139   1.980   3.087
 2063SOL     OW 2058   1.899   3.172   3.144
 2063SOL    HW1 2059   1.952   3.123   3.212
 2063SOL    HW2 2060   1.921   3.270   3.149
 2064SOL     OW 2061   2.594   2.496   2.926
 2064SOL    HW1 2062   2.653   2.470   2.850
 2064SOL    HW2 2063   2.566   2.592   2.915
 2066SOL     OW 2064   2.169   1.925   2.480
 2066SOL    HW1 2065   2.158   2.019   2.513
 2066SOL    HW2 2066   2.164   1.862   2.557
 2067SOL     OW 2067   3.484   2.229   2.236
 2067SOL    HW1 2068   3.486   2.153   2.300
 2067SOL    HW2 2069   3.436   2.306   2.276
 2068SOL     OW 2070   2.885   2.628   2.828
 2068SOL    HW1 2071   2.900   2.649   2.924
 2068SOL    HW2 2072   2.855   2.533   2.819
 2071SOL     OW 2073   2.212   2.760   3.666
 2071SOL    HW1 2074   2.288   2.804   3.714
 2071SOL    HW2 2075   2.247   2.713   3.584
 2072SOL     OW 2076   3.402   2.136   1.987
 2072SOL    HW1 2077   3.341   2.061   2.010
 2072SOL    HW2 2078   3.424   2.188   2.070
 2073SOL     OW 2079   3.165   2.700   1.904
 2073SOL    HW1 2080   3.199   2.607   1.919
 2073SOL    HW2 2081   3.183   2.727   1.809
 2074SOL     OW 2082   2.930   3.195   2.711
 2074SOL    HW1 2083   2.937   3.111   2.656
 2074SOL    HW2 2084   2.992   3.264   2.675
 2075SOL     OW 2085   2.181   2.672   2.811
 2075SOL    HW1 2086   2.274   2.708   2.816
 2075SOL    HW2 2087   2.175   2.587   2.863
 2076SOL     OW 2088   2.201   2.371   2.868
 2076SOL    HW1 2089   2.149   2.288   2.851
 2076SOL    HW2 2090   2.278   2.376   2.804
 2077SOL     OW 2091   3.000   2.242   3.540
 2077SOL    HW1 2092   2.955   2.305   3.604
 2077SOL    HW2 2093   3.093   2.273   3.523
 2078SOL     OW 2094   3.022   2.069   3.339
 2078SOL    HW1 2095   3.022   2.133   3.416
 2078SOL    HW2 2096   3.050   2.117   3.256
 2079SOL     OW 2097   1.870   3.188   2.062
 2079SOL    HW1 2098   1.777   3.209   2.031
 2079SOL    HW2 2099   1.880   3.089   2.075
 2080SOL     OW 2100   1.950   3.663   2.789
 2080SOL    HW1 2101   1.908   3.577   2.762
 2080SOL    HW2 2102   2.044   3.666   2.755
 2081SOL     OW 2103   2.366   3.430   2.772
 2081SOL    HW1 2104   2.432   3.504   2.781
 2081SOL    HW2 2105   2.410   3.351   2.730
 2082SOL     OW 2106   2.864   2.658   3.100
 2082SOL    HW1 2107   2.905   2.626   3.186
 2082SOL    HW2 2108   2.768   2.631   3.097
 2083SOL     OW 2109   1.902   2.406   2.976
 2083SOL    HW1 2110   1.987   2.373   2.935
 2083SOL    HW2 2111   1.915   2.421   3.074
 2084SOL     OW 2112   2.051   2.382   3.584
 2084SOL    HW1 2113   2.110   2.342   3.514
 2084SOL    HW2 2114   1.993   2.453   3.543
 2085SOL     OW 2115   3.231   2.812   3.522
 2085SOL    HW1 2116   3.270   2.901   3.542
 2085SOL    HW2 2117   3.241   2.792   3.425
 2086SOL     OW 2118   2.677   2.434   2.187
 2086SOL    HW1 2119   2.684   2.345   2.141
 2086SOL    HW2 2120   2.583   2.468   2.179
 2087SOL     OW 2121   3.519   2.466   3.068
 2087SOL    HW1 2122   3.481   2.397   3.130
 2087SOL    HW2 2123   3.601   2.430   3.024
 2089SOL     OW 2124   2.533   2.326   3.131
 2089SOL    HW1 2125   2.499   2.237   3.101
 2089SOL    HW2 2126   2.559   2.380   3.051
 2090SOL     OW 2127   2.792   3.540   3.327
 2090SOL    HW1 2128   2.768   3.522   3.232
 2090SOL    HW2 2129   2.822   3.634   3.337
 2091SOL     OW 2130   2.021   2.999   3.328
 2091SOL    HW1 2131   2.043   2.938   3.404
 2091SOL    HW2 2132   2.031   2.950   3.242
 2092SOL     OW 2133   3.209   2.921   3.096
 2092SOL    HW1 2134   3.233   2.858   3.022
 2092SOL    HW2 2135   3.119   2.961   3.078
 2093SOL     OW 2136   3.164   2.717   2.171
 2093SOL    HW1 2137   3.078   2.686   2.213
 2093SOL    HW2 2138   3.160   2.703   2.072
 2095SOL     OW 2139   3.114   3.593   2.990
 2095SOL    HW1 2140   3.198   3.598   2.936
 2095SOL    HW2 2141   3.091   3.497   3.008
 2096SOL     OW 2142   1.945   3.120   2.884
 2096SOL    HW1 2143   1.940   3.119   2.984
 2096SOL    HW2 2144   1.862   3.079   2.846
 2098SOL     OW 2145   3.588   1.997   2.385
 2098SOL    HW1 2146   3.661   1.980   2.318
 2098SOL    HW2 2147   3.557   1.910   2.423
 2099SOL     OW 2148   3.250   3.435   2.339
 2099SOL    HW1 2149   3.317   3.447   2.265
 2099SOL    HW2 2150   3.210   3.524   2.362
 2101SOL     OW 2151   3.142   2.789   2.534
 2101SOL    HW1 2152   3.202   2.708   2.536
 2101SOL    HW2 2153   3.182   2.858   2.474
 2102SOL     OW 2154   2.692   3.135   3.284
 2102SOL    HW1 2155   2.687   3.168   3.379
 2102SOL    HW2 2156   2.606   3.154   3.238
 2103SOL     OW 2157   2.534   3.478   2.016
 2103SOL    HW1 2158   2.543   3.488   1.917
 2103SOL    HW2 2159   2.494   3.389   2.037
 2105SOL     OW 2160   3.703   2.037   2.825
 2105SOL    HW1 2161   3.742   1.952   2.789
 2105SOL    HW2 2162   3.605   2.039   2.806
 2106SOL     OW 2163   3.056   3.474   1.893
 2106SOL    HW1 2164   3.062   3.381   1.930
 2106SOL    HW2 2165   2.997   3.474   1.813
 2107SOL     OW 2166   2.684   2.864   3.234
 2107SOL    HW1 2167   2.724   2.863   3.142
 2107SOL    HW2 2168   2.694   2.956   3.274
 2108SOL     OW 2169   2.778   2.772   2.153
 2108SOL    HW1 2170   2.841   2.810   2.085
 2108SOL    HW2 2171   2.818   2.689   2.192
 2109SOL     OW 2172   3.366   3.469   1.906
 2109SOL    HW1 2173   3.274   3.506   1.913
 2109SOL    HW2 2174   3.404   3.489   1.816
 2110SOL     OW 2175   2.234   3.150   3.352
 2110SOL    HW1 2176   2.221   3.243   3.318
 2110SOL    HW2 2177   2.150   3.098   3.339
 2111SOL     OW 2178   3.476   3.154   3.151
 2111SOL    HW1 2179   3.536   3.157   3.231
 2111SOL    HW2 2180   3.401   3.218   3.164
 2112SOL     OW 2181   2.901   2.960   2.558
 2112SOL    HW1 2182   2.831   2.913   2.612
 2112SOL    HW2 2183   2.960   2.892   2.515
 2113SOL     OW 2184   2.876   2.098   2.833
 2113SOL    HW1 2185   2.868   2.062   2.740
 2113SOL    HW2 2186   2.874   2.022   2.898
 2114SOL     OW 2187   2.452   3.349   2.353
 2114SOL    HW1 2188   2.494   3.291   2.283
 2114SOL    HW2 2189   2.408   3.428   2.309
 2115SOL     OW 2190   3.571   2.247   3.243
 2115SOL    HW1 2191   3.644   2.316   3.247
 2115SOL    HW2 2192   3.599   2.172   3.184
 2116SOL     OW 2193   2.117   3.210   2.152
 2116SOL    HW1 2194   2.021   3.211   2.125
 2116SOL    HW2 2195   2.129   3.263   2.236
 2117SOL     OW 2196   1.967   2.875   3.588
 2117SOL    HW1 2197   1.890   2.842   3.642
 2117SOL    HW2 2198   2.052   2.845   3.630
 2118SOL     OW 2199   2.534   2.065   3.351
 2118SOL    HW1 2200   2.624   2.049   3.311
 2118SOL    HW2 2201   2.542   2.070   3.450
 2119SOL     OW 2202   1.937   2.207   1.895
 2119SOL    HW1 2203   1.845   2.179   1.866
 2119SOL    HW2 2204   1.968   2.284   1.839
 2120SOL     OW 2205   3.302   2.718   3.260
 2120SOL    HW1 2206   3.245   2.770   3.197
 2120SOL    HW2 2207   3.398   2.730   3.236
 2121SOL     OW 2208   1.934   2.028   2.180
 2121SOL    HW1 2209   1.917   2.111   2.126
 2121SOL    HW2 2210   2.024   1.991   2.158
 2122SOL     OW 2211   3.045   3.197   1.981
 2122SOL    HW1 2212   2.946   3.186   1.983
 2122SOL    HW2 2213   3.079   3.212   2.074
 2123SOL     OW 2214   2.475   2.704   3.293
 2123SOL    HW1 2215   2.531   2.785   3.276
 2123SOL    HW2 2216   2.534   2.624   3.296
 2125SOL     OW 2217   2.578   2.427   3.570
 2125SOL    HW1 2218   2.597   2.492   3.644
 2125SOL    HW2 2219   2.638   2.347   3.579
 2127SOL     OW 2220   2.252   3.603   3.422
 2127SOL    HW1 2221   2.161   3.644   3.420
 2127SOL    HW2 2222   2.245   3.509   3.454
 2128SOL     OW 2223   3.536   2.745   3.116
 2128SOL    HW1 2224   3.509   2.656   3.079
 2128SOL    HW2 2225   3.537   2.813   3.043
 2129SOL     OW 2226   3.087   2.187   2.311
 2129SOL    HW1 2227   3.152   2.113   2.300
 2129SOL    HW2 2228   3.107   2.237   2.395
 2130SOL     OW 2229   2.456   2.607   2.514
 2130SOL    HW1 2230   2.506   2.692   2.495
 2130SOL    HW2 2231   2.368   2.609   2.466
 2133SOL     OW 2232   2.721   3.236   1.878
 2133SOL    HW1 2233   2.675   3.251   1.966
 2133SOL    HW2 2234   2.765   3.321   1.848
 2134SOL     OW 2235   2.523   3.652   2.815
 2134SOL    HW1 2236   2.477   3.740   2.802
 2134SOL    HW2 2237   2.622   3.664   2.808
 2135SOL     OW 2238   2.721   2.818   2.723
 2135SOL    HW1 2239   2.775   2.749   2.771
 2135SOL    HW2 2240   2.689   2.887   2.789
 2136SOL     OW 2241   2.945   2.846   1.949
 2136SOL    HW1 2242   2.922   2.899   1.867
 2136SOL    HW2 2243   3.026   2.790   1.930
 2138SOL     OW 2244   2.083   3.176   3.706
 2138SOL    HW1 2245   2.018   3.103   3.685
 2138SOL    HW2 2246   2.087   3.190   3.804
 2139SOL     OW 2247   1.941   3.102   2.515
 2139SOL    HW1 2248   1.940   3.055   2.603
 2139SOL    HW2 2249   2.023   3.074   2.464
 2140SOL     OW 2250   2.534   3.253   3.486
 2140SOL    HW1 2251   2.456   3.203   3.524
 2140SOL    HW2 2252   2.531   3.348   3.517
 2141SOL     OW 2253   3.686   2.054   3.089
 2141SOL    HW1 2254   3.682   1.964   3.133
 2141SOL    HW2 2255   3.689   2.043   2.990
 2143SOL     OW 2256   2.179   2.409   3.142
 2143SOL    HW1 2257   2.217   2.350   3.214
 2143SOL    HW2 2258   2.219   2.383   3.054
 2144SOL     OW 2259   2.674   3.448   2.549
 2144SOL    HW1 2260   2.706   3.458   2.455
 2144SOL    HW2 2261   2.595   3.386   2.551
 2145SOL     OW 2262   3.286   2.076   2.974
 2145SOL    HW1 2263   3.338   2.011   3.029
 2145SOL    HW2 2264   3.237   2.139   3.035
 2146SOL     OW 2265   2.863   1.896   3.016
 2146SOL    HW1 2266   2.800   1.824   2.985
 2146SOL    HW2 2267   2.956   1.860   3.016
 2147SOL     OW 2268   2.632   3.192   2.163
 2147SOL    HW1 2269   2.586   3.105   2.180
 2147SOL    HW2 2270   2.723   3.189   2.204
 2148SOL     OW 2271   2.480   3.429   3.146
 2148SOL    HW1 2272   2.475   3.511   3.203
 2148SOL    HW2 2273   2.569   3.426   3.101
 2149SOL     OW 2274   3.214   1.914   2.030
 2149SOL    HW1 2275   3.249   1.873   1.946
 2149SOL    HW2 2276   3.124   1.876   2.050
 2150SOL     OW 2277   3.162   2.315   2.553
 2150SOL    HW1 2278   3.103   2.395   2.557
 2150SOL    HW2 2279   3.177   2.280   2.646
 2151SOL     OW 2280   3.455   2.083   2.744
 2151SOL    HW1 2281   3.371   2.082   2.798
 2151SOL    HW2 2282   3.457   2.166   2.688
 2152SOL     OW 2283   1.901   2.939   2.162
 2152SOL    HW1 2284   2.000   2.928   2.153
 2152SOL    HW2 2285   1.861   2.853   2.194
 2153SOL     OW 2286   2.737   3.508   2.199
 2153SOL    HW1 2287   2.660   3.473   2.145
 2153SOL    HW2 2288   2.705   3.579   2.261
 2154SOL     OW 2289   2.092   2.490   3.837
 2154SOL    HW1 2290   1.999   2.488   3.874
 2154SOL    HW2 2291   2.093   2.451   3.745
 2161SOL     OW 2292   2.468   2.826   3.847
 2161SOL    HW1 2293   2.475   2.910   3.793
 2161SOL    HW2 2294   2.514   2.839   3.935
 2170SOL     OW 2295   2.460   2.591   3.994
 2170SOL    HW1 2296   2.484   2.660   3.926
 2170SOL    HW2 2297   2.382   2.624   4.048
 2175SOL     OW 2298   2.727   2.210   3.919
 2175SOL    HW1 2299   2.786   2.273   3.870
 2175SOL    HW2 2300   2.746   2.116   3.890
 2187SOL     OW 2301   2.476   1.984   3.841
 2187SOL    HW1 2302   2.574   1.962   3.848
 2187SOL    HW2 2303   2.445   1.967   3.748
 2190SOL     OW 2304   2.159   1.897   3.895
 2190SOL    HW1 2305   2.208   1.981   3.874
 2190SOL    HW2 2306   2.221   1.832   3.940
 2194SOL     OW 2307   2.894   2.411   3.740
 2194SOL    HW1 2308   2.853   2.493   3.701
 2194SOL    HW2 2309   2.958   2.437   3.813
 2213SOL     OW 2310   2.335   2.362   3.915
 2213SOL    HW1 2311   2.396   2.442   3.919
 2213SOL    HW2 2312   2.240   2.393   3.922
 2224SOL     OW 2313   1.937   2.207   3.757
 2224SOL    HW1 2314   1.845   2.179   3.728
 2224SOL    HW2 2315   1.968   2.284   3.701
 2250SOL     OW 2316   2.179   3.975   1.801
 2250SOL    HW1 2317   2.250   4.046   1.807
 2250SOL    HW2 2318   2.091   4.014   1.829
 2283SOL     OW 2319   2.875   3.829   1.770
 2283SOL    HW1 2320   2.881   3.914   1.718
 2283SOL    HW2 2321   2.907   3.753   1.713
 2284SOL     OW 2322   2.366   3.774   1.740
 2284SOL    HW1 2323   2.324   3.717   1.670
 2284SOL    HW2 2324   2.300   3.843   1.772
 2332SOL     OW 2325   2.671   3.728   2.364
 2332SOL    HW1 2326   2.711   3.819   2.355
 2332SOL    HW2 2327   2.571   3.736   2.370
 2341SOL     OW 2328   2.412   3.920   2.747
 2341SOL    HW1 2329   2.407   3.915   2.847
 2341SOL    HW2 2330   2.414   4.016   2.718
 2347SOL     OW 2331   2.476   3.846   1.979
 2347SOL    HW1 2332   2.574   3.824   1.986
 2347SOL    HW2 2333   2.445   3.829   1.886
 2351SOL     OW 2334   2.401   3.788   2.374
 2351SOL    HW1 2335   2.320   3.789   2.432
 2351SOL    HW2 2336   2.404   3.871   2.319
 2352SOL     OW 2337   2.159   3.759   2.033
 2352SOL    HW1 2338   2.208   3.843   2.012
 2352SOL    HW2 2339   2.221   3.694   2.078
 2359SOL     OW 2340   2.879   3.763   2.615
 2359SOL    HW1 2341   2.807   3.768   2.546
 2359SOL    HW2 2342   2.855   3.694   2.684
 2362SOL     OW 2343   2.389   3.980   2.190
 2362SOL    HW1 2344   2.416   3.921   2.115
 2362SOL    HW2 2345   2.389   4.075   2.159
 2372SOL     OW 2346   2.169   3.787   2.480
 2372SOL    HW1 2347   2.158   3.881   2.513
 2372SOL    HW2 2348   2.164   3.724   2.557
 2393SOL     OW 2349   1.934   3.890   2.180
 2393SOL    HW1 2350   1.917   3.973   2.126
 2393SOL    HW2 2351   2.024   3.853   2.158
 2465SOL     OW 2352   3.854   1.821   1.571
 2465SOL    HW1 2353   3.844   1.806   1.670
 2465SOL    HW2 2354   3.768   1.857   1.535
 2509SOL     OW 2355   3.854   1.794   1.851
 2509SOL    HW1 2356   3.813   1.720   1.904
 2509SOL    HW2 2357   3.918   1.845   1.909
 2536SOL     OW 2358   3.955   1.713   2.345
 2536SOL    HW1 2359   3.989   1.790   2.399
 2536SOL    HW2 2360   3.999   1.713   2.255
 2542SOL     OW 2361   3.751   1.596   1.979
 2542SOL    HW1 2362   3.732   1.500   2.000
 2542SOL    HW2 2363   3.718   1.654   2.054
 2582SOL     OW 2364   3.732   1.326   2.062
 2582SOL    HW1 2365   3.639   1.347   2.031
 2582SOL    HW2 2366   3.742   1.227   2.075
 2583SOL     OW 2367   3.812   1.801   2.789
 2583SOL    HW1 2368   3.770   1.715   2.762
 2583SOL    HW2 2369   3.906   1.804   2.755
 2663SOL     OW 2370   3.837   2.599   1.597
 2663SOL    HW1 2371   3.925   2.586   1.642
 2663SOL    HW2 2372   3.824   2.696   1.575
 2684SOL     OW 2373   3.802   2.418   1.386
 2684SOL    HW1 2374   3.894   2.417   1.345
 2684SOL    HW2 2375   3.796   2.492   1.453
 2706SOL     OW 2376   3.913   2.382   1.722
 2706SOL    HW1 2377   3.972   2.342   1.652
 2706SOL    HW2 2378   3.855   2.453   1.681
 2718SOL     OW 2379   3.829   2.875   1.726
 2718SOL    HW1 2380   3.752   2.842   1.780
 2718SOL    HW2 2381   3.914   2.845   1.768
 2732SOL     OW 2382   3.954   2.490   1.975
 2732SOL    HW1 2383   3.861   2.488   2.012
 2732SOL    HW2 2384   3.955   2.451   1.883
 2734SOL     OW 2385   3.743   2.230   2.509
 2734SOL    HW1 2386   3.661   2.273   2.548
 2734SOL    HW2 2387   3.715   2.157   2.446
 2745SOL     OW 2388   3.846   2.505   2.425
 2745SOL    HW1 2389   3.801   2.417   2.442
 2745SOL    HW2 2390   3.845   2.559   2.509
 2753SOL     OW 2391   3.800   2.673   2.651
 2753SOL    HW1 2392   3.899   2.661   2.660
 2753SOL    HW2 2393   3.776   2.768   2.672
 2787SOL     OW 2394   3.732   3.188   2.062
 2787SOL    HW1 2395   3.639   3.209   2.031
 2787SOL    HW2 2396   3.742   3.089   2.075
 2790SOL     OW 2397   3.764   2.406   2.976
 2790SOL    HW1 2398   3.849   2.373   2.935
 2790SOL    HW2 2399   3.777   2.421   3.074
 2799SOL     OW 2400   3.987   2.188   2.582
 2799SOL    HW1 2401   3.908   2.239   2.548
 2799SOL    HW2 2402   3.978   2.173   2.680
 2805SOL     OW 2403   3.799   2.207   1.895
 2805SOL    HW1 2404   3.707   2.179   1.866
 2805SOL    HW2 2405   3.830   2.284   1.839
 2806SOL     OW 2406   3.796   2.028   2.180
 2806SOL    HW1 2407   3.779   2.111   2.126
 2806SOL    HW2 2408   3.886   1.991   2.158
 2812SOL     OW 2409   3.803   3.102   2.515
 2812SOL    HW1 2410   3.802   3.055   2.603
 2812SOL    HW2 2411   3.885   3.074   2.464
 2817SOL     OW 2412   3.763   2.939   2.162
 2817SOL    HW1 2413   3.862   2.928   2.153
 2817SOL    HW2 2414   3.723   2.853   2.194
   4.49113   4.49113   4.49113
