; mobley_5952846_GMX.itp created by acpype (v: 2023.10.27) on Wed May 20 23:48:22 2026

[ atomtypes ]
;name   bond_type     mass     charge   ptype   sigma         epsilon       Amb
 c2       c2          0.00000  0.00000   A     3.31521e-01   4.13379e-01 ; 1.86  0.0988
 cl       cl          0.00000  0.00000   A     3.46595e-01   1.10374e+00 ; 1.95  0.2638

[ moleculetype ]
;name            nrexcl
 mobley_5952846   3

[ atoms ]
;   nr  type  resi  res  atom  cgnr     charge      mass       ; qtot   bond_type
     1   c2     1   MOL    C1    1     0.062800     12.01000 ; qtot 0.063
     2   c2     1   MOL    C2    2     0.062800     12.01000 ; qtot 0.126
     3   cl     1   MOL   CL1    3    -0.031400     35.45000 ; qtot 0.094
     4   cl     1   MOL   CL2    4    -0.031400     35.45000 ; qtot 0.063
     5   cl     1   MOL   CL3    5    -0.031400     35.45000 ; qtot 0.031
     6   cl     1   MOL   CL4    6    -0.031400     35.45000 ; qtot -0.000

[ bonds ]
;   ai     aj funct   r             k
     1      2   1    1.3379e-01    3.6484e+05 ;     C1 - C2    
     1      3   1    1.7415e-01    1.6405e+05 ;     C1 - CL1   
     1      4   1    1.7415e-01    1.6405e+05 ;     C1 - CL2   
     2      5   1    1.7415e-01    1.6405e+05 ;     C2 - CL3   
     2      6   1    1.7415e-01    1.6405e+05 ;     C2 - CL4   

[ pairs ]
;   ai     aj    funct
     3      5      1 ;    CL1 - CL3   
     3      6      1 ;    CL1 - CL4   
     4      5      1 ;    CL2 - CL3   
     4      6      1 ;    CL2 - CL4   

[ angles ]
;   ai     aj     ak    funct   theta         cth
     1      2      5      1    1.2318e+02    5.3622e+02 ;     C1 - C2     - CL3   
     1      2      6      1    1.2318e+02    5.3622e+02 ;     C1 - C2     - CL4   
     2      1      3      1    1.2318e+02    5.3622e+02 ;     C2 - C1     - CL1   
     2      1      4      1    1.2318e+02    5.3622e+02 ;     C2 - C1     - CL2   
     3      1      4      1    1.1438e+02    5.9137e+02 ;    CL1 - C1     - CL2   
     5      2      6      1    1.1438e+02    5.9137e+02 ;    CL3 - C2     - CL4   

[ dihedrals ] ; propers
; for gromacs 4.5 or higher, using funct 9
;    i      j      k      l   func   phase     kd      pn
     3      1      2      5      9   180.00  27.82360   2 ;    CL1-    C1-    C2-   CL3
     3      1      2      6      9   180.00  27.82360   2 ;    CL1-    C1-    C2-   CL4
     4      1      2      5      9   180.00  27.82360   2 ;    CL2-    C1-    C2-   CL3
     4      1      2      6      9   180.00  27.82360   2 ;    CL2-    C1-    C2-   CL4

[ dihedrals ] ; impropers
; treated as propers in GROMACS to use correct AMBER analytical function
;    i      j      k      l   func   phase     kd      pn
     1      5      2      6      4   180.00   4.60240   2 ;     C1-   CL3-    C2-   CL4
     4      1      3      2      4   180.00   4.60240   2 ;    CL2-    C1-   CL1-    C2
