; mobley_5079234_GMX.itp created by acpype (v: 2023.10.27) on Thu May 21 00:07:33 2026

[ atomtypes ]
;name   bond_type     mass     charge   ptype   sigma         epsilon       Amb
 c3       c3          0.00000  0.00000   A     3.39771e-01   4.51035e-01 ; 1.91  0.1078
 oh       oh          0.00000  0.00000   A     3.24287e-01   3.89112e-01 ; 1.82  0.0930
 hc       hc          0.00000  0.00000   A     2.60018e-01   8.70272e-02 ; 1.46  0.0208
 h1       h1          0.00000  0.00000   A     2.42200e-01   8.70272e-02 ; 1.36  0.0208
 ho       ho          0.00000  0.00000   A     5.37925e-02   1.96648e-02 ; 0.30  0.0047

[ moleculetype ]
;name            nrexcl
 mobley_5079234   3

[ atoms ]
;   nr  type  resi  res  atom  cgnr     charge      mass       ; qtot   bond_type
     1   c3     1   MOL    C1    1    -0.093100     12.01000 ; qtot -0.093
     2   c3     1   MOL    C2    2    -0.080400     12.01000 ; qtot -0.173
     3   c3     1   MOL    C3    3    -0.079400     12.01000 ; qtot -0.253
     4   c3     1   MOL    C4    4    -0.078400     12.01000 ; qtot -0.331
     5   c3     1   MOL    C5    5    -0.076400     12.01000 ; qtot -0.408
     6   c3     1   MOL    C6    6    -0.120400     12.01000 ; qtot -0.528
     7   c3     1   MOL    C7    7     0.127400     12.01000 ; qtot -0.401
     8   oh     1   MOL    O1    8    -0.597800     16.00000 ; qtot -0.999
     9   hc     1   MOL    H1    9     0.032700      1.00800 ; qtot -0.966
    10   hc     1   MOL    H2   10     0.032700      1.00800 ; qtot -0.933
    11   hc     1   MOL    H3   11     0.032700      1.00800 ; qtot -0.900
    12   hc     1   MOL    H4   12     0.038700      1.00800 ; qtot -0.862
    13   hc     1   MOL    H5   13     0.038700      1.00800 ; qtot -0.823
    14   hc     1   MOL    H6   14     0.040200      1.00800 ; qtot -0.783
    15   hc     1   MOL    H7   15     0.040200      1.00800 ; qtot -0.743
    16   hc     1   MOL    H8   16     0.040700      1.00800 ; qtot -0.702
    17   hc     1   MOL    H9   17     0.040700      1.00800 ; qtot -0.661
    18   hc     1   MOL   H10   18     0.041200      1.00800 ; qtot -0.620
    19   hc     1   MOL   H11   19     0.041200      1.00800 ; qtot -0.579
    20   hc     1   MOL   H12   20     0.047200      1.00800 ; qtot -0.532
    21   hc     1   MOL   H13   21     0.047200      1.00800 ; qtot -0.484
    22   h1     1   MOL   H14   22     0.044200      1.00800 ; qtot -0.440
    23   h1     1   MOL   H15   23     0.044200      1.00800 ; qtot -0.396
    24   ho     1   MOL   H16   24     0.396000      1.00800 ; qtot -0.000

[ bonds ]
;   ai     aj funct   r             k
     1      2   1    1.5354e-01    1.9154e+05 ;     C1 - C2    
     1      9   1    1.0962e-01    2.8891e+05 ;     C1 - H1    
     1     10   1    1.0962e-01    2.8891e+05 ;     C1 - H2    
     1     11   1    1.0962e-01    2.8891e+05 ;     C1 - H3    
     2      3   1    1.5354e-01    1.9154e+05 ;     C2 - C3    
     2     12   1    1.0962e-01    2.8891e+05 ;     C2 - H4    
     2     13   1    1.0962e-01    2.8891e+05 ;     C2 - H5    
     3      4   1    1.5354e-01    1.9154e+05 ;     C3 - C4    
     3     14   1    1.0962e-01    2.8891e+05 ;     C3 - H6    
     3     15   1    1.0962e-01    2.8891e+05 ;     C3 - H7    
     4      5   1    1.5354e-01    1.9154e+05 ;     C4 - C5    
     4     16   1    1.0962e-01    2.8891e+05 ;     C4 - H8    
     4     17   1    1.0962e-01    2.8891e+05 ;     C4 - H9    
     5      6   1    1.5354e-01    1.9154e+05 ;     C5 - C6    
     5     18   1    1.0962e-01    2.8891e+05 ;     C5 - H10   
     5     19   1    1.0962e-01    2.8891e+05 ;     C5 - H11   
     6      7   1    1.5354e-01    1.9154e+05 ;     C6 - C7    
     6     20   1    1.0962e-01    2.8891e+05 ;     C6 - H12   
     6     21   1    1.0962e-01    2.8891e+05 ;     C6 - H13   
     7      8   1    1.4242e-01    2.3861e+05 ;     C7 - O1    
     7     22   1    1.0969e-01    2.8804e+05 ;     C7 - H14   
     7     23   1    1.0969e-01    2.8804e+05 ;     C7 - H15   
     8     24   1    9.7250e-02    4.4811e+05 ;     O1 - H16   

[ pairs ]
;   ai     aj    funct
     1      4      1 ;     C1 - C4    
     1     14      1 ;     C1 - H6    
     1     15      1 ;     C1 - H7    
     2      5      1 ;     C2 - C5    
     2     16      1 ;     C2 - H8    
     2     17      1 ;     C2 - H9    
     3      6      1 ;     C3 - C6    
     3     18      1 ;     C3 - H10   
     3     19      1 ;     C3 - H11   
     4      7      1 ;     C4 - C7    
     4     12      1 ;     C4 - H4    
     4     13      1 ;     C4 - H5    
     4     20      1 ;     C4 - H12   
     4     21      1 ;     C4 - H13   
     5      8      1 ;     C5 - O1    
     5     14      1 ;     C5 - H6    
     5     15      1 ;     C5 - H7    
     5     22      1 ;     C5 - H14   
     5     23      1 ;     C5 - H15   
     6     16      1 ;     C6 - H8    
     6     17      1 ;     C6 - H9    
     6     24      1 ;     C6 - H16   
     7     18      1 ;     C7 - H10   
     7     19      1 ;     C7 - H11   
     8     20      1 ;     O1 - H12   
     8     21      1 ;     O1 - H13   
     9      3      1 ;     H1 - C3    
     9     12      1 ;     H1 - H4    
     9     13      1 ;     H1 - H5    
    10      3      1 ;     H2 - C3    
    10     12      1 ;     H2 - H4    
    10     13      1 ;     H2 - H5    
    11      3      1 ;     H3 - C3    
    11     12      1 ;     H3 - H4    
    11     13      1 ;     H3 - H5    
    12     14      1 ;     H4 - H6    
    12     15      1 ;     H4 - H7    
    13     14      1 ;     H5 - H6    
    13     15      1 ;     H5 - H7    
    14     16      1 ;     H6 - H8    
    14     17      1 ;     H6 - H9    
    15     16      1 ;     H7 - H8    
    15     17      1 ;     H7 - H9    
    16     18      1 ;     H8 - H10   
    16     19      1 ;     H8 - H11   
    17     18      1 ;     H9 - H10   
    17     19      1 ;     H9 - H11   
    18     20      1 ;    H10 - H12   
    18     21      1 ;    H10 - H13   
    19     20      1 ;    H11 - H12   
    19     21      1 ;    H11 - H13   
    20     22      1 ;    H12 - H14   
    20     23      1 ;    H12 - H15   
    21     22      1 ;    H13 - H14   
    21     23      1 ;    H13 - H15   
    22     24      1 ;    H14 - H16   
    23     24      1 ;    H15 - H16   

[ angles ]
;   ai     aj     ak    funct   theta         cth
     1      2      3      1    1.1263e+02    5.0099e+02 ;     C1 - C2     - C3    
     1      2     12      1    1.0968e+02    3.6208e+02 ;     C1 - C2     - H4    
     1      2     13      1    1.0968e+02    3.6208e+02 ;     C1 - C2     - H5    
     2      1      9      1    1.0968e+02    3.6208e+02 ;     C2 - C1     - H1    
     2      1     10      1    1.0968e+02    3.6208e+02 ;     C2 - C1     - H2    
     2      1     11      1    1.0968e+02    3.6208e+02 ;     C2 - C1     - H3    
     2      3      4      1    1.1263e+02    5.0099e+02 ;     C2 - C3     - C4    
     2      3     14      1    1.0968e+02    3.6208e+02 ;     C2 - C3     - H6    
     2      3     15      1    1.0968e+02    3.6208e+02 ;     C2 - C3     - H7    
     3      2     12      1    1.0968e+02    3.6208e+02 ;     C3 - C2     - H4    
     3      2     13      1    1.0968e+02    3.6208e+02 ;     C3 - C2     - H5    
     3      4      5      1    1.1263e+02    5.0099e+02 ;     C3 - C4     - C5    
     3      4     16      1    1.0968e+02    3.6208e+02 ;     C3 - C4     - H8    
     3      4     17      1    1.0968e+02    3.6208e+02 ;     C3 - C4     - H9    
     4      3     14      1    1.0968e+02    3.6208e+02 ;     C4 - C3     - H6    
     4      3     15      1    1.0968e+02    3.6208e+02 ;     C4 - C3     - H7    
     4      5      6      1    1.1263e+02    5.0099e+02 ;     C4 - C5     - C6    
     4      5     18      1    1.0968e+02    3.6208e+02 ;     C4 - C5     - H10   
     4      5     19      1    1.0968e+02    3.6208e+02 ;     C4 - C5     - H11   
     5      4     16      1    1.0968e+02    3.6208e+02 ;     C5 - C4     - H8    
     5      4     17      1    1.0968e+02    3.6208e+02 ;     C5 - C4     - H9    
     5      6      7      1    1.1263e+02    5.0099e+02 ;     C5 - C6     - C7    
     5      6     20      1    1.0968e+02    3.6208e+02 ;     C5 - C6     - H12   
     5      6     21      1    1.0968e+02    3.6208e+02 ;     C5 - C6     - H13   
     6      5     18      1    1.0968e+02    3.6208e+02 ;     C6 - C5     - H10   
     6      5     19      1    1.0968e+02    3.6208e+02 ;     C6 - C5     - H11   
     6      7      8      1    1.0966e+02    6.4258e+02 ;     C6 - C7     - O1    
     6      7     22      1    1.0959e+02    3.6217e+02 ;     C6 - C7     - H14   
     6      7     23      1    1.0959e+02    3.6217e+02 ;     C6 - C7     - H15   
     7      6     20      1    1.0968e+02    3.6208e+02 ;     C7 - C6     - H12   
     7      6     21      1    1.0968e+02    3.6208e+02 ;     C7 - C6     - H13   
     7      8     24      1    1.0739e+02    5.4501e+02 ;     C7 - O1     - H16   
     8      7     22      1    1.1038e+02    4.7103e+02 ;     O1 - C7     - H14   
     8      7     23      1    1.1038e+02    4.7103e+02 ;     O1 - C7     - H15   
     9      1     10      1    1.0773e+02    2.9957e+02 ;     H1 - C1     - H2    
     9      1     11      1    1.0773e+02    2.9957e+02 ;     H1 - C1     - H3    
    10      1     11      1    1.0773e+02    2.9957e+02 ;     H2 - C1     - H3    
    12      2     13      1    1.0773e+02    2.9957e+02 ;     H4 - C2     - H5    
    14      3     15      1    1.0773e+02    2.9957e+02 ;     H6 - C3     - H7    
    16      4     17      1    1.0773e+02    2.9957e+02 ;     H8 - C4     - H9    
    18      5     19      1    1.0773e+02    2.9957e+02 ;    H10 - C5     - H11   
    20      6     21      1    1.0773e+02    2.9957e+02 ;    H12 - C6     - H13   
    22      7     23      1    1.0855e+02    2.9824e+02 ;    H14 - C7     - H15   

[ dihedrals ] ; propers
; for gromacs 4.5 or higher, using funct 9
;    i      j      k      l   func   phase     kd      pn
     1      2      3      4      9     0.00   2.17568   3 ;     C1-    C2-    C3-    C4
     1      2      3     14      9     0.00   0.54392   3 ;     C1-    C2-    C3-    H6
     1      2      3     15      9     0.00   0.54392   3 ;     C1-    C2-    C3-    H7
     2      3      4      5      9     0.00   2.17568   3 ;     C2-    C3-    C4-    C5
     2      3      4     16      9     0.00   0.54392   3 ;     C2-    C3-    C4-    H8
     2      3      4     17      9     0.00   0.54392   3 ;     C2-    C3-    C4-    H9
     3      4      5      6      9     0.00   2.17568   3 ;     C3-    C4-    C5-    C6
     3      4      5     18      9     0.00   0.54392   3 ;     C3-    C4-    C5-   H10
     3      4      5     19      9     0.00   0.54392   3 ;     C3-    C4-    C5-   H11
     4      3      2     12      9     0.00   0.54392   3 ;     C4-    C3-    C2-    H4
     4      3      2     13      9     0.00   0.54392   3 ;     C4-    C3-    C2-    H5
     4      5      6      7      9     0.00   2.17568   3 ;     C4-    C5-    C6-    C7
     4      5      6     20      9     0.00   0.54392   3 ;     C4-    C5-    C6-   H12
     4      5      6     21      9     0.00   0.54392   3 ;     C4-    C5-    C6-   H13
     5      4      3     14      9     0.00   0.54392   3 ;     C5-    C4-    C3-    H6
     5      4      3     15      9     0.00   0.54392   3 ;     C5-    C4-    C3-    H7
     5      6      7      8      9     0.00   0.75312   3 ;     C5-    C6-    C7-    O1
     5      6      7     22      9     0.00   0.65084   3 ;     C5-    C6-    C7-   H14
     5      6      7     23      9     0.00   0.65084   3 ;     C5-    C6-    C7-   H15
     6      5      4     16      9     0.00   0.54392   3 ;     C6-    C5-    C4-    H8
     6      5      4     17      9     0.00   0.54392   3 ;     C6-    C5-    C4-    H9
     6      7      8     24      9     0.00   0.25104   3 ;     C6-    C7-    O1-   H16
     7      6      5     18      9     0.00   0.54392   3 ;     C7-    C6-    C5-   H10
     7      6      5     19      9     0.00   0.54392   3 ;     C7-    C6-    C5-   H11
     8      7      6     20      9     0.00   0.37656   3 ;     O1-    C7-    C6-   H12
     8      7      6     21      9     0.00   0.37656   3 ;     O1-    C7-    C6-   H13
     9      1      2      3      9     0.00   0.54392   3 ;     H1-    C1-    C2-    C3
     9      1      2     12      9     0.00   0.50208   3 ;     H1-    C1-    C2-    H4
     9      1      2     13      9     0.00   0.50208   3 ;     H1-    C1-    C2-    H5
    10      1      2      3      9     0.00   0.54392   3 ;     H2-    C1-    C2-    C3
    10      1      2     12      9     0.00   0.50208   3 ;     H2-    C1-    C2-    H4
    10      1      2     13      9     0.00   0.50208   3 ;     H2-    C1-    C2-    H5
    11      1      2      3      9     0.00   0.54392   3 ;     H3-    C1-    C2-    C3
    11      1      2     12      9     0.00   0.50208   3 ;     H3-    C1-    C2-    H4
    11      1      2     13      9     0.00   0.50208   3 ;     H3-    C1-    C2-    H5
    12      2      3     14      9     0.00   0.50208   3 ;     H4-    C2-    C3-    H6
    12      2      3     15      9     0.00   0.50208   3 ;     H4-    C2-    C3-    H7
    13      2      3     14      9     0.00   0.50208   3 ;     H5-    C2-    C3-    H6
    13      2      3     15      9     0.00   0.50208   3 ;     H5-    C2-    C3-    H7
    14      3      4     16      9     0.00   0.50208   3 ;     H6-    C3-    C4-    H8
    14      3      4     17      9     0.00   0.50208   3 ;     H6-    C3-    C4-    H9
    15      3      4     16      9     0.00   0.50208   3 ;     H7-    C3-    C4-    H8
    15      3      4     17      9     0.00   0.50208   3 ;     H7-    C3-    C4-    H9
    16      4      5     18      9     0.00   0.50208   3 ;     H8-    C4-    C5-   H10
    16      4      5     19      9     0.00   0.50208   3 ;     H8-    C4-    C5-   H11
    17      4      5     18      9     0.00   0.50208   3 ;     H9-    C4-    C5-   H10
    17      4      5     19      9     0.00   0.50208   3 ;     H9-    C4-    C5-   H11
    18      5      6     20      9     0.00   0.50208   3 ;    H10-    C5-    C6-   H12
    18      5      6     21      9     0.00   0.50208   3 ;    H10-    C5-    C6-   H13
    19      5      6     20      9     0.00   0.50208   3 ;    H11-    C5-    C6-   H12
    19      5      6     21      9     0.00   0.50208   3 ;    H11-    C5-    C6-   H13
    20      6      7     22      9     0.00   0.65084   3 ;    H12-    C6-    C7-   H14
    20      6      7     23      9     0.00   0.65084   3 ;    H12-    C6-    C7-   H15
    21      6      7     22      9     0.00   0.65084   3 ;    H13-    C6-    C7-   H14
    21      6      7     23      9     0.00   0.65084   3 ;    H13-    C6-    C7-   H15
    22      7      8     24      9     0.00   0.51463   3 ;    H14-    C7-    O1-   H16
    23      7      8     24      9     0.00   0.51463   3 ;    H15-    C7-    O1-   H16
