; mobley_4218209_GMX.top created by acpype (v: 2023.10.27) on Tue May 19 12:45:45 2026

[ defaults ]
; nbfunc        comb-rule       gen-pairs       fudgeLJ fudgeQQ
1               2               yes             0.5     0.8333333333

; Include mobley_4218209_GMX.itp topology
#include "mobley_4218209_GMX.itp"

; Ligand position restraints
#ifdef POSRES_LIG
#include "posre_mobley_4218209.itp"
#endif


#include "/home/carla/github/Solvation-openMM/DADES/common/SOL.TIP3P.itp"

[ system ]
mobley_4218209 in water

[ molecules ]
; Compound        nmols
 mobley_4218209   1     
SOL 791
