mobley_628951_GMX.gro created by acpype (v: 2023.10.27) on Thu May 21 00:09:45 2026
 2416
    1MOL     C1    1   2.471   2.465   2.109
    1MOL     C2    2   2.449   2.455   2.812
    1MOL     C3    3   2.363   2.523   2.176
    1MOL     C4    4   2.574   2.406   2.181
    1MOL     C5    5   2.393   2.350   2.739
    1MOL     C6    6   2.509   2.562   2.746
    1MOL     C7    7   2.462   2.461   2.388
    1MOL     C8    8   2.457   2.459   2.533
    1MOL     C9    9   2.358   2.521   2.316
    1MOL    C10   10   2.570   2.404   2.320
    1MOL    C11   11   2.397   2.352   2.599
    1MOL    C12   12   2.514   2.564   2.606
    1MOL    CL1   13   2.222   2.594   2.393
    1MOL    CL2   14   2.702   2.329   2.404
    1MOL    CL3   15   2.326   2.219   2.515
    1MOL    CL4   16   2.590   2.699   2.530
    1MOL     H1   17   2.474   2.467   2.000
    1MOL     H2   18   2.446   2.453   2.920
    1MOL     H3   19   2.283   2.569   2.118
    1MOL     H4   20   2.657   2.362   2.127
    1MOL     H5   21   2.346   2.268   2.792
    1MOL     H6   22   2.553   2.642   2.804
   14SOL     OW   23   1.460   1.505   1.339
   14SOL    HW1   24   1.484   1.599   1.365
   14SOL    HW2   25   1.444   1.451   1.421
   35SOL     OW   26   1.187   1.792   1.616
   35SOL    HW1   27   1.211   1.852   1.540
   35SOL    HW2   28   1.194   1.697   1.586
   95SOL     OW   29   1.754   1.223   1.588
   95SOL    HW1   30   1.845   1.184   1.575
   95SOL    HW2   31   1.762   1.319   1.612
   97SOL     OW   32   1.592   1.629   1.625
   97SOL    HW1   33   1.619   1.663   1.535
   97SOL    HW2   34   1.671   1.591   1.671
  122SOL     OW   35   1.728   0.935   1.854
  122SOL    HW1   36   1.682   0.928   1.765
  122SOL    HW2   37   1.666   0.979   1.920
  127SOL     OW   38   1.859   1.518   1.605
  127SOL    HW1   39   1.873   1.545   1.510
  127SOL    HW2   40   1.942   1.540   1.658
  152SOL     OW   41   1.759   1.747   1.154
  152SOL    HW1   42   1.820   1.777   1.081
  152SOL    HW2   43   1.721   1.658   1.132
  163SOL     OW   44   1.650   1.720   1.394
  163SOL    HW1   45   1.703   1.730   1.310
  163SOL    HW2   46   1.623   1.810   1.428
  219SOL     OW   47   1.555   1.511   2.565
  219SOL    HW1   48   1.498   1.495   2.646
  219SOL    HW2   49   1.496   1.521   2.485
  227SOL     OW   50   1.460   1.505   3.201
  227SOL    HW1   51   1.484   1.599   3.227
  227SOL    HW2   52   1.444   1.451   3.283
  238SOL     OW   53   1.842   1.767   2.221
  238SOL    HW1   54   1.896   1.738   2.301
  238SOL    HW2   55   1.872   1.857   2.192
  240SOL     OW   56   1.689   0.922   2.474
  240SOL    HW1   57   1.784   0.893   2.482
  240SOL    HW2   58   1.681   0.987   2.399
  241SOL     OW   59   1.641   1.108   2.294
  241SOL    HW1   60   1.727   1.110   2.242
  241SOL    HW2   61   1.655   1.155   2.382
  247SOL     OW   62   1.525   0.999   2.052
  247SOL    HW1   63   1.462   0.923   2.065
  247SOL    HW2   64   1.573   1.017   2.138
  248SOL     OW   65   1.187   1.792   3.478
  248SOL    HW1   66   1.211   1.852   3.402
  248SOL    HW2   67   1.194   1.697   3.448
  250SOL     OW   68   1.466   1.417   2.815
  250SOL    HW1   69   1.407   1.423   2.895
  250SOL    HW2   70   1.451   1.329   2.769
  251SOL     OW   71   1.667   1.714   2.434
  251SOL    HW1   72   1.626   1.691   2.346
  251SOL    HW2   73   1.649   1.640   2.499
  254SOL     OW   74   1.576   1.662   2.169
  254SOL    HW1   75   1.665   1.708   2.172
  254SOL    HW2   76   1.555   1.638   2.074
  264SOL     OW   77   1.362   1.144   2.407
  264SOL    HW1   78   1.445   1.115   2.359
  264SOL    HW2   79   1.313   1.211   2.351
  266SOL     OW   80   1.008   1.456   2.339
  266SOL    HW1   81   0.962   1.528   2.287
  266SOL    HW2   82   1.004   1.476   2.437
  268SOL     OW   83   1.795   1.066   2.735
  268SOL    HW1   84   1.733   1.051   2.659
  268SOL    HW2   85   1.743   1.077   2.820
  269SOL     OW   86   1.227   1.550   3.368
  269SOL    HW1   87   1.233   1.473   3.432
  269SOL    HW2   88   1.175   1.524   3.288
  273SOL     OW   89   1.111   1.776   2.099
  273SOL    HW1   90   1.051   1.714   2.149
  273SOL    HW2   91   1.142   1.732   2.014
  275SOL     OW   92   1.632   1.377   1.943
  275SOL    HW1   93   1.600   1.471   1.933
  275SOL    HW2   94   1.556   1.314   1.931
  279SOL     OW   95   0.940   1.698   2.766
  279SOL    HW1   96   1.020   1.641   2.787
  279SOL    HW2   97   0.891   1.658   2.689
  289SOL     OW   98   1.434   1.188   1.903
  289SOL    HW1   99   1.466   1.112   1.960
  289SOL    HW2  100   1.342   1.215   1.933
  293SOL     OW  101   1.227   1.570   2.655
  293SOL    HW1  102   1.248   1.644   2.590
  293SOL    HW2  103   1.295   1.570   2.728
  295SOL     OW  104   1.271   1.797   2.453
  295SOL    HW1  105   1.315   1.861   2.389
  295SOL    HW2  106   1.221   1.849   2.523
  301SOL     OW  107   1.429   1.173   2.729
  301SOL    HW1  108   1.374   1.089   2.722
  301SOL    HW2  109   1.455   1.202   2.637
  303SOL     OW  110   1.857   0.833   2.239
  303SOL    HW1  111   1.899   0.769   2.303
  303SOL    HW2  112   1.819   0.782   2.161
  305SOL     OW  113   1.664   1.280   2.519
  305SOL    HW1  114   1.763   1.288   2.533
  305SOL    HW2  115   1.619   1.364   2.550
  308SOL     OW  116   1.754   1.223   3.450
  308SOL    HW1  117   1.845   1.184   3.437
  308SOL    HW2  118   1.762   1.319   3.474
  310SOL     OW  119   1.592   1.629   3.487
  310SOL    HW1  120   1.619   1.663   3.397
  310SOL    HW2  121   1.671   1.591   3.533
  312SOL     OW  122   1.638   1.099   2.941
  312SOL    HW1  123   1.643   1.180   3.000
  312SOL    HW2  124   1.552   1.101   2.890
  321SOL     OW  125   1.252   1.348   2.250
  321SOL    HW1  126   1.302   1.425   2.290
  321SOL    HW2  127   1.157   1.350   2.282
  322SOL     OW  128   1.272   1.445   3.004
  322SOL    HW1  129   1.319   1.458   3.091
  322SOL    HW2  130   1.206   1.371   3.013
  340SOL     OW  131   1.859   1.518   3.467
  340SOL    HW1  132   1.873   1.545   3.372
  340SOL    HW2  133   1.942   1.540   3.520
  365SOL     OW  134   1.759   1.747   3.016
  365SOL    HW1  135   1.820   1.777   2.943
  365SOL    HW2  136   1.721   1.658   2.994
  366SOL     OW  137   1.252   1.731   2.990
  366SOL    HW1  138   1.336   1.736   2.936
  366SOL    HW2  139   1.229   1.635   3.008
  370SOL     OW  140   1.388   1.573   2.339
  370SOL    HW1  141   1.455   1.585   2.265
  370SOL    HW2  142   1.348   1.662   2.362
  375SOL     OW  143   1.650   1.720   3.256
  375SOL    HW1  144   1.703   1.730   3.172
  375SOL    HW2  145   1.623   1.810   3.290
  378SOL     OW  146   1.194   1.612   1.893
  378SOL    HW1  147   1.200   1.519   1.930
  378SOL    HW2  148   1.135   1.612   1.813
  381SOL     OW  149   1.504   1.607   1.906
  381SOL    HW1  150   1.412   1.644   1.913
  381SOL    HW2  151   1.542   1.627   1.816
  383SOL     OW  152   1.614   1.292   3.151
  383SOL    HW1  153   1.674   1.295   3.231
  383SOL    HW2  154   1.539   1.356   3.164
  394SOL     OW  155   1.183   1.335   1.981
  394SOL    HW1  156   1.084   1.324   1.983
  394SOL    HW2  157   1.217   1.350   2.074
  396SOL     OW  158   1.493   1.767   2.821
  396SOL    HW1  159   1.526   1.831   2.752
  396SOL    HW2  160   1.559   1.761   2.896
  409SOL     OW  161   1.861   1.569   2.713
  409SOL    HW1  162   1.790   1.557   2.643
  409SOL    HW2  163   1.862   1.490   2.773
  415SOL     OW  164   1.705   1.487   2.966
  415SOL    HW1  165   1.612   1.462   2.939
  415SOL    HW2  166   1.731   1.437   3.048
  568SOL     OW  167   0.850   2.660   1.823
  568SOL    HW1  168   0.846   2.736   1.888
  568SOL    HW2  169   0.872   2.696   1.732
  572SOL     OW  170   1.460   3.367   1.339
  572SOL    HW1  171   1.484   3.461   1.365
  572SOL    HW2  172   1.444   3.313   1.421
  576SOL     OW  173   1.127   3.203   1.690
  576SOL    HW1  174   1.174   3.203   1.778
  576SOL    HW2  175   1.079   3.116   1.679
  581SOL     OW  176   1.594   1.976   1.480
  581SOL    HW1  177   1.576   2.043   1.408
  581SOL    HW2  178   1.591   2.022   1.569
  589SOL     OW  179   1.293   3.090   1.423
  589SOL    HW1  180   1.330   3.017   1.365
  589SOL    HW2  181   1.345   3.095   1.508
  601SOL     OW  182   1.394   2.331   1.674
  601SOL    HW1  183   1.374   2.374   1.762
  601SOL    HW2  184   1.472   2.269   1.683
  602SOL     OW  185   0.973   2.752   1.572
  602SOL    HW1  186   1.019   2.668   1.543
  602SOL    HW2  187   0.917   2.786   1.497
  608SOL     OW  188   1.719   2.447   1.831
  608SOL    HW1  189   1.693   2.536   1.795
  608SOL    HW2  190   1.717   2.379   1.758
  613SOL     OW  191   1.795   2.928   0.873
  613SOL    HW1  192   1.733   2.913   0.797
  613SOL    HW2  193   1.743   2.939   0.958
  626SOL     OW  194   1.547   2.084   1.729
  626SOL    HW1  195   1.542   2.121   1.821
  626SOL    HW2  196   1.475   2.015   1.717
  630SOL     OW  197   1.351   2.452   1.433
  630SOL    HW1  198   1.379   2.409   1.518
  630SOL    HW2  199   1.376   2.548   1.434
  637SOL     OW  200   1.076   2.545   1.464
  637SOL    HW1  201   0.996   2.484   1.467
  637SOL    HW2  202   1.157   2.492   1.440
  647SOL     OW  203   1.466   2.452   0.992
  647SOL    HW1  204   1.436   2.357   0.999
  647SOL    HW2  205   1.539   2.468   1.058
  653SOL     OW  206   1.754   3.085   1.588
  653SOL    HW1  207   1.845   3.046   1.575
  653SOL    HW2  208   1.762   3.181   1.612
  655SOL     OW  209   1.592   3.491   1.625
  655SOL    HW1  210   1.619   3.525   1.535
  655SOL    HW2  211   1.671   3.453   1.671
  657SOL     OW  212   1.638   2.961   1.079
  657SOL    HW1  213   1.643   3.042   1.138
  657SOL    HW2  214   1.552   2.963   1.028
  659SOL     OW  215   0.980   2.978   1.719
  659SOL    HW1  216   0.881   2.984   1.729
  659SOL    HW2  217   1.003   2.898   1.663
  662SOL     OW  218   1.274   2.248   1.262
  662SOL    HW1  219   1.295   2.322   1.326
  662SOL    HW2  220   1.185   2.265   1.219
  671SOL     OW  221   1.587   2.641   1.670
  671SOL    HW1  222   1.495   2.679   1.665
  671SOL    HW2  223   1.647   2.688   1.605
  672SOL     OW  224   1.013   1.967   1.770
  672SOL    HW1  225   1.019   2.052   1.718
  672SOL    HW2  226   1.045   1.891   1.713
  680SOL     OW  227   1.728   2.797   1.854
  680SOL    HW1  228   1.682   2.790   1.765
  680SOL    HW2  229   1.666   2.841   1.920
  685SOL     OW  230   1.859   3.380   1.605
  685SOL    HW1  231   1.873   3.407   1.510
  685SOL    HW2  232   1.942   3.402   1.658
  692SOL     OW  233   1.138   2.242   1.678
  692SOL    HW1  234   1.093   2.305   1.742
  692SOL    HW2  235   1.231   2.273   1.661
  693SOL     OW  236   1.160   2.069   1.477
  693SOL    HW1  237   1.160   2.133   1.554
  693SOL    HW2  238   1.188   2.117   1.394
  700SOL     OW  239   1.369   2.812   1.660
  700SOL    HW1  240   1.408   2.901   1.680
  700SOL    HW2  241   1.379   2.792   1.563
  702SOL     OW  242   1.657   2.466   1.206
  702SOL    HW1  243   1.619   2.397   1.268
  702SOL    HW2  244   1.739   2.430   1.162
  708SOL     OW  245   1.347   2.921   1.234
  708SOL    HW1  246   1.371   2.858   1.160
  708SOL    HW2  247   1.257   2.961   1.216
  721SOL     OW  248   1.650   3.582   1.394
  721SOL    HW1  249   1.703   3.592   1.310
  721SOL    HW2  250   1.623   3.672   1.428
  722SOL     OW  251   1.841   2.037   0.963
  722SOL    HW1  252   1.880   1.952   0.927
  722SOL    HW2  253   1.743   2.039   0.944
  729SOL     OW  254   1.614   3.154   1.289
  729SOL    HW1  255   1.674   3.157   1.369
  729SOL    HW2  256   1.539   3.218   1.302
  733SOL     OW  257   1.709   2.247   1.381
  733SOL    HW1  258   1.782   2.316   1.385
  733SOL    HW2  259   1.737   2.172   1.322
  738SOL     OW  260   1.440   2.718   1.398
  738SOL    HW1  261   1.383   2.770   1.335
  738SOL    HW2  262   1.536   2.730   1.374
  744SOL     OW  263   1.450   3.082   1.633
  744SOL    HW1  264   1.441   3.072   1.732
  744SOL    HW2  265   1.546   3.075   1.607
  746SOL     OW  266   1.674   2.745   1.254
  746SOL    HW1  267   1.647   2.656   1.217
  746SOL    HW2  268   1.675   2.813   1.181
  749SOL     OW  269   1.777   2.204   1.642
  749SOL    HW1  270   1.760   2.235   1.548
  749SOL    HW2  271   1.693   2.167   1.680
  750SOL     OW  272   1.730   2.796   1.517
  750SOL    HW1  273   1.768   2.887   1.532
  750SOL    HW2  274   1.722   2.779   1.418
  759SOL     OW  275   1.824   2.054   1.227
  759SOL    HW1  276   1.820   1.964   1.271
  759SOL    HW2  277   1.827   2.043   1.128
  761SOL     OW  278   1.705   3.349   1.104
  761SOL    HW1  279   1.612   3.324   1.077
  761SOL    HW2  280   1.731   3.299   1.186
  764SOL     OW  281   1.424   2.076   1.112
  764SOL    HW1  282   1.476   2.011   1.167
  764SOL    HW2  283   1.375   2.139   1.173
  777SOL     OW  284   1.555   3.373   2.565
  777SOL    HW1  285   1.498   3.357   2.646
  777SOL    HW2  286   1.496   3.383   2.485
  778SOL     OW  287   1.135   2.565   2.579
  778SOL    HW1  288   1.192   2.643   2.554
  778SOL    HW2  289   1.075   2.591   2.655
  779SOL     OW  290   1.755   2.469   2.093
  779SOL    HW1  291   1.743   2.456   1.994
  779SOL    HW2  292   1.725   2.388   2.142
  785SOL     OW  293   1.460   3.367   3.201
  785SOL    HW1  294   1.484   3.461   3.227
  785SOL    HW2  295   1.444   3.313   3.283
  787SOL     OW  296   1.603   2.309   2.599
  787SOL    HW1  297   1.529   2.355   2.549
  787SOL    HW2  298   1.654   2.377   2.652
  794SOL     OW  299   1.594   1.976   3.342
  794SOL    HW1  300   1.576   2.043   3.270
  794SOL    HW2  301   1.591   2.022   3.431
  796SOL     OW  302   1.842   3.629   2.221
  796SOL    HW1  303   1.896   3.600   2.301
  796SOL    HW2  304   1.872   3.719   2.192
  798SOL     OW  305   1.689   2.784   2.474
  798SOL    HW1  306   1.784   2.755   2.482
  798SOL    HW2  307   1.681   2.849   2.399
  799SOL     OW  308   1.641   2.970   2.294
  799SOL    HW1  309   1.727   2.972   2.242
  799SOL    HW2  310   1.655   3.017   2.382
  802SOL     OW  311   1.293   3.090   3.285
  802SOL    HW1  312   1.330   3.017   3.227
  802SOL    HW2  313   1.345   3.095   3.370
  803SOL     OW  314   0.809   1.866   2.364
  803SOL    HW1  315   0.849   1.957   2.355
  803SOL    HW2  316   0.709   1.874   2.370
  805SOL     OW  317   1.525   2.861   2.052
  805SOL    HW1  318   1.462   2.785   2.065
  805SOL    HW2  319   1.573   2.879   2.138
  808SOL     OW  320   1.466   3.279   2.815
  808SOL    HW1  321   1.407   3.285   2.895
  808SOL    HW2  322   1.451   3.191   2.769
  809SOL     OW  323   1.667   3.576   2.434
  809SOL    HW1  324   1.626   3.553   2.346
  809SOL    HW2  325   1.649   3.502   2.499
  811SOL     OW  326   1.281   2.207   2.806
  811SOL    HW1  327   1.195   2.157   2.793
  811SOL    HW2  328   1.343   2.153   2.862
  812SOL     OW  329   1.576   3.524   2.169
  812SOL    HW1  330   1.665   3.570   2.172
  812SOL    HW2  331   1.555   3.500   2.074
  814SOL     OW  332   1.394   2.331   3.536
  814SOL    HW1  333   1.374   2.374   3.624
  814SOL    HW2  334   1.472   2.269   3.545
  816SOL     OW  335   0.991   2.272   3.104
  816SOL    HW1  336   0.914   2.306   3.158
  816SOL    HW2  337   0.957   2.221   3.025
  817SOL     OW  338   1.041   2.563   2.291
  817SOL    HW1  339   1.067   2.559   2.387
  817SOL    HW2  340   0.956   2.512   2.277
  820SOL     OW  341   0.865   2.210   2.057
  820SOL    HW1  342   0.924   2.273   2.008
  820SOL    HW2  343   0.884   2.116   2.028
  821SOL     OW  344   1.719   2.447   3.693
  821SOL    HW1  345   1.693   2.536   3.657
  821SOL    HW2  346   1.717   2.379   3.620
  822SOL     OW  347   1.362   3.006   2.407
  822SOL    HW1  348   1.445   2.977   2.359
  822SOL    HW2  349   1.313   3.073   2.351
  824SOL     OW  350   1.008   3.318   2.339
  824SOL    HW1  351   0.962   3.390   2.287
  824SOL    HW2  352   1.004   3.338   2.437
  826SOL     OW  353   1.795   2.928   2.735
  826SOL    HW1  354   1.733   2.913   2.659
  826SOL    HW2  355   1.743   2.939   2.820
  829SOL     OW  356   1.458   2.597   2.590
  829SOL    HW1  357   1.453   2.532   2.665
  829SOL    HW2  358   1.538   2.656   2.603
  833SOL     OW  359   1.632   3.239   1.943
  833SOL    HW1  360   1.600   3.333   1.933
  833SOL    HW2  361   1.556   3.176   1.931
  835SOL     OW  362   1.400   1.969   2.288
  835SOL    HW1  363   1.376   1.932   2.198
  835SOL    HW2  364   1.499   1.985   2.292
  839SOL     OW  365   1.547   2.084   3.591
  839SOL    HW1  366   1.542   2.121   3.683
  839SOL    HW2  367   1.475   2.015   3.579
  843SOL     OW  368   1.351   2.452   3.295
  843SOL    HW1  369   1.379   2.409   3.380
  843SOL    HW2  370   1.376   2.548   3.296
  845SOL     OW  371   0.922   2.365   2.761
  845SOL    HW1  372   0.897   2.356   2.665
  845SOL    HW2  373   0.970   2.283   2.792
  847SOL     OW  374   1.434   3.050   1.903
  847SOL    HW1  375   1.466   2.974   1.960
  847SOL    HW2  376   1.342   3.077   1.933
  849SOL     OW  377   0.935   2.098   2.342
  849SOL    HW1  378   0.887   2.139   2.264
  849SOL    HW2  379   1.034   2.096   2.323
  850SOL     OW  380   1.076   2.545   3.326
  850SOL    HW1  381   0.996   2.484   3.329
  850SOL    HW2  382   1.157   2.492   3.302
  851SOL     OW  383   1.227   3.432   2.655
  851SOL    HW1  384   1.248   3.506   2.590
  851SOL    HW2  385   1.295   3.432   2.728
  853SOL     OW  386   1.271   3.659   2.453
  853SOL    HW1  387   1.315   3.723   2.389
  853SOL    HW2  388   1.221   3.711   2.523
  854SOL     OW  389   1.032   2.411   1.878
  854SOL    HW1  390   0.991   2.493   1.839
  854SOL    HW2  391   1.096   2.437   1.951
  857SOL     OW  392   0.866   2.316   2.504
  857SOL    HW1  393   0.834   2.388   2.442
  857SOL    HW2  394   0.890   2.235   2.451
  858SOL     OW  395   1.017   1.901   2.615
  858SOL    HW1  396   0.945   1.906   2.546
  858SOL    HW2  397   0.993   1.832   2.684
  859SOL     OW  398   1.429   3.035   2.729
  859SOL    HW1  399   1.374   2.951   2.722
  859SOL    HW2  400   1.455   3.064   2.637
  860SOL     OW  401   1.466   2.452   2.854
  860SOL    HW1  402   1.436   2.357   2.861
  860SOL    HW2  403   1.539   2.468   2.920
  861SOL     OW  404   1.857   2.695   2.239
  861SOL    HW1  405   1.899   2.631   2.303
  861SOL    HW2  406   1.819   2.644   2.161
  863SOL     OW  407   1.664   3.142   2.519
  863SOL    HW1  408   1.763   3.150   2.533
  863SOL    HW2  409   1.619   3.226   2.550
  864SOL     OW  410   1.390   2.437   1.940
  864SOL    HW1  411   1.336   2.416   2.021
  864SOL    HW2  412   1.481   2.396   1.949
  866SOL     OW  413   1.754   3.085   3.450
  866SOL    HW1  414   1.845   3.046   3.437
  866SOL    HW2  415   1.762   3.181   3.474
  867SOL     OW  416   1.064   3.209   3.202
  867SOL    HW1  417   0.984   3.186   3.257
  867SOL    HW2  418   1.147   3.183   3.251
  868SOL     OW  419   1.592   3.491   3.487
  868SOL    HW1  420   1.619   3.525   3.397
  868SOL    HW2  421   1.671   3.453   3.533
  869SOL     OW  422   1.111   3.057   2.962
  869SOL    HW1  423   1.071   3.101   3.043
  869SOL    HW2  424   1.070   3.094   2.879
  870SOL     OW  425   1.638   2.961   2.941
  870SOL    HW1  426   1.643   3.042   3.000
  870SOL    HW2  427   1.552   2.963   2.890
  875SOL     OW  428   1.274   2.248   3.124
  875SOL    HW1  429   1.295   2.322   3.188
  875SOL    HW2  430   1.185   2.265   3.081
  879SOL     OW  431   1.252   3.210   2.250
  879SOL    HW1  432   1.302   3.287   2.290
  879SOL    HW2  433   1.157   3.212   2.282
  880SOL     OW  434   1.272   3.307   3.004
  880SOL    HW1  435   1.319   3.320   3.091
  880SOL    HW2  436   1.206   3.233   3.013
  881SOL     OW  437   1.582   2.501   2.334
  881SOL    HW1  438   1.551   2.562   2.407
  881SOL    HW2  439   1.632   2.553   2.265
  884SOL     OW  440   1.587   2.641   3.532
  884SOL    HW1  441   1.495   2.679   3.527
  884SOL    HW2  442   1.647   2.688   3.467
  888SOL     OW  443   1.360   2.724   2.907
  888SOL    HW1  444   1.285   2.724   2.841
  888SOL    HW2  445   1.397   2.632   2.916
  889SOL     OW  446   1.209   2.387   2.137
  889SOL    HW1  447   1.222   2.303   2.191
  889SOL    HW2  448   1.180   2.461   2.197
  892SOL     OW  449   0.732   2.496   2.926
  892SOL    HW1  450   0.791   2.470   2.850
  892SOL    HW2  451   0.704   2.592   2.915
  893SOL     OW  452   1.728   2.797   3.716
  893SOL    HW1  453   1.682   2.790   3.627
  893SOL    HW2  454   1.666   2.841   3.782
  895SOL     OW  455   1.622   2.229   2.236
  895SOL    HW1  456   1.624   2.153   2.300
  895SOL    HW2  457   1.574   2.306   2.276
  896SOL     OW  458   1.023   2.628   2.828
  896SOL    HW1  459   1.038   2.649   2.924
  896SOL    HW2  460   0.993   2.533   2.819
  898SOL     OW  461   1.859   3.380   3.467
  898SOL    HW1  462   1.873   3.407   3.372
  898SOL    HW2  463   1.942   3.402   3.520
  900SOL     OW  464   1.540   2.136   1.987
  900SOL    HW1  465   1.479   2.061   2.010
  900SOL    HW2  466   1.562   2.188   2.070
  901SOL     OW  467   1.303   2.700   1.904
  901SOL    HW1  468   1.337   2.607   1.919
  901SOL    HW2  469   1.321   2.727   1.809
  902SOL     OW  470   1.068   3.195   2.711
  902SOL    HW1  471   1.075   3.111   2.656
  902SOL    HW2  472   1.130   3.264   2.675
  905SOL     OW  473   1.138   2.242   3.540
  905SOL    HW1  474   1.093   2.305   3.604
  905SOL    HW2  475   1.231   2.273   3.523
  906SOL     OW  476   1.160   2.069   3.339
  906SOL    HW1  477   1.160   2.133   3.416
  906SOL    HW2  478   1.188   2.117   3.256
  910SOL     OW  479   1.002   2.658   3.100
  910SOL    HW1  480   1.043   2.626   3.186
  910SOL    HW2  481   0.906   2.631   3.097
  913SOL     OW  482   1.369   2.812   3.522
  913SOL    HW1  483   1.408   2.901   3.542
  913SOL    HW2  484   1.379   2.792   3.425
  914SOL     OW  485   0.815   2.434   2.187
  914SOL    HW1  486   0.822   2.345   2.141
  914SOL    HW2  487   0.721   2.468   2.179
  915SOL     OW  488   1.657   2.466   3.068
  915SOL    HW1  489   1.619   2.397   3.130
  915SOL    HW2  490   1.739   2.430   3.024
  921SOL     OW  491   1.347   2.921   3.096
  921SOL    HW1  492   1.371   2.858   3.022
  921SOL    HW2  493   1.257   2.961   3.078
  922SOL     OW  494   1.302   2.717   2.171
  922SOL    HW1  495   1.216   2.686   2.213
  922SOL    HW2  496   1.298   2.703   2.072
  923SOL     OW  497   1.759   3.609   3.016
  923SOL    HW1  498   1.820   3.639   2.943
  923SOL    HW2  499   1.721   3.520   2.994
  924SOL     OW  500   1.252   3.593   2.990
  924SOL    HW1  501   1.336   3.598   2.936
  924SOL    HW2  502   1.229   3.497   3.008
  927SOL     OW  503   1.726   1.997   2.385
  927SOL    HW1  504   1.799   1.980   2.318
  927SOL    HW2  505   1.695   1.910   2.423
  928SOL     OW  506   1.388   3.435   2.339
  928SOL    HW1  507   1.455   3.447   2.265
  928SOL    HW2  508   1.348   3.524   2.362
  930SOL     OW  509   1.280   2.789   2.534
  930SOL    HW1  510   1.340   2.708   2.536
  930SOL    HW2  511   1.320   2.858   2.474
  933SOL     OW  512   1.650   3.582   3.256
  933SOL    HW1  513   1.703   3.592   3.172
  933SOL    HW2  514   1.623   3.672   3.290
  934SOL     OW  515   1.841   2.037   2.825
  934SOL    HW1  516   1.880   1.952   2.789
  934SOL    HW2  517   1.743   2.039   2.806
  936SOL     OW  518   1.194   3.474   1.893
  936SOL    HW1  519   1.200   3.381   1.930
  936SOL    HW2  520   1.135   3.474   1.813
  938SOL     OW  521   0.916   2.772   2.153
  938SOL    HW1  522   0.979   2.810   2.085
  938SOL    HW2  523   0.956   2.689   2.192
  939SOL     OW  524   1.504   3.469   1.906
  939SOL    HW1  525   1.412   3.506   1.913
  939SOL    HW2  526   1.542   3.489   1.816
  941SOL     OW  527   1.614   3.154   3.151
  941SOL    HW1  528   1.674   3.157   3.231
  941SOL    HW2  529   1.539   3.218   3.164
  942SOL     OW  530   1.039   2.960   2.558
  942SOL    HW1  531   0.969   2.913   2.612
  942SOL    HW2  532   1.098   2.892   2.515
  943SOL     OW  533   1.014   2.098   2.833
  943SOL    HW1  534   1.006   2.062   2.740
  943SOL    HW2  535   1.012   2.022   2.898
  945SOL     OW  536   1.709   2.247   3.243
  945SOL    HW1  537   1.782   2.316   3.247
  945SOL    HW2  538   1.737   2.172   3.184
  950SOL     OW  539   1.440   2.718   3.260
  950SOL    HW1  540   1.383   2.770   3.197
  950SOL    HW2  541   1.536   2.730   3.236
  952SOL     OW  542   1.183   3.197   1.981
  952SOL    HW1  543   1.084   3.186   1.983
  952SOL    HW2  544   1.217   3.212   2.074
  954SOL     OW  545   1.493   3.629   2.821
  954SOL    HW1  546   1.526   3.693   2.752
  954SOL    HW2  547   1.559   3.623   2.896
  956SOL     OW  548   1.450   3.082   3.495
  956SOL    HW1  549   1.441   3.072   3.594
  956SOL    HW2  550   1.546   3.075   3.469
  958SOL     OW  551   1.674   2.745   3.116
  958SOL    HW1  552   1.647   2.656   3.079
  958SOL    HW2  553   1.675   2.813   3.043
  959SOL     OW  554   1.225   2.187   2.311
  959SOL    HW1  555   1.290   2.113   2.300
  959SOL    HW2  556   1.245   2.237   2.395
  961SOL     OW  557   1.777   2.204   3.504
  961SOL    HW1  558   1.760   2.235   3.410
  961SOL    HW2  559   1.693   2.167   3.542
  962SOL     OW  560   1.730   2.796   3.379
  962SOL    HW1  561   1.768   2.887   3.394
  962SOL    HW2  562   1.722   2.779   3.280
  965SOL     OW  563   0.859   2.818   2.723
  965SOL    HW1  564   0.913   2.749   2.771
  965SOL    HW2  565   0.827   2.887   2.789
  966SOL     OW  566   1.083   2.846   1.949
  966SOL    HW1  567   1.060   2.899   1.867
  966SOL    HW2  568   1.164   2.790   1.930
  967SOL     OW  569   1.861   3.431   2.713
  967SOL    HW1  570   1.790   3.419   2.643
  967SOL    HW2  571   1.862   3.352   2.773
  971SOL     OW  572   1.824   2.054   3.089
  971SOL    HW1  573   1.820   1.964   3.133
  971SOL    HW2  574   1.827   2.043   2.990
  973SOL     OW  575   1.705   3.349   2.966
  973SOL    HW1  576   1.612   3.324   2.939
  973SOL    HW2  577   1.731   3.299   3.048
  976SOL     OW  578   1.424   2.076   2.974
  976SOL    HW1  579   1.476   2.011   3.029
  976SOL    HW2  580   1.375   2.139   3.035
  977SOL     OW  581   1.001   1.896   3.016
  977SOL    HW1  582   0.938   1.824   2.985
  977SOL    HW2  583   1.094   1.860   3.016
  980SOL     OW  584   1.352   1.914   2.030
  980SOL    HW1  585   1.387   1.873   1.946
  980SOL    HW2  586   1.262   1.876   2.050
  981SOL     OW  587   1.300   2.315   2.553
  981SOL    HW1  588   1.241   2.395   2.557
  981SOL    HW2  589   1.315   2.280   2.646
  982SOL     OW  590   1.593   2.083   2.744
  982SOL    HW1  591   1.509   2.082   2.798
  982SOL    HW2  592   1.595   2.166   2.688
  990SOL     OW  593   1.755   2.469   3.955
  990SOL    HW1  594   1.743   2.456   3.856
  990SOL    HW2  595   1.725   2.388   4.004
 1007SOL     OW  596   1.525   2.861   3.914
 1007SOL    HW1  597   1.462   2.785   3.927
 1007SOL    HW2  598   1.573   2.879   4.000
 1024SOL     OW  599   1.632   3.239   3.805
 1024SOL    HW1  600   1.600   3.333   3.795
 1024SOL    HW2  601   1.556   3.176   3.793
 1034SOL     OW  602   1.434   3.050   3.765
 1034SOL    HW1  603   1.466   2.974   3.822
 1034SOL    HW2  604   1.342   3.077   3.795
 1045SOL     OW  605   1.857   2.695   4.101
 1045SOL    HW1  606   1.899   2.631   4.165
 1045SOL    HW2  607   1.819   2.644   4.023
 1048SOL     OW  608   1.390   2.437   3.802
 1048SOL    HW1  609   1.336   2.416   3.883
 1048SOL    HW2  610   1.481   2.396   3.811
 1066SOL     OW  611   1.540   2.136   3.849
 1066SOL    HW1  612   1.479   2.061   3.872
 1066SOL    HW2  613   1.562   2.188   3.932
 1067SOL     OW  614   1.303   2.700   3.766
 1067SOL    HW1  615   1.337   2.607   3.781
 1067SOL    HW2  616   1.321   2.727   3.671
 1292SOL     OW  617   1.400   3.831   2.288
 1292SOL    HW1  618   1.376   3.794   2.198
 1292SOL    HW2  619   1.499   3.847   2.292
 1356SOL     OW  620   1.726   3.859   2.385
 1356SOL    HW1  621   1.799   3.842   2.318
 1356SOL    HW2  622   1.695   3.772   2.423
 1358SOL     OW  623   1.841   3.899   2.825
 1358SOL    HW1  624   1.880   3.814   2.789
 1358SOL    HW2  625   1.743   3.901   2.806
 1381SOL     OW  626   1.824   3.916   3.089
 1381SOL    HW1  627   1.820   3.826   3.133
 1381SOL    HW2  628   1.827   3.905   2.990
 1387SOL     OW  629   1.352   3.776   2.030
 1387SOL    HW1  630   1.387   3.735   1.946
 1387SOL    HW2  631   1.262   3.738   2.050
 1389SOL     OW  632   1.593   3.945   2.744
 1389SOL    HW1  633   1.509   3.944   2.798
 1389SOL    HW2  634   1.595   4.028   2.688
 1482SOL     OW  635   2.431   1.275   1.165
 1482SOL    HW1  636   2.338   1.268   1.128
 1482SOL    HW2  637   2.442   1.364   1.209
 1487SOL     OW  638   2.712   0.798   1.823
 1487SOL    HW1  639   2.708   0.874   1.888
 1487SOL    HW2  640   2.734   0.834   1.732
 1489SOL     OW  641   2.548   1.161   1.803
 1489SOL    HW1  642   2.608   1.240   1.817
 1489SOL    HW2  643   2.462   1.192   1.762
 1490SOL     OW  644   2.197   1.435   1.061
 1490SOL    HW1  645   2.119   1.404   1.008
 1490SOL    HW2  646   2.255   1.493   1.004
 1491SOL     OW  647   3.322   1.505   1.339
 1491SOL    HW1  648   3.346   1.599   1.365
 1491SOL    HW2  649   3.306   1.451   1.421
 1495SOL     OW  650   2.989   1.341   1.690
 1495SOL    HW1  651   3.036   1.341   1.778
 1495SOL    HW2  652   2.941   1.254   1.679
 1498SOL     OW  653   2.482   1.786   1.439
 1498SOL    HW1  654   2.390   1.769   1.474
 1498SOL    HW2  655   2.510   1.878   1.465
 1508SOL     OW  656   3.155   1.228   1.423
 1508SOL    HW1  657   3.192   1.155   1.365
 1508SOL    HW2  658   3.207   1.233   1.508
 1512SOL     OW  659   3.049   1.792   1.616
 1512SOL    HW1  660   3.073   1.852   1.540
 1512SOL    HW2  661   3.056   1.697   1.586
 1525SOL     OW  662   1.992   1.821   1.571
 1525SOL    HW1  663   1.982   1.806   1.670
 1525SOL    HW2  664   1.906   1.857   1.535
 1531SOL     OW  665   2.213   1.801   0.853
 1531SOL    HW1  666   2.263   1.715   0.859
 1531SOL    HW2  667   2.278   1.878   0.850
 1533SOL     OW  668   3.089   1.550   1.506
 1533SOL    HW1  669   3.095   1.473   1.570
 1533SOL    HW2  670   3.037   1.524   1.426
 1536SOL     OW  671   2.323   1.266   1.727
 1536SOL    HW1  672   2.273   1.267   1.641
 1536SOL    HW2  673   2.260   1.248   1.803
 1542SOL     OW  674   2.111   1.785   1.241
 1542SOL    HW1  675   2.168   1.720   1.291
 1542SOL    HW2  676   2.095   1.752   1.148
 1543SOL     OW  677   2.802   1.698   0.904
 1543SOL    HW1  678   2.882   1.641   0.925
 1543SOL    HW2  679   2.753   1.658   0.827
 1548SOL     OW  680   2.750   1.514   1.195
 1548SOL    HW1  681   2.727   1.489   1.101
 1548SOL    HW2  682   2.811   1.445   1.234
 1573SOL     OW  683   2.926   1.347   1.340
 1573SOL    HW1  684   2.846   1.324   1.395
 1573SOL    HW2  685   3.009   1.321   1.389
 1574SOL     OW  686   3.454   1.629   1.625
 1574SOL    HW1  687   3.481   1.663   1.535
 1574SOL    HW2  688   3.533   1.591   1.671
 1578SOL     OW  689   2.842   1.116   1.719
 1578SOL    HW1  690   2.743   1.122   1.729
 1578SOL    HW2  691   2.865   1.036   1.663
 1582SOL     OW  692   1.926   1.564   1.331
 1582SOL    HW1  693   1.880   1.646   1.297
 1582SOL    HW2  694   2.024   1.583   1.340
 1586SOL     OW  695   3.134   1.445   1.142
 1586SOL    HW1  696   3.181   1.458   1.229
 1586SOL    HW2  697   3.068   1.371   1.151
 1588SOL     OW  698   2.216   1.510   1.329
 1588SOL    HW1  699   2.195   1.466   1.242
 1588SOL    HW2  700   2.313   1.536   1.332
 1597SOL     OW  701   1.899   1.310   1.282
 1597SOL    HW1  702   1.952   1.261   1.350
 1597SOL    HW2  703   1.921   1.408   1.287
 1603SOL     OW  704   2.842   1.573   1.700
 1603SOL    HW1  705   2.822   1.617   1.612
 1603SOL    HW2  706   2.881   1.482   1.684
 1604SOL     OW  707   3.721   1.518   1.605
 1604SOL    HW1  708   3.735   1.545   1.510
 1604SOL    HW2  709   3.804   1.540   1.658
 1605SOL     OW  710   2.212   0.898   1.804
 1605SOL    HW1  711   2.288   0.942   1.852
 1605SOL    HW2  712   2.247   0.851   1.722
 1614SOL     OW  713   1.950   1.801   0.927
 1614SOL    HW1  714   1.908   1.715   0.900
 1614SOL    HW2  715   2.044   1.804   0.893
 1615SOL     OW  716   2.366   1.568   0.910
 1615SOL    HW1  717   2.432   1.642   0.919
 1615SOL    HW2  718   2.410   1.489   0.868
 1622SOL     OW  719   2.114   1.564   1.744
 1622SOL    HW1  720   2.084   1.621   1.820
 1622SOL    HW2  721   2.107   1.467   1.770
 1624SOL     OW  722   2.792   1.678   1.465
 1624SOL    HW1  723   2.768   1.660   1.370
 1624SOL    HW2  724   2.822   1.772   1.475
 1626SOL     OW  725   2.021   1.137   1.466
 1626SOL    HW1  726   2.043   1.076   1.542
 1626SOL    HW2  727   2.031   1.088   1.380
 1630SOL     OW  728   3.114   1.731   1.128
 1630SOL    HW1  729   3.198   1.736   1.074
 1630SOL    HW2  730   3.091   1.635   1.146
 1632SOL     OW  731   2.550   1.662   1.716
 1632SOL    HW1  732   2.494   1.743   1.725
 1632SOL    HW2  733   2.602   1.666   1.630
 1636SOL     OW  734   1.992   1.794   1.851
 1636SOL    HW1  735   1.951   1.720   1.904
 1636SOL    HW2  736   2.056   1.845   1.909
 1638SOL     OW  737   2.692   1.273   1.422
 1638SOL    HW1  738   2.687   1.306   1.517
 1638SOL    HW2  739   2.606   1.292   1.376
 1640SOL     OW  740   3.512   1.720   1.394
 1640SOL    HW1  741   3.565   1.730   1.310
 1640SOL    HW2  742   3.485   1.810   1.428
 1647SOL     OW  743   2.234   1.288   1.490
 1647SOL    HW1  744   2.221   1.381   1.456
 1647SOL    HW2  745   2.150   1.236   1.477
 1654SOL     OW  746   1.967   1.013   1.726
 1654SOL    HW1  747   1.890   0.980   1.780
 1654SOL    HW2  748   2.052   0.983   1.768
 1662SOL     OW  749   3.312   1.220   1.633
 1662SOL    HW1  750   3.303   1.210   1.732
 1662SOL    HW2  751   3.408   1.213   1.607
 1663SOL     OW  752   2.252   1.741   1.560
 1663SOL    HW1  753   2.161   1.782   1.558
 1663SOL    HW2  754   2.245   1.647   1.592
 1670SOL     OW  755   2.523   1.790   0.953
 1670SOL    HW1  756   2.477   1.878   0.940
 1670SOL    HW2  757   2.622   1.802   0.946
 1674SOL     OW  758   2.083   1.314   1.844
 1674SOL    HW1  759   2.018   1.241   1.823
 1674SOL    HW2  760   2.087   1.328   1.942
 1676SOL     OW  761   2.534   1.391   1.624
 1676SOL    HW1  762   2.456   1.341   1.662
 1676SOL    HW2  763   2.531   1.486   1.655
 1685SOL     OW  764   2.480   1.567   1.284
 1685SOL    HW1  765   2.475   1.649   1.341
 1685SOL    HW2  766   2.569   1.564   1.239
 1694SOL     OW  767   2.431   1.275   3.027
 1694SOL    HW1  768   2.338   1.268   2.990
 1694SOL    HW2  769   2.442   1.364   3.071
 1695SOL     OW  770   3.417   1.511   2.565
 1695SOL    HW1  771   3.360   1.495   2.646
 1695SOL    HW2  772   3.358   1.521   2.485
 1698SOL     OW  773   2.630   1.144   2.885
 1698SOL    HW1  774   2.552   1.161   2.945
 1698SOL    HW2  775   2.664   1.231   2.849
 1700SOL     OW  776   2.547   1.012   2.527
 1700SOL    HW1  777   2.616   0.996   2.597
 1700SOL    HW2  778   2.474   1.069   2.565
 1701SOL     OW  779   2.548   1.161   3.665
 1701SOL    HW1  780   2.608   1.240   3.679
 1701SOL    HW2  781   2.462   1.192   3.624
 1702SOL     OW  782   2.197   1.435   2.923
 1702SOL    HW1  783   2.119   1.404   2.870
 1702SOL    HW2  784   2.255   1.493   2.866
 1703SOL     OW  785   3.322   1.505   3.201
 1703SOL    HW1  786   3.346   1.599   3.227
 1703SOL    HW2  787   3.306   1.451   3.283
 1706SOL     OW  788   2.093   1.713   2.345
 1706SOL    HW1  789   2.127   1.790   2.399
 1706SOL    HW2  790   2.137   1.713   2.255
 1707SOL     OW  791   2.989   1.341   3.552
 1707SOL    HW1  792   3.036   1.341   3.640
 1707SOL    HW2  793   2.941   1.254   3.541
 1708SOL     OW  794   2.092   1.434   2.400
 1708SOL    HW1  795   2.066   1.530   2.400
 1708SOL    HW2  796   2.021   1.380   2.445
 1709SOL     OW  797   2.102   1.091   2.748
 1709SOL    HW1  798   2.116   1.007   2.800
 1709SOL    HW2  799   2.047   1.155   2.803
 1710SOL     OW  800   2.482   1.786   3.301
 1710SOL    HW1  801   2.390   1.769   3.336
 1710SOL    HW2  802   2.510   1.878   3.327
 1711SOL     OW  803   2.468   0.964   1.985
 1711SOL    HW1  804   2.475   1.048   1.931
 1711SOL    HW2  805   2.514   0.977   2.073
 1714SOL     OW  806   3.704   1.767   2.221
 1714SOL    HW1  807   3.758   1.738   2.301
 1714SOL    HW2  808   3.734   1.857   2.192
 1715SOL     OW  809   1.889   1.596   1.979
 1715SOL    HW1  810   1.870   1.500   2.000
 1715SOL    HW2  811   1.856   1.654   2.054
 1717SOL     OW  812   3.503   1.108   2.294
 1717SOL    HW1  813   3.589   1.110   2.242
 1717SOL    HW2  814   3.517   1.155   2.382
 1719SOL     OW  815   2.475   1.365   2.588
 1719SOL    HW1  816   2.426   1.278   2.597
 1719SOL    HW2  817   2.452   1.408   2.501
 1720SOL     OW  818   3.155   1.228   3.285
 1720SOL    HW1  819   3.192   1.155   3.227
 1720SOL    HW2  820   3.207   1.233   3.370
 1722SOL     OW  821   2.059   0.976   3.126
 1722SOL    HW1  822   2.148   0.931   3.112
 1722SOL    HW2  823   1.986   0.911   3.107
 1723SOL     OW  824   3.387   0.999   2.052
 1723SOL    HW1  825   3.324   0.923   2.065
 1723SOL    HW2  826   3.435   1.017   2.138
 1724SOL     OW  827   3.049   1.792   3.478
 1724SOL    HW1  828   3.073   1.852   3.402
 1724SOL    HW2  829   3.056   1.697   3.448
 1726SOL     OW  830   3.328   1.417   2.815
 1726SOL    HW1  831   3.269   1.423   2.895
 1726SOL    HW2  832   3.313   1.329   2.769
 1727SOL     OW  833   3.529   1.714   2.434
 1727SOL    HW1  834   3.488   1.691   2.346
 1727SOL    HW2  835   3.511   1.640   2.499
 1728SOL     OW  836   2.460   0.729   2.132
 1728SOL    HW1  837   2.484   0.798   2.064
 1728SOL    HW2  838   2.382   0.762   2.186
 1730SOL     OW  839   3.438   1.662   2.169
 1730SOL    HW1  840   3.527   1.708   2.172
 1730SOL    HW2  841   3.417   1.638   2.074
 1736SOL     OW  842   1.938   0.811   2.651
 1736SOL    HW1  843   2.037   0.799   2.660
 1736SOL    HW2  844   1.914   0.906   2.672
 1737SOL     OW  845   1.992   1.821   3.433
 1737SOL    HW1  846   1.982   1.806   3.532
 1737SOL    HW2  847   1.906   1.857   3.397
 1740SOL     OW  848   3.224   1.144   2.407
 1740SOL    HW1  849   3.307   1.115   2.359
 1740SOL    HW2  850   3.175   1.211   2.351
 1742SOL     OW  851   2.870   1.456   2.339
 1742SOL    HW1  852   2.824   1.528   2.287
 1742SOL    HW2  853   2.866   1.476   2.437
 1743SOL     OW  854   2.213   1.801   2.715
 1743SOL    HW1  855   2.263   1.715   2.721
 1743SOL    HW2  856   2.278   1.878   2.712
 1745SOL     OW  857   3.089   1.550   3.368
 1745SOL    HW1  858   3.095   1.473   3.432
 1745SOL    HW2  859   3.037   1.524   3.288
 1746SOL     OW  860   2.183   0.943   2.104
 1746SOL    HW1  861   2.265   0.982   2.062
 1746SOL    HW2  862   2.156   0.861   2.055
 1748SOL     OW  863   2.323   1.266   3.589
 1748SOL    HW1  864   2.273   1.267   3.503
 1748SOL    HW2  865   2.260   1.248   3.665
 1749SOL     OW  866   2.973   1.776   2.099
 1749SOL    HW1  867   2.913   1.714   2.149
 1749SOL    HW2  868   3.004   1.732   2.014
 1751SOL     OW  869   3.494   1.377   1.943
 1751SOL    HW1  870   3.462   1.471   1.933
 1751SOL    HW2  871   3.418   1.314   1.931
 1752SOL     OW  872   2.326   1.743   2.185
 1752SOL    HW1  873   2.359   1.782   2.271
 1752SOL    HW2  874   2.402   1.736   2.120
 1754SOL     OW  875   2.111   1.785   3.103
 1754SOL    HW1  876   2.168   1.720   3.153
 1754SOL    HW2  877   2.095   1.752   3.010
 1755SOL     OW  878   2.802   1.698   2.766
 1755SOL    HW1  879   2.882   1.641   2.787
 1755SOL    HW2  880   2.753   1.658   2.689
 1756SOL     OW  881   2.244   0.700   2.342
 1756SOL    HW1  882   2.289   0.610   2.339
 1756SOL    HW2  883   2.150   0.689   2.375
 1760SOL     OW  884   2.750   1.514   3.057
 1760SOL    HW1  885   2.727   1.489   2.963
 1760SOL    HW2  886   2.811   1.445   3.096
 1762SOL     OW  887   2.665   1.402   2.786
 1762SOL    HW1  888   2.755   1.416   2.744
 1762SOL    HW2  889   2.594   1.404   2.715
 1765SOL     OW  890   3.296   1.188   1.903
 1765SOL    HW1  891   3.328   1.112   1.960
 1765SOL    HW2  892   3.204   1.215   1.933
 1769SOL     OW  893   3.089   1.570   2.655
 1769SOL    HW1  894   3.110   1.644   2.590
 1769SOL    HW2  895   3.157   1.570   2.728
 1770SOL     OW  896   2.321   1.152   2.603
 1770SOL    HW1  897   2.250   1.125   2.668
 1770SOL    HW2  898   2.295   1.124   2.510
 1771SOL     OW  899   3.133   1.797   2.453
 1771SOL    HW1  900   3.177   1.861   2.389
 1771SOL    HW2  901   3.083   1.849   2.523
 1777SOL     OW  902   3.291   1.173   2.729
 1777SOL    HW1  903   3.236   1.089   2.722
 1777SOL    HW2  904   3.317   1.202   2.637
 1780SOL     OW  905   2.350   1.385   2.036
 1780SOL    HW1  906   2.263   1.370   2.083
 1780SOL    HW2  907   2.333   1.411   1.941
 1781SOL     OW  908   3.526   1.280   2.519
 1781SOL    HW1  909   3.625   1.288   2.533
 1781SOL    HW2  910   3.481   1.364   2.550
 1785SOL     OW  911   2.926   1.347   3.202
 1785SOL    HW1  912   2.846   1.324   3.257
 1785SOL    HW2  913   3.009   1.321   3.251
 1786SOL     OW  914   3.454   1.629   3.487
 1786SOL    HW1  915   3.481   1.663   3.397
 1786SOL    HW2  916   3.533   1.591   3.533
 1787SOL     OW  917   2.973   1.195   2.962
 1787SOL    HW1  918   2.933   1.239   3.043
 1787SOL    HW2  919   2.932   1.232   2.879
 1788SOL     OW  920   3.500   1.099   2.941
 1788SOL    HW1  921   3.505   1.180   3.000
 1788SOL    HW2  922   3.414   1.101   2.890
 1790SOL     OW  923   2.842   1.116   3.581
 1790SOL    HW1  924   2.743   1.122   3.591
 1790SOL    HW2  925   2.865   1.036   3.525
 1791SOL     OW  926   2.567   1.050   2.230
 1791SOL    HW1  927   2.553   1.057   2.329
 1791SOL    HW2  928   2.651   0.999   2.212
 1792SOL     OW  929   2.272   0.813   3.113
 1792SOL    HW1  930   2.358   0.825   3.163
 1792SOL    HW2  931   2.230   0.726   3.140
 1794SOL     OW  932   1.926   1.564   3.193
 1794SOL    HW1  933   1.880   1.646   3.159
 1794SOL    HW2  934   2.024   1.583   3.202
 1795SOL     OW  935   2.229   1.100   2.363
 1795SOL    HW1  936   2.222   1.183   2.307
 1795SOL    HW2  937   2.233   1.020   2.303
 1797SOL     OW  938   3.114   1.348   2.250
 1797SOL    HW1  939   3.164   1.425   2.290
 1797SOL    HW2  940   3.019   1.350   2.282
 1798SOL     OW  941   3.134   1.445   3.004
 1798SOL    HW1  942   3.181   1.458   3.091
 1798SOL    HW2  943   3.068   1.371   3.013
 1800SOL     OW  944   2.216   1.510   3.191
 1800SOL    HW1  945   2.195   1.466   3.104
 1800SOL    HW2  946   2.313   1.536   3.194
 1805SOL     OW  947   2.435   0.870   2.891
 1805SOL    HW1  948   2.479   0.959   2.882
 1805SOL    HW2  949   2.372   0.870   2.968
 1809SOL     OW  950   1.899   1.310   3.144
 1809SOL    HW1  951   1.952   1.261   3.212
 1809SOL    HW2  952   1.921   1.408   3.149
 1814SOL     OW  953   2.885   0.766   2.828
 1814SOL    HW1  954   2.900   0.787   2.924
 1814SOL    HW2  955   2.855   0.671   2.819
 1815SOL     OW  956   2.842   1.573   3.562
 1815SOL    HW1  957   2.822   1.617   3.474
 1815SOL    HW2  958   2.881   1.482   3.546
 1820SOL     OW  959   2.930   1.333   2.711
 1820SOL    HW1  960   2.937   1.249   2.656
 1820SOL    HW2  961   2.992   1.402   2.675
 1821SOL     OW  962   2.181   0.810   2.811
 1821SOL    HW1  963   2.274   0.846   2.816
 1821SOL    HW2  964   2.175   0.725   2.863
 1825SOL     OW  965   1.870   1.326   2.062
 1825SOL    HW1  966   1.777   1.347   2.031
 1825SOL    HW2  967   1.880   1.227   2.075
 1826SOL     OW  968   1.950   1.801   2.789
 1826SOL    HW1  969   1.908   1.715   2.762
 1826SOL    HW2  970   2.044   1.804   2.755
 1827SOL     OW  971   2.366   1.568   2.772
 1827SOL    HW1  972   2.432   1.642   2.781
 1827SOL    HW2  973   2.410   1.489   2.730
 1834SOL     OW  974   2.114   1.564   3.606
 1834SOL    HW1  975   2.084   1.621   3.682
 1834SOL    HW2  976   2.107   1.467   3.632
 1836SOL     OW  977   2.792   1.678   3.327
 1836SOL    HW1  978   2.768   1.660   3.232
 1836SOL    HW2  979   2.822   1.772   3.337
 1838SOL     OW  980   2.021   1.137   3.328
 1838SOL    HW1  981   2.043   1.076   3.404
 1838SOL    HW2  982   2.031   1.088   3.242
 1839SOL     OW  983   3.209   1.059   3.096
 1839SOL    HW1  984   3.233   0.996   3.022
 1839SOL    HW2  985   3.119   1.099   3.078
 1840SOL     OW  986   3.164   0.855   2.171
 1840SOL    HW1  987   3.078   0.824   2.213
 1840SOL    HW2  988   3.160   0.841   2.072
 1841SOL     OW  989   3.621   1.747   3.016
 1841SOL    HW1  990   3.682   1.777   2.943
 1841SOL    HW2  991   3.583   1.658   2.994
 1842SOL     OW  992   3.114   1.731   2.990
 1842SOL    HW1  993   3.198   1.736   2.936
 1842SOL    HW2  994   3.091   1.635   3.008
 1843SOL     OW  995   1.945   1.258   2.884
 1843SOL    HW1  996   1.940   1.257   2.984
 1843SOL    HW2  997   1.862   1.217   2.846
 1844SOL     OW  998   2.550   1.662   3.578
 1844SOL    HW1  999   2.494   1.743   3.587
 1844SOL    HW2 1000   2.602   1.666   3.492
 1846SOL     OW 1001   3.250   1.573   2.339
 1846SOL    HW1 1002   3.317   1.585   2.265
 1846SOL    HW2 1003   3.210   1.662   2.362
 1847SOL     OW 1004   1.992   1.794   3.713
 1847SOL    HW1 1005   1.951   1.720   3.766
 1847SOL    HW2 1006   2.056   1.845   3.771
 1848SOL     OW 1007   3.142   0.927   2.534
 1848SOL    HW1 1008   3.202   0.846   2.536
 1848SOL    HW2 1009   3.182   0.996   2.474
 1849SOL     OW 1010   2.692   1.273   3.284
 1849SOL    HW1 1011   2.687   1.306   3.379
 1849SOL    HW2 1012   2.606   1.292   3.238
 1850SOL     OW 1013   2.534   1.616   2.016
 1850SOL    HW1 1014   2.543   1.626   1.917
 1850SOL    HW2 1015   2.494   1.527   2.037
 1851SOL     OW 1016   3.512   1.720   3.256
 1851SOL    HW1 1017   3.565   1.730   3.172
 1851SOL    HW2 1018   3.485   1.810   3.290
 1854SOL     OW 1019   3.056   1.612   1.893
 1854SOL    HW1 1020   3.062   1.519   1.930
 1854SOL    HW2 1021   2.997   1.612   1.813
 1855SOL     OW 1022   2.684   1.002   3.234
 1855SOL    HW1 1023   2.724   1.001   3.142
 1855SOL    HW2 1024   2.694   1.094   3.274
 1856SOL     OW 1025   2.778   0.910   2.153
 1856SOL    HW1 1026   2.841   0.948   2.085
 1856SOL    HW2 1027   2.818   0.827   2.192
 1857SOL     OW 1028   3.366   1.607   1.906
 1857SOL    HW1 1029   3.274   1.644   1.913
 1857SOL    HW2 1030   3.404   1.627   1.816
 1858SOL     OW 1031   2.234   1.288   3.352
 1858SOL    HW1 1032   2.221   1.381   3.318
 1858SOL    HW2 1033   2.150   1.236   3.339
 1859SOL     OW 1034   3.476   1.292   3.151
 1859SOL    HW1 1035   3.536   1.295   3.231
 1859SOL    HW2 1036   3.401   1.356   3.164
 1860SOL     OW 1037   2.901   1.098   2.558
 1860SOL    HW1 1038   2.831   1.051   2.612
 1860SOL    HW2 1039   2.960   1.030   2.515
 1862SOL     OW 1040   2.452   1.487   2.353
 1862SOL    HW1 1041   2.494   1.429   2.283
 1862SOL    HW2 1042   2.408   1.566   2.309
 1864SOL     OW 1043   2.117   1.348   2.152
 1864SOL    HW1 1044   2.021   1.349   2.125
 1864SOL    HW2 1045   2.129   1.401   2.236
 1870SOL     OW 1046   3.045   1.335   1.981
 1870SOL    HW1 1047   2.946   1.324   1.983
 1870SOL    HW2 1048   3.079   1.350   2.074
 1872SOL     OW 1049   3.355   1.767   2.821
 1872SOL    HW1 1050   3.388   1.831   2.752
 1872SOL    HW2 1051   3.421   1.761   2.896
 1875SOL     OW 1052   2.252   1.741   3.422
 1875SOL    HW1 1053   2.161   1.782   3.420
 1875SOL    HW2 1054   2.245   1.647   3.454
 1878SOL     OW 1055   2.456   0.745   2.514
 1878SOL    HW1 1056   2.506   0.830   2.495
 1878SOL    HW2 1057   2.368   0.747   2.466
 1881SOL     OW 1058   2.721   1.374   1.878
 1881SOL    HW1 1059   2.675   1.389   1.966
 1881SOL    HW2 1060   2.765   1.459   1.848
 1882SOL     OW 1061   2.523   1.790   2.815
 1882SOL    HW1 1062   2.477   1.878   2.802
 1882SOL    HW2 1063   2.622   1.802   2.808
 1883SOL     OW 1064   2.721   0.956   2.723
 1883SOL    HW1 1065   2.775   0.887   2.771
 1883SOL    HW2 1066   2.689   1.025   2.789
 1884SOL     OW 1067   2.945   0.984   1.949
 1884SOL    HW1 1068   2.922   1.037   1.867
 1884SOL    HW2 1069   3.026   0.928   1.930
 1885SOL     OW 1070   3.723   1.569   2.713
 1885SOL    HW1 1071   3.652   1.557   2.643
 1885SOL    HW2 1072   3.724   1.490   2.773
 1886SOL     OW 1073   2.083   1.314   3.706
 1886SOL    HW1 1074   2.018   1.241   3.685
 1886SOL    HW2 1075   2.087   1.328   3.804
 1887SOL     OW 1076   1.941   1.240   2.515
 1887SOL    HW1 1077   1.940   1.193   2.603
 1887SOL    HW2 1078   2.023   1.212   2.464
 1888SOL     OW 1079   2.534   1.391   3.486
 1888SOL    HW1 1080   2.456   1.341   3.524
 1888SOL    HW2 1081   2.531   1.486   3.517
 1891SOL     OW 1082   3.567   1.487   2.966
 1891SOL    HW1 1083   3.474   1.462   2.939
 1891SOL    HW2 1084   3.593   1.437   3.048
 1893SOL     OW 1085   2.674   1.586   2.549
 1893SOL    HW1 1086   2.706   1.596   2.455
 1893SOL    HW2 1087   2.595   1.524   2.551
 1896SOL     OW 1088   2.632   1.330   2.163
 1896SOL    HW1 1089   2.586   1.243   2.180
 1896SOL    HW2 1090   2.723   1.327   2.204
 1897SOL     OW 1091   2.480   1.567   3.146
 1897SOL    HW1 1092   2.475   1.649   3.203
 1897SOL    HW2 1093   2.569   1.564   3.101
 1901SOL     OW 1094   1.901   1.077   2.162
 1901SOL    HW1 1095   2.000   1.066   2.153
 1901SOL    HW2 1096   1.861   0.991   2.194
 1902SOL     OW 1097   2.737   1.646   2.199
 1902SOL    HW1 1098   2.660   1.611   2.145
 1902SOL    HW2 1099   2.705   1.717   2.261
 1919SOL     OW 1100   1.889   1.596   3.841
 1919SOL    HW1 1101   1.870   1.500   3.862
 1919SOL    HW2 1102   1.856   1.654   3.916
 1941SOL     OW 1103   2.973   1.776   3.961
 1941SOL    HW1 1104   2.913   1.714   4.011
 1941SOL    HW2 1105   3.004   1.732   3.876
 1943SOL     OW 1106   2.326   1.743   4.047
 1943SOL    HW1 1107   2.359   1.782   4.133
 1943SOL    HW2 1108   2.402   1.736   3.982
 1964SOL     OW 1109   2.350   1.385   3.898
 1964SOL    HW1 1110   2.263   1.370   3.945
 1964SOL    HW2 1111   2.333   1.411   3.803
 2003SOL     OW 1112   2.534   1.616   3.878
 2003SOL    HW1 1113   2.543   1.626   3.779
 2003SOL    HW2 1114   2.494   1.527   3.899
 2006SOL     OW 1115   3.056   1.612   3.755
 2006SOL    HW1 1116   3.062   1.519   3.792
 2006SOL    HW2 1117   2.997   1.612   3.675
 2021SOL     OW 1118   2.721   1.374   3.740
 2021SOL    HW1 1119   2.675   1.389   3.828
 2021SOL    HW2 1120   2.765   1.459   3.710
 2038SOL     OW 1121   2.087   2.137   0.996
 2038SOL    HW1 1122   2.122   2.120   1.088
 2038SOL    HW2 1123   1.999   2.092   0.984
 2040SOL     OW 1124   2.431   3.137   1.165
 2040SOL    HW1 1125   2.338   3.130   1.128
 2040SOL    HW2 1126   2.442   3.226   1.209
 2044SOL     OW 1127   2.630   3.006   1.023
 2044SOL    HW1 1128   2.552   3.023   1.083
 2044SOL    HW2 1129   2.664   3.093   0.987
 2045SOL     OW 1130   2.712   2.660   1.823
 2045SOL    HW1 1131   2.708   2.736   1.888
 2045SOL    HW2 1132   2.734   2.696   1.732
 2047SOL     OW 1133   2.548   3.023   1.803
 2047SOL    HW1 1134   2.608   3.102   1.817
 2047SOL    HW2 1135   2.462   3.054   1.762
 2048SOL     OW 1136   2.197   3.297   1.061
 2048SOL    HW1 1137   2.119   3.266   1.008
 2048SOL    HW2 1138   2.255   3.355   1.004
 2049SOL     OW 1139   3.322   3.367   1.339
 2049SOL    HW1 1140   3.346   3.461   1.365
 2049SOL    HW2 1141   3.306   3.313   1.421
 2050SOL     OW 1142   2.300   2.254   1.499
 2050SOL    HW1 1143   2.382   2.198   1.508
 2050SOL    HW2 1144   2.219   2.196   1.503
 2053SOL     OW 1145   2.989   3.203   1.690
 2053SOL    HW1 1146   3.036   3.203   1.778
 2053SOL    HW2 1147   2.941   3.116   1.679
 2055SOL     OW 1148   2.102   2.953   0.886
 2055SOL    HW1 1149   2.116   2.869   0.938
 2055SOL    HW2 1150   2.047   3.017   0.941
 2056SOL     OW 1151   2.482   3.648   1.439
 2056SOL    HW1 1152   2.390   3.631   1.474
 2056SOL    HW2 1153   2.510   3.740   1.465
 2058SOL     OW 1154   3.456   1.976   1.480
 2058SOL    HW1 1155   3.438   2.043   1.408
 2058SOL    HW2 1156   3.453   2.022   1.569
 2064SOL     OW 1157   1.975   2.599   1.597
 2064SOL    HW1 1158   2.063   2.586   1.642
 2064SOL    HW2 1159   1.962   2.696   1.575
 2066SOL     OW 1160   3.155   3.090   1.423
 2066SOL    HW1 1161   3.192   3.017   1.365
 2066SOL    HW2 1162   3.207   3.095   1.508
 2068SOL     OW 1163   2.059   2.838   1.264
 2068SOL    HW1 1164   2.148   2.793   1.250
 2068SOL    HW2 1165   1.986   2.773   1.245
 2070SOL     OW 1166   3.049   3.654   1.616
 2070SOL    HW1 1167   3.073   3.714   1.540
 2070SOL    HW2 1168   3.056   3.559   1.586
 2071SOL     OW 1169   2.179   2.113   1.801
 2071SOL    HW1 1170   2.250   2.184   1.807
 2071SOL    HW2 1171   2.091   2.152   1.829
 2075SOL     OW 1172   3.143   2.207   0.944
 2075SOL    HW1 1173   3.057   2.157   0.931
 2075SOL    HW2 1174   3.205   2.153   1.000
 2077SOL     OW 1175   2.669   2.467   1.465
 2077SOL    HW1 1176   2.622   2.464   1.554
 2077SOL    HW2 1177   2.618   2.412   1.399
 2078SOL     OW 1178   3.256   2.331   1.674
 2078SOL    HW1 1179   3.236   2.374   1.762
 2078SOL    HW2 1180   3.334   2.269   1.683
 2079SOL     OW 1181   2.835   2.752   1.572
 2079SOL    HW1 1182   2.881   2.668   1.543
 2079SOL    HW2 1183   2.779   2.786   1.497
 2080SOL     OW 1184   2.853   2.272   1.242
 2080SOL    HW1 1185   2.776   2.306   1.296
 2080SOL    HW2 1186   2.819   2.221   1.163
 2082SOL     OW 1187   1.938   2.673   0.789
 2082SOL    HW1 1188   2.037   2.661   0.798
 2082SOL    HW2 1189   1.914   2.768   0.810
 2083SOL     OW 1190   1.992   3.683   1.571
 2083SOL    HW1 1191   1.982   3.668   1.670
 2083SOL    HW2 1192   1.906   3.719   1.535
 2085SOL     OW 1193   3.581   2.447   1.831
 2085SOL    HW1 1194   3.555   2.536   1.795
 2085SOL    HW2 1195   3.579   2.379   1.758
 2087SOL     OW 1196   2.412   2.058   0.885
 2087SOL    HW1 1197   2.407   2.053   0.985
 2087SOL    HW2 1198   2.414   2.154   0.856
 2091SOL     OW 1199   3.089   3.412   1.506
 2091SOL    HW1 1200   3.095   3.335   1.570
 2091SOL    HW2 1201   3.037   3.386   1.426
 2094SOL     OW 1202   2.323   3.128   1.727
 2094SOL    HW1 1203   2.273   3.129   1.641
 2094SOL    HW2 1204   2.260   3.110   1.803
 2096SOL     OW 1205   2.064   2.147   1.498
 2096SOL    HW1 1206   1.984   2.207   1.485
 2096SOL    HW2 1207   2.054   2.098   1.584
 2100SOL     OW 1208   2.111   3.647   1.241
 2100SOL    HW1 1209   2.168   3.582   1.291
 2100SOL    HW2 1210   2.095   3.614   1.148
 2103SOL     OW 1211   3.409   2.084   1.729
 2103SOL    HW1 1212   3.404   2.121   1.821
 2103SOL    HW2 1213   3.337   2.015   1.717
 2105SOL     OW 1214   2.643   2.126   1.749
 2105SOL    HW1 1215   2.710   2.065   1.792
 2105SOL    HW2 1216   2.570   2.145   1.814
 2106SOL     OW 1217   2.750   3.376   1.195
 2106SOL    HW1 1218   2.727   3.351   1.101
 2106SOL    HW2 1219   2.811   3.307   1.234
 2107SOL     OW 1220   3.213   2.452   1.433
 2107SOL    HW1 1221   3.241   2.409   1.518
 2107SOL    HW2 1222   3.238   2.548   1.434
 2108SOL     OW 1223   2.665   3.264   0.924
 2108SOL    HW1 1224   2.755   3.278   0.882
 2108SOL    HW2 1225   2.594   3.266   0.853
 2109SOL     OW 1226   2.784   2.365   0.899
 2109SOL    HW1 1227   2.759   2.356   0.803
 2109SOL    HW2 1228   2.832   2.283   0.930
 2114SOL     OW 1229   2.938   2.545   1.464
 2114SOL    HW1 1230   2.858   2.484   1.467
 2114SOL    HW2 1231   3.019   2.492   1.440
 2119SOL     OW 1232   1.940   2.418   1.386
 2119SOL    HW1 1233   2.032   2.417   1.345
 2119SOL    HW2 1234   1.934   2.492   1.453
 2120SOL     OW 1235   2.423   2.084   1.147
 2120SOL    HW1 1236   2.461   2.000   1.184
 2120SOL    HW2 1237   2.335   2.103   1.191
 2124SOL     OW 1238   3.328   2.452   0.992
 2124SOL    HW1 1239   3.298   2.357   0.999
 2124SOL    HW2 1240   3.401   2.468   1.058
 2130SOL     OW 1241   3.616   3.085   1.588
 2130SOL    HW1 1242   3.707   3.046   1.575
 2130SOL    HW2 1243   3.624   3.181   1.612
 2131SOL     OW 1244   2.926   3.209   1.340
 2131SOL    HW1 1245   2.846   3.186   1.395
 2131SOL    HW2 1246   3.009   3.183   1.389
 2132SOL     OW 1247   3.454   3.491   1.625
 2132SOL    HW1 1248   3.481   3.525   1.535
 2132SOL    HW2 1249   3.533   3.453   1.671
 2133SOL     OW 1250   2.973   3.057   1.100
 2133SOL    HW1 1251   2.933   3.101   1.181
 2133SOL    HW2 1252   2.932   3.094   1.017
 2135SOL     OW 1253   2.777   1.951   1.402
 2135SOL    HW1 1254   2.802   1.931   1.307
 2135SOL    HW2 1255   2.849   2.007   1.444
 2136SOL     OW 1256   2.842   2.978   1.719
 2136SOL    HW1 1257   2.743   2.984   1.729
 2136SOL    HW2 1258   2.865   2.898   1.663
 2138SOL     OW 1259   2.272   2.675   1.251
 2138SOL    HW1 1260   2.358   2.687   1.301
 2138SOL    HW2 1261   2.230   2.588   1.278
 2139SOL     OW 1262   3.136   2.248   1.262
 2139SOL    HW1 1263   3.157   2.322   1.326
 2139SOL    HW2 1264   3.047   2.265   1.219
 2140SOL     OW 1265   1.926   3.426   1.331
 2140SOL    HW1 1266   1.880   3.508   1.297
 2140SOL    HW2 1267   2.024   3.445   1.340
 2142SOL     OW 1268   2.428   2.399   0.865
 2142SOL    HW1 1269   2.440   2.465   0.791
 2142SOL    HW2 1270   2.474   2.433   0.948
 2144SOL     OW 1271   3.134   3.307   1.142
 2144SOL    HW1 1272   3.181   3.320   1.229
 2144SOL    HW2 1273   3.068   3.233   1.151
 2146SOL     OW 1274   2.216   3.372   1.329
 2146SOL    HW1 1275   2.195   3.328   1.242
 2146SOL    HW2 1276   2.313   3.398   1.332
 2147SOL     OW 1277   2.264   2.613   1.598
 2147SOL    HW1 1278   2.332   2.668   1.551
 2147SOL    HW2 1279   2.304   2.525   1.625
 2148SOL     OW 1280   3.449   2.641   1.670
 2148SOL    HW1 1281   3.357   2.679   1.665
 2148SOL    HW2 1282   3.509   2.688   1.605
 2149SOL     OW 1283   2.875   1.967   1.770
 2149SOL    HW1 1284   2.881   2.052   1.718
 2149SOL    HW2 1285   2.907   1.891   1.713
 2150SOL     OW 1286   2.366   1.912   1.740
 2150SOL    HW1 1287   2.324   1.855   1.670
 2150SOL    HW2 1288   2.300   1.981   1.772
 2151SOL     OW 1289   2.435   2.732   1.029
 2151SOL    HW1 1290   2.479   2.821   1.020
 2151SOL    HW2 1291   2.372   2.732   1.106
 2152SOL     OW 1292   3.222   2.724   1.045
 2152SOL    HW1 1293   3.147   2.724   0.979
 2152SOL    HW2 1294   3.259   2.632   1.054
 2154SOL     OW 1295   2.169   2.075   1.231
 2154SOL    HW1 1296   2.146   2.112   1.321
 2154SOL    HW2 1297   2.139   1.980   1.225
 2155SOL     OW 1298   1.899   3.172   1.282
 2155SOL    HW1 1299   1.952   3.123   1.350
 2155SOL    HW2 1300   1.921   3.270   1.287
 2156SOL     OW 1301   2.594   2.496   1.064
 2156SOL    HW1 1302   2.653   2.470   0.988
 2156SOL    HW2 1303   2.566   2.592   1.053
 2157SOL     OW 1304   3.590   2.797   1.854
 2157SOL    HW1 1305   3.544   2.790   1.765
 2157SOL    HW2 1306   3.528   2.841   1.920
 2160SOL     OW 1307   2.885   2.628   0.966
 2160SOL    HW1 1308   2.900   2.649   1.062
 2160SOL    HW2 1309   2.855   2.533   0.957
 2161SOL     OW 1310   2.842   3.435   1.700
 2161SOL    HW1 1311   2.822   3.479   1.612
 2161SOL    HW2 1312   2.881   3.344   1.684
 2162SOL     OW 1313   3.721   3.380   1.605
 2162SOL    HW1 1314   3.735   3.407   1.510
 2162SOL    HW2 1315   3.804   3.402   1.658
 2163SOL     OW 1316   2.212   2.760   1.804
 2163SOL    HW1 1317   2.288   2.804   1.852
 2163SOL    HW2 1318   2.247   2.713   1.722
 2167SOL     OW 1319   2.181   2.672   0.949
 2167SOL    HW1 1320   2.274   2.708   0.954
 2167SOL    HW2 1321   2.175   2.587   1.001
 2168SOL     OW 1322   2.201   2.371   1.006
 2168SOL    HW1 1323   2.149   2.288   0.989
 2168SOL    HW2 1324   2.278   2.376   0.942
 2169SOL     OW 1325   3.000   2.242   1.678
 2169SOL    HW1 1326   2.955   2.305   1.742
 2169SOL    HW2 1327   3.093   2.273   1.661
 2170SOL     OW 1328   3.022   2.069   1.477
 2170SOL    HW1 1329   3.022   2.133   1.554
 2170SOL    HW2 1330   3.050   2.117   1.394
 2174SOL     OW 1331   2.864   2.658   1.238
 2174SOL    HW1 1332   2.905   2.626   1.324
 2174SOL    HW2 1333   2.768   2.631   1.235
 2175SOL     OW 1334   1.902   2.406   1.114
 2175SOL    HW1 1335   1.987   2.373   1.073
 2175SOL    HW2 1336   1.915   2.421   1.212
 2176SOL     OW 1337   2.051   2.382   1.722
 2176SOL    HW1 1338   2.110   2.342   1.652
 2176SOL    HW2 1339   1.993   2.453   1.681
 2177SOL     OW 1340   3.231   2.812   1.660
 2177SOL    HW1 1341   3.270   2.901   1.680
 2177SOL    HW2 1342   3.241   2.792   1.563
 2179SOL     OW 1343   3.519   2.466   1.206
 2179SOL    HW1 1344   3.481   2.397   1.268
 2179SOL    HW2 1345   3.601   2.430   1.162
 2180SOL     OW 1346   2.114   3.426   1.744
 2180SOL    HW1 1347   2.084   3.483   1.820
 2180SOL    HW2 1348   2.107   3.329   1.770
 2181SOL     OW 1349   2.533   2.326   1.269
 2181SOL    HW1 1350   2.499   2.237   1.239
 2181SOL    HW2 1351   2.559   2.380   1.189
 2182SOL     OW 1352   2.792   3.540   1.465
 2182SOL    HW1 1353   2.768   3.522   1.370
 2182SOL    HW2 1354   2.822   3.634   1.475
 2184SOL     OW 1355   2.021   2.999   1.466
 2184SOL    HW1 1356   2.043   2.938   1.542
 2184SOL    HW2 1357   2.031   2.950   1.380
 2185SOL     OW 1358   3.209   2.921   1.234
 2185SOL    HW1 1359   3.233   2.858   1.160
 2185SOL    HW2 1360   3.119   2.961   1.216
 2189SOL     OW 1361   1.945   3.120   1.022
 2189SOL    HW1 1362   1.940   3.119   1.122
 2189SOL    HW2 1363   1.862   3.079   0.984
 2190SOL     OW 1364   2.550   3.524   1.716
 2190SOL    HW1 1365   2.494   3.605   1.725
 2190SOL    HW2 1366   2.602   3.528   1.630
 2194SOL     OW 1367   1.992   3.656   1.851
 2194SOL    HW1 1368   1.951   3.582   1.904
 2194SOL    HW2 1369   2.056   3.707   1.909
 2196SOL     OW 1370   2.692   3.135   1.422
 2196SOL    HW1 1371   2.687   3.168   1.517
 2196SOL    HW2 1372   2.606   3.154   1.376
 2200SOL     OW 1373   2.125   2.188   0.720
 2200SOL    HW1 1374   2.046   2.239   0.686
 2200SOL    HW2 1375   2.116   2.173   0.818
 2202SOL     OW 1376   2.684   2.864   1.372
 2202SOL    HW1 1377   2.724   2.863   1.280
 2202SOL    HW2 1378   2.694   2.956   1.412
 2205SOL     OW 1379   2.234   3.150   1.490
 2205SOL    HW1 1380   2.221   3.243   1.456
 2205SOL    HW2 1381   2.150   3.098   1.477
 2206SOL     OW 1382   3.476   3.154   1.289
 2206SOL    HW1 1383   3.536   3.157   1.369
 2206SOL    HW2 1384   3.401   3.218   1.302
 2208SOL     OW 1385   2.876   2.098   0.971
 2208SOL    HW1 1386   2.868   2.062   0.878
 2208SOL    HW2 1387   2.874   2.022   1.036
 2210SOL     OW 1388   3.571   2.247   1.381
 2210SOL    HW1 1389   3.644   2.316   1.385
 2210SOL    HW2 1390   3.599   2.172   1.322
 2212SOL     OW 1391   1.967   2.875   1.726
 2212SOL    HW1 1392   1.890   2.842   1.780
 2212SOL    HW2 1393   2.052   2.845   1.768
 2213SOL     OW 1394   2.534   2.065   1.489
 2213SOL    HW1 1395   2.624   2.049   1.449
 2213SOL    HW2 1396   2.542   2.070   1.588
 2214SOL     OW 1397   3.302   2.718   1.398
 2214SOL    HW1 1398   3.245   2.770   1.335
 2214SOL    HW2 1399   3.398   2.730   1.374
 2217SOL     OW 1400   2.475   2.704   1.431
 2217SOL    HW1 1401   2.531   2.785   1.414
 2217SOL    HW2 1402   2.534   2.624   1.434
 2219SOL     OW 1403   2.578   2.427   1.708
 2219SOL    HW1 1404   2.597   2.492   1.782
 2219SOL    HW2 1405   2.638   2.347   1.717
 2220SOL     OW 1406   3.312   3.082   1.633
 2220SOL    HW1 1407   3.303   3.072   1.732
 2220SOL    HW2 1408   3.408   3.075   1.607
 2221SOL     OW 1409   2.252   3.603   1.560
 2221SOL    HW1 1410   2.161   3.644   1.558
 2221SOL    HW2 1411   2.245   3.509   1.592
 2222SOL     OW 1412   3.536   2.745   1.254
 2222SOL    HW1 1413   3.509   2.656   1.217
 2222SOL    HW2 1414   3.537   2.813   1.181
 2225SOL     OW 1415   3.639   2.204   1.642
 2225SOL    HW1 1416   3.622   2.235   1.548
 2225SOL    HW2 1417   3.555   2.167   1.680
 2226SOL     OW 1418   3.592   2.796   1.517
 2226SOL    HW1 1419   3.630   2.887   1.532
 2226SOL    HW2 1420   3.584   2.779   1.418
 2229SOL     OW 1421   2.721   2.818   0.861
 2229SOL    HW1 1422   2.775   2.749   0.909
 2229SOL    HW2 1423   2.689   2.887   0.927
 2232SOL     OW 1424   2.083   3.176   1.844
 2232SOL    HW1 1425   2.018   3.103   1.823
 2232SOL    HW2 1426   2.087   3.190   1.942
 2234SOL     OW 1427   2.534   3.253   1.624
 2234SOL    HW1 1428   2.456   3.203   1.662
 2234SOL    HW2 1429   2.531   3.348   1.655
 2235SOL     OW 1430   3.686   2.054   1.227
 2235SOL    HW1 1431   3.682   1.964   1.271
 2235SOL    HW2 1432   3.689   2.043   1.128
 2238SOL     OW 1433   2.179   2.409   1.280
 2238SOL    HW1 1434   2.217   2.350   1.352
 2238SOL    HW2 1435   2.219   2.383   1.192
 2240SOL     OW 1436   3.286   2.076   1.112
 2240SOL    HW1 1437   3.338   2.011   1.167
 2240SOL    HW2 1438   3.237   2.139   1.173
 2241SOL     OW 1439   2.863   1.896   1.154
 2241SOL    HW1 1440   2.800   1.824   1.123
 2241SOL    HW2 1441   2.956   1.860   1.154
 2243SOL     OW 1442   2.480   3.429   1.284
 2243SOL    HW1 1443   2.475   3.511   1.341
 2243SOL    HW2 1444   2.569   3.426   1.239
 2249SOL     OW 1445   2.092   2.490   1.975
 2249SOL    HW1 1446   1.999   2.488   2.012
 2249SOL    HW2 1447   2.093   2.451   1.883
 2250SOL     OW 1448   2.087   2.137   2.858
 2250SOL    HW1 1449   2.122   2.120   2.950
 2250SOL    HW2 1450   1.999   2.092   2.846
 2251SOL     OW 1451   1.881   2.230   2.509
 2251SOL    HW1 1452   1.799   2.273   2.548
 2251SOL    HW2 1453   1.853   2.157   2.446
 2252SOL     OW 1454   2.431   3.137   3.027
 2252SOL    HW1 1455   2.338   3.130   2.990
 2252SOL    HW2 1456   2.442   3.226   3.071
 2253SOL     OW 1457   3.417   3.373   2.565
 2253SOL    HW1 1458   3.360   3.357   2.646
 2253SOL    HW2 1459   3.358   3.383   2.485
 2254SOL     OW 1460   2.997   2.565   2.579
 2254SOL    HW1 1461   3.054   2.643   2.554
 2254SOL    HW2 1462   2.937   2.591   2.655
 2255SOL     OW 1463   3.617   2.469   2.093
 2255SOL    HW1 1464   3.605   2.456   1.994
 2255SOL    HW2 1465   3.587   2.388   2.142
 2256SOL     OW 1466   2.630   3.006   2.885
 2256SOL    HW1 1467   2.552   3.023   2.945
 2256SOL    HW2 1468   2.664   3.093   2.849
 2257SOL     OW 1469   2.712   2.660   3.685
 2257SOL    HW1 1470   2.708   2.736   3.750
 2257SOL    HW2 1471   2.734   2.696   3.594
 2258SOL     OW 1472   2.548   3.023   3.665
 2258SOL    HW1 1473   2.608   3.102   3.679
 2258SOL    HW2 1474   2.462   3.054   3.624
 2259SOL     OW 1475   2.197   3.297   2.923
 2259SOL    HW1 1476   2.119   3.266   2.870
 2259SOL    HW2 1477   2.255   3.355   2.866
 2260SOL     OW 1478   3.322   3.367   3.201
 2260SOL    HW1 1479   3.346   3.461   3.227
 2260SOL    HW2 1480   3.306   3.313   3.283
 2261SOL     OW 1481   2.300   2.254   3.361
 2261SOL    HW1 1482   2.382   2.198   3.370
 2261SOL    HW2 1483   2.219   2.196   3.365
 2262SOL     OW 1484   3.465   2.309   2.599
 2262SOL    HW1 1485   3.391   2.355   2.549
 2262SOL    HW2 1486   3.516   2.377   2.652
 2263SOL     OW 1487   2.093   3.575   2.345
 2263SOL    HW1 1488   2.127   3.652   2.399
 2263SOL    HW2 1489   2.137   3.575   2.255
 2264SOL     OW 1490   2.989   3.203   3.552
 2264SOL    HW1 1491   3.036   3.203   3.640
 2264SOL    HW2 1492   2.941   3.116   3.541
 2265SOL     OW 1493   2.092   3.296   2.400
 2265SOL    HW1 1494   2.066   3.392   2.400
 2265SOL    HW2 1495   2.021   3.242   2.445
 2266SOL     OW 1496   2.102   2.953   2.748
 2266SOL    HW1 1497   2.116   2.869   2.800
 2266SOL    HW2 1498   2.047   3.017   2.803
 2267SOL     OW 1499   2.482   3.648   3.301
 2267SOL    HW1 1500   2.390   3.631   3.336
 2267SOL    HW2 1501   2.510   3.740   3.327
 2268SOL     OW 1502   2.468   2.826   1.985
 2268SOL    HW1 1503   2.475   2.910   1.931
 2268SOL    HW2 1504   2.514   2.839   2.073
 2269SOL     OW 1505   3.456   1.976   3.342
 2269SOL    HW1 1506   3.438   2.043   3.270
 2269SOL    HW2 1507   3.453   2.022   3.431
 2270SOL     OW 1508   1.984   2.505   2.425
 2270SOL    HW1 1509   1.939   2.417   2.442
 2270SOL    HW2 1510   1.983   2.559   2.509
 2271SOL     OW 1511   3.704   3.629   2.221
 2271SOL    HW1 1512   3.758   3.600   2.301
 2271SOL    HW2 1513   3.734   3.719   2.192
 2272SOL     OW 1514   1.889   3.458   1.979
 2272SOL    HW1 1515   1.870   3.362   2.000
 2272SOL    HW2 1516   1.856   3.516   2.054
 2273SOL     OW 1517   3.551   2.784   2.474
 2273SOL    HW1 1518   3.646   2.755   2.482
 2273SOL    HW2 1519   3.543   2.849   2.399
 2274SOL     OW 1520   3.503   2.970   2.294
 2274SOL    HW1 1521   3.589   2.972   2.242
 2274SOL    HW2 1522   3.517   3.017   2.382
 2275SOL     OW 1523   1.975   2.599   3.459
 2275SOL    HW1 1524   2.063   2.586   3.504
 2275SOL    HW2 1525   1.962   2.696   3.437
 2276SOL     OW 1526   2.475   3.227   2.588
 2276SOL    HW1 1527   2.426   3.140   2.597
 2276SOL    HW2 1528   2.452   3.270   2.501
 2277SOL     OW 1529   3.155   3.090   3.285
 2277SOL    HW1 1530   3.192   3.017   3.227
 2277SOL    HW2 1531   3.207   3.095   3.370
 2278SOL     OW 1532   2.671   1.866   2.364
 2278SOL    HW1 1533   2.711   1.957   2.355
 2278SOL    HW2 1534   2.571   1.874   2.370
 2279SOL     OW 1535   2.059   2.838   3.126
 2279SOL    HW1 1536   2.148   2.793   3.112
 2279SOL    HW2 1537   1.986   2.773   3.107
 2280SOL     OW 1538   3.387   2.861   2.052
 2280SOL    HW1 1539   3.324   2.785   2.065
 2280SOL    HW2 1540   3.435   2.879   2.138
 2281SOL     OW 1541   3.049   3.654   3.478
 2281SOL    HW1 1542   3.073   3.714   3.402
 2281SOL    HW2 1543   3.056   3.559   3.448
 2282SOL     OW 1544   2.179   2.113   3.663
 2282SOL    HW1 1545   2.250   2.184   3.669
 2282SOL    HW2 1546   2.091   2.152   3.691
 2283SOL     OW 1547   3.328   3.279   2.815
 2283SOL    HW1 1548   3.269   3.285   2.895
 2283SOL    HW2 1549   3.313   3.191   2.769
 2284SOL     OW 1550   3.529   3.576   2.434
 2284SOL    HW1 1551   3.488   3.553   2.346
 2284SOL    HW2 1552   3.511   3.502   2.499
 2285SOL     OW 1553   3.143   2.207   2.806
 2285SOL    HW1 1554   3.057   2.157   2.793
 2285SOL    HW2 1555   3.205   2.153   2.862
 2286SOL     OW 1556   3.438   3.524   2.169
 2286SOL    HW1 1557   3.527   3.570   2.172
 2286SOL    HW2 1558   3.417   3.500   2.074
 2287SOL     OW 1559   2.669   2.467   3.327
 2287SOL    HW1 1560   2.622   2.464   3.416
 2287SOL    HW2 1561   2.618   2.412   3.261
 2288SOL     OW 1562   3.256   2.331   3.536
 2288SOL    HW1 1563   3.236   2.374   3.624
 2288SOL    HW2 1564   3.334   2.269   3.545
 2289SOL     OW 1565   2.835   2.752   3.434
 2289SOL    HW1 1566   2.881   2.668   3.405
 2289SOL    HW2 1567   2.779   2.786   3.359
 2290SOL     OW 1568   2.853   2.272   3.104
 2290SOL    HW1 1569   2.776   2.306   3.158
 2290SOL    HW2 1570   2.819   2.221   3.025
 2291SOL     OW 1571   2.903   2.563   2.291
 2291SOL    HW1 1572   2.929   2.559   2.387
 2291SOL    HW2 1573   2.818   2.512   2.277
 2292SOL     OW 1574   1.938   2.673   2.651
 2292SOL    HW1 1575   2.037   2.661   2.660
 2292SOL    HW2 1576   1.914   2.768   2.672
 2293SOL     OW 1577   1.992   3.683   3.433
 2293SOL    HW1 1578   1.982   3.668   3.532
 2293SOL    HW2 1579   1.906   3.719   3.397
 2294SOL     OW 1580   2.727   2.210   2.057
 2294SOL    HW1 1581   2.786   2.273   2.008
 2294SOL    HW2 1582   2.746   2.116   2.028
 2295SOL     OW 1583   3.581   2.447   3.693
 2295SOL    HW1 1584   3.555   2.536   3.657
 2295SOL    HW2 1585   3.579   2.379   3.620
 2296SOL     OW 1586   3.224   3.006   2.407
 2296SOL    HW1 1587   3.307   2.977   2.359
 2296SOL    HW2 1588   3.175   3.073   2.351
 2297SOL     OW 1589   2.412   2.058   2.747
 2297SOL    HW1 1590   2.407   2.053   2.847
 2297SOL    HW2 1591   2.414   2.154   2.718
 2298SOL     OW 1592   2.870   3.318   2.339
 2298SOL    HW1 1593   2.824   3.390   2.287
 2298SOL    HW2 1594   2.866   3.338   2.437
 2299SOL     OW 1595   2.213   3.663   2.715
 2299SOL    HW1 1596   2.263   3.577   2.721
 2299SOL    HW2 1597   2.278   3.740   2.712
 2300SOL     OW 1598   3.657   2.928   2.735
 2300SOL    HW1 1599   3.595   2.913   2.659
 2300SOL    HW2 1600   3.605   2.939   2.820
 2301SOL     OW 1601   3.089   3.412   3.368
 2301SOL    HW1 1602   3.095   3.335   3.432
 2301SOL    HW2 1603   3.037   3.386   3.288
 2302SOL     OW 1604   2.183   2.805   2.104
 2302SOL    HW1 1605   2.265   2.844   2.062
 2302SOL    HW2 1606   2.156   2.723   2.055
 2303SOL     OW 1607   3.320   2.597   2.590
 2303SOL    HW1 1608   3.315   2.532   2.665
 2303SOL    HW2 1609   3.400   2.656   2.603
 2304SOL     OW 1610   2.323   3.128   3.589
 2304SOL    HW1 1611   2.273   3.129   3.503
 2304SOL    HW2 1612   2.260   3.110   3.665
 2305SOL     OW 1613   2.973   3.638   2.099
 2305SOL    HW1 1614   2.913   3.576   2.149
 2305SOL    HW2 1615   3.004   3.594   2.014
 2306SOL     OW 1616   2.064   2.147   3.360
 2306SOL    HW1 1617   1.984   2.207   3.347
 2306SOL    HW2 1618   2.054   2.098   3.446
 2307SOL     OW 1619   3.494   3.239   1.943
 2307SOL    HW1 1620   3.462   3.333   1.933
 2307SOL    HW2 1621   3.418   3.176   1.931
 2308SOL     OW 1622   2.326   3.605   2.185
 2308SOL    HW1 1623   2.359   3.644   2.271
 2308SOL    HW2 1624   2.402   3.598   2.120
 2309SOL     OW 1625   3.262   1.969   2.288
 2309SOL    HW1 1626   3.238   1.932   2.198
 2309SOL    HW2 1627   3.361   1.985   2.292
 2310SOL     OW 1628   2.111   3.647   3.103
 2310SOL    HW1 1629   2.168   3.582   3.153
 2310SOL    HW2 1630   2.095   3.614   3.010
 2311SOL     OW 1631   2.802   3.560   2.766
 2311SOL    HW1 1632   2.882   3.503   2.787
 2311SOL    HW2 1633   2.753   3.520   2.689
 2312SOL     OW 1634   3.409   2.084   3.591
 2312SOL    HW1 1635   3.404   2.121   3.683
 2312SOL    HW2 1636   3.337   2.015   3.579
 2313SOL     OW 1637   2.476   1.984   1.979
 2313SOL    HW1 1638   2.574   1.962   1.986
 2313SOL    HW2 1639   2.445   1.967   1.886
 2314SOL     OW 1640   2.643   2.126   3.611
 2314SOL    HW1 1641   2.710   2.065   3.654
 2314SOL    HW2 1642   2.570   2.145   3.676
 2315SOL     OW 1643   2.750   3.376   3.057
 2315SOL    HW1 1644   2.727   3.351   2.963
 2315SOL    HW2 1645   2.811   3.307   3.096
 2316SOL     OW 1646   3.213   2.452   3.295
 2316SOL    HW1 1647   3.241   2.409   3.380
 2316SOL    HW2 1648   3.238   2.548   3.296
 2317SOL     OW 1649   2.665   3.264   2.786
 2317SOL    HW1 1650   2.755   3.278   2.744
 2317SOL    HW2 1651   2.594   3.266   2.715
 2318SOL     OW 1652   2.784   2.365   2.761
 2318SOL    HW1 1653   2.759   2.356   2.665
 2318SOL    HW2 1654   2.832   2.283   2.792
 2319SOL     OW 1655   2.401   1.926   2.374
 2319SOL    HW1 1656   2.320   1.927   2.432
 2319SOL    HW2 1657   2.404   2.009   2.319
 2320SOL     OW 1658   3.296   3.050   1.903
 2320SOL    HW1 1659   3.328   2.974   1.960
 2320SOL    HW2 1660   3.204   3.077   1.933
 2321SOL     OW 1661   2.159   1.897   2.033
 2321SOL    HW1 1662   2.208   1.981   2.012
 2321SOL    HW2 1663   2.221   1.832   2.078
 2322SOL     OW 1664   2.797   2.098   2.342
 2322SOL    HW1 1665   2.749   2.139   2.264
 2322SOL    HW2 1666   2.896   2.096   2.323
 2323SOL     OW 1667   2.938   2.545   3.326
 2323SOL    HW1 1668   2.858   2.484   3.329
 2323SOL    HW2 1669   3.019   2.492   3.302
 2324SOL     OW 1670   3.089   3.432   2.655
 2324SOL    HW1 1671   3.110   3.506   2.590
 2324SOL    HW2 1672   3.157   3.432   2.728
 2325SOL     OW 1673   2.321   3.014   2.603
 2325SOL    HW1 1674   2.250   2.987   2.668
 2325SOL    HW2 1675   2.295   2.986   2.510
 2326SOL     OW 1676   3.133   3.659   2.453
 2326SOL    HW1 1677   3.177   3.723   2.389
 2326SOL    HW2 1678   3.083   3.711   2.523
 2327SOL     OW 1679   2.894   2.411   1.878
 2327SOL    HW1 1680   2.853   2.493   1.839
 2327SOL    HW2 1681   2.958   2.437   1.951
 2328SOL     OW 1682   1.940   2.418   3.248
 2328SOL    HW1 1683   2.032   2.417   3.207
 2328SOL    HW2 1684   1.934   2.492   3.315
 2329SOL     OW 1685   2.423   2.084   3.009
 2329SOL    HW1 1686   2.461   2.000   3.046
 2329SOL    HW2 1687   2.335   2.103   3.053
 2330SOL     OW 1688   2.879   1.901   2.615
 2330SOL    HW1 1689   2.807   1.906   2.546
 2330SOL    HW2 1690   2.855   1.832   2.684
 2331SOL     OW 1691   3.291   3.035   2.729
 2331SOL    HW1 1692   3.236   2.951   2.722
 2331SOL    HW2 1693   3.317   3.064   2.637
 2332SOL     OW 1694   3.328   2.452   2.854
 2332SOL    HW1 1695   3.298   2.357   2.861
 2332SOL    HW2 1696   3.401   2.468   2.920
 2333SOL     OW 1697   3.719   2.695   2.239
 2333SOL    HW1 1698   3.761   2.631   2.303
 2333SOL    HW2 1699   3.681   2.644   2.161
 2334SOL     OW 1700   2.350   3.247   2.036
 2334SOL    HW1 1701   2.263   3.232   2.083
 2334SOL    HW2 1702   2.333   3.273   1.941
 2335SOL     OW 1703   3.526   3.142   2.519
 2335SOL    HW1 1704   3.625   3.150   2.533
 2335SOL    HW2 1705   3.481   3.226   2.550
 2336SOL     OW 1706   3.252   2.437   1.940
 2336SOL    HW1 1707   3.198   2.416   2.021
 2336SOL    HW2 1708   3.343   2.396   1.949
 2337SOL     OW 1709   2.389   2.118   2.190
 2337SOL    HW1 1710   2.416   2.059   2.115
 2337SOL    HW2 1711   2.389   2.213   2.159
 2338SOL     OW 1712   3.616   3.085   3.450
 2338SOL    HW1 1713   3.707   3.046   3.437
 2338SOL    HW2 1714   3.624   3.181   3.474
 2339SOL     OW 1715   2.926   3.209   3.202
 2339SOL    HW1 1716   2.846   3.186   3.257
 2339SOL    HW2 1717   3.009   3.183   3.251
 2340SOL     OW 1718   3.454   3.491   3.487
 2340SOL    HW1 1719   3.481   3.525   3.397
 2340SOL    HW2 1720   3.533   3.453   3.533
 2341SOL     OW 1721   2.973   3.057   2.962
 2341SOL    HW1 1722   2.933   3.101   3.043
 2341SOL    HW2 1723   2.932   3.094   2.879
 2342SOL     OW 1724   3.500   2.961   2.941
 2342SOL    HW1 1725   3.505   3.042   3.000
 2342SOL    HW2 1726   3.414   2.963   2.890
 2343SOL     OW 1727   2.777   1.951   3.264
 2343SOL    HW1 1728   2.802   1.931   3.169
 2343SOL    HW2 1729   2.849   2.007   3.306
 2344SOL     OW 1730   2.842   2.978   3.581
 2344SOL    HW1 1731   2.743   2.984   3.591
 2344SOL    HW2 1732   2.865   2.898   3.525
 2345SOL     OW 1733   2.567   2.912   2.230
 2345SOL    HW1 1734   2.553   2.919   2.329
 2345SOL    HW2 1735   2.651   2.861   2.212
 2346SOL     OW 1736   2.272   2.675   3.113
 2346SOL    HW1 1737   2.358   2.687   3.163
 2346SOL    HW2 1738   2.230   2.588   3.140
 2347SOL     OW 1739   3.136   2.248   3.124
 2347SOL    HW1 1740   3.157   2.322   3.188
 2347SOL    HW2 1741   3.047   2.265   3.081
 2348SOL     OW 1742   1.926   3.426   3.193
 2348SOL    HW1 1743   1.880   3.508   3.159
 2348SOL    HW2 1744   2.024   3.445   3.202
 2349SOL     OW 1745   2.229   2.962   2.363
 2349SOL    HW1 1746   2.222   3.045   2.307
 2349SOL    HW2 1747   2.233   2.882   2.303
 2350SOL     OW 1748   3.114   3.210   2.250
 2350SOL    HW1 1749   3.164   3.287   2.290
 2350SOL    HW2 1750   3.019   3.212   2.282
 2351SOL     OW 1751   3.134   3.307   3.004
 2351SOL    HW1 1752   3.181   3.320   3.091
 2351SOL    HW2 1753   3.068   3.233   3.013
 2352SOL     OW 1754   3.444   2.501   2.334
 2352SOL    HW1 1755   3.413   2.562   2.407
 2352SOL    HW2 1756   3.494   2.553   2.265
 2353SOL     OW 1757   2.216   3.372   3.191
 2353SOL    HW1 1758   2.195   3.328   3.104
 2353SOL    HW2 1759   2.313   3.398   3.194
 2354SOL     OW 1760   2.264   2.613   3.460
 2354SOL    HW1 1761   2.332   2.668   3.413
 2354SOL    HW2 1762   2.304   2.525   3.487
 2355SOL     OW 1763   3.449   2.641   3.532
 2355SOL    HW1 1764   3.357   2.679   3.527
 2355SOL    HW2 1765   3.509   2.688   3.467
 2356SOL     OW 1766   2.875   1.967   3.632
 2356SOL    HW1 1767   2.881   2.052   3.580
 2356SOL    HW2 1768   2.907   1.891   3.575
 2357SOL     OW 1769   2.366   1.912   3.602
 2357SOL    HW1 1770   2.324   1.855   3.532
 2357SOL    HW2 1771   2.300   1.981   3.634
 2358SOL     OW 1772   2.435   2.732   2.891
 2358SOL    HW1 1773   2.479   2.821   2.882
 2358SOL    HW2 1774   2.372   2.732   2.968
 2359SOL     OW 1775   3.222   2.724   2.907
 2359SOL    HW1 1776   3.147   2.724   2.841
 2359SOL    HW2 1777   3.259   2.632   2.916
 2360SOL     OW 1778   3.071   2.387   2.137
 2360SOL    HW1 1779   3.084   2.303   2.191
 2360SOL    HW2 1780   3.042   2.461   2.197
 2361SOL     OW 1781   2.169   2.075   3.093
 2361SOL    HW1 1782   2.146   2.112   3.183
 2361SOL    HW2 1783   2.139   1.980   3.087
 2362SOL     OW 1784   1.899   3.172   3.144
 2362SOL    HW1 1785   1.952   3.123   3.212
 2362SOL    HW2 1786   1.921   3.270   3.149
 2363SOL     OW 1787   3.590   2.797   3.716
 2363SOL    HW1 1788   3.544   2.790   3.627
 2363SOL    HW2 1789   3.528   2.841   3.782
 2364SOL     OW 1790   2.169   1.925   2.480
 2364SOL    HW1 1791   2.158   2.019   2.513
 2364SOL    HW2 1792   2.164   1.862   2.557
 2365SOL     OW 1793   3.484   2.229   2.236
 2365SOL    HW1 1794   3.486   2.153   2.300
 2365SOL    HW2 1795   3.436   2.306   2.276
 2366SOL     OW 1796   2.885   2.628   2.828
 2366SOL    HW1 1797   2.900   2.649   2.924
 2366SOL    HW2 1798   2.855   2.533   2.819
 2367SOL     OW 1799   2.842   3.435   3.562
 2367SOL    HW1 1800   2.822   3.479   3.474
 2367SOL    HW2 1801   2.881   3.344   3.546
 2369SOL     OW 1802   2.212   2.760   3.666
 2369SOL    HW1 1803   2.288   2.804   3.714
 2369SOL    HW2 1804   2.247   2.713   3.584
 2370SOL     OW 1805   3.402   2.136   1.987
 2370SOL    HW1 1806   3.341   2.061   2.010
 2370SOL    HW2 1807   3.424   2.188   2.070
 2371SOL     OW 1808   3.165   2.700   1.904
 2371SOL    HW1 1809   3.199   2.607   1.919
 2371SOL    HW2 1810   3.183   2.727   1.809
 2372SOL     OW 1811   2.930   3.195   2.711
 2372SOL    HW1 1812   2.937   3.111   2.656
 2372SOL    HW2 1813   2.992   3.264   2.675
 2373SOL     OW 1814   2.181   2.672   2.811
 2373SOL    HW1 1815   2.274   2.708   2.816
 2373SOL    HW2 1816   2.175   2.587   2.863
 2374SOL     OW 1817   3.000   2.242   3.540
 2374SOL    HW1 1818   2.955   2.305   3.604
 2374SOL    HW2 1819   3.093   2.273   3.523
 2375SOL     OW 1820   3.022   2.069   3.339
 2375SOL    HW1 1821   3.022   2.133   3.416
 2375SOL    HW2 1822   3.050   2.117   3.256
 2376SOL     OW 1823   1.870   3.188   2.062
 2376SOL    HW1 1824   1.777   3.209   2.031
 2376SOL    HW2 1825   1.880   3.089   2.075
 2377SOL     OW 1826   1.950   3.663   2.789
 2377SOL    HW1 1827   1.908   3.577   2.762
 2377SOL    HW2 1828   2.044   3.666   2.755
 2378SOL     OW 1829   2.366   3.430   2.772
 2378SOL    HW1 1830   2.432   3.504   2.781
 2378SOL    HW2 1831   2.410   3.351   2.730
 2379SOL     OW 1832   2.864   2.658   3.100
 2379SOL    HW1 1833   2.905   2.626   3.186
 2379SOL    HW2 1834   2.768   2.631   3.097
 2380SOL     OW 1835   1.902   2.406   2.976
 2380SOL    HW1 1836   1.987   2.373   2.935
 2380SOL    HW2 1837   1.915   2.421   3.074
 2381SOL     OW 1838   2.051   2.382   3.584
 2381SOL    HW1 1839   2.110   2.342   3.514
 2381SOL    HW2 1840   1.993   2.453   3.543
 2382SOL     OW 1841   3.231   2.812   3.522
 2382SOL    HW1 1842   3.270   2.901   3.542
 2382SOL    HW2 1843   3.241   2.792   3.425
 2383SOL     OW 1844   3.519   2.466   3.068
 2383SOL    HW1 1845   3.481   2.397   3.130
 2383SOL    HW2 1846   3.601   2.430   3.024
 2384SOL     OW 1847   2.114   3.426   3.606
 2384SOL    HW1 1848   2.084   3.483   3.682
 2384SOL    HW2 1849   2.107   3.329   3.632
 2385SOL     OW 1850   2.533   2.326   3.131
 2385SOL    HW1 1851   2.499   2.237   3.101
 2385SOL    HW2 1852   2.559   2.380   3.051
 2386SOL     OW 1853   2.792   3.540   3.327
 2386SOL    HW1 1854   2.768   3.522   3.232
 2386SOL    HW2 1855   2.822   3.634   3.337
 2387SOL     OW 1856   2.021   2.999   3.328
 2387SOL    HW1 1857   2.043   2.938   3.404
 2387SOL    HW2 1858   2.031   2.950   3.242
 2388SOL     OW 1859   3.209   2.921   3.096
 2388SOL    HW1 1860   3.233   2.858   3.022
 2388SOL    HW2 1861   3.119   2.961   3.078
 2389SOL     OW 1862   3.164   2.717   2.171
 2389SOL    HW1 1863   3.078   2.686   2.213
 2389SOL    HW2 1864   3.160   2.703   2.072
 2390SOL     OW 1865   3.621   3.609   3.016
 2390SOL    HW1 1866   3.682   3.639   2.943
 2390SOL    HW2 1867   3.583   3.520   2.994
 2391SOL     OW 1868   3.114   3.593   2.990
 2391SOL    HW1 1869   3.198   3.598   2.936
 2391SOL    HW2 1870   3.091   3.497   3.008
 2392SOL     OW 1871   1.945   3.120   2.884
 2392SOL    HW1 1872   1.940   3.119   2.984
 2392SOL    HW2 1873   1.862   3.079   2.846
 2393SOL     OW 1874   2.550   3.524   3.578
 2393SOL    HW1 1875   2.494   3.605   3.587
 2393SOL    HW2 1876   2.602   3.528   3.492
 2394SOL     OW 1877   3.588   1.997   2.385
 2394SOL    HW1 1878   3.661   1.980   2.318
 2394SOL    HW2 1879   3.557   1.910   2.423
 2395SOL     OW 1880   3.250   3.435   2.339
 2395SOL    HW1 1881   3.317   3.447   2.265
 2395SOL    HW2 1882   3.210   3.524   2.362
 2396SOL     OW 1883   1.992   3.656   3.713
 2396SOL    HW1 1884   1.951   3.582   3.766
 2396SOL    HW2 1885   2.056   3.707   3.771
 2397SOL     OW 1886   3.142   2.789   2.534
 2397SOL    HW1 1887   3.202   2.708   2.536
 2397SOL    HW2 1888   3.182   2.858   2.474
 2398SOL     OW 1889   2.692   3.135   3.284
 2398SOL    HW1 1890   2.687   3.168   3.379
 2398SOL    HW2 1891   2.606   3.154   3.238
 2399SOL     OW 1892   2.534   3.478   2.016
 2399SOL    HW1 1893   2.543   3.488   1.917
 2399SOL    HW2 1894   2.494   3.389   2.037
 2400SOL     OW 1895   3.512   3.582   3.256
 2400SOL    HW1 1896   3.565   3.592   3.172
 2400SOL    HW2 1897   3.485   3.672   3.290
 2401SOL     OW 1898   3.703   2.037   2.825
 2401SOL    HW1 1899   3.742   1.952   2.789
 2401SOL    HW2 1900   3.605   2.039   2.806
 2402SOL     OW 1901   2.125   2.188   2.582
 2402SOL    HW1 1902   2.046   2.239   2.548
 2402SOL    HW2 1903   2.116   2.173   2.680
 2403SOL     OW 1904   3.056   3.474   1.893
 2403SOL    HW1 1905   3.062   3.381   1.930
 2403SOL    HW2 1906   2.997   3.474   1.813
 2404SOL     OW 1907   2.684   2.864   3.234
 2404SOL    HW1 1908   2.724   2.863   3.142
 2404SOL    HW2 1909   2.694   2.956   3.274
 2405SOL     OW 1910   2.778   2.772   2.153
 2405SOL    HW1 1911   2.841   2.810   2.085
 2405SOL    HW2 1912   2.818   2.689   2.192
 2406SOL     OW 1913   3.366   3.469   1.906
 2406SOL    HW1 1914   3.274   3.506   1.913
 2406SOL    HW2 1915   3.404   3.489   1.816
 2407SOL     OW 1916   2.234   3.150   3.352
 2407SOL    HW1 1917   2.221   3.243   3.318
 2407SOL    HW2 1918   2.150   3.098   3.339
 2408SOL     OW 1919   3.476   3.154   3.151
 2408SOL    HW1 1920   3.536   3.157   3.231
 2408SOL    HW2 1921   3.401   3.218   3.164
 2409SOL     OW 1922   2.901   2.960   2.558
 2409SOL    HW1 1923   2.831   2.913   2.612
 2409SOL    HW2 1924   2.960   2.892   2.515
 2410SOL     OW 1925   2.876   2.098   2.833
 2410SOL    HW1 1926   2.868   2.062   2.740
 2410SOL    HW2 1927   2.874   2.022   2.898
 2411SOL     OW 1928   2.452   3.349   2.353
 2411SOL    HW1 1929   2.494   3.291   2.283
 2411SOL    HW2 1930   2.408   3.428   2.309
 2412SOL     OW 1931   3.571   2.247   3.243
 2412SOL    HW1 1932   3.644   2.316   3.247
 2412SOL    HW2 1933   3.599   2.172   3.184
 2413SOL     OW 1934   2.117   3.210   2.152
 2413SOL    HW1 1935   2.021   3.211   2.125
 2413SOL    HW2 1936   2.129   3.263   2.236
 2414SOL     OW 1937   1.967   2.875   3.588
 2414SOL    HW1 1938   1.890   2.842   3.642
 2414SOL    HW2 1939   2.052   2.845   3.630
 2415SOL     OW 1940   2.534   2.065   3.351
 2415SOL    HW1 1941   2.624   2.049   3.311
 2415SOL    HW2 1942   2.542   2.070   3.450
 2416SOL     OW 1943   1.937   2.207   1.895
 2416SOL    HW1 1944   1.845   2.179   1.866
 2416SOL    HW2 1945   1.968   2.284   1.839
 2417SOL     OW 1946   3.302   2.718   3.260
 2417SOL    HW1 1947   3.245   2.770   3.197
 2417SOL    HW2 1948   3.398   2.730   3.236
 2418SOL     OW 1949   1.934   2.028   2.180
 2418SOL    HW1 1950   1.917   2.111   2.126
 2418SOL    HW2 1951   2.024   1.991   2.158
 2419SOL     OW 1952   3.045   3.197   1.981
 2419SOL    HW1 1953   2.946   3.186   1.983
 2419SOL    HW2 1954   3.079   3.212   2.074
 2420SOL     OW 1955   2.475   2.704   3.293
 2420SOL    HW1 1956   2.531   2.785   3.276
 2420SOL    HW2 1957   2.534   2.624   3.296
 2421SOL     OW 1958   3.355   3.629   2.821
 2421SOL    HW1 1959   3.388   3.693   2.752
 2421SOL    HW2 1960   3.421   3.623   2.896
 2422SOL     OW 1961   2.578   2.427   3.570
 2422SOL    HW1 1962   2.597   2.492   3.644
 2422SOL    HW2 1963   2.638   2.347   3.579
 2423SOL     OW 1964   3.312   3.082   3.495
 2423SOL    HW1 1965   3.303   3.072   3.594
 2423SOL    HW2 1966   3.408   3.075   3.469
 2424SOL     OW 1967   2.252   3.603   3.422
 2424SOL    HW1 1968   2.161   3.644   3.420
 2424SOL    HW2 1969   2.245   3.509   3.454
 2425SOL     OW 1970   3.536   2.745   3.116
 2425SOL    HW1 1971   3.509   2.656   3.079
 2425SOL    HW2 1972   3.537   2.813   3.043
 2426SOL     OW 1973   3.087   2.187   2.311
 2426SOL    HW1 1974   3.152   2.113   2.300
 2426SOL    HW2 1975   3.107   2.237   2.395
 2427SOL     OW 1976   3.639   2.204   3.504
 2427SOL    HW1 1977   3.622   2.235   3.410
 2427SOL    HW2 1978   3.555   2.167   3.542
 2428SOL     OW 1979   3.592   2.796   3.379
 2428SOL    HW1 1980   3.630   2.887   3.394
 2428SOL    HW2 1981   3.584   2.779   3.280
 2429SOL     OW 1982   2.721   3.236   1.878
 2429SOL    HW1 1983   2.675   3.251   1.966
 2429SOL    HW2 1984   2.765   3.321   1.848
 2430SOL     OW 1985   2.523   3.652   2.815
 2430SOL    HW1 1986   2.477   3.740   2.802
 2430SOL    HW2 1987   2.622   3.664   2.808
 2431SOL     OW 1988   2.721   2.818   2.723
 2431SOL    HW1 1989   2.775   2.749   2.771
 2431SOL    HW2 1990   2.689   2.887   2.789
 2432SOL     OW 1991   2.945   2.846   1.949
 2432SOL    HW1 1992   2.922   2.899   1.867
 2432SOL    HW2 1993   3.026   2.790   1.930
 2433SOL     OW 1994   3.723   3.431   2.713
 2433SOL    HW1 1995   3.652   3.419   2.643
 2433SOL    HW2 1996   3.724   3.352   2.773
 2434SOL     OW 1997   2.083   3.176   3.706
 2434SOL    HW1 1998   2.018   3.103   3.685
 2434SOL    HW2 1999   2.087   3.190   3.804
 2435SOL     OW 2000   1.941   3.102   2.515
 2435SOL    HW1 2001   1.940   3.055   2.603
 2435SOL    HW2 2002   2.023   3.074   2.464
 2436SOL     OW 2003   2.534   3.253   3.486
 2436SOL    HW1 2004   2.456   3.203   3.524
 2436SOL    HW2 2005   2.531   3.348   3.517
 2437SOL     OW 2006   3.686   2.054   3.089
 2437SOL    HW1 2007   3.682   1.964   3.133
 2437SOL    HW2 2008   3.689   2.043   2.990
 2438SOL     OW 2009   3.567   3.349   2.966
 2438SOL    HW1 2010   3.474   3.324   2.939
 2438SOL    HW2 2011   3.593   3.299   3.048
 2439SOL     OW 2012   2.179   2.409   3.142
 2439SOL    HW1 2013   2.217   2.350   3.214
 2439SOL    HW2 2014   2.219   2.383   3.054
 2440SOL     OW 2015   2.674   3.448   2.549
 2440SOL    HW1 2016   2.706   3.458   2.455
 2440SOL    HW2 2017   2.595   3.386   2.551
 2441SOL     OW 2018   3.286   2.076   2.974
 2441SOL    HW1 2019   3.338   2.011   3.029
 2441SOL    HW2 2020   3.237   2.139   3.035
 2442SOL     OW 2021   2.863   1.896   3.016
 2442SOL    HW1 2022   2.800   1.824   2.985
 2442SOL    HW2 2023   2.956   1.860   3.016
 2443SOL     OW 2024   2.632   3.192   2.163
 2443SOL    HW1 2025   2.586   3.105   2.180
 2443SOL    HW2 2026   2.723   3.189   2.204
 2444SOL     OW 2027   2.480   3.429   3.146
 2444SOL    HW1 2028   2.475   3.511   3.203
 2444SOL    HW2 2029   2.569   3.426   3.101
 2445SOL     OW 2030   3.214   1.914   2.030
 2445SOL    HW1 2031   3.249   1.873   1.946
 2445SOL    HW2 2032   3.124   1.876   2.050
 2446SOL     OW 2033   3.162   2.315   2.553
 2446SOL    HW1 2034   3.103   2.395   2.557
 2446SOL    HW2 2035   3.177   2.280   2.646
 2447SOL     OW 2036   3.455   2.083   2.744
 2447SOL    HW1 2037   3.371   2.082   2.798
 2447SOL    HW2 2038   3.457   2.166   2.688
 2448SOL     OW 2039   1.901   2.939   2.162
 2448SOL    HW1 2040   2.000   2.928   2.153
 2448SOL    HW2 2041   1.861   2.853   2.194
 2449SOL     OW 2042   2.737   3.508   2.199
 2449SOL    HW1 2043   2.660   3.473   2.145
 2449SOL    HW2 2044   2.705   3.579   2.261
 2450SOL     OW 2045   2.092   2.490   3.837
 2450SOL    HW1 2046   1.999   2.488   3.874
 2450SOL    HW2 2047   2.093   2.451   3.745
 2463SOL     OW 2048   2.468   2.826   3.847
 2463SOL    HW1 2049   2.475   2.910   3.793
 2463SOL    HW2 2050   2.514   2.839   3.935
 2466SOL     OW 2051   1.889   3.458   3.841
 2466SOL    HW1 2052   1.870   3.362   3.862
 2466SOL    HW2 2053   1.856   3.516   3.916
 2472SOL     OW 2054   3.387   2.861   3.914
 2472SOL    HW1 2055   3.324   2.785   3.927
 2472SOL    HW2 2056   3.435   2.879   4.000
 2475SOL     OW 2057   2.460   2.591   3.994
 2475SOL    HW1 2058   2.484   2.660   3.926
 2475SOL    HW2 2059   2.382   2.624   4.048
 2478SOL     OW 2060   2.903   2.563   4.153
 2478SOL    HW1 2061   2.929   2.559   4.249
 2478SOL    HW2 2062   2.818   2.512   4.139
 2480SOL     OW 2063   2.727   2.210   3.919
 2480SOL    HW1 2064   2.786   2.273   3.870
 2480SOL    HW2 2065   2.746   2.116   3.890
 2486SOL     OW 2066   2.183   2.805   3.966
 2486SOL    HW1 2067   2.265   2.844   3.924
 2486SOL    HW2 2068   2.156   2.723   3.917
 2494SOL     OW 2069   2.244   2.562   4.204
 2494SOL    HW1 2070   2.289   2.472   4.201
 2494SOL    HW2 2071   2.150   2.551   4.237
 2495SOL     OW 2072   2.476   1.984   3.841
 2495SOL    HW1 2073   2.574   1.962   3.848
 2495SOL    HW2 2074   2.445   1.967   3.748
 2499SOL     OW 2075   3.296   3.050   3.765
 2499SOL    HW1 2076   3.328   2.974   3.822
 2499SOL    HW2 2077   3.204   3.077   3.795
 2500SOL     OW 2078   2.159   1.897   3.895
 2500SOL    HW1 2079   2.208   1.981   3.874
 2500SOL    HW2 2080   2.221   1.832   3.940
 2505SOL     OW 2081   2.894   2.411   3.740
 2505SOL    HW1 2082   2.853   2.493   3.701
 2505SOL    HW2 2083   2.958   2.437   3.813
 2511SOL     OW 2084   2.350   3.247   3.898
 2511SOL    HW1 2085   2.263   3.232   3.945
 2511SOL    HW2 2086   2.333   3.273   3.803
 2513SOL     OW 2087   3.252   2.437   3.802
 2513SOL    HW1 2088   3.198   2.416   3.883
 2513SOL    HW2 2089   3.343   2.396   3.811
 2514SOL     OW 2090   2.389   2.118   4.052
 2514SOL    HW1 2091   2.416   2.059   3.977
 2514SOL    HW2 2092   2.389   2.213   4.021
 2517SOL     OW 2093   2.567   2.912   4.092
 2517SOL    HW1 2094   2.553   2.919   4.191
 2517SOL    HW2 2095   2.651   2.861   4.074
 2526SOL     OW 2096   3.071   2.387   3.999
 2526SOL    HW1 2097   3.084   2.303   4.053
 2526SOL    HW2 2098   3.042   2.461   4.059
 2531SOL     OW 2099   3.402   2.136   3.849
 2531SOL    HW1 2100   3.341   2.061   3.872
 2531SOL    HW2 2101   3.424   2.188   3.932
 2532SOL     OW 2102   3.165   2.700   3.766
 2532SOL    HW1 2103   3.199   2.607   3.781
 2532SOL    HW2 2104   3.183   2.727   3.671
 2536SOL     OW 2105   1.870   3.188   3.924
 2536SOL    HW1 2106   1.777   3.209   3.893
 2536SOL    HW2 2107   1.880   3.089   3.937
 2541SOL     OW 2108   2.677   2.434   4.049
 2541SOL    HW1 2109   2.684   2.345   4.003
 2541SOL    HW2 2110   2.583   2.468   4.041
 2543SOL     OW 2111   2.335   2.362   3.915
 2543SOL    HW1 2112   2.396   2.442   3.919
 2543SOL    HW2 2113   2.240   2.393   3.922
 2544SOL     OW 2114   3.164   2.717   4.033
 2544SOL    HW1 2115   3.078   2.686   4.075
 2544SOL    HW2 2116   3.160   2.703   3.934
 2550SOL     OW 2117   2.534   3.478   3.878
 2550SOL    HW1 2118   2.543   3.488   3.779
 2550SOL    HW2 2119   2.494   3.389   3.899
 2553SOL     OW 2120   3.056   3.474   3.755
 2553SOL    HW1 2121   3.062   3.381   3.792
 2553SOL    HW2 2122   2.997   3.474   3.675
 2555SOL     OW 2123   2.778   2.772   4.015
 2555SOL    HW1 2124   2.841   2.810   3.947
 2555SOL    HW2 2125   2.818   2.689   4.054
 2560SOL     OW 2126   2.117   3.210   4.014
 2560SOL    HW1 2127   2.021   3.211   3.987
 2560SOL    HW2 2128   2.129   3.263   4.098
 2561SOL     OW 2129   1.937   2.207   3.757
 2561SOL    HW1 2130   1.845   2.179   3.728
 2561SOL    HW2 2131   1.968   2.284   3.701
 2562SOL     OW 2132   1.934   2.028   4.042
 2562SOL    HW1 2133   1.917   2.111   3.988
 2562SOL    HW2 2134   2.024   1.991   4.020
 2563SOL     OW 2135   3.045   3.197   3.843
 2563SOL    HW1 2136   2.946   3.186   3.845
 2563SOL    HW2 2137   3.079   3.212   3.936
 2568SOL     OW 2138   2.721   3.236   3.740
 2568SOL    HW1 2139   2.675   3.251   3.828
 2568SOL    HW2 2140   2.765   3.321   3.710
 2571SOL     OW 2141   2.945   2.846   3.811
 2571SOL    HW1 2142   2.922   2.899   3.729
 2571SOL    HW2 2143   3.026   2.790   3.792
 2578SOL     OW 2144   2.632   3.192   4.025
 2578SOL    HW1 2145   2.586   3.105   4.042
 2578SOL    HW2 2146   2.723   3.189   4.066
 2579SOL     OW 2147   3.214   1.914   3.892
 2579SOL    HW1 2148   3.249   1.873   3.808
 2579SOL    HW2 2149   3.124   1.876   3.912
 2582SOL     OW 2150   1.901   2.939   4.024
 2582SOL    HW1 2151   2.000   2.928   4.015
 2582SOL    HW2 2152   1.861   2.853   4.056
 2605SOL     OW 2153   2.179   3.975   1.801
 2605SOL    HW1 2154   2.250   4.046   1.807
 2605SOL    HW2 2155   2.091   4.014   1.829
 2625SOL     OW 2156   2.643   3.988   1.749
 2625SOL    HW1 2157   2.710   3.927   1.792
 2625SOL    HW2 2158   2.570   4.007   1.814
 2645SOL     OW 2159   2.777   3.813   1.402
 2645SOL    HW1 2160   2.802   3.793   1.307
 2645SOL    HW2 2161   2.849   3.869   1.444
 2654SOL     OW 2162   2.875   3.829   1.770
 2654SOL    HW1 2163   2.881   3.914   1.718
 2654SOL    HW2 2164   2.907   3.753   1.713
 2655SOL     OW 2165   2.366   3.774   1.740
 2655SOL    HW1 2166   2.324   3.717   1.670
 2655SOL    HW2 2167   2.300   3.843   1.772
 2694SOL     OW 2168   2.534   3.927   1.489
 2694SOL    HW1 2169   2.624   3.911   1.449
 2694SOL    HW2 2170   2.542   3.932   1.588
 2719SOL     OW 2171   2.087   3.999   2.858
 2719SOL    HW1 2172   2.122   3.982   2.950
 2719SOL    HW2 2173   1.999   3.954   2.846
 2720SOL     OW 2174   1.881   4.092   2.509
 2720SOL    HW1 2175   1.799   4.135   2.548
 2720SOL    HW2 2176   1.853   4.019   2.446
 2736SOL     OW 2177   2.671   3.728   2.364
 2736SOL    HW1 2178   2.711   3.819   2.355
 2736SOL    HW2 2179   2.571   3.736   2.370
 2741SOL     OW 2180   3.143   4.069   2.806
 2741SOL    HW1 2181   3.057   4.019   2.793
 2741SOL    HW2 2182   3.205   4.015   2.862
 2748SOL     OW 2183   2.727   4.072   2.057
 2748SOL    HW1 2184   2.786   4.135   2.008
 2748SOL    HW2 2185   2.746   3.978   2.028
 2750SOL     OW 2186   2.412   3.920   2.747
 2750SOL    HW1 2187   2.407   3.915   2.847
 2750SOL    HW2 2188   2.414   4.016   2.718
 2755SOL     OW 2189   3.262   3.831   2.288
 2755SOL    HW1 2190   3.238   3.794   2.198
 2755SOL    HW2 2191   3.361   3.847   2.292
 2758SOL     OW 2192   2.476   3.846   1.979
 2758SOL    HW1 2193   2.574   3.824   1.986
 2758SOL    HW2 2194   2.445   3.829   1.886
 2762SOL     OW 2195   2.401   3.788   2.374
 2762SOL    HW1 2196   2.320   3.789   2.432
 2762SOL    HW2 2197   2.404   3.871   2.319
 2763SOL     OW 2198   2.159   3.759   2.033
 2763SOL    HW1 2199   2.208   3.843   2.012
 2763SOL    HW2 2200   2.221   3.694   2.078
 2764SOL     OW 2201   2.797   3.960   2.342
 2764SOL    HW1 2202   2.749   4.001   2.264
 2764SOL    HW2 2203   2.896   3.958   2.323
 2769SOL     OW 2204   2.423   3.946   3.009
 2769SOL    HW1 2205   2.461   3.862   3.046
 2769SOL    HW2 2206   2.335   3.965   3.053
 2770SOL     OW 2207   2.728   4.178   2.504
 2770SOL    HW1 2208   2.696   4.250   2.442
 2770SOL    HW2 2209   2.752   4.097   2.451
 2771SOL     OW 2210   2.879   3.763   2.615
 2771SOL    HW1 2211   2.807   3.768   2.546
 2771SOL    HW2 2212   2.855   3.694   2.684
 2776SOL     OW 2213   2.389   3.980   2.190
 2776SOL    HW1 2214   2.416   3.921   2.115
 2776SOL    HW2 2215   2.389   4.075   2.159
 2779SOL     OW 2216   2.777   3.813   3.264
 2779SOL    HW1 2217   2.802   3.793   3.169
 2779SOL    HW2 2218   2.849   3.869   3.306
 2789SOL     OW 2219   2.366   3.774   3.602
 2789SOL    HW1 2220   2.324   3.717   3.532
 2789SOL    HW2 2221   2.300   3.843   3.634
 2793SOL     OW 2222   2.169   3.937   3.093
 2793SOL    HW1 2223   2.146   3.974   3.183
 2793SOL    HW2 2224   2.139   3.842   3.087
 2796SOL     OW 2225   2.169   3.787   2.480
 2796SOL    HW1 2226   2.158   3.881   2.513
 2796SOL    HW2 2227   2.164   3.724   2.557
 2817SOL     OW 2228   3.588   3.859   2.385
 2817SOL    HW1 2229   3.661   3.842   2.318
 2817SOL    HW2 2230   3.557   3.772   2.423
 2820SOL     OW 2231   2.125   4.050   2.582
 2820SOL    HW1 2232   2.046   4.101   2.548
 2820SOL    HW2 2233   2.116   4.035   2.680
 2824SOL     OW 2234   2.876   3.960   2.833
 2824SOL    HW1 2235   2.868   3.924   2.740
 2824SOL    HW2 2236   2.874   3.884   2.898
 2827SOL     OW 2237   2.534   3.927   3.351
 2827SOL    HW1 2238   2.624   3.911   3.311
 2827SOL    HW2 2239   2.542   3.932   3.450
 2828SOL     OW 2240   1.937   4.069   1.895
 2828SOL    HW1 2241   1.845   4.041   1.866
 2828SOL    HW2 2242   1.968   4.146   1.839
 2830SOL     OW 2243   1.934   3.890   2.180
 2830SOL    HW1 2244   1.917   3.973   2.126
 2830SOL    HW2 2245   2.024   3.853   2.158
 2836SOL     OW 2246   3.087   4.049   2.311
 2836SOL    HW1 2247   3.152   3.975   2.300
 2836SOL    HW2 2248   3.107   4.099   2.395
 2843SOL     OW 2249   2.290   4.148   2.382
 2843SOL    HW1 2250   2.320   4.076   2.320
 2843SOL    HW2 2251   2.251   4.108   2.465
 2845SOL     OW 2252   3.286   3.938   2.974
 2845SOL    HW1 2253   3.338   3.873   3.029
 2845SOL    HW2 2254   3.237   4.001   3.035
 2846SOL     OW 2255   2.863   3.758   3.016
 2846SOL    HW1 2256   2.800   3.686   2.985
 2846SOL    HW2 2257   2.956   3.722   3.016
 2848SOL     OW 2258   3.214   3.776   2.030
 2848SOL    HW1 2259   3.249   3.735   1.946
 2848SOL    HW2 2260   3.124   3.738   2.050
 2969SOL     OW 2261   3.854   1.821   1.571
 2969SOL    HW1 2262   3.844   1.806   1.670
 2969SOL    HW2 2263   3.768   1.857   1.535
 3041SOL     OW 2264   3.854   1.794   1.851
 3041SOL    HW1 2265   3.813   1.720   1.904
 3041SOL    HW2 2266   3.918   1.845   1.909
 3084SOL     OW 2267   3.955   1.713   2.345
 3084SOL    HW1 2268   3.989   1.790   2.399
 3084SOL    HW2 2269   3.999   1.713   2.255
 3091SOL     OW 2270   3.751   1.596   1.979
 3091SOL    HW1 2271   3.732   1.500   2.000
 3091SOL    HW2 2272   3.718   1.654   2.054
 3107SOL     OW 2273   4.075   1.801   2.715
 3107SOL    HW1 2274   4.125   1.715   2.721
 3107SOL    HW2 2275   4.140   1.878   2.712
 3112SOL     OW 2276   3.973   1.785   3.103
 3112SOL    HW1 2277   4.030   1.720   3.153
 3112SOL    HW2 2278   3.957   1.752   3.010
 3137SOL     OW 2279   3.788   1.564   3.193
 3137SOL    HW1 2280   3.742   1.646   3.159
 3137SOL    HW2 2281   3.886   1.583   3.202
 3159SOL     OW 2282   3.732   1.326   2.062
 3159SOL    HW1 2283   3.639   1.347   2.031
 3159SOL    HW2 2284   3.742   1.227   2.075
 3160SOL     OW 2285   3.812   1.801   2.789
 3160SOL    HW1 2286   3.770   1.715   2.762
 3160SOL    HW2 2287   3.906   1.804   2.755
 3313SOL     OW 2288   3.837   2.599   1.597
 3313SOL    HW1 2289   3.925   2.586   1.642
 3313SOL    HW2 2290   3.824   2.696   1.575
 3317SOL     OW 2291   4.041   2.113   1.801
 3317SOL    HW1 2292   4.112   2.184   1.807
 3317SOL    HW2 2293   3.953   2.152   1.829
 3331SOL     OW 2294   3.926   2.147   1.498
 3331SOL    HW1 2295   3.846   2.207   1.485
 3331SOL    HW2 2296   3.916   2.098   1.584
 3349SOL     OW 2297   3.802   2.418   1.386
 3349SOL    HW1 2298   3.894   2.417   1.345
 3349SOL    HW2 2299   3.796   2.492   1.453
 3375SOL     OW 2300   4.074   2.760   1.804
 3375SOL    HW1 2301   4.150   2.804   1.852
 3375SOL    HW2 2302   4.109   2.713   1.722
 3386SOL     OW 2303   3.913   2.382   1.722
 3386SOL    HW1 2304   3.972   2.342   1.652
 3386SOL    HW2 2305   3.855   2.453   1.681
 3408SOL     OW 2306   3.829   2.875   1.726
 3408SOL    HW1 2307   3.752   2.842   1.780
 3408SOL    HW2 2308   3.914   2.845   1.768
 3419SOL     OW 2309   3.945   3.176   1.844
 3419SOL    HW1 2310   3.880   3.103   1.823
 3419SOL    HW2 2311   3.949   3.190   1.942
 3430SOL     OW 2312   3.954   2.490   1.975
 3430SOL    HW1 2313   3.861   2.488   2.012
 3430SOL    HW2 2314   3.955   2.451   1.883
 3431SOL     OW 2315   3.949   2.137   2.858
 3431SOL    HW1 2316   3.984   2.120   2.950
 3431SOL    HW2 2317   3.861   2.092   2.846
 3432SOL     OW 2318   3.743   2.230   2.509
 3432SOL    HW1 2319   3.661   2.273   2.548
 3432SOL    HW2 2320   3.715   2.157   2.446
 3442SOL     OW 2321   3.954   3.296   2.400
 3442SOL    HW1 2322   3.928   3.392   2.400
 3442SOL    HW2 2323   3.883   3.242   2.445
 3443SOL     OW 2324   3.964   2.953   2.748
 3443SOL    HW1 2325   3.978   2.869   2.800
 3443SOL    HW2 2326   3.909   3.017   2.803
 3446SOL     OW 2327   3.846   2.505   2.425
 3446SOL    HW1 2328   3.801   2.417   2.442
 3446SOL    HW2 2329   3.845   2.559   2.509
 3447SOL     OW 2330   3.751   3.458   1.979
 3447SOL    HW1 2331   3.732   3.362   2.000
 3447SOL    HW2 2332   3.718   3.516   2.054
 3448SOL     OW 2333   3.837   2.599   3.459
 3448SOL    HW1 2334   3.925   2.586   3.504
 3448SOL    HW2 2335   3.824   2.696   3.437
 3451SOL     OW 2336   3.921   2.838   3.126
 3451SOL    HW1 2337   4.010   2.793   3.112
 3451SOL    HW2 2338   3.848   2.773   3.107
 3458SOL     OW 2339   3.800   2.673   2.651
 3458SOL    HW1 2340   3.899   2.661   2.660
 3458SOL    HW2 2341   3.776   2.768   2.672
 3464SOL     OW 2342   4.045   2.805   2.104
 3464SOL    HW1 2343   4.127   2.844   2.062
 3464SOL    HW2 2344   4.018   2.723   2.055
 3466SOL     OW 2345   3.926   2.147   3.360
 3466SOL    HW1 2346   3.846   2.207   3.347
 3466SOL    HW2 2347   3.916   2.098   3.446
 3470SOL     OW 2348   4.106   2.562   2.342
 3470SOL    HW1 2349   4.151   2.472   2.339
 3470SOL    HW2 2350   4.012   2.551   2.375
 3477SOL     OW 2351   4.021   1.897   2.033
 3477SOL    HW1 2352   4.070   1.981   2.012
 3477SOL    HW2 2353   4.083   1.832   2.078
 3483SOL     OW 2354   3.802   2.418   3.248
 3483SOL    HW1 2355   3.894   2.417   3.207
 3483SOL    HW2 2356   3.796   2.492   3.315
 3493SOL     OW 2357   3.788   3.426   3.193
 3493SOL    HW1 2358   3.742   3.508   3.159
 3493SOL    HW2 2359   3.886   3.445   3.202
 3494SOL     OW 2360   4.091   2.962   2.363
 3494SOL    HW1 2361   4.084   3.045   2.307
 3494SOL    HW2 2362   4.095   2.882   2.303
 3503SOL     OW 2363   4.031   2.075   3.093
 3503SOL    HW1 2364   4.008   2.112   3.183
 3503SOL    HW2 2365   4.001   1.980   3.087
 3504SOL     OW 2366   3.761   3.172   3.144
 3504SOL    HW1 2367   3.814   3.123   3.212
 3504SOL    HW2 2368   3.783   3.270   3.149
 3506SOL     OW 2369   4.031   1.925   2.480
 3506SOL    HW1 2370   4.020   2.019   2.513
 3506SOL    HW2 2371   4.026   1.862   2.557
 3512SOL     OW 2372   4.043   2.672   2.811
 3512SOL    HW1 2373   4.136   2.708   2.816
 3512SOL    HW2 2374   4.037   2.587   2.863
 3513SOL     OW 2375   4.063   2.371   2.868
 3513SOL    HW1 2376   4.011   2.288   2.851
 3513SOL    HW2 2377   4.140   2.376   2.804
 3516SOL     OW 2378   3.732   3.188   2.062
 3516SOL    HW1 2379   3.639   3.209   2.031
 3516SOL    HW2 2380   3.742   3.089   2.075
 3520SOL     OW 2381   3.764   2.406   2.976
 3520SOL    HW1 2382   3.849   2.373   2.935
 3520SOL    HW2 2383   3.777   2.421   3.074
 3526SOL     OW 2384   4.197   2.362   2.053
 3526SOL    HW1 2385   4.258   2.442   2.057
 3526SOL    HW2 2386   4.102   2.393   2.060
 3527SOL     OW 2387   3.883   2.999   3.328
 3527SOL    HW1 2388   3.905   2.938   3.404
 3527SOL    HW2 2389   3.893   2.950   3.242
 3529SOL     OW 2390   3.807   3.120   2.884
 3529SOL    HW1 2391   3.802   3.119   2.984
 3529SOL    HW2 2392   3.724   3.079   2.846
 3534SOL     OW 2393   3.987   2.188   2.582
 3534SOL    HW1 2394   3.908   2.239   2.548
 3534SOL    HW2 2395   3.978   2.173   2.680
 3541SOL     OW 2396   3.979   3.210   2.152
 3541SOL    HW1 2397   3.883   3.211   2.125
 3541SOL    HW2 2398   3.991   3.263   2.236
 3544SOL     OW 2399   3.799   2.207   1.895
 3544SOL    HW1 2400   3.707   2.179   1.866
 3544SOL    HW2 2401   3.830   2.284   1.839
 3545SOL     OW 2402   3.796   2.028   2.180
 3545SOL    HW1 2403   3.779   2.111   2.126
 3545SOL    HW2 2404   3.886   1.991   2.158
 3555SOL     OW 2405   3.803   3.102   2.515
 3555SOL    HW1 2406   3.802   3.055   2.603
 3555SOL    HW2 2407   3.885   3.074   2.464
 3557SOL     OW 2408   4.152   2.286   2.382
 3557SOL    HW1 2409   4.182   2.214   2.320
 3557SOL    HW2 2410   4.113   2.246   2.465
 3558SOL     OW 2411   4.041   2.409   3.142
 3558SOL    HW1 2412   4.079   2.350   3.214
 3558SOL    HW2 2413   4.081   2.383   3.054
 3563SOL     OW 2414   3.763   2.939   2.162
 3563SOL    HW1 2415   3.862   2.928   2.153
 3563SOL    HW2 2416   3.723   2.853   2.194
   4.92053   4.92053   4.92053
