mobley_588781_GMX.gro created by acpype (v: 2023.10.27) on Tue May 19 12:53:10 2026
 2421
    1MOL     C1    1   2.153   2.504   2.402
    1MOL     C2    2   2.264   2.442   2.347
    1MOL     C3    3   2.168   2.618   2.482
    1MOL     C4    4   2.392   2.493   2.371
    1MOL     C5    5   2.295   2.669   2.505
    1MOL     C6    6   2.406   2.607   2.450
    1MOL     C7    7   3.010   2.600   2.904
    1MOL     C8    8   2.543   2.663   2.475
    1MOL     C9    9   2.949   2.655   2.776
    1MOL    C10   10   2.607   2.601   2.601
    1MOL    C11   11   2.810   2.598   2.751
    1MOL    C12   12   2.748   2.656   2.624
    1MOL     H1   13   2.053   2.464   2.384
    1MOL     H2   14   2.252   2.353   2.286
    1MOL     H3   15   2.081   2.666   2.525
    1MOL     H4   16   2.478   2.444   2.327
    1MOL     H5   17   2.306   2.758   2.567
    1MOL     H6   18   3.110   2.642   2.920
    1MOL     H7   19   2.948   2.625   2.991
    1MOL     H8   20   3.019   2.491   2.899
    1MOL     H9   21   2.537   2.772   2.486
    1MOL    H10   22   2.607   2.644   2.388
    1MOL    H11   23   3.015   2.631   2.692
    1MOL    H12   24   2.944   2.764   2.783
    1MOL    H13   25   2.544   2.623   2.688
    1MOL    H14   26   2.611   2.492   2.591
    1MOL    H15   27   2.816   2.489   2.742
    1MOL    H16   28   2.745   2.620   2.837
    1MOL    H17   29   2.811   2.632   2.538
    1MOL    H18   30   2.744   2.765   2.632
   97SOL     OW   31   1.592   1.629   1.625
   97SOL    HW1   32   1.619   1.663   1.535
   97SOL    HW2   33   1.671   1.591   1.671
  127SOL     OW   34   1.859   1.518   1.605
  127SOL    HW1   35   1.873   1.545   1.510
  127SOL    HW2   36   1.942   1.540   1.658
  163SOL     OW   37   1.650   1.720   1.394
  163SOL    HW1   38   1.703   1.730   1.310
  163SOL    HW2   39   1.623   1.810   1.428
  219SOL     OW   40   1.555   1.511   2.565
  219SOL    HW1   41   1.498   1.495   2.646
  219SOL    HW2   42   1.496   1.521   2.485
  227SOL     OW   43   1.460   1.505   3.201
  227SOL    HW1   44   1.484   1.599   3.227
  227SOL    HW2   45   1.444   1.451   3.283
  238SOL     OW   46   1.842   1.767   2.221
  238SOL    HW1   47   1.896   1.738   2.301
  238SOL    HW2   48   1.872   1.857   2.192
  241SOL     OW   49   1.641   1.108   2.294
  241SOL    HW1   50   1.727   1.110   2.242
  241SOL    HW2   51   1.655   1.155   2.382
  250SOL     OW   52   1.466   1.417   2.815
  250SOL    HW1   53   1.407   1.423   2.895
  250SOL    HW2   54   1.451   1.329   2.769
  251SOL     OW   55   1.667   1.714   2.434
  251SOL    HW1   56   1.626   1.691   2.346
  251SOL    HW2   57   1.649   1.640   2.499
  254SOL     OW   58   1.576   1.662   2.169
  254SOL    HW1   59   1.665   1.708   2.172
  254SOL    HW2   60   1.555   1.638   2.074
  268SOL     OW   61   1.795   1.066   2.735
  268SOL    HW1   62   1.733   1.051   2.659
  268SOL    HW2   63   1.743   1.077   2.820
  273SOL     OW   64   1.111   1.776   2.099
  273SOL    HW1   65   1.051   1.714   2.149
  273SOL    HW2   66   1.142   1.732   2.014
  275SOL     OW   67   1.632   1.377   1.943
  275SOL    HW1   68   1.600   1.471   1.933
  275SOL    HW2   69   1.556   1.314   1.931
  293SOL     OW   70   1.227   1.570   2.655
  293SOL    HW1   71   1.248   1.644   2.590
  293SOL    HW2   72   1.295   1.570   2.728
  295SOL     OW   73   1.271   1.797   2.453
  295SOL    HW1   74   1.315   1.861   2.389
  295SOL    HW2   75   1.221   1.849   2.523
  305SOL     OW   76   1.664   1.280   2.519
  305SOL    HW1   77   1.763   1.288   2.533
  305SOL    HW2   78   1.619   1.364   2.550
  310SOL     OW   79   1.592   1.629   3.487
  310SOL    HW1   80   1.619   1.663   3.397
  310SOL    HW2   81   1.671   1.591   3.533
  340SOL     OW   82   1.859   1.518   3.467
  340SOL    HW1   83   1.873   1.545   3.372
  340SOL    HW2   84   1.942   1.540   3.520
  365SOL     OW   85   1.759   1.747   3.016
  365SOL    HW1   86   1.820   1.777   2.943
  365SOL    HW2   87   1.721   1.658   2.994
  366SOL     OW   88   1.252   1.731   2.990
  366SOL    HW1   89   1.336   1.736   2.936
  366SOL    HW2   90   1.229   1.635   3.008
  370SOL     OW   91   1.388   1.573   2.339
  370SOL    HW1   92   1.455   1.585   2.265
  370SOL    HW2   93   1.348   1.662   2.362
  375SOL     OW   94   1.650   1.720   3.256
  375SOL    HW1   95   1.703   1.730   3.172
  375SOL    HW2   96   1.623   1.810   3.290
  381SOL     OW   97   1.504   1.607   1.906
  381SOL    HW1   98   1.412   1.644   1.913
  381SOL    HW2   99   1.542   1.627   1.816
  383SOL     OW  100   1.614   1.292   3.151
  383SOL    HW1  101   1.674   1.295   3.231
  383SOL    HW2  102   1.539   1.356   3.164
  396SOL     OW  103   1.493   1.767   2.821
  396SOL    HW1  104   1.526   1.831   2.752
  396SOL    HW2  105   1.559   1.761   2.896
  409SOL     OW  106   1.861   1.569   2.713
  409SOL    HW1  107   1.790   1.557   2.643
  409SOL    HW2  108   1.862   1.490   2.773
  415SOL     OW  109   1.705   1.487   2.966
  415SOL    HW1  110   1.612   1.462   2.939
  415SOL    HW2  111   1.731   1.437   3.048
  612SOL     OW  112   1.594   1.976   1.480
  612SOL    HW1  113   1.576   2.043   1.408
  612SOL    HW2  114   1.591   2.022   1.569
  632SOL     OW  115   1.394   2.331   1.674
  632SOL    HW1  116   1.374   2.374   1.762
  632SOL    HW2  117   1.472   2.269   1.683
  639SOL     OW  118   1.719   2.447   1.831
  639SOL    HW1  119   1.693   2.536   1.795
  639SOL    HW2  120   1.717   2.379   1.758
  657SOL     OW  121   1.547   2.084   1.729
  657SOL    HW1  122   1.542   2.121   1.821
  657SOL    HW2  123   1.475   2.015   1.717
  660SOL     OW  124   1.351   2.452   1.433
  660SOL    HW1  125   1.379   2.409   1.518
  660SOL    HW2  126   1.376   2.548   1.434
  682SOL     OW  127   1.754   3.085   1.588
  682SOL    HW1  128   1.845   3.046   1.575
  682SOL    HW2  129   1.762   3.181   1.612
  684SOL     OW  130   1.592   3.491   1.625
  684SOL    HW1  131   1.619   3.525   1.535
  684SOL    HW2  132   1.671   3.453   1.671
  700SOL     OW  133   1.587   2.641   1.670
  700SOL    HW1  134   1.495   2.679   1.665
  700SOL    HW2  135   1.647   2.688   1.605
  709SOL     OW  136   1.728   2.797   1.854
  709SOL    HW1  137   1.682   2.790   1.765
  709SOL    HW2  138   1.666   2.841   1.920
  714SOL     OW  139   1.859   3.380   1.605
  714SOL    HW1  140   1.873   3.407   1.510
  714SOL    HW2  141   1.942   3.402   1.658
  721SOL     OW  142   1.138   2.242   1.678
  721SOL    HW1  143   1.093   2.305   1.742
  721SOL    HW2  144   1.231   2.273   1.661
  729SOL     OW  145   1.369   2.812   1.660
  729SOL    HW1  146   1.408   2.901   1.680
  729SOL    HW2  147   1.379   2.792   1.563
  731SOL     OW  148   1.657   2.466   1.206
  731SOL    HW1  149   1.619   2.397   1.268
  731SOL    HW2  150   1.739   2.430   1.162
  758SOL     OW  151   1.614   3.154   1.289
  758SOL    HW1  152   1.674   3.157   1.369
  758SOL    HW2  153   1.539   3.218   1.302
  762SOL     OW  154   1.709   2.247   1.381
  762SOL    HW1  155   1.782   2.316   1.385
  762SOL    HW2  156   1.737   2.172   1.322
  767SOL     OW  157   1.440   2.718   1.398
  767SOL    HW1  158   1.383   2.770   1.335
  767SOL    HW2  159   1.536   2.730   1.374
  773SOL     OW  160   1.450   3.082   1.633
  773SOL    HW1  161   1.441   3.072   1.732
  773SOL    HW2  162   1.546   3.075   1.607
  775SOL     OW  163   1.674   2.745   1.254
  775SOL    HW1  164   1.647   2.656   1.217
  775SOL    HW2  165   1.675   2.813   1.181
  778SOL     OW  166   1.777   2.204   1.642
  778SOL    HW1  167   1.760   2.235   1.548
  778SOL    HW2  168   1.693   2.167   1.680
  779SOL     OW  169   1.730   2.796   1.517
  779SOL    HW1  170   1.768   2.887   1.532
  779SOL    HW2  171   1.722   2.779   1.418
  788SOL     OW  172   1.824   2.054   1.227
  788SOL    HW1  173   1.820   1.964   1.271
  788SOL    HW2  174   1.827   2.043   1.128
  806SOL     OW  175   1.555   3.373   2.565
  806SOL    HW1  176   1.498   3.357   2.646
  806SOL    HW2  177   1.496   3.383   2.485
  807SOL     OW  178   1.135   2.565   2.579
  807SOL    HW1  179   1.192   2.643   2.554
  807SOL    HW2  180   1.075   2.591   2.655
  808SOL     OW  181   1.755   2.469   2.093
  808SOL    HW1  182   1.743   2.456   1.994
  808SOL    HW2  183   1.725   2.388   2.142
  814SOL     OW  184   1.460   3.367   3.201
  814SOL    HW1  185   1.484   3.461   3.227
  814SOL    HW2  186   1.444   3.313   3.283
  816SOL     OW  187   1.603   2.309   2.599
  816SOL    HW1  188   1.529   2.355   2.549
  816SOL    HW2  189   1.654   2.377   2.652
  823SOL     OW  190   1.594   1.976   3.342
  823SOL    HW1  191   1.576   2.043   3.270
  823SOL    HW2  192   1.591   2.022   3.431
  825SOL     OW  193   1.842   3.629   2.221
  825SOL    HW1  194   1.896   3.600   2.301
  825SOL    HW2  195   1.872   3.719   2.192
  827SOL     OW  196   1.689   2.784   2.474
  827SOL    HW1  197   1.784   2.755   2.482
  827SOL    HW2  198   1.681   2.849   2.399
  828SOL     OW  199   1.641   2.970   2.294
  828SOL    HW1  200   1.727   2.972   2.242
  828SOL    HW2  201   1.655   3.017   2.382
  831SOL     OW  202   1.293   3.090   3.285
  831SOL    HW1  203   1.330   3.017   3.227
  831SOL    HW2  204   1.345   3.095   3.370
  834SOL     OW  205   1.525   2.861   2.052
  834SOL    HW1  206   1.462   2.785   2.065
  834SOL    HW2  207   1.573   2.879   2.138
  837SOL     OW  208   1.466   3.279   2.815
  837SOL    HW1  209   1.407   3.285   2.895
  837SOL    HW2  210   1.451   3.191   2.769
  838SOL     OW  211   1.667   3.576   2.434
  838SOL    HW1  212   1.626   3.553   2.346
  838SOL    HW2  213   1.649   3.502   2.499
  840SOL     OW  214   1.281   2.207   2.806
  840SOL    HW1  215   1.195   2.157   2.793
  840SOL    HW2  216   1.343   2.153   2.862
  841SOL     OW  217   1.576   3.524   2.169
  841SOL    HW1  218   1.665   3.570   2.172
  841SOL    HW2  219   1.555   3.500   2.074
  843SOL     OW  220   1.394   2.331   3.536
  843SOL    HW1  221   1.374   2.374   3.624
  843SOL    HW2  222   1.472   2.269   3.545
  845SOL     OW  223   0.991   2.272   3.104
  845SOL    HW1  224   0.914   2.306   3.158
  845SOL    HW2  225   0.957   2.221   3.025
  846SOL     OW  226   1.041   2.563   2.291
  846SOL    HW1  227   1.067   2.559   2.387
  846SOL    HW2  228   0.956   2.512   2.277
  850SOL     OW  229   1.719   2.447   3.693
  850SOL    HW1  230   1.693   2.536   3.657
  850SOL    HW2  231   1.717   2.379   3.620
  851SOL     OW  232   1.362   3.006   2.407
  851SOL    HW1  233   1.445   2.977   2.359
  851SOL    HW2  234   1.313   3.073   2.351
  853SOL     OW  235   1.008   3.318   2.339
  853SOL    HW1  236   0.962   3.390   2.287
  853SOL    HW2  237   1.004   3.338   2.437
  855SOL     OW  238   1.795   2.928   2.735
  855SOL    HW1  239   1.733   2.913   2.659
  855SOL    HW2  240   1.743   2.939   2.820
  856SOL     OW  241   1.227   3.412   3.368
  856SOL    HW1  242   1.233   3.335   3.432
  856SOL    HW2  243   1.175   3.386   3.288
  858SOL     OW  244   1.458   2.597   2.590
  858SOL    HW1  245   1.453   2.532   2.665
  858SOL    HW2  246   1.538   2.656   2.603
  862SOL     OW  247   1.632   3.239   1.943
  862SOL    HW1  248   1.600   3.333   1.933
  862SOL    HW2  249   1.556   3.176   1.931
  864SOL     OW  250   1.400   1.969   2.288
  864SOL    HW1  251   1.376   1.932   2.198
  864SOL    HW2  252   1.499   1.985   2.292
  868SOL     OW  253   1.547   2.084   3.591
  868SOL    HW1  254   1.542   2.121   3.683
  868SOL    HW2  255   1.475   2.015   3.579
  872SOL     OW  256   1.351   2.452   3.295
  872SOL    HW1  257   1.379   2.409   3.380
  872SOL    HW2  258   1.376   2.548   3.296
  874SOL     OW  259   0.922   2.365   2.761
  874SOL    HW1  260   0.897   2.356   2.665
  874SOL    HW2  261   0.970   2.283   2.792
  876SOL     OW  262   1.434   3.050   1.903
  876SOL    HW1  263   1.466   2.974   1.960
  876SOL    HW2  264   1.342   3.077   1.933
  878SOL     OW  265   0.935   2.098   2.342
  878SOL    HW1  266   0.887   2.139   2.264
  878SOL    HW2  267   1.034   2.096   2.323
  879SOL     OW  268   1.076   2.545   3.326
  879SOL    HW1  269   0.996   2.484   3.329
  879SOL    HW2  270   1.157   2.492   3.302
  880SOL     OW  271   1.227   3.432   2.655
  880SOL    HW1  272   1.248   3.506   2.590
  880SOL    HW2  273   1.295   3.432   2.728
  882SOL     OW  274   1.271   3.659   2.453
  882SOL    HW1  275   1.315   3.723   2.389
  882SOL    HW2  276   1.221   3.711   2.523
  883SOL     OW  277   1.032   2.411   1.878
  883SOL    HW1  278   0.991   2.493   1.839
  883SOL    HW2  279   1.096   2.437   1.951
  886SOL     OW  280   0.866   2.316   2.504
  886SOL    HW1  281   0.834   2.388   2.442
  886SOL    HW2  282   0.890   2.235   2.451
  887SOL     OW  283   1.017   1.901   2.615
  887SOL    HW1  284   0.945   1.906   2.546
  887SOL    HW2  285   0.993   1.832   2.684
  888SOL     OW  286   1.429   3.035   2.729
  888SOL    HW1  287   1.374   2.951   2.722
  888SOL    HW2  288   1.455   3.064   2.637
  889SOL     OW  289   1.466   2.452   2.854
  889SOL    HW1  290   1.436   2.357   2.861
  889SOL    HW2  291   1.539   2.468   2.920
  890SOL     OW  292   1.857   2.695   2.239
  890SOL    HW1  293   1.899   2.631   2.303
  890SOL    HW2  294   1.819   2.644   2.161
  892SOL     OW  295   1.664   3.142   2.519
  892SOL    HW1  296   1.763   3.150   2.533
  892SOL    HW2  297   1.619   3.226   2.550
  893SOL     OW  298   1.390   2.437   1.940
  893SOL    HW1  299   1.336   2.416   2.021
  893SOL    HW2  300   1.481   2.396   1.949
  895SOL     OW  301   1.754   3.085   3.450
  895SOL    HW1  302   1.845   3.046   3.437
  895SOL    HW2  303   1.762   3.181   3.474
  896SOL     OW  304   1.064   3.209   3.202
  896SOL    HW1  305   0.984   3.186   3.257
  896SOL    HW2  306   1.147   3.183   3.251
  897SOL     OW  307   1.592   3.491   3.487
  897SOL    HW1  308   1.619   3.525   3.397
  897SOL    HW2  309   1.671   3.453   3.533
  898SOL     OW  310   1.111   3.057   2.962
  898SOL    HW1  311   1.071   3.101   3.043
  898SOL    HW2  312   1.070   3.094   2.879
  899SOL     OW  313   1.638   2.961   2.941
  899SOL    HW1  314   1.643   3.042   3.000
  899SOL    HW2  315   1.552   2.963   2.890
  904SOL     OW  316   1.274   2.248   3.124
  904SOL    HW1  317   1.295   2.322   3.188
  904SOL    HW2  318   1.185   2.265   3.081
  908SOL     OW  319   1.252   3.210   2.250
  908SOL    HW1  320   1.302   3.287   2.290
  908SOL    HW2  321   1.157   3.212   2.282
  909SOL     OW  322   1.272   3.307   3.004
  909SOL    HW1  323   1.319   3.320   3.091
  909SOL    HW2  324   1.206   3.233   3.013
  910SOL     OW  325   1.582   2.501   2.334
  910SOL    HW1  326   1.551   2.562   2.407
  910SOL    HW2  327   1.632   2.553   2.265
  913SOL     OW  328   1.587   2.641   3.532
  913SOL    HW1  329   1.495   2.679   3.527
  913SOL    HW2  330   1.647   2.688   3.467
  917SOL     OW  331   1.360   2.724   2.907
  917SOL    HW1  332   1.285   2.724   2.841
  917SOL    HW2  333   1.397   2.632   2.916
  918SOL     OW  334   1.209   2.387   2.137
  918SOL    HW1  335   1.222   2.303   2.191
  918SOL    HW2  336   1.180   2.461   2.197
  922SOL     OW  337   1.728   2.797   3.716
  922SOL    HW1  338   1.682   2.790   3.627
  922SOL    HW2  339   1.666   2.841   3.782
  924SOL     OW  340   1.622   2.229   2.236
  924SOL    HW1  341   1.624   2.153   2.300
  924SOL    HW2  342   1.574   2.306   2.276
  925SOL     OW  343   1.023   2.628   2.828
  925SOL    HW1  344   1.038   2.649   2.924
  925SOL    HW2  345   0.993   2.533   2.819
  927SOL     OW  346   1.859   3.380   3.467
  927SOL    HW1  347   1.873   3.407   3.372
  927SOL    HW2  348   1.942   3.402   3.520
  929SOL     OW  349   1.540   2.136   1.987
  929SOL    HW1  350   1.479   2.061   2.010
  929SOL    HW2  351   1.562   2.188   2.070
  930SOL     OW  352   1.303   2.700   1.904
  930SOL    HW1  353   1.337   2.607   1.919
  930SOL    HW2  354   1.321   2.727   1.809
  931SOL     OW  355   1.068   3.195   2.711
  931SOL    HW1  356   1.075   3.111   2.656
  931SOL    HW2  357   1.130   3.264   2.675
  934SOL     OW  358   1.138   2.242   3.540
  934SOL    HW1  359   1.093   2.305   3.604
  934SOL    HW2  360   1.231   2.273   3.523
  935SOL     OW  361   1.160   2.069   3.339
  935SOL    HW1  362   1.160   2.133   3.416
  935SOL    HW2  363   1.188   2.117   3.256
  939SOL     OW  364   1.002   2.658   3.100
  939SOL    HW1  365   1.043   2.626   3.186
  939SOL    HW2  366   0.906   2.631   3.097
  942SOL     OW  367   1.369   2.812   3.522
  942SOL    HW1  368   1.408   2.901   3.542
  942SOL    HW2  369   1.379   2.792   3.425
  944SOL     OW  370   1.657   2.466   3.068
  944SOL    HW1  371   1.619   2.397   3.130
  944SOL    HW2  372   1.739   2.430   3.024
  950SOL     OW  373   1.347   2.921   3.096
  950SOL    HW1  374   1.371   2.858   3.022
  950SOL    HW2  375   1.257   2.961   3.078
  951SOL     OW  376   1.302   2.717   2.171
  951SOL    HW1  377   1.216   2.686   2.213
  951SOL    HW2  378   1.298   2.703   2.072
  952SOL     OW  379   1.759   3.609   3.016
  952SOL    HW1  380   1.820   3.639   2.943
  952SOL    HW2  381   1.721   3.520   2.994
  953SOL     OW  382   1.252   3.593   2.990
  953SOL    HW1  383   1.336   3.598   2.936
  953SOL    HW2  384   1.229   3.497   3.008
  956SOL     OW  385   1.726   1.997   2.385
  956SOL    HW1  386   1.799   1.980   2.318
  956SOL    HW2  387   1.695   1.910   2.423
  957SOL     OW  388   1.388   3.435   2.339
  957SOL    HW1  389   1.455   3.447   2.265
  957SOL    HW2  390   1.348   3.524   2.362
  959SOL     OW  391   1.280   2.789   2.534
  959SOL    HW1  392   1.340   2.708   2.536
  959SOL    HW2  393   1.320   2.858   2.474
  962SOL     OW  394   1.650   3.582   3.256
  962SOL    HW1  395   1.703   3.592   3.172
  962SOL    HW2  396   1.623   3.672   3.290
  963SOL     OW  397   1.841   2.037   2.825
  963SOL    HW1  398   1.880   1.952   2.789
  963SOL    HW2  399   1.743   2.039   2.806
  965SOL     OW  400   1.194   3.474   1.893
  965SOL    HW1  401   1.200   3.381   1.930
  965SOL    HW2  402   1.135   3.474   1.813
  967SOL     OW  403   0.916   2.772   2.153
  967SOL    HW1  404   0.979   2.810   2.085
  967SOL    HW2  405   0.956   2.689   2.192
  968SOL     OW  406   1.504   3.469   1.906
  968SOL    HW1  407   1.412   3.506   1.913
  968SOL    HW2  408   1.542   3.489   1.816
  970SOL     OW  409   1.614   3.154   3.151
  970SOL    HW1  410   1.674   3.157   3.231
  970SOL    HW2  411   1.539   3.218   3.164
  971SOL     OW  412   1.039   2.960   2.558
  971SOL    HW1  413   0.969   2.913   2.612
  971SOL    HW2  414   1.098   2.892   2.515
  972SOL     OW  415   1.014   2.098   2.833
  972SOL    HW1  416   1.006   2.062   2.740
  972SOL    HW2  417   1.012   2.022   2.898
  974SOL     OW  418   1.709   2.247   3.243
  974SOL    HW1  419   1.782   2.316   3.247
  974SOL    HW2  420   1.737   2.172   3.184
  979SOL     OW  421   1.440   2.718   3.260
  979SOL    HW1  422   1.383   2.770   3.197
  979SOL    HW2  423   1.536   2.730   3.236
  981SOL     OW  424   1.183   3.197   1.981
  981SOL    HW1  425   1.084   3.186   1.983
  981SOL    HW2  426   1.217   3.212   2.074
  983SOL     OW  427   1.493   3.629   2.821
  983SOL    HW1  428   1.526   3.693   2.752
  983SOL    HW2  429   1.559   3.623   2.896
  985SOL     OW  430   1.450   3.082   3.495
  985SOL    HW1  431   1.441   3.072   3.594
  985SOL    HW2  432   1.546   3.075   3.469
  987SOL     OW  433   1.674   2.745   3.116
  987SOL    HW1  434   1.647   2.656   3.079
  987SOL    HW2  435   1.675   2.813   3.043
  988SOL     OW  436   1.225   2.187   2.311
  988SOL    HW1  437   1.290   2.113   2.300
  988SOL    HW2  438   1.245   2.237   2.395
  990SOL     OW  439   1.777   2.204   3.504
  990SOL    HW1  440   1.760   2.235   3.410
  990SOL    HW2  441   1.693   2.167   3.542
  991SOL     OW  442   1.730   2.796   3.379
  991SOL    HW1  443   1.768   2.887   3.394
  991SOL    HW2  444   1.722   2.779   3.280
  994SOL     OW  445   0.859   2.818   2.723
  994SOL    HW1  446   0.913   2.749   2.771
  994SOL    HW2  447   0.827   2.887   2.789
  995SOL     OW  448   1.083   2.846   1.949
  995SOL    HW1  449   1.060   2.899   1.867
  995SOL    HW2  450   1.164   2.790   1.930
  996SOL     OW  451   1.861   3.431   2.713
  996SOL    HW1  452   1.790   3.419   2.643
  996SOL    HW2  453   1.862   3.352   2.773
 1000SOL     OW  454   1.824   2.054   3.089
 1000SOL    HW1  455   1.820   1.964   3.133
 1000SOL    HW2  456   1.827   2.043   2.990
 1002SOL     OW  457   1.705   3.349   2.966
 1002SOL    HW1  458   1.612   3.324   2.939
 1002SOL    HW2  459   1.731   3.299   3.048
 1005SOL     OW  460   1.424   2.076   2.974
 1005SOL    HW1  461   1.476   2.011   3.029
 1005SOL    HW2  462   1.375   2.139   3.035
 1006SOL     OW  463   1.001   1.896   3.016
 1006SOL    HW1  464   0.938   1.824   2.985
 1006SOL    HW2  465   1.094   1.860   3.016
 1009SOL     OW  466   1.352   1.914   2.030
 1009SOL    HW1  467   1.387   1.873   1.946
 1009SOL    HW2  468   1.262   1.876   2.050
 1010SOL     OW  469   1.300   2.315   2.553
 1010SOL    HW1  470   1.241   2.395   2.557
 1010SOL    HW2  471   1.315   2.280   2.646
 1011SOL     OW  472   1.593   2.083   2.744
 1011SOL    HW1  473   1.509   2.082   2.798
 1011SOL    HW2  474   1.595   2.166   2.688
 1020SOL     OW  475   1.755   2.469   3.955
 1020SOL    HW1  476   1.743   2.456   3.856
 1020SOL    HW2  477   1.725   2.388   4.004
 1039SOL     OW  478   1.525   2.861   3.914
 1039SOL    HW1  479   1.462   2.785   3.927
 1039SOL    HW2  480   1.573   2.879   4.000
 1059SOL     OW  481   1.632   3.239   3.805
 1059SOL    HW1  482   1.600   3.333   3.795
 1059SOL    HW2  483   1.556   3.176   3.793
 1070SOL     OW  484   1.434   3.050   3.765
 1070SOL    HW1  485   1.466   2.974   3.822
 1070SOL    HW2  486   1.342   3.077   3.795
 1082SOL     OW  487   1.857   2.695   4.101
 1082SOL    HW1  488   1.899   2.631   4.165
 1082SOL    HW2  489   1.819   2.644   4.023
 1085SOL     OW  490   1.390   2.437   3.802
 1085SOL    HW1  491   1.336   2.416   3.883
 1085SOL    HW2  492   1.481   2.396   3.811
 1110SOL     OW  493   1.540   2.136   3.849
 1110SOL    HW1  494   1.479   2.061   3.872
 1110SOL    HW2  495   1.562   2.188   3.932
 1111SOL     OW  496   1.303   2.700   3.766
 1111SOL    HW1  497   1.337   2.607   3.781
 1111SOL    HW2  498   1.321   2.727   3.671
 1363SOL     OW  499   1.594   3.838   3.342
 1363SOL    HW1  500   1.576   3.905   3.270
 1363SOL    HW2  501   1.591   3.884   3.431
 1394SOL     OW  502   1.400   3.831   2.288
 1394SOL    HW1  503   1.376   3.794   2.198
 1394SOL    HW2  504   1.499   3.847   2.292
 1469SOL     OW  505   1.726   3.859   2.385
 1469SOL    HW1  506   1.799   3.842   2.318
 1469SOL    HW2  507   1.695   3.772   2.423
 1472SOL     OW  508   1.841   3.899   2.825
 1472SOL    HW1  509   1.880   3.814   2.789
 1472SOL    HW2  510   1.743   3.901   2.806
 1502SOL     OW  511   1.824   3.916   3.089
 1502SOL    HW1  512   1.820   3.826   3.133
 1502SOL    HW2  513   1.827   3.905   2.990
 1511SOL     OW  514   1.593   3.945   2.744
 1511SOL    HW1  515   1.509   3.944   2.798
 1511SOL    HW2  516   1.595   4.028   2.688
 1657SOL     OW  517   2.548   1.161   1.803
 1657SOL    HW1  518   2.608   1.240   1.817
 1657SOL    HW2  519   2.462   1.192   1.762
 1663SOL     OW  520   2.989   1.341   1.690
 1663SOL    HW1  521   3.036   1.341   1.778
 1663SOL    HW2  522   2.941   1.254   1.679
 1666SOL     OW  523   2.482   1.786   1.439
 1666SOL    HW1  524   2.390   1.769   1.474
 1666SOL    HW2  525   2.510   1.878   1.465
 1680SOL     OW  526   3.049   1.792   1.616
 1680SOL    HW1  527   3.073   1.852   1.540
 1680SOL    HW2  528   3.056   1.697   1.586
 1693SOL     OW  529   1.992   1.821   1.571
 1693SOL    HW1  530   1.982   1.806   1.670
 1693SOL    HW2  531   1.906   1.857   1.535
 1701SOL     OW  532   3.089   1.550   1.506
 1701SOL    HW1  533   3.095   1.473   1.570
 1701SOL    HW2  534   3.037   1.524   1.426
 1704SOL     OW  535   2.323   1.266   1.727
 1704SOL    HW1  536   2.273   1.267   1.641
 1704SOL    HW2  537   2.260   1.248   1.803
 1710SOL     OW  538   2.111   1.785   1.241
 1710SOL    HW1  539   2.168   1.720   1.291
 1710SOL    HW2  540   2.095   1.752   1.148
 1716SOL     OW  541   2.750   1.514   1.195
 1716SOL    HW1  542   2.727   1.489   1.101
 1716SOL    HW2  543   2.811   1.445   1.234
 1742SOL     OW  544   3.454   1.629   1.625
 1742SOL    HW1  545   3.481   1.663   1.535
 1742SOL    HW2  546   3.533   1.591   1.671
 1746SOL     OW  547   2.842   1.116   1.719
 1746SOL    HW1  548   2.743   1.122   1.729
 1746SOL    HW2  549   2.865   1.036   1.663
 1750SOL     OW  550   1.926   1.564   1.331
 1750SOL    HW1  551   1.880   1.646   1.297
 1750SOL    HW2  552   2.024   1.583   1.340
 1756SOL     OW  553   2.216   1.510   1.329
 1756SOL    HW1  554   2.195   1.466   1.242
 1756SOL    HW2  555   2.313   1.536   1.332
 1771SOL     OW  556   2.842   1.573   1.700
 1771SOL    HW1  557   2.822   1.617   1.612
 1771SOL    HW2  558   2.881   1.482   1.684
 1790SOL     OW  559   2.114   1.564   1.744
 1790SOL    HW1  560   2.084   1.621   1.820
 1790SOL    HW2  561   2.107   1.467   1.770
 1792SOL     OW  562   2.792   1.678   1.465
 1792SOL    HW1  563   2.768   1.660   1.370
 1792SOL    HW2  564   2.822   1.772   1.475
 1798SOL     OW  565   3.114   1.731   1.128
 1798SOL    HW1  566   3.198   1.736   1.074
 1798SOL    HW2  567   3.091   1.635   1.146
 1800SOL     OW  568   2.550   1.662   1.716
 1800SOL    HW1  569   2.494   1.743   1.725
 1800SOL    HW2  570   2.602   1.666   1.630
 1804SOL     OW  571   1.992   1.794   1.851
 1804SOL    HW1  572   1.951   1.720   1.904
 1804SOL    HW2  573   2.056   1.845   1.909
 1806SOL     OW  574   2.692   1.273   1.422
 1806SOL    HW1  575   2.687   1.306   1.517
 1806SOL    HW2  576   2.606   1.292   1.376
 1808SOL     OW  577   3.512   1.720   1.394
 1808SOL    HW1  578   3.565   1.730   1.310
 1808SOL    HW2  579   3.485   1.810   1.428
 1815SOL     OW  580   2.234   1.288   1.490
 1815SOL    HW1  581   2.221   1.381   1.456
 1815SOL    HW2  582   2.150   1.236   1.477
 1832SOL     OW  583   2.252   1.741   1.560
 1832SOL    HW1  584   2.161   1.782   1.558
 1832SOL    HW2  585   2.245   1.647   1.592
 1843SOL     OW  586   2.083   1.314   1.844
 1843SOL    HW1  587   2.018   1.241   1.823
 1843SOL    HW2  588   2.087   1.328   1.942
 1845SOL     OW  589   2.534   1.391   1.624
 1845SOL    HW1  590   2.456   1.341   1.662
 1845SOL    HW2  591   2.531   1.486   1.655
 1854SOL     OW  592   2.480   1.567   1.284
 1854SOL    HW1  593   2.475   1.649   1.341
 1854SOL    HW2  594   2.569   1.564   1.239
 1863SOL     OW  595   2.431   1.275   3.027
 1863SOL    HW1  596   2.338   1.268   2.990
 1863SOL    HW2  597   2.442   1.364   3.071
 1864SOL     OW  598   3.417   1.511   2.565
 1864SOL    HW1  599   3.360   1.495   2.646
 1864SOL    HW2  600   3.358   1.521   2.485
 1867SOL     OW  601   2.630   1.144   2.885
 1867SOL    HW1  602   2.552   1.161   2.945
 1867SOL    HW2  603   2.664   1.231   2.849
 1869SOL     OW  604   2.547   1.012   2.527
 1869SOL    HW1  605   2.616   0.996   2.597
 1869SOL    HW2  606   2.474   1.069   2.565
 1870SOL     OW  607   2.548   1.161   3.665
 1870SOL    HW1  608   2.608   1.240   3.679
 1870SOL    HW2  609   2.462   1.192   3.624
 1871SOL     OW  610   2.197   1.435   2.923
 1871SOL    HW1  611   2.119   1.404   2.870
 1871SOL    HW2  612   2.255   1.493   2.866
 1872SOL     OW  613   3.322   1.505   3.201
 1872SOL    HW1  614   3.346   1.599   3.227
 1872SOL    HW2  615   3.306   1.451   3.283
 1875SOL     OW  616   2.093   1.713   2.345
 1875SOL    HW1  617   2.127   1.790   2.399
 1875SOL    HW2  618   2.137   1.713   2.255
 1876SOL     OW  619   2.989   1.341   3.552
 1876SOL    HW1  620   3.036   1.341   3.640
 1876SOL    HW2  621   2.941   1.254   3.541
 1877SOL     OW  622   2.092   1.434   2.400
 1877SOL    HW1  623   2.066   1.530   2.400
 1877SOL    HW2  624   2.021   1.380   2.445
 1878SOL     OW  625   2.102   1.091   2.748
 1878SOL    HW1  626   2.116   1.007   2.800
 1878SOL    HW2  627   2.047   1.155   2.803
 1879SOL     OW  628   2.482   1.786   3.301
 1879SOL    HW1  629   2.390   1.769   3.336
 1879SOL    HW2  630   2.510   1.878   3.327
 1880SOL     OW  631   2.468   0.964   1.985
 1880SOL    HW1  632   2.475   1.048   1.931
 1880SOL    HW2  633   2.514   0.977   2.073
 1883SOL     OW  634   3.704   1.767   2.221
 1883SOL    HW1  635   3.758   1.738   2.301
 1883SOL    HW2  636   3.734   1.857   2.192
 1884SOL     OW  637   1.889   1.596   1.979
 1884SOL    HW1  638   1.870   1.500   2.000
 1884SOL    HW2  639   1.856   1.654   2.054
 1886SOL     OW  640   3.503   1.108   2.294
 1886SOL    HW1  641   3.589   1.110   2.242
 1886SOL    HW2  642   3.517   1.155   2.382
 1888SOL     OW  643   2.475   1.365   2.588
 1888SOL    HW1  644   2.426   1.278   2.597
 1888SOL    HW2  645   2.452   1.408   2.501
 1889SOL     OW  646   3.155   1.228   3.285
 1889SOL    HW1  647   3.192   1.155   3.227
 1889SOL    HW2  648   3.207   1.233   3.370
 1891SOL     OW  649   2.059   0.976   3.126
 1891SOL    HW1  650   2.148   0.931   3.112
 1891SOL    HW2  651   1.986   0.911   3.107
 1893SOL     OW  652   3.049   1.792   3.478
 1893SOL    HW1  653   3.073   1.852   3.402
 1893SOL    HW2  654   3.056   1.697   3.448
 1895SOL     OW  655   3.328   1.417   2.815
 1895SOL    HW1  656   3.269   1.423   2.895
 1895SOL    HW2  657   3.313   1.329   2.769
 1896SOL     OW  658   3.529   1.714   2.434
 1896SOL    HW1  659   3.488   1.691   2.346
 1896SOL    HW2  660   3.511   1.640   2.499
 1899SOL     OW  661   3.438   1.662   2.169
 1899SOL    HW1  662   3.527   1.708   2.172
 1899SOL    HW2  663   3.417   1.638   2.074
 1906SOL     OW  664   1.992   1.821   3.433
 1906SOL    HW1  665   1.982   1.806   3.532
 1906SOL    HW2  666   1.906   1.857   3.397
 1909SOL     OW  667   3.224   1.144   2.407
 1909SOL    HW1  668   3.307   1.115   2.359
 1909SOL    HW2  669   3.175   1.211   2.351
 1911SOL     OW  670   2.870   1.456   2.339
 1911SOL    HW1  671   2.824   1.528   2.287
 1911SOL    HW2  672   2.866   1.476   2.437
 1912SOL     OW  673   2.213   1.801   2.715
 1912SOL    HW1  674   2.263   1.715   2.721
 1912SOL    HW2  675   2.278   1.878   2.712
 1914SOL     OW  676   3.089   1.550   3.368
 1914SOL    HW1  677   3.095   1.473   3.432
 1914SOL    HW2  678   3.037   1.524   3.288
 1915SOL     OW  679   2.183   0.943   2.104
 1915SOL    HW1  680   2.265   0.982   2.062
 1915SOL    HW2  681   2.156   0.861   2.055
 1917SOL     OW  682   2.323   1.266   3.589
 1917SOL    HW1  683   2.273   1.267   3.503
 1917SOL    HW2  684   2.260   1.248   3.665
 1918SOL     OW  685   2.973   1.776   2.099
 1918SOL    HW1  686   2.913   1.714   2.149
 1918SOL    HW2  687   3.004   1.732   2.014
 1920SOL     OW  688   3.494   1.377   1.943
 1920SOL    HW1  689   3.462   1.471   1.933
 1920SOL    HW2  690   3.418   1.314   1.931
 1921SOL     OW  691   2.326   1.743   2.185
 1921SOL    HW1  692   2.359   1.782   2.271
 1921SOL    HW2  693   2.402   1.736   2.120
 1923SOL     OW  694   2.111   1.785   3.103
 1923SOL    HW1  695   2.168   1.720   3.153
 1923SOL    HW2  696   2.095   1.752   3.010
 1924SOL     OW  697   2.802   1.698   2.766
 1924SOL    HW1  698   2.882   1.641   2.787
 1924SOL    HW2  699   2.753   1.658   2.689
 1929SOL     OW  700   2.750   1.514   3.057
 1929SOL    HW1  701   2.727   1.489   2.963
 1929SOL    HW2  702   2.811   1.445   3.096
 1931SOL     OW  703   2.665   1.402   2.786
 1931SOL    HW1  704   2.755   1.416   2.744
 1931SOL    HW2  705   2.594   1.404   2.715
 1934SOL     OW  706   3.296   1.188   1.903
 1934SOL    HW1  707   3.328   1.112   1.960
 1934SOL    HW2  708   3.204   1.215   1.933
 1938SOL     OW  709   3.089   1.570   2.655
 1938SOL    HW1  710   3.110   1.644   2.590
 1938SOL    HW2  711   3.157   1.570   2.728
 1939SOL     OW  712   2.321   1.152   2.603
 1939SOL    HW1  713   2.250   1.125   2.668
 1939SOL    HW2  714   2.295   1.124   2.510
 1940SOL     OW  715   3.133   1.797   2.453
 1940SOL    HW1  716   3.177   1.861   2.389
 1940SOL    HW2  717   3.083   1.849   2.523
 1946SOL     OW  718   3.291   1.173   2.729
 1946SOL    HW1  719   3.236   1.089   2.722
 1946SOL    HW2  720   3.317   1.202   2.637
 1949SOL     OW  721   2.350   1.385   2.036
 1949SOL    HW1  722   2.263   1.370   2.083
 1949SOL    HW2  723   2.333   1.411   1.941
 1950SOL     OW  724   3.526   1.280   2.519
 1950SOL    HW1  725   3.625   1.288   2.533
 1950SOL    HW2  726   3.481   1.364   2.550
 1954SOL     OW  727   2.926   1.347   3.202
 1954SOL    HW1  728   2.846   1.324   3.257
 1954SOL    HW2  729   3.009   1.321   3.251
 1955SOL     OW  730   3.454   1.629   3.487
 1955SOL    HW1  731   3.481   1.663   3.397
 1955SOL    HW2  732   3.533   1.591   3.533
 1956SOL     OW  733   2.973   1.195   2.962
 1956SOL    HW1  734   2.933   1.239   3.043
 1956SOL    HW2  735   2.932   1.232   2.879
 1957SOL     OW  736   3.500   1.099   2.941
 1957SOL    HW1  737   3.505   1.180   3.000
 1957SOL    HW2  738   3.414   1.101   2.890
 1959SOL     OW  739   2.842   1.116   3.581
 1959SOL    HW1  740   2.743   1.122   3.591
 1959SOL    HW2  741   2.865   1.036   3.525
 1960SOL     OW  742   2.567   1.050   2.230
 1960SOL    HW1  743   2.553   1.057   2.329
 1960SOL    HW2  744   2.651   0.999   2.212
 1963SOL     OW  745   1.926   1.564   3.193
 1963SOL    HW1  746   1.880   1.646   3.159
 1963SOL    HW2  747   2.024   1.583   3.202
 1964SOL     OW  748   2.229   1.100   2.363
 1964SOL    HW1  749   2.222   1.183   2.307
 1964SOL    HW2  750   2.233   1.020   2.303
 1966SOL     OW  751   3.114   1.348   2.250
 1966SOL    HW1  752   3.164   1.425   2.290
 1966SOL    HW2  753   3.019   1.350   2.282
 1967SOL     OW  754   3.134   1.445   3.004
 1967SOL    HW1  755   3.181   1.458   3.091
 1967SOL    HW2  756   3.068   1.371   3.013
 1969SOL     OW  757   2.216   1.510   3.191
 1969SOL    HW1  758   2.195   1.466   3.104
 1969SOL    HW2  759   2.313   1.536   3.194
 1974SOL     OW  760   2.435   0.870   2.891
 1974SOL    HW1  761   2.479   0.959   2.882
 1974SOL    HW2  762   2.372   0.870   2.968
 1978SOL     OW  763   1.899   1.310   3.144
 1978SOL    HW1  764   1.952   1.261   3.212
 1978SOL    HW2  765   1.921   1.408   3.149
 1984SOL     OW  766   2.842   1.573   3.562
 1984SOL    HW1  767   2.822   1.617   3.474
 1984SOL    HW2  768   2.881   1.482   3.546
 1985SOL     OW  769   3.721   1.518   3.467
 1985SOL    HW1  770   3.735   1.545   3.372
 1985SOL    HW2  771   3.804   1.540   3.520
 1989SOL     OW  772   2.930   1.333   2.711
 1989SOL    HW1  773   2.937   1.249   2.656
 1989SOL    HW2  774   2.992   1.402   2.675
 1994SOL     OW  775   1.870   1.326   2.062
 1994SOL    HW1  776   1.777   1.347   2.031
 1994SOL    HW2  777   1.880   1.227   2.075
 1995SOL     OW  778   1.950   1.801   2.789
 1995SOL    HW1  779   1.908   1.715   2.762
 1995SOL    HW2  780   2.044   1.804   2.755
 1996SOL     OW  781   2.366   1.568   2.772
 1996SOL    HW1  782   2.432   1.642   2.781
 1996SOL    HW2  783   2.410   1.489   2.730
 2003SOL     OW  784   2.114   1.564   3.606
 2003SOL    HW1  785   2.084   1.621   3.682
 2003SOL    HW2  786   2.107   1.467   3.632
 2005SOL     OW  787   2.792   1.678   3.327
 2005SOL    HW1  788   2.768   1.660   3.232
 2005SOL    HW2  789   2.822   1.772   3.337
 2007SOL     OW  790   2.021   1.137   3.328
 2007SOL    HW1  791   2.043   1.076   3.404
 2007SOL    HW2  792   2.031   1.088   3.242
 2008SOL     OW  793   3.209   1.059   3.096
 2008SOL    HW1  794   3.233   0.996   3.022
 2008SOL    HW2  795   3.119   1.099   3.078
 2010SOL     OW  796   3.621   1.747   3.016
 2010SOL    HW1  797   3.682   1.777   2.943
 2010SOL    HW2  798   3.583   1.658   2.994
 2011SOL     OW  799   3.114   1.731   2.990
 2011SOL    HW1  800   3.198   1.736   2.936
 2011SOL    HW2  801   3.091   1.635   3.008
 2012SOL     OW  802   1.945   1.258   2.884
 2012SOL    HW1  803   1.940   1.257   2.984
 2012SOL    HW2  804   1.862   1.217   2.846
 2013SOL     OW  805   2.550   1.662   3.578
 2013SOL    HW1  806   2.494   1.743   3.587
 2013SOL    HW2  807   2.602   1.666   3.492
 2015SOL     OW  808   3.250   1.573   2.339
 2015SOL    HW1  809   3.317   1.585   2.265
 2015SOL    HW2  810   3.210   1.662   2.362
 2016SOL     OW  811   1.992   1.794   3.713
 2016SOL    HW1  812   1.951   1.720   3.766
 2016SOL    HW2  813   2.056   1.845   3.771
 2017SOL     OW  814   3.142   0.927   2.534
 2017SOL    HW1  815   3.202   0.846   2.536
 2017SOL    HW2  816   3.182   0.996   2.474
 2018SOL     OW  817   2.692   1.273   3.284
 2018SOL    HW1  818   2.687   1.306   3.379
 2018SOL    HW2  819   2.606   1.292   3.238
 2019SOL     OW  820   2.534   1.616   2.016
 2019SOL    HW1  821   2.543   1.626   1.917
 2019SOL    HW2  822   2.494   1.527   2.037
 2020SOL     OW  823   3.512   1.720   3.256
 2020SOL    HW1  824   3.565   1.730   3.172
 2020SOL    HW2  825   3.485   1.810   3.290
 2023SOL     OW  826   3.056   1.612   1.893
 2023SOL    HW1  827   3.062   1.519   1.930
 2023SOL    HW2  828   2.997   1.612   1.813
 2024SOL     OW  829   2.684   1.002   3.234
 2024SOL    HW1  830   2.724   1.001   3.142
 2024SOL    HW2  831   2.694   1.094   3.274
 2025SOL     OW  832   2.778   0.910   2.153
 2025SOL    HW1  833   2.841   0.948   2.085
 2025SOL    HW2  834   2.818   0.827   2.192
 2026SOL     OW  835   3.366   1.607   1.906
 2026SOL    HW1  836   3.274   1.644   1.913
 2026SOL    HW2  837   3.404   1.627   1.816
 2027SOL     OW  838   2.234   1.288   3.352
 2027SOL    HW1  839   2.221   1.381   3.318
 2027SOL    HW2  840   2.150   1.236   3.339
 2028SOL     OW  841   3.476   1.292   3.151
 2028SOL    HW1  842   3.536   1.295   3.231
 2028SOL    HW2  843   3.401   1.356   3.164
 2029SOL     OW  844   2.901   1.098   2.558
 2029SOL    HW1  845   2.831   1.051   2.612
 2029SOL    HW2  846   2.960   1.030   2.515
 2031SOL     OW  847   2.452   1.487   2.353
 2031SOL    HW1  848   2.494   1.429   2.283
 2031SOL    HW2  849   2.408   1.566   2.309
 2033SOL     OW  850   2.117   1.348   2.152
 2033SOL    HW1  851   2.021   1.349   2.125
 2033SOL    HW2  852   2.129   1.401   2.236
 2039SOL     OW  853   3.045   1.335   1.981
 2039SOL    HW1  854   2.946   1.324   1.983
 2039SOL    HW2  855   3.079   1.350   2.074
 2041SOL     OW  856   3.355   1.767   2.821
 2041SOL    HW1  857   3.388   1.831   2.752
 2041SOL    HW2  858   3.421   1.761   2.896
 2043SOL     OW  859   3.312   1.220   3.495
 2043SOL    HW1  860   3.303   1.210   3.594
 2043SOL    HW2  861   3.408   1.213   3.469
 2044SOL     OW  862   2.252   1.741   3.422
 2044SOL    HW1  863   2.161   1.782   3.420
 2044SOL    HW2  864   2.245   1.647   3.454
 2050SOL     OW  865   2.721   1.374   1.878
 2050SOL    HW1  866   2.675   1.389   1.966
 2050SOL    HW2  867   2.765   1.459   1.848
 2051SOL     OW  868   2.523   1.790   2.815
 2051SOL    HW1  869   2.477   1.878   2.802
 2051SOL    HW2  870   2.622   1.802   2.808
 2052SOL     OW  871   2.721   0.956   2.723
 2052SOL    HW1  872   2.775   0.887   2.771
 2052SOL    HW2  873   2.689   1.025   2.789
 2053SOL     OW  874   2.945   0.984   1.949
 2053SOL    HW1  875   2.922   1.037   1.867
 2053SOL    HW2  876   3.026   0.928   1.930
 2054SOL     OW  877   3.723   1.569   2.713
 2054SOL    HW1  878   3.652   1.557   2.643
 2054SOL    HW2  879   3.724   1.490   2.773
 2055SOL     OW  880   2.083   1.314   3.706
 2055SOL    HW1  881   2.018   1.241   3.685
 2055SOL    HW2  882   2.087   1.328   3.804
 2056SOL     OW  883   1.941   1.240   2.515
 2056SOL    HW1  884   1.940   1.193   2.603
 2056SOL    HW2  885   2.023   1.212   2.464
 2057SOL     OW  886   2.534   1.391   3.486
 2057SOL    HW1  887   2.456   1.341   3.524
 2057SOL    HW2  888   2.531   1.486   3.517
 2060SOL     OW  889   3.567   1.487   2.966
 2060SOL    HW1  890   3.474   1.462   2.939
 2060SOL    HW2  891   3.593   1.437   3.048
 2062SOL     OW  892   2.674   1.586   2.549
 2062SOL    HW1  893   2.706   1.596   2.455
 2062SOL    HW2  894   2.595   1.524   2.551
 2065SOL     OW  895   2.632   1.330   2.163
 2065SOL    HW1  896   2.586   1.243   2.180
 2065SOL    HW2  897   2.723   1.327   2.204
 2066SOL     OW  898   2.480   1.567   3.146
 2066SOL    HW1  899   2.475   1.649   3.203
 2066SOL    HW2  900   2.569   1.564   3.101
 2070SOL     OW  901   1.901   1.077   2.162
 2070SOL    HW1  902   2.000   1.066   2.153
 2070SOL    HW2  903   1.861   0.991   2.194
 2071SOL     OW  904   2.737   1.646   2.199
 2071SOL    HW1  905   2.660   1.611   2.145
 2071SOL    HW2  906   2.705   1.717   2.261
 2091SOL     OW  907   1.889   1.596   3.841
 2091SOL    HW1  908   1.870   1.500   3.862
 2091SOL    HW2  909   1.856   1.654   3.916
 2116SOL     OW  910   2.973   1.776   3.961
 2116SOL    HW1  911   2.913   1.714   4.011
 2116SOL    HW2  912   3.004   1.732   3.876
 2118SOL     OW  913   2.326   1.743   4.047
 2118SOL    HW1  914   2.359   1.782   4.133
 2118SOL    HW2  915   2.402   1.736   3.982
 2141SOL     OW  916   2.350   1.385   3.898
 2141SOL    HW1  917   2.263   1.370   3.945
 2141SOL    HW2  918   2.333   1.411   3.803
 2192SOL     OW  919   2.534   1.616   3.878
 2192SOL    HW1  920   2.543   1.626   3.779
 2192SOL    HW2  921   2.494   1.527   3.899
 2195SOL     OW  922   3.056   1.612   3.755
 2195SOL    HW1  923   3.062   1.519   3.792
 2195SOL    HW2  924   2.997   1.612   3.675
 2198SOL     OW  925   3.366   1.607   3.768
 2198SOL    HW1  926   3.274   1.644   3.775
 2198SOL    HW2  927   3.404   1.627   3.678
 2216SOL     OW  928   2.721   1.374   3.740
 2216SOL    HW1  929   2.675   1.389   3.828
 2216SOL    HW2  930   2.765   1.459   3.710
 2235SOL     OW  931   2.737   1.646   4.061
 2235SOL    HW1  932   2.660   1.611   4.007
 2235SOL    HW2  933   2.705   1.717   4.123
 2237SOL     OW  934   2.087   2.137   0.996
 2237SOL    HW1  935   2.122   2.120   1.088
 2237SOL    HW2  936   1.999   2.092   0.984
 2239SOL     OW  937   2.431   3.137   1.165
 2239SOL    HW1  938   2.338   3.130   1.128
 2239SOL    HW2  939   2.442   3.226   1.209
 2243SOL     OW  940   2.630   3.006   1.023
 2243SOL    HW1  941   2.552   3.023   1.083
 2243SOL    HW2  942   2.664   3.093   0.987
 2244SOL     OW  943   2.712   2.660   1.823
 2244SOL    HW1  944   2.708   2.736   1.888
 2244SOL    HW2  945   2.734   2.696   1.732
 2246SOL     OW  946   2.548   3.023   1.803
 2246SOL    HW1  947   2.608   3.102   1.817
 2246SOL    HW2  948   2.462   3.054   1.762
 2247SOL     OW  949   2.197   3.297   1.061
 2247SOL    HW1  950   2.119   3.266   1.008
 2247SOL    HW2  951   2.255   3.355   1.004
 2248SOL     OW  952   3.322   3.367   1.339
 2248SOL    HW1  953   3.346   3.461   1.365
 2248SOL    HW2  954   3.306   3.313   1.421
 2249SOL     OW  955   2.300   2.254   1.499
 2249SOL    HW1  956   2.382   2.198   1.508
 2249SOL    HW2  957   2.219   2.196   1.503
 2252SOL     OW  958   2.989   3.203   1.690
 2252SOL    HW1  959   3.036   3.203   1.778
 2252SOL    HW2  960   2.941   3.116   1.679
 2255SOL     OW  961   2.482   3.648   1.439
 2255SOL    HW1  962   2.390   3.631   1.474
 2255SOL    HW2  963   2.510   3.740   1.465
 2257SOL     OW  964   3.456   1.976   1.480
 2257SOL    HW1  965   3.438   2.043   1.408
 2257SOL    HW2  966   3.453   2.022   1.569
 2263SOL     OW  967   1.975   2.599   1.597
 2263SOL    HW1  968   2.063   2.586   1.642
 2263SOL    HW2  969   1.962   2.696   1.575
 2265SOL     OW  970   3.155   3.090   1.423
 2265SOL    HW1  971   3.192   3.017   1.365
 2265SOL    HW2  972   3.207   3.095   1.508
 2267SOL     OW  973   2.059   2.838   1.264
 2267SOL    HW1  974   2.148   2.793   1.250
 2267SOL    HW2  975   1.986   2.773   1.245
 2269SOL     OW  976   3.049   3.654   1.616
 2269SOL    HW1  977   3.073   3.714   1.540
 2269SOL    HW2  978   3.056   3.559   1.586
 2270SOL     OW  979   2.179   2.113   1.801
 2270SOL    HW1  980   2.250   2.184   1.807
 2270SOL    HW2  981   2.091   2.152   1.829
 2274SOL     OW  982   3.143   2.207   0.944
 2274SOL    HW1  983   3.057   2.157   0.931
 2274SOL    HW2  984   3.205   2.153   1.000
 2276SOL     OW  985   2.669   2.467   1.465
 2276SOL    HW1  986   2.622   2.464   1.554
 2276SOL    HW2  987   2.618   2.412   1.399
 2277SOL     OW  988   3.256   2.331   1.674
 2277SOL    HW1  989   3.236   2.374   1.762
 2277SOL    HW2  990   3.334   2.269   1.683
 2278SOL     OW  991   2.835   2.752   1.572
 2278SOL    HW1  992   2.881   2.668   1.543
 2278SOL    HW2  993   2.779   2.786   1.497
 2279SOL     OW  994   2.853   2.272   1.242
 2279SOL    HW1  995   2.776   2.306   1.296
 2279SOL    HW2  996   2.819   2.221   1.163
 2282SOL     OW  997   1.992   3.683   1.571
 2282SOL    HW1  998   1.982   3.668   1.670
 2282SOL    HW2  999   1.906   3.719   1.535
 2284SOL     OW 1000   3.581   2.447   1.831
 2284SOL    HW1 1001   3.555   2.536   1.795
 2284SOL    HW2 1002   3.579   2.379   1.758
 2290SOL     OW 1003   3.089   3.412   1.506
 2290SOL    HW1 1004   3.095   3.335   1.570
 2290SOL    HW2 1005   3.037   3.386   1.426
 2293SOL     OW 1006   2.323   3.128   1.727
 2293SOL    HW1 1007   2.273   3.129   1.641
 2293SOL    HW2 1008   2.260   3.110   1.803
 2295SOL     OW 1009   2.064   2.147   1.498
 2295SOL    HW1 1010   1.984   2.207   1.485
 2295SOL    HW2 1011   2.054   2.098   1.584
 2299SOL     OW 1012   2.111   3.647   1.241
 2299SOL    HW1 1013   2.168   3.582   1.291
 2299SOL    HW2 1014   2.095   3.614   1.148
 2302SOL     OW 1015   3.409   2.084   1.729
 2302SOL    HW1 1016   3.404   2.121   1.821
 2302SOL    HW2 1017   3.337   2.015   1.717
 2303SOL     OW 1018   2.643   2.126   1.749
 2303SOL    HW1 1019   2.710   2.065   1.792
 2303SOL    HW2 1020   2.570   2.145   1.814
 2304SOL     OW 1021   2.750   3.376   1.195
 2304SOL    HW1 1022   2.727   3.351   1.101
 2304SOL    HW2 1023   2.811   3.307   1.234
 2305SOL     OW 1024   3.213   2.452   1.433
 2305SOL    HW1 1025   3.241   2.409   1.518
 2305SOL    HW2 1026   3.238   2.548   1.434
 2307SOL     OW 1027   2.784   2.365   0.899
 2307SOL    HW1 1028   2.759   2.356   0.803
 2307SOL    HW2 1029   2.832   2.283   0.930
 2311SOL     OW 1030   2.938   2.545   1.464
 2311SOL    HW1 1031   2.858   2.484   1.467
 2311SOL    HW2 1032   3.019   2.492   1.440
 2316SOL     OW 1033   1.940   2.418   1.386
 2316SOL    HW1 1034   2.032   2.417   1.345
 2316SOL    HW2 1035   1.934   2.492   1.453
 2317SOL     OW 1036   2.423   2.084   1.147
 2317SOL    HW1 1037   2.461   2.000   1.184
 2317SOL    HW2 1038   2.335   2.103   1.191
 2321SOL     OW 1039   3.328   2.452   0.992
 2321SOL    HW1 1040   3.298   2.357   0.999
 2321SOL    HW2 1041   3.401   2.468   1.058
 2327SOL     OW 1042   3.616   3.085   1.588
 2327SOL    HW1 1043   3.707   3.046   1.575
 2327SOL    HW2 1044   3.624   3.181   1.612
 2328SOL     OW 1045   2.926   3.209   1.340
 2328SOL    HW1 1046   2.846   3.186   1.395
 2328SOL    HW2 1047   3.009   3.183   1.389
 2329SOL     OW 1048   3.454   3.491   1.625
 2329SOL    HW1 1049   3.481   3.525   1.535
 2329SOL    HW2 1050   3.533   3.453   1.671
 2330SOL     OW 1051   2.973   3.057   1.100
 2330SOL    HW1 1052   2.933   3.101   1.181
 2330SOL    HW2 1053   2.932   3.094   1.017
 2332SOL     OW 1054   2.777   1.951   1.402
 2332SOL    HW1 1055   2.802   1.931   1.307
 2332SOL    HW2 1056   2.849   2.007   1.444
 2333SOL     OW 1057   2.842   2.978   1.719
 2333SOL    HW1 1058   2.743   2.984   1.729
 2333SOL    HW2 1059   2.865   2.898   1.663
 2335SOL     OW 1060   2.272   2.675   1.251
 2335SOL    HW1 1061   2.358   2.687   1.301
 2335SOL    HW2 1062   2.230   2.588   1.278
 2336SOL     OW 1063   3.136   2.248   1.262
 2336SOL    HW1 1064   3.157   2.322   1.326
 2336SOL    HW2 1065   3.047   2.265   1.219
 2337SOL     OW 1066   1.926   3.426   1.331
 2337SOL    HW1 1067   1.880   3.508   1.297
 2337SOL    HW2 1068   2.024   3.445   1.340
 2339SOL     OW 1069   2.428   2.399   0.865
 2339SOL    HW1 1070   2.440   2.465   0.791
 2339SOL    HW2 1071   2.474   2.433   0.948
 2341SOL     OW 1072   3.134   3.307   1.142
 2341SOL    HW1 1073   3.181   3.320   1.229
 2341SOL    HW2 1074   3.068   3.233   1.151
 2343SOL     OW 1075   2.216   3.372   1.329
 2343SOL    HW1 1076   2.195   3.328   1.242
 2343SOL    HW2 1077   2.313   3.398   1.332
 2344SOL     OW 1078   2.264   2.613   1.598
 2344SOL    HW1 1079   2.332   2.668   1.551
 2344SOL    HW2 1080   2.304   2.525   1.625
 2345SOL     OW 1081   3.449   2.641   1.670
 2345SOL    HW1 1082   3.357   2.679   1.665
 2345SOL    HW2 1083   3.509   2.688   1.605
 2346SOL     OW 1084   2.875   1.967   1.770
 2346SOL    HW1 1085   2.881   2.052   1.718
 2346SOL    HW2 1086   2.907   1.891   1.713
 2347SOL     OW 1087   2.366   1.912   1.740
 2347SOL    HW1 1088   2.324   1.855   1.670
 2347SOL    HW2 1089   2.300   1.981   1.772
 2348SOL     OW 1090   2.435   2.732   1.029
 2348SOL    HW1 1091   2.479   2.821   1.020
 2348SOL    HW2 1092   2.372   2.732   1.106
 2349SOL     OW 1093   3.222   2.724   1.045
 2349SOL    HW1 1094   3.147   2.724   0.979
 2349SOL    HW2 1095   3.259   2.632   1.054
 2351SOL     OW 1096   2.169   2.075   1.231
 2351SOL    HW1 1097   2.146   2.112   1.321
 2351SOL    HW2 1098   2.139   1.980   1.225
 2352SOL     OW 1099   1.899   3.172   1.282
 2352SOL    HW1 1100   1.952   3.123   1.350
 2352SOL    HW2 1101   1.921   3.270   1.287
 2353SOL     OW 1102   2.594   2.496   1.064
 2353SOL    HW1 1103   2.653   2.470   0.988
 2353SOL    HW2 1104   2.566   2.592   1.053
 2354SOL     OW 1105   3.590   2.797   1.854
 2354SOL    HW1 1106   3.544   2.790   1.765
 2354SOL    HW2 1107   3.528   2.841   1.920
 2357SOL     OW 1108   2.885   2.628   0.966
 2357SOL    HW1 1109   2.900   2.649   1.062
 2357SOL    HW2 1110   2.855   2.533   0.957
 2358SOL     OW 1111   2.842   3.435   1.700
 2358SOL    HW1 1112   2.822   3.479   1.612
 2358SOL    HW2 1113   2.881   3.344   1.684
 2359SOL     OW 1114   3.721   3.380   1.605
 2359SOL    HW1 1115   3.735   3.407   1.510
 2359SOL    HW2 1116   3.804   3.402   1.658
 2360SOL     OW 1117   2.212   2.760   1.804
 2360SOL    HW1 1118   2.288   2.804   1.852
 2360SOL    HW2 1119   2.247   2.713   1.722
 2364SOL     OW 1120   2.181   2.672   0.949
 2364SOL    HW1 1121   2.274   2.708   0.954
 2364SOL    HW2 1122   2.175   2.587   1.001
 2365SOL     OW 1123   2.201   2.371   1.006
 2365SOL    HW1 1124   2.149   2.288   0.989
 2365SOL    HW2 1125   2.278   2.376   0.942
 2366SOL     OW 1126   3.000   2.242   1.678
 2366SOL    HW1 1127   2.955   2.305   1.742
 2366SOL    HW2 1128   3.093   2.273   1.661
 2367SOL     OW 1129   3.022   2.069   1.477
 2367SOL    HW1 1130   3.022   2.133   1.554
 2367SOL    HW2 1131   3.050   2.117   1.394
 2371SOL     OW 1132   2.864   2.658   1.238
 2371SOL    HW1 1133   2.905   2.626   1.324
 2371SOL    HW2 1134   2.768   2.631   1.235
 2372SOL     OW 1135   1.902   2.406   1.114
 2372SOL    HW1 1136   1.987   2.373   1.073
 2372SOL    HW2 1137   1.915   2.421   1.212
 2373SOL     OW 1138   2.051   2.382   1.722
 2373SOL    HW1 1139   2.110   2.342   1.652
 2373SOL    HW2 1140   1.993   2.453   1.681
 2374SOL     OW 1141   3.231   2.812   1.660
 2374SOL    HW1 1142   3.270   2.901   1.680
 2374SOL    HW2 1143   3.241   2.792   1.563
 2376SOL     OW 1144   3.519   2.466   1.206
 2376SOL    HW1 1145   3.481   2.397   1.268
 2376SOL    HW2 1146   3.601   2.430   1.162
 2377SOL     OW 1147   2.114   3.426   1.744
 2377SOL    HW1 1148   2.084   3.483   1.820
 2377SOL    HW2 1149   2.107   3.329   1.770
 2378SOL     OW 1150   2.533   2.326   1.269
 2378SOL    HW1 1151   2.499   2.237   1.239
 2378SOL    HW2 1152   2.559   2.380   1.189
 2379SOL     OW 1153   2.792   3.540   1.465
 2379SOL    HW1 1154   2.768   3.522   1.370
 2379SOL    HW2 1155   2.822   3.634   1.475
 2381SOL     OW 1156   2.021   2.999   1.466
 2381SOL    HW1 1157   2.043   2.938   1.542
 2381SOL    HW2 1158   2.031   2.950   1.380
 2382SOL     OW 1159   3.209   2.921   1.234
 2382SOL    HW1 1160   3.233   2.858   1.160
 2382SOL    HW2 1161   3.119   2.961   1.216
 2386SOL     OW 1162   1.945   3.120   1.022
 2386SOL    HW1 1163   1.940   3.119   1.122
 2386SOL    HW2 1164   1.862   3.079   0.984
 2387SOL     OW 1165   2.550   3.524   1.716
 2387SOL    HW1 1166   2.494   3.605   1.725
 2387SOL    HW2 1167   2.602   3.528   1.630
 2391SOL     OW 1168   1.992   3.656   1.851
 2391SOL    HW1 1169   1.951   3.582   1.904
 2391SOL    HW2 1170   2.056   3.707   1.909
 2393SOL     OW 1171   2.692   3.135   1.422
 2393SOL    HW1 1172   2.687   3.168   1.517
 2393SOL    HW2 1173   2.606   3.154   1.376
 2399SOL     OW 1174   2.684   2.864   1.372
 2399SOL    HW1 1175   2.724   2.863   1.280
 2399SOL    HW2 1176   2.694   2.956   1.412
 2402SOL     OW 1177   2.234   3.150   1.490
 2402SOL    HW1 1178   2.221   3.243   1.456
 2402SOL    HW2 1179   2.150   3.098   1.477
 2403SOL     OW 1180   3.476   3.154   1.289
 2403SOL    HW1 1181   3.536   3.157   1.369
 2403SOL    HW2 1182   3.401   3.218   1.302
 2405SOL     OW 1183   2.876   2.098   0.971
 2405SOL    HW1 1184   2.868   2.062   0.878
 2405SOL    HW2 1185   2.874   2.022   1.036
 2407SOL     OW 1186   3.571   2.247   1.381
 2407SOL    HW1 1187   3.644   2.316   1.385
 2407SOL    HW2 1188   3.599   2.172   1.322
 2409SOL     OW 1189   1.967   2.875   1.726
 2409SOL    HW1 1190   1.890   2.842   1.780
 2409SOL    HW2 1191   2.052   2.845   1.768
 2410SOL     OW 1192   2.534   2.065   1.489
 2410SOL    HW1 1193   2.624   2.049   1.449
 2410SOL    HW2 1194   2.542   2.070   1.588
 2412SOL     OW 1195   3.302   2.718   1.398
 2412SOL    HW1 1196   3.245   2.770   1.335
 2412SOL    HW2 1197   3.398   2.730   1.374
 2415SOL     OW 1198   2.475   2.704   1.431
 2415SOL    HW1 1199   2.531   2.785   1.414
 2415SOL    HW2 1200   2.534   2.624   1.434
 2417SOL     OW 1201   2.578   2.427   1.708
 2417SOL    HW1 1202   2.597   2.492   1.782
 2417SOL    HW2 1203   2.638   2.347   1.717
 2418SOL     OW 1204   3.312   3.082   1.633
 2418SOL    HW1 1205   3.303   3.072   1.732
 2418SOL    HW2 1206   3.408   3.075   1.607
 2419SOL     OW 1207   2.252   3.603   1.560
 2419SOL    HW1 1208   2.161   3.644   1.558
 2419SOL    HW2 1209   2.245   3.509   1.592
 2420SOL     OW 1210   3.536   2.745   1.254
 2420SOL    HW1 1211   3.509   2.656   1.217
 2420SOL    HW2 1212   3.537   2.813   1.181
 2423SOL     OW 1213   3.639   2.204   1.642
 2423SOL    HW1 1214   3.622   2.235   1.548
 2423SOL    HW2 1215   3.555   2.167   1.680
 2424SOL     OW 1216   3.592   2.796   1.517
 2424SOL    HW1 1217   3.630   2.887   1.532
 2424SOL    HW2 1218   3.584   2.779   1.418
 2427SOL     OW 1219   2.721   2.818   0.861
 2427SOL    HW1 1220   2.775   2.749   0.909
 2427SOL    HW2 1221   2.689   2.887   0.927
 2430SOL     OW 1222   2.083   3.176   1.844
 2430SOL    HW1 1223   2.018   3.103   1.823
 2430SOL    HW2 1224   2.087   3.190   1.942
 2432SOL     OW 1225   2.534   3.253   1.624
 2432SOL    HW1 1226   2.456   3.203   1.662
 2432SOL    HW2 1227   2.531   3.348   1.655
 2436SOL     OW 1228   2.179   2.409   1.280
 2436SOL    HW1 1229   2.217   2.350   1.352
 2436SOL    HW2 1230   2.219   2.383   1.192
 2438SOL     OW 1231   3.286   2.076   1.112
 2438SOL    HW1 1232   3.338   2.011   1.167
 2438SOL    HW2 1233   3.237   2.139   1.173
 2439SOL     OW 1234   2.863   1.896   1.154
 2439SOL    HW1 1235   2.800   1.824   1.123
 2439SOL    HW2 1236   2.956   1.860   1.154
 2441SOL     OW 1237   2.480   3.429   1.284
 2441SOL    HW1 1238   2.475   3.511   1.341
 2441SOL    HW2 1239   2.569   3.426   1.239
 2447SOL     OW 1240   2.092   2.490   1.975
 2447SOL    HW1 1241   1.999   2.488   2.012
 2447SOL    HW2 1242   2.093   2.451   1.883
 2448SOL     OW 1243   2.087   2.137   2.858
 2448SOL    HW1 1244   2.122   2.120   2.950
 2448SOL    HW2 1245   1.999   2.092   2.846
 2449SOL     OW 1246   1.881   2.230   2.509
 2449SOL    HW1 1247   1.799   2.273   2.548
 2449SOL    HW2 1248   1.853   2.157   2.446
 2450SOL     OW 1249   2.431   3.137   3.027
 2450SOL    HW1 1250   2.338   3.130   2.990
 2450SOL    HW2 1251   2.442   3.226   3.071
 2451SOL     OW 1252   3.417   3.373   2.565
 2451SOL    HW1 1253   3.360   3.357   2.646
 2451SOL    HW2 1254   3.358   3.383   2.485
 2452SOL     OW 1255   3.617   2.469   2.093
 2452SOL    HW1 1256   3.605   2.456   1.994
 2452SOL    HW2 1257   3.587   2.388   2.142
 2453SOL     OW 1258   2.630   3.006   2.885
 2453SOL    HW1 1259   2.552   3.023   2.945
 2453SOL    HW2 1260   2.664   3.093   2.849
 2454SOL     OW 1261   2.712   2.660   3.685
 2454SOL    HW1 1262   2.708   2.736   3.750
 2454SOL    HW2 1263   2.734   2.696   3.594
 2455SOL     OW 1264   2.548   3.023   3.665
 2455SOL    HW1 1265   2.608   3.102   3.679
 2455SOL    HW2 1266   2.462   3.054   3.624
 2456SOL     OW 1267   2.197   3.297   2.923
 2456SOL    HW1 1268   2.119   3.266   2.870
 2456SOL    HW2 1269   2.255   3.355   2.866
 2457SOL     OW 1270   3.322   3.367   3.201
 2457SOL    HW1 1271   3.346   3.461   3.227
 2457SOL    HW2 1272   3.306   3.313   3.283
 2458SOL     OW 1273   2.300   2.254   3.361
 2458SOL    HW1 1274   2.382   2.198   3.370
 2458SOL    HW2 1275   2.219   2.196   3.365
 2459SOL     OW 1276   3.465   2.309   2.599
 2459SOL    HW1 1277   3.391   2.355   2.549
 2459SOL    HW2 1278   3.516   2.377   2.652
 2460SOL     OW 1279   2.093   3.575   2.345
 2460SOL    HW1 1280   2.127   3.652   2.399
 2460SOL    HW2 1281   2.137   3.575   2.255
 2461SOL     OW 1282   2.989   3.203   3.552
 2461SOL    HW1 1283   3.036   3.203   3.640
 2461SOL    HW2 1284   2.941   3.116   3.541
 2462SOL     OW 1285   2.092   3.296   2.400
 2462SOL    HW1 1286   2.066   3.392   2.400
 2462SOL    HW2 1287   2.021   3.242   2.445
 2463SOL     OW 1288   2.102   2.953   2.748
 2463SOL    HW1 1289   2.116   2.869   2.800
 2463SOL    HW2 1290   2.047   3.017   2.803
 2464SOL     OW 1291   2.482   3.648   3.301
 2464SOL    HW1 1292   2.390   3.631   3.336
 2464SOL    HW2 1293   2.510   3.740   3.327
 2465SOL     OW 1294   2.468   2.826   1.985
 2465SOL    HW1 1295   2.475   2.910   1.931
 2465SOL    HW2 1296   2.514   2.839   2.073
 2466SOL     OW 1297   3.456   1.976   3.342
 2466SOL    HW1 1298   3.438   2.043   3.270
 2466SOL    HW2 1299   3.453   2.022   3.431
 2467SOL     OW 1300   3.704   3.629   2.221
 2467SOL    HW1 1301   3.758   3.600   2.301
 2467SOL    HW2 1302   3.734   3.719   2.192
 2468SOL     OW 1303   1.889   3.458   1.979
 2468SOL    HW1 1304   1.870   3.362   2.000
 2468SOL    HW2 1305   1.856   3.516   2.054
 2469SOL     OW 1306   3.551   2.784   2.474
 2469SOL    HW1 1307   3.646   2.755   2.482
 2469SOL    HW2 1308   3.543   2.849   2.399
 2470SOL     OW 1309   3.503   2.970   2.294
 2470SOL    HW1 1310   3.589   2.972   2.242
 2470SOL    HW2 1311   3.517   3.017   2.382
 2471SOL     OW 1312   1.975   2.599   3.459
 2471SOL    HW1 1313   2.063   2.586   3.504
 2471SOL    HW2 1314   1.962   2.696   3.437
 2472SOL     OW 1315   2.475   3.227   2.588
 2472SOL    HW1 1316   2.426   3.140   2.597
 2472SOL    HW2 1317   2.452   3.270   2.501
 2473SOL     OW 1318   3.155   3.090   3.285
 2473SOL    HW1 1319   3.192   3.017   3.227
 2473SOL    HW2 1320   3.207   3.095   3.370
 2474SOL     OW 1321   2.671   1.866   2.364
 2474SOL    HW1 1322   2.711   1.957   2.355
 2474SOL    HW2 1323   2.571   1.874   2.370
 2475SOL     OW 1324   2.059   2.838   3.126
 2475SOL    HW1 1325   2.148   2.793   3.112
 2475SOL    HW2 1326   1.986   2.773   3.107
 2476SOL     OW 1327   3.387   2.861   2.052
 2476SOL    HW1 1328   3.324   2.785   2.065
 2476SOL    HW2 1329   3.435   2.879   2.138
 2477SOL     OW 1330   3.049   3.654   3.478
 2477SOL    HW1 1331   3.073   3.714   3.402
 2477SOL    HW2 1332   3.056   3.559   3.448
 2478SOL     OW 1333   2.179   2.113   3.663
 2478SOL    HW1 1334   2.250   2.184   3.669
 2478SOL    HW2 1335   2.091   2.152   3.691
 2479SOL     OW 1336   3.328   3.279   2.815
 2479SOL    HW1 1337   3.269   3.285   2.895
 2479SOL    HW2 1338   3.313   3.191   2.769
 2480SOL     OW 1339   3.529   3.576   2.434
 2480SOL    HW1 1340   3.488   3.553   2.346
 2480SOL    HW2 1341   3.511   3.502   2.499
 2481SOL     OW 1342   2.460   2.591   2.132
 2481SOL    HW1 1343   2.484   2.660   2.064
 2481SOL    HW2 1344   2.382   2.624   2.186
 2482SOL     OW 1345   3.143   2.207   2.806
 2482SOL    HW1 1346   3.057   2.157   2.793
 2482SOL    HW2 1347   3.205   2.153   2.862
 2483SOL     OW 1348   3.438   3.524   2.169
 2483SOL    HW1 1349   3.527   3.570   2.172
 2483SOL    HW2 1350   3.417   3.500   2.074
 2484SOL     OW 1351   2.669   2.467   3.327
 2484SOL    HW1 1352   2.622   2.464   3.416
 2484SOL    HW2 1353   2.618   2.412   3.261
 2485SOL     OW 1354   3.256   2.331   3.536
 2485SOL    HW1 1355   3.236   2.374   3.624
 2485SOL    HW2 1356   3.334   2.269   3.545
 2486SOL     OW 1357   2.835   2.752   3.434
 2486SOL    HW1 1358   2.881   2.668   3.405
 2486SOL    HW2 1359   2.779   2.786   3.359
 2487SOL     OW 1360   2.853   2.272   3.104
 2487SOL    HW1 1361   2.776   2.306   3.158
 2487SOL    HW2 1362   2.819   2.221   3.025
 2488SOL     OW 1363   2.903   2.563   2.291
 2488SOL    HW1 1364   2.929   2.559   2.387
 2488SOL    HW2 1365   2.818   2.512   2.277
 2489SOL     OW 1366   1.938   2.673   2.651
 2489SOL    HW1 1367   2.037   2.661   2.660
 2489SOL    HW2 1368   1.914   2.768   2.672
 2490SOL     OW 1369   1.992   3.683   3.433
 2490SOL    HW1 1370   1.982   3.668   3.532
 2490SOL    HW2 1371   1.906   3.719   3.397
 2491SOL     OW 1372   2.727   2.210   2.057
 2491SOL    HW1 1373   2.786   2.273   2.008
 2491SOL    HW2 1374   2.746   2.116   2.028
 2492SOL     OW 1375   3.581   2.447   3.693
 2492SOL    HW1 1376   3.555   2.536   3.657
 2492SOL    HW2 1377   3.579   2.379   3.620
 2493SOL     OW 1378   3.224   3.006   2.407
 2493SOL    HW1 1379   3.307   2.977   2.359
 2493SOL    HW2 1380   3.175   3.073   2.351
 2494SOL     OW 1381   2.412   2.058   2.747
 2494SOL    HW1 1382   2.407   2.053   2.847
 2494SOL    HW2 1383   2.414   2.154   2.718
 2495SOL     OW 1384   2.870   3.318   2.339
 2495SOL    HW1 1385   2.824   3.390   2.287
 2495SOL    HW2 1386   2.866   3.338   2.437
 2496SOL     OW 1387   2.213   3.663   2.715
 2496SOL    HW1 1388   2.263   3.577   2.721
 2496SOL    HW2 1389   2.278   3.740   2.712
 2497SOL     OW 1390   3.657   2.928   2.735
 2497SOL    HW1 1391   3.595   2.913   2.659
 2497SOL    HW2 1392   3.605   2.939   2.820
 2498SOL     OW 1393   3.089   3.412   3.368
 2498SOL    HW1 1394   3.095   3.335   3.432
 2498SOL    HW2 1395   3.037   3.386   3.288
 2499SOL     OW 1396   2.183   2.805   2.104
 2499SOL    HW1 1397   2.265   2.844   2.062
 2499SOL    HW2 1398   2.156   2.723   2.055
 2500SOL     OW 1399   3.320   2.597   2.590
 2500SOL    HW1 1400   3.315   2.532   2.665
 2500SOL    HW2 1401   3.400   2.656   2.603
 2501SOL     OW 1402   2.323   3.128   3.589
 2501SOL    HW1 1403   2.273   3.129   3.503
 2501SOL    HW2 1404   2.260   3.110   3.665
 2502SOL     OW 1405   2.973   3.638   2.099
 2502SOL    HW1 1406   2.913   3.576   2.149
 2502SOL    HW2 1407   3.004   3.594   2.014
 2503SOL     OW 1408   2.064   2.147   3.360
 2503SOL    HW1 1409   1.984   2.207   3.347
 2503SOL    HW2 1410   2.054   2.098   3.446
 2504SOL     OW 1411   3.494   3.239   1.943
 2504SOL    HW1 1412   3.462   3.333   1.933
 2504SOL    HW2 1413   3.418   3.176   1.931
 2505SOL     OW 1414   2.326   3.605   2.185
 2505SOL    HW1 1415   2.359   3.644   2.271
 2505SOL    HW2 1416   2.402   3.598   2.120
 2506SOL     OW 1417   3.262   1.969   2.288
 2506SOL    HW1 1418   3.238   1.932   2.198
 2506SOL    HW2 1419   3.361   1.985   2.292
 2507SOL     OW 1420   2.111   3.647   3.103
 2507SOL    HW1 1421   2.168   3.582   3.153
 2507SOL    HW2 1422   2.095   3.614   3.010
 2508SOL     OW 1423   2.802   3.560   2.766
 2508SOL    HW1 1424   2.882   3.503   2.787
 2508SOL    HW2 1425   2.753   3.520   2.689
 2509SOL     OW 1426   3.409   2.084   3.591
 2509SOL    HW1 1427   3.404   2.121   3.683
 2509SOL    HW2 1428   3.337   2.015   3.579
 2510SOL     OW 1429   2.476   1.984   1.979
 2510SOL    HW1 1430   2.574   1.962   1.986
 2510SOL    HW2 1431   2.445   1.967   1.886
 2511SOL     OW 1432   2.643   2.126   3.611
 2511SOL    HW1 1433   2.710   2.065   3.654
 2511SOL    HW2 1434   2.570   2.145   3.676
 2512SOL     OW 1435   2.750   3.376   3.057
 2512SOL    HW1 1436   2.727   3.351   2.963
 2512SOL    HW2 1437   2.811   3.307   3.096
 2513SOL     OW 1438   3.213   2.452   3.295
 2513SOL    HW1 1439   3.241   2.409   3.380
 2513SOL    HW2 1440   3.238   2.548   3.296
 2514SOL     OW 1441   2.665   3.264   2.786
 2514SOL    HW1 1442   2.755   3.278   2.744
 2514SOL    HW2 1443   2.594   3.266   2.715
 2515SOL     OW 1444   2.401   1.926   2.374
 2515SOL    HW1 1445   2.320   1.927   2.432
 2515SOL    HW2 1446   2.404   2.009   2.319
 2516SOL     OW 1447   3.296   3.050   1.903
 2516SOL    HW1 1448   3.328   2.974   1.960
 2516SOL    HW2 1449   3.204   3.077   1.933
 2517SOL     OW 1450   2.159   1.897   2.033
 2517SOL    HW1 1451   2.208   1.981   2.012
 2517SOL    HW2 1452   2.221   1.832   2.078
 2518SOL     OW 1453   2.797   2.098   2.342
 2518SOL    HW1 1454   2.749   2.139   2.264
 2518SOL    HW2 1455   2.896   2.096   2.323
 2519SOL     OW 1456   2.938   2.545   3.326
 2519SOL    HW1 1457   2.858   2.484   3.329
 2519SOL    HW2 1458   3.019   2.492   3.302
 2520SOL     OW 1459   3.089   3.432   2.655
 2520SOL    HW1 1460   3.110   3.506   2.590
 2520SOL    HW2 1461   3.157   3.432   2.728
 2521SOL     OW 1462   2.321   3.014   2.603
 2521SOL    HW1 1463   2.250   2.987   2.668
 2521SOL    HW2 1464   2.295   2.986   2.510
 2522SOL     OW 1465   3.133   3.659   2.453
 2522SOL    HW1 1466   3.177   3.723   2.389
 2522SOL    HW2 1467   3.083   3.711   2.523
 2523SOL     OW 1468   2.894   2.411   1.878
 2523SOL    HW1 1469   2.853   2.493   1.839
 2523SOL    HW2 1470   2.958   2.437   1.951
 2524SOL     OW 1471   1.940   2.418   3.248
 2524SOL    HW1 1472   2.032   2.417   3.207
 2524SOL    HW2 1473   1.934   2.492   3.315
 2525SOL     OW 1474   2.423   2.084   3.009
 2525SOL    HW1 1475   2.461   2.000   3.046
 2525SOL    HW2 1476   2.335   2.103   3.053
 2526SOL     OW 1477   2.728   2.316   2.504
 2526SOL    HW1 1478   2.696   2.388   2.442
 2526SOL    HW2 1479   2.752   2.235   2.451
 2527SOL     OW 1480   2.879   1.901   2.615
 2527SOL    HW1 1481   2.807   1.906   2.546
 2527SOL    HW2 1482   2.855   1.832   2.684
 2528SOL     OW 1483   3.291   3.035   2.729
 2528SOL    HW1 1484   3.236   2.951   2.722
 2528SOL    HW2 1485   3.317   3.064   2.637
 2529SOL     OW 1486   3.328   2.452   2.854
 2529SOL    HW1 1487   3.298   2.357   2.861
 2529SOL    HW2 1488   3.401   2.468   2.920
 2530SOL     OW 1489   3.719   2.695   2.239
 2530SOL    HW1 1490   3.761   2.631   2.303
 2530SOL    HW2 1491   3.681   2.644   2.161
 2531SOL     OW 1492   2.350   3.247   2.036
 2531SOL    HW1 1493   2.263   3.232   2.083
 2531SOL    HW2 1494   2.333   3.273   1.941
 2532SOL     OW 1495   3.526   3.142   2.519
 2532SOL    HW1 1496   3.625   3.150   2.533
 2532SOL    HW2 1497   3.481   3.226   2.550
 2533SOL     OW 1498   3.252   2.437   1.940
 2533SOL    HW1 1499   3.198   2.416   2.021
 2533SOL    HW2 1500   3.343   2.396   1.949
 2534SOL     OW 1501   2.389   2.118   2.190
 2534SOL    HW1 1502   2.416   2.059   2.115
 2534SOL    HW2 1503   2.389   2.213   2.159
 2535SOL     OW 1504   3.616   3.085   3.450
 2535SOL    HW1 1505   3.707   3.046   3.437
 2535SOL    HW2 1506   3.624   3.181   3.474
 2536SOL     OW 1507   2.926   3.209   3.202
 2536SOL    HW1 1508   2.846   3.186   3.257
 2536SOL    HW2 1509   3.009   3.183   3.251
 2537SOL     OW 1510   3.454   3.491   3.487
 2537SOL    HW1 1511   3.481   3.525   3.397
 2537SOL    HW2 1512   3.533   3.453   3.533
 2538SOL     OW 1513   2.973   3.057   2.962
 2538SOL    HW1 1514   2.933   3.101   3.043
 2538SOL    HW2 1515   2.932   3.094   2.879
 2539SOL     OW 1516   3.500   2.961   2.941
 2539SOL    HW1 1517   3.505   3.042   3.000
 2539SOL    HW2 1518   3.414   2.963   2.890
 2540SOL     OW 1519   2.777   1.951   3.264
 2540SOL    HW1 1520   2.802   1.931   3.169
 2540SOL    HW2 1521   2.849   2.007   3.306
 2541SOL     OW 1522   2.842   2.978   3.581
 2541SOL    HW1 1523   2.743   2.984   3.591
 2541SOL    HW2 1524   2.865   2.898   3.525
 2542SOL     OW 1525   2.567   2.912   2.230
 2542SOL    HW1 1526   2.553   2.919   2.329
 2542SOL    HW2 1527   2.651   2.861   2.212
 2543SOL     OW 1528   2.272   2.675   3.113
 2543SOL    HW1 1529   2.358   2.687   3.163
 2543SOL    HW2 1530   2.230   2.588   3.140
 2544SOL     OW 1531   3.136   2.248   3.124
 2544SOL    HW1 1532   3.157   2.322   3.188
 2544SOL    HW2 1533   3.047   2.265   3.081
 2545SOL     OW 1534   1.926   3.426   3.193
 2545SOL    HW1 1535   1.880   3.508   3.159
 2545SOL    HW2 1536   2.024   3.445   3.202
 2546SOL     OW 1537   2.229   2.962   2.363
 2546SOL    HW1 1538   2.222   3.045   2.307
 2546SOL    HW2 1539   2.233   2.882   2.303
 2547SOL     OW 1540   2.428   2.399   2.727
 2547SOL    HW1 1541   2.440   2.465   2.653
 2547SOL    HW2 1542   2.474   2.433   2.810
 2548SOL     OW 1543   3.114   3.210   2.250
 2548SOL    HW1 1544   3.164   3.287   2.290
 2548SOL    HW2 1545   3.019   3.212   2.282
 2549SOL     OW 1546   3.134   3.307   3.004
 2549SOL    HW1 1547   3.181   3.320   3.091
 2549SOL    HW2 1548   3.068   3.233   3.013
 2550SOL     OW 1549   3.444   2.501   2.334
 2550SOL    HW1 1550   3.413   2.562   2.407
 2550SOL    HW2 1551   3.494   2.553   2.265
 2551SOL     OW 1552   2.216   3.372   3.191
 2551SOL    HW1 1553   2.195   3.328   3.104
 2551SOL    HW2 1554   2.313   3.398   3.194
 2552SOL     OW 1555   2.264   2.613   3.460
 2552SOL    HW1 1556   2.332   2.668   3.413
 2552SOL    HW2 1557   2.304   2.525   3.487
 2553SOL     OW 1558   3.449   2.641   3.532
 2553SOL    HW1 1559   3.357   2.679   3.527
 2553SOL    HW2 1560   3.509   2.688   3.467
 2554SOL     OW 1561   2.875   1.967   3.632
 2554SOL    HW1 1562   2.881   2.052   3.580
 2554SOL    HW2 1563   2.907   1.891   3.575
 2555SOL     OW 1564   2.366   1.912   3.602
 2555SOL    HW1 1565   2.324   1.855   3.532
 2555SOL    HW2 1566   2.300   1.981   3.634
 2556SOL     OW 1567   2.435   2.732   2.891
 2556SOL    HW1 1568   2.479   2.821   2.882
 2556SOL    HW2 1569   2.372   2.732   2.968
 2557SOL     OW 1570   3.071   2.387   2.137
 2557SOL    HW1 1571   3.084   2.303   2.191
 2557SOL    HW2 1572   3.042   2.461   2.197
 2558SOL     OW 1573   2.169   2.075   3.093
 2558SOL    HW1 1574   2.146   2.112   3.183
 2558SOL    HW2 1575   2.139   1.980   3.087
 2559SOL     OW 1576   1.899   3.172   3.144
 2559SOL    HW1 1577   1.952   3.123   3.212
 2559SOL    HW2 1578   1.921   3.270   3.149
 2560SOL     OW 1579   2.594   2.496   2.926
 2560SOL    HW1 1580   2.653   2.470   2.850
 2560SOL    HW2 1581   2.566   2.592   2.915
 2561SOL     OW 1582   3.590   2.797   3.716
 2561SOL    HW1 1583   3.544   2.790   3.627
 2561SOL    HW2 1584   3.528   2.841   3.782
 2562SOL     OW 1585   2.169   1.925   2.480
 2562SOL    HW1 1586   2.158   2.019   2.513
 2562SOL    HW2 1587   2.164   1.862   2.557
 2563SOL     OW 1588   3.484   2.229   2.236
 2563SOL    HW1 1589   3.486   2.153   2.300
 2563SOL    HW2 1590   3.436   2.306   2.276
 2564SOL     OW 1591   2.842   3.435   3.562
 2564SOL    HW1 1592   2.822   3.479   3.474
 2564SOL    HW2 1593   2.881   3.344   3.546
 2565SOL     OW 1594   3.721   3.380   3.467
 2565SOL    HW1 1595   3.735   3.407   3.372
 2565SOL    HW2 1596   3.804   3.402   3.520
 2566SOL     OW 1597   2.212   2.760   3.666
 2566SOL    HW1 1598   2.288   2.804   3.714
 2566SOL    HW2 1599   2.247   2.713   3.584
 2567SOL     OW 1600   3.402   2.136   1.987
 2567SOL    HW1 1601   3.341   2.061   2.010
 2567SOL    HW2 1602   3.424   2.188   2.070
 2568SOL     OW 1603   3.165   2.700   1.904
 2568SOL    HW1 1604   3.199   2.607   1.919
 2568SOL    HW2 1605   3.183   2.727   1.809
 2569SOL     OW 1606   2.930   3.195   2.711
 2569SOL    HW1 1607   2.937   3.111   2.656
 2569SOL    HW2 1608   2.992   3.264   2.675
 2570SOL     OW 1609   2.181   2.672   2.811
 2570SOL    HW1 1610   2.274   2.708   2.816
 2570SOL    HW2 1611   2.175   2.587   2.863
 2571SOL     OW 1612   2.201   2.371   2.868
 2571SOL    HW1 1613   2.149   2.288   2.851
 2571SOL    HW2 1614   2.278   2.376   2.804
 2572SOL     OW 1615   3.000   2.242   3.540
 2572SOL    HW1 1616   2.955   2.305   3.604
 2572SOL    HW2 1617   3.093   2.273   3.523
 2573SOL     OW 1618   3.022   2.069   3.339
 2573SOL    HW1 1619   3.022   2.133   3.416
 2573SOL    HW2 1620   3.050   2.117   3.256
 2574SOL     OW 1621   1.870   3.188   2.062
 2574SOL    HW1 1622   1.777   3.209   2.031
 2574SOL    HW2 1623   1.880   3.089   2.075
 2575SOL     OW 1624   1.950   3.663   2.789
 2575SOL    HW1 1625   1.908   3.577   2.762
 2575SOL    HW2 1626   2.044   3.666   2.755
 2576SOL     OW 1627   2.366   3.430   2.772
 2576SOL    HW1 1628   2.432   3.504   2.781
 2576SOL    HW2 1629   2.410   3.351   2.730
 2577SOL     OW 1630   1.902   2.406   2.976
 2577SOL    HW1 1631   1.987   2.373   2.935
 2577SOL    HW2 1632   1.915   2.421   3.074
 2578SOL     OW 1633   2.051   2.382   3.584
 2578SOL    HW1 1634   2.110   2.342   3.514
 2578SOL    HW2 1635   1.993   2.453   3.543
 2579SOL     OW 1636   3.231   2.812   3.522
 2579SOL    HW1 1637   3.270   2.901   3.542
 2579SOL    HW2 1638   3.241   2.792   3.425
 2580SOL     OW 1639   2.677   2.434   2.187
 2580SOL    HW1 1640   2.684   2.345   2.141
 2580SOL    HW2 1641   2.583   2.468   2.179
 2581SOL     OW 1642   3.519   2.466   3.068
 2581SOL    HW1 1643   3.481   2.397   3.130
 2581SOL    HW2 1644   3.601   2.430   3.024
 2582SOL     OW 1645   2.114   3.426   3.606
 2582SOL    HW1 1646   2.084   3.483   3.682
 2582SOL    HW2 1647   2.107   3.329   3.632
 2583SOL     OW 1648   2.533   2.326   3.131
 2583SOL    HW1 1649   2.499   2.237   3.101
 2583SOL    HW2 1650   2.559   2.380   3.051
 2584SOL     OW 1651   2.792   3.540   3.327
 2584SOL    HW1 1652   2.768   3.522   3.232
 2584SOL    HW2 1653   2.822   3.634   3.337
 2585SOL     OW 1654   2.335   2.362   2.053
 2585SOL    HW1 1655   2.396   2.442   2.057
 2585SOL    HW2 1656   2.240   2.393   2.060
 2586SOL     OW 1657   2.021   2.999   3.328
 2586SOL    HW1 1658   2.043   2.938   3.404
 2586SOL    HW2 1659   2.031   2.950   3.242
 2587SOL     OW 1660   3.209   2.921   3.096
 2587SOL    HW1 1661   3.233   2.858   3.022
 2587SOL    HW2 1662   3.119   2.961   3.078
 2588SOL     OW 1663   3.164   2.717   2.171
 2588SOL    HW1 1664   3.078   2.686   2.213
 2588SOL    HW2 1665   3.160   2.703   2.072
 2589SOL     OW 1666   3.621   3.609   3.016
 2589SOL    HW1 1667   3.682   3.639   2.943
 2589SOL    HW2 1668   3.583   3.520   2.994
 2590SOL     OW 1669   3.114   3.593   2.990
 2590SOL    HW1 1670   3.198   3.598   2.936
 2590SOL    HW2 1671   3.091   3.497   3.008
 2591SOL     OW 1672   1.945   3.120   2.884
 2591SOL    HW1 1673   1.940   3.119   2.984
 2591SOL    HW2 1674   1.862   3.079   2.846
 2592SOL     OW 1675   2.550   3.524   3.578
 2592SOL    HW1 1676   2.494   3.605   3.587
 2592SOL    HW2 1677   2.602   3.528   3.492
 2593SOL     OW 1678   3.588   1.997   2.385
 2593SOL    HW1 1679   3.661   1.980   2.318
 2593SOL    HW2 1680   3.557   1.910   2.423
 2594SOL     OW 1681   3.250   3.435   2.339
 2594SOL    HW1 1682   3.317   3.447   2.265
 2594SOL    HW2 1683   3.210   3.524   2.362
 2595SOL     OW 1684   1.992   3.656   3.713
 2595SOL    HW1 1685   1.951   3.582   3.766
 2595SOL    HW2 1686   2.056   3.707   3.771
 2596SOL     OW 1687   3.142   2.789   2.534
 2596SOL    HW1 1688   3.202   2.708   2.536
 2596SOL    HW2 1689   3.182   2.858   2.474
 2597SOL     OW 1690   2.692   3.135   3.284
 2597SOL    HW1 1691   2.687   3.168   3.379
 2597SOL    HW2 1692   2.606   3.154   3.238
 2598SOL     OW 1693   2.534   3.478   2.016
 2598SOL    HW1 1694   2.543   3.488   1.917
 2598SOL    HW2 1695   2.494   3.389   2.037
 2599SOL     OW 1696   3.512   3.582   3.256
 2599SOL    HW1 1697   3.565   3.592   3.172
 2599SOL    HW2 1698   3.485   3.672   3.290
 2600SOL     OW 1699   3.703   2.037   2.825
 2600SOL    HW1 1700   3.742   1.952   2.789
 2600SOL    HW2 1701   3.605   2.039   2.806
 2601SOL     OW 1702   2.125   2.188   2.582
 2601SOL    HW1 1703   2.046   2.239   2.548
 2601SOL    HW2 1704   2.116   2.173   2.680
 2602SOL     OW 1705   3.056   3.474   1.893
 2602SOL    HW1 1706   3.062   3.381   1.930
 2602SOL    HW2 1707   2.997   3.474   1.813
 2603SOL     OW 1708   2.684   2.864   3.234
 2603SOL    HW1 1709   2.724   2.863   3.142
 2603SOL    HW2 1710   2.694   2.956   3.274
 2604SOL     OW 1711   2.778   2.772   2.153
 2604SOL    HW1 1712   2.841   2.810   2.085
 2604SOL    HW2 1713   2.818   2.689   2.192
 2605SOL     OW 1714   3.366   3.469   1.906
 2605SOL    HW1 1715   3.274   3.506   1.913
 2605SOL    HW2 1716   3.404   3.489   1.816
 2606SOL     OW 1717   2.234   3.150   3.352
 2606SOL    HW1 1718   2.221   3.243   3.318
 2606SOL    HW2 1719   2.150   3.098   3.339
 2607SOL     OW 1720   3.476   3.154   3.151
 2607SOL    HW1 1721   3.536   3.157   3.231
 2607SOL    HW2 1722   3.401   3.218   3.164
 2608SOL     OW 1723   2.901   2.960   2.558
 2608SOL    HW1 1724   2.831   2.913   2.612
 2608SOL    HW2 1725   2.960   2.892   2.515
 2609SOL     OW 1726   2.876   2.098   2.833
 2609SOL    HW1 1727   2.868   2.062   2.740
 2609SOL    HW2 1728   2.874   2.022   2.898
 2610SOL     OW 1729   2.452   3.349   2.353
 2610SOL    HW1 1730   2.494   3.291   2.283
 2610SOL    HW2 1731   2.408   3.428   2.309
 2611SOL     OW 1732   3.571   2.247   3.243
 2611SOL    HW1 1733   3.644   2.316   3.247
 2611SOL    HW2 1734   3.599   2.172   3.184
 2612SOL     OW 1735   2.117   3.210   2.152
 2612SOL    HW1 1736   2.021   3.211   2.125
 2612SOL    HW2 1737   2.129   3.263   2.236
 2613SOL     OW 1738   1.967   2.875   3.588
 2613SOL    HW1 1739   1.890   2.842   3.642
 2613SOL    HW2 1740   2.052   2.845   3.630
 2614SOL     OW 1741   2.534   2.065   3.351
 2614SOL    HW1 1742   2.624   2.049   3.311
 2614SOL    HW2 1743   2.542   2.070   3.450
 2615SOL     OW 1744   1.937   2.207   1.895
 2615SOL    HW1 1745   1.845   2.179   1.866
 2615SOL    HW2 1746   1.968   2.284   1.839
 2616SOL     OW 1747   3.302   2.718   3.260
 2616SOL    HW1 1748   3.245   2.770   3.197
 2616SOL    HW2 1749   3.398   2.730   3.236
 2617SOL     OW 1750   1.934   2.028   2.180
 2617SOL    HW1 1751   1.917   2.111   2.126
 2617SOL    HW2 1752   2.024   1.991   2.158
 2618SOL     OW 1753   3.045   3.197   1.981
 2618SOL    HW1 1754   2.946   3.186   1.983
 2618SOL    HW2 1755   3.079   3.212   2.074
 2619SOL     OW 1756   2.475   2.704   3.293
 2619SOL    HW1 1757   2.531   2.785   3.276
 2619SOL    HW2 1758   2.534   2.624   3.296
 2620SOL     OW 1759   3.355   3.629   2.821
 2620SOL    HW1 1760   3.388   3.693   2.752
 2620SOL    HW2 1761   3.421   3.623   2.896
 2621SOL     OW 1762   2.578   2.427   3.570
 2621SOL    HW1 1763   2.597   2.492   3.644
 2621SOL    HW2 1764   2.638   2.347   3.579
 2622SOL     OW 1765   3.312   3.082   3.495
 2622SOL    HW1 1766   3.303   3.072   3.594
 2622SOL    HW2 1767   3.408   3.075   3.469
 2623SOL     OW 1768   2.252   3.603   3.422
 2623SOL    HW1 1769   2.161   3.644   3.420
 2623SOL    HW2 1770   2.245   3.509   3.454
 2624SOL     OW 1771   3.536   2.745   3.116
 2624SOL    HW1 1772   3.509   2.656   3.079
 2624SOL    HW2 1773   3.537   2.813   3.043
 2625SOL     OW 1774   3.087   2.187   2.311
 2625SOL    HW1 1775   3.152   2.113   2.300
 2625SOL    HW2 1776   3.107   2.237   2.395
 2626SOL     OW 1777   3.639   2.204   3.504
 2626SOL    HW1 1778   3.622   2.235   3.410
 2626SOL    HW2 1779   3.555   2.167   3.542
 2627SOL     OW 1780   3.592   2.796   3.379
 2627SOL    HW1 1781   3.630   2.887   3.394
 2627SOL    HW2 1782   3.584   2.779   3.280
 2628SOL     OW 1783   2.721   3.236   1.878
 2628SOL    HW1 1784   2.675   3.251   1.966
 2628SOL    HW2 1785   2.765   3.321   1.848
 2629SOL     OW 1786   2.523   3.652   2.815
 2629SOL    HW1 1787   2.477   3.740   2.802
 2629SOL    HW2 1788   2.622   3.664   2.808
 2630SOL     OW 1789   2.945   2.846   1.949
 2630SOL    HW1 1790   2.922   2.899   1.867
 2630SOL    HW2 1791   3.026   2.790   1.930
 2631SOL     OW 1792   3.723   3.431   2.713
 2631SOL    HW1 1793   3.652   3.419   2.643
 2631SOL    HW2 1794   3.724   3.352   2.773
 2632SOL     OW 1795   2.083   3.176   3.706
 2632SOL    HW1 1796   2.018   3.103   3.685
 2632SOL    HW2 1797   2.087   3.190   3.804
 2633SOL     OW 1798   1.941   3.102   2.515
 2633SOL    HW1 1799   1.940   3.055   2.603
 2633SOL    HW2 1800   2.023   3.074   2.464
 2634SOL     OW 1801   2.534   3.253   3.486
 2634SOL    HW1 1802   2.456   3.203   3.524
 2634SOL    HW2 1803   2.531   3.348   3.517
 2635SOL     OW 1804   3.686   2.054   3.089
 2635SOL    HW1 1805   3.682   1.964   3.133
 2635SOL    HW2 1806   3.689   2.043   2.990
 2636SOL     OW 1807   3.567   3.349   2.966
 2636SOL    HW1 1808   3.474   3.324   2.939
 2636SOL    HW2 1809   3.593   3.299   3.048
 2637SOL     OW 1810   2.179   2.409   3.142
 2637SOL    HW1 1811   2.217   2.350   3.214
 2637SOL    HW2 1812   2.219   2.383   3.054
 2638SOL     OW 1813   2.674   3.448   2.549
 2638SOL    HW1 1814   2.706   3.458   2.455
 2638SOL    HW2 1815   2.595   3.386   2.551
 2639SOL     OW 1816   3.286   2.076   2.974
 2639SOL    HW1 1817   3.338   2.011   3.029
 2639SOL    HW2 1818   3.237   2.139   3.035
 2640SOL     OW 1819   2.863   1.896   3.016
 2640SOL    HW1 1820   2.800   1.824   2.985
 2640SOL    HW2 1821   2.956   1.860   3.016
 2641SOL     OW 1822   2.632   3.192   2.163
 2641SOL    HW1 1823   2.586   3.105   2.180
 2641SOL    HW2 1824   2.723   3.189   2.204
 2642SOL     OW 1825   2.480   3.429   3.146
 2642SOL    HW1 1826   2.475   3.511   3.203
 2642SOL    HW2 1827   2.569   3.426   3.101
 2643SOL     OW 1828   3.214   1.914   2.030
 2643SOL    HW1 1829   3.249   1.873   1.946
 2643SOL    HW2 1830   3.124   1.876   2.050
 2644SOL     OW 1831   3.162   2.315   2.553
 2644SOL    HW1 1832   3.103   2.395   2.557
 2644SOL    HW2 1833   3.177   2.280   2.646
 2645SOL     OW 1834   3.455   2.083   2.744
 2645SOL    HW1 1835   3.371   2.082   2.798
 2645SOL    HW2 1836   3.457   2.166   2.688
 2646SOL     OW 1837   1.901   2.939   2.162
 2646SOL    HW1 1838   2.000   2.928   2.153
 2646SOL    HW2 1839   1.861   2.853   2.194
 2647SOL     OW 1840   2.737   3.508   2.199
 2647SOL    HW1 1841   2.660   3.473   2.145
 2647SOL    HW2 1842   2.705   3.579   2.261
 2648SOL     OW 1843   2.092   2.490   3.837
 2648SOL    HW1 1844   1.999   2.488   3.874
 2648SOL    HW2 1845   2.093   2.451   3.745
 2654SOL     OW 1846   3.617   2.469   3.955
 2654SOL    HW1 1847   3.605   2.456   3.856
 2654SOL    HW2 1848   3.587   2.388   4.004
 2664SOL     OW 1849   2.468   2.826   3.847
 2664SOL    HW1 1850   2.475   2.910   3.793
 2664SOL    HW2 1851   2.514   2.839   3.935
 2665SOL     OW 1852   1.984   2.505   4.287
 2665SOL    HW1 1853   1.939   2.417   4.304
 2665SOL    HW2 1854   1.983   2.559   4.371
 2667SOL     OW 1855   1.889   3.458   3.841
 2667SOL    HW1 1856   1.870   3.362   3.862
 2667SOL    HW2 1857   1.856   3.516   3.916
 2671SOL     OW 1858   2.671   1.866   4.226
 2671SOL    HW1 1859   2.711   1.957   4.217
 2671SOL    HW2 1860   2.571   1.874   4.232
 2673SOL     OW 1861   3.387   2.861   3.914
 2673SOL    HW1 1862   3.324   2.785   3.927
 2673SOL    HW2 1863   3.435   2.879   4.000
 2676SOL     OW 1864   2.460   2.591   3.994
 2676SOL    HW1 1865   2.484   2.660   3.926
 2676SOL    HW2 1866   2.382   2.624   4.048
 2681SOL     OW 1867   2.903   2.563   4.153
 2681SOL    HW1 1868   2.929   2.559   4.249
 2681SOL    HW2 1869   2.818   2.512   4.139
 2684SOL     OW 1870   2.727   2.210   3.919
 2684SOL    HW1 1871   2.786   2.273   3.870
 2684SOL    HW2 1872   2.746   2.116   3.890
 2687SOL     OW 1873   2.870   3.318   4.201
 2687SOL    HW1 1874   2.824   3.390   4.149
 2687SOL    HW2 1875   2.866   3.338   4.299
 2690SOL     OW 1876   2.183   2.805   3.966
 2690SOL    HW1 1877   2.265   2.844   3.924
 2690SOL    HW2 1878   2.156   2.723   3.917
 2692SOL     OW 1879   2.973   3.638   3.961
 2692SOL    HW1 1880   2.913   3.576   4.011
 2692SOL    HW2 1881   3.004   3.594   3.876
 2693SOL     OW 1882   3.494   3.239   3.805
 2693SOL    HW1 1883   3.462   3.333   3.795
 2693SOL    HW2 1884   3.418   3.176   3.793
 2694SOL     OW 1885   2.326   3.605   4.047
 2694SOL    HW1 1886   2.359   3.644   4.133
 2694SOL    HW2 1887   2.402   3.598   3.982
 2698SOL     OW 1888   2.244   2.562   4.204
 2698SOL    HW1 1889   2.289   2.472   4.201
 2698SOL    HW2 1890   2.150   2.551   4.237
 2699SOL     OW 1891   2.476   1.984   3.841
 2699SOL    HW1 1892   2.574   1.962   3.848
 2699SOL    HW2 1893   2.445   1.967   3.748
 2703SOL     OW 1894   2.401   1.926   4.236
 2703SOL    HW1 1895   2.320   1.927   4.294
 2703SOL    HW2 1896   2.404   2.009   4.181
 2704SOL     OW 1897   3.296   3.050   3.765
 2704SOL    HW1 1898   3.328   2.974   3.822
 2704SOL    HW2 1899   3.204   3.077   3.795
 2705SOL     OW 1900   2.159   1.897   3.895
 2705SOL    HW1 1901   2.208   1.981   3.874
 2705SOL    HW2 1902   2.221   1.832   3.940
 2706SOL     OW 1903   2.797   2.098   4.204
 2706SOL    HW1 1904   2.749   2.139   4.126
 2706SOL    HW2 1905   2.896   2.096   4.185
 2710SOL     OW 1906   2.894   2.411   3.740
 2710SOL    HW1 1907   2.853   2.493   3.701
 2710SOL    HW2 1908   2.958   2.437   3.813
 2712SOL     OW 1909   2.728   2.316   4.366
 2712SOL    HW1 1910   2.696   2.388   4.304
 2712SOL    HW2 1911   2.752   2.235   4.313
 2717SOL     OW 1912   2.350   3.247   3.898
 2717SOL    HW1 1913   2.263   3.232   3.945
 2717SOL    HW2 1914   2.333   3.273   3.803
 2719SOL     OW 1915   3.252   2.437   3.802
 2719SOL    HW1 1916   3.198   2.416   3.883
 2719SOL    HW2 1917   3.343   2.396   3.811
 2720SOL     OW 1918   2.389   2.118   4.052
 2720SOL    HW1 1919   2.416   2.059   3.977
 2720SOL    HW2 1920   2.389   2.213   4.021
 2724SOL     OW 1921   2.567   2.912   4.092
 2724SOL    HW1 1922   2.553   2.919   4.191
 2724SOL    HW2 1923   2.651   2.861   4.074
 2728SOL     OW 1924   2.229   2.962   4.225
 2728SOL    HW1 1925   2.222   3.045   4.169
 2728SOL    HW2 1926   2.233   2.882   4.165
 2730SOL     OW 1927   3.114   3.210   4.112
 2730SOL    HW1 1928   3.164   3.287   4.152
 2730SOL    HW2 1929   3.019   3.212   4.144
 2737SOL     OW 1930   3.071   2.387   3.999
 2737SOL    HW1 1931   3.084   2.303   4.053
 2737SOL    HW2 1932   3.042   2.461   4.059
 2742SOL     OW 1933   3.484   2.229   4.098
 2742SOL    HW1 1934   3.486   2.153   4.162
 2742SOL    HW2 1935   3.436   2.306   4.138
 2744SOL     OW 1936   3.402   2.136   3.849
 2744SOL    HW1 1937   3.341   2.061   3.872
 2744SOL    HW2 1938   3.424   2.188   3.932
 2745SOL     OW 1939   3.165   2.700   3.766
 2745SOL    HW1 1940   3.199   2.607   3.781
 2745SOL    HW2 1941   3.183   2.727   3.671
 2750SOL     OW 1942   1.870   3.188   3.924
 2750SOL    HW1 1943   1.777   3.209   3.893
 2750SOL    HW2 1944   1.880   3.089   3.937
 2755SOL     OW 1945   2.677   2.434   4.049
 2755SOL    HW1 1946   2.684   2.345   4.003
 2755SOL    HW2 1947   2.583   2.468   4.041
 2759SOL     OW 1948   2.335   2.362   3.915
 2759SOL    HW1 1949   2.396   2.442   3.919
 2759SOL    HW2 1950   2.240   2.393   3.922
 2762SOL     OW 1951   3.164   2.717   4.033
 2762SOL    HW1 1952   3.078   2.686   4.075
 2762SOL    HW2 1953   3.160   2.703   3.934
 2769SOL     OW 1954   2.534   3.478   3.878
 2769SOL    HW1 1955   2.543   3.488   3.779
 2769SOL    HW2 1956   2.494   3.389   3.899
 2772SOL     OW 1957   3.056   3.474   3.755
 2772SOL    HW1 1958   3.062   3.381   3.792
 2772SOL    HW2 1959   2.997   3.474   3.675
 2774SOL     OW 1960   2.778   2.772   4.015
 2774SOL    HW1 1961   2.841   2.810   3.947
 2774SOL    HW2 1962   2.818   2.689   4.054
 2775SOL     OW 1963   3.366   3.469   3.768
 2775SOL    HW1 1964   3.274   3.506   3.775
 2775SOL    HW2 1965   3.404   3.489   3.678
 2780SOL     OW 1966   2.452   3.349   4.215
 2780SOL    HW1 1967   2.494   3.291   4.145
 2780SOL    HW2 1968   2.408   3.428   4.171
 2782SOL     OW 1969   2.117   3.210   4.014
 2782SOL    HW1 1970   2.021   3.211   3.987
 2782SOL    HW2 1971   2.129   3.263   4.098
 2784SOL     OW 1972   1.937   2.207   3.757
 2784SOL    HW1 1973   1.845   2.179   3.728
 2784SOL    HW2 1974   1.968   2.284   3.701
 2785SOL     OW 1975   1.934   2.028   4.042
 2785SOL    HW1 1976   1.917   2.111   3.988
 2785SOL    HW2 1977   2.024   1.991   4.020
 2786SOL     OW 1978   3.045   3.197   3.843
 2786SOL    HW1 1979   2.946   3.186   3.845
 2786SOL    HW2 1980   3.079   3.212   3.936
 2791SOL     OW 1981   3.087   2.187   4.173
 2791SOL    HW1 1982   3.152   2.113   4.162
 2791SOL    HW2 1983   3.107   2.237   4.257
 2792SOL     OW 1984   2.456   2.607   4.376
 2792SOL    HW1 1985   2.506   2.692   4.357
 2792SOL    HW2 1986   2.368   2.609   4.328
 2794SOL     OW 1987   2.721   3.236   3.740
 2794SOL    HW1 1988   2.675   3.251   3.828
 2794SOL    HW2 1989   2.765   3.321   3.710
 2797SOL     OW 1990   2.945   2.846   3.811
 2797SOL    HW1 1991   2.922   2.899   3.729
 2797SOL    HW2 1992   3.026   2.790   3.792
 2801SOL     OW 1993   2.290   2.286   4.244
 2801SOL    HW1 1994   2.320   2.214   4.182
 2801SOL    HW2 1995   2.251   2.246   4.327
 2807SOL     OW 1996   2.632   3.192   4.025
 2807SOL    HW1 1997   2.586   3.105   4.042
 2807SOL    HW2 1998   2.723   3.189   4.066
 2809SOL     OW 1999   3.214   1.914   3.892
 2809SOL    HW1 2000   3.249   1.873   3.808
 2809SOL    HW2 2001   3.124   1.876   3.912
 2812SOL     OW 2002   1.901   2.939   4.024
 2812SOL    HW1 2003   2.000   2.928   4.015
 2812SOL    HW2 2004   1.861   2.853   4.056
 2813SOL     OW 2005   2.737   3.508   4.061
 2813SOL    HW1 2006   2.660   3.473   4.007
 2813SOL    HW2 2007   2.705   3.579   4.123
 2842SOL     OW 2008   2.179   3.975   1.801
 2842SOL    HW1 2009   2.250   4.046   1.807
 2842SOL    HW2 2010   2.091   4.014   1.829
 2864SOL     OW 2011   3.409   3.946   1.729
 2864SOL    HW1 2012   3.404   3.983   1.821
 2864SOL    HW2 2013   3.337   3.877   1.717
 2865SOL     OW 2014   2.643   3.988   1.749
 2865SOL    HW1 2015   2.710   3.927   1.792
 2865SOL    HW2 2016   2.570   4.007   1.814
 2889SOL     OW 2017   2.777   3.813   1.402
 2889SOL    HW1 2018   2.802   3.793   1.307
 2889SOL    HW2 2019   2.849   3.869   1.444
 2901SOL     OW 2020   2.875   3.829   1.770
 2901SOL    HW1 2021   2.881   3.914   1.718
 2901SOL    HW2 2022   2.907   3.753   1.713
 2902SOL     OW 2023   2.366   3.774   1.740
 2902SOL    HW1 2024   2.324   3.717   1.670
 2902SOL    HW2 2025   2.300   3.843   1.772
 2920SOL     OW 2026   3.022   3.931   1.477
 2920SOL    HW1 2027   3.022   3.995   1.554
 2920SOL    HW2 2028   3.050   3.979   1.394
 2949SOL     OW 2029   2.534   3.927   1.489
 2949SOL    HW1 2030   2.624   3.911   1.449
 2949SOL    HW2 2031   2.542   3.932   1.588
 2979SOL     OW 2032   2.087   3.999   2.858
 2979SOL    HW1 2033   2.122   3.982   2.950
 2979SOL    HW2 2034   1.999   3.954   2.846
 2980SOL     OW 2035   1.881   4.092   2.509
 2980SOL    HW1 2036   1.799   4.135   2.548
 2980SOL    HW2 2037   1.853   4.019   2.446
 2990SOL     OW 2038   2.300   4.116   3.361
 2990SOL    HW1 2039   2.382   4.060   3.370
 2990SOL    HW2 2040   2.219   4.058   3.365
 2991SOL     OW 2041   3.465   4.171   2.599
 2991SOL    HW1 2042   3.391   4.217   2.549
 2991SOL    HW2 2043   3.516   4.239   2.652
 2996SOL     OW 2044   3.456   3.838   3.342
 2996SOL    HW1 2045   3.438   3.905   3.270
 2996SOL    HW2 2046   3.453   3.884   3.431
 3003SOL     OW 2047   2.671   3.728   2.364
 3003SOL    HW1 2048   2.711   3.819   2.355
 3003SOL    HW2 2049   2.571   3.736   2.370
 3006SOL     OW 2050   2.179   3.975   3.663
 3006SOL    HW1 2051   2.250   4.046   3.669
 3006SOL    HW2 2052   2.091   4.014   3.691
 3009SOL     OW 2053   3.143   4.069   2.806
 3009SOL    HW1 2054   3.057   4.019   2.793
 3009SOL    HW2 2055   3.205   4.015   2.862
 3013SOL     OW 2056   2.853   4.134   3.104
 3013SOL    HW1 2057   2.776   4.168   3.158
 3013SOL    HW2 2058   2.819   4.083   3.025
 3016SOL     OW 2059   2.727   4.072   2.057
 3016SOL    HW1 2060   2.786   4.135   2.008
 3016SOL    HW2 2061   2.746   3.978   2.028
 3019SOL     OW 2062   2.412   3.920   2.747
 3019SOL    HW1 2063   2.407   3.915   2.847
 3019SOL    HW2 2064   2.414   4.016   2.718
 3025SOL     OW 2065   2.064   4.009   3.360
 3025SOL    HW1 2066   1.984   4.069   3.347
 3025SOL    HW2 2067   2.054   3.960   3.446
 3027SOL     OW 2068   3.262   3.831   2.288
 3027SOL    HW1 2069   3.238   3.794   2.198
 3027SOL    HW2 2070   3.361   3.847   2.292
 3030SOL     OW 2071   2.476   3.846   1.979
 3030SOL    HW1 2072   2.574   3.824   1.986
 3030SOL    HW2 2073   2.445   3.829   1.886
 3031SOL     OW 2074   2.643   3.988   3.611
 3031SOL    HW1 2075   2.710   3.927   3.654
 3031SOL    HW2 2076   2.570   4.007   3.676
 3033SOL     OW 2077   2.784   4.227   2.761
 3033SOL    HW1 2078   2.759   4.218   2.665
 3033SOL    HW2 2079   2.832   4.145   2.792
 3034SOL     OW 2080   2.401   3.788   2.374
 3034SOL    HW1 2081   2.320   3.789   2.432
 3034SOL    HW2 2082   2.404   3.871   2.319
 3036SOL     OW 2083   2.159   3.759   2.033
 3036SOL    HW1 2084   2.208   3.843   2.012
 3036SOL    HW2 2085   2.221   3.694   2.078
 3037SOL     OW 2086   2.797   3.960   2.342
 3037SOL    HW1 2087   2.749   4.001   2.264
 3037SOL    HW2 2088   2.896   3.958   2.323
 3043SOL     OW 2089   2.423   3.946   3.009
 3043SOL    HW1 2090   2.461   3.862   3.046
 3043SOL    HW2 2091   2.335   3.965   3.053
 3044SOL     OW 2092   2.728   4.178   2.504
 3044SOL    HW1 2093   2.696   4.250   2.442
 3044SOL    HW2 2094   2.752   4.097   2.451
 3045SOL     OW 2095   2.879   3.763   2.615
 3045SOL    HW1 2096   2.807   3.768   2.546
 3045SOL    HW2 2097   2.855   3.694   2.684
 3051SOL     OW 2098   2.389   3.980   2.190
 3051SOL    HW1 2099   2.416   3.921   2.115
 3051SOL    HW2 2100   2.389   4.075   2.159
 3056SOL     OW 2101   2.777   3.813   3.264
 3056SOL    HW1 2102   2.802   3.793   3.169
 3056SOL    HW2 2103   2.849   3.869   3.306
 3060SOL     OW 2104   3.136   4.110   3.124
 3060SOL    HW1 2105   3.157   4.184   3.188
 3060SOL    HW2 2106   3.047   4.127   3.081
 3062SOL     OW 2107   2.428   4.261   2.727
 3062SOL    HW1 2108   2.440   4.327   2.653
 3062SOL    HW2 2109   2.474   4.295   2.810
 3068SOL     OW 2110   2.875   3.829   3.632
 3068SOL    HW1 2111   2.881   3.914   3.580
 3068SOL    HW2 2112   2.907   3.753   3.575
 3069SOL     OW 2113   2.366   3.774   3.602
 3069SOL    HW1 2114   2.324   3.717   3.532
 3069SOL    HW2 2115   2.300   3.843   3.634
 3072SOL     OW 2116   3.071   4.249   2.137
 3072SOL    HW1 2117   3.084   4.165   2.191
 3072SOL    HW2 2118   3.042   4.323   2.197
 3073SOL     OW 2119   2.169   3.937   3.093
 3073SOL    HW1 2120   2.146   3.974   3.183
 3073SOL    HW2 2121   2.139   3.842   3.087
 3075SOL     OW 2122   2.594   4.358   2.926
 3075SOL    HW1 2123   2.653   4.332   2.850
 3075SOL    HW2 2124   2.566   4.454   2.915
 3077SOL     OW 2125   2.169   3.787   2.480
 3077SOL    HW1 2126   2.158   3.881   2.513
 3077SOL    HW2 2127   2.164   3.724   2.557
 3078SOL     OW 2128   3.484   4.091   2.236
 3078SOL    HW1 2129   3.486   4.015   2.300
 3078SOL    HW2 2130   3.436   4.168   2.276
 3082SOL     OW 2131   3.402   3.998   1.987
 3082SOL    HW1 2132   3.341   3.923   2.010
 3082SOL    HW2 2133   3.424   4.050   2.070
 3085SOL     OW 2134   2.201   4.233   2.868
 3085SOL    HW1 2135   2.149   4.150   2.851
 3085SOL    HW2 2136   2.278   4.238   2.804
 3087SOL     OW 2137   3.022   3.931   3.339
 3087SOL    HW1 2138   3.022   3.995   3.416
 3087SOL    HW2 2139   3.050   3.979   3.256
 3093SOL     OW 2140   2.677   4.296   2.187
 3093SOL    HW1 2141   2.684   4.207   2.141
 3093SOL    HW2 2142   2.583   4.330   2.179
 3095SOL     OW 2143   2.533   4.188   3.131
 3095SOL    HW1 2144   2.499   4.099   3.101
 3095SOL    HW2 2145   2.559   4.242   3.051
 3096SOL     OW 2146   2.335   4.224   2.053
 3096SOL    HW1 2147   2.396   4.304   2.057
 3096SOL    HW2 2148   2.240   4.255   2.060
 3101SOL     OW 2149   3.588   3.859   2.385
 3101SOL    HW1 2150   3.661   3.842   2.318
 3101SOL    HW2 2151   3.557   3.772   2.423
 3104SOL     OW 2152   3.703   3.899   2.825
 3104SOL    HW1 2153   3.742   3.814   2.789
 3104SOL    HW2 2154   3.605   3.901   2.806
 3105SOL     OW 2155   2.125   4.050   2.582
 3105SOL    HW1 2156   2.046   4.101   2.548
 3105SOL    HW2 2157   2.116   4.035   2.680
 3111SOL     OW 2158   2.876   3.960   2.833
 3111SOL    HW1 2159   2.868   3.924   2.740
 3111SOL    HW2 2160   2.874   3.884   2.898
 3115SOL     OW 2161   2.534   3.927   3.351
 3115SOL    HW1 2162   2.624   3.911   3.311
 3115SOL    HW2 2163   2.542   3.932   3.450
 3116SOL     OW 2164   1.937   4.069   1.895
 3116SOL    HW1 2165   1.845   4.041   1.866
 3116SOL    HW2 2166   1.968   4.146   1.839
 3118SOL     OW 2167   1.934   3.890   2.180
 3118SOL    HW1 2168   1.917   3.973   2.126
 3118SOL    HW2 2169   2.024   3.853   2.158
 3124SOL     OW 2170   3.087   4.049   2.311
 3124SOL    HW1 2171   3.152   3.975   2.300
 3124SOL    HW2 2172   3.107   4.099   2.395
 3134SOL     OW 2173   3.686   3.916   3.089
 3134SOL    HW1 2174   3.682   3.826   3.133
 3134SOL    HW2 2175   3.689   3.905   2.990
 3135SOL     OW 2176   2.290   4.148   2.382
 3135SOL    HW1 2177   2.320   4.076   2.320
 3135SOL    HW2 2178   2.251   4.108   2.465
 3138SOL     OW 2179   3.286   3.938   2.974
 3138SOL    HW1 2180   3.338   3.873   3.029
 3138SOL    HW2 2181   3.237   4.001   3.035
 3139SOL     OW 2182   2.863   3.758   3.016
 3139SOL    HW1 2183   2.800   3.686   2.985
 3139SOL    HW2 2184   2.956   3.722   3.016
 3141SOL     OW 2185   3.214   3.776   2.030
 3141SOL    HW1 2186   3.249   3.735   1.946
 3141SOL    HW2 2187   3.124   3.738   2.050
 3142SOL     OW 2188   3.162   4.177   2.553
 3142SOL    HW1 2189   3.103   4.257   2.557
 3142SOL    HW2 2190   3.177   4.142   2.646
 3143SOL     OW 2191   3.455   3.945   2.744
 3143SOL    HW1 2192   3.371   3.944   2.798
 3143SOL    HW2 2193   3.457   4.028   2.688
 3186SOL     OW 2194   2.476   3.846   3.841
 3186SOL    HW1 2195   2.574   3.824   3.848
 3186SOL    HW2 2196   2.445   3.829   3.748
 3190SOL     OW 2197   2.159   3.759   3.895
 3190SOL    HW1 2198   2.208   3.843   3.874
 3190SOL    HW2 2199   2.221   3.694   3.940
 3315SOL     OW 2200   3.854   1.821   1.571
 3315SOL    HW1 2201   3.844   1.806   1.670
 3315SOL    HW2 2202   3.768   1.857   1.535
 3404SOL     OW 2203   3.854   1.794   1.851
 3404SOL    HW1 2204   3.813   1.720   1.904
 3404SOL    HW2 2205   3.918   1.845   1.909
 3457SOL     OW 2206   3.955   1.713   2.345
 3457SOL    HW1 2207   3.989   1.790   2.399
 3457SOL    HW2 2208   3.999   1.713   2.255
 3459SOL     OW 2209   3.954   1.434   2.400
 3459SOL    HW1 2210   3.928   1.530   2.400
 3459SOL    HW2 2211   3.883   1.380   2.445
 3464SOL     OW 2212   3.751   1.596   1.979
 3464SOL    HW1 2213   3.732   1.500   2.000
 3464SOL    HW2 2214   3.718   1.654   2.054
 3482SOL     OW 2215   3.854   1.821   3.433
 3482SOL    HW1 2216   3.844   1.806   3.532
 3482SOL    HW2 2217   3.768   1.857   3.397
 3487SOL     OW 2218   4.075   1.801   2.715
 3487SOL    HW1 2219   4.125   1.715   2.721
 3487SOL    HW2 2220   4.140   1.878   2.712
 3494SOL     OW 2221   3.973   1.785   3.103
 3494SOL    HW1 2222   4.030   1.720   3.153
 3494SOL    HW2 2223   3.957   1.752   3.010
 3526SOL     OW 2224   3.788   1.564   3.193
 3526SOL    HW1 2225   3.742   1.646   3.159
 3526SOL    HW2 2226   3.886   1.583   3.202
 3551SOL     OW 2227   3.732   1.326   2.062
 3551SOL    HW1 2228   3.639   1.347   2.031
 3551SOL    HW2 2229   3.742   1.227   2.075
 3552SOL     OW 2230   3.812   1.801   2.789
 3552SOL    HW1 2231   3.770   1.715   2.762
 3552SOL    HW2 2232   3.906   1.804   2.755
 3762SOL     OW 2233   3.837   2.599   1.597
 3762SOL    HW1 2234   3.925   2.586   1.642
 3762SOL    HW2 2235   3.824   2.696   1.575
 3768SOL     OW 2236   4.041   2.113   1.801
 3768SOL    HW1 2237   4.112   2.184   1.807
 3768SOL    HW2 2238   3.953   2.152   1.829
 3788SOL     OW 2239   3.926   2.147   1.498
 3788SOL    HW1 2240   3.846   2.207   1.485
 3788SOL    HW2 2241   3.916   2.098   1.584
 3806SOL     OW 2242   3.802   2.418   1.386
 3806SOL    HW1 2243   3.894   2.417   1.345
 3806SOL    HW2 2244   3.796   2.492   1.453
 3839SOL     OW 2245   4.074   2.760   1.804
 3839SOL    HW1 2246   4.150   2.804   1.852
 3839SOL    HW2 2247   4.109   2.713   1.722
 3851SOL     OW 2248   3.913   2.382   1.722
 3851SOL    HW1 2249   3.972   2.342   1.652
 3851SOL    HW2 2250   3.855   2.453   1.681
 3858SOL     OW 2251   3.883   2.999   1.466
 3858SOL    HW1 2252   3.905   2.938   1.542
 3858SOL    HW2 2253   3.893   2.950   1.380
 3879SOL     OW 2254   3.829   2.875   1.726
 3879SOL    HW1 2255   3.752   2.842   1.780
 3879SOL    HW2 2256   3.914   2.845   1.768
 3895SOL     OW 2257   3.945   3.176   1.844
 3895SOL    HW1 2258   3.880   3.103   1.823
 3895SOL    HW2 2259   3.949   3.190   1.942
 3907SOL     OW 2260   3.954   2.490   1.975
 3907SOL    HW1 2261   3.861   2.488   2.012
 3907SOL    HW2 2262   3.955   2.451   1.883
 3908SOL     OW 2263   3.949   2.137   2.858
 3908SOL    HW1 2264   3.984   2.120   2.950
 3908SOL    HW2 2265   3.861   2.092   2.846
 3909SOL     OW 2266   3.743   2.230   2.509
 3909SOL    HW1 2267   3.661   2.273   2.548
 3909SOL    HW2 2268   3.715   2.157   2.446
 3917SOL     OW 2269   4.059   3.297   2.923
 3917SOL    HW1 2270   3.981   3.266   2.870
 3917SOL    HW2 2271   4.117   3.355   2.866
 3918SOL     OW 2272   4.162   2.254   3.361
 3918SOL    HW1 2273   4.244   2.198   3.370
 3918SOL    HW2 2274   4.081   2.196   3.365
 3919SOL     OW 2275   3.955   3.575   2.345
 3919SOL    HW1 2276   3.989   3.652   2.399
 3919SOL    HW2 2277   3.999   3.575   2.255
 3921SOL     OW 2278   3.954   3.296   2.400
 3921SOL    HW1 2279   3.928   3.392   2.400
 3921SOL    HW2 2280   3.883   3.242   2.445
 3922SOL     OW 2281   3.964   2.953   2.748
 3922SOL    HW1 2282   3.978   2.869   2.800
 3922SOL    HW2 2283   3.909   3.017   2.803
 3925SOL     OW 2284   3.846   2.505   2.425
 3925SOL    HW1 2285   3.801   2.417   2.442
 3925SOL    HW2 2286   3.845   2.559   2.509
 3926SOL     OW 2287   3.751   3.458   1.979
 3926SOL    HW1 2288   3.732   3.362   2.000
 3926SOL    HW2 2289   3.718   3.516   2.054
 3928SOL     OW 2290   3.837   2.599   3.459
 3928SOL    HW1 2291   3.925   2.586   3.504
 3928SOL    HW2 2292   3.824   2.696   3.437
 3932SOL     OW 2293   3.921   2.838   3.126
 3932SOL    HW1 2294   4.010   2.793   3.112
 3932SOL    HW2 2295   3.848   2.773   3.107
 3936SOL     OW 2296   4.322   2.591   2.132
 3936SOL    HW1 2297   4.346   2.660   2.064
 3936SOL    HW2 2298   4.244   2.624   2.186
 3943SOL     OW 2299   3.800   2.673   2.651
 3943SOL    HW1 2300   3.899   2.661   2.660
 3943SOL    HW2 2301   3.776   2.768   2.672
 3947SOL     OW 2302   4.274   2.058   2.747
 3947SOL    HW1 2303   4.269   2.053   2.847
 3947SOL    HW2 2304   4.276   2.154   2.718
 3951SOL     OW 2305   4.045   2.805   2.104
 3951SOL    HW1 2306   4.127   2.844   2.062
 3951SOL    HW2 2307   4.018   2.723   2.055
 3954SOL     OW 2308   3.926   2.147   3.360
 3954SOL    HW1 2309   3.846   2.207   3.347
 3954SOL    HW2 2310   3.916   2.098   3.446
 3956SOL     OW 2311   3.973   3.647   3.103
 3956SOL    HW1 2312   4.030   3.582   3.153
 3956SOL    HW2 2313   3.957   3.614   3.010
 3958SOL     OW 2314   4.106   2.562   2.342
 3958SOL    HW1 2315   4.151   2.472   2.339
 3958SOL    HW2 2316   4.012   2.551   2.375
 3967SOL     OW 2317   4.021   1.897   2.033
 3967SOL    HW1 2318   4.070   1.981   2.012
 3967SOL    HW2 2319   4.083   1.832   2.078
 3971SOL     OW 2320   4.183   3.014   2.603
 3971SOL    HW1 2321   4.112   2.987   2.668
 3971SOL    HW2 2322   4.157   2.986   2.510
 3974SOL     OW 2323   3.802   2.418   3.248
 3974SOL    HW1 2324   3.894   2.417   3.207
 3974SOL    HW2 2325   3.796   2.492   3.315
 3980SOL     OW 2326   4.251   2.118   2.190
 3980SOL    HW1 2327   4.278   2.059   2.115
 3980SOL    HW2 2328   4.251   2.213   2.159
 3986SOL     OW 2329   4.134   2.675   3.113
 3986SOL    HW1 2330   4.220   2.687   3.163
 3986SOL    HW2 2331   4.092   2.588   3.140
 3988SOL     OW 2332   3.788   3.426   3.193
 3988SOL    HW1 2333   3.742   3.508   3.159
 3988SOL    HW2 2334   3.886   3.445   3.202
 3989SOL     OW 2335   4.091   2.962   2.363
 3989SOL    HW1 2336   4.084   3.045   2.307
 3989SOL    HW2 2337   4.095   2.882   2.303
 3990SOL     OW 2338   4.290   2.399   2.727
 3990SOL    HW1 2339   4.302   2.465   2.653
 3990SOL    HW2 2340   4.336   2.433   2.810
 3993SOL     OW 2341   4.078   3.372   3.191
 3993SOL    HW1 2342   4.057   3.328   3.104
 3993SOL    HW2 2343   4.175   3.398   3.194
 3994SOL     OW 2344   4.126   2.613   3.460
 3994SOL    HW1 2345   4.194   2.668   3.413
 3994SOL    HW2 2346   4.166   2.525   3.487
 3997SOL     OW 2347   4.297   2.732   2.891
 3997SOL    HW1 2348   4.341   2.821   2.882
 3997SOL    HW2 2349   4.234   2.732   2.968
 4000SOL     OW 2350   4.031   2.075   3.093
 4000SOL    HW1 2351   4.008   2.112   3.183
 4000SOL    HW2 2352   4.001   1.980   3.087
 4001SOL     OW 2353   3.761   3.172   3.144
 4001SOL    HW1 2354   3.814   3.123   3.212
 4001SOL    HW2 2355   3.783   3.270   3.149
 4003SOL     OW 2356   4.031   1.925   2.480
 4003SOL    HW1 2357   4.020   2.019   2.513
 4003SOL    HW2 2358   4.026   1.862   2.557
 4010SOL     OW 2359   4.043   2.672   2.811
 4010SOL    HW1 2360   4.136   2.708   2.816
 4010SOL    HW2 2361   4.037   2.587   2.863
 4011SOL     OW 2362   4.063   2.371   2.868
 4011SOL    HW1 2363   4.011   2.288   2.851
 4011SOL    HW2 2364   4.140   2.376   2.804
 4014SOL     OW 2365   3.732   3.188   2.062
 4014SOL    HW1 2366   3.639   3.209   2.031
 4014SOL    HW2 2367   3.742   3.089   2.075
 4015SOL     OW 2368   3.812   3.663   2.789
 4015SOL    HW1 2369   3.770   3.577   2.762
 4015SOL    HW2 2370   3.906   3.666   2.755
 4018SOL     OW 2371   3.764   2.406   2.976
 4018SOL    HW1 2372   3.849   2.373   2.935
 4018SOL    HW2 2373   3.777   2.421   3.074
 4019SOL     OW 2374   3.913   2.382   3.584
 4019SOL    HW1 2375   3.972   2.342   3.514
 4019SOL    HW2 2376   3.855   2.453   3.543
 4025SOL     OW 2377   4.197   2.362   2.053
 4025SOL    HW1 2378   4.258   2.442   2.057
 4025SOL    HW2 2379   4.102   2.393   2.060
 4026SOL     OW 2380   3.883   2.999   3.328
 4026SOL    HW1 2381   3.905   2.938   3.404
 4026SOL    HW2 2382   3.893   2.950   3.242
 4030SOL     OW 2383   3.807   3.120   2.884
 4030SOL    HW1 2384   3.802   3.119   2.984
 4030SOL    HW2 2385   3.724   3.079   2.846
 4037SOL     OW 2386   3.987   2.188   2.582
 4037SOL    HW1 2387   3.908   2.239   2.548
 4037SOL    HW2 2388   3.978   2.173   2.680
 4041SOL     OW 2389   4.096   3.150   3.352
 4041SOL    HW1 2390   4.083   3.243   3.318
 4041SOL    HW2 2391   4.012   3.098   3.339
 4045SOL     OW 2392   3.979   3.210   2.152
 4045SOL    HW1 2393   3.883   3.211   2.125
 4045SOL    HW2 2394   3.991   3.263   2.236
 4046SOL     OW 2395   3.829   2.875   3.588
 4046SOL    HW1 2396   3.752   2.842   3.642
 4046SOL    HW2 2397   3.914   2.845   3.630
 4048SOL     OW 2398   3.799   2.207   1.895
 4048SOL    HW1 2399   3.707   2.179   1.866
 4048SOL    HW2 2400   3.830   2.284   1.839
 4050SOL     OW 2401   3.796   2.028   2.180
 4050SOL    HW1 2402   3.779   2.111   2.126
 4050SOL    HW2 2403   3.886   1.991   2.158
 4057SOL     OW 2404   4.318   2.607   2.514
 4057SOL    HW1 2405   4.368   2.692   2.495
 4057SOL    HW2 2406   4.230   2.609   2.466
 4063SOL     OW 2407   3.803   3.102   2.515
 4063SOL    HW1 2408   3.802   3.055   2.603
 4063SOL    HW2 2409   3.885   3.074   2.464
 4065SOL     OW 2410   4.152   2.286   2.382
 4065SOL    HW1 2411   4.182   2.214   2.320
 4065SOL    HW2 2412   4.113   2.246   2.465
 4066SOL     OW 2413   4.041   2.409   3.142
 4066SOL    HW1 2414   4.079   2.350   3.214
 4066SOL    HW2 2415   4.081   2.383   3.054
 4073SOL     OW 2416   3.763   2.939   2.162
 4073SOL    HW1 2417   3.862   2.928   2.153
 4073SOL    HW2 2418   3.723   2.853   2.194
 4187SOL     OW 2419   3.799   2.207   3.757
 4187SOL    HW1 2420   3.707   2.179   3.728
 4187SOL    HW2 2421   3.830   2.284   3.701
   5.19843   5.19843   5.19843
