mobley_5952846_GMX.gro created by acpype (v: 2023.10.27) on Tue May 19 12:53:42 2026
 2385
    1MOL     C1    1   2.198   2.154   2.221
    1MOL     C2    2   2.238   2.282   2.215
    1MOL    CL1    3   2.309   2.021   2.220
    1MOL    CL2    4   2.030   2.109   2.229
    1MOL    CL3    5   2.126   2.415   2.216
    1MOL    CL4    6   2.406   2.327   2.206
    6SOL     OW    7   1.555   1.511   0.703
    6SOL    HW1    8   1.498   1.495   0.784
    6SOL    HW2    9   1.496   1.521   0.623
   14SOL     OW   10   1.460   1.505   1.339
   14SOL    HW1   11   1.484   1.599   1.365
   14SOL    HW2   12   1.444   1.451   1.421
   18SOL     OW   13   1.127   1.341   1.690
   18SOL    HW1   14   1.174   1.341   1.778
   18SOL    HW2   15   1.079   1.254   1.679
   31SOL     OW   16   1.293   1.228   1.423
   31SOL    HW1   17   1.330   1.155   1.365
   31SOL    HW2   18   1.345   1.233   1.508
   35SOL     OW   19   1.187   1.792   1.616
   35SOL    HW1   20   1.211   1.852   1.540
   35SOL    HW2   21   1.194   1.697   1.586
   37SOL     OW   22   1.466   1.417   0.953
   37SOL    HW1   23   1.407   1.423   1.033
   37SOL    HW2   24   1.451   1.329   0.907
   50SOL     OW   25   1.719   0.585   1.831
   50SOL    HW1   26   1.693   0.674   1.795
   50SOL    HW2   27   1.717   0.517   1.758
   56SOL     OW   28   1.227   1.550   1.506
   56SOL    HW1   29   1.233   1.473   1.570
   56SOL    HW2   30   1.175   1.524   1.426
   95SOL     OW   31   1.754   1.223   1.588
   95SOL    HW1   32   1.845   1.184   1.575
   95SOL    HW2   33   1.762   1.319   1.612
   96SOL     OW   34   1.064   1.347   1.340
   96SOL    HW1   35   0.984   1.324   1.395
   96SOL    HW2   36   1.147   1.321   1.389
   97SOL     OW   37   1.592   1.629   1.625
   97SOL    HW1   38   1.619   1.663   1.535
   97SOL    HW2   39   1.671   1.591   1.671
   99SOL     OW   40   1.638   1.099   1.079
   99SOL    HW1   41   1.643   1.180   1.138
   99SOL    HW2   42   1.552   1.101   1.028
  101SOL     OW   43   0.980   1.116   1.719
  101SOL    HW1   44   0.881   1.122   1.729
  101SOL    HW2   45   1.003   1.036   1.663
  109SOL     OW   46   1.272   1.445   1.142
  109SOL    HW1   47   1.319   1.458   1.229
  109SOL    HW2   48   1.206   1.371   1.151
  113SOL     OW   49   1.587   0.779   1.670
  113SOL    HW1   50   1.495   0.817   1.665
  113SOL    HW2   51   1.647   0.826   1.605
  122SOL     OW   52   1.728   0.935   1.854
  122SOL    HW1   53   1.682   0.928   1.765
  122SOL    HW2   54   1.666   0.979   1.920
  126SOL     OW   55   0.980   1.573   1.700
  126SOL    HW1   56   0.960   1.617   1.612
  126SOL    HW2   57   1.019   1.482   1.684
  127SOL     OW   58   1.859   1.518   1.605
  127SOL    HW1   59   1.873   1.545   1.510
  127SOL    HW2   60   1.942   1.540   1.658
  142SOL     OW   61   1.369   0.950   1.660
  142SOL    HW1   62   1.408   1.039   1.680
  142SOL    HW2   63   1.379   0.930   1.563
  147SOL     OW   64   0.930   1.678   1.465
  147SOL    HW1   65   0.906   1.660   1.370
  147SOL    HW2   66   0.960   1.772   1.475
  150SOL     OW   67   1.347   1.059   1.234
  150SOL    HW1   68   1.371   0.996   1.160
  150SOL    HW2   69   1.257   1.099   1.216
  152SOL     OW   70   1.759   1.747   1.154
  152SOL    HW1   71   1.820   1.777   1.081
  152SOL    HW2   72   1.721   1.658   1.132
  153SOL     OW   73   1.252   1.731   1.128
  153SOL    HW1   74   1.336   1.736   1.074
  153SOL    HW2   75   1.229   1.635   1.146
  155SOL     OW   76   0.688   1.662   1.716
  155SOL    HW1   77   0.632   1.743   1.725
  155SOL    HW2   78   0.740   1.666   1.630
  163SOL     OW   79   1.650   1.720   1.394
  163SOL    HW1   80   1.703   1.730   1.310
  163SOL    HW2   81   1.623   1.810   1.428
  171SOL     OW   82   1.614   1.292   1.289
  171SOL    HW1   83   1.674   1.295   1.369
  171SOL    HW2   84   1.539   1.356   1.302
  180SOL     OW   85   1.440   0.856   1.398
  180SOL    HW1   86   1.383   0.908   1.335
  180SOL    HW2   87   1.536   0.868   1.374
  184SOL     OW   88   1.493   1.767   0.959
  184SOL    HW1   89   1.526   1.831   0.890
  184SOL    HW2   90   1.559   1.761   1.034
  186SOL     OW   91   1.450   1.220   1.633
  186SOL    HW1   92   1.441   1.210   1.732
  186SOL    HW2   93   1.546   1.213   1.607
  188SOL     OW   94   1.674   0.883   1.254
  188SOL    HW1   95   1.647   0.794   1.217
  188SOL    HW2   96   1.675   0.951   1.181
  192SOL     OW   97   1.730   0.934   1.517
  192SOL    HW1   98   1.768   1.025   1.532
  192SOL    HW2   99   1.722   0.917   1.418
  197SOL     OW  100   1.861   1.569   0.851
  197SOL    HW1  101   1.790   1.557   0.781
  197SOL    HW2  102   1.862   1.490   0.911
  203SOL     OW  103   1.705   1.487   1.104
  203SOL    HW1  104   1.612   1.462   1.077
  203SOL    HW2  105   1.731   1.437   1.186
  219SOL     OW  106   1.555   1.511   2.565
  219SOL    HW1  107   1.498   1.495   2.646
  219SOL    HW2  108   1.496   1.521   2.485
  221SOL     OW  109   1.755   0.607   2.093
  221SOL    HW1  110   1.743   0.594   1.994
  221SOL    HW2  111   1.725   0.526   2.142
  227SOL     OW  112   1.460   1.505   3.201
  227SOL    HW1  113   1.484   1.599   3.227
  227SOL    HW2  114   1.444   1.451   3.283
  238SOL     OW  115   1.842   1.767   2.221
  238SOL    HW1  116   1.896   1.738   2.301
  238SOL    HW2  117   1.872   1.857   2.192
  240SOL     OW  118   1.689   0.922   2.474
  240SOL    HW1  119   1.784   0.893   2.482
  240SOL    HW2  120   1.681   0.987   2.399
  241SOL     OW  121   1.641   1.108   2.294
  241SOL    HW1  122   1.727   1.110   2.242
  241SOL    HW2  123   1.655   1.155   2.382
  244SOL     OW  124   1.293   1.228   3.285
  244SOL    HW1  125   1.330   1.155   3.227
  244SOL    HW2  126   1.345   1.233   3.370
  247SOL     OW  127   1.525   0.999   2.052
  247SOL    HW1  128   1.462   0.923   2.065
  247SOL    HW2  129   1.573   1.017   2.138
  248SOL     OW  130   1.187   1.792   3.478
  248SOL    HW1  131   1.211   1.852   3.402
  248SOL    HW2  132   1.194   1.697   3.448
  250SOL     OW  133   1.466   1.417   2.815
  250SOL    HW1  134   1.407   1.423   2.895
  250SOL    HW2  135   1.451   1.329   2.769
  251SOL     OW  136   1.667   1.714   2.434
  251SOL    HW1  137   1.626   1.691   2.346
  251SOL    HW2  138   1.649   1.640   2.499
  254SOL     OW  139   1.576   1.662   2.169
  254SOL    HW1  140   1.665   1.708   2.172
  254SOL    HW2  141   1.555   1.638   2.074
  264SOL     OW  142   1.362   1.144   2.407
  264SOL    HW1  143   1.445   1.115   2.359
  264SOL    HW2  144   1.313   1.211   2.351
  266SOL     OW  145   1.008   1.456   2.339
  266SOL    HW1  146   0.962   1.528   2.287
  266SOL    HW2  147   1.004   1.476   2.437
  268SOL     OW  148   1.795   1.066   2.735
  268SOL    HW1  149   1.733   1.051   2.659
  268SOL    HW2  150   1.743   1.077   2.820
  269SOL     OW  151   1.227   1.550   3.368
  269SOL    HW1  152   1.233   1.473   3.432
  269SOL    HW2  153   1.175   1.524   3.288
  271SOL     OW  154   1.458   0.735   2.590
  271SOL    HW1  155   1.453   0.670   2.665
  271SOL    HW2  156   1.538   0.794   2.603
  273SOL     OW  157   1.111   1.776   2.099
  273SOL    HW1  158   1.051   1.714   2.149
  273SOL    HW2  159   1.142   1.732   2.014
  275SOL     OW  160   1.632   1.377   1.943
  275SOL    HW1  161   1.600   1.471   1.933
  275SOL    HW2  162   1.556   1.314   1.931
  279SOL     OW  163   0.940   1.698   2.766
  279SOL    HW1  164   1.020   1.641   2.787
  279SOL    HW2  165   0.891   1.658   2.689
  284SOL     OW  166   0.888   1.514   3.057
  284SOL    HW1  167   0.865   1.489   2.963
  284SOL    HW2  168   0.949   1.445   3.096
  286SOL     OW  169   0.803   1.402   2.786
  286SOL    HW1  170   0.893   1.416   2.744
  286SOL    HW2  171   0.732   1.404   2.715
  289SOL     OW  172   1.434   1.188   1.903
  289SOL    HW1  173   1.466   1.112   1.960
  289SOL    HW2  174   1.342   1.215   1.933
  293SOL     OW  175   1.227   1.570   2.655
  293SOL    HW1  176   1.248   1.644   2.590
  293SOL    HW2  177   1.295   1.570   2.728
  295SOL     OW  178   1.271   1.797   2.453
  295SOL    HW1  179   1.315   1.861   2.389
  295SOL    HW2  180   1.221   1.849   2.523
  301SOL     OW  181   1.429   1.173   2.729
  301SOL    HW1  182   1.374   1.089   2.722
  301SOL    HW2  183   1.455   1.202   2.637
  303SOL     OW  184   1.857   0.833   2.239
  303SOL    HW1  185   1.899   0.769   2.303
  303SOL    HW2  186   1.819   0.782   2.161
  305SOL     OW  187   1.664   1.280   2.519
  305SOL    HW1  188   1.763   1.288   2.533
  305SOL    HW2  189   1.619   1.364   2.550
  308SOL     OW  190   1.754   1.223   3.450
  308SOL    HW1  191   1.845   1.184   3.437
  308SOL    HW2  192   1.762   1.319   3.474
  309SOL     OW  193   1.064   1.347   3.202
  309SOL    HW1  194   0.984   1.324   3.257
  309SOL    HW2  195   1.147   1.321   3.251
  310SOL     OW  196   1.592   1.629   3.487
  310SOL    HW1  197   1.619   1.663   3.397
  310SOL    HW2  198   1.671   1.591   3.533
  311SOL     OW  199   1.111   1.195   2.962
  311SOL    HW1  200   1.071   1.239   3.043
  311SOL    HW2  201   1.070   1.232   2.879
  312SOL     OW  202   1.638   1.099   2.941
  312SOL    HW1  203   1.643   1.180   3.000
  312SOL    HW2  204   1.552   1.101   2.890
  321SOL     OW  205   1.252   1.348   2.250
  321SOL    HW1  206   1.302   1.425   2.290
  321SOL    HW2  207   1.157   1.350   2.282
  322SOL     OW  208   1.272   1.445   3.004
  322SOL    HW1  209   1.319   1.458   3.091
  322SOL    HW2  210   1.206   1.371   3.013
  323SOL     OW  211   1.582   0.639   2.334
  323SOL    HW1  212   1.551   0.700   2.407
  323SOL    HW2  213   1.632   0.691   2.265
  330SOL     OW  214   1.360   0.862   2.907
  330SOL    HW1  215   1.285   0.862   2.841
  330SOL    HW2  216   1.397   0.770   2.916
  340SOL     OW  217   1.859   1.518   3.467
  340SOL    HW1  218   1.873   1.545   3.372
  340SOL    HW2  219   1.942   1.540   3.520
  343SOL     OW  220   1.303   0.838   1.904
  343SOL    HW1  221   1.337   0.745   1.919
  343SOL    HW2  222   1.321   0.865   1.809
  344SOL     OW  223   1.068   1.333   2.711
  344SOL    HW1  224   1.075   1.249   2.656
  344SOL    HW2  225   1.130   1.402   2.675
  360SOL     OW  226   0.930   1.678   3.327
  360SOL    HW1  227   0.906   1.660   3.232
  360SOL    HW2  228   0.960   1.772   3.337
  363SOL     OW  229   1.347   1.059   3.096
  363SOL    HW1  230   1.371   0.996   3.022
  363SOL    HW2  231   1.257   1.099   3.078
  364SOL     OW  232   1.302   0.855   2.171
  364SOL    HW1  233   1.216   0.824   2.213
  364SOL    HW2  234   1.298   0.841   2.072
  365SOL     OW  235   1.759   1.747   3.016
  365SOL    HW1  236   1.820   1.777   2.943
  365SOL    HW2  237   1.721   1.658   2.994
  366SOL     OW  238   1.252   1.731   2.990
  366SOL    HW1  239   1.336   1.736   2.936
  366SOL    HW2  240   1.229   1.635   3.008
  370SOL     OW  241   1.388   1.573   2.339
  370SOL    HW1  242   1.455   1.585   2.265
  370SOL    HW2  243   1.348   1.662   2.362
  372SOL     OW  244   1.280   0.927   2.534
  372SOL    HW1  245   1.340   0.846   2.536
  372SOL    HW2  246   1.320   0.996   2.474
  374SOL     OW  247   0.672   1.616   2.016
  374SOL    HW1  248   0.681   1.626   1.917
  374SOL    HW2  249   0.632   1.527   2.037
  375SOL     OW  250   1.650   1.720   3.256
  375SOL    HW1  251   1.703   1.730   3.172
  375SOL    HW2  252   1.623   1.810   3.290
  378SOL     OW  253   1.194   1.612   1.893
  378SOL    HW1  254   1.200   1.519   1.930
  378SOL    HW2  255   1.135   1.612   1.813
  381SOL     OW  256   1.504   1.607   1.906
  381SOL    HW1  257   1.412   1.644   1.913
  381SOL    HW2  258   1.542   1.627   1.816
  383SOL     OW  259   1.614   1.292   3.151
  383SOL    HW1  260   1.674   1.295   3.231
  383SOL    HW2  261   1.539   1.356   3.164
  384SOL     OW  262   1.039   1.098   2.558
  384SOL    HW1  263   0.969   1.051   2.612
  384SOL    HW2  264   1.098   1.030   2.515
  386SOL     OW  265   0.590   1.487   2.353
  386SOL    HW1  266   0.632   1.429   2.283
  386SOL    HW2  267   0.546   1.566   2.309
  394SOL     OW  268   1.183   1.335   1.981
  394SOL    HW1  269   1.084   1.324   1.983
  394SOL    HW2  270   1.217   1.350   2.074
  396SOL     OW  271   1.493   1.767   2.821
  396SOL    HW1  272   1.526   1.831   2.752
  396SOL    HW2  273   1.559   1.761   2.896
  398SOL     OW  274   1.450   1.220   3.495
  398SOL    HW1  275   1.441   1.210   3.594
  398SOL    HW2  276   1.546   1.213   3.469
  400SOL     OW  277   1.674   0.883   3.116
  400SOL    HW1  278   1.647   0.794   3.079
  400SOL    HW2  279   1.675   0.951   3.043
  404SOL     OW  280   1.730   0.934   3.379
  404SOL    HW1  281   1.768   1.025   3.394
  404SOL    HW2  282   1.722   0.917   3.280
  405SOL     OW  283   0.859   1.374   1.878
  405SOL    HW1  284   0.813   1.389   1.966
  405SOL    HW2  285   0.903   1.459   1.848
  406SOL     OW  286   0.661   1.790   2.815
  406SOL    HW1  287   0.615   1.878   2.802
  406SOL    HW2  288   0.760   1.802   2.808
  408SOL     OW  289   1.083   0.984   1.949
  408SOL    HW1  290   1.060   1.037   1.867
  408SOL    HW2  291   1.164   0.928   1.930
  409SOL     OW  292   1.861   1.569   2.713
  409SOL    HW1  293   1.790   1.557   2.643
  409SOL    HW2  294   1.862   1.490   2.773
  415SOL     OW  295   1.705   1.487   2.966
  415SOL    HW1  296   1.612   1.462   2.939
  415SOL    HW2  297   1.731   1.437   3.048
  417SOL     OW  298   0.812   1.586   2.549
  417SOL    HW1  299   0.844   1.596   2.455
  417SOL    HW2  300   0.733   1.524   2.551
  420SOL     OW  301   0.770   1.330   2.163
  420SOL    HW1  302   0.724   1.243   2.180
  420SOL    HW2  303   0.861   1.327   2.204
  426SOL     OW  304   0.875   1.646   2.199
  426SOL    HW1  305   0.798   1.611   2.145
  426SOL    HW2  306   0.843   1.717   2.261
  514SOL     OW  307   0.850   2.660   1.823
  514SOL    HW1  308   0.846   2.736   1.888
  514SOL    HW2  309   0.872   2.696   1.732
  516SOL     OW  310   0.686   3.023   1.803
  516SOL    HW1  311   0.746   3.102   1.817
  516SOL    HW2  312   0.600   3.054   1.762
  518SOL     OW  313   1.460   3.367   1.339
  518SOL    HW1  314   1.484   3.461   1.365
  518SOL    HW2  315   1.444   3.313   1.421
  520SOL     OW  316   1.603   2.309   0.737
  520SOL    HW1  317   1.529   2.355   0.687
  520SOL    HW2  318   1.654   2.377   0.790
  522SOL     OW  319   1.127   3.203   1.690
  522SOL    HW1  320   1.174   3.203   1.778
  522SOL    HW2  321   1.079   3.116   1.679
  527SOL     OW  322   1.594   1.976   1.480
  527SOL    HW1  323   1.576   2.043   1.408
  527SOL    HW2  324   1.591   2.022   1.569
  531SOL     OW  325   1.689   2.784   0.612
  531SOL    HW1  326   1.784   2.755   0.620
  531SOL    HW2  327   1.681   2.849   0.537
  535SOL     OW  328   1.293   3.090   1.423
  535SOL    HW1  329   1.330   3.017   1.365
  535SOL    HW2  330   1.345   3.095   1.508
  544SOL     OW  331   1.281   2.207   0.944
  544SOL    HW1  332   1.195   2.157   0.931
  544SOL    HW2  333   1.343   2.153   1.000
  546SOL     OW  334   0.807   2.467   1.465
  546SOL    HW1  335   0.760   2.464   1.554
  546SOL    HW2  336   0.756   2.412   1.399
  547SOL     OW  337   1.394   2.331   1.674
  547SOL    HW1  338   1.374   2.374   1.762
  547SOL    HW2  339   1.472   2.269   1.683
  548SOL     OW  340   0.973   2.752   1.572
  548SOL    HW1  341   1.019   2.668   1.543
  548SOL    HW2  342   0.917   2.786   1.497
  549SOL     OW  343   0.991   2.272   1.242
  549SOL    HW1  344   0.914   2.306   1.296
  549SOL    HW2  345   0.957   2.221   1.163
  554SOL     OW  346   1.719   2.447   1.831
  554SOL    HW1  347   1.693   2.536   1.795
  554SOL    HW2  348   1.717   2.379   1.758
  559SOL     OW  349   1.795   2.928   0.873
  559SOL    HW1  350   1.733   2.913   0.797
  559SOL    HW2  351   1.743   2.939   0.958
  560SOL     OW  352   1.227   3.412   1.506
  560SOL    HW1  353   1.233   3.335   1.570
  560SOL    HW2  354   1.175   3.386   1.426
  562SOL     OW  355   1.458   2.597   0.728
  562SOL    HW1  356   1.453   2.532   0.803
  562SOL    HW2  357   1.538   2.656   0.741
  572SOL     OW  358   1.547   2.084   1.729
  572SOL    HW1  359   1.542   2.121   1.821
  572SOL    HW2  360   1.475   2.015   1.717
  574SOL     OW  361   0.781   2.126   1.749
  574SOL    HW1  362   0.848   2.065   1.792
  574SOL    HW2  363   0.708   2.145   1.814
  576SOL     OW  364   1.351   2.452   1.433
  576SOL    HW1  365   1.379   2.409   1.518
  576SOL    HW2  366   1.376   2.548   1.434
  582SOL     OW  367   1.076   2.545   1.464
  582SOL    HW1  368   0.996   2.484   1.467
  582SOL    HW2  369   1.157   2.492   1.440
  591SOL     OW  370   1.429   3.035   0.867
  591SOL    HW1  371   1.374   2.951   0.860
  591SOL    HW2  372   1.455   3.064   0.775
  592SOL     OW  373   1.466   2.452   0.992
  592SOL    HW1  374   1.436   2.357   0.999
  592SOL    HW2  375   1.539   2.468   1.058
  598SOL     OW  376   1.754   3.085   1.588
  598SOL    HW1  377   1.845   3.046   1.575
  598SOL    HW2  378   1.762   3.181   1.612
  599SOL     OW  379   1.064   3.209   1.340
  599SOL    HW1  380   0.984   3.186   1.395
  599SOL    HW2  381   1.147   3.183   1.389
  600SOL     OW  382   1.592   3.491   1.625
  600SOL    HW1  383   1.619   3.525   1.535
  600SOL    HW2  384   1.671   3.453   1.671
  601SOL     OW  385   1.111   3.057   1.100
  601SOL    HW1  386   1.071   3.101   1.181
  601SOL    HW2  387   1.070   3.094   1.017
  602SOL     OW  388   1.638   2.961   1.079
  602SOL    HW1  389   1.643   3.042   1.138
  602SOL    HW2  390   1.552   2.963   1.028
  603SOL     OW  391   0.915   1.951   1.402
  603SOL    HW1  392   0.940   1.931   1.307
  603SOL    HW2  393   0.987   2.007   1.444
  604SOL     OW  394   0.980   2.978   1.719
  604SOL    HW1  395   0.881   2.984   1.729
  604SOL    HW2  396   1.003   2.898   1.663
  607SOL     OW  397   1.274   2.248   1.262
  607SOL    HW1  398   1.295   2.322   1.326
  607SOL    HW2  399   1.185   2.265   1.219
  612SOL     OW  400   1.272   3.307   1.142
  612SOL    HW1  401   1.319   3.320   1.229
  612SOL    HW2  402   1.206   3.233   1.151
  616SOL     OW  403   1.587   2.641   1.670
  616SOL    HW1  404   1.495   2.679   1.665
  616SOL    HW2  405   1.647   2.688   1.605
  617SOL     OW  406   1.013   1.967   1.770
  617SOL    HW1  407   1.019   2.052   1.718
  617SOL    HW2  408   1.045   1.891   1.713
  620SOL     OW  409   1.360   2.724   1.045
  620SOL    HW1  410   1.285   2.724   0.979
  620SOL    HW2  411   1.397   2.632   1.054
  625SOL     OW  412   1.728   2.797   1.854
  625SOL    HW1  413   1.682   2.790   1.765
  625SOL    HW2  414   1.666   2.841   1.920
  628SOL     OW  415   1.023   2.628   0.966
  628SOL    HW1  416   1.038   2.649   1.062
  628SOL    HW2  417   0.993   2.533   0.957
  630SOL     OW  418   1.859   3.380   1.605
  630SOL    HW1  419   1.873   3.407   1.510
  630SOL    HW2  420   1.942   3.402   1.658
  637SOL     OW  421   1.138   2.242   1.678
  637SOL    HW1  422   1.093   2.305   1.742
  637SOL    HW2  423   1.231   2.273   1.661
  638SOL     OW  424   1.160   2.069   1.477
  638SOL    HW1  425   1.160   2.133   1.554
  638SOL    HW2  426   1.188   2.117   1.394
  642SOL     OW  427   1.002   2.658   1.238
  642SOL    HW1  428   1.043   2.626   1.324
  642SOL    HW2  429   0.906   2.631   1.235
  645SOL     OW  430   1.369   2.812   1.660
  645SOL    HW1  431   1.408   2.901   1.680
  645SOL    HW2  432   1.379   2.792   1.563
  647SOL     OW  433   1.657   2.466   1.206
  647SOL    HW1  434   1.619   2.397   1.268
  647SOL    HW2  435   1.739   2.430   1.162
  653SOL     OW  436   1.347   2.921   1.234
  653SOL    HW1  437   1.371   2.858   1.160
  653SOL    HW2  438   1.257   2.961   1.216
  660SOL     OW  439   1.726   1.997   0.523
  660SOL    HW1  440   1.799   1.980   0.456
  660SOL    HW2  441   1.695   1.910   0.561
  666SOL     OW  442   1.650   3.582   1.394
  666SOL    HW1  443   1.703   3.592   1.310
  666SOL    HW2  444   1.623   3.672   1.428
  667SOL     OW  445   1.841   2.037   0.963
  667SOL    HW1  446   1.880   1.952   0.927
  667SOL    HW2  447   1.743   2.039   0.944
  670SOL     OW  448   0.822   2.864   1.372
  670SOL    HW1  449   0.862   2.863   1.280
  670SOL    HW2  450   0.832   2.956   1.412
  674SOL     OW  451   1.614   3.154   1.289
  674SOL    HW1  452   1.674   3.157   1.369
  674SOL    HW2  453   1.539   3.218   1.302
  676SOL     OW  454   1.014   2.098   0.971
  676SOL    HW1  455   1.006   2.062   0.878
  676SOL    HW2  456   1.012   2.022   1.036
  678SOL     OW  457   1.709   2.247   1.381
  678SOL    HW1  458   1.782   2.316   1.385
  678SOL    HW2  459   1.737   2.172   1.322
  681SOL     OW  460   0.672   2.065   1.489
  681SOL    HW1  461   0.762   2.049   1.449
  681SOL    HW2  462   0.680   2.070   1.588
  683SOL     OW  463   1.440   2.718   1.398
  683SOL    HW1  464   1.383   2.770   1.335
  683SOL    HW2  465   1.536   2.730   1.374
  688SOL     OW  466   0.716   2.427   1.708
  688SOL    HW1  467   0.735   2.492   1.782
  688SOL    HW2  468   0.776   2.347   1.717
  689SOL     OW  469   1.450   3.082   1.633
  689SOL    HW1  470   1.441   3.072   1.732
  689SOL    HW2  471   1.546   3.075   1.607
  691SOL     OW  472   1.674   2.745   1.254
  691SOL    HW1  473   1.647   2.656   1.217
  691SOL    HW2  474   1.675   2.813   1.181
  694SOL     OW  475   1.777   2.204   1.642
  694SOL    HW1  476   1.760   2.235   1.548
  694SOL    HW2  477   1.693   2.167   1.680
  695SOL     OW  478   1.730   2.796   1.517
  695SOL    HW1  479   1.768   2.887   1.532
  695SOL    HW2  480   1.722   2.779   1.418
  704SOL     OW  481   1.824   2.054   1.227
  704SOL    HW1  482   1.820   1.964   1.271
  704SOL    HW2  483   1.827   2.043   1.128
  706SOL     OW  484   1.705   3.349   1.104
  706SOL    HW1  485   1.612   3.324   1.077
  706SOL    HW2  486   1.731   3.299   1.186
  709SOL     OW  487   1.424   2.076   1.112
  709SOL    HW1  488   1.476   2.011   1.167
  709SOL    HW2  489   1.375   2.139   1.173
  710SOL     OW  490   1.001   1.896   1.154
  710SOL    HW1  491   0.938   1.824   1.123
  710SOL    HW2  492   1.094   1.860   1.154
  714SOL     OW  493   1.300   2.315   0.691
  714SOL    HW1  494   1.241   2.395   0.695
  714SOL    HW2  495   1.315   2.280   0.784
  715SOL     OW  496   1.593   2.083   0.882
  715SOL    HW1  497   1.509   2.082   0.936
  715SOL    HW2  498   1.595   2.166   0.826
  722SOL     OW  499   1.555   3.373   2.565
  722SOL    HW1  500   1.498   3.357   2.646
  722SOL    HW2  501   1.496   3.383   2.485
  723SOL     OW  502   1.135   2.565   2.579
  723SOL    HW1  503   1.192   2.643   2.554
  723SOL    HW2  504   1.075   2.591   2.655
  724SOL     OW  505   1.755   2.469   2.093
  724SOL    HW1  506   1.743   2.456   1.994
  724SOL    HW2  507   1.725   2.388   2.142
  725SOL     OW  508   0.768   3.006   2.885
  725SOL    HW1  509   0.690   3.023   2.945
  725SOL    HW2  510   0.802   3.093   2.849
  727SOL     OW  511   0.685   2.874   2.527
  727SOL    HW1  512   0.754   2.858   2.597
  727SOL    HW2  513   0.612   2.931   2.565
  730SOL     OW  514   1.460   3.367   3.201
  730SOL    HW1  515   1.484   3.461   3.227
  730SOL    HW2  516   1.444   3.313   3.283
  732SOL     OW  517   1.603   2.309   2.599
  732SOL    HW1  518   1.529   2.355   2.549
  732SOL    HW2  519   1.654   2.377   2.652
  738SOL     OW  520   0.606   2.826   1.985
  738SOL    HW1  521   0.613   2.910   1.931
  738SOL    HW2  522   0.652   2.839   2.073
  739SOL     OW  523   1.594   1.976   3.342
  739SOL    HW1  524   1.576   2.043   3.270
  739SOL    HW2  525   1.591   2.022   3.431
  741SOL     OW  526   1.842   3.629   2.221
  741SOL    HW1  527   1.896   3.600   2.301
  741SOL    HW2  528   1.872   3.719   2.192
  743SOL     OW  529   1.689   2.784   2.474
  743SOL    HW1  530   1.784   2.755   2.482
  743SOL    HW2  531   1.681   2.849   2.399
  744SOL     OW  532   1.641   2.970   2.294
  744SOL    HW1  533   1.727   2.972   2.242
  744SOL    HW2  534   1.655   3.017   2.382
  747SOL     OW  535   1.293   3.090   3.285
  747SOL    HW1  536   1.330   3.017   3.227
  747SOL    HW2  537   1.345   3.095   3.370
  748SOL     OW  538   0.809   1.866   2.364
  748SOL    HW1  539   0.849   1.957   2.355
  748SOL    HW2  540   0.709   1.874   2.370
  750SOL     OW  541   1.525   2.861   2.052
  750SOL    HW1  542   1.462   2.785   2.065
  750SOL    HW2  543   1.573   2.879   2.138
  753SOL     OW  544   1.466   3.279   2.815
  753SOL    HW1  545   1.407   3.285   2.895
  753SOL    HW2  546   1.451   3.191   2.769
  754SOL     OW  547   1.667   3.576   2.434
  754SOL    HW1  548   1.626   3.553   2.346
  754SOL    HW2  549   1.649   3.502   2.499
  755SOL     OW  550   0.598   2.591   2.132
  755SOL    HW1  551   0.622   2.660   2.064
  755SOL    HW2  552   0.520   2.624   2.186
  756SOL     OW  553   1.281   2.207   2.806
  756SOL    HW1  554   1.195   2.157   2.793
  756SOL    HW2  555   1.343   2.153   2.862
  757SOL     OW  556   1.576   3.524   2.169
  757SOL    HW1  557   1.665   3.570   2.172
  757SOL    HW2  558   1.555   3.500   2.074
  759SOL     OW  559   1.394   2.331   3.536
  759SOL    HW1  560   1.374   2.374   3.624
  759SOL    HW2  561   1.472   2.269   3.545
  761SOL     OW  562   0.991   2.272   3.104
  761SOL    HW1  563   0.914   2.306   3.158
  761SOL    HW2  564   0.957   2.221   3.025
  762SOL     OW  565   1.041   2.563   2.291
  762SOL    HW1  566   1.067   2.559   2.387
  762SOL    HW2  567   0.956   2.512   2.277
  765SOL     OW  568   0.865   2.210   2.057
  765SOL    HW1  569   0.924   2.273   2.008
  765SOL    HW2  570   0.884   2.116   2.028
  766SOL     OW  571   1.719   2.447   3.693
  766SOL    HW1  572   1.693   2.536   3.657
  766SOL    HW2  573   1.717   2.379   3.620
  767SOL     OW  574   1.362   3.006   2.407
  767SOL    HW1  575   1.445   2.977   2.359
  767SOL    HW2  576   1.313   3.073   2.351
  768SOL     OW  577   0.550   2.058   2.747
  768SOL    HW1  578   0.545   2.053   2.847
  768SOL    HW2  579   0.552   2.154   2.718
  769SOL     OW  580   1.008   3.318   2.339
  769SOL    HW1  581   0.962   3.390   2.287
  769SOL    HW2  582   1.004   3.338   2.437
  771SOL     OW  583   1.795   2.928   2.735
  771SOL    HW1  584   1.733   2.913   2.659
  771SOL    HW2  585   1.743   2.939   2.820
  774SOL     OW  586   1.458   2.597   2.590
  774SOL    HW1  587   1.453   2.532   2.665
  774SOL    HW2  588   1.538   2.656   2.603
  778SOL     OW  589   1.632   3.239   1.943
  778SOL    HW1  590   1.600   3.333   1.933
  778SOL    HW2  591   1.556   3.176   1.931
  780SOL     OW  592   1.400   1.969   2.288
  780SOL    HW1  593   1.376   1.932   2.198
  780SOL    HW2  594   1.499   1.985   2.292
  784SOL     OW  595   1.547   2.084   3.591
  784SOL    HW1  596   1.542   2.121   3.683
  784SOL    HW2  597   1.475   2.015   3.579
  785SOL     OW  598   0.614   1.984   1.979
  785SOL    HW1  599   0.712   1.962   1.986
  785SOL    HW2  600   0.583   1.967   1.886
  788SOL     OW  601   1.351   2.452   3.295
  788SOL    HW1  602   1.379   2.409   3.380
  788SOL    HW2  603   1.376   2.548   3.296
  790SOL     OW  604   0.922   2.365   2.761
  790SOL    HW1  605   0.897   2.356   2.665
  790SOL    HW2  606   0.970   2.283   2.792
  791SOL     OW  607   0.539   1.926   2.374
  791SOL    HW1  608   0.458   1.927   2.432
  791SOL    HW2  609   0.542   2.009   2.319
  792SOL     OW  610   1.434   3.050   1.903
  792SOL    HW1  611   1.466   2.974   1.960
  792SOL    HW2  612   1.342   3.077   1.933
  794SOL     OW  613   0.935   2.098   2.342
  794SOL    HW1  614   0.887   2.139   2.264
  794SOL    HW2  615   1.034   2.096   2.323
  795SOL     OW  616   1.076   2.545   3.326
  795SOL    HW1  617   0.996   2.484   3.329
  795SOL    HW2  618   1.157   2.492   3.302
  796SOL     OW  619   1.227   3.432   2.655
  796SOL    HW1  620   1.248   3.506   2.590
  796SOL    HW2  621   1.295   3.432   2.728
  798SOL     OW  622   1.271   3.659   2.453
  798SOL    HW1  623   1.315   3.723   2.389
  798SOL    HW2  624   1.221   3.711   2.523
  799SOL     OW  625   1.032   2.411   1.878
  799SOL    HW1  626   0.991   2.493   1.839
  799SOL    HW2  627   1.096   2.437   1.951
  802SOL     OW  628   0.866   2.316   2.504
  802SOL    HW1  629   0.834   2.388   2.442
  802SOL    HW2  630   0.890   2.235   2.451
  803SOL     OW  631   1.017   1.901   2.615
  803SOL    HW1  632   0.945   1.906   2.546
  803SOL    HW2  633   0.993   1.832   2.684
  804SOL     OW  634   1.429   3.035   2.729
  804SOL    HW1  635   1.374   2.951   2.722
  804SOL    HW2  636   1.455   3.064   2.637
  805SOL     OW  637   1.466   2.452   2.854
  805SOL    HW1  638   1.436   2.357   2.861
  805SOL    HW2  639   1.539   2.468   2.920
  806SOL     OW  640   1.857   2.695   2.239
  806SOL    HW1  641   1.899   2.631   2.303
  806SOL    HW2  642   1.819   2.644   2.161
  808SOL     OW  643   1.664   3.142   2.519
  808SOL    HW1  644   1.763   3.150   2.533
  808SOL    HW2  645   1.619   3.226   2.550
  809SOL     OW  646   1.390   2.437   1.940
  809SOL    HW1  647   1.336   2.416   2.021
  809SOL    HW2  648   1.481   2.396   1.949
  810SOL     OW  649   0.527   2.118   2.190
  810SOL    HW1  650   0.554   2.059   2.115
  810SOL    HW2  651   0.527   2.213   2.159
  811SOL     OW  652   1.754   3.085   3.450
  811SOL    HW1  653   1.845   3.046   3.437
  811SOL    HW2  654   1.762   3.181   3.474
  814SOL     OW  655   1.111   3.057   2.962
  814SOL    HW1  656   1.071   3.101   3.043
  814SOL    HW2  657   1.070   3.094   2.879
  815SOL     OW  658   1.638   2.961   2.941
  815SOL    HW1  659   1.643   3.042   3.000
  815SOL    HW2  660   1.552   2.963   2.890
  816SOL     OW  661   0.915   1.951   3.264
  816SOL    HW1  662   0.940   1.931   3.169
  816SOL    HW2  663   0.987   2.007   3.306
  818SOL     OW  664   0.705   2.912   2.230
  818SOL    HW1  665   0.691   2.919   2.329
  818SOL    HW2  666   0.789   2.861   2.212
  820SOL     OW  667   1.274   2.248   3.124
  820SOL    HW1  668   1.295   2.322   3.188
  820SOL    HW2  669   1.185   2.265   3.081
  823SOL     OW  670   0.566   2.399   2.727
  823SOL    HW1  671   0.578   2.465   2.653
  823SOL    HW2  672   0.612   2.433   2.810
  824SOL     OW  673   1.252   3.210   2.250
  824SOL    HW1  674   1.302   3.287   2.290
  824SOL    HW2  675   1.157   3.212   2.282
  825SOL     OW  676   1.272   3.307   3.004
  825SOL    HW1  677   1.319   3.320   3.091
  825SOL    HW2  678   1.206   3.233   3.013
  826SOL     OW  679   1.582   2.501   2.334
  826SOL    HW1  680   1.551   2.562   2.407
  826SOL    HW2  681   1.632   2.553   2.265
  829SOL     OW  682   1.587   2.641   3.532
  829SOL    HW1  683   1.495   2.679   3.527
  829SOL    HW2  684   1.647   2.688   3.467
  833SOL     OW  685   1.360   2.724   2.907
  833SOL    HW1  686   1.285   2.724   2.841
  833SOL    HW2  687   1.397   2.632   2.916
  834SOL     OW  688   1.209   2.387   2.137
  834SOL    HW1  689   1.222   2.303   2.191
  834SOL    HW2  690   1.180   2.461   2.197
  837SOL     OW  691   0.732   2.496   2.926
  837SOL    HW1  692   0.791   2.470   2.850
  837SOL    HW2  693   0.704   2.592   2.915
  838SOL     OW  694   1.728   2.797   3.716
  838SOL    HW1  695   1.682   2.790   3.627
  838SOL    HW2  696   1.666   2.841   3.782
  840SOL     OW  697   1.622   2.229   2.236
  840SOL    HW1  698   1.624   2.153   2.300
  840SOL    HW2  699   1.574   2.306   2.276
  841SOL     OW  700   1.023   2.628   2.828
  841SOL    HW1  701   1.038   2.649   2.924
  841SOL    HW2  702   0.993   2.533   2.819
  843SOL     OW  703   1.859   3.380   3.467
  843SOL    HW1  704   1.873   3.407   3.372
  843SOL    HW2  705   1.942   3.402   3.520
  845SOL     OW  706   1.540   2.136   1.987
  845SOL    HW1  707   1.479   2.061   2.010
  845SOL    HW2  708   1.562   2.188   2.070
  846SOL     OW  709   1.303   2.700   1.904
  846SOL    HW1  710   1.337   2.607   1.919
  846SOL    HW2  711   1.321   2.727   1.809
  847SOL     OW  712   1.068   3.195   2.711
  847SOL    HW1  713   1.075   3.111   2.656
  847SOL    HW2  714   1.130   3.264   2.675
  850SOL     OW  715   1.138   2.242   3.540
  850SOL    HW1  716   1.093   2.305   3.604
  850SOL    HW2  717   1.231   2.273   3.523
  851SOL     OW  718   1.160   2.069   3.339
  851SOL    HW1  719   1.160   2.133   3.416
  851SOL    HW2  720   1.188   2.117   3.256
  855SOL     OW  721   1.002   2.658   3.100
  855SOL    HW1  722   1.043   2.626   3.186
  855SOL    HW2  723   0.906   2.631   3.097
  858SOL     OW  724   1.369   2.812   3.522
  858SOL    HW1  725   1.408   2.901   3.542
  858SOL    HW2  726   1.379   2.792   3.425
  859SOL     OW  727   0.815   2.434   2.187
  859SOL    HW1  728   0.822   2.345   2.141
  859SOL    HW2  729   0.721   2.468   2.179
  860SOL     OW  730   1.657   2.466   3.068
  860SOL    HW1  731   1.619   2.397   3.130
  860SOL    HW2  732   1.739   2.430   3.024
  862SOL     OW  733   0.671   2.326   3.131
  862SOL    HW1  734   0.637   2.237   3.101
  862SOL    HW2  735   0.697   2.380   3.051
  864SOL     OW  736   0.473   2.362   2.053
  864SOL    HW1  737   0.534   2.442   2.057
  864SOL    HW2  738   0.378   2.393   2.060
  866SOL     OW  739   1.347   2.921   3.096
  866SOL    HW1  740   1.371   2.858   3.022
  866SOL    HW2  741   1.257   2.961   3.078
  867SOL     OW  742   1.302   2.717   2.171
  867SOL    HW1  743   1.216   2.686   2.213
  867SOL    HW2  744   1.298   2.703   2.072
  868SOL     OW  745   1.759   3.609   3.016
  868SOL    HW1  746   1.820   3.639   2.943
  868SOL    HW2  747   1.721   3.520   2.994
  872SOL     OW  748   1.726   1.997   2.385
  872SOL    HW1  749   1.799   1.980   2.318
  872SOL    HW2  750   1.695   1.910   2.423
  873SOL     OW  751   1.388   3.435   2.339
  873SOL    HW1  752   1.455   3.447   2.265
  873SOL    HW2  753   1.348   3.524   2.362
  875SOL     OW  754   1.280   2.789   2.534
  875SOL    HW1  755   1.340   2.708   2.536
  875SOL    HW2  756   1.320   2.858   2.474
  879SOL     OW  757   1.841   2.037   2.825
  879SOL    HW1  758   1.880   1.952   2.789
  879SOL    HW2  759   1.743   2.039   2.806
  881SOL     OW  760   1.194   3.474   1.893
  881SOL    HW1  761   1.200   3.381   1.930
  881SOL    HW2  762   1.135   3.474   1.813
  883SOL     OW  763   0.916   2.772   2.153
  883SOL    HW1  764   0.979   2.810   2.085
  883SOL    HW2  765   0.956   2.689   2.192
  884SOL     OW  766   1.504   3.469   1.906
  884SOL    HW1  767   1.412   3.506   1.913
  884SOL    HW2  768   1.542   3.489   1.816
  886SOL     OW  769   1.614   3.154   3.151
  886SOL    HW1  770   1.674   3.157   3.231
  886SOL    HW2  771   1.539   3.218   3.164
  887SOL     OW  772   1.039   2.960   2.558
  887SOL    HW1  773   0.969   2.913   2.612
  887SOL    HW2  774   1.098   2.892   2.515
  888SOL     OW  775   1.014   2.098   2.833
  888SOL    HW1  776   1.006   2.062   2.740
  888SOL    HW2  777   1.012   2.022   2.898
  890SOL     OW  778   1.709   2.247   3.243
  890SOL    HW1  779   1.782   2.316   3.247
  890SOL    HW2  780   1.737   2.172   3.184
  895SOL     OW  781   1.440   2.718   3.260
  895SOL    HW1  782   1.383   2.770   3.197
  895SOL    HW2  783   1.536   2.730   3.236
  897SOL     OW  784   1.183   3.197   1.981
  897SOL    HW1  785   1.084   3.186   1.983
  897SOL    HW2  786   1.217   3.212   2.074
  899SOL     OW  787   1.493   3.629   2.821
  899SOL    HW1  788   1.526   3.693   2.752
  899SOL    HW2  789   1.559   3.623   2.896
  901SOL     OW  790   1.450   3.082   3.495
  901SOL    HW1  791   1.441   3.072   3.594
  901SOL    HW2  792   1.546   3.075   3.469
  903SOL     OW  793   1.674   2.745   3.116
  903SOL    HW1  794   1.647   2.656   3.079
  903SOL    HW2  795   1.675   2.813   3.043
  904SOL     OW  796   1.225   2.187   2.311
  904SOL    HW1  797   1.290   2.113   2.300
  904SOL    HW2  798   1.245   2.237   2.395
  905SOL     OW  799   0.594   2.607   2.514
  905SOL    HW1  800   0.644   2.692   2.495
  905SOL    HW2  801   0.506   2.609   2.466
  906SOL     OW  802   1.777   2.204   3.504
  906SOL    HW1  803   1.760   2.235   3.410
  906SOL    HW2  804   1.693   2.167   3.542
  907SOL     OW  805   1.730   2.796   3.379
  907SOL    HW1  806   1.768   2.887   3.394
  907SOL    HW2  807   1.722   2.779   3.280
  908SOL     OW  808   0.859   3.236   1.878
  908SOL    HW1  809   0.813   3.251   1.966
  908SOL    HW2  810   0.903   3.321   1.848
  910SOL     OW  811   0.859   2.818   2.723
  910SOL    HW1  812   0.913   2.749   2.771
  910SOL    HW2  813   0.827   2.887   2.789
  911SOL     OW  814   1.083   2.846   1.949
  911SOL    HW1  815   1.060   2.899   1.867
  911SOL    HW2  816   1.164   2.790   1.930
  912SOL     OW  817   1.861   3.431   2.713
  912SOL    HW1  818   1.790   3.419   2.643
  912SOL    HW2  819   1.862   3.352   2.773
  916SOL     OW  820   1.824   2.054   3.089
  916SOL    HW1  821   1.820   1.964   3.133
  916SOL    HW2  822   1.827   2.043   2.990
  917SOL     OW  823   0.428   2.286   2.382
  917SOL    HW1  824   0.458   2.214   2.320
  917SOL    HW2  825   0.389   2.246   2.465
  918SOL     OW  826   1.705   3.349   2.966
  918SOL    HW1  827   1.612   3.324   2.939
  918SOL    HW2  828   1.731   3.299   3.048
  921SOL     OW  829   1.424   2.076   2.974
  921SOL    HW1  830   1.476   2.011   3.029
  921SOL    HW2  831   1.375   2.139   3.035
  922SOL     OW  832   1.001   1.896   3.016
  922SOL    HW1  833   0.938   1.824   2.985
  922SOL    HW2  834   1.094   1.860   3.016
  923SOL     OW  835   0.770   3.192   2.163
  923SOL    HW1  836   0.724   3.105   2.180
  923SOL    HW2  837   0.861   3.189   2.204
  925SOL     OW  838   1.352   1.914   2.030
  925SOL    HW1  839   1.387   1.873   1.946
  925SOL    HW2  840   1.262   1.876   2.050
  926SOL     OW  841   1.300   2.315   2.553
  926SOL    HW1  842   1.241   2.395   2.557
  926SOL    HW2  843   1.315   2.280   2.646
  927SOL     OW  844   1.593   2.083   2.744
  927SOL    HW1  845   1.509   2.082   2.798
  927SOL    HW2  846   1.595   2.166   2.688
  979SOL     OW  847   1.540   2.136   3.849
  979SOL    HW1  848   1.479   2.061   3.872
  979SOL    HW2  849   1.562   2.188   3.932
 1150SOL     OW  850   1.726   3.859   2.385
 1150SOL    HW1  851   1.799   3.842   2.318
 1150SOL    HW2  852   1.695   3.772   2.423
 1168SOL     OW  853   1.352   3.776   2.030
 1168SOL    HW1  854   1.387   3.735   1.946
 1168SOL    HW2  855   1.262   3.738   2.050
 1206SOL     OW  856   2.431   1.275   1.165
 1206SOL    HW1  857   2.338   1.268   1.128
 1206SOL    HW2  858   2.442   1.364   1.209
 1210SOL     OW  859   2.630   1.144   1.023
 1210SOL    HW1  860   2.552   1.161   1.083
 1210SOL    HW2  861   2.664   1.231   0.987
 1211SOL     OW  862   2.712   0.798   1.823
 1211SOL    HW1  863   2.708   0.874   1.888
 1211SOL    HW2  864   2.734   0.834   1.732
 1213SOL     OW  865   2.548   1.161   1.803
 1213SOL    HW1  866   2.608   1.240   1.817
 1213SOL    HW2  867   2.462   1.192   1.762
 1214SOL     OW  868   2.197   1.435   1.061
 1214SOL    HW1  869   2.119   1.404   1.008
 1214SOL    HW2  870   2.255   1.493   1.004
 1215SOL     OW  871   3.322   1.505   1.339
 1215SOL    HW1  872   3.346   1.599   1.365
 1215SOL    HW2  873   3.306   1.451   1.421
 1219SOL     OW  874   2.989   1.341   1.690
 1219SOL    HW1  875   3.036   1.341   1.778
 1219SOL    HW2  876   2.941   1.254   1.679
 1221SOL     OW  877   2.102   1.091   0.886
 1221SOL    HW1  878   2.116   1.007   0.938
 1221SOL    HW2  879   2.047   1.155   0.941
 1222SOL     OW  880   2.482   1.786   1.439
 1222SOL    HW1  881   2.390   1.769   1.474
 1222SOL    HW2  882   2.510   1.878   1.465
 1230SOL     OW  883   1.975   0.737   1.597
 1230SOL    HW1  884   2.063   0.724   1.642
 1230SOL    HW2  885   1.962   0.834   1.575
 1231SOL     OW  886   2.475   1.365   0.726
 1231SOL    HW1  887   2.426   1.278   0.735
 1231SOL    HW2  888   2.452   1.408   0.639
 1232SOL     OW  889   3.155   1.228   1.423
 1232SOL    HW1  890   3.192   1.155   1.365
 1232SOL    HW2  891   3.207   1.233   1.508
 1234SOL     OW  892   2.059   0.976   1.264
 1234SOL    HW1  893   2.148   0.931   1.250
 1234SOL    HW2  894   1.986   0.911   1.245
 1236SOL     OW  895   3.049   1.792   1.616
 1236SOL    HW1  896   3.073   1.852   1.540
 1236SOL    HW2  897   3.056   1.697   1.586
 1245SOL     OW  898   2.835   0.890   1.572
 1245SOL    HW1  899   2.881   0.806   1.543
 1245SOL    HW2  900   2.779   0.924   1.497
 1249SOL     OW  901   1.992   1.821   1.571
 1249SOL    HW1  902   1.982   1.806   1.670
 1249SOL    HW2  903   1.906   1.857   1.535
 1255SOL     OW  904   2.213   1.801   0.853
 1255SOL    HW1  905   2.263   1.715   0.859
 1255SOL    HW2  906   2.278   1.878   0.850
 1257SOL     OW  907   3.089   1.550   1.506
 1257SOL    HW1  908   3.095   1.473   1.570
 1257SOL    HW2  909   3.037   1.524   1.426
 1260SOL     OW  910   2.323   1.266   1.727
 1260SOL    HW1  911   2.273   1.267   1.641
 1260SOL    HW2  912   2.260   1.248   1.803
 1266SOL     OW  913   2.111   1.785   1.241
 1266SOL    HW1  914   2.168   1.720   1.291
 1266SOL    HW2  915   2.095   1.752   1.148
 1267SOL     OW  916   2.802   1.698   0.904
 1267SOL    HW1  917   2.882   1.641   0.925
 1267SOL    HW2  918   2.753   1.658   0.827
 1272SOL     OW  919   2.750   1.514   1.195
 1272SOL    HW1  920   2.727   1.489   1.101
 1272SOL    HW2  921   2.811   1.445   1.234
 1274SOL     OW  922   2.665   1.402   0.924
 1274SOL    HW1  923   2.755   1.416   0.882
 1274SOL    HW2  924   2.594   1.404   0.853
 1281SOL     OW  925   3.089   1.570   0.793
 1281SOL    HW1  926   3.110   1.644   0.728
 1281SOL    HW2  927   3.157   1.570   0.866
 1297SOL     OW  928   2.926   1.347   1.340
 1297SOL    HW1  929   2.846   1.324   1.395
 1297SOL    HW2  930   3.009   1.321   1.389
 1298SOL     OW  931   3.454   1.629   1.625
 1298SOL    HW1  932   3.481   1.663   1.535
 1298SOL    HW2  933   3.533   1.591   1.671
 1299SOL     OW  934   2.973   1.195   1.100
 1299SOL    HW1  935   2.933   1.239   1.181
 1299SOL    HW2  936   2.932   1.232   1.017
 1302SOL     OW  937   2.842   1.116   1.719
 1302SOL    HW1  938   2.743   1.122   1.729
 1302SOL    HW2  939   2.865   1.036   1.663
 1304SOL     OW  940   2.272   0.813   1.251
 1304SOL    HW1  941   2.358   0.825   1.301
 1304SOL    HW2  942   2.230   0.726   1.278
 1306SOL     OW  943   1.926   1.564   1.331
 1306SOL    HW1  944   1.880   1.646   1.297
 1306SOL    HW2  945   2.024   1.583   1.340
 1310SOL     OW  946   3.134   1.445   1.142
 1310SOL    HW1  947   3.181   1.458   1.229
 1310SOL    HW2  948   3.068   1.371   1.151
 1312SOL     OW  949   2.216   1.510   1.329
 1312SOL    HW1  950   2.195   1.466   1.242
 1312SOL    HW2  951   2.313   1.536   1.332
 1313SOL     OW  952   2.264   0.751   1.598
 1313SOL    HW1  953   2.332   0.806   1.551
 1313SOL    HW2  954   2.304   0.663   1.625
 1321SOL     OW  955   1.899   1.310   1.282
 1321SOL    HW1  956   1.952   1.261   1.350
 1321SOL    HW2  957   1.921   1.408   1.287
 1327SOL     OW  958   2.842   1.573   1.700
 1327SOL    HW1  959   2.822   1.617   1.612
 1327SOL    HW2  960   2.881   1.482   1.684
 1328SOL     OW  961   3.721   1.518   1.605
 1328SOL    HW1  962   3.735   1.545   1.510
 1328SOL    HW2  963   3.804   1.540   1.658
 1329SOL     OW  964   2.212   0.898   1.804
 1329SOL    HW1  965   2.288   0.942   1.852
 1329SOL    HW2  966   2.247   0.851   1.722
 1332SOL     OW  967   2.930   1.333   0.849
 1332SOL    HW1  968   2.937   1.249   0.794
 1332SOL    HW2  969   2.992   1.402   0.813
 1338SOL     OW  970   1.950   1.801   0.927
 1338SOL    HW1  971   1.908   1.715   0.900
 1338SOL    HW2  972   2.044   1.804   0.893
 1339SOL     OW  973   2.366   1.568   0.910
 1339SOL    HW1  974   2.432   1.642   0.919
 1339SOL    HW2  975   2.410   1.489   0.868
 1342SOL     OW  976   2.051   0.520   1.722
 1342SOL    HW1  977   2.110   0.480   1.652
 1342SOL    HW2  978   1.993   0.591   1.681
 1343SOL     OW  979   3.231   0.950   1.660
 1343SOL    HW1  980   3.270   1.039   1.680
 1343SOL    HW2  981   3.241   0.930   1.563
 1346SOL     OW  982   2.114   1.564   1.744
 1346SOL    HW1  983   2.084   1.621   1.820
 1346SOL    HW2  984   2.107   1.467   1.770
 1348SOL     OW  985   2.792   1.678   1.465
 1348SOL    HW1  986   2.768   1.660   1.370
 1348SOL    HW2  987   2.822   1.772   1.475
 1350SOL     OW  988   2.021   1.137   1.466
 1350SOL    HW1  989   2.043   1.076   1.542
 1350SOL    HW2  990   2.031   1.088   1.380
 1354SOL     OW  991   3.114   1.731   1.128
 1354SOL    HW1  992   3.198   1.736   1.074
 1354SOL    HW2  993   3.091   1.635   1.146
 1355SOL     OW  994   1.945   1.258   1.022
 1355SOL    HW1  995   1.940   1.257   1.122
 1355SOL    HW2  996   1.862   1.217   0.984
 1356SOL     OW  997   2.550   1.662   1.716
 1356SOL    HW1  998   2.494   1.743   1.725
 1356SOL    HW2  999   2.602   1.666   1.630
 1360SOL     OW 1000   1.992   1.794   1.851
 1360SOL    HW1 1001   1.951   1.720   1.904
 1360SOL    HW2 1002   2.056   1.845   1.909
 1362SOL     OW 1003   2.692   1.273   1.422
 1362SOL    HW1 1004   2.687   1.306   1.517
 1362SOL    HW2 1005   2.606   1.292   1.376
 1364SOL     OW 1006   3.512   1.720   1.394
 1364SOL    HW1 1007   3.565   1.730   1.310
 1364SOL    HW2 1008   3.485   1.810   1.428
 1368SOL     OW 1009   2.684   1.002   1.372
 1368SOL    HW1 1010   2.724   1.001   1.280
 1368SOL    HW2 1011   2.694   1.094   1.412
 1371SOL     OW 1012   2.234   1.288   1.490
 1371SOL    HW1 1013   2.221   1.381   1.456
 1371SOL    HW2 1014   2.150   1.236   1.477
 1378SOL     OW 1015   1.967   1.013   1.726
 1378SOL    HW1 1016   1.890   0.980   1.780
 1378SOL    HW2 1017   2.052   0.983   1.768
 1383SOL     OW 1018   2.475   0.842   1.431
 1383SOL    HW1 1019   2.531   0.923   1.414
 1383SOL    HW2 1020   2.534   0.762   1.434
 1384SOL     OW 1021   3.355   1.767   0.959
 1384SOL    HW1 1022   3.388   1.831   0.890
 1384SOL    HW2 1023   3.421   1.761   1.034
 1385SOL     OW 1024   2.578   0.565   1.708
 1385SOL    HW1 1025   2.597   0.630   1.782
 1385SOL    HW2 1026   2.638   0.485   1.717
 1386SOL     OW 1027   3.312   1.220   1.633
 1386SOL    HW1 1028   3.303   1.210   1.732
 1386SOL    HW2 1029   3.408   1.213   1.607
 1387SOL     OW 1030   2.252   1.741   1.560
 1387SOL    HW1 1031   2.161   1.782   1.558
 1387SOL    HW2 1032   2.245   1.647   1.592
 1394SOL     OW 1033   2.523   1.790   0.953
 1394SOL    HW1 1034   2.477   1.878   0.940
 1394SOL    HW2 1035   2.622   1.802   0.946
 1398SOL     OW 1036   2.083   1.314   1.844
 1398SOL    HW1 1037   2.018   1.241   1.823
 1398SOL    HW2 1038   2.087   1.328   1.942
 1400SOL     OW 1039   2.534   1.391   1.624
 1400SOL    HW1 1040   2.456   1.341   1.662
 1400SOL    HW2 1041   2.531   1.486   1.655
 1405SOL     OW 1042   2.674   1.586   0.687
 1405SOL    HW1 1043   2.706   1.596   0.593
 1405SOL    HW2 1044   2.595   1.524   0.689
 1409SOL     OW 1045   2.480   1.567   1.284
 1409SOL    HW1 1046   2.475   1.649   1.341
 1409SOL    HW2 1047   2.569   1.564   1.239
 1415SOL     OW 1048   2.092   0.628   1.975
 1415SOL    HW1 1049   1.999   0.626   2.012
 1415SOL    HW2 1050   2.093   0.589   1.883
 1418SOL     OW 1051   2.431   1.275   3.027
 1418SOL    HW1 1052   2.338   1.268   2.990
 1418SOL    HW2 1053   2.442   1.364   3.071
 1419SOL     OW 1054   3.417   1.511   2.565
 1419SOL    HW1 1055   3.360   1.495   2.646
 1419SOL    HW2 1056   3.358   1.521   2.485
 1420SOL     OW 1057   2.997   0.703   2.579
 1420SOL    HW1 1058   3.054   0.781   2.554
 1420SOL    HW2 1059   2.937   0.729   2.655
 1422SOL     OW 1060   2.630   1.144   2.885
 1422SOL    HW1 1061   2.552   1.161   2.945
 1422SOL    HW2 1062   2.664   1.231   2.849
 1424SOL     OW 1063   2.547   1.012   2.527
 1424SOL    HW1 1064   2.616   0.996   2.597
 1424SOL    HW2 1065   2.474   1.069   2.565
 1426SOL     OW 1066   2.197   1.435   2.923
 1426SOL    HW1 1067   2.119   1.404   2.870
 1426SOL    HW2 1068   2.255   1.493   2.866
 1427SOL     OW 1069   3.322   1.505   3.201
 1427SOL    HW1 1070   3.346   1.599   3.227
 1427SOL    HW2 1071   3.306   1.451   3.283
 1430SOL     OW 1072   2.093   1.713   2.345
 1430SOL    HW1 1073   2.127   1.790   2.399
 1430SOL    HW2 1074   2.137   1.713   2.255
 1431SOL     OW 1075   2.989   1.341   3.552
 1431SOL    HW1 1076   3.036   1.341   3.640
 1431SOL    HW2 1077   2.941   1.254   3.541
 1432SOL     OW 1078   2.092   1.434   2.400
 1432SOL    HW1 1079   2.066   1.530   2.400
 1432SOL    HW2 1080   2.021   1.380   2.445
 1433SOL     OW 1081   2.102   1.091   2.748
 1433SOL    HW1 1082   2.116   1.007   2.800
 1433SOL    HW2 1083   2.047   1.155   2.803
 1434SOL     OW 1084   2.482   1.786   3.301
 1434SOL    HW1 1085   2.390   1.769   3.336
 1434SOL    HW2 1086   2.510   1.878   3.327
 1435SOL     OW 1087   2.468   0.964   1.985
 1435SOL    HW1 1088   2.475   1.048   1.931
 1435SOL    HW2 1089   2.514   0.977   2.073
 1437SOL     OW 1090   1.984   0.643   2.425
 1437SOL    HW1 1091   1.939   0.555   2.442
 1437SOL    HW2 1092   1.983   0.697   2.509
 1438SOL     OW 1093   3.704   1.767   2.221
 1438SOL    HW1 1094   3.758   1.738   2.301
 1438SOL    HW2 1095   3.734   1.857   2.192
 1439SOL     OW 1096   1.889   1.596   1.979
 1439SOL    HW1 1097   1.870   1.500   2.000
 1439SOL    HW2 1098   1.856   1.654   2.054
 1441SOL     OW 1099   3.503   1.108   2.294
 1441SOL    HW1 1100   3.589   1.110   2.242
 1441SOL    HW2 1101   3.517   1.155   2.382
 1443SOL     OW 1102   2.475   1.365   2.588
 1443SOL    HW1 1103   2.426   1.278   2.597
 1443SOL    HW2 1104   2.452   1.408   2.501
 1444SOL     OW 1105   3.155   1.228   3.285
 1444SOL    HW1 1106   3.192   1.155   3.227
 1444SOL    HW2 1107   3.207   1.233   3.370
 1446SOL     OW 1108   2.059   0.976   3.126
 1446SOL    HW1 1109   2.148   0.931   3.112
 1446SOL    HW2 1110   1.986   0.911   3.107
 1447SOL     OW 1111   3.387   0.999   2.052
 1447SOL    HW1 1112   3.324   0.923   2.065
 1447SOL    HW2 1113   3.435   1.017   2.138
 1448SOL     OW 1114   3.049   1.792   3.478
 1448SOL    HW1 1115   3.073   1.852   3.402
 1448SOL    HW2 1116   3.056   1.697   3.448
 1450SOL     OW 1117   3.328   1.417   2.815
 1450SOL    HW1 1118   3.269   1.423   2.895
 1450SOL    HW2 1119   3.313   1.329   2.769
 1451SOL     OW 1120   3.529   1.714   2.434
 1451SOL    HW1 1121   3.488   1.691   2.346
 1451SOL    HW2 1122   3.511   1.640   2.499
 1452SOL     OW 1123   2.460   0.729   2.132
 1452SOL    HW1 1124   2.484   0.798   2.064
 1452SOL    HW2 1125   2.382   0.762   2.186
 1454SOL     OW 1126   3.438   1.662   2.169
 1454SOL    HW1 1127   3.527   1.708   2.172
 1454SOL    HW2 1128   3.417   1.638   2.074
 1459SOL     OW 1129   2.903   0.701   2.291
 1459SOL    HW1 1130   2.929   0.697   2.387
 1459SOL    HW2 1131   2.818   0.650   2.277
 1460SOL     OW 1132   1.938   0.811   2.651
 1460SOL    HW1 1133   2.037   0.799   2.660
 1460SOL    HW2 1134   1.914   0.906   2.672
 1461SOL     OW 1135   1.992   1.821   3.433
 1461SOL    HW1 1136   1.982   1.806   3.532
 1461SOL    HW2 1137   1.906   1.857   3.397
 1464SOL     OW 1138   3.224   1.144   2.407
 1464SOL    HW1 1139   3.307   1.115   2.359
 1464SOL    HW2 1140   3.175   1.211   2.351
 1466SOL     OW 1141   2.870   1.456   2.339
 1466SOL    HW1 1142   2.824   1.528   2.287
 1466SOL    HW2 1143   2.866   1.476   2.437
 1467SOL     OW 1144   2.213   1.801   2.715
 1467SOL    HW1 1145   2.263   1.715   2.721
 1467SOL    HW2 1146   2.278   1.878   2.712
 1469SOL     OW 1147   3.089   1.550   3.368
 1469SOL    HW1 1148   3.095   1.473   3.432
 1469SOL    HW2 1149   3.037   1.524   3.288
 1470SOL     OW 1150   2.183   0.943   2.104
 1470SOL    HW1 1151   2.265   0.982   2.062
 1470SOL    HW2 1152   2.156   0.861   2.055
 1472SOL     OW 1153   2.323   1.266   3.589
 1472SOL    HW1 1154   2.273   1.267   3.503
 1472SOL    HW2 1155   2.260   1.248   3.665
 1473SOL     OW 1156   2.973   1.776   2.099
 1473SOL    HW1 1157   2.913   1.714   2.149
 1473SOL    HW2 1158   3.004   1.732   2.014
 1475SOL     OW 1159   3.494   1.377   1.943
 1475SOL    HW1 1160   3.462   1.471   1.933
 1475SOL    HW2 1161   3.418   1.314   1.931
 1476SOL     OW 1162   2.326   1.743   2.185
 1476SOL    HW1 1163   2.359   1.782   2.271
 1476SOL    HW2 1164   2.402   1.736   2.120
 1478SOL     OW 1165   2.111   1.785   3.103
 1478SOL    HW1 1166   2.168   1.720   3.153
 1478SOL    HW2 1167   2.095   1.752   3.010
 1479SOL     OW 1168   2.802   1.698   2.766
 1479SOL    HW1 1169   2.882   1.641   2.787
 1479SOL    HW2 1170   2.753   1.658   2.689
 1480SOL     OW 1171   2.244   0.700   2.342
 1480SOL    HW1 1172   2.289   0.610   2.339
 1480SOL    HW2 1173   2.150   0.689   2.375
 1484SOL     OW 1174   2.750   1.514   3.057
 1484SOL    HW1 1175   2.727   1.489   2.963
 1484SOL    HW2 1176   2.811   1.445   3.096
 1486SOL     OW 1177   2.665   1.402   2.786
 1486SOL    HW1 1178   2.755   1.416   2.744
 1486SOL    HW2 1179   2.594   1.404   2.715
 1489SOL     OW 1180   3.296   1.188   1.903
 1489SOL    HW1 1181   3.328   1.112   1.960
 1489SOL    HW2 1182   3.204   1.215   1.933
 1493SOL     OW 1183   3.089   1.570   2.655
 1493SOL    HW1 1184   3.110   1.644   2.590
 1493SOL    HW2 1185   3.157   1.570   2.728
 1494SOL     OW 1186   2.321   1.152   2.603
 1494SOL    HW1 1187   2.250   1.125   2.668
 1494SOL    HW2 1188   2.295   1.124   2.510
 1495SOL     OW 1189   3.133   1.797   2.453
 1495SOL    HW1 1190   3.177   1.861   2.389
 1495SOL    HW2 1191   3.083   1.849   2.523
 1501SOL     OW 1192   3.291   1.173   2.729
 1501SOL    HW1 1193   3.236   1.089   2.722
 1501SOL    HW2 1194   3.317   1.202   2.637
 1504SOL     OW 1195   2.350   1.385   2.036
 1504SOL    HW1 1196   2.263   1.370   2.083
 1504SOL    HW2 1197   2.333   1.411   1.941
 1505SOL     OW 1198   3.526   1.280   2.519
 1505SOL    HW1 1199   3.625   1.288   2.533
 1505SOL    HW2 1200   3.481   1.364   2.550
 1509SOL     OW 1201   2.926   1.347   3.202
 1509SOL    HW1 1202   2.846   1.324   3.257
 1509SOL    HW2 1203   3.009   1.321   3.251
 1511SOL     OW 1204   2.973   1.195   2.962
 1511SOL    HW1 1205   2.933   1.239   3.043
 1511SOL    HW2 1206   2.932   1.232   2.879
 1515SOL     OW 1207   2.567   1.050   2.230
 1515SOL    HW1 1208   2.553   1.057   2.329
 1515SOL    HW2 1209   2.651   0.999   2.212
 1516SOL     OW 1210   2.272   0.813   3.113
 1516SOL    HW1 1211   2.358   0.825   3.163
 1516SOL    HW2 1212   2.230   0.726   3.140
 1518SOL     OW 1213   1.926   1.564   3.193
 1518SOL    HW1 1214   1.880   1.646   3.159
 1518SOL    HW2 1215   2.024   1.583   3.202
 1519SOL     OW 1216   2.229   1.100   2.363
 1519SOL    HW1 1217   2.222   1.183   2.307
 1519SOL    HW2 1218   2.233   1.020   2.303
 1520SOL     OW 1219   2.428   0.537   2.727
 1520SOL    HW1 1220   2.440   0.603   2.653
 1520SOL    HW2 1221   2.474   0.571   2.810
 1521SOL     OW 1222   3.114   1.348   2.250
 1521SOL    HW1 1223   3.164   1.425   2.290
 1521SOL    HW2 1224   3.019   1.350   2.282
 1522SOL     OW 1225   3.134   1.445   3.004
 1522SOL    HW1 1226   3.181   1.458   3.091
 1522SOL    HW2 1227   3.068   1.371   3.013
 1524SOL     OW 1228   2.216   1.510   3.191
 1524SOL    HW1 1229   2.195   1.466   3.104
 1524SOL    HW2 1230   2.313   1.536   3.194
 1529SOL     OW 1231   2.435   0.870   2.891
 1529SOL    HW1 1232   2.479   0.959   2.882
 1529SOL    HW2 1233   2.372   0.870   2.968
 1533SOL     OW 1234   1.899   1.310   3.144
 1533SOL    HW1 1235   1.952   1.261   3.212
 1533SOL    HW2 1236   1.921   1.408   3.149
 1534SOL     OW 1237   2.594   0.634   2.926
 1534SOL    HW1 1238   2.653   0.608   2.850
 1534SOL    HW2 1239   2.566   0.730   2.915
 1538SOL     OW 1240   2.885   0.766   2.828
 1538SOL    HW1 1241   2.900   0.787   2.924
 1538SOL    HW2 1242   2.855   0.671   2.819
 1539SOL     OW 1243   2.842   1.573   3.562
 1539SOL    HW1 1244   2.822   1.617   3.474
 1539SOL    HW2 1245   2.881   1.482   3.546
 1543SOL     OW 1246   3.165   0.838   1.904
 1543SOL    HW1 1247   3.199   0.745   1.919
 1543SOL    HW2 1248   3.183   0.865   1.809
 1544SOL     OW 1249   2.930   1.333   2.711
 1544SOL    HW1 1250   2.937   1.249   2.656
 1544SOL    HW2 1251   2.992   1.402   2.675
 1545SOL     OW 1252   2.181   0.810   2.811
 1545SOL    HW1 1253   2.274   0.846   2.816
 1545SOL    HW2 1254   2.175   0.725   2.863
 1549SOL     OW 1255   1.870   1.326   2.062
 1549SOL    HW1 1256   1.777   1.347   2.031
 1549SOL    HW2 1257   1.880   1.227   2.075
 1550SOL     OW 1258   1.950   1.801   2.789
 1550SOL    HW1 1259   1.908   1.715   2.762
 1550SOL    HW2 1260   2.044   1.804   2.755
 1551SOL     OW 1261   2.366   1.568   2.772
 1551SOL    HW1 1262   2.432   1.642   2.781
 1551SOL    HW2 1263   2.410   1.489   2.730
 1552SOL     OW 1264   2.864   0.796   3.100
 1552SOL    HW1 1265   2.905   0.764   3.186
 1552SOL    HW2 1266   2.768   0.769   3.097
 1556SOL     OW 1267   2.677   0.572   2.187
 1556SOL    HW1 1268   2.684   0.483   2.141
 1556SOL    HW2 1269   2.583   0.606   2.179
 1558SOL     OW 1270   2.114   1.564   3.606
 1558SOL    HW1 1271   2.084   1.621   3.682
 1558SOL    HW2 1272   2.107   1.467   3.632
 1560SOL     OW 1273   2.792   1.678   3.327
 1560SOL    HW1 1274   2.768   1.660   3.232
 1560SOL    HW2 1275   2.822   1.772   3.337
 1561SOL     OW 1276   2.335   0.500   2.053
 1561SOL    HW1 1277   2.396   0.580   2.057
 1561SOL    HW2 1278   2.240   0.531   2.060
 1562SOL     OW 1279   2.021   1.137   3.328
 1562SOL    HW1 1280   2.043   1.076   3.404
 1562SOL    HW2 1281   2.031   1.088   3.242
 1563SOL     OW 1282   3.209   1.059   3.096
 1563SOL    HW1 1283   3.233   0.996   3.022
 1563SOL    HW2 1284   3.119   1.099   3.078
 1564SOL     OW 1285   3.164   0.855   2.171
 1564SOL    HW1 1286   3.078   0.824   2.213
 1564SOL    HW2 1287   3.160   0.841   2.072
 1565SOL     OW 1288   3.621   1.747   3.016
 1565SOL    HW1 1289   3.682   1.777   2.943
 1565SOL    HW2 1290   3.583   1.658   2.994
 1566SOL     OW 1291   3.114   1.731   2.990
 1566SOL    HW1 1292   3.198   1.736   2.936
 1566SOL    HW2 1293   3.091   1.635   3.008
 1567SOL     OW 1294   1.945   1.258   2.884
 1567SOL    HW1 1295   1.940   1.257   2.984
 1567SOL    HW2 1296   1.862   1.217   2.846
 1568SOL     OW 1297   2.550   1.662   3.578
 1568SOL    HW1 1298   2.494   1.743   3.587
 1568SOL    HW2 1299   2.602   1.666   3.492
 1570SOL     OW 1300   3.250   1.573   2.339
 1570SOL    HW1 1301   3.317   1.585   2.265
 1570SOL    HW2 1302   3.210   1.662   2.362
 1571SOL     OW 1303   1.992   1.794   3.713
 1571SOL    HW1 1304   1.951   1.720   3.766
 1571SOL    HW2 1305   2.056   1.845   3.771
 1572SOL     OW 1306   3.142   0.927   2.534
 1572SOL    HW1 1307   3.202   0.846   2.536
 1572SOL    HW2 1308   3.182   0.996   2.474
 1573SOL     OW 1309   2.692   1.273   3.284
 1573SOL    HW1 1310   2.687   1.306   3.379
 1573SOL    HW2 1311   2.606   1.292   3.238
 1574SOL     OW 1312   2.534   1.616   2.016
 1574SOL    HW1 1313   2.543   1.626   1.917
 1574SOL    HW2 1314   2.494   1.527   2.037
 1575SOL     OW 1315   3.512   1.720   3.256
 1575SOL    HW1 1316   3.565   1.730   3.172
 1575SOL    HW2 1317   3.485   1.810   3.290
 1578SOL     OW 1318   3.056   1.612   1.893
 1578SOL    HW1 1319   3.062   1.519   1.930
 1578SOL    HW2 1320   2.997   1.612   1.813
 1579SOL     OW 1321   2.684   1.002   3.234
 1579SOL    HW1 1322   2.724   1.001   3.142
 1579SOL    HW2 1323   2.694   1.094   3.274
 1580SOL     OW 1324   2.778   0.910   2.153
 1580SOL    HW1 1325   2.841   0.948   2.085
 1580SOL    HW2 1326   2.818   0.827   2.192
 1581SOL     OW 1327   3.366   1.607   1.906
 1581SOL    HW1 1328   3.274   1.644   1.913
 1581SOL    HW2 1329   3.404   1.627   1.816
 1582SOL     OW 1330   2.234   1.288   3.352
 1582SOL    HW1 1331   2.221   1.381   3.318
 1582SOL    HW2 1332   2.150   1.236   3.339
 1584SOL     OW 1333   2.901   1.098   2.558
 1584SOL    HW1 1334   2.831   1.051   2.612
 1584SOL    HW2 1335   2.960   1.030   2.515
 1586SOL     OW 1336   2.452   1.487   2.353
 1586SOL    HW1 1337   2.494   1.429   2.283
 1586SOL    HW2 1338   2.408   1.566   2.309
 1588SOL     OW 1339   2.117   1.348   2.152
 1588SOL    HW1 1340   2.021   1.349   2.125
 1588SOL    HW2 1341   2.129   1.401   2.236
 1594SOL     OW 1342   3.045   1.335   1.981
 1594SOL    HW1 1343   2.946   1.324   1.983
 1594SOL    HW2 1344   3.079   1.350   2.074
 1595SOL     OW 1345   2.475   0.842   3.293
 1595SOL    HW1 1346   2.531   0.923   3.276
 1595SOL    HW2 1347   2.534   0.762   3.296
 1596SOL     OW 1348   3.355   1.767   2.821
 1596SOL    HW1 1349   3.388   1.831   2.752
 1596SOL    HW2 1350   3.421   1.761   2.896
 1599SOL     OW 1351   2.252   1.741   3.422
 1599SOL    HW1 1352   2.161   1.782   3.420
 1599SOL    HW2 1353   2.245   1.647   3.454
 1602SOL     OW 1354   2.456   0.745   2.514
 1602SOL    HW1 1355   2.506   0.830   2.495
 1602SOL    HW2 1356   2.368   0.747   2.466
 1605SOL     OW 1357   2.721   1.374   1.878
 1605SOL    HW1 1358   2.675   1.389   1.966
 1605SOL    HW2 1359   2.765   1.459   1.848
 1606SOL     OW 1360   2.523   1.790   2.815
 1606SOL    HW1 1361   2.477   1.878   2.802
 1606SOL    HW2 1362   2.622   1.802   2.808
 1607SOL     OW 1363   2.721   0.956   2.723
 1607SOL    HW1 1364   2.775   0.887   2.771
 1607SOL    HW2 1365   2.689   1.025   2.789
 1608SOL     OW 1366   2.945   0.984   1.949
 1608SOL    HW1 1367   2.922   1.037   1.867
 1608SOL    HW2 1368   3.026   0.928   1.930
 1609SOL     OW 1369   3.723   1.569   2.713
 1609SOL    HW1 1370   3.652   1.557   2.643
 1609SOL    HW2 1371   3.724   1.490   2.773
 1610SOL     OW 1372   2.083   1.314   3.706
 1610SOL    HW1 1373   2.018   1.241   3.685
 1610SOL    HW2 1374   2.087   1.328   3.804
 1611SOL     OW 1375   1.941   1.240   2.515
 1611SOL    HW1 1376   1.940   1.193   2.603
 1611SOL    HW2 1377   2.023   1.212   2.464
 1612SOL     OW 1378   2.534   1.391   3.486
 1612SOL    HW1 1379   2.456   1.341   3.524
 1612SOL    HW2 1380   2.531   1.486   3.517
 1615SOL     OW 1381   3.567   1.487   2.966
 1615SOL    HW1 1382   3.474   1.462   2.939
 1615SOL    HW2 1383   3.593   1.437   3.048
 1617SOL     OW 1384   2.674   1.586   2.549
 1617SOL    HW1 1385   2.706   1.596   2.455
 1617SOL    HW2 1386   2.595   1.524   2.551
 1620SOL     OW 1387   2.632   1.330   2.163
 1620SOL    HW1 1388   2.586   1.243   2.180
 1620SOL    HW2 1389   2.723   1.327   2.204
 1621SOL     OW 1390   2.480   1.567   3.146
 1621SOL    HW1 1391   2.475   1.649   3.203
 1621SOL    HW2 1392   2.569   1.564   3.101
 1625SOL     OW 1393   1.901   1.077   2.162
 1625SOL    HW1 1394   2.000   1.066   2.153
 1625SOL    HW2 1395   1.861   0.991   2.194
 1626SOL     OW 1396   2.737   1.646   2.199
 1626SOL    HW1 1397   2.660   1.611   2.145
 1626SOL    HW2 1398   2.705   1.717   2.261
 1634SOL     OW 1399   1.889   1.596   3.841
 1634SOL    HW1 1400   1.870   1.500   3.862
 1634SOL    HW2 1401   1.856   1.654   3.916
 1684SOL     OW 1402   2.534   1.616   3.878
 1684SOL    HW1 1403   2.543   1.626   3.779
 1684SOL    HW2 1404   2.494   1.527   3.899
 1707SOL     OW 1405   2.087   2.137   0.996
 1707SOL    HW1 1406   2.122   2.120   1.088
 1707SOL    HW2 1407   1.999   2.092   0.984
 1708SOL     OW 1408   1.881   2.230   0.647
 1708SOL    HW1 1409   1.799   2.273   0.686
 1708SOL    HW2 1410   1.853   2.157   0.584
 1709SOL     OW 1411   2.431   3.137   1.165
 1709SOL    HW1 1412   2.338   3.130   1.128
 1709SOL    HW2 1413   2.442   3.226   1.209
 1711SOL     OW 1414   2.997   2.565   0.717
 1711SOL    HW1 1415   3.054   2.643   0.692
 1711SOL    HW2 1416   2.937   2.591   0.793
 1713SOL     OW 1417   2.630   3.006   1.023
 1713SOL    HW1 1418   2.552   3.023   1.083
 1713SOL    HW2 1419   2.664   3.093   0.987
 1714SOL     OW 1420   2.712   2.660   1.823
 1714SOL    HW1 1421   2.708   2.736   1.888
 1714SOL    HW2 1422   2.734   2.696   1.732
 1715SOL     OW 1423   2.547   2.874   0.665
 1715SOL    HW1 1424   2.616   2.858   0.735
 1715SOL    HW2 1425   2.474   2.931   0.703
 1716SOL     OW 1426   2.548   3.023   1.803
 1716SOL    HW1 1427   2.608   3.102   1.817
 1716SOL    HW2 1428   2.462   3.054   1.762
 1717SOL     OW 1429   2.197   3.297   1.061
 1717SOL    HW1 1430   2.119   3.266   1.008
 1717SOL    HW2 1431   2.255   3.355   1.004
 1719SOL     OW 1432   2.300   2.254   1.499
 1719SOL    HW1 1433   2.382   2.198   1.508
 1719SOL    HW2 1434   2.219   2.196   1.503
 1722SOL     OW 1435   2.989   3.203   1.690
 1722SOL    HW1 1436   3.036   3.203   1.778
 1722SOL    HW2 1437   2.941   3.116   1.679
 1724SOL     OW 1438   2.102   2.953   0.886
 1724SOL    HW1 1439   2.116   2.869   0.938
 1724SOL    HW2 1440   2.047   3.017   0.941
 1725SOL     OW 1441   2.482   3.648   1.439
 1725SOL    HW1 1442   2.390   3.631   1.474
 1725SOL    HW2 1443   2.510   3.740   1.465
 1727SOL     OW 1444   3.456   1.976   1.480
 1727SOL    HW1 1445   3.438   2.043   1.408
 1727SOL    HW2 1446   3.453   2.022   1.569
 1728SOL     OW 1447   1.984   2.505   0.563
 1728SOL    HW1 1448   1.939   2.417   0.580
 1728SOL    HW2 1449   1.983   2.559   0.647
 1733SOL     OW 1450   1.975   2.599   1.597
 1733SOL    HW1 1451   2.063   2.586   1.642
 1733SOL    HW2 1452   1.962   2.696   1.575
 1735SOL     OW 1453   3.155   3.090   1.423
 1735SOL    HW1 1454   3.192   3.017   1.365
 1735SOL    HW2 1455   3.207   3.095   1.508
 1737SOL     OW 1456   2.059   2.838   1.264
 1737SOL    HW1 1457   2.148   2.793   1.250
 1737SOL    HW2 1458   1.986   2.773   1.245
 1739SOL     OW 1459   3.049   3.654   1.616
 1739SOL    HW1 1460   3.073   3.714   1.540
 1739SOL    HW2 1461   3.056   3.559   1.586
 1740SOL     OW 1462   2.179   2.113   1.801
 1740SOL    HW1 1463   2.250   2.184   1.807
 1740SOL    HW2 1464   2.091   2.152   1.829
 1744SOL     OW 1465   3.143   2.207   0.944
 1744SOL    HW1 1466   3.057   2.157   0.931
 1744SOL    HW2 1467   3.205   2.153   1.000
 1746SOL     OW 1468   2.669   2.467   1.465
 1746SOL    HW1 1469   2.622   2.464   1.554
 1746SOL    HW2 1470   2.618   2.412   1.399
 1747SOL     OW 1471   3.256   2.331   1.674
 1747SOL    HW1 1472   3.236   2.374   1.762
 1747SOL    HW2 1473   3.334   2.269   1.683
 1748SOL     OW 1474   2.835   2.752   1.572
 1748SOL    HW1 1475   2.881   2.668   1.543
 1748SOL    HW2 1476   2.779   2.786   1.497
 1749SOL     OW 1477   2.853   2.272   1.242
 1749SOL    HW1 1478   2.776   2.306   1.296
 1749SOL    HW2 1479   2.819   2.221   1.163
 1751SOL     OW 1480   1.938   2.673   0.789
 1751SOL    HW1 1481   2.037   2.661   0.798
 1751SOL    HW2 1482   1.914   2.768   0.810
 1752SOL     OW 1483   1.992   3.683   1.571
 1752SOL    HW1 1484   1.982   3.668   1.670
 1752SOL    HW2 1485   1.906   3.719   1.535
 1754SOL     OW 1486   3.581   2.447   1.831
 1754SOL    HW1 1487   3.555   2.536   1.795
 1754SOL    HW2 1488   3.579   2.379   1.758
 1756SOL     OW 1489   2.412   2.058   0.885
 1756SOL    HW1 1490   2.407   2.053   0.985
 1756SOL    HW2 1491   2.414   2.154   0.856
 1760SOL     OW 1492   3.089   3.412   1.506
 1760SOL    HW1 1493   3.095   3.335   1.570
 1760SOL    HW2 1494   3.037   3.386   1.426
 1763SOL     OW 1495   2.323   3.128   1.727
 1763SOL    HW1 1496   2.273   3.129   1.641
 1763SOL    HW2 1497   2.260   3.110   1.803
 1765SOL     OW 1498   2.064   2.147   1.498
 1765SOL    HW1 1499   1.984   2.207   1.485
 1765SOL    HW2 1500   2.054   2.098   1.584
 1769SOL     OW 1501   2.111   3.647   1.241
 1769SOL    HW1 1502   2.168   3.582   1.291
 1769SOL    HW2 1503   2.095   3.614   1.148
 1771SOL     OW 1504   2.244   2.562   0.480
 1771SOL    HW1 1505   2.289   2.472   0.477
 1771SOL    HW2 1506   2.150   2.551   0.513
 1772SOL     OW 1507   3.409   2.084   1.729
 1772SOL    HW1 1508   3.404   2.121   1.821
 1772SOL    HW2 1509   3.337   2.015   1.717
 1774SOL     OW 1510   2.643   2.126   1.749
 1774SOL    HW1 1511   2.710   2.065   1.792
 1774SOL    HW2 1512   2.570   2.145   1.814
 1775SOL     OW 1513   2.750   3.376   1.195
 1775SOL    HW1 1514   2.727   3.351   1.101
 1775SOL    HW2 1515   2.811   3.307   1.234
 1776SOL     OW 1516   3.213   2.452   1.433
 1776SOL    HW1 1517   3.241   2.409   1.518
 1776SOL    HW2 1518   3.238   2.548   1.434
 1777SOL     OW 1519   2.665   3.264   0.924
 1777SOL    HW1 1520   2.755   3.278   0.882
 1777SOL    HW2 1521   2.594   3.266   0.853
 1778SOL     OW 1522   2.784   2.365   0.899
 1778SOL    HW1 1523   2.759   2.356   0.803
 1778SOL    HW2 1524   2.832   2.283   0.930
 1779SOL     OW 1525   2.401   1.926   0.512
 1779SOL    HW1 1526   2.320   1.927   0.570
 1779SOL    HW2 1527   2.404   2.009   0.457
 1782SOL     OW 1528   2.938   2.545   1.464
 1782SOL    HW1 1529   2.858   2.484   1.467
 1782SOL    HW2 1530   3.019   2.492   1.440
 1784SOL     OW 1531   2.321   3.014   0.741
 1784SOL    HW1 1532   2.250   2.987   0.806
 1784SOL    HW2 1533   2.295   2.986   0.648
 1787SOL     OW 1534   1.940   2.418   1.386
 1787SOL    HW1 1535   2.032   2.417   1.345
 1787SOL    HW2 1536   1.934   2.492   1.453
 1788SOL     OW 1537   2.423   2.084   1.147
 1788SOL    HW1 1538   2.461   2.000   1.184
 1788SOL    HW2 1539   2.335   2.103   1.191
 1789SOL     OW 1540   2.728   2.316   0.642
 1789SOL    HW1 1541   2.696   2.388   0.580
 1789SOL    HW2 1542   2.752   2.235   0.589
 1790SOL     OW 1543   2.879   1.901   0.753
 1790SOL    HW1 1544   2.807   1.906   0.684
 1790SOL    HW2 1545   2.855   1.832   0.822
 1792SOL     OW 1546   3.328   2.452   0.992
 1792SOL    HW1 1547   3.298   2.357   0.999
 1792SOL    HW2 1548   3.401   2.468   1.058
 1798SOL     OW 1549   3.616   3.085   1.588
 1798SOL    HW1 1550   3.707   3.046   1.575
 1798SOL    HW2 1551   3.624   3.181   1.612
 1799SOL     OW 1552   2.926   3.209   1.340
 1799SOL    HW1 1553   2.846   3.186   1.395
 1799SOL    HW2 1554   3.009   3.183   1.389
 1801SOL     OW 1555   2.973   3.057   1.100
 1801SOL    HW1 1556   2.933   3.101   1.181
 1801SOL    HW2 1557   2.932   3.094   1.017
 1803SOL     OW 1558   2.777   1.951   1.402
 1803SOL    HW1 1559   2.802   1.931   1.307
 1803SOL    HW2 1560   2.849   2.007   1.444
 1804SOL     OW 1561   2.842   2.978   1.719
 1804SOL    HW1 1562   2.743   2.984   1.729
 1804SOL    HW2 1563   2.865   2.898   1.663
 1806SOL     OW 1564   2.272   2.675   1.251
 1806SOL    HW1 1565   2.358   2.687   1.301
 1806SOL    HW2 1566   2.230   2.588   1.278
 1807SOL     OW 1567   3.136   2.248   1.262
 1807SOL    HW1 1568   3.157   2.322   1.326
 1807SOL    HW2 1569   3.047   2.265   1.219
 1808SOL     OW 1570   1.926   3.426   1.331
 1808SOL    HW1 1571   1.880   3.508   1.297
 1808SOL    HW2 1572   2.024   3.445   1.340
 1810SOL     OW 1573   2.428   2.399   0.865
 1810SOL    HW1 1574   2.440   2.465   0.791
 1810SOL    HW2 1575   2.474   2.433   0.948
 1812SOL     OW 1576   3.134   3.307   1.142
 1812SOL    HW1 1577   3.181   3.320   1.229
 1812SOL    HW2 1578   3.068   3.233   1.151
 1814SOL     OW 1579   2.216   3.372   1.329
 1814SOL    HW1 1580   2.195   3.328   1.242
 1814SOL    HW2 1581   2.313   3.398   1.332
 1815SOL     OW 1582   2.264   2.613   1.598
 1815SOL    HW1 1583   2.332   2.668   1.551
 1815SOL    HW2 1584   2.304   2.525   1.625
 1816SOL     OW 1585   3.449   2.641   1.670
 1816SOL    HW1 1586   3.357   2.679   1.665
 1816SOL    HW2 1587   3.509   2.688   1.605
 1817SOL     OW 1588   2.875   1.967   1.770
 1817SOL    HW1 1589   2.881   2.052   1.718
 1817SOL    HW2 1590   2.907   1.891   1.713
 1818SOL     OW 1591   2.366   1.912   1.740
 1818SOL    HW1 1592   2.324   1.855   1.670
 1818SOL    HW2 1593   2.300   1.981   1.772
 1819SOL     OW 1594   2.435   2.732   1.029
 1819SOL    HW1 1595   2.479   2.821   1.020
 1819SOL    HW2 1596   2.372   2.732   1.106
 1820SOL     OW 1597   3.222   2.724   1.045
 1820SOL    HW1 1598   3.147   2.724   0.979
 1820SOL    HW2 1599   3.259   2.632   1.054
 1822SOL     OW 1600   2.169   2.075   1.231
 1822SOL    HW1 1601   2.146   2.112   1.321
 1822SOL    HW2 1602   2.139   1.980   1.225
 1823SOL     OW 1603   1.899   3.172   1.282
 1823SOL    HW1 1604   1.952   3.123   1.350
 1823SOL    HW2 1605   1.921   3.270   1.287
 1824SOL     OW 1606   2.594   2.496   1.064
 1824SOL    HW1 1607   2.653   2.470   0.988
 1824SOL    HW2 1608   2.566   2.592   1.053
 1825SOL     OW 1609   3.590   2.797   1.854
 1825SOL    HW1 1610   3.544   2.790   1.765
 1825SOL    HW2 1611   3.528   2.841   1.920
 1826SOL     OW 1612   2.169   1.925   0.618
 1826SOL    HW1 1613   2.158   2.019   0.651
 1826SOL    HW2 1614   2.164   1.862   0.695
 1828SOL     OW 1615   2.885   2.628   0.966
 1828SOL    HW1 1616   2.900   2.649   1.062
 1828SOL    HW2 1617   2.855   2.533   0.957
 1829SOL     OW 1618   2.842   3.435   1.700
 1829SOL    HW1 1619   2.822   3.479   1.612
 1829SOL    HW2 1620   2.881   3.344   1.684
 1831SOL     OW 1621   2.212   2.760   1.804
 1831SOL    HW1 1622   2.288   2.804   1.852
 1831SOL    HW2 1623   2.247   2.713   1.722
 1835SOL     OW 1624   2.181   2.672   0.949
 1835SOL    HW1 1625   2.274   2.708   0.954
 1835SOL    HW2 1626   2.175   2.587   1.001
 1836SOL     OW 1627   2.201   2.371   1.006
 1836SOL    HW1 1628   2.149   2.288   0.989
 1836SOL    HW2 1629   2.278   2.376   0.942
 1837SOL     OW 1630   3.000   2.242   1.678
 1837SOL    HW1 1631   2.955   2.305   1.742
 1837SOL    HW2 1632   3.093   2.273   1.661
 1838SOL     OW 1633   3.022   2.069   1.477
 1838SOL    HW1 1634   3.022   2.133   1.554
 1838SOL    HW2 1635   3.050   2.117   1.394
 1841SOL     OW 1636   2.366   3.430   0.910
 1841SOL    HW1 1637   2.432   3.504   0.919
 1841SOL    HW2 1638   2.410   3.351   0.868
 1842SOL     OW 1639   2.864   2.658   1.238
 1842SOL    HW1 1640   2.905   2.626   1.324
 1842SOL    HW2 1641   2.768   2.631   1.235
 1843SOL     OW 1642   1.902   2.406   1.114
 1843SOL    HW1 1643   1.987   2.373   1.073
 1843SOL    HW2 1644   1.915   2.421   1.212
 1844SOL     OW 1645   2.051   2.382   1.722
 1844SOL    HW1 1646   2.110   2.342   1.652
 1844SOL    HW2 1647   1.993   2.453   1.681
 1845SOL     OW 1648   3.231   2.812   1.660
 1845SOL    HW1 1649   3.270   2.901   1.680
 1845SOL    HW2 1650   3.241   2.792   1.563
 1847SOL     OW 1651   3.519   2.466   1.206
 1847SOL    HW1 1652   3.481   2.397   1.268
 1847SOL    HW2 1653   3.601   2.430   1.162
 1848SOL     OW 1654   2.114   3.426   1.744
 1848SOL    HW1 1655   2.084   3.483   1.820
 1848SOL    HW2 1656   2.107   3.329   1.770
 1849SOL     OW 1657   2.533   2.326   1.269
 1849SOL    HW1 1658   2.499   2.237   1.239
 1849SOL    HW2 1659   2.559   2.380   1.189
 1850SOL     OW 1660   2.792   3.540   1.465
 1850SOL    HW1 1661   2.768   3.522   1.370
 1850SOL    HW2 1662   2.822   3.634   1.475
 1852SOL     OW 1663   2.021   2.999   1.466
 1852SOL    HW1 1664   2.043   2.938   1.542
 1852SOL    HW2 1665   2.031   2.950   1.380
 1853SOL     OW 1666   3.209   2.921   1.234
 1853SOL    HW1 1667   3.233   2.858   1.160
 1853SOL    HW2 1668   3.119   2.961   1.216
 1857SOL     OW 1669   1.945   3.120   1.022
 1857SOL    HW1 1670   1.940   3.119   1.122
 1857SOL    HW2 1671   1.862   3.079   0.984
 1858SOL     OW 1672   2.550   3.524   1.716
 1858SOL    HW1 1673   2.494   3.605   1.725
 1858SOL    HW2 1674   2.602   3.528   1.630
 1862SOL     OW 1675   1.992   3.656   1.851
 1862SOL    HW1 1676   1.951   3.582   1.904
 1862SOL    HW2 1677   2.056   3.707   1.909
 1864SOL     OW 1678   2.692   3.135   1.422
 1864SOL    HW1 1679   2.687   3.168   1.517
 1864SOL    HW2 1680   2.606   3.154   1.376
 1868SOL     OW 1681   2.125   2.188   0.720
 1868SOL    HW1 1682   2.046   2.239   0.686
 1868SOL    HW2 1683   2.116   2.173   0.818
 1870SOL     OW 1684   2.684   2.864   1.372
 1870SOL    HW1 1685   2.724   2.863   1.280
 1870SOL    HW2 1686   2.694   2.956   1.412
 1873SOL     OW 1687   2.234   3.150   1.490
 1873SOL    HW1 1688   2.221   3.243   1.456
 1873SOL    HW2 1689   2.150   3.098   1.477
 1876SOL     OW 1690   2.876   2.098   0.971
 1876SOL    HW1 1691   2.868   2.062   0.878
 1876SOL    HW2 1692   2.874   2.022   1.036
 1878SOL     OW 1693   3.571   2.247   1.381
 1878SOL    HW1 1694   3.644   2.316   1.385
 1878SOL    HW2 1695   3.599   2.172   1.322
 1880SOL     OW 1696   1.967   2.875   1.726
 1880SOL    HW1 1697   1.890   2.842   1.780
 1880SOL    HW2 1698   2.052   2.845   1.768
 1881SOL     OW 1699   2.534   2.065   1.489
 1881SOL    HW1 1700   2.624   2.049   1.449
 1881SOL    HW2 1701   2.542   2.070   1.588
 1883SOL     OW 1702   3.302   2.718   1.398
 1883SOL    HW1 1703   3.245   2.770   1.335
 1883SOL    HW2 1704   3.398   2.730   1.374
 1885SOL     OW 1705   2.475   2.704   1.431
 1885SOL    HW1 1706   2.531   2.785   1.414
 1885SOL    HW2 1707   2.534   2.624   1.434
 1887SOL     OW 1708   2.578   2.427   1.708
 1887SOL    HW1 1709   2.597   2.492   1.782
 1887SOL    HW2 1710   2.638   2.347   1.717
 1888SOL     OW 1711   3.312   3.082   1.633
 1888SOL    HW1 1712   3.303   3.072   1.732
 1888SOL    HW2 1713   3.408   3.075   1.607
 1889SOL     OW 1714   2.252   3.603   1.560
 1889SOL    HW1 1715   2.161   3.644   1.558
 1889SOL    HW2 1716   2.245   3.509   1.592
 1890SOL     OW 1717   3.536   2.745   1.254
 1890SOL    HW1 1718   3.509   2.656   1.217
 1890SOL    HW2 1719   3.537   2.813   1.181
 1892SOL     OW 1720   2.456   2.607   0.652
 1892SOL    HW1 1721   2.506   2.692   0.633
 1892SOL    HW2 1722   2.368   2.609   0.604
 1893SOL     OW 1723   3.639   2.204   1.642
 1893SOL    HW1 1724   3.622   2.235   1.548
 1893SOL    HW2 1725   3.555   2.167   1.680
 1894SOL     OW 1726   3.592   2.796   1.517
 1894SOL    HW1 1727   3.630   2.887   1.532
 1894SOL    HW2 1728   3.584   2.779   1.418
 1897SOL     OW 1729   2.721   2.818   0.861
 1897SOL    HW1 1730   2.775   2.749   0.909
 1897SOL    HW2 1731   2.689   2.887   0.927
 1900SOL     OW 1732   2.083   3.176   1.844
 1900SOL    HW1 1733   2.018   3.103   1.823
 1900SOL    HW2 1734   2.087   3.190   1.942
 1902SOL     OW 1735   2.534   3.253   1.624
 1902SOL    HW1 1736   2.456   3.203   1.662
 1902SOL    HW2 1737   2.531   3.348   1.655
 1903SOL     OW 1738   3.686   2.054   1.227
 1903SOL    HW1 1739   3.682   1.964   1.271
 1903SOL    HW2 1740   3.689   2.043   1.128
 1904SOL     OW 1741   2.290   2.286   0.520
 1904SOL    HW1 1742   2.320   2.214   0.458
 1904SOL    HW2 1743   2.251   2.246   0.603
 1906SOL     OW 1744   2.179   2.409   1.280
 1906SOL    HW1 1745   2.217   2.350   1.352
 1906SOL    HW2 1746   2.219   2.383   1.192
 1908SOL     OW 1747   3.286   2.076   1.112
 1908SOL    HW1 1748   3.338   2.011   1.167
 1908SOL    HW2 1749   3.237   2.139   1.173
 1909SOL     OW 1750   2.863   1.896   1.154
 1909SOL    HW1 1751   2.800   1.824   1.123
 1909SOL    HW2 1752   2.956   1.860   1.154
 1911SOL     OW 1753   2.480   3.429   1.284
 1911SOL    HW1 1754   2.475   3.511   1.341
 1911SOL    HW2 1755   2.569   3.426   1.239
 1913SOL     OW 1756   3.162   2.315   0.691
 1913SOL    HW1 1757   3.103   2.395   0.695
 1913SOL    HW2 1758   3.177   2.280   0.784
 1917SOL     OW 1759   2.092   2.490   1.975
 1917SOL    HW1 1760   1.999   2.488   2.012
 1917SOL    HW2 1761   2.093   2.451   1.883
 1918SOL     OW 1762   2.087   2.137   2.858
 1918SOL    HW1 1763   2.122   2.120   2.950
 1918SOL    HW2 1764   1.999   2.092   2.846
 1919SOL     OW 1765   1.881   2.230   2.509
 1919SOL    HW1 1766   1.799   2.273   2.548
 1919SOL    HW2 1767   1.853   2.157   2.446
 1920SOL     OW 1768   2.431   3.137   3.027
 1920SOL    HW1 1769   2.338   3.130   2.990
 1920SOL    HW2 1770   2.442   3.226   3.071
 1921SOL     OW 1771   3.417   3.373   2.565
 1921SOL    HW1 1772   3.360   3.357   2.646
 1921SOL    HW2 1773   3.358   3.383   2.485
 1922SOL     OW 1774   2.997   2.565   2.579
 1922SOL    HW1 1775   3.054   2.643   2.554
 1922SOL    HW2 1776   2.937   2.591   2.655
 1923SOL     OW 1777   3.617   2.469   2.093
 1923SOL    HW1 1778   3.605   2.456   1.994
 1923SOL    HW2 1779   3.587   2.388   2.142
 1924SOL     OW 1780   2.630   3.006   2.885
 1924SOL    HW1 1781   2.552   3.023   2.945
 1924SOL    HW2 1782   2.664   3.093   2.849
 1925SOL     OW 1783   2.712   2.660   3.685
 1925SOL    HW1 1784   2.708   2.736   3.750
 1925SOL    HW2 1785   2.734   2.696   3.594
 1926SOL     OW 1786   2.547   2.874   2.527
 1926SOL    HW1 1787   2.616   2.858   2.597
 1926SOL    HW2 1788   2.474   2.931   2.565
 1927SOL     OW 1789   2.548   3.023   3.665
 1927SOL    HW1 1790   2.608   3.102   3.679
 1927SOL    HW2 1791   2.462   3.054   3.624
 1928SOL     OW 1792   2.197   3.297   2.923
 1928SOL    HW1 1793   2.119   3.266   2.870
 1928SOL    HW2 1794   2.255   3.355   2.866
 1930SOL     OW 1795   2.300   2.254   3.361
 1930SOL    HW1 1796   2.382   2.198   3.370
 1930SOL    HW2 1797   2.219   2.196   3.365
 1931SOL     OW 1798   3.465   2.309   2.599
 1931SOL    HW1 1799   3.391   2.355   2.549
 1931SOL    HW2 1800   3.516   2.377   2.652
 1932SOL     OW 1801   2.093   3.575   2.345
 1932SOL    HW1 1802   2.127   3.652   2.399
 1932SOL    HW2 1803   2.137   3.575   2.255
 1934SOL     OW 1804   2.092   3.296   2.400
 1934SOL    HW1 1805   2.066   3.392   2.400
 1934SOL    HW2 1806   2.021   3.242   2.445
 1935SOL     OW 1807   2.102   2.953   2.748
 1935SOL    HW1 1808   2.116   2.869   2.800
 1935SOL    HW2 1809   2.047   3.017   2.803
 1937SOL     OW 1810   2.468   2.826   1.985
 1937SOL    HW1 1811   2.475   2.910   1.931
 1937SOL    HW2 1812   2.514   2.839   2.073
 1938SOL     OW 1813   3.456   1.976   3.342
 1938SOL    HW1 1814   3.438   2.043   3.270
 1938SOL    HW2 1815   3.453   2.022   3.431
 1939SOL     OW 1816   1.984   2.505   2.425
 1939SOL    HW1 1817   1.939   2.417   2.442
 1939SOL    HW2 1818   1.983   2.559   2.509
 1941SOL     OW 1819   1.889   3.458   1.979
 1941SOL    HW1 1820   1.870   3.362   2.000
 1941SOL    HW2 1821   1.856   3.516   2.054
 1942SOL     OW 1822   3.551   2.784   2.474
 1942SOL    HW1 1823   3.646   2.755   2.482
 1942SOL    HW2 1824   3.543   2.849   2.399
 1943SOL     OW 1825   3.503   2.970   2.294
 1943SOL    HW1 1826   3.589   2.972   2.242
 1943SOL    HW2 1827   3.517   3.017   2.382
 1944SOL     OW 1828   1.975   2.599   3.459
 1944SOL    HW1 1829   2.063   2.586   3.504
 1944SOL    HW2 1830   1.962   2.696   3.437
 1945SOL     OW 1831   2.475   3.227   2.588
 1945SOL    HW1 1832   2.426   3.140   2.597
 1945SOL    HW2 1833   2.452   3.270   2.501
 1946SOL     OW 1834   3.155   3.090   3.285
 1946SOL    HW1 1835   3.192   3.017   3.227
 1946SOL    HW2 1836   3.207   3.095   3.370
 1947SOL     OW 1837   2.671   1.866   2.364
 1947SOL    HW1 1838   2.711   1.957   2.355
 1947SOL    HW2 1839   2.571   1.874   2.370
 1948SOL     OW 1840   2.059   2.838   3.126
 1948SOL    HW1 1841   2.148   2.793   3.112
 1948SOL    HW2 1842   1.986   2.773   3.107
 1949SOL     OW 1843   3.387   2.861   2.052
 1949SOL    HW1 1844   3.324   2.785   2.065
 1949SOL    HW2 1845   3.435   2.879   2.138
 1951SOL     OW 1846   2.179   2.113   3.663
 1951SOL    HW1 1847   2.250   2.184   3.669
 1951SOL    HW2 1848   2.091   2.152   3.691
 1952SOL     OW 1849   3.328   3.279   2.815
 1952SOL    HW1 1850   3.269   3.285   2.895
 1952SOL    HW2 1851   3.313   3.191   2.769
 1954SOL     OW 1852   2.460   2.591   2.132
 1954SOL    HW1 1853   2.484   2.660   2.064
 1954SOL    HW2 1854   2.382   2.624   2.186
 1955SOL     OW 1855   3.143   2.207   2.806
 1955SOL    HW1 1856   3.057   2.157   2.793
 1955SOL    HW2 1857   3.205   2.153   2.862
 1956SOL     OW 1858   3.438   3.524   2.169
 1956SOL    HW1 1859   3.527   3.570   2.172
 1956SOL    HW2 1860   3.417   3.500   2.074
 1957SOL     OW 1861   2.669   2.467   3.327
 1957SOL    HW1 1862   2.622   2.464   3.416
 1957SOL    HW2 1863   2.618   2.412   3.261
 1958SOL     OW 1864   3.256   2.331   3.536
 1958SOL    HW1 1865   3.236   2.374   3.624
 1958SOL    HW2 1866   3.334   2.269   3.545
 1959SOL     OW 1867   2.835   2.752   3.434
 1959SOL    HW1 1868   2.881   2.668   3.405
 1959SOL    HW2 1869   2.779   2.786   3.359
 1960SOL     OW 1870   2.853   2.272   3.104
 1960SOL    HW1 1871   2.776   2.306   3.158
 1960SOL    HW2 1872   2.819   2.221   3.025
 1961SOL     OW 1873   2.903   2.563   2.291
 1961SOL    HW1 1874   2.929   2.559   2.387
 1961SOL    HW2 1875   2.818   2.512   2.277
 1962SOL     OW 1876   1.938   2.673   2.651
 1962SOL    HW1 1877   2.037   2.661   2.660
 1962SOL    HW2 1878   1.914   2.768   2.672
 1964SOL     OW 1879   2.727   2.210   2.057
 1964SOL    HW1 1880   2.786   2.273   2.008
 1964SOL    HW2 1881   2.746   2.116   2.028
 1966SOL     OW 1882   3.224   3.006   2.407
 1966SOL    HW1 1883   3.307   2.977   2.359
 1966SOL    HW2 1884   3.175   3.073   2.351
 1967SOL     OW 1885   2.412   2.058   2.747
 1967SOL    HW1 1886   2.407   2.053   2.847
 1967SOL    HW2 1887   2.414   2.154   2.718
 1968SOL     OW 1888   2.870   3.318   2.339
 1968SOL    HW1 1889   2.824   3.390   2.287
 1968SOL    HW2 1890   2.866   3.338   2.437
 1969SOL     OW 1891   2.213   3.663   2.715
 1969SOL    HW1 1892   2.263   3.577   2.721
 1969SOL    HW2 1893   2.278   3.740   2.712
 1970SOL     OW 1894   3.657   2.928   2.735
 1970SOL    HW1 1895   3.595   2.913   2.659
 1970SOL    HW2 1896   3.605   2.939   2.820
 1972SOL     OW 1897   2.183   2.805   2.104
 1972SOL    HW1 1898   2.265   2.844   2.062
 1972SOL    HW2 1899   2.156   2.723   2.055
 1973SOL     OW 1900   3.320   2.597   2.590
 1973SOL    HW1 1901   3.315   2.532   2.665
 1973SOL    HW2 1902   3.400   2.656   2.603
 1974SOL     OW 1903   2.323   3.128   3.589
 1974SOL    HW1 1904   2.273   3.129   3.503
 1974SOL    HW2 1905   2.260   3.110   3.665
 1975SOL     OW 1906   2.973   3.638   2.099
 1975SOL    HW1 1907   2.913   3.576   2.149
 1975SOL    HW2 1908   3.004   3.594   2.014
 1976SOL     OW 1909   2.064   2.147   3.360
 1976SOL    HW1 1910   1.984   2.207   3.347
 1976SOL    HW2 1911   2.054   2.098   3.446
 1977SOL     OW 1912   3.494   3.239   1.943
 1977SOL    HW1 1913   3.462   3.333   1.933
 1977SOL    HW2 1914   3.418   3.176   1.931
 1978SOL     OW 1915   2.326   3.605   2.185
 1978SOL    HW1 1916   2.359   3.644   2.271
 1978SOL    HW2 1917   2.402   3.598   2.120
 1979SOL     OW 1918   3.262   1.969   2.288
 1979SOL    HW1 1919   3.238   1.932   2.198
 1979SOL    HW2 1920   3.361   1.985   2.292
 1980SOL     OW 1921   2.111   3.647   3.103
 1980SOL    HW1 1922   2.168   3.582   3.153
 1980SOL    HW2 1923   2.095   3.614   3.010
 1981SOL     OW 1924   2.802   3.560   2.766
 1981SOL    HW1 1925   2.882   3.503   2.787
 1981SOL    HW2 1926   2.753   3.520   2.689
 1982SOL     OW 1927   2.244   2.562   2.342
 1982SOL    HW1 1928   2.289   2.472   2.339
 1982SOL    HW2 1929   2.150   2.551   2.375
 1984SOL     OW 1930   2.476   1.984   1.979
 1984SOL    HW1 1931   2.574   1.962   1.986
 1984SOL    HW2 1932   2.445   1.967   1.886
 1985SOL     OW 1933   2.643   2.126   3.611
 1985SOL    HW1 1934   2.710   2.065   3.654
 1985SOL    HW2 1935   2.570   2.145   3.676
 1986SOL     OW 1936   2.750   3.376   3.057
 1986SOL    HW1 1937   2.727   3.351   2.963
 1986SOL    HW2 1938   2.811   3.307   3.096
 1987SOL     OW 1939   3.213   2.452   3.295
 1987SOL    HW1 1940   3.241   2.409   3.380
 1987SOL    HW2 1941   3.238   2.548   3.296
 1988SOL     OW 1942   2.665   3.264   2.786
 1988SOL    HW1 1943   2.755   3.278   2.744
 1988SOL    HW2 1944   2.594   3.266   2.715
 1989SOL     OW 1945   2.784   2.365   2.761
 1989SOL    HW1 1946   2.759   2.356   2.665
 1989SOL    HW2 1947   2.832   2.283   2.792
 1990SOL     OW 1948   3.296   3.050   1.903
 1990SOL    HW1 1949   3.328   2.974   1.960
 1990SOL    HW2 1950   3.204   3.077   1.933
 1991SOL     OW 1951   2.159   1.897   2.033
 1991SOL    HW1 1952   2.208   1.981   2.012
 1991SOL    HW2 1953   2.221   1.832   2.078
 1992SOL     OW 1954   2.797   2.098   2.342
 1992SOL    HW1 1955   2.749   2.139   2.264
 1992SOL    HW2 1956   2.896   2.096   2.323
 1993SOL     OW 1957   2.938   2.545   3.326
 1993SOL    HW1 1958   2.858   2.484   3.329
 1993SOL    HW2 1959   3.019   2.492   3.302
 1994SOL     OW 1960   3.089   3.432   2.655
 1994SOL    HW1 1961   3.110   3.506   2.590
 1994SOL    HW2 1962   3.157   3.432   2.728
 1995SOL     OW 1963   2.321   3.014   2.603
 1995SOL    HW1 1964   2.250   2.987   2.668
 1995SOL    HW2 1965   2.295   2.986   2.510
 1996SOL     OW 1966   3.133   3.659   2.453
 1996SOL    HW1 1967   3.177   3.723   2.389
 1996SOL    HW2 1968   3.083   3.711   2.523
 1997SOL     OW 1969   2.894   2.411   1.878
 1997SOL    HW1 1970   2.853   2.493   1.839
 1997SOL    HW2 1971   2.958   2.437   1.951
 1998SOL     OW 1972   1.940   2.418   3.248
 1998SOL    HW1 1973   2.032   2.417   3.207
 1998SOL    HW2 1974   1.934   2.492   3.315
 1999SOL     OW 1975   2.423   2.084   3.009
 1999SOL    HW1 1976   2.461   2.000   3.046
 1999SOL    HW2 1977   2.335   2.103   3.053
 2000SOL     OW 1978   2.728   2.316   2.504
 2000SOL    HW1 1979   2.696   2.388   2.442
 2000SOL    HW2 1980   2.752   2.235   2.451
 2001SOL     OW 1981   2.879   1.901   2.615
 2001SOL    HW1 1982   2.807   1.906   2.546
 2001SOL    HW2 1983   2.855   1.832   2.684
 2002SOL     OW 1984   3.291   3.035   2.729
 2002SOL    HW1 1985   3.236   2.951   2.722
 2002SOL    HW2 1986   3.317   3.064   2.637
 2003SOL     OW 1987   3.328   2.452   2.854
 2003SOL    HW1 1988   3.298   2.357   2.861
 2003SOL    HW2 1989   3.401   2.468   2.920
 2004SOL     OW 1990   3.719   2.695   2.239
 2004SOL    HW1 1991   3.761   2.631   2.303
 2004SOL    HW2 1992   3.681   2.644   2.161
 2005SOL     OW 1993   2.350   3.247   2.036
 2005SOL    HW1 1994   2.263   3.232   2.083
 2005SOL    HW2 1995   2.333   3.273   1.941
 2006SOL     OW 1996   3.526   3.142   2.519
 2006SOL    HW1 1997   3.625   3.150   2.533
 2006SOL    HW2 1998   3.481   3.226   2.550
 2007SOL     OW 1999   3.252   2.437   1.940
 2007SOL    HW1 2000   3.198   2.416   2.021
 2007SOL    HW2 2001   3.343   2.396   1.949
 2009SOL     OW 2002   2.926   3.209   3.202
 2009SOL    HW1 2003   2.846   3.186   3.257
 2009SOL    HW2 2004   3.009   3.183   3.251
 2011SOL     OW 2005   2.973   3.057   2.962
 2011SOL    HW1 2006   2.933   3.101   3.043
 2011SOL    HW2 2007   2.932   3.094   2.879
 2012SOL     OW 2008   3.500   2.961   2.941
 2012SOL    HW1 2009   3.505   3.042   3.000
 2012SOL    HW2 2010   3.414   2.963   2.890
 2013SOL     OW 2011   2.777   1.951   3.264
 2013SOL    HW1 2012   2.802   1.931   3.169
 2013SOL    HW2 2013   2.849   2.007   3.306
 2014SOL     OW 2014   2.842   2.978   3.581
 2014SOL    HW1 2015   2.743   2.984   3.591
 2014SOL    HW2 2016   2.865   2.898   3.525
 2015SOL     OW 2017   2.567   2.912   2.230
 2015SOL    HW1 2018   2.553   2.919   2.329
 2015SOL    HW2 2019   2.651   2.861   2.212
 2016SOL     OW 2020   2.272   2.675   3.113
 2016SOL    HW1 2021   2.358   2.687   3.163
 2016SOL    HW2 2022   2.230   2.588   3.140
 2017SOL     OW 2023   3.136   2.248   3.124
 2017SOL    HW1 2024   3.157   2.322   3.188
 2017SOL    HW2 2025   3.047   2.265   3.081
 2018SOL     OW 2026   1.926   3.426   3.193
 2018SOL    HW1 2027   1.880   3.508   3.159
 2018SOL    HW2 2028   2.024   3.445   3.202
 2019SOL     OW 2029   2.229   2.962   2.363
 2019SOL    HW1 2030   2.222   3.045   2.307
 2019SOL    HW2 2031   2.233   2.882   2.303
 2020SOL     OW 2032   2.428   2.399   2.727
 2020SOL    HW1 2033   2.440   2.465   2.653
 2020SOL    HW2 2034   2.474   2.433   2.810
 2021SOL     OW 2035   3.114   3.210   2.250
 2021SOL    HW1 2036   3.164   3.287   2.290
 2021SOL    HW2 2037   3.019   3.212   2.282
 2022SOL     OW 2038   3.134   3.307   3.004
 2022SOL    HW1 2039   3.181   3.320   3.091
 2022SOL    HW2 2040   3.068   3.233   3.013
 2023SOL     OW 2041   3.444   2.501   2.334
 2023SOL    HW1 2042   3.413   2.562   2.407
 2023SOL    HW2 2043   3.494   2.553   2.265
 2024SOL     OW 2044   2.216   3.372   3.191
 2024SOL    HW1 2045   2.195   3.328   3.104
 2024SOL    HW2 2046   2.313   3.398   3.194
 2025SOL     OW 2047   2.264   2.613   3.460
 2025SOL    HW1 2048   2.332   2.668   3.413
 2025SOL    HW2 2049   2.304   2.525   3.487
 2027SOL     OW 2050   2.875   1.967   3.632
 2027SOL    HW1 2051   2.881   2.052   3.580
 2027SOL    HW2 2052   2.907   1.891   3.575
 2028SOL     OW 2053   2.366   1.912   3.602
 2028SOL    HW1 2054   2.324   1.855   3.532
 2028SOL    HW2 2055   2.300   1.981   3.634
 2029SOL     OW 2056   2.435   2.732   2.891
 2029SOL    HW1 2057   2.479   2.821   2.882
 2029SOL    HW2 2058   2.372   2.732   2.968
 2030SOL     OW 2059   3.222   2.724   2.907
 2030SOL    HW1 2060   3.147   2.724   2.841
 2030SOL    HW2 2061   3.259   2.632   2.916
 2031SOL     OW 2062   3.071   2.387   2.137
 2031SOL    HW1 2063   3.084   2.303   2.191
 2031SOL    HW2 2064   3.042   2.461   2.197
 2032SOL     OW 2065   2.169   2.075   3.093
 2032SOL    HW1 2066   2.146   2.112   3.183
 2032SOL    HW2 2067   2.139   1.980   3.087
 2033SOL     OW 2068   1.899   3.172   3.144
 2033SOL    HW1 2069   1.952   3.123   3.212
 2033SOL    HW2 2070   1.921   3.270   3.149
 2034SOL     OW 2071   2.594   2.496   2.926
 2034SOL    HW1 2072   2.653   2.470   2.850
 2034SOL    HW2 2073   2.566   2.592   2.915
 2036SOL     OW 2074   2.169   1.925   2.480
 2036SOL    HW1 2075   2.158   2.019   2.513
 2036SOL    HW2 2076   2.164   1.862   2.557
 2037SOL     OW 2077   3.484   2.229   2.236
 2037SOL    HW1 2078   3.486   2.153   2.300
 2037SOL    HW2 2079   3.436   2.306   2.276
 2038SOL     OW 2080   2.885   2.628   2.828
 2038SOL    HW1 2081   2.900   2.649   2.924
 2038SOL    HW2 2082   2.855   2.533   2.819
 2041SOL     OW 2083   2.212   2.760   3.666
 2041SOL    HW1 2084   2.288   2.804   3.714
 2041SOL    HW2 2085   2.247   2.713   3.584
 2042SOL     OW 2086   3.402   2.136   1.987
 2042SOL    HW1 2087   3.341   2.061   2.010
 2042SOL    HW2 2088   3.424   2.188   2.070
 2043SOL     OW 2089   3.165   2.700   1.904
 2043SOL    HW1 2090   3.199   2.607   1.919
 2043SOL    HW2 2091   3.183   2.727   1.809
 2044SOL     OW 2092   2.930   3.195   2.711
 2044SOL    HW1 2093   2.937   3.111   2.656
 2044SOL    HW2 2094   2.992   3.264   2.675
 2045SOL     OW 2095   2.181   2.672   2.811
 2045SOL    HW1 2096   2.274   2.708   2.816
 2045SOL    HW2 2097   2.175   2.587   2.863
 2046SOL     OW 2098   2.201   2.371   2.868
 2046SOL    HW1 2099   2.149   2.288   2.851
 2046SOL    HW2 2100   2.278   2.376   2.804
 2047SOL     OW 2101   3.000   2.242   3.540
 2047SOL    HW1 2102   2.955   2.305   3.604
 2047SOL    HW2 2103   3.093   2.273   3.523
 2048SOL     OW 2104   3.022   2.069   3.339
 2048SOL    HW1 2105   3.022   2.133   3.416
 2048SOL    HW2 2106   3.050   2.117   3.256
 2049SOL     OW 2107   1.870   3.188   2.062
 2049SOL    HW1 2108   1.777   3.209   2.031
 2049SOL    HW2 2109   1.880   3.089   2.075
 2050SOL     OW 2110   1.950   3.663   2.789
 2050SOL    HW1 2111   1.908   3.577   2.762
 2050SOL    HW2 2112   2.044   3.666   2.755
 2051SOL     OW 2113   2.366   3.430   2.772
 2051SOL    HW1 2114   2.432   3.504   2.781
 2051SOL    HW2 2115   2.410   3.351   2.730
 2052SOL     OW 2116   2.864   2.658   3.100
 2052SOL    HW1 2117   2.905   2.626   3.186
 2052SOL    HW2 2118   2.768   2.631   3.097
 2053SOL     OW 2119   1.902   2.406   2.976
 2053SOL    HW1 2120   1.987   2.373   2.935
 2053SOL    HW2 2121   1.915   2.421   3.074
 2054SOL     OW 2122   2.051   2.382   3.584
 2054SOL    HW1 2123   2.110   2.342   3.514
 2054SOL    HW2 2124   1.993   2.453   3.543
 2055SOL     OW 2125   3.231   2.812   3.522
 2055SOL    HW1 2126   3.270   2.901   3.542
 2055SOL    HW2 2127   3.241   2.792   3.425
 2056SOL     OW 2128   2.677   2.434   2.187
 2056SOL    HW1 2129   2.684   2.345   2.141
 2056SOL    HW2 2130   2.583   2.468   2.179
 2057SOL     OW 2131   3.519   2.466   3.068
 2057SOL    HW1 2132   3.481   2.397   3.130
 2057SOL    HW2 2133   3.601   2.430   3.024
 2059SOL     OW 2134   2.533   2.326   3.131
 2059SOL    HW1 2135   2.499   2.237   3.101
 2059SOL    HW2 2136   2.559   2.380   3.051
 2061SOL     OW 2137   2.021   2.999   3.328
 2061SOL    HW1 2138   2.043   2.938   3.404
 2061SOL    HW2 2139   2.031   2.950   3.242
 2062SOL     OW 2140   3.209   2.921   3.096
 2062SOL    HW1 2141   3.233   2.858   3.022
 2062SOL    HW2 2142   3.119   2.961   3.078
 2063SOL     OW 2143   3.164   2.717   2.171
 2063SOL    HW1 2144   3.078   2.686   2.213
 2063SOL    HW2 2145   3.160   2.703   2.072
 2066SOL     OW 2146   1.945   3.120   2.884
 2066SOL    HW1 2147   1.940   3.119   2.984
 2066SOL    HW2 2148   1.862   3.079   2.846
 2068SOL     OW 2149   3.588   1.997   2.385
 2068SOL    HW1 2150   3.661   1.980   2.318
 2068SOL    HW2 2151   3.557   1.910   2.423
 2069SOL     OW 2152   3.250   3.435   2.339
 2069SOL    HW1 2153   3.317   3.447   2.265
 2069SOL    HW2 2154   3.210   3.524   2.362
 2071SOL     OW 2155   3.142   2.789   2.534
 2071SOL    HW1 2156   3.202   2.708   2.536
 2071SOL    HW2 2157   3.182   2.858   2.474
 2072SOL     OW 2158   2.692   3.135   3.284
 2072SOL    HW1 2159   2.687   3.168   3.379
 2072SOL    HW2 2160   2.606   3.154   3.238
 2073SOL     OW 2161   2.534   3.478   2.016
 2073SOL    HW1 2162   2.543   3.488   1.917
 2073SOL    HW2 2163   2.494   3.389   2.037
 2075SOL     OW 2164   3.703   2.037   2.825
 2075SOL    HW1 2165   3.742   1.952   2.789
 2075SOL    HW2 2166   3.605   2.039   2.806
 2076SOL     OW 2167   2.125   2.188   2.582
 2076SOL    HW1 2168   2.046   2.239   2.548
 2076SOL    HW2 2169   2.116   2.173   2.680
 2077SOL     OW 2170   3.056   3.474   1.893
 2077SOL    HW1 2171   3.062   3.381   1.930
 2077SOL    HW2 2172   2.997   3.474   1.813
 2078SOL     OW 2173   2.684   2.864   3.234
 2078SOL    HW1 2174   2.724   2.863   3.142
 2078SOL    HW2 2175   2.694   2.956   3.274
 2079SOL     OW 2176   2.778   2.772   2.153
 2079SOL    HW1 2177   2.841   2.810   2.085
 2079SOL    HW2 2178   2.818   2.689   2.192
 2080SOL     OW 2179   3.366   3.469   1.906
 2080SOL    HW1 2180   3.274   3.506   1.913
 2080SOL    HW2 2181   3.404   3.489   1.816
 2081SOL     OW 2182   2.234   3.150   3.352
 2081SOL    HW1 2183   2.221   3.243   3.318
 2081SOL    HW2 2184   2.150   3.098   3.339
 2083SOL     OW 2185   2.901   2.960   2.558
 2083SOL    HW1 2186   2.831   2.913   2.612
 2083SOL    HW2 2187   2.960   2.892   2.515
 2084SOL     OW 2188   2.876   2.098   2.833
 2084SOL    HW1 2189   2.868   2.062   2.740
 2084SOL    HW2 2190   2.874   2.022   2.898
 2085SOL     OW 2191   2.452   3.349   2.353
 2085SOL    HW1 2192   2.494   3.291   2.283
 2085SOL    HW2 2193   2.408   3.428   2.309
 2086SOL     OW 2194   3.571   2.247   3.243
 2086SOL    HW1 2195   3.644   2.316   3.247
 2086SOL    HW2 2196   3.599   2.172   3.184
 2087SOL     OW 2197   2.117   3.210   2.152
 2087SOL    HW1 2198   2.021   3.211   2.125
 2087SOL    HW2 2199   2.129   3.263   2.236
 2088SOL     OW 2200   1.967   2.875   3.588
 2088SOL    HW1 2201   1.890   2.842   3.642
 2088SOL    HW2 2202   2.052   2.845   3.630
 2089SOL     OW 2203   2.534   2.065   3.351
 2089SOL    HW1 2204   2.624   2.049   3.311
 2089SOL    HW2 2205   2.542   2.070   3.450
 2090SOL     OW 2206   1.937   2.207   1.895
 2090SOL    HW1 2207   1.845   2.179   1.866
 2090SOL    HW2 2208   1.968   2.284   1.839
 2091SOL     OW 2209   3.302   2.718   3.260
 2091SOL    HW1 2210   3.245   2.770   3.197
 2091SOL    HW2 2211   3.398   2.730   3.236
 2092SOL     OW 2212   3.045   3.197   1.981
 2092SOL    HW1 2213   2.946   3.186   1.983
 2092SOL    HW2 2214   3.079   3.212   2.074
 2093SOL     OW 2215   2.475   2.704   3.293
 2093SOL    HW1 2216   2.531   2.785   3.276
 2093SOL    HW2 2217   2.534   2.624   3.296
 2095SOL     OW 2218   2.578   2.427   3.570
 2095SOL    HW1 2219   2.597   2.492   3.644
 2095SOL    HW2 2220   2.638   2.347   3.579
 2098SOL     OW 2221   3.536   2.745   3.116
 2098SOL    HW1 2222   3.509   2.656   3.079
 2098SOL    HW2 2223   3.537   2.813   3.043
 2099SOL     OW 2224   3.087   2.187   2.311
 2099SOL    HW1 2225   3.152   2.113   2.300
 2099SOL    HW2 2226   3.107   2.237   2.395
 2100SOL     OW 2227   2.456   2.607   2.514
 2100SOL    HW1 2228   2.506   2.692   2.495
 2100SOL    HW2 2229   2.368   2.609   2.466
 2103SOL     OW 2230   2.721   3.236   1.878
 2103SOL    HW1 2231   2.675   3.251   1.966
 2103SOL    HW2 2232   2.765   3.321   1.848
 2104SOL     OW 2233   2.523   3.652   2.815
 2104SOL    HW1 2234   2.477   3.740   2.802
 2104SOL    HW2 2235   2.622   3.664   2.808
 2105SOL     OW 2236   2.721   2.818   2.723
 2105SOL    HW1 2237   2.775   2.749   2.771
 2105SOL    HW2 2238   2.689   2.887   2.789
 2106SOL     OW 2239   2.945   2.846   1.949
 2106SOL    HW1 2240   2.922   2.899   1.867
 2106SOL    HW2 2241   3.026   2.790   1.930
 2108SOL     OW 2242   2.083   3.176   3.706
 2108SOL    HW1 2243   2.018   3.103   3.685
 2108SOL    HW2 2244   2.087   3.190   3.804
 2109SOL     OW 2245   1.941   3.102   2.515
 2109SOL    HW1 2246   1.940   3.055   2.603
 2109SOL    HW2 2247   2.023   3.074   2.464
 2110SOL     OW 2248   2.534   3.253   3.486
 2110SOL    HW1 2249   2.456   3.203   3.524
 2110SOL    HW2 2250   2.531   3.348   3.517
 2111SOL     OW 2251   3.686   2.054   3.089
 2111SOL    HW1 2252   3.682   1.964   3.133
 2111SOL    HW2 2253   3.689   2.043   2.990
 2113SOL     OW 2254   2.179   2.409   3.142
 2113SOL    HW1 2255   2.217   2.350   3.214
 2113SOL    HW2 2256   2.219   2.383   3.054
 2114SOL     OW 2257   2.674   3.448   2.549
 2114SOL    HW1 2258   2.706   3.458   2.455
 2114SOL    HW2 2259   2.595   3.386   2.551
 2115SOL     OW 2260   3.286   2.076   2.974
 2115SOL    HW1 2261   3.338   2.011   3.029
 2115SOL    HW2 2262   3.237   2.139   3.035
 2116SOL     OW 2263   2.863   1.896   3.016
 2116SOL    HW1 2264   2.800   1.824   2.985
 2116SOL    HW2 2265   2.956   1.860   3.016
 2117SOL     OW 2266   2.632   3.192   2.163
 2117SOL    HW1 2267   2.586   3.105   2.180
 2117SOL    HW2 2268   2.723   3.189   2.204
 2118SOL     OW 2269   2.480   3.429   3.146
 2118SOL    HW1 2270   2.475   3.511   3.203
 2118SOL    HW2 2271   2.569   3.426   3.101
 2119SOL     OW 2272   3.214   1.914   2.030
 2119SOL    HW1 2273   3.249   1.873   1.946
 2119SOL    HW2 2274   3.124   1.876   2.050
 2120SOL     OW 2275   3.162   2.315   2.553
 2120SOL    HW1 2276   3.103   2.395   2.557
 2120SOL    HW2 2277   3.177   2.280   2.646
 2121SOL     OW 2278   3.455   2.083   2.744
 2121SOL    HW1 2279   3.371   2.082   2.798
 2121SOL    HW2 2280   3.457   2.166   2.688
 2122SOL     OW 2281   1.901   2.939   2.162
 2122SOL    HW1 2282   2.000   2.928   2.153
 2122SOL    HW2 2283   1.861   2.853   2.194
 2123SOL     OW 2284   2.737   3.508   2.199
 2123SOL    HW1 2285   2.660   3.473   2.145
 2123SOL    HW2 2286   2.705   3.579   2.261
 2124SOL     OW 2287   2.092   2.490   3.837
 2124SOL    HW1 2288   1.999   2.488   3.874
 2124SOL    HW2 2289   2.093   2.451   3.745
 2128SOL     OW 2290   2.468   2.826   3.847
 2128SOL    HW1 2291   2.475   2.910   3.793
 2128SOL    HW2 2292   2.514   2.839   3.935
 2142SOL     OW 2293   2.727   2.210   3.919
 2142SOL    HW1 2294   2.786   2.273   3.870
 2142SOL    HW2 2295   2.746   2.116   3.890
 2153SOL     OW 2296   2.476   1.984   3.841
 2153SOL    HW1 2297   2.574   1.962   3.848
 2153SOL    HW2 2298   2.445   1.967   3.748
 2156SOL     OW 2299   2.159   1.897   3.895
 2156SOL    HW1 2300   2.208   1.981   3.874
 2156SOL    HW2 2301   2.221   1.832   3.940
 2160SOL     OW 2302   2.894   2.411   3.740
 2160SOL    HW1 2303   2.853   2.493   3.701
 2160SOL    HW2 2304   2.958   2.437   3.813
 2177SOL     OW 2305   2.335   2.362   3.915
 2177SOL    HW1 2306   2.396   2.442   3.919
 2177SOL    HW2 2307   2.240   2.393   3.922
 2188SOL     OW 2308   1.937   2.207   3.757
 2188SOL    HW1 2309   1.845   2.179   3.728
 2188SOL    HW2 2310   1.968   2.284   3.701
 2243SOL     OW 2311   2.875   3.829   1.770
 2243SOL    HW1 2312   2.881   3.914   1.718
 2243SOL    HW2 2313   2.907   3.753   1.713
 2244SOL     OW 2314   2.366   3.774   1.740
 2244SOL    HW1 2315   2.324   3.717   1.670
 2244SOL    HW2 2316   2.300   3.843   1.772
 2290SOL     OW 2317   2.671   3.728   2.364
 2290SOL    HW1 2318   2.711   3.819   2.355
 2290SOL    HW2 2319   2.571   3.736   2.370
 2299SOL     OW 2320   2.412   3.920   2.747
 2299SOL    HW1 2321   2.407   3.915   2.847
 2299SOL    HW2 2322   2.414   4.016   2.718
 2304SOL     OW 2323   2.476   3.846   1.979
 2304SOL    HW1 2324   2.574   3.824   1.986
 2304SOL    HW2 2325   2.445   3.829   1.886
 2308SOL     OW 2326   2.401   3.788   2.374
 2308SOL    HW1 2327   2.320   3.789   2.432
 2308SOL    HW2 2328   2.404   3.871   2.319
 2309SOL     OW 2329   2.159   3.759   2.033
 2309SOL    HW1 2330   2.208   3.843   2.012
 2309SOL    HW2 2331   2.221   3.694   2.078
 2316SOL     OW 2332   2.879   3.763   2.615
 2316SOL    HW1 2333   2.807   3.768   2.546
 2316SOL    HW2 2334   2.855   3.694   2.684
 2318SOL     OW 2335   2.389   3.980   2.190
 2318SOL    HW1 2336   2.416   3.921   2.115
 2318SOL    HW2 2337   2.389   4.075   2.159
 2328SOL     OW 2338   2.169   3.787   2.480
 2328SOL    HW1 2339   2.158   3.881   2.513
 2328SOL    HW2 2340   2.164   3.724   2.557
 2349SOL     OW 2341   1.934   3.890   2.180
 2349SOL    HW1 2342   1.917   3.973   2.126
 2349SOL    HW2 2343   2.024   3.853   2.158
 2454SOL     OW 2344   3.854   1.794   1.851
 2454SOL    HW1 2345   3.813   1.720   1.904
 2454SOL    HW2 2346   3.918   1.845   1.909
 2482SOL     OW 2347   3.751   1.596   1.979
 2482SOL    HW1 2348   3.732   1.500   2.000
 2482SOL    HW2 2349   3.718   1.654   2.054
 2522SOL     OW 2350   3.732   1.326   2.062
 2522SOL    HW1 2351   3.639   1.347   2.031
 2522SOL    HW2 2352   3.742   1.227   2.075
 2523SOL     OW 2353   3.812   1.801   2.789
 2523SOL    HW1 2354   3.770   1.715   2.762
 2523SOL    HW2 2355   3.906   1.804   2.755
 2595SOL     OW 2356   3.837   2.599   1.597
 2595SOL    HW1 2357   3.925   2.586   1.642
 2595SOL    HW2 2358   3.824   2.696   1.575
 2638SOL     OW 2359   3.913   2.382   1.722
 2638SOL    HW1 2360   3.972   2.342   1.652
 2638SOL    HW2 2361   3.855   2.453   1.681
 2662SOL     OW 2362   3.954   2.490   1.975
 2662SOL    HW1 2363   3.861   2.488   2.012
 2662SOL    HW2 2364   3.955   2.451   1.883
 2664SOL     OW 2365   3.743   2.230   2.509
 2664SOL    HW1 2366   3.661   2.273   2.548
 2664SOL    HW2 2367   3.715   2.157   2.446
 2672SOL     OW 2368   3.846   2.505   2.425
 2672SOL    HW1 2369   3.801   2.417   2.442
 2672SOL    HW2 2370   3.845   2.559   2.509
 2680SOL     OW 2371   3.800   2.673   2.651
 2680SOL    HW1 2372   3.899   2.661   2.660
 2680SOL    HW2 2373   3.776   2.768   2.672
 2717SOL     OW 2374   3.764   2.406   2.976
 2717SOL    HW1 2375   3.849   2.373   2.935
 2717SOL    HW2 2376   3.777   2.421   3.074
 2732SOL     OW 2377   3.799   2.207   1.895
 2732SOL    HW1 2378   3.707   2.179   1.866
 2732SOL    HW2 2379   3.830   2.284   1.839
 2733SOL     OW 2380   3.796   2.028   2.180
 2733SOL    HW1 2381   3.779   2.111   2.126
 2733SOL    HW2 2382   3.886   1.991   2.158
 2742SOL     OW 2383   3.763   2.939   2.162
 2742SOL    HW1 2384   3.862   2.928   2.153
 2742SOL    HW2 2385   3.723   2.853   2.194
   4.43523   4.43523   4.43523
