mobley_2008055_GMX.gro created by acpype (v: 2023.10.27) on Thu May 21 00:06:25 2026
 2420
    1MOL     C1    1   2.087   2.129   2.179
    1MOL     C2    2   2.220   2.178   2.129
    1MOL     H1    3   2.078   2.145   2.287
    1MOL     H2    4   2.005   2.183   2.130
    1MOL     H3    5   2.074   2.022   2.159
    1MOL     H4    6   2.302   2.124   2.178
    1MOL     H5    7   2.233   2.285   2.149
    1MOL     H6    8   2.229   2.162   2.021
    6SOL     OW    9   1.555   1.511   0.703
    6SOL    HW1   10   1.498   1.495   0.784
    6SOL    HW2   11   1.496   1.521   0.623
   14SOL     OW   12   1.460   1.505   1.339
   14SOL    HW1   13   1.484   1.599   1.365
   14SOL    HW2   14   1.444   1.451   1.421
   18SOL     OW   15   1.127   1.341   1.690
   18SOL    HW1   16   1.174   1.341   1.778
   18SOL    HW2   17   1.079   1.254   1.679
   21SOL     OW   18   0.620   1.786   1.439
   21SOL    HW1   19   0.528   1.769   1.474
   21SOL    HW2   20   0.648   1.878   1.465
   31SOL     OW   21   1.293   1.228   1.423
   31SOL    HW1   22   1.330   1.155   1.365
   31SOL    HW2   23   1.345   1.233   1.508
   35SOL     OW   24   1.187   1.792   1.616
   35SOL    HW1   25   1.211   1.852   1.540
   35SOL    HW2   26   1.194   1.697   1.586
   37SOL     OW   27   1.466   1.417   0.953
   37SOL    HW1   28   1.407   1.423   1.033
   37SOL    HW2   29   1.451   1.329   0.907
   38SOL     OW   30   1.667   1.714   0.572
   38SOL    HW1   31   1.626   1.691   0.484
   38SOL    HW2   32   1.649   1.640   0.637
   50SOL     OW   33   1.719   0.585   1.831
   50SOL    HW1   34   1.693   0.674   1.795
   50SOL    HW2   35   1.717   0.517   1.758
   55SOL     OW   36   1.795   1.066   0.873
   55SOL    HW1   37   1.733   1.051   0.797
   55SOL    HW2   38   1.743   1.077   0.958
   56SOL     OW   39   1.227   1.550   1.506
   56SOL    HW1   40   1.233   1.473   1.570
   56SOL    HW2   41   1.175   1.524   1.426
   71SOL     OW   42   0.888   1.514   1.195
   71SOL    HW1   43   0.865   1.489   1.101
   71SOL    HW2   44   0.949   1.445   1.234
   80SOL     OW   45   1.227   1.570   0.793
   80SOL    HW1   46   1.248   1.644   0.728
   80SOL    HW2   47   1.295   1.570   0.866
   88SOL     OW   48   1.429   1.173   0.867
   88SOL    HW1   49   1.374   1.089   0.860
   88SOL    HW2   50   1.455   1.202   0.775
   95SOL     OW   51   1.754   1.223   1.588
   95SOL    HW1   52   1.845   1.184   1.575
   95SOL    HW2   53   1.762   1.319   1.612
   96SOL     OW   54   1.064   1.347   1.340
   96SOL    HW1   55   0.984   1.324   1.395
   96SOL    HW2   56   1.147   1.321   1.389
   97SOL     OW   57   1.592   1.629   1.625
   97SOL    HW1   58   1.619   1.663   1.535
   97SOL    HW2   59   1.671   1.591   1.671
   98SOL     OW   60   1.111   1.195   1.100
   98SOL    HW1   61   1.071   1.239   1.181
   98SOL    HW2   62   1.070   1.232   1.017
   99SOL     OW   63   1.638   1.099   1.079
   99SOL    HW1   64   1.643   1.180   1.138
   99SOL    HW2   65   1.552   1.101   1.028
  101SOL     OW   66   0.980   1.116   1.719
  101SOL    HW1   67   0.881   1.122   1.729
  101SOL    HW2   68   1.003   1.036   1.663
  109SOL     OW   69   1.272   1.445   1.142
  109SOL    HW1   70   1.319   1.458   1.229
  109SOL    HW2   71   1.206   1.371   1.151
  113SOL     OW   72   1.587   0.779   1.670
  113SOL    HW1   73   1.495   0.817   1.665
  113SOL    HW2   74   1.647   0.826   1.605
  122SOL     OW   75   1.728   0.935   1.854
  122SOL    HW1   76   1.682   0.928   1.765
  122SOL    HW2   77   1.666   0.979   1.920
  126SOL     OW   78   0.980   1.573   1.700
  126SOL    HW1   79   0.960   1.617   1.612
  126SOL    HW2   80   1.019   1.482   1.684
  127SOL     OW   81   1.859   1.518   1.605
  127SOL    HW1   82   1.873   1.545   1.510
  127SOL    HW2   83   1.942   1.540   1.658
  142SOL     OW   84   1.369   0.950   1.660
  142SOL    HW1   85   1.408   1.039   1.680
  142SOL    HW2   86   1.379   0.930   1.563
  147SOL     OW   87   0.930   1.678   1.465
  147SOL    HW1   88   0.906   1.660   1.370
  147SOL    HW2   89   0.960   1.772   1.475
  150SOL     OW   90   1.347   1.059   1.234
  150SOL    HW1   91   1.371   0.996   1.160
  150SOL    HW2   92   1.257   1.099   1.216
  152SOL     OW   93   1.759   1.747   1.154
  152SOL    HW1   94   1.820   1.777   1.081
  152SOL    HW2   95   1.721   1.658   1.132
  153SOL     OW   96   1.252   1.731   1.128
  153SOL    HW1   97   1.336   1.736   1.074
  153SOL    HW2   98   1.229   1.635   1.146
  155SOL     OW   99   0.688   1.662   1.716
  155SOL    HW1  100   0.632   1.743   1.725
  155SOL    HW2  101   0.740   1.666   1.630
  161SOL     OW  102   0.830   1.273   1.422
  161SOL    HW1  103   0.825   1.306   1.517
  161SOL    HW2  104   0.744   1.292   1.376
  163SOL     OW  105   1.650   1.720   1.394
  163SOL    HW1  106   1.703   1.730   1.310
  163SOL    HW2  107   1.623   1.810   1.428
  171SOL     OW  108   1.614   1.292   1.289
  171SOL    HW1  109   1.674   1.295   1.369
  171SOL    HW2  110   1.539   1.356   1.302
  180SOL     OW  111   1.440   0.856   1.398
  180SOL    HW1  112   1.383   0.908   1.335
  180SOL    HW2  113   1.536   0.868   1.374
  184SOL     OW  114   1.493   1.767   0.959
  184SOL    HW1  115   1.526   1.831   0.890
  184SOL    HW2  116   1.559   1.761   1.034
  186SOL     OW  117   1.450   1.220   1.633
  186SOL    HW1  118   1.441   1.210   1.732
  186SOL    HW2  119   1.546   1.213   1.607
  188SOL     OW  120   1.674   0.883   1.254
  188SOL    HW1  121   1.647   0.794   1.217
  188SOL    HW2  122   1.675   0.951   1.181
  192SOL     OW  123   1.730   0.934   1.517
  192SOL    HW1  124   1.768   1.025   1.532
  192SOL    HW2  125   1.722   0.917   1.418
  197SOL     OW  126   1.861   1.569   0.851
  197SOL    HW1  127   1.790   1.557   0.781
  197SOL    HW2  128   1.862   1.490   0.911
  200SOL     OW  129   0.672   1.391   1.624
  200SOL    HW1  130   0.594   1.341   1.662
  200SOL    HW2  131   0.669   1.486   1.655
  203SOL     OW  132   1.705   1.487   1.104
  203SOL    HW1  133   1.612   1.462   1.077
  203SOL    HW2  134   1.731   1.437   1.186
  219SOL     OW  135   1.555   1.511   2.565
  219SOL    HW1  136   1.498   1.495   2.646
  219SOL    HW2  137   1.496   1.521   2.485
  221SOL     OW  138   1.755   0.607   2.093
  221SOL    HW1  139   1.743   0.594   1.994
  221SOL    HW2  140   1.725   0.526   2.142
  227SOL     OW  141   1.460   1.505   3.201
  227SOL    HW1  142   1.484   1.599   3.227
  227SOL    HW2  143   1.444   1.451   3.283
  238SOL     OW  144   1.842   1.767   2.221
  238SOL    HW1  145   1.896   1.738   2.301
  238SOL    HW2  146   1.872   1.857   2.192
  240SOL     OW  147   1.689   0.922   2.474
  240SOL    HW1  148   1.784   0.893   2.482
  240SOL    HW2  149   1.681   0.987   2.399
  241SOL     OW  150   1.641   1.108   2.294
  241SOL    HW1  151   1.727   1.110   2.242
  241SOL    HW2  152   1.655   1.155   2.382
  243SOL     OW  153   0.613   1.365   2.588
  243SOL    HW1  154   0.564   1.278   2.597
  243SOL    HW2  155   0.590   1.408   2.501
  244SOL     OW  156   1.293   1.228   3.285
  244SOL    HW1  157   1.330   1.155   3.227
  244SOL    HW2  158   1.345   1.233   3.370
  247SOL     OW  159   1.525   0.999   2.052
  247SOL    HW1  160   1.462   0.923   2.065
  247SOL    HW2  161   1.573   1.017   2.138
  248SOL     OW  162   1.187   1.792   3.478
  248SOL    HW1  163   1.211   1.852   3.402
  248SOL    HW2  164   1.194   1.697   3.448
  250SOL     OW  165   1.466   1.417   2.815
  250SOL    HW1  166   1.407   1.423   2.895
  250SOL    HW2  167   1.451   1.329   2.769
  251SOL     OW  168   1.667   1.714   2.434
  251SOL    HW1  169   1.626   1.691   2.346
  251SOL    HW2  170   1.649   1.640   2.499
  254SOL     OW  171   1.576   1.662   2.169
  254SOL    HW1  172   1.665   1.708   2.172
  254SOL    HW2  173   1.555   1.638   2.074
  264SOL     OW  174   1.362   1.144   2.407
  264SOL    HW1  175   1.445   1.115   2.359
  264SOL    HW2  176   1.313   1.211   2.351
  266SOL     OW  177   1.008   1.456   2.339
  266SOL    HW1  178   0.962   1.528   2.287
  266SOL    HW2  179   1.004   1.476   2.437
  268SOL     OW  180   1.795   1.066   2.735
  268SOL    HW1  181   1.733   1.051   2.659
  268SOL    HW2  182   1.743   1.077   2.820
  269SOL     OW  183   1.227   1.550   3.368
  269SOL    HW1  184   1.233   1.473   3.432
  269SOL    HW2  185   1.175   1.524   3.288
  271SOL     OW  186   1.458   0.735   2.590
  271SOL    HW1  187   1.453   0.670   2.665
  271SOL    HW2  188   1.538   0.794   2.603
  273SOL     OW  189   1.111   1.776   2.099
  273SOL    HW1  190   1.051   1.714   2.149
  273SOL    HW2  191   1.142   1.732   2.014
  275SOL     OW  192   1.632   1.377   1.943
  275SOL    HW1  193   1.600   1.471   1.933
  275SOL    HW2  194   1.556   1.314   1.931
  276SOL     OW  195   0.464   1.743   2.185
  276SOL    HW1  196   0.497   1.782   2.271
  276SOL    HW2  197   0.540   1.736   2.120
  279SOL     OW  198   0.940   1.698   2.766
  279SOL    HW1  199   1.020   1.641   2.787
  279SOL    HW2  200   0.891   1.658   2.689
  284SOL     OW  201   0.888   1.514   3.057
  284SOL    HW1  202   0.865   1.489   2.963
  284SOL    HW2  203   0.949   1.445   3.096
  286SOL     OW  204   0.803   1.402   2.786
  286SOL    HW1  205   0.893   1.416   2.744
  286SOL    HW2  206   0.732   1.404   2.715
  289SOL     OW  207   1.434   1.188   1.903
  289SOL    HW1  208   1.466   1.112   1.960
  289SOL    HW2  209   1.342   1.215   1.933
  293SOL     OW  210   1.227   1.570   2.655
  293SOL    HW1  211   1.248   1.644   2.590
  293SOL    HW2  212   1.295   1.570   2.728
  295SOL     OW  213   1.271   1.797   2.453
  295SOL    HW1  214   1.315   1.861   2.389
  295SOL    HW2  215   1.221   1.849   2.523
  301SOL     OW  216   1.429   1.173   2.729
  301SOL    HW1  217   1.374   1.089   2.722
  301SOL    HW2  218   1.455   1.202   2.637
  303SOL     OW  219   1.857   0.833   2.239
  303SOL    HW1  220   1.899   0.769   2.303
  303SOL    HW2  221   1.819   0.782   2.161
  305SOL     OW  222   1.664   1.280   2.519
  305SOL    HW1  223   1.763   1.288   2.533
  305SOL    HW2  224   1.619   1.364   2.550
  306SOL     OW  225   1.390   0.575   1.940
  306SOL    HW1  226   1.336   0.554   2.021
  306SOL    HW2  227   1.481   0.534   1.949
  308SOL     OW  228   1.754   1.223   3.450
  308SOL    HW1  229   1.845   1.184   3.437
  308SOL    HW2  230   1.762   1.319   3.474
  309SOL     OW  231   1.064   1.347   3.202
  309SOL    HW1  232   0.984   1.324   3.257
  309SOL    HW2  233   1.147   1.321   3.251
  310SOL     OW  234   1.592   1.629   3.487
  310SOL    HW1  235   1.619   1.663   3.397
  310SOL    HW2  236   1.671   1.591   3.533
  311SOL     OW  237   1.111   1.195   2.962
  311SOL    HW1  238   1.071   1.239   3.043
  311SOL    HW2  239   1.070   1.232   2.879
  312SOL     OW  240   1.638   1.099   2.941
  312SOL    HW1  241   1.643   1.180   3.000
  312SOL    HW2  242   1.552   1.101   2.890
  321SOL     OW  243   1.252   1.348   2.250
  321SOL    HW1  244   1.302   1.425   2.290
  321SOL    HW2  245   1.157   1.350   2.282
  322SOL     OW  246   1.272   1.445   3.004
  322SOL    HW1  247   1.319   1.458   3.091
  322SOL    HW2  248   1.206   1.371   3.013
  323SOL     OW  249   1.582   0.639   2.334
  323SOL    HW1  250   1.551   0.700   2.407
  323SOL    HW2  251   1.632   0.691   2.265
  330SOL     OW  252   1.360   0.862   2.907
  330SOL    HW1  253   1.285   0.862   2.841
  330SOL    HW2  254   1.397   0.770   2.916
  340SOL     OW  255   1.859   1.518   3.467
  340SOL    HW1  256   1.873   1.545   3.372
  340SOL    HW2  257   1.942   1.540   3.520
  343SOL     OW  258   1.303   0.838   1.904
  343SOL    HW1  259   1.337   0.745   1.919
  343SOL    HW2  260   1.321   0.865   1.809
  344SOL     OW  261   1.068   1.333   2.711
  344SOL    HW1  262   1.075   1.249   2.656
  344SOL    HW2  263   1.130   1.402   2.675
  360SOL     OW  264   0.930   1.678   3.327
  360SOL    HW1  265   0.906   1.660   3.232
  360SOL    HW2  266   0.960   1.772   3.337
  363SOL     OW  267   1.347   1.059   3.096
  363SOL    HW1  268   1.371   0.996   3.022
  363SOL    HW2  269   1.257   1.099   3.078
  364SOL     OW  270   1.302   0.855   2.171
  364SOL    HW1  271   1.216   0.824   2.213
  364SOL    HW2  272   1.298   0.841   2.072
  365SOL     OW  273   1.759   1.747   3.016
  365SOL    HW1  274   1.820   1.777   2.943
  365SOL    HW2  275   1.721   1.658   2.994
  366SOL     OW  276   1.252   1.731   2.990
  366SOL    HW1  277   1.336   1.736   2.936
  366SOL    HW2  278   1.229   1.635   3.008
  370SOL     OW  279   1.388   1.573   2.339
  370SOL    HW1  280   1.455   1.585   2.265
  370SOL    HW2  281   1.348   1.662   2.362
  372SOL     OW  282   1.280   0.927   2.534
  372SOL    HW1  283   1.340   0.846   2.536
  372SOL    HW2  284   1.320   0.996   2.474
  374SOL     OW  285   0.672   1.616   2.016
  374SOL    HW1  286   0.681   1.626   1.917
  374SOL    HW2  287   0.632   1.527   2.037
  375SOL     OW  288   1.650   1.720   3.256
  375SOL    HW1  289   1.703   1.730   3.172
  375SOL    HW2  290   1.623   1.810   3.290
  378SOL     OW  291   1.194   1.612   1.893
  378SOL    HW1  292   1.200   1.519   1.930
  378SOL    HW2  293   1.135   1.612   1.813
  380SOL     OW  294   0.916   0.910   2.153
  380SOL    HW1  295   0.979   0.948   2.085
  380SOL    HW2  296   0.956   0.827   2.192
  381SOL     OW  297   1.504   1.607   1.906
  381SOL    HW1  298   1.412   1.644   1.913
  381SOL    HW2  299   1.542   1.627   1.816
  383SOL     OW  300   1.614   1.292   3.151
  383SOL    HW1  301   1.674   1.295   3.231
  383SOL    HW2  302   1.539   1.356   3.164
  384SOL     OW  303   1.039   1.098   2.558
  384SOL    HW1  304   0.969   1.051   2.612
  384SOL    HW2  305   1.098   1.030   2.515
  386SOL     OW  306   0.590   1.487   2.353
  386SOL    HW1  307   0.632   1.429   2.283
  386SOL    HW2  308   0.546   1.566   2.309
  394SOL     OW  309   1.183   1.335   1.981
  394SOL    HW1  310   1.084   1.324   1.983
  394SOL    HW2  311   1.217   1.350   2.074
  396SOL     OW  312   1.493   1.767   2.821
  396SOL    HW1  313   1.526   1.831   2.752
  396SOL    HW2  314   1.559   1.761   2.896
  398SOL     OW  315   1.450   1.220   3.495
  398SOL    HW1  316   1.441   1.210   3.594
  398SOL    HW2  317   1.546   1.213   3.469
  400SOL     OW  318   1.674   0.883   3.116
  400SOL    HW1  319   1.647   0.794   3.079
  400SOL    HW2  320   1.675   0.951   3.043
  404SOL     OW  321   1.730   0.934   3.379
  404SOL    HW1  322   1.768   1.025   3.394
  404SOL    HW2  323   1.722   0.917   3.280
  405SOL     OW  324   0.859   1.374   1.878
  405SOL    HW1  325   0.813   1.389   1.966
  405SOL    HW2  326   0.903   1.459   1.848
  406SOL     OW  327   0.661   1.790   2.815
  406SOL    HW1  328   0.615   1.878   2.802
  406SOL    HW2  329   0.760   1.802   2.808
  408SOL     OW  330   1.083   0.984   1.949
  408SOL    HW1  331   1.060   1.037   1.867
  408SOL    HW2  332   1.164   0.928   1.930
  409SOL     OW  333   1.861   1.569   2.713
  409SOL    HW1  334   1.790   1.557   2.643
  409SOL    HW2  335   1.862   1.490   2.773
  415SOL     OW  336   1.705   1.487   2.966
  415SOL    HW1  337   1.612   1.462   2.939
  415SOL    HW2  338   1.731   1.437   3.048
  417SOL     OW  339   0.812   1.586   2.549
  417SOL    HW1  340   0.844   1.596   2.455
  417SOL    HW2  341   0.733   1.524   2.551
  420SOL     OW  342   0.770   1.330   2.163
  420SOL    HW1  343   0.724   1.243   2.180
  420SOL    HW2  344   0.861   1.327   2.204
  426SOL     OW  345   0.875   1.646   2.199
  426SOL    HW1  346   0.798   1.611   2.145
  426SOL    HW2  347   0.843   1.717   2.261
  496SOL     OW  348   0.850   2.660   1.823
  496SOL    HW1  349   0.846   2.736   1.888
  496SOL    HW2  350   0.872   2.696   1.732
  498SOL     OW  351   0.686   3.023   1.803
  498SOL    HW1  352   0.746   3.102   1.817
  498SOL    HW2  353   0.600   3.054   1.762
  500SOL     OW  354   1.460   3.367   1.339
  500SOL    HW1  355   1.484   3.461   1.365
  500SOL    HW2  356   1.444   3.313   1.421
  502SOL     OW  357   1.603   2.309   0.737
  502SOL    HW1  358   1.529   2.355   0.687
  502SOL    HW2  359   1.654   2.377   0.790
  504SOL     OW  360   1.127   3.203   1.690
  504SOL    HW1  361   1.174   3.203   1.778
  504SOL    HW2  362   1.079   3.116   1.679
  509SOL     OW  363   1.594   1.976   1.480
  509SOL    HW1  364   1.576   2.043   1.408
  509SOL    HW2  365   1.591   2.022   1.569
  513SOL     OW  366   1.689   2.784   0.612
  513SOL    HW1  367   1.784   2.755   0.620
  513SOL    HW2  368   1.681   2.849   0.537
  517SOL     OW  369   1.293   3.090   1.423
  517SOL    HW1  370   1.330   3.017   1.365
  517SOL    HW2  371   1.345   3.095   1.508
  523SOL     OW  372   1.466   3.279   0.953
  523SOL    HW1  373   1.407   3.285   1.033
  523SOL    HW2  374   1.451   3.191   0.907
  526SOL     OW  375   1.281   2.207   0.944
  526SOL    HW1  376   1.195   2.157   0.931
  526SOL    HW2  377   1.343   2.153   1.000
  528SOL     OW  378   0.807   2.467   1.465
  528SOL    HW1  379   0.760   2.464   1.554
  528SOL    HW2  380   0.756   2.412   1.399
  529SOL     OW  381   1.394   2.331   1.674
  529SOL    HW1  382   1.374   2.374   1.762
  529SOL    HW2  383   1.472   2.269   1.683
  530SOL     OW  384   0.973   2.752   1.572
  530SOL    HW1  385   1.019   2.668   1.543
  530SOL    HW2  386   0.917   2.786   1.497
  531SOL     OW  387   0.991   2.272   1.242
  531SOL    HW1  388   0.914   2.306   1.296
  531SOL    HW2  389   0.957   2.221   1.163
  536SOL     OW  390   1.719   2.447   1.831
  536SOL    HW1  391   1.693   2.536   1.795
  536SOL    HW2  392   1.717   2.379   1.758
  541SOL     OW  393   1.795   2.928   0.873
  541SOL    HW1  394   1.733   2.913   0.797
  541SOL    HW2  395   1.743   2.939   0.958
  542SOL     OW  396   1.227   3.412   1.506
  542SOL    HW1  397   1.233   3.335   1.570
  542SOL    HW2  398   1.175   3.386   1.426
  544SOL     OW  399   1.458   2.597   0.728
  544SOL    HW1  400   1.453   2.532   0.803
  544SOL    HW2  401   1.538   2.656   0.741
  554SOL     OW  402   1.547   2.084   1.729
  554SOL    HW1  403   1.542   2.121   1.821
  554SOL    HW2  404   1.475   2.015   1.717
  556SOL     OW  405   0.781   2.126   1.749
  556SOL    HW1  406   0.848   2.065   1.792
  556SOL    HW2  407   0.708   2.145   1.814
  558SOL     OW  408   1.351   2.452   1.433
  558SOL    HW1  409   1.379   2.409   1.518
  558SOL    HW2  410   1.376   2.548   1.434
  560SOL     OW  411   0.922   2.365   0.899
  560SOL    HW1  412   0.897   2.356   0.803
  560SOL    HW2  413   0.970   2.283   0.930
  565SOL     OW  414   1.076   2.545   1.464
  565SOL    HW1  415   0.996   2.484   1.467
  565SOL    HW2  416   1.157   2.492   1.440
  574SOL     OW  417   1.429   3.035   0.867
  574SOL    HW1  418   1.374   2.951   0.860
  574SOL    HW2  419   1.455   3.064   0.775
  575SOL     OW  420   1.466   2.452   0.992
  575SOL    HW1  421   1.436   2.357   0.999
  575SOL    HW2  422   1.539   2.468   1.058
  581SOL     OW  423   1.754   3.085   1.588
  581SOL    HW1  424   1.845   3.046   1.575
  581SOL    HW2  425   1.762   3.181   1.612
  582SOL     OW  426   1.064   3.209   1.340
  582SOL    HW1  427   0.984   3.186   1.395
  582SOL    HW2  428   1.147   3.183   1.389
  583SOL     OW  429   1.592   3.491   1.625
  583SOL    HW1  430   1.619   3.525   1.535
  583SOL    HW2  431   1.671   3.453   1.671
  584SOL     OW  432   1.111   3.057   1.100
  584SOL    HW1  433   1.071   3.101   1.181
  584SOL    HW2  434   1.070   3.094   1.017
  585SOL     OW  435   1.638   2.961   1.079
  585SOL    HW1  436   1.643   3.042   1.138
  585SOL    HW2  437   1.552   2.963   1.028
  586SOL     OW  438   0.915   1.951   1.402
  586SOL    HW1  439   0.940   1.931   1.307
  586SOL    HW2  440   0.987   2.007   1.444
  587SOL     OW  441   0.980   2.978   1.719
  587SOL    HW1  442   0.881   2.984   1.729
  587SOL    HW2  443   1.003   2.898   1.663
  590SOL     OW  444   1.274   2.248   1.262
  590SOL    HW1  445   1.295   2.322   1.326
  590SOL    HW2  446   1.185   2.265   1.219
  595SOL     OW  447   1.272   3.307   1.142
  595SOL    HW1  448   1.319   3.320   1.229
  595SOL    HW2  449   1.206   3.233   1.151
  599SOL     OW  450   1.587   2.641   1.670
  599SOL    HW1  451   1.495   2.679   1.665
  599SOL    HW2  452   1.647   2.688   1.605
  600SOL     OW  453   1.013   1.967   1.770
  600SOL    HW1  454   1.019   2.052   1.718
  600SOL    HW2  455   1.045   1.891   1.713
  601SOL     OW  456   0.504   1.912   1.740
  601SOL    HW1  457   0.462   1.855   1.670
  601SOL    HW2  458   0.438   1.981   1.772
  603SOL     OW  459   1.360   2.724   1.045
  603SOL    HW1  460   1.285   2.724   0.979
  603SOL    HW2  461   1.397   2.632   1.054
  608SOL     OW  462   1.728   2.797   1.854
  608SOL    HW1  463   1.682   2.790   1.765
  608SOL    HW2  464   1.666   2.841   1.920
  611SOL     OW  465   1.023   2.628   0.966
  611SOL    HW1  466   1.038   2.649   1.062
  611SOL    HW2  467   0.993   2.533   0.957
  612SOL     OW  468   0.980   3.435   1.700
  612SOL    HW1  469   0.960   3.479   1.612
  612SOL    HW2  470   1.019   3.344   1.684
  613SOL     OW  471   1.859   3.380   1.605
  613SOL    HW1  472   1.873   3.407   1.510
  613SOL    HW2  473   1.942   3.402   1.658
  620SOL     OW  474   1.138   2.242   1.678
  620SOL    HW1  475   1.093   2.305   1.742
  620SOL    HW2  476   1.231   2.273   1.661
  621SOL     OW  477   1.160   2.069   1.477
  621SOL    HW1  478   1.160   2.133   1.554
  621SOL    HW2  479   1.188   2.117   1.394
  625SOL     OW  480   1.002   2.658   1.238
  625SOL    HW1  481   1.043   2.626   1.324
  625SOL    HW2  482   0.906   2.631   1.235
  628SOL     OW  483   1.369   2.812   1.660
  628SOL    HW1  484   1.408   2.901   1.680
  628SOL    HW2  485   1.379   2.792   1.563
  630SOL     OW  486   1.657   2.466   1.206
  630SOL    HW1  487   1.619   2.397   1.268
  630SOL    HW2  488   1.739   2.430   1.162
  632SOL     OW  489   0.671   2.326   1.269
  632SOL    HW1  490   0.637   2.237   1.239
  632SOL    HW2  491   0.697   2.380   1.189
  636SOL     OW  492   1.347   2.921   1.234
  636SOL    HW1  493   1.371   2.858   1.160
  636SOL    HW2  494   1.257   2.961   1.216
  643SOL     OW  495   1.726   1.997   0.523
  643SOL    HW1  496   1.799   1.980   0.456
  643SOL    HW2  497   1.695   1.910   0.561
  649SOL     OW  498   1.650   3.582   1.394
  649SOL    HW1  499   1.703   3.592   1.310
  649SOL    HW2  500   1.623   3.672   1.428
  650SOL     OW  501   1.841   2.037   0.963
  650SOL    HW1  502   1.880   1.952   0.927
  650SOL    HW2  503   1.743   2.039   0.944
  653SOL     OW  504   0.822   2.864   1.372
  653SOL    HW1  505   0.862   2.863   1.280
  653SOL    HW2  506   0.832   2.956   1.412
  657SOL     OW  507   1.614   3.154   1.289
  657SOL    HW1  508   1.674   3.157   1.369
  657SOL    HW2  509   1.539   3.218   1.302
  659SOL     OW  510   1.014   2.098   0.971
  659SOL    HW1  511   1.006   2.062   0.878
  659SOL    HW2  512   1.012   2.022   1.036
  661SOL     OW  513   1.709   2.247   1.381
  661SOL    HW1  514   1.782   2.316   1.385
  661SOL    HW2  515   1.737   2.172   1.322
  664SOL     OW  516   0.672   2.065   1.489
  664SOL    HW1  517   0.762   2.049   1.449
  664SOL    HW2  518   0.680   2.070   1.588
  666SOL     OW  519   1.440   2.718   1.398
  666SOL    HW1  520   1.383   2.770   1.335
  666SOL    HW2  521   1.536   2.730   1.374
  669SOL     OW  522   0.613   2.704   1.431
  669SOL    HW1  523   0.669   2.785   1.414
  669SOL    HW2  524   0.672   2.624   1.434
  671SOL     OW  525   0.716   2.427   1.708
  671SOL    HW1  526   0.735   2.492   1.782
  671SOL    HW2  527   0.776   2.347   1.717
  672SOL     OW  528   1.450   3.082   1.633
  672SOL    HW1  529   1.441   3.072   1.732
  672SOL    HW2  530   1.546   3.075   1.607
  674SOL     OW  531   1.674   2.745   1.254
  674SOL    HW1  532   1.647   2.656   1.217
  674SOL    HW2  533   1.675   2.813   1.181
  677SOL     OW  534   1.777   2.204   1.642
  677SOL    HW1  535   1.760   2.235   1.548
  677SOL    HW2  536   1.693   2.167   1.680
  678SOL     OW  537   1.730   2.796   1.517
  678SOL    HW1  538   1.768   2.887   1.532
  678SOL    HW2  539   1.722   2.779   1.418
  687SOL     OW  540   1.824   2.054   1.227
  687SOL    HW1  541   1.820   1.964   1.271
  687SOL    HW2  542   1.827   2.043   1.128
  689SOL     OW  543   1.705   3.349   1.104
  689SOL    HW1  544   1.612   3.324   1.077
  689SOL    HW2  545   1.731   3.299   1.186
  692SOL     OW  546   1.424   2.076   1.112
  692SOL    HW1  547   1.476   2.011   1.167
  692SOL    HW2  548   1.375   2.139   1.173
  693SOL     OW  549   1.001   1.896   1.154
  693SOL    HW1  550   0.938   1.824   1.123
  693SOL    HW2  551   1.094   1.860   1.154
  697SOL     OW  552   1.300   2.315   0.691
  697SOL    HW1  553   1.241   2.395   0.695
  697SOL    HW2  554   1.315   2.280   0.784
  698SOL     OW  555   1.593   2.083   0.882
  698SOL    HW1  556   1.509   2.082   0.936
  698SOL    HW2  557   1.595   2.166   0.826
  705SOL     OW  558   1.555   3.373   2.565
  705SOL    HW1  559   1.498   3.357   2.646
  705SOL    HW2  560   1.496   3.383   2.485
  706SOL     OW  561   1.135   2.565   2.579
  706SOL    HW1  562   1.192   2.643   2.554
  706SOL    HW2  563   1.075   2.591   2.655
  707SOL     OW  564   1.755   2.469   2.093
  707SOL    HW1  565   1.743   2.456   1.994
  707SOL    HW2  566   1.725   2.388   2.142
  708SOL     OW  567   0.768   3.006   2.885
  708SOL    HW1  568   0.690   3.023   2.945
  708SOL    HW2  569   0.802   3.093   2.849
  710SOL     OW  570   0.685   2.874   2.527
  710SOL    HW1  571   0.754   2.858   2.597
  710SOL    HW2  572   0.612   2.931   2.565
  713SOL     OW  573   1.460   3.367   3.201
  713SOL    HW1  574   1.484   3.461   3.227
  713SOL    HW2  575   1.444   3.313   3.283
  715SOL     OW  576   1.603   2.309   2.599
  715SOL    HW1  577   1.529   2.355   2.549
  715SOL    HW2  578   1.654   2.377   2.652
  721SOL     OW  579   0.606   2.826   1.985
  721SOL    HW1  580   0.613   2.910   1.931
  721SOL    HW2  581   0.652   2.839   2.073
  722SOL     OW  582   1.594   1.976   3.342
  722SOL    HW1  583   1.576   2.043   3.270
  722SOL    HW2  584   1.591   2.022   3.431
  724SOL     OW  585   1.842   3.629   2.221
  724SOL    HW1  586   1.896   3.600   2.301
  724SOL    HW2  587   1.872   3.719   2.192
  726SOL     OW  588   1.689   2.784   2.474
  726SOL    HW1  589   1.784   2.755   2.482
  726SOL    HW2  590   1.681   2.849   2.399
  727SOL     OW  591   1.641   2.970   2.294
  727SOL    HW1  592   1.727   2.972   2.242
  727SOL    HW2  593   1.655   3.017   2.382
  730SOL     OW  594   1.293   3.090   3.285
  730SOL    HW1  595   1.330   3.017   3.227
  730SOL    HW2  596   1.345   3.095   3.370
  731SOL     OW  597   0.809   1.866   2.364
  731SOL    HW1  598   0.849   1.957   2.355
  731SOL    HW2  599   0.709   1.874   2.370
  733SOL     OW  600   1.525   2.861   2.052
  733SOL    HW1  601   1.462   2.785   2.065
  733SOL    HW2  602   1.573   2.879   2.138
  736SOL     OW  603   1.466   3.279   2.815
  736SOL    HW1  604   1.407   3.285   2.895
  736SOL    HW2  605   1.451   3.191   2.769
  737SOL     OW  606   1.667   3.576   2.434
  737SOL    HW1  607   1.626   3.553   2.346
  737SOL    HW2  608   1.649   3.502   2.499
  738SOL     OW  609   0.598   2.591   2.132
  738SOL    HW1  610   0.622   2.660   2.064
  738SOL    HW2  611   0.520   2.624   2.186
  739SOL     OW  612   1.281   2.207   2.806
  739SOL    HW1  613   1.195   2.157   2.793
  739SOL    HW2  614   1.343   2.153   2.862
  740SOL     OW  615   1.576   3.524   2.169
  740SOL    HW1  616   1.665   3.570   2.172
  740SOL    HW2  617   1.555   3.500   2.074
  742SOL     OW  618   1.394   2.331   3.536
  742SOL    HW1  619   1.374   2.374   3.624
  742SOL    HW2  620   1.472   2.269   3.545
  744SOL     OW  621   0.991   2.272   3.104
  744SOL    HW1  622   0.914   2.306   3.158
  744SOL    HW2  623   0.957   2.221   3.025
  745SOL     OW  624   1.041   2.563   2.291
  745SOL    HW1  625   1.067   2.559   2.387
  745SOL    HW2  626   0.956   2.512   2.277
  748SOL     OW  627   0.865   2.210   2.057
  748SOL    HW1  628   0.924   2.273   2.008
  748SOL    HW2  629   0.884   2.116   2.028
  749SOL     OW  630   1.719   2.447   3.693
  749SOL    HW1  631   1.693   2.536   3.657
  749SOL    HW2  632   1.717   2.379   3.620
  750SOL     OW  633   1.362   3.006   2.407
  750SOL    HW1  634   1.445   2.977   2.359
  750SOL    HW2  635   1.313   3.073   2.351
  751SOL     OW  636   0.550   2.058   2.747
  751SOL    HW1  637   0.545   2.053   2.847
  751SOL    HW2  638   0.552   2.154   2.718
  752SOL     OW  639   1.008   3.318   2.339
  752SOL    HW1  640   0.962   3.390   2.287
  752SOL    HW2  641   1.004   3.338   2.437
  754SOL     OW  642   1.795   2.928   2.735
  754SOL    HW1  643   1.733   2.913   2.659
  754SOL    HW2  644   1.743   2.939   2.820
  757SOL     OW  645   1.458   2.597   2.590
  757SOL    HW1  646   1.453   2.532   2.665
  757SOL    HW2  647   1.538   2.656   2.603
  761SOL     OW  648   1.632   3.239   1.943
  761SOL    HW1  649   1.600   3.333   1.933
  761SOL    HW2  650   1.556   3.176   1.931
  763SOL     OW  651   1.400   1.969   2.288
  763SOL    HW1  652   1.376   1.932   2.198
  763SOL    HW2  653   1.499   1.985   2.292
  767SOL     OW  654   1.547   2.084   3.591
  767SOL    HW1  655   1.542   2.121   3.683
  767SOL    HW2  656   1.475   2.015   3.579
  768SOL     OW  657   0.614   1.984   1.979
  768SOL    HW1  658   0.712   1.962   1.986
  768SOL    HW2  659   0.583   1.967   1.886
  771SOL     OW  660   1.351   2.452   3.295
  771SOL    HW1  661   1.379   2.409   3.380
  771SOL    HW2  662   1.376   2.548   3.296
  773SOL     OW  663   0.922   2.365   2.761
  773SOL    HW1  664   0.897   2.356   2.665
  773SOL    HW2  665   0.970   2.283   2.792
  774SOL     OW  666   0.539   1.926   2.374
  774SOL    HW1  667   0.458   1.927   2.432
  774SOL    HW2  668   0.542   2.009   2.319
  775SOL     OW  669   1.434   3.050   1.903
  775SOL    HW1  670   1.466   2.974   1.960
  775SOL    HW2  671   1.342   3.077   1.933
  777SOL     OW  672   0.935   2.098   2.342
  777SOL    HW1  673   0.887   2.139   2.264
  777SOL    HW2  674   1.034   2.096   2.323
  778SOL     OW  675   1.076   2.545   3.326
  778SOL    HW1  676   0.996   2.484   3.329
  778SOL    HW2  677   1.157   2.492   3.302
  779SOL     OW  678   1.227   3.432   2.655
  779SOL    HW1  679   1.248   3.506   2.590
  779SOL    HW2  680   1.295   3.432   2.728
  781SOL     OW  681   1.271   3.659   2.453
  781SOL    HW1  682   1.315   3.723   2.389
  781SOL    HW2  683   1.221   3.711   2.523
  782SOL     OW  684   1.032   2.411   1.878
  782SOL    HW1  685   0.991   2.493   1.839
  782SOL    HW2  686   1.096   2.437   1.951
  785SOL     OW  687   0.866   2.316   2.504
  785SOL    HW1  688   0.834   2.388   2.442
  785SOL    HW2  689   0.890   2.235   2.451
  786SOL     OW  690   1.017   1.901   2.615
  786SOL    HW1  691   0.945   1.906   2.546
  786SOL    HW2  692   0.993   1.832   2.684
  787SOL     OW  693   1.429   3.035   2.729
  787SOL    HW1  694   1.374   2.951   2.722
  787SOL    HW2  695   1.455   3.064   2.637
  788SOL     OW  696   1.466   2.452   2.854
  788SOL    HW1  697   1.436   2.357   2.861
  788SOL    HW2  698   1.539   2.468   2.920
  789SOL     OW  699   1.857   2.695   2.239
  789SOL    HW1  700   1.899   2.631   2.303
  789SOL    HW2  701   1.819   2.644   2.161
  791SOL     OW  702   1.664   3.142   2.519
  791SOL    HW1  703   1.763   3.150   2.533
  791SOL    HW2  704   1.619   3.226   2.550
  792SOL     OW  705   1.390   2.437   1.940
  792SOL    HW1  706   1.336   2.416   2.021
  792SOL    HW2  707   1.481   2.396   1.949
  793SOL     OW  708   0.527   2.118   2.190
  793SOL    HW1  709   0.554   2.059   2.115
  793SOL    HW2  710   0.527   2.213   2.159
  794SOL     OW  711   1.754   3.085   3.450
  794SOL    HW1  712   1.845   3.046   3.437
  794SOL    HW2  713   1.762   3.181   3.474
  797SOL     OW  714   1.111   3.057   2.962
  797SOL    HW1  715   1.071   3.101   3.043
  797SOL    HW2  716   1.070   3.094   2.879
  798SOL     OW  717   1.638   2.961   2.941
  798SOL    HW1  718   1.643   3.042   3.000
  798SOL    HW2  719   1.552   2.963   2.890
  799SOL     OW  720   0.915   1.951   3.264
  799SOL    HW1  721   0.940   1.931   3.169
  799SOL    HW2  722   0.987   2.007   3.306
  801SOL     OW  723   0.705   2.912   2.230
  801SOL    HW1  724   0.691   2.919   2.329
  801SOL    HW2  725   0.789   2.861   2.212
  803SOL     OW  726   1.274   2.248   3.124
  803SOL    HW1  727   1.295   2.322   3.188
  803SOL    HW2  728   1.185   2.265   3.081
  806SOL     OW  729   0.566   2.399   2.727
  806SOL    HW1  730   0.578   2.465   2.653
  806SOL    HW2  731   0.612   2.433   2.810
  807SOL     OW  732   1.252   3.210   2.250
  807SOL    HW1  733   1.302   3.287   2.290
  807SOL    HW2  734   1.157   3.212   2.282
  808SOL     OW  735   1.272   3.307   3.004
  808SOL    HW1  736   1.319   3.320   3.091
  808SOL    HW2  737   1.206   3.233   3.013
  809SOL     OW  738   1.582   2.501   2.334
  809SOL    HW1  739   1.551   2.562   2.407
  809SOL    HW2  740   1.632   2.553   2.265
  812SOL     OW  741   1.587   2.641   3.532
  812SOL    HW1  742   1.495   2.679   3.527
  812SOL    HW2  743   1.647   2.688   3.467
  816SOL     OW  744   1.360   2.724   2.907
  816SOL    HW1  745   1.285   2.724   2.841
  816SOL    HW2  746   1.397   2.632   2.916
  817SOL     OW  747   1.209   2.387   2.137
  817SOL    HW1  748   1.222   2.303   2.191
  817SOL    HW2  749   1.180   2.461   2.197
  820SOL     OW  750   0.732   2.496   2.926
  820SOL    HW1  751   0.791   2.470   2.850
  820SOL    HW2  752   0.704   2.592   2.915
  821SOL     OW  753   1.728   2.797   3.716
  821SOL    HW1  754   1.682   2.790   3.627
  821SOL    HW2  755   1.666   2.841   3.782
  823SOL     OW  756   1.622   2.229   2.236
  823SOL    HW1  757   1.624   2.153   2.300
  823SOL    HW2  758   1.574   2.306   2.276
  824SOL     OW  759   1.023   2.628   2.828
  824SOL    HW1  760   1.038   2.649   2.924
  824SOL    HW2  761   0.993   2.533   2.819
  828SOL     OW  762   1.540   2.136   1.987
  828SOL    HW1  763   1.479   2.061   2.010
  828SOL    HW2  764   1.562   2.188   2.070
  829SOL     OW  765   1.303   2.700   1.904
  829SOL    HW1  766   1.337   2.607   1.919
  829SOL    HW2  767   1.321   2.727   1.809
  830SOL     OW  768   1.068   3.195   2.711
  830SOL    HW1  769   1.075   3.111   2.656
  830SOL    HW2  770   1.130   3.264   2.675
  833SOL     OW  771   1.138   2.242   3.540
  833SOL    HW1  772   1.093   2.305   3.604
  833SOL    HW2  773   1.231   2.273   3.523
  834SOL     OW  774   1.160   2.069   3.339
  834SOL    HW1  775   1.160   2.133   3.416
  834SOL    HW2  776   1.188   2.117   3.256
  838SOL     OW  777   1.002   2.658   3.100
  838SOL    HW1  778   1.043   2.626   3.186
  838SOL    HW2  779   0.906   2.631   3.097
  841SOL     OW  780   1.369   2.812   3.522
  841SOL    HW1  781   1.408   2.901   3.542
  841SOL    HW2  782   1.379   2.792   3.425
  842SOL     OW  783   0.815   2.434   2.187
  842SOL    HW1  784   0.822   2.345   2.141
  842SOL    HW2  785   0.721   2.468   2.179
  843SOL     OW  786   1.657   2.466   3.068
  843SOL    HW1  787   1.619   2.397   3.130
  843SOL    HW2  788   1.739   2.430   3.024
  845SOL     OW  789   0.671   2.326   3.131
  845SOL    HW1  790   0.637   2.237   3.101
  845SOL    HW2  791   0.697   2.380   3.051
  847SOL     OW  792   0.473   2.362   2.053
  847SOL    HW1  793   0.534   2.442   2.057
  847SOL    HW2  794   0.378   2.393   2.060
  849SOL     OW  795   1.347   2.921   3.096
  849SOL    HW1  796   1.371   2.858   3.022
  849SOL    HW2  797   1.257   2.961   3.078
  850SOL     OW  798   1.302   2.717   2.171
  850SOL    HW1  799   1.216   2.686   2.213
  850SOL    HW2  800   1.298   2.703   2.072
  851SOL     OW  801   1.759   3.609   3.016
  851SOL    HW1  802   1.820   3.639   2.943
  851SOL    HW2  803   1.721   3.520   2.994
  855SOL     OW  804   1.726   1.997   2.385
  855SOL    HW1  805   1.799   1.980   2.318
  855SOL    HW2  806   1.695   1.910   2.423
  856SOL     OW  807   1.388   3.435   2.339
  856SOL    HW1  808   1.455   3.447   2.265
  856SOL    HW2  809   1.348   3.524   2.362
  858SOL     OW  810   1.280   2.789   2.534
  858SOL    HW1  811   1.340   2.708   2.536
  858SOL    HW2  812   1.320   2.858   2.474
  862SOL     OW  813   1.841   2.037   2.825
  862SOL    HW1  814   1.880   1.952   2.789
  862SOL    HW2  815   1.743   2.039   2.806
  864SOL     OW  816   1.194   3.474   1.893
  864SOL    HW1  817   1.200   3.381   1.930
  864SOL    HW2  818   1.135   3.474   1.813
  866SOL     OW  819   0.916   2.772   2.153
  866SOL    HW1  820   0.979   2.810   2.085
  866SOL    HW2  821   0.956   2.689   2.192
  867SOL     OW  822   1.504   3.469   1.906
  867SOL    HW1  823   1.412   3.506   1.913
  867SOL    HW2  824   1.542   3.489   1.816
  869SOL     OW  825   1.614   3.154   3.151
  869SOL    HW1  826   1.674   3.157   3.231
  869SOL    HW2  827   1.539   3.218   3.164
  870SOL     OW  828   1.039   2.960   2.558
  870SOL    HW1  829   0.969   2.913   2.612
  870SOL    HW2  830   1.098   2.892   2.515
  871SOL     OW  831   1.014   2.098   2.833
  871SOL    HW1  832   1.006   2.062   2.740
  871SOL    HW2  833   1.012   2.022   2.898
  873SOL     OW  834   1.709   2.247   3.243
  873SOL    HW1  835   1.782   2.316   3.247
  873SOL    HW2  836   1.737   2.172   3.184
  878SOL     OW  837   1.440   2.718   3.260
  878SOL    HW1  838   1.383   2.770   3.197
  878SOL    HW2  839   1.536   2.730   3.236
  880SOL     OW  840   1.183   3.197   1.981
  880SOL    HW1  841   1.084   3.186   1.983
  880SOL    HW2  842   1.217   3.212   2.074
  882SOL     OW  843   1.493   3.629   2.821
  882SOL    HW1  844   1.526   3.693   2.752
  882SOL    HW2  845   1.559   3.623   2.896
  884SOL     OW  846   1.450   3.082   3.495
  884SOL    HW1  847   1.441   3.072   3.594
  884SOL    HW2  848   1.546   3.075   3.469
  886SOL     OW  849   1.674   2.745   3.116
  886SOL    HW1  850   1.647   2.656   3.079
  886SOL    HW2  851   1.675   2.813   3.043
  887SOL     OW  852   1.225   2.187   2.311
  887SOL    HW1  853   1.290   2.113   2.300
  887SOL    HW2  854   1.245   2.237   2.395
  888SOL     OW  855   0.594   2.607   2.514
  888SOL    HW1  856   0.644   2.692   2.495
  888SOL    HW2  857   0.506   2.609   2.466
  889SOL     OW  858   1.777   2.204   3.504
  889SOL    HW1  859   1.760   2.235   3.410
  889SOL    HW2  860   1.693   2.167   3.542
  890SOL     OW  861   1.730   2.796   3.379
  890SOL    HW1  862   1.768   2.887   3.394
  890SOL    HW2  863   1.722   2.779   3.280
  891SOL     OW  864   0.859   3.236   1.878
  891SOL    HW1  865   0.813   3.251   1.966
  891SOL    HW2  866   0.903   3.321   1.848
  893SOL     OW  867   0.859   2.818   2.723
  893SOL    HW1  868   0.913   2.749   2.771
  893SOL    HW2  869   0.827   2.887   2.789
  894SOL     OW  870   1.083   2.846   1.949
  894SOL    HW1  871   1.060   2.899   1.867
  894SOL    HW2  872   1.164   2.790   1.930
  895SOL     OW  873   1.861   3.431   2.713
  895SOL    HW1  874   1.790   3.419   2.643
  895SOL    HW2  875   1.862   3.352   2.773
  899SOL     OW  876   1.824   2.054   3.089
  899SOL    HW1  877   1.820   1.964   3.133
  899SOL    HW2  878   1.827   2.043   2.990
  900SOL     OW  879   0.428   2.286   2.382
  900SOL    HW1  880   0.458   2.214   2.320
  900SOL    HW2  881   0.389   2.246   2.465
  901SOL     OW  882   1.705   3.349   2.966
  901SOL    HW1  883   1.612   3.324   2.939
  901SOL    HW2  884   1.731   3.299   3.048
  904SOL     OW  885   1.424   2.076   2.974
  904SOL    HW1  886   1.476   2.011   3.029
  904SOL    HW2  887   1.375   2.139   3.035
  905SOL     OW  888   1.001   1.896   3.016
  905SOL    HW1  889   0.938   1.824   2.985
  905SOL    HW2  890   1.094   1.860   3.016
  906SOL     OW  891   0.770   3.192   2.163
  906SOL    HW1  892   0.724   3.105   2.180
  906SOL    HW2  893   0.861   3.189   2.204
  908SOL     OW  894   1.352   1.914   2.030
  908SOL    HW1  895   1.387   1.873   1.946
  908SOL    HW2  896   1.262   1.876   2.050
  909SOL     OW  897   1.300   2.315   2.553
  909SOL    HW1  898   1.241   2.395   2.557
  909SOL    HW2  899   1.315   2.280   2.646
  910SOL     OW  900   1.593   2.083   2.744
  910SOL    HW1  901   1.509   2.082   2.798
  910SOL    HW2  902   1.595   2.166   2.688
 1091SOL     OW  903   1.726   3.859   2.385
 1091SOL    HW1  904   1.799   3.842   2.318
 1091SOL    HW2  905   1.695   3.772   2.423
 1134SOL     OW  906   2.431   1.275   1.165
 1134SOL    HW1  907   2.338   1.268   1.128
 1134SOL    HW2  908   2.442   1.364   1.209
 1138SOL     OW  909   2.630   1.144   1.023
 1138SOL    HW1  910   2.552   1.161   1.083
 1138SOL    HW2  911   2.664   1.231   0.987
 1139SOL     OW  912   2.712   0.798   1.823
 1139SOL    HW1  913   2.708   0.874   1.888
 1139SOL    HW2  914   2.734   0.834   1.732
 1141SOL     OW  915   2.548   1.161   1.803
 1141SOL    HW1  916   2.608   1.240   1.817
 1141SOL    HW2  917   2.462   1.192   1.762
 1142SOL     OW  918   2.197   1.435   1.061
 1142SOL    HW1  919   2.119   1.404   1.008
 1142SOL    HW2  920   2.255   1.493   1.004
 1143SOL     OW  921   3.322   1.505   1.339
 1143SOL    HW1  922   3.346   1.599   1.365
 1143SOL    HW2  923   3.306   1.451   1.421
 1146SOL     OW  924   2.093   1.713   0.483
 1146SOL    HW1  925   2.127   1.790   0.537
 1146SOL    HW2  926   2.137   1.713   0.393
 1147SOL     OW  927   2.989   1.341   1.690
 1147SOL    HW1  928   3.036   1.341   1.778
 1147SOL    HW2  929   2.941   1.254   1.679
 1148SOL     OW  930   2.092   1.434   0.538
 1148SOL    HW1  931   2.066   1.530   0.538
 1148SOL    HW2  932   2.021   1.380   0.583
 1149SOL     OW  933   2.102   1.091   0.886
 1149SOL    HW1  934   2.116   1.007   0.938
 1149SOL    HW2  935   2.047   1.155   0.941
 1150SOL     OW  936   2.482   1.786   1.439
 1150SOL    HW1  937   2.390   1.769   1.474
 1150SOL    HW2  938   2.510   1.878   1.465
 1158SOL     OW  939   1.975   0.737   1.597
 1158SOL    HW1  940   2.063   0.724   1.642
 1158SOL    HW2  941   1.962   0.834   1.575
 1159SOL     OW  942   2.475   1.365   0.726
 1159SOL    HW1  943   2.426   1.278   0.735
 1159SOL    HW2  944   2.452   1.408   0.639
 1160SOL     OW  945   3.155   1.228   1.423
 1160SOL    HW1  946   3.192   1.155   1.365
 1160SOL    HW2  947   3.207   1.233   1.508
 1162SOL     OW  948   2.059   0.976   1.264
 1162SOL    HW1  949   2.148   0.931   1.250
 1162SOL    HW2  950   1.986   0.911   1.245
 1164SOL     OW  951   3.049   1.792   1.616
 1164SOL    HW1  952   3.073   1.852   1.540
 1164SOL    HW2  953   3.056   1.697   1.586
 1171SOL     OW  954   2.669   0.605   1.465
 1171SOL    HW1  955   2.622   0.602   1.554
 1171SOL    HW2  956   2.618   0.550   1.399
 1173SOL     OW  957   2.835   0.890   1.572
 1173SOL    HW1  958   2.881   0.806   1.543
 1173SOL    HW2  959   2.779   0.924   1.497
 1177SOL     OW  960   1.992   1.821   1.571
 1177SOL    HW1  961   1.982   1.806   1.670
 1177SOL    HW2  962   1.906   1.857   1.535
 1183SOL     OW  963   2.213   1.801   0.853
 1183SOL    HW1  964   2.263   1.715   0.859
 1183SOL    HW2  965   2.278   1.878   0.850
 1185SOL     OW  966   3.089   1.550   1.506
 1185SOL    HW1  967   3.095   1.473   1.570
 1185SOL    HW2  968   3.037   1.524   1.426
 1188SOL     OW  969   2.323   1.266   1.727
 1188SOL    HW1  970   2.273   1.267   1.641
 1188SOL    HW2  971   2.260   1.248   1.803
 1194SOL     OW  972   2.111   1.785   1.241
 1194SOL    HW1  973   2.168   1.720   1.291
 1194SOL    HW2  974   2.095   1.752   1.148
 1195SOL     OW  975   2.802   1.698   0.904
 1195SOL    HW1  976   2.882   1.641   0.925
 1195SOL    HW2  977   2.753   1.658   0.827
 1200SOL     OW  978   2.750   1.514   1.195
 1200SOL    HW1  979   2.727   1.489   1.101
 1200SOL    HW2  980   2.811   1.445   1.234
 1202SOL     OW  981   2.665   1.402   0.924
 1202SOL    HW1  982   2.755   1.416   0.882
 1202SOL    HW2  983   2.594   1.404   0.853
 1209SOL     OW  984   3.089   1.570   0.793
 1209SOL    HW1  985   3.110   1.644   0.728
 1209SOL    HW2  986   3.157   1.570   0.866
 1210SOL     OW  987   2.321   1.152   0.741
 1210SOL    HW1  988   2.250   1.125   0.806
 1210SOL    HW2  989   2.295   1.124   0.648
 1213SOL     OW  990   1.940   0.556   1.386
 1213SOL    HW1  991   2.032   0.555   1.345
 1213SOL    HW2  992   1.934   0.630   1.453
 1225SOL     OW  993   2.926   1.347   1.340
 1225SOL    HW1  994   2.846   1.324   1.395
 1225SOL    HW2  995   3.009   1.321   1.389
 1226SOL     OW  996   3.454   1.629   1.625
 1226SOL    HW1  997   3.481   1.663   1.535
 1226SOL    HW2  998   3.533   1.591   1.671
 1227SOL     OW  999   2.973   1.195   1.100
 1227SOL    HW1 1000   2.933   1.239   1.181
 1227SOL    HW2 1001   2.932   1.232   1.017
 1230SOL     OW 1002   2.842   1.116   1.719
 1230SOL    HW1 1003   2.743   1.122   1.729
 1230SOL    HW2 1004   2.865   1.036   1.663
 1232SOL     OW 1005   2.272   0.813   1.251
 1232SOL    HW1 1006   2.358   0.825   1.301
 1232SOL    HW2 1007   2.230   0.726   1.278
 1234SOL     OW 1008   1.926   1.564   1.331
 1234SOL    HW1 1009   1.880   1.646   1.297
 1234SOL    HW2 1010   2.024   1.583   1.340
 1238SOL     OW 1011   3.134   1.445   1.142
 1238SOL    HW1 1012   3.181   1.458   1.229
 1238SOL    HW2 1013   3.068   1.371   1.151
 1240SOL     OW 1014   2.216   1.510   1.329
 1240SOL    HW1 1015   2.195   1.466   1.242
 1240SOL    HW2 1016   2.313   1.536   1.332
 1241SOL     OW 1017   2.264   0.751   1.598
 1241SOL    HW1 1018   2.332   0.806   1.551
 1241SOL    HW2 1019   2.304   0.663   1.625
 1245SOL     OW 1020   2.435   0.870   1.029
 1245SOL    HW1 1021   2.479   0.959   1.020
 1245SOL    HW2 1022   2.372   0.870   1.106
 1249SOL     OW 1023   1.899   1.310   1.282
 1249SOL    HW1 1024   1.952   1.261   1.350
 1249SOL    HW2 1025   1.921   1.408   1.287
 1255SOL     OW 1026   2.842   1.573   1.700
 1255SOL    HW1 1027   2.822   1.617   1.612
 1255SOL    HW2 1028   2.881   1.482   1.684
 1256SOL     OW 1029   3.721   1.518   1.605
 1256SOL    HW1 1030   3.735   1.545   1.510
 1256SOL    HW2 1031   3.804   1.540   1.658
 1257SOL     OW 1032   2.212   0.898   1.804
 1257SOL    HW1 1033   2.288   0.942   1.852
 1257SOL    HW2 1034   2.247   0.851   1.722
 1260SOL     OW 1035   2.930   1.333   0.849
 1260SOL    HW1 1036   2.937   1.249   0.794
 1260SOL    HW2 1037   2.992   1.402   0.813
 1266SOL     OW 1038   1.950   1.801   0.927
 1266SOL    HW1 1039   1.908   1.715   0.900
 1266SOL    HW2 1040   2.044   1.804   0.893
 1267SOL     OW 1041   2.366   1.568   0.910
 1267SOL    HW1 1042   2.432   1.642   0.919
 1267SOL    HW2 1043   2.410   1.489   0.868
 1268SOL     OW 1044   2.864   0.796   1.238
 1268SOL    HW1 1045   2.905   0.764   1.324
 1268SOL    HW2 1046   2.768   0.769   1.235
 1270SOL     OW 1047   2.051   0.520   1.722
 1270SOL    HW1 1048   2.110   0.480   1.652
 1270SOL    HW2 1049   1.993   0.591   1.681
 1271SOL     OW 1050   3.231   0.950   1.660
 1271SOL    HW1 1051   3.270   1.039   1.680
 1271SOL    HW2 1052   3.241   0.930   1.563
 1274SOL     OW 1053   2.114   1.564   1.744
 1274SOL    HW1 1054   2.084   1.621   1.820
 1274SOL    HW2 1055   2.107   1.467   1.770
 1276SOL     OW 1056   2.792   1.678   1.465
 1276SOL    HW1 1057   2.768   1.660   1.370
 1276SOL    HW2 1058   2.822   1.772   1.475
 1278SOL     OW 1059   2.021   1.137   1.466
 1278SOL    HW1 1060   2.043   1.076   1.542
 1278SOL    HW2 1061   2.031   1.088   1.380
 1279SOL     OW 1062   3.209   1.059   1.234
 1279SOL    HW1 1063   3.233   0.996   1.160
 1279SOL    HW2 1064   3.119   1.099   1.216
 1282SOL     OW 1065   3.114   1.731   1.128
 1282SOL    HW1 1066   3.198   1.736   1.074
 1282SOL    HW2 1067   3.091   1.635   1.146
 1283SOL     OW 1068   1.945   1.258   1.022
 1283SOL    HW1 1069   1.940   1.257   1.122
 1283SOL    HW2 1070   1.862   1.217   0.984
 1284SOL     OW 1071   2.550   1.662   1.716
 1284SOL    HW1 1072   2.494   1.743   1.725
 1284SOL    HW2 1073   2.602   1.666   1.630
 1288SOL     OW 1074   1.992   1.794   1.851
 1288SOL    HW1 1075   1.951   1.720   1.904
 1288SOL    HW2 1076   2.056   1.845   1.909
 1290SOL     OW 1077   2.692   1.273   1.422
 1290SOL    HW1 1078   2.687   1.306   1.517
 1290SOL    HW2 1079   2.606   1.292   1.376
 1292SOL     OW 1080   3.512   1.720   1.394
 1292SOL    HW1 1081   3.565   1.730   1.310
 1292SOL    HW2 1082   3.485   1.810   1.428
 1296SOL     OW 1083   2.684   1.002   1.372
 1296SOL    HW1 1084   2.724   1.001   1.280
 1296SOL    HW2 1085   2.694   1.094   1.412
 1299SOL     OW 1086   2.234   1.288   1.490
 1299SOL    HW1 1087   2.221   1.381   1.456
 1299SOL    HW2 1088   2.150   1.236   1.477
 1300SOL     OW 1089   3.476   1.292   1.289
 1300SOL    HW1 1090   3.536   1.295   1.369
 1300SOL    HW2 1091   3.401   1.356   1.302
 1306SOL     OW 1092   1.967   1.013   1.726
 1306SOL    HW1 1093   1.890   0.980   1.780
 1306SOL    HW2 1094   2.052   0.983   1.768
 1312SOL     OW 1095   2.475   0.842   1.431
 1312SOL    HW1 1096   2.531   0.923   1.414
 1312SOL    HW2 1097   2.534   0.762   1.434
 1313SOL     OW 1098   3.355   1.767   0.959
 1313SOL    HW1 1099   3.388   1.831   0.890
 1313SOL    HW2 1100   3.421   1.761   1.034
 1314SOL     OW 1101   2.578   0.565   1.708
 1314SOL    HW1 1102   2.597   0.630   1.782
 1314SOL    HW2 1103   2.638   0.485   1.717
 1315SOL     OW 1104   3.312   1.220   1.633
 1315SOL    HW1 1105   3.303   1.210   1.732
 1315SOL    HW2 1106   3.408   1.213   1.607
 1316SOL     OW 1107   2.252   1.741   1.560
 1316SOL    HW1 1108   2.161   1.782   1.558
 1316SOL    HW2 1109   2.245   1.647   1.592
 1323SOL     OW 1110   2.523   1.790   0.953
 1323SOL    HW1 1111   2.477   1.878   0.940
 1323SOL    HW2 1112   2.622   1.802   0.946
 1327SOL     OW 1113   2.083   1.314   1.844
 1327SOL    HW1 1114   2.018   1.241   1.823
 1327SOL    HW2 1115   2.087   1.328   1.942
 1328SOL     OW 1116   1.941   1.240   0.653
 1328SOL    HW1 1117   1.940   1.193   0.741
 1328SOL    HW2 1118   2.023   1.212   0.602
 1329SOL     OW 1119   2.534   1.391   1.624
 1329SOL    HW1 1120   2.456   1.341   1.662
 1329SOL    HW2 1121   2.531   1.486   1.655
 1334SOL     OW 1122   2.674   1.586   0.687
 1334SOL    HW1 1123   2.706   1.596   0.593
 1334SOL    HW2 1124   2.595   1.524   0.689
 1338SOL     OW 1125   2.480   1.567   1.284
 1338SOL    HW1 1126   2.475   1.649   1.341
 1338SOL    HW2 1127   2.569   1.564   1.239
 1344SOL     OW 1128   2.092   0.628   1.975
 1344SOL    HW1 1129   1.999   0.626   2.012
 1344SOL    HW2 1130   2.093   0.589   1.883
 1347SOL     OW 1131   2.431   1.275   3.027
 1347SOL    HW1 1132   2.338   1.268   2.990
 1347SOL    HW2 1133   2.442   1.364   3.071
 1348SOL     OW 1134   3.417   1.511   2.565
 1348SOL    HW1 1135   3.360   1.495   2.646
 1348SOL    HW2 1136   3.358   1.521   2.485
 1349SOL     OW 1137   2.997   0.703   2.579
 1349SOL    HW1 1138   3.054   0.781   2.554
 1349SOL    HW2 1139   2.937   0.729   2.655
 1351SOL     OW 1140   2.630   1.144   2.885
 1351SOL    HW1 1141   2.552   1.161   2.945
 1351SOL    HW2 1142   2.664   1.231   2.849
 1353SOL     OW 1143   2.547   1.012   2.527
 1353SOL    HW1 1144   2.616   0.996   2.597
 1353SOL    HW2 1145   2.474   1.069   2.565
 1355SOL     OW 1146   2.197   1.435   2.923
 1355SOL    HW1 1147   2.119   1.404   2.870
 1355SOL    HW2 1148   2.255   1.493   2.866
 1356SOL     OW 1149   3.322   1.505   3.201
 1356SOL    HW1 1150   3.346   1.599   3.227
 1356SOL    HW2 1151   3.306   1.451   3.283
 1359SOL     OW 1152   2.093   1.713   2.345
 1359SOL    HW1 1153   2.127   1.790   2.399
 1359SOL    HW2 1154   2.137   1.713   2.255
 1361SOL     OW 1155   2.092   1.434   2.400
 1361SOL    HW1 1156   2.066   1.530   2.400
 1361SOL    HW2 1157   2.021   1.380   2.445
 1362SOL     OW 1158   2.102   1.091   2.748
 1362SOL    HW1 1159   2.116   1.007   2.800
 1362SOL    HW2 1160   2.047   1.155   2.803
 1363SOL     OW 1161   2.482   1.786   3.301
 1363SOL    HW1 1162   2.390   1.769   3.336
 1363SOL    HW2 1163   2.510   1.878   3.327
 1364SOL     OW 1164   2.468   0.964   1.985
 1364SOL    HW1 1165   2.475   1.048   1.931
 1364SOL    HW2 1166   2.514   0.977   2.073
 1366SOL     OW 1167   1.984   0.643   2.425
 1366SOL    HW1 1168   1.939   0.555   2.442
 1366SOL    HW2 1169   1.983   0.697   2.509
 1367SOL     OW 1170   3.704   1.767   2.221
 1367SOL    HW1 1171   3.758   1.738   2.301
 1367SOL    HW2 1172   3.734   1.857   2.192
 1368SOL     OW 1173   1.889   1.596   1.979
 1368SOL    HW1 1174   1.870   1.500   2.000
 1368SOL    HW2 1175   1.856   1.654   2.054
 1370SOL     OW 1176   3.503   1.108   2.294
 1370SOL    HW1 1177   3.589   1.110   2.242
 1370SOL    HW2 1178   3.517   1.155   2.382
 1372SOL     OW 1179   2.475   1.365   2.588
 1372SOL    HW1 1180   2.426   1.278   2.597
 1372SOL    HW2 1181   2.452   1.408   2.501
 1373SOL     OW 1182   3.155   1.228   3.285
 1373SOL    HW1 1183   3.192   1.155   3.227
 1373SOL    HW2 1184   3.207   1.233   3.370
 1375SOL     OW 1185   2.059   0.976   3.126
 1375SOL    HW1 1186   2.148   0.931   3.112
 1375SOL    HW2 1187   1.986   0.911   3.107
 1376SOL     OW 1188   3.387   0.999   2.052
 1376SOL    HW1 1189   3.324   0.923   2.065
 1376SOL    HW2 1190   3.435   1.017   2.138
 1377SOL     OW 1191   3.049   1.792   3.478
 1377SOL    HW1 1192   3.073   1.852   3.402
 1377SOL    HW2 1193   3.056   1.697   3.448
 1379SOL     OW 1194   3.328   1.417   2.815
 1379SOL    HW1 1195   3.269   1.423   2.895
 1379SOL    HW2 1196   3.313   1.329   2.769
 1380SOL     OW 1197   3.529   1.714   2.434
 1380SOL    HW1 1198   3.488   1.691   2.346
 1380SOL    HW2 1199   3.511   1.640   2.499
 1381SOL     OW 1200   2.460   0.729   2.132
 1381SOL    HW1 1201   2.484   0.798   2.064
 1381SOL    HW2 1202   2.382   0.762   2.186
 1383SOL     OW 1203   3.438   1.662   2.169
 1383SOL    HW1 1204   3.527   1.708   2.172
 1383SOL    HW2 1205   3.417   1.638   2.074
 1388SOL     OW 1206   2.903   0.701   2.291
 1388SOL    HW1 1207   2.929   0.697   2.387
 1388SOL    HW2 1208   2.818   0.650   2.277
 1389SOL     OW 1209   1.938   0.811   2.651
 1389SOL    HW1 1210   2.037   0.799   2.660
 1389SOL    HW2 1211   1.914   0.906   2.672
 1390SOL     OW 1212   1.992   1.821   3.433
 1390SOL    HW1 1213   1.982   1.806   3.532
 1390SOL    HW2 1214   1.906   1.857   3.397
 1393SOL     OW 1215   3.224   1.144   2.407
 1393SOL    HW1 1216   3.307   1.115   2.359
 1393SOL    HW2 1217   3.175   1.211   2.351
 1395SOL     OW 1218   2.870   1.456   2.339
 1395SOL    HW1 1219   2.824   1.528   2.287
 1395SOL    HW2 1220   2.866   1.476   2.437
 1396SOL     OW 1221   2.213   1.801   2.715
 1396SOL    HW1 1222   2.263   1.715   2.721
 1396SOL    HW2 1223   2.278   1.878   2.712
 1398SOL     OW 1224   3.089   1.550   3.368
 1398SOL    HW1 1225   3.095   1.473   3.432
 1398SOL    HW2 1226   3.037   1.524   3.288
 1399SOL     OW 1227   2.183   0.943   2.104
 1399SOL    HW1 1228   2.265   0.982   2.062
 1399SOL    HW2 1229   2.156   0.861   2.055
 1401SOL     OW 1230   2.323   1.266   3.589
 1401SOL    HW1 1231   2.273   1.267   3.503
 1401SOL    HW2 1232   2.260   1.248   3.665
 1402SOL     OW 1233   2.973   1.776   2.099
 1402SOL    HW1 1234   2.913   1.714   2.149
 1402SOL    HW2 1235   3.004   1.732   2.014
 1404SOL     OW 1236   3.494   1.377   1.943
 1404SOL    HW1 1237   3.462   1.471   1.933
 1404SOL    HW2 1238   3.418   1.314   1.931
 1405SOL     OW 1239   2.326   1.743   2.185
 1405SOL    HW1 1240   2.359   1.782   2.271
 1405SOL    HW2 1241   2.402   1.736   2.120
 1407SOL     OW 1242   2.111   1.785   3.103
 1407SOL    HW1 1243   2.168   1.720   3.153
 1407SOL    HW2 1244   2.095   1.752   3.010
 1408SOL     OW 1245   2.802   1.698   2.766
 1408SOL    HW1 1246   2.882   1.641   2.787
 1408SOL    HW2 1247   2.753   1.658   2.689
 1409SOL     OW 1248   2.244   0.700   2.342
 1409SOL    HW1 1249   2.289   0.610   2.339
 1409SOL    HW2 1250   2.150   0.689   2.375
 1413SOL     OW 1251   2.750   1.514   3.057
 1413SOL    HW1 1252   2.727   1.489   2.963
 1413SOL    HW2 1253   2.811   1.445   3.096
 1415SOL     OW 1254   2.665   1.402   2.786
 1415SOL    HW1 1255   2.755   1.416   2.744
 1415SOL    HW2 1256   2.594   1.404   2.715
 1418SOL     OW 1257   3.296   1.188   1.903
 1418SOL    HW1 1258   3.328   1.112   1.960
 1418SOL    HW2 1259   3.204   1.215   1.933
 1422SOL     OW 1260   3.089   1.570   2.655
 1422SOL    HW1 1261   3.110   1.644   2.590
 1422SOL    HW2 1262   3.157   1.570   2.728
 1423SOL     OW 1263   2.321   1.152   2.603
 1423SOL    HW1 1264   2.250   1.125   2.668
 1423SOL    HW2 1265   2.295   1.124   2.510
 1424SOL     OW 1266   3.133   1.797   2.453
 1424SOL    HW1 1267   3.177   1.861   2.389
 1424SOL    HW2 1268   3.083   1.849   2.523
 1425SOL     OW 1269   2.894   0.549   1.878
 1425SOL    HW1 1270   2.853   0.631   1.839
 1425SOL    HW2 1271   2.958   0.575   1.951
 1430SOL     OW 1272   3.291   1.173   2.729
 1430SOL    HW1 1273   3.236   1.089   2.722
 1430SOL    HW2 1274   3.317   1.202   2.637
 1433SOL     OW 1275   2.350   1.385   2.036
 1433SOL    HW1 1276   2.263   1.370   2.083
 1433SOL    HW2 1277   2.333   1.411   1.941
 1434SOL     OW 1278   3.526   1.280   2.519
 1434SOL    HW1 1279   3.625   1.288   2.533
 1434SOL    HW2 1280   3.481   1.364   2.550
 1438SOL     OW 1281   2.926   1.347   3.202
 1438SOL    HW1 1282   2.846   1.324   3.257
 1438SOL    HW2 1283   3.009   1.321   3.251
 1440SOL     OW 1284   2.973   1.195   2.962
 1440SOL    HW1 1285   2.933   1.239   3.043
 1440SOL    HW2 1286   2.932   1.232   2.879
 1444SOL     OW 1287   2.567   1.050   2.230
 1444SOL    HW1 1288   2.553   1.057   2.329
 1444SOL    HW2 1289   2.651   0.999   2.212
 1445SOL     OW 1290   2.272   0.813   3.113
 1445SOL    HW1 1291   2.358   0.825   3.163
 1445SOL    HW2 1292   2.230   0.726   3.140
 1447SOL     OW 1293   1.926   1.564   3.193
 1447SOL    HW1 1294   1.880   1.646   3.159
 1447SOL    HW2 1295   2.024   1.583   3.202
 1448SOL     OW 1296   2.229   1.100   2.363
 1448SOL    HW1 1297   2.222   1.183   2.307
 1448SOL    HW2 1298   2.233   1.020   2.303
 1449SOL     OW 1299   2.428   0.537   2.727
 1449SOL    HW1 1300   2.440   0.603   2.653
 1449SOL    HW2 1301   2.474   0.571   2.810
 1450SOL     OW 1302   3.114   1.348   2.250
 1450SOL    HW1 1303   3.164   1.425   2.290
 1450SOL    HW2 1304   3.019   1.350   2.282
 1451SOL     OW 1305   3.134   1.445   3.004
 1451SOL    HW1 1306   3.181   1.458   3.091
 1451SOL    HW2 1307   3.068   1.371   3.013
 1453SOL     OW 1308   2.216   1.510   3.191
 1453SOL    HW1 1309   2.195   1.466   3.104
 1453SOL    HW2 1310   2.313   1.536   3.194
 1458SOL     OW 1311   2.435   0.870   2.891
 1458SOL    HW1 1312   2.479   0.959   2.882
 1458SOL    HW2 1313   2.372   0.870   2.968
 1462SOL     OW 1314   1.899   1.310   3.144
 1462SOL    HW1 1315   1.952   1.261   3.212
 1462SOL    HW2 1316   1.921   1.408   3.149
 1463SOL     OW 1317   2.594   0.634   2.926
 1463SOL    HW1 1318   2.653   0.608   2.850
 1463SOL    HW2 1319   2.566   0.730   2.915
 1467SOL     OW 1320   2.885   0.766   2.828
 1467SOL    HW1 1321   2.900   0.787   2.924
 1467SOL    HW2 1322   2.855   0.671   2.819
 1468SOL     OW 1323   2.842   1.573   3.562
 1468SOL    HW1 1324   2.822   1.617   3.474
 1468SOL    HW2 1325   2.881   1.482   3.546
 1472SOL     OW 1326   3.165   0.838   1.904
 1472SOL    HW1 1327   3.199   0.745   1.919
 1472SOL    HW2 1328   3.183   0.865   1.809
 1473SOL     OW 1329   2.930   1.333   2.711
 1473SOL    HW1 1330   2.937   1.249   2.656
 1473SOL    HW2 1331   2.992   1.402   2.675
 1474SOL     OW 1332   2.181   0.810   2.811
 1474SOL    HW1 1333   2.274   0.846   2.816
 1474SOL    HW2 1334   2.175   0.725   2.863
 1475SOL     OW 1335   2.201   0.509   2.868
 1475SOL    HW1 1336   2.149   0.426   2.851
 1475SOL    HW2 1337   2.278   0.514   2.804
 1478SOL     OW 1338   1.870   1.326   2.062
 1478SOL    HW1 1339   1.777   1.347   2.031
 1478SOL    HW2 1340   1.880   1.227   2.075
 1479SOL     OW 1341   1.950   1.801   2.789
 1479SOL    HW1 1342   1.908   1.715   2.762
 1479SOL    HW2 1343   2.044   1.804   2.755
 1480SOL     OW 1344   2.366   1.568   2.772
 1480SOL    HW1 1345   2.432   1.642   2.781
 1480SOL    HW2 1346   2.410   1.489   2.730
 1485SOL     OW 1347   2.677   0.572   2.187
 1485SOL    HW1 1348   2.684   0.483   2.141
 1485SOL    HW2 1349   2.583   0.606   2.179
 1487SOL     OW 1350   2.114   1.564   3.606
 1487SOL    HW1 1351   2.084   1.621   3.682
 1487SOL    HW2 1352   2.107   1.467   3.632
 1489SOL     OW 1353   2.792   1.678   3.327
 1489SOL    HW1 1354   2.768   1.660   3.232
 1489SOL    HW2 1355   2.822   1.772   3.337
 1490SOL     OW 1356   2.335   0.500   2.053
 1490SOL    HW1 1357   2.396   0.580   2.057
 1490SOL    HW2 1358   2.240   0.531   2.060
 1491SOL     OW 1359   2.021   1.137   3.328
 1491SOL    HW1 1360   2.043   1.076   3.404
 1491SOL    HW2 1361   2.031   1.088   3.242
 1492SOL     OW 1362   3.209   1.059   3.096
 1492SOL    HW1 1363   3.233   0.996   3.022
 1492SOL    HW2 1364   3.119   1.099   3.078
 1493SOL     OW 1365   3.164   0.855   2.171
 1493SOL    HW1 1366   3.078   0.824   2.213
 1493SOL    HW2 1367   3.160   0.841   2.072
 1494SOL     OW 1368   3.621   1.747   3.016
 1494SOL    HW1 1369   3.682   1.777   2.943
 1494SOL    HW2 1370   3.583   1.658   2.994
 1495SOL     OW 1371   3.114   1.731   2.990
 1495SOL    HW1 1372   3.198   1.736   2.936
 1495SOL    HW2 1373   3.091   1.635   3.008
 1496SOL     OW 1374   1.945   1.258   2.884
 1496SOL    HW1 1375   1.940   1.257   2.984
 1496SOL    HW2 1376   1.862   1.217   2.846
 1497SOL     OW 1377   2.550   1.662   3.578
 1497SOL    HW1 1378   2.494   1.743   3.587
 1497SOL    HW2 1379   2.602   1.666   3.492
 1499SOL     OW 1380   3.250   1.573   2.339
 1499SOL    HW1 1381   3.317   1.585   2.265
 1499SOL    HW2 1382   3.210   1.662   2.362
 1500SOL     OW 1383   1.992   1.794   3.713
 1500SOL    HW1 1384   1.951   1.720   3.766
 1500SOL    HW2 1385   2.056   1.845   3.771
 1501SOL     OW 1386   3.142   0.927   2.534
 1501SOL    HW1 1387   3.202   0.846   2.536
 1501SOL    HW2 1388   3.182   0.996   2.474
 1502SOL     OW 1389   2.692   1.273   3.284
 1502SOL    HW1 1390   2.687   1.306   3.379
 1502SOL    HW2 1391   2.606   1.292   3.238
 1503SOL     OW 1392   2.534   1.616   2.016
 1503SOL    HW1 1393   2.543   1.626   1.917
 1503SOL    HW2 1394   2.494   1.527   2.037
 1507SOL     OW 1395   3.056   1.612   1.893
 1507SOL    HW1 1396   3.062   1.519   1.930
 1507SOL    HW2 1397   2.997   1.612   1.813
 1508SOL     OW 1398   2.684   1.002   3.234
 1508SOL    HW1 1399   2.724   1.001   3.142
 1508SOL    HW2 1400   2.694   1.094   3.274
 1509SOL     OW 1401   2.778   0.910   2.153
 1509SOL    HW1 1402   2.841   0.948   2.085
 1509SOL    HW2 1403   2.818   0.827   2.192
 1510SOL     OW 1404   3.366   1.607   1.906
 1510SOL    HW1 1405   3.274   1.644   1.913
 1510SOL    HW2 1406   3.404   1.627   1.816
 1511SOL     OW 1407   2.234   1.288   3.352
 1511SOL    HW1 1408   2.221   1.381   3.318
 1511SOL    HW2 1409   2.150   1.236   3.339
 1513SOL     OW 1410   2.901   1.098   2.558
 1513SOL    HW1 1411   2.831   1.051   2.612
 1513SOL    HW2 1412   2.960   1.030   2.515
 1515SOL     OW 1413   2.452   1.487   2.353
 1515SOL    HW1 1414   2.494   1.429   2.283
 1515SOL    HW2 1415   2.408   1.566   2.309
 1517SOL     OW 1416   2.117   1.348   2.152
 1517SOL    HW1 1417   2.021   1.349   2.125
 1517SOL    HW2 1418   2.129   1.401   2.236
 1523SOL     OW 1419   3.045   1.335   1.981
 1523SOL    HW1 1420   2.946   1.324   1.983
 1523SOL    HW2 1421   3.079   1.350   2.074
 1524SOL     OW 1422   2.475   0.842   3.293
 1524SOL    HW1 1423   2.531   0.923   3.276
 1524SOL    HW2 1424   2.534   0.762   3.296
 1525SOL     OW 1425   3.355   1.767   2.821
 1525SOL    HW1 1426   3.388   1.831   2.752
 1525SOL    HW2 1427   3.421   1.761   2.896
 1528SOL     OW 1428   2.252   1.741   3.422
 1528SOL    HW1 1429   2.161   1.782   3.420
 1528SOL    HW2 1430   2.245   1.647   3.454
 1531SOL     OW 1431   2.456   0.745   2.514
 1531SOL    HW1 1432   2.506   0.830   2.495
 1531SOL    HW2 1433   2.368   0.747   2.466
 1534SOL     OW 1434   2.721   1.374   1.878
 1534SOL    HW1 1435   2.675   1.389   1.966
 1534SOL    HW2 1436   2.765   1.459   1.848
 1535SOL     OW 1437   2.523   1.790   2.815
 1535SOL    HW1 1438   2.477   1.878   2.802
 1535SOL    HW2 1439   2.622   1.802   2.808
 1536SOL     OW 1440   2.721   0.956   2.723
 1536SOL    HW1 1441   2.775   0.887   2.771
 1536SOL    HW2 1442   2.689   1.025   2.789
 1537SOL     OW 1443   2.945   0.984   1.949
 1537SOL    HW1 1444   2.922   1.037   1.867
 1537SOL    HW2 1445   3.026   0.928   1.930
 1538SOL     OW 1446   3.723   1.569   2.713
 1538SOL    HW1 1447   3.652   1.557   2.643
 1538SOL    HW2 1448   3.724   1.490   2.773
 1539SOL     OW 1449   2.083   1.314   3.706
 1539SOL    HW1 1450   2.018   1.241   3.685
 1539SOL    HW2 1451   2.087   1.328   3.804
 1540SOL     OW 1452   1.941   1.240   2.515
 1540SOL    HW1 1453   1.940   1.193   2.603
 1540SOL    HW2 1454   2.023   1.212   2.464
 1541SOL     OW 1455   2.534   1.391   3.486
 1541SOL    HW1 1456   2.456   1.341   3.524
 1541SOL    HW2 1457   2.531   1.486   3.517
 1543SOL     OW 1458   2.290   0.424   2.382
 1543SOL    HW1 1459   2.320   0.352   2.320
 1543SOL    HW2 1460   2.251   0.384   2.465
 1544SOL     OW 1461   3.567   1.487   2.966
 1544SOL    HW1 1462   3.474   1.462   2.939
 1544SOL    HW2 1463   3.593   1.437   3.048
 1546SOL     OW 1464   2.674   1.586   2.549
 1546SOL    HW1 1465   2.706   1.596   2.455
 1546SOL    HW2 1466   2.595   1.524   2.551
 1549SOL     OW 1467   2.632   1.330   2.163
 1549SOL    HW1 1468   2.586   1.243   2.180
 1549SOL    HW2 1469   2.723   1.327   2.204
 1550SOL     OW 1470   2.480   1.567   3.146
 1550SOL    HW1 1471   2.475   1.649   3.203
 1550SOL    HW2 1472   2.569   1.564   3.101
 1554SOL     OW 1473   1.901   1.077   2.162
 1554SOL    HW1 1474   2.000   1.066   2.153
 1554SOL    HW2 1475   1.861   0.991   2.194
 1555SOL     OW 1476   2.737   1.646   2.199
 1555SOL    HW1 1477   2.660   1.611   2.145
 1555SOL    HW2 1478   2.705   1.717   2.261
 1562SOL     OW 1479   1.889   1.596   3.841
 1562SOL    HW1 1480   1.870   1.500   3.862
 1562SOL    HW2 1481   1.856   1.654   3.916
 1618SOL     OW 1482   2.087   2.137   0.996
 1618SOL    HW1 1483   2.122   2.120   1.088
 1618SOL    HW2 1484   1.999   2.092   0.984
 1619SOL     OW 1485   1.881   2.230   0.647
 1619SOL    HW1 1486   1.799   2.273   0.686
 1619SOL    HW2 1487   1.853   2.157   0.584
 1620SOL     OW 1488   2.431   3.137   1.165
 1620SOL    HW1 1489   2.338   3.130   1.128
 1620SOL    HW2 1490   2.442   3.226   1.209
 1622SOL     OW 1491   2.997   2.565   0.717
 1622SOL    HW1 1492   3.054   2.643   0.692
 1622SOL    HW2 1493   2.937   2.591   0.793
 1624SOL     OW 1494   2.630   3.006   1.023
 1624SOL    HW1 1495   2.552   3.023   1.083
 1624SOL    HW2 1496   2.664   3.093   0.987
 1625SOL     OW 1497   2.712   2.660   1.823
 1625SOL    HW1 1498   2.708   2.736   1.888
 1625SOL    HW2 1499   2.734   2.696   1.732
 1626SOL     OW 1500   2.547   2.874   0.665
 1626SOL    HW1 1501   2.616   2.858   0.735
 1626SOL    HW2 1502   2.474   2.931   0.703
 1627SOL     OW 1503   2.548   3.023   1.803
 1627SOL    HW1 1504   2.608   3.102   1.817
 1627SOL    HW2 1505   2.462   3.054   1.762
 1628SOL     OW 1506   2.197   3.297   1.061
 1628SOL    HW1 1507   2.119   3.266   1.008
 1628SOL    HW2 1508   2.255   3.355   1.004
 1630SOL     OW 1509   2.300   2.254   1.499
 1630SOL    HW1 1510   2.382   2.198   1.508
 1630SOL    HW2 1511   2.219   2.196   1.503
 1633SOL     OW 1512   2.989   3.203   1.690
 1633SOL    HW1 1513   3.036   3.203   1.778
 1633SOL    HW2 1514   2.941   3.116   1.679
 1635SOL     OW 1515   2.102   2.953   0.886
 1635SOL    HW1 1516   2.116   2.869   0.938
 1635SOL    HW2 1517   2.047   3.017   0.941
 1636SOL     OW 1518   2.482   3.648   1.439
 1636SOL    HW1 1519   2.390   3.631   1.474
 1636SOL    HW2 1520   2.510   3.740   1.465
 1638SOL     OW 1521   3.456   1.976   1.480
 1638SOL    HW1 1522   3.438   2.043   1.408
 1638SOL    HW2 1523   3.453   2.022   1.569
 1639SOL     OW 1524   1.984   2.505   0.563
 1639SOL    HW1 1525   1.939   2.417   0.580
 1639SOL    HW2 1526   1.983   2.559   0.647
 1644SOL     OW 1527   1.975   2.599   1.597
 1644SOL    HW1 1528   2.063   2.586   1.642
 1644SOL    HW2 1529   1.962   2.696   1.575
 1646SOL     OW 1530   3.155   3.090   1.423
 1646SOL    HW1 1531   3.192   3.017   1.365
 1646SOL    HW2 1532   3.207   3.095   1.508
 1647SOL     OW 1533   2.671   1.866   0.502
 1647SOL    HW1 1534   2.711   1.957   0.493
 1647SOL    HW2 1535   2.571   1.874   0.508
 1648SOL     OW 1536   2.059   2.838   1.264
 1648SOL    HW1 1537   2.148   2.793   1.250
 1648SOL    HW2 1538   1.986   2.773   1.245
 1651SOL     OW 1539   2.179   2.113   1.801
 1651SOL    HW1 1540   2.250   2.184   1.807
 1651SOL    HW2 1541   2.091   2.152   1.829
 1655SOL     OW 1542   3.143   2.207   0.944
 1655SOL    HW1 1543   3.057   2.157   0.931
 1655SOL    HW2 1544   3.205   2.153   1.000
 1657SOL     OW 1545   2.669   2.467   1.465
 1657SOL    HW1 1546   2.622   2.464   1.554
 1657SOL    HW2 1547   2.618   2.412   1.399
 1658SOL     OW 1548   3.256   2.331   1.674
 1658SOL    HW1 1549   3.236   2.374   1.762
 1658SOL    HW2 1550   3.334   2.269   1.683
 1659SOL     OW 1551   2.835   2.752   1.572
 1659SOL    HW1 1552   2.881   2.668   1.543
 1659SOL    HW2 1553   2.779   2.786   1.497
 1660SOL     OW 1554   2.853   2.272   1.242
 1660SOL    HW1 1555   2.776   2.306   1.296
 1660SOL    HW2 1556   2.819   2.221   1.163
 1662SOL     OW 1557   1.938   2.673   0.789
 1662SOL    HW1 1558   2.037   2.661   0.798
 1662SOL    HW2 1559   1.914   2.768   0.810
 1663SOL     OW 1560   1.992   3.683   1.571
 1663SOL    HW1 1561   1.982   3.668   1.670
 1663SOL    HW2 1562   1.906   3.719   1.535
 1665SOL     OW 1563   3.581   2.447   1.831
 1665SOL    HW1 1564   3.555   2.536   1.795
 1665SOL    HW2 1565   3.579   2.379   1.758
 1667SOL     OW 1566   2.412   2.058   0.885
 1667SOL    HW1 1567   2.407   2.053   0.985
 1667SOL    HW2 1568   2.414   2.154   0.856
 1671SOL     OW 1569   3.089   3.412   1.506
 1671SOL    HW1 1570   3.095   3.335   1.570
 1671SOL    HW2 1571   3.037   3.386   1.426
 1674SOL     OW 1572   2.323   3.128   1.727
 1674SOL    HW1 1573   2.273   3.129   1.641
 1674SOL    HW2 1574   2.260   3.110   1.803
 1676SOL     OW 1575   2.064   2.147   1.498
 1676SOL    HW1 1576   1.984   2.207   1.485
 1676SOL    HW2 1577   2.054   2.098   1.584
 1680SOL     OW 1578   2.111   3.647   1.241
 1680SOL    HW1 1579   2.168   3.582   1.291
 1680SOL    HW2 1580   2.095   3.614   1.148
 1682SOL     OW 1581   2.244   2.562   0.480
 1682SOL    HW1 1582   2.289   2.472   0.477
 1682SOL    HW2 1583   2.150   2.551   0.513
 1683SOL     OW 1584   3.409   2.084   1.729
 1683SOL    HW1 1585   3.404   2.121   1.821
 1683SOL    HW2 1586   3.337   2.015   1.717
 1685SOL     OW 1587   2.643   2.126   1.749
 1685SOL    HW1 1588   2.710   2.065   1.792
 1685SOL    HW2 1589   2.570   2.145   1.814
 1686SOL     OW 1590   2.750   3.376   1.195
 1686SOL    HW1 1591   2.727   3.351   1.101
 1686SOL    HW2 1592   2.811   3.307   1.234
 1687SOL     OW 1593   3.213   2.452   1.433
 1687SOL    HW1 1594   3.241   2.409   1.518
 1687SOL    HW2 1595   3.238   2.548   1.434
 1688SOL     OW 1596   2.665   3.264   0.924
 1688SOL    HW1 1597   2.755   3.278   0.882
 1688SOL    HW2 1598   2.594   3.266   0.853
 1689SOL     OW 1599   2.784   2.365   0.899
 1689SOL    HW1 1600   2.759   2.356   0.803
 1689SOL    HW2 1601   2.832   2.283   0.930
 1690SOL     OW 1602   2.401   1.926   0.512
 1690SOL    HW1 1603   2.320   1.927   0.570
 1690SOL    HW2 1604   2.404   2.009   0.457
 1693SOL     OW 1605   2.797   2.098   0.480
 1693SOL    HW1 1606   2.749   2.139   0.402
 1693SOL    HW2 1607   2.896   2.096   0.461
 1694SOL     OW 1608   2.938   2.545   1.464
 1694SOL    HW1 1609   2.858   2.484   1.467
 1694SOL    HW2 1610   3.019   2.492   1.440
 1696SOL     OW 1611   2.321   3.014   0.741
 1696SOL    HW1 1612   2.250   2.987   0.806
 1696SOL    HW2 1613   2.295   2.986   0.648
 1699SOL     OW 1614   1.940   2.418   1.386
 1699SOL    HW1 1615   2.032   2.417   1.345
 1699SOL    HW2 1616   1.934   2.492   1.453
 1700SOL     OW 1617   2.423   2.084   1.147
 1700SOL    HW1 1618   2.461   2.000   1.184
 1700SOL    HW2 1619   2.335   2.103   1.191
 1701SOL     OW 1620   2.728   2.316   0.642
 1701SOL    HW1 1621   2.696   2.388   0.580
 1701SOL    HW2 1622   2.752   2.235   0.589
 1702SOL     OW 1623   2.879   1.901   0.753
 1702SOL    HW1 1624   2.807   1.906   0.684
 1702SOL    HW2 1625   2.855   1.832   0.822
 1704SOL     OW 1626   3.328   2.452   0.992
 1704SOL    HW1 1627   3.298   2.357   0.999
 1704SOL    HW2 1628   3.401   2.468   1.058
 1711SOL     OW 1629   2.926   3.209   1.340
 1711SOL    HW1 1630   2.846   3.186   1.395
 1711SOL    HW2 1631   3.009   3.183   1.389
 1713SOL     OW 1632   2.973   3.057   1.100
 1713SOL    HW1 1633   2.933   3.101   1.181
 1713SOL    HW2 1634   2.932   3.094   1.017
 1715SOL     OW 1635   2.777   1.951   1.402
 1715SOL    HW1 1636   2.802   1.931   1.307
 1715SOL    HW2 1637   2.849   2.007   1.444
 1716SOL     OW 1638   2.842   2.978   1.719
 1716SOL    HW1 1639   2.743   2.984   1.729
 1716SOL    HW2 1640   2.865   2.898   1.663
 1718SOL     OW 1641   2.272   2.675   1.251
 1718SOL    HW1 1642   2.358   2.687   1.301
 1718SOL    HW2 1643   2.230   2.588   1.278
 1719SOL     OW 1644   3.136   2.248   1.262
 1719SOL    HW1 1645   3.157   2.322   1.326
 1719SOL    HW2 1646   3.047   2.265   1.219
 1720SOL     OW 1647   1.926   3.426   1.331
 1720SOL    HW1 1648   1.880   3.508   1.297
 1720SOL    HW2 1649   2.024   3.445   1.340
 1722SOL     OW 1650   2.428   2.399   0.865
 1722SOL    HW1 1651   2.440   2.465   0.791
 1722SOL    HW2 1652   2.474   2.433   0.948
 1726SOL     OW 1653   2.216   3.372   1.329
 1726SOL    HW1 1654   2.195   3.328   1.242
 1726SOL    HW2 1655   2.313   3.398   1.332
 1727SOL     OW 1656   2.264   2.613   1.598
 1727SOL    HW1 1657   2.332   2.668   1.551
 1727SOL    HW2 1658   2.304   2.525   1.625
 1728SOL     OW 1659   3.449   2.641   1.670
 1728SOL    HW1 1660   3.357   2.679   1.665
 1728SOL    HW2 1661   3.509   2.688   1.605
 1729SOL     OW 1662   2.875   1.967   1.770
 1729SOL    HW1 1663   2.881   2.052   1.718
 1729SOL    HW2 1664   2.907   1.891   1.713
 1730SOL     OW 1665   2.366   1.912   1.740
 1730SOL    HW1 1666   2.324   1.855   1.670
 1730SOL    HW2 1667   2.300   1.981   1.772
 1731SOL     OW 1668   2.435   2.732   1.029
 1731SOL    HW1 1669   2.479   2.821   1.020
 1731SOL    HW2 1670   2.372   2.732   1.106
 1732SOL     OW 1671   3.222   2.724   1.045
 1732SOL    HW1 1672   3.147   2.724   0.979
 1732SOL    HW2 1673   3.259   2.632   1.054
 1734SOL     OW 1674   2.169   2.075   1.231
 1734SOL    HW1 1675   2.146   2.112   1.321
 1734SOL    HW2 1676   2.139   1.980   1.225
 1735SOL     OW 1677   1.899   3.172   1.282
 1735SOL    HW1 1678   1.952   3.123   1.350
 1735SOL    HW2 1679   1.921   3.270   1.287
 1736SOL     OW 1680   2.594   2.496   1.064
 1736SOL    HW1 1681   2.653   2.470   0.988
 1736SOL    HW2 1682   2.566   2.592   1.053
 1737SOL     OW 1683   3.590   2.797   1.854
 1737SOL    HW1 1684   3.544   2.790   1.765
 1737SOL    HW2 1685   3.528   2.841   1.920
 1738SOL     OW 1686   2.169   1.925   0.618
 1738SOL    HW1 1687   2.158   2.019   0.651
 1738SOL    HW2 1688   2.164   1.862   0.695
 1740SOL     OW 1689   2.885   2.628   0.966
 1740SOL    HW1 1690   2.900   2.649   1.062
 1740SOL    HW2 1691   2.855   2.533   0.957
 1741SOL     OW 1692   2.842   3.435   1.700
 1741SOL    HW1 1693   2.822   3.479   1.612
 1741SOL    HW2 1694   2.881   3.344   1.684
 1743SOL     OW 1695   2.212   2.760   1.804
 1743SOL    HW1 1696   2.288   2.804   1.852
 1743SOL    HW2 1697   2.247   2.713   1.722
 1747SOL     OW 1698   2.181   2.672   0.949
 1747SOL    HW1 1699   2.274   2.708   0.954
 1747SOL    HW2 1700   2.175   2.587   1.001
 1748SOL     OW 1701   2.201   2.371   1.006
 1748SOL    HW1 1702   2.149   2.288   0.989
 1748SOL    HW2 1703   2.278   2.376   0.942
 1749SOL     OW 1704   3.000   2.242   1.678
 1749SOL    HW1 1705   2.955   2.305   1.742
 1749SOL    HW2 1706   3.093   2.273   1.661
 1750SOL     OW 1707   3.022   2.069   1.477
 1750SOL    HW1 1708   3.022   2.133   1.554
 1750SOL    HW2 1709   3.050   2.117   1.394
 1753SOL     OW 1710   2.366   3.430   0.910
 1753SOL    HW1 1711   2.432   3.504   0.919
 1753SOL    HW2 1712   2.410   3.351   0.868
 1754SOL     OW 1713   2.864   2.658   1.238
 1754SOL    HW1 1714   2.905   2.626   1.324
 1754SOL    HW2 1715   2.768   2.631   1.235
 1755SOL     OW 1716   1.902   2.406   1.114
 1755SOL    HW1 1717   1.987   2.373   1.073
 1755SOL    HW2 1718   1.915   2.421   1.212
 1756SOL     OW 1719   2.051   2.382   1.722
 1756SOL    HW1 1720   2.110   2.342   1.652
 1756SOL    HW2 1721   1.993   2.453   1.681
 1757SOL     OW 1722   3.231   2.812   1.660
 1757SOL    HW1 1723   3.270   2.901   1.680
 1757SOL    HW2 1724   3.241   2.792   1.563
 1759SOL     OW 1725   3.519   2.466   1.206
 1759SOL    HW1 1726   3.481   2.397   1.268
 1759SOL    HW2 1727   3.601   2.430   1.162
 1760SOL     OW 1728   2.114   3.426   1.744
 1760SOL    HW1 1729   2.084   3.483   1.820
 1760SOL    HW2 1730   2.107   3.329   1.770
 1761SOL     OW 1731   2.533   2.326   1.269
 1761SOL    HW1 1732   2.499   2.237   1.239
 1761SOL    HW2 1733   2.559   2.380   1.189
 1762SOL     OW 1734   2.792   3.540   1.465
 1762SOL    HW1 1735   2.768   3.522   1.370
 1762SOL    HW2 1736   2.822   3.634   1.475
 1764SOL     OW 1737   2.021   2.999   1.466
 1764SOL    HW1 1738   2.043   2.938   1.542
 1764SOL    HW2 1739   2.031   2.950   1.380
 1765SOL     OW 1740   3.209   2.921   1.234
 1765SOL    HW1 1741   3.233   2.858   1.160
 1765SOL    HW2 1742   3.119   2.961   1.216
 1769SOL     OW 1743   1.945   3.120   1.022
 1769SOL    HW1 1744   1.940   3.119   1.122
 1769SOL    HW2 1745   1.862   3.079   0.984
 1770SOL     OW 1746   2.550   3.524   1.716
 1770SOL    HW1 1747   2.494   3.605   1.725
 1770SOL    HW2 1748   2.602   3.528   1.630
 1774SOL     OW 1749   1.992   3.656   1.851
 1774SOL    HW1 1750   1.951   3.582   1.904
 1774SOL    HW2 1751   2.056   3.707   1.909
 1776SOL     OW 1752   2.692   3.135   1.422
 1776SOL    HW1 1753   2.687   3.168   1.517
 1776SOL    HW2 1754   2.606   3.154   1.376
 1780SOL     OW 1755   2.125   2.188   0.720
 1780SOL    HW1 1756   2.046   2.239   0.686
 1780SOL    HW2 1757   2.116   2.173   0.818
 1782SOL     OW 1758   2.684   2.864   1.372
 1782SOL    HW1 1759   2.724   2.863   1.280
 1782SOL    HW2 1760   2.694   2.956   1.412
 1785SOL     OW 1761   2.234   3.150   1.490
 1785SOL    HW1 1762   2.221   3.243   1.456
 1785SOL    HW2 1763   2.150   3.098   1.477
 1788SOL     OW 1764   2.876   2.098   0.971
 1788SOL    HW1 1765   2.868   2.062   0.878
 1788SOL    HW2 1766   2.874   2.022   1.036
 1790SOL     OW 1767   3.571   2.247   1.381
 1790SOL    HW1 1768   3.644   2.316   1.385
 1790SOL    HW2 1769   3.599   2.172   1.322
 1792SOL     OW 1770   1.967   2.875   1.726
 1792SOL    HW1 1771   1.890   2.842   1.780
 1792SOL    HW2 1772   2.052   2.845   1.768
 1793SOL     OW 1773   2.534   2.065   1.489
 1793SOL    HW1 1774   2.624   2.049   1.449
 1793SOL    HW2 1775   2.542   2.070   1.588
 1795SOL     OW 1776   3.302   2.718   1.398
 1795SOL    HW1 1777   3.245   2.770   1.335
 1795SOL    HW2 1778   3.398   2.730   1.374
 1798SOL     OW 1779   2.475   2.704   1.431
 1798SOL    HW1 1780   2.531   2.785   1.414
 1798SOL    HW2 1781   2.534   2.624   1.434
 1800SOL     OW 1782   2.578   2.427   1.708
 1800SOL    HW1 1783   2.597   2.492   1.782
 1800SOL    HW2 1784   2.638   2.347   1.717
 1801SOL     OW 1785   3.312   3.082   1.633
 1801SOL    HW1 1786   3.303   3.072   1.732
 1801SOL    HW2 1787   3.408   3.075   1.607
 1802SOL     OW 1788   2.252   3.603   1.560
 1802SOL    HW1 1789   2.161   3.644   1.558
 1802SOL    HW2 1790   2.245   3.509   1.592
 1803SOL     OW 1791   3.536   2.745   1.254
 1803SOL    HW1 1792   3.509   2.656   1.217
 1803SOL    HW2 1793   3.537   2.813   1.181
 1805SOL     OW 1794   2.456   2.607   0.652
 1805SOL    HW1 1795   2.506   2.692   0.633
 1805SOL    HW2 1796   2.368   2.609   0.604
 1806SOL     OW 1797   3.639   2.204   1.642
 1806SOL    HW1 1798   3.622   2.235   1.548
 1806SOL    HW2 1799   3.555   2.167   1.680
 1807SOL     OW 1800   3.592   2.796   1.517
 1807SOL    HW1 1801   3.630   2.887   1.532
 1807SOL    HW2 1802   3.584   2.779   1.418
 1810SOL     OW 1803   2.721   2.818   0.861
 1810SOL    HW1 1804   2.775   2.749   0.909
 1810SOL    HW2 1805   2.689   2.887   0.927
 1813SOL     OW 1806   2.083   3.176   1.844
 1813SOL    HW1 1807   2.018   3.103   1.823
 1813SOL    HW2 1808   2.087   3.190   1.942
 1814SOL     OW 1809   1.941   3.102   0.653
 1814SOL    HW1 1810   1.940   3.055   0.741
 1814SOL    HW2 1811   2.023   3.074   0.602
 1815SOL     OW 1812   2.534   3.253   1.624
 1815SOL    HW1 1813   2.456   3.203   1.662
 1815SOL    HW2 1814   2.531   3.348   1.655
 1816SOL     OW 1815   3.686   2.054   1.227
 1816SOL    HW1 1816   3.682   1.964   1.271
 1816SOL    HW2 1817   3.689   2.043   1.128
 1817SOL     OW 1818   2.290   2.286   0.520
 1817SOL    HW1 1819   2.320   2.214   0.458
 1817SOL    HW2 1820   2.251   2.246   0.603
 1819SOL     OW 1821   2.179   2.409   1.280
 1819SOL    HW1 1822   2.217   2.350   1.352
 1819SOL    HW2 1823   2.219   2.383   1.192
 1821SOL     OW 1824   3.286   2.076   1.112
 1821SOL    HW1 1825   3.338   2.011   1.167
 1821SOL    HW2 1826   3.237   2.139   1.173
 1822SOL     OW 1827   2.863   1.896   1.154
 1822SOL    HW1 1828   2.800   1.824   1.123
 1822SOL    HW2 1829   2.956   1.860   1.154
 1824SOL     OW 1830   2.480   3.429   1.284
 1824SOL    HW1 1831   2.475   3.511   1.341
 1824SOL    HW2 1832   2.569   3.426   1.239
 1826SOL     OW 1833   3.162   2.315   0.691
 1826SOL    HW1 1834   3.103   2.395   0.695
 1826SOL    HW2 1835   3.177   2.280   0.784
 1830SOL     OW 1836   2.092   2.490   1.975
 1830SOL    HW1 1837   1.999   2.488   2.012
 1830SOL    HW2 1838   2.093   2.451   1.883
 1831SOL     OW 1839   2.087   2.137   2.858
 1831SOL    HW1 1840   2.122   2.120   2.950
 1831SOL    HW2 1841   1.999   2.092   2.846
 1832SOL     OW 1842   1.881   2.230   2.509
 1832SOL    HW1 1843   1.799   2.273   2.548
 1832SOL    HW2 1844   1.853   2.157   2.446
 1833SOL     OW 1845   2.431   3.137   3.027
 1833SOL    HW1 1846   2.338   3.130   2.990
 1833SOL    HW2 1847   2.442   3.226   3.071
 1835SOL     OW 1848   2.997   2.565   2.579
 1835SOL    HW1 1849   3.054   2.643   2.554
 1835SOL    HW2 1850   2.937   2.591   2.655
 1836SOL     OW 1851   3.617   2.469   2.093
 1836SOL    HW1 1852   3.605   2.456   1.994
 1836SOL    HW2 1853   3.587   2.388   2.142
 1837SOL     OW 1854   2.630   3.006   2.885
 1837SOL    HW1 1855   2.552   3.023   2.945
 1837SOL    HW2 1856   2.664   3.093   2.849
 1838SOL     OW 1857   2.712   2.660   3.685
 1838SOL    HW1 1858   2.708   2.736   3.750
 1838SOL    HW2 1859   2.734   2.696   3.594
 1839SOL     OW 1860   2.547   2.874   2.527
 1839SOL    HW1 1861   2.616   2.858   2.597
 1839SOL    HW2 1862   2.474   2.931   2.565
 1840SOL     OW 1863   2.548   3.023   3.665
 1840SOL    HW1 1864   2.608   3.102   3.679
 1840SOL    HW2 1865   2.462   3.054   3.624
 1841SOL     OW 1866   2.197   3.297   2.923
 1841SOL    HW1 1867   2.119   3.266   2.870
 1841SOL    HW2 1868   2.255   3.355   2.866
 1843SOL     OW 1869   2.300   2.254   3.361
 1843SOL    HW1 1870   2.382   2.198   3.370
 1843SOL    HW2 1871   2.219   2.196   3.365
 1844SOL     OW 1872   3.465   2.309   2.599
 1844SOL    HW1 1873   3.391   2.355   2.549
 1844SOL    HW2 1874   3.516   2.377   2.652
 1845SOL     OW 1875   2.093   3.575   2.345
 1845SOL    HW1 1876   2.127   3.652   2.399
 1845SOL    HW2 1877   2.137   3.575   2.255
 1847SOL     OW 1878   2.092   3.296   2.400
 1847SOL    HW1 1879   2.066   3.392   2.400
 1847SOL    HW2 1880   2.021   3.242   2.445
 1848SOL     OW 1881   2.102   2.953   2.748
 1848SOL    HW1 1882   2.116   2.869   2.800
 1848SOL    HW2 1883   2.047   3.017   2.803
 1850SOL     OW 1884   2.468   2.826   1.985
 1850SOL    HW1 1885   2.475   2.910   1.931
 1850SOL    HW2 1886   2.514   2.839   2.073
 1851SOL     OW 1887   3.456   1.976   3.342
 1851SOL    HW1 1888   3.438   2.043   3.270
 1851SOL    HW2 1889   3.453   2.022   3.431
 1852SOL     OW 1890   1.984   2.505   2.425
 1852SOL    HW1 1891   1.939   2.417   2.442
 1852SOL    HW2 1892   1.983   2.559   2.509
 1854SOL     OW 1893   1.889   3.458   1.979
 1854SOL    HW1 1894   1.870   3.362   2.000
 1854SOL    HW2 1895   1.856   3.516   2.054
 1855SOL     OW 1896   3.551   2.784   2.474
 1855SOL    HW1 1897   3.646   2.755   2.482
 1855SOL    HW2 1898   3.543   2.849   2.399
 1856SOL     OW 1899   3.503   2.970   2.294
 1856SOL    HW1 1900   3.589   2.972   2.242
 1856SOL    HW2 1901   3.517   3.017   2.382
 1857SOL     OW 1902   1.975   2.599   3.459
 1857SOL    HW1 1903   2.063   2.586   3.504
 1857SOL    HW2 1904   1.962   2.696   3.437
 1858SOL     OW 1905   2.475   3.227   2.588
 1858SOL    HW1 1906   2.426   3.140   2.597
 1858SOL    HW2 1907   2.452   3.270   2.501
 1859SOL     OW 1908   3.155   3.090   3.285
 1859SOL    HW1 1909   3.192   3.017   3.227
 1859SOL    HW2 1910   3.207   3.095   3.370
 1860SOL     OW 1911   2.671   1.866   2.364
 1860SOL    HW1 1912   2.711   1.957   2.355
 1860SOL    HW2 1913   2.571   1.874   2.370
 1861SOL     OW 1914   2.059   2.838   3.126
 1861SOL    HW1 1915   2.148   2.793   3.112
 1861SOL    HW2 1916   1.986   2.773   3.107
 1862SOL     OW 1917   3.387   2.861   2.052
 1862SOL    HW1 1918   3.324   2.785   2.065
 1862SOL    HW2 1919   3.435   2.879   2.138
 1864SOL     OW 1920   2.179   2.113   3.663
 1864SOL    HW1 1921   2.250   2.184   3.669
 1864SOL    HW2 1922   2.091   2.152   3.691
 1865SOL     OW 1923   3.328   3.279   2.815
 1865SOL    HW1 1924   3.269   3.285   2.895
 1865SOL    HW2 1925   3.313   3.191   2.769
 1867SOL     OW 1926   2.460   2.591   2.132
 1867SOL    HW1 1927   2.484   2.660   2.064
 1867SOL    HW2 1928   2.382   2.624   2.186
 1868SOL     OW 1929   3.143   2.207   2.806
 1868SOL    HW1 1930   3.057   2.157   2.793
 1868SOL    HW2 1931   3.205   2.153   2.862
 1870SOL     OW 1932   2.669   2.467   3.327
 1870SOL    HW1 1933   2.622   2.464   3.416
 1870SOL    HW2 1934   2.618   2.412   3.261
 1871SOL     OW 1935   3.256   2.331   3.536
 1871SOL    HW1 1936   3.236   2.374   3.624
 1871SOL    HW2 1937   3.334   2.269   3.545
 1872SOL     OW 1938   2.835   2.752   3.434
 1872SOL    HW1 1939   2.881   2.668   3.405
 1872SOL    HW2 1940   2.779   2.786   3.359
 1873SOL     OW 1941   2.853   2.272   3.104
 1873SOL    HW1 1942   2.776   2.306   3.158
 1873SOL    HW2 1943   2.819   2.221   3.025
 1874SOL     OW 1944   2.903   2.563   2.291
 1874SOL    HW1 1945   2.929   2.559   2.387
 1874SOL    HW2 1946   2.818   2.512   2.277
 1875SOL     OW 1947   1.938   2.673   2.651
 1875SOL    HW1 1948   2.037   2.661   2.660
 1875SOL    HW2 1949   1.914   2.768   2.672
 1877SOL     OW 1950   2.727   2.210   2.057
 1877SOL    HW1 1951   2.786   2.273   2.008
 1877SOL    HW2 1952   2.746   2.116   2.028
 1879SOL     OW 1953   3.224   3.006   2.407
 1879SOL    HW1 1954   3.307   2.977   2.359
 1879SOL    HW2 1955   3.175   3.073   2.351
 1880SOL     OW 1956   2.412   2.058   2.747
 1880SOL    HW1 1957   2.407   2.053   2.847
 1880SOL    HW2 1958   2.414   2.154   2.718
 1881SOL     OW 1959   2.870   3.318   2.339
 1881SOL    HW1 1960   2.824   3.390   2.287
 1881SOL    HW2 1961   2.866   3.338   2.437
 1882SOL     OW 1962   2.213   3.663   2.715
 1882SOL    HW1 1963   2.263   3.577   2.721
 1882SOL    HW2 1964   2.278   3.740   2.712
 1883SOL     OW 1965   3.657   2.928   2.735
 1883SOL    HW1 1966   3.595   2.913   2.659
 1883SOL    HW2 1967   3.605   2.939   2.820
 1885SOL     OW 1968   2.183   2.805   2.104
 1885SOL    HW1 1969   2.265   2.844   2.062
 1885SOL    HW2 1970   2.156   2.723   2.055
 1886SOL     OW 1971   3.320   2.597   2.590
 1886SOL    HW1 1972   3.315   2.532   2.665
 1886SOL    HW2 1973   3.400   2.656   2.603
 1887SOL     OW 1974   2.323   3.128   3.589
 1887SOL    HW1 1975   2.273   3.129   3.503
 1887SOL    HW2 1976   2.260   3.110   3.665
 1888SOL     OW 1977   2.973   3.638   2.099
 1888SOL    HW1 1978   2.913   3.576   2.149
 1888SOL    HW2 1979   3.004   3.594   2.014
 1889SOL     OW 1980   2.064   2.147   3.360
 1889SOL    HW1 1981   1.984   2.207   3.347
 1889SOL    HW2 1982   2.054   2.098   3.446
 1890SOL     OW 1983   3.494   3.239   1.943
 1890SOL    HW1 1984   3.462   3.333   1.933
 1890SOL    HW2 1985   3.418   3.176   1.931
 1891SOL     OW 1986   2.326   3.605   2.185
 1891SOL    HW1 1987   2.359   3.644   2.271
 1891SOL    HW2 1988   2.402   3.598   2.120
 1892SOL     OW 1989   3.262   1.969   2.288
 1892SOL    HW1 1990   3.238   1.932   2.198
 1892SOL    HW2 1991   3.361   1.985   2.292
 1893SOL     OW 1992   2.111   3.647   3.103
 1893SOL    HW1 1993   2.168   3.582   3.153
 1893SOL    HW2 1994   2.095   3.614   3.010
 1894SOL     OW 1995   2.802   3.560   2.766
 1894SOL    HW1 1996   2.882   3.503   2.787
 1894SOL    HW2 1997   2.753   3.520   2.689
 1895SOL     OW 1998   2.244   2.562   2.342
 1895SOL    HW1 1999   2.289   2.472   2.339
 1895SOL    HW2 2000   2.150   2.551   2.375
 1897SOL     OW 2001   2.476   1.984   1.979
 1897SOL    HW1 2002   2.574   1.962   1.986
 1897SOL    HW2 2003   2.445   1.967   1.886
 1898SOL     OW 2004   2.643   2.126   3.611
 1898SOL    HW1 2005   2.710   2.065   3.654
 1898SOL    HW2 2006   2.570   2.145   3.676
 1899SOL     OW 2007   2.750   3.376   3.057
 1899SOL    HW1 2008   2.727   3.351   2.963
 1899SOL    HW2 2009   2.811   3.307   3.096
 1900SOL     OW 2010   3.213   2.452   3.295
 1900SOL    HW1 2011   3.241   2.409   3.380
 1900SOL    HW2 2012   3.238   2.548   3.296
 1901SOL     OW 2013   2.665   3.264   2.786
 1901SOL    HW1 2014   2.755   3.278   2.744
 1901SOL    HW2 2015   2.594   3.266   2.715
 1902SOL     OW 2016   2.784   2.365   2.761
 1902SOL    HW1 2017   2.759   2.356   2.665
 1902SOL    HW2 2018   2.832   2.283   2.792
 1903SOL     OW 2019   2.401   1.926   2.374
 1903SOL    HW1 2020   2.320   1.927   2.432
 1903SOL    HW2 2021   2.404   2.009   2.319
 1904SOL     OW 2022   3.296   3.050   1.903
 1904SOL    HW1 2023   3.328   2.974   1.960
 1904SOL    HW2 2024   3.204   3.077   1.933
 1905SOL     OW 2025   2.159   1.897   2.033
 1905SOL    HW1 2026   2.208   1.981   2.012
 1905SOL    HW2 2027   2.221   1.832   2.078
 1906SOL     OW 2028   2.797   2.098   2.342
 1906SOL    HW1 2029   2.749   2.139   2.264
 1906SOL    HW2 2030   2.896   2.096   2.323
 1907SOL     OW 2031   2.938   2.545   3.326
 1907SOL    HW1 2032   2.858   2.484   3.329
 1907SOL    HW2 2033   3.019   2.492   3.302
 1908SOL     OW 2034   3.089   3.432   2.655
 1908SOL    HW1 2035   3.110   3.506   2.590
 1908SOL    HW2 2036   3.157   3.432   2.728
 1909SOL     OW 2037   2.321   3.014   2.603
 1909SOL    HW1 2038   2.250   2.987   2.668
 1909SOL    HW2 2039   2.295   2.986   2.510
 1911SOL     OW 2040   2.894   2.411   1.878
 1911SOL    HW1 2041   2.853   2.493   1.839
 1911SOL    HW2 2042   2.958   2.437   1.951
 1912SOL     OW 2043   1.940   2.418   3.248
 1912SOL    HW1 2044   2.032   2.417   3.207
 1912SOL    HW2 2045   1.934   2.492   3.315
 1913SOL     OW 2046   2.423   2.084   3.009
 1913SOL    HW1 2047   2.461   2.000   3.046
 1913SOL    HW2 2048   2.335   2.103   3.053
 1914SOL     OW 2049   2.728   2.316   2.504
 1914SOL    HW1 2050   2.696   2.388   2.442
 1914SOL    HW2 2051   2.752   2.235   2.451
 1915SOL     OW 2052   2.879   1.901   2.615
 1915SOL    HW1 2053   2.807   1.906   2.546
 1915SOL    HW2 2054   2.855   1.832   2.684
 1916SOL     OW 2055   3.291   3.035   2.729
 1916SOL    HW1 2056   3.236   2.951   2.722
 1916SOL    HW2 2057   3.317   3.064   2.637
 1917SOL     OW 2058   3.328   2.452   2.854
 1917SOL    HW1 2059   3.298   2.357   2.861
 1917SOL    HW2 2060   3.401   2.468   2.920
 1918SOL     OW 2061   3.719   2.695   2.239
 1918SOL    HW1 2062   3.761   2.631   2.303
 1918SOL    HW2 2063   3.681   2.644   2.161
 1919SOL     OW 2064   2.350   3.247   2.036
 1919SOL    HW1 2065   2.263   3.232   2.083
 1919SOL    HW2 2066   2.333   3.273   1.941
 1920SOL     OW 2067   3.526   3.142   2.519
 1920SOL    HW1 2068   3.625   3.150   2.533
 1920SOL    HW2 2069   3.481   3.226   2.550
 1921SOL     OW 2070   3.252   2.437   1.940
 1921SOL    HW1 2071   3.198   2.416   2.021
 1921SOL    HW2 2072   3.343   2.396   1.949
 1923SOL     OW 2073   2.926   3.209   3.202
 1923SOL    HW1 2074   2.846   3.186   3.257
 1923SOL    HW2 2075   3.009   3.183   3.251
 1925SOL     OW 2076   2.973   3.057   2.962
 1925SOL    HW1 2077   2.933   3.101   3.043
 1925SOL    HW2 2078   2.932   3.094   2.879
 1926SOL     OW 2079   3.500   2.961   2.941
 1926SOL    HW1 2080   3.505   3.042   3.000
 1926SOL    HW2 2081   3.414   2.963   2.890
 1927SOL     OW 2082   2.777   1.951   3.264
 1927SOL    HW1 2083   2.802   1.931   3.169
 1927SOL    HW2 2084   2.849   2.007   3.306
 1928SOL     OW 2085   2.842   2.978   3.581
 1928SOL    HW1 2086   2.743   2.984   3.591
 1928SOL    HW2 2087   2.865   2.898   3.525
 1929SOL     OW 2088   2.567   2.912   2.230
 1929SOL    HW1 2089   2.553   2.919   2.329
 1929SOL    HW2 2090   2.651   2.861   2.212
 1930SOL     OW 2091   2.272   2.675   3.113
 1930SOL    HW1 2092   2.358   2.687   3.163
 1930SOL    HW2 2093   2.230   2.588   3.140
 1931SOL     OW 2094   3.136   2.248   3.124
 1931SOL    HW1 2095   3.157   2.322   3.188
 1931SOL    HW2 2096   3.047   2.265   3.081
 1932SOL     OW 2097   1.926   3.426   3.193
 1932SOL    HW1 2098   1.880   3.508   3.159
 1932SOL    HW2 2099   2.024   3.445   3.202
 1933SOL     OW 2100   2.229   2.962   2.363
 1933SOL    HW1 2101   2.222   3.045   2.307
 1933SOL    HW2 2102   2.233   2.882   2.303
 1934SOL     OW 2103   2.428   2.399   2.727
 1934SOL    HW1 2104   2.440   2.465   2.653
 1934SOL    HW2 2105   2.474   2.433   2.810
 1935SOL     OW 2106   3.114   3.210   2.250
 1935SOL    HW1 2107   3.164   3.287   2.290
 1935SOL    HW2 2108   3.019   3.212   2.282
 1936SOL     OW 2109   3.134   3.307   3.004
 1936SOL    HW1 2110   3.181   3.320   3.091
 1936SOL    HW2 2111   3.068   3.233   3.013
 1937SOL     OW 2112   3.444   2.501   2.334
 1937SOL    HW1 2113   3.413   2.562   2.407
 1937SOL    HW2 2114   3.494   2.553   2.265
 1938SOL     OW 2115   2.216   3.372   3.191
 1938SOL    HW1 2116   2.195   3.328   3.104
 1938SOL    HW2 2117   2.313   3.398   3.194
 1939SOL     OW 2118   2.264   2.613   3.460
 1939SOL    HW1 2119   2.332   2.668   3.413
 1939SOL    HW2 2120   2.304   2.525   3.487
 1941SOL     OW 2121   2.875   1.967   3.632
 1941SOL    HW1 2122   2.881   2.052   3.580
 1941SOL    HW2 2123   2.907   1.891   3.575
 1942SOL     OW 2124   2.366   1.912   3.602
 1942SOL    HW1 2125   2.324   1.855   3.532
 1942SOL    HW2 2126   2.300   1.981   3.634
 1943SOL     OW 2127   2.435   2.732   2.891
 1943SOL    HW1 2128   2.479   2.821   2.882
 1943SOL    HW2 2129   2.372   2.732   2.968
 1944SOL     OW 2130   3.222   2.724   2.907
 1944SOL    HW1 2131   3.147   2.724   2.841
 1944SOL    HW2 2132   3.259   2.632   2.916
 1945SOL     OW 2133   3.071   2.387   2.137
 1945SOL    HW1 2134   3.084   2.303   2.191
 1945SOL    HW2 2135   3.042   2.461   2.197
 1946SOL     OW 2136   2.169   2.075   3.093
 1946SOL    HW1 2137   2.146   2.112   3.183
 1946SOL    HW2 2138   2.139   1.980   3.087
 1947SOL     OW 2139   1.899   3.172   3.144
 1947SOL    HW1 2140   1.952   3.123   3.212
 1947SOL    HW2 2141   1.921   3.270   3.149
 1948SOL     OW 2142   2.594   2.496   2.926
 1948SOL    HW1 2143   2.653   2.470   2.850
 1948SOL    HW2 2144   2.566   2.592   2.915
 1950SOL     OW 2145   2.169   1.925   2.480
 1950SOL    HW1 2146   2.158   2.019   2.513
 1950SOL    HW2 2147   2.164   1.862   2.557
 1951SOL     OW 2148   3.484   2.229   2.236
 1951SOL    HW1 2149   3.486   2.153   2.300
 1951SOL    HW2 2150   3.436   2.306   2.276
 1952SOL     OW 2151   2.885   2.628   2.828
 1952SOL    HW1 2152   2.900   2.649   2.924
 1952SOL    HW2 2153   2.855   2.533   2.819
 1955SOL     OW 2154   2.212   2.760   3.666
 1955SOL    HW1 2155   2.288   2.804   3.714
 1955SOL    HW2 2156   2.247   2.713   3.584
 1956SOL     OW 2157   3.402   2.136   1.987
 1956SOL    HW1 2158   3.341   2.061   2.010
 1956SOL    HW2 2159   3.424   2.188   2.070
 1957SOL     OW 2160   3.165   2.700   1.904
 1957SOL    HW1 2161   3.199   2.607   1.919
 1957SOL    HW2 2162   3.183   2.727   1.809
 1958SOL     OW 2163   2.930   3.195   2.711
 1958SOL    HW1 2164   2.937   3.111   2.656
 1958SOL    HW2 2165   2.992   3.264   2.675
 1959SOL     OW 2166   2.181   2.672   2.811
 1959SOL    HW1 2167   2.274   2.708   2.816
 1959SOL    HW2 2168   2.175   2.587   2.863
 1960SOL     OW 2169   2.201   2.371   2.868
 1960SOL    HW1 2170   2.149   2.288   2.851
 1960SOL    HW2 2171   2.278   2.376   2.804
 1961SOL     OW 2172   3.000   2.242   3.540
 1961SOL    HW1 2173   2.955   2.305   3.604
 1961SOL    HW2 2174   3.093   2.273   3.523
 1962SOL     OW 2175   3.022   2.069   3.339
 1962SOL    HW1 2176   3.022   2.133   3.416
 1962SOL    HW2 2177   3.050   2.117   3.256
 1963SOL     OW 2178   1.870   3.188   2.062
 1963SOL    HW1 2179   1.777   3.209   2.031
 1963SOL    HW2 2180   1.880   3.089   2.075
 1964SOL     OW 2181   1.950   3.663   2.789
 1964SOL    HW1 2182   1.908   3.577   2.762
 1964SOL    HW2 2183   2.044   3.666   2.755
 1965SOL     OW 2184   2.366   3.430   2.772
 1965SOL    HW1 2185   2.432   3.504   2.781
 1965SOL    HW2 2186   2.410   3.351   2.730
 1966SOL     OW 2187   2.864   2.658   3.100
 1966SOL    HW1 2188   2.905   2.626   3.186
 1966SOL    HW2 2189   2.768   2.631   3.097
 1967SOL     OW 2190   1.902   2.406   2.976
 1967SOL    HW1 2191   1.987   2.373   2.935
 1967SOL    HW2 2192   1.915   2.421   3.074
 1968SOL     OW 2193   2.051   2.382   3.584
 1968SOL    HW1 2194   2.110   2.342   3.514
 1968SOL    HW2 2195   1.993   2.453   3.543
 1970SOL     OW 2196   2.677   2.434   2.187
 1970SOL    HW1 2197   2.684   2.345   2.141
 1970SOL    HW2 2198   2.583   2.468   2.179
 1971SOL     OW 2199   3.519   2.466   3.068
 1971SOL    HW1 2200   3.481   2.397   3.130
 1971SOL    HW2 2201   3.601   2.430   3.024
 1973SOL     OW 2202   2.533   2.326   3.131
 1973SOL    HW1 2203   2.499   2.237   3.101
 1973SOL    HW2 2204   2.559   2.380   3.051
 1975SOL     OW 2205   2.335   2.362   2.053
 1975SOL    HW1 2206   2.396   2.442   2.057
 1975SOL    HW2 2207   2.240   2.393   2.060
 1976SOL     OW 2208   2.021   2.999   3.328
 1976SOL    HW1 2209   2.043   2.938   3.404
 1976SOL    HW2 2210   2.031   2.950   3.242
 1977SOL     OW 2211   3.209   2.921   3.096
 1977SOL    HW1 2212   3.233   2.858   3.022
 1977SOL    HW2 2213   3.119   2.961   3.078
 1978SOL     OW 2214   3.164   2.717   2.171
 1978SOL    HW1 2215   3.078   2.686   2.213
 1978SOL    HW2 2216   3.160   2.703   2.072
 1981SOL     OW 2217   1.945   3.120   2.884
 1981SOL    HW1 2218   1.940   3.119   2.984
 1981SOL    HW2 2219   1.862   3.079   2.846
 1983SOL     OW 2220   3.588   1.997   2.385
 1983SOL    HW1 2221   3.661   1.980   2.318
 1983SOL    HW2 2222   3.557   1.910   2.423
 1984SOL     OW 2223   3.250   3.435   2.339
 1984SOL    HW1 2224   3.317   3.447   2.265
 1984SOL    HW2 2225   3.210   3.524   2.362
 1986SOL     OW 2226   3.142   2.789   2.534
 1986SOL    HW1 2227   3.202   2.708   2.536
 1986SOL    HW2 2228   3.182   2.858   2.474
 1987SOL     OW 2229   2.692   3.135   3.284
 1987SOL    HW1 2230   2.687   3.168   3.379
 1987SOL    HW2 2231   2.606   3.154   3.238
 1988SOL     OW 2232   2.534   3.478   2.016
 1988SOL    HW1 2233   2.543   3.488   1.917
 1988SOL    HW2 2234   2.494   3.389   2.037
 1990SOL     OW 2235   3.703   2.037   2.825
 1990SOL    HW1 2236   3.742   1.952   2.789
 1990SOL    HW2 2237   3.605   2.039   2.806
 1991SOL     OW 2238   2.125   2.188   2.582
 1991SOL    HW1 2239   2.046   2.239   2.548
 1991SOL    HW2 2240   2.116   2.173   2.680
 1992SOL     OW 2241   3.056   3.474   1.893
 1992SOL    HW1 2242   3.062   3.381   1.930
 1992SOL    HW2 2243   2.997   3.474   1.813
 1993SOL     OW 2244   2.684   2.864   3.234
 1993SOL    HW1 2245   2.724   2.863   3.142
 1993SOL    HW2 2246   2.694   2.956   3.274
 1994SOL     OW 2247   2.778   2.772   2.153
 1994SOL    HW1 2248   2.841   2.810   2.085
 1994SOL    HW2 2249   2.818   2.689   2.192
 1996SOL     OW 2250   2.234   3.150   3.352
 1996SOL    HW1 2251   2.221   3.243   3.318
 1996SOL    HW2 2252   2.150   3.098   3.339
 1998SOL     OW 2253   2.901   2.960   2.558
 1998SOL    HW1 2254   2.831   2.913   2.612
 1998SOL    HW2 2255   2.960   2.892   2.515
 1999SOL     OW 2256   2.876   2.098   2.833
 1999SOL    HW1 2257   2.868   2.062   2.740
 1999SOL    HW2 2258   2.874   2.022   2.898
 2000SOL     OW 2259   2.452   3.349   2.353
 2000SOL    HW1 2260   2.494   3.291   2.283
 2000SOL    HW2 2261   2.408   3.428   2.309
 2001SOL     OW 2262   3.571   2.247   3.243
 2001SOL    HW1 2263   3.644   2.316   3.247
 2001SOL    HW2 2264   3.599   2.172   3.184
 2002SOL     OW 2265   2.117   3.210   2.152
 2002SOL    HW1 2266   2.021   3.211   2.125
 2002SOL    HW2 2267   2.129   3.263   2.236
 2003SOL     OW 2268   1.967   2.875   3.588
 2003SOL    HW1 2269   1.890   2.842   3.642
 2003SOL    HW2 2270   2.052   2.845   3.630
 2004SOL     OW 2271   2.534   2.065   3.351
 2004SOL    HW1 2272   2.624   2.049   3.311
 2004SOL    HW2 2273   2.542   2.070   3.450
 2005SOL     OW 2274   1.937   2.207   1.895
 2005SOL    HW1 2275   1.845   2.179   1.866
 2005SOL    HW2 2276   1.968   2.284   1.839
 2006SOL     OW 2277   3.302   2.718   3.260
 2006SOL    HW1 2278   3.245   2.770   3.197
 2006SOL    HW2 2279   3.398   2.730   3.236
 2007SOL     OW 2280   3.045   3.197   1.981
 2007SOL    HW1 2281   2.946   3.186   1.983
 2007SOL    HW2 2282   3.079   3.212   2.074
 2008SOL     OW 2283   2.475   2.704   3.293
 2008SOL    HW1 2284   2.531   2.785   3.276
 2008SOL    HW2 2285   2.534   2.624   3.296
 2010SOL     OW 2286   2.578   2.427   3.570
 2010SOL    HW1 2287   2.597   2.492   3.644
 2010SOL    HW2 2288   2.638   2.347   3.579
 2013SOL     OW 2289   3.536   2.745   3.116
 2013SOL    HW1 2290   3.509   2.656   3.079
 2013SOL    HW2 2291   3.537   2.813   3.043
 2014SOL     OW 2292   3.087   2.187   2.311
 2014SOL    HW1 2293   3.152   2.113   2.300
 2014SOL    HW2 2294   3.107   2.237   2.395
 2015SOL     OW 2295   2.456   2.607   2.514
 2015SOL    HW1 2296   2.506   2.692   2.495
 2015SOL    HW2 2297   2.368   2.609   2.466
 2018SOL     OW 2298   2.721   3.236   1.878
 2018SOL    HW1 2299   2.675   3.251   1.966
 2018SOL    HW2 2300   2.765   3.321   1.848
 2019SOL     OW 2301   2.523   3.652   2.815
 2019SOL    HW1 2302   2.477   3.740   2.802
 2019SOL    HW2 2303   2.622   3.664   2.808
 2020SOL     OW 2304   2.721   2.818   2.723
 2020SOL    HW1 2305   2.775   2.749   2.771
 2020SOL    HW2 2306   2.689   2.887   2.789
 2021SOL     OW 2307   2.945   2.846   1.949
 2021SOL    HW1 2308   2.922   2.899   1.867
 2021SOL    HW2 2309   3.026   2.790   1.930
 2024SOL     OW 2310   1.941   3.102   2.515
 2024SOL    HW1 2311   1.940   3.055   2.603
 2024SOL    HW2 2312   2.023   3.074   2.464
 2025SOL     OW 2313   2.534   3.253   3.486
 2025SOL    HW1 2314   2.456   3.203   3.524
 2025SOL    HW2 2315   2.531   3.348   3.517
 2026SOL     OW 2316   3.686   2.054   3.089
 2026SOL    HW1 2317   3.682   1.964   3.133
 2026SOL    HW2 2318   3.689   2.043   2.990
 2027SOL     OW 2319   2.290   2.286   2.382
 2027SOL    HW1 2320   2.320   2.214   2.320
 2027SOL    HW2 2321   2.251   2.246   2.465
 2029SOL     OW 2322   2.179   2.409   3.142
 2029SOL    HW1 2323   2.217   2.350   3.214
 2029SOL    HW2 2324   2.219   2.383   3.054
 2030SOL     OW 2325   2.674   3.448   2.549
 2030SOL    HW1 2326   2.706   3.458   2.455
 2030SOL    HW2 2327   2.595   3.386   2.551
 2031SOL     OW 2328   3.286   2.076   2.974
 2031SOL    HW1 2329   3.338   2.011   3.029
 2031SOL    HW2 2330   3.237   2.139   3.035
 2032SOL     OW 2331   2.863   1.896   3.016
 2032SOL    HW1 2332   2.800   1.824   2.985
 2032SOL    HW2 2333   2.956   1.860   3.016
 2033SOL     OW 2334   2.632   3.192   2.163
 2033SOL    HW1 2335   2.586   3.105   2.180
 2033SOL    HW2 2336   2.723   3.189   2.204
 2034SOL     OW 2337   2.480   3.429   3.146
 2034SOL    HW1 2338   2.475   3.511   3.203
 2034SOL    HW2 2339   2.569   3.426   3.101
 2035SOL     OW 2340   3.214   1.914   2.030
 2035SOL    HW1 2341   3.249   1.873   1.946
 2035SOL    HW2 2342   3.124   1.876   2.050
 2036SOL     OW 2343   3.162   2.315   2.553
 2036SOL    HW1 2344   3.103   2.395   2.557
 2036SOL    HW2 2345   3.177   2.280   2.646
 2037SOL     OW 2346   3.455   2.083   2.744
 2037SOL    HW1 2347   3.371   2.082   2.798
 2037SOL    HW2 2348   3.457   2.166   2.688
 2038SOL     OW 2349   1.901   2.939   2.162
 2038SOL    HW1 2350   2.000   2.928   2.153
 2038SOL    HW2 2351   1.861   2.853   2.194
 2039SOL     OW 2352   2.737   3.508   2.199
 2039SOL    HW1 2353   2.660   3.473   2.145
 2039SOL    HW2 2354   2.705   3.579   2.261
 2040SOL     OW 2355   2.092   2.490   3.837
 2040SOL    HW1 2356   1.999   2.488   3.874
 2040SOL    HW2 2357   2.093   2.451   3.745
 2060SOL     OW 2358   2.476   1.984   3.841
 2060SOL    HW1 2359   2.574   1.962   3.848
 2060SOL    HW2 2360   2.445   1.967   3.748
 2062SOL     OW 2361   2.159   1.897   3.895
 2062SOL    HW1 2362   2.208   1.981   3.874
 2062SOL    HW2 2363   2.221   1.832   3.940
 2065SOL     OW 2364   2.894   2.411   3.740
 2065SOL    HW1 2365   2.853   2.493   3.701
 2065SOL    HW2 2366   2.958   2.437   3.813
 2080SOL     OW 2367   2.335   2.362   3.915
 2080SOL    HW1 2368   2.396   2.442   3.919
 2080SOL    HW2 2369   2.240   2.393   3.922
 2090SOL     OW 2370   1.937   2.207   3.757
 2090SOL    HW1 2371   1.845   2.179   3.728
 2090SOL    HW2 2372   1.968   2.284   3.701
 2134SOL     OW 2373   2.366   3.774   1.740
 2134SOL    HW1 2374   2.324   3.717   1.670
 2134SOL    HW2 2375   2.300   3.843   1.772
 2176SOL     OW 2376   2.671   3.728   2.364
 2176SOL    HW1 2377   2.711   3.819   2.355
 2176SOL    HW2 2378   2.571   3.736   2.370
 2187SOL     OW 2379   2.476   3.846   1.979
 2187SOL    HW1 2380   2.574   3.824   1.986
 2187SOL    HW2 2381   2.445   3.829   1.886
 2190SOL     OW 2382   2.401   3.788   2.374
 2190SOL    HW1 2383   2.320   3.789   2.432
 2190SOL    HW2 2384   2.404   3.871   2.319
 2191SOL     OW 2385   2.159   3.759   2.033
 2191SOL    HW1 2386   2.208   3.843   2.012
 2191SOL    HW2 2387   2.221   3.694   2.078
 2205SOL     OW 2388   2.169   3.787   2.480
 2205SOL    HW1 2389   2.158   3.881   2.513
 2205SOL    HW2 2390   2.164   3.724   2.557
 2225SOL     OW 2391   1.934   3.890   2.180
 2225SOL    HW1 2392   1.917   3.973   2.126
 2225SOL    HW2 2393   2.024   3.853   2.158
 2310SOL     OW 2394   3.854   1.794   1.851
 2310SOL    HW1 2395   3.813   1.720   1.904
 2310SOL    HW2 2396   3.918   1.845   1.909
 2335SOL     OW 2397   3.751   1.596   1.979
 2335SOL    HW1 2398   3.732   1.500   2.000
 2335SOL    HW2 2399   3.718   1.654   2.054
 2369SOL     OW 2400   3.732   1.326   2.062
 2369SOL    HW1 2401   3.639   1.347   2.031
 2369SOL    HW2 2402   3.742   1.227   2.075
 2485SOL     OW 2403   3.743   2.230   2.509
 2485SOL    HW1 2404   3.661   2.273   2.548
 2485SOL    HW2 2405   3.715   2.157   2.446
 2492SOL     OW 2406   3.846   2.505   2.425
 2492SOL    HW1 2407   3.801   2.417   2.442
 2492SOL    HW2 2408   3.845   2.559   2.509
 2498SOL     OW 2409   3.800   2.673   2.651
 2498SOL    HW1 2410   3.899   2.661   2.660
 2498SOL    HW2 2411   3.776   2.768   2.672
 2542SOL     OW 2412   3.799   2.207   1.895
 2542SOL    HW1 2413   3.707   2.179   1.866
 2542SOL    HW2 2414   3.830   2.284   1.839
 2543SOL     OW 2415   3.796   2.028   2.180
 2543SOL    HW1 2416   3.779   2.111   2.126
 2543SOL    HW2 2417   3.886   1.991   2.158
 2550SOL     OW 2418   3.763   2.939   2.162
 2550SOL    HW1 2419   3.862   2.928   2.153
 2550SOL    HW2 2420   3.723   2.853   2.194
   4.30749   4.30749   4.30749
