; mobley_8723116_GMX.itp created by acpype (v: 2023.10.27) on Wed May 20 23:43:51 2026

[ atomtypes ]
;name   bond_type     mass     charge   ptype   sigma         epsilon       Amb
 ca       ca          0.00000  0.00000   A     3.31521e-01   4.13379e-01 ; 1.86  0.0988
 nv       nv          0.00000  0.00000   A     3.36813e-01   4.68608e-01 ; 1.89  0.1120
 cl       cl          0.00000  0.00000   A     3.46595e-01   1.10374e+00 ; 1.95  0.2638
 ha       ha          0.00000  0.00000   A     2.62548e-01   6.73624e-02 ; 1.47  0.0161
 hn       hn          0.00000  0.00000   A     1.10650e-01   4.18400e-02 ; 0.62  0.0100

[ moleculetype ]
;name            nrexcl
 mobley_8723116   3

[ atoms ]
;   nr  type  resi  res  atom  cgnr     charge      mass       ; qtot   bond_type
     1   ca     1   MOL    C1    1    -0.187000     12.01000 ; qtot -0.187
     2   ca     1   MOL    C2    2    -0.187000     12.01000 ; qtot -0.374
     3   ca     1   MOL    C3    3    -0.085000     12.01000 ; qtot -0.459
     4   ca     1   MOL    C4    4    -0.085000     12.01000 ; qtot -0.544
     5   ca     1   MOL    C5    5     0.144600     12.01000 ; qtot -0.399
     6   ca     1   MOL    C6    6    -0.028600     12.01000 ; qtot -0.428
     7   nv     1   MOL    N1    7    -0.818200     14.01000 ; qtot -1.246
     8   cl     1   MOL   CL1    8    -0.101400     35.45000 ; qtot -1.348
     9   ha     1   MOL    H1    9     0.136000      1.00800 ; qtot -1.212
    10   ha     1   MOL    H2   10     0.136000      1.00800 ; qtot -1.076
    11   ha     1   MOL    H3   11     0.145000      1.00800 ; qtot -0.931
    12   ha     1   MOL    H4   12     0.145000      1.00800 ; qtot -0.786
    13   hn     1   MOL    H5   13     0.392800      1.00800 ; qtot -0.393
    14   hn     1   MOL    H6   14     0.392800      1.00800 ; qtot -0.000

[ bonds ]
;   ai     aj funct   r             k
     1      3   1    1.3986e-01    2.9644e+05 ;     C1 - C3    
     1      5   1    1.3986e-01    2.9644e+05 ;     C1 - C5    
     1      9   1    1.0860e-01    3.0183e+05 ;     C1 - H1    
     2      4   1    1.3986e-01    2.9644e+05 ;     C2 - C4    
     2      5   1    1.3986e-01    2.9644e+05 ;     C2 - C5    
     2     10   1    1.0860e-01    3.0183e+05 ;     C2 - H2    
     3      6   1    1.3986e-01    2.9644e+05 ;     C3 - C6    
     3     11   1    1.0860e-01    3.0183e+05 ;     C3 - H3    
     4      6   1    1.3986e-01    2.9644e+05 ;     C4 - C6    
     4     12   1    1.0860e-01    3.0183e+05 ;     C4 - H4    
     5      7   1    1.3744e-01    2.8644e+05 ;     C5 - N1    
     6      8   1    1.7572e-01    1.5730e+05 ;     C6 - CL1   
     7     13   1    1.0114e-01    3.9961e+05 ;     N1 - H5    
     7     14   1    1.0114e-01    3.9961e+05 ;     N1 - H6    

[ pairs ]
;   ai     aj    funct
     1      4      1 ;     C1 - C4    
     1      8      1 ;     C1 - CL1   
     1     10      1 ;     C1 - H2    
     1     13      1 ;     C1 - H5    
     1     14      1 ;     C1 - H6    
     2      3      1 ;     C2 - C3    
     2      8      1 ;     C2 - CL1   
     2     13      1 ;     C2 - H5    
     2     14      1 ;     C2 - H6    
     3      7      1 ;     C3 - N1    
     3     12      1 ;     C3 - H4    
     4      7      1 ;     C4 - N1    
     4     11      1 ;     C4 - H3    
     5      6      1 ;     C5 - C6    
     5     11      1 ;     C5 - H3    
     5     12      1 ;     C5 - H4    
     6     10      1 ;     C6 - H2    
     7     10      1 ;     N1 - H2    
     8     11      1 ;    CL1 - H3    
     8     12      1 ;    CL1 - H4    
     9      2      1 ;     H1 - C2    
     9      6      1 ;     H1 - C6    
     9      7      1 ;     H1 - N1    
     9     11      1 ;     H1 - H3    
    10     12      1 ;     H2 - H4    

[ angles ]
;   ai     aj     ak    funct   theta         cth
     1      3      6      1    1.2002e+02    5.3279e+02 ;     C1 - C3     - C6    
     1      3     11      1    1.1988e+02    3.7572e+02 ;     C1 - C3     - H3    
     1      5      2      1    1.2002e+02    5.3279e+02 ;     C1 - C5     - C2    
     1      5      7      1    1.2094e+02    5.6827e+02 ;     C1 - C5     - N1    
     2      4      6      1    1.2002e+02    5.3279e+02 ;     C2 - C4     - C6    
     2      4     12      1    1.1988e+02    3.7572e+02 ;     C2 - C4     - H4    
     2      5      7      1    1.2094e+02    5.6827e+02 ;     C2 - C5     - N1    
     3      1      5      1    1.2002e+02    5.3279e+02 ;     C3 - C1     - C5    
     3      1      9      1    1.1988e+02    3.7572e+02 ;     C3 - C1     - H1    
     3      6      4      1    1.2002e+02    5.3279e+02 ;     C3 - C6     - C4    
     3      6      8      1    1.1938e+02    5.3605e+02 ;     C3 - C6     - CL1   
     4      2      5      1    1.2002e+02    5.3279e+02 ;     C4 - C2     - C5    
     4      2     10      1    1.1988e+02    3.7572e+02 ;     C4 - C2     - H2    
     4      6      8      1    1.1938e+02    5.3605e+02 ;     C4 - C6     - CL1   
     5      1      9      1    1.1988e+02    3.7572e+02 ;     C5 - C1     - H1    
     5      2     10      1    1.1988e+02    3.7572e+02 ;     C5 - C2     - H2    
     5      7     13      1    1.1673e+02    4.8292e+02 ;     C5 - N1     - H5    
     5      7     14      1    1.1673e+02    4.8292e+02 ;     C5 - N1     - H6    
     6      3     11      1    1.1988e+02    3.7572e+02 ;     C6 - C3     - H3    
     6      4     12      1    1.1988e+02    3.7572e+02 ;     C6 - C4     - H4    
    13      7     14      1    1.1528e+02    3.8794e+02 ;     H5 - N1     - H6    

[ dihedrals ] ; propers
; for gromacs 4.5 or higher, using funct 9
;    i      j      k      l   func   phase     kd      pn
     1      3      6      4      9   180.00  15.16700   2 ;     C1-    C3-    C6-    C4
     1      3      6      8      9   180.00  15.16700   2 ;     C1-    C3-    C6-   CL1
     1      5      2      4      9   180.00  15.16700   2 ;     C1-    C5-    C2-    C4
     1      5      2     10      9   180.00  15.16700   2 ;     C1-    C5-    C2-    H2
     1      5      7     13      9   180.00   4.39320   2 ;     C1-    C5-    N1-    H5
     1      5      7     14      9   180.00   4.39320   2 ;     C1-    C5-    N1-    H6
     2      4      6      3      9   180.00  15.16700   2 ;     C2-    C4-    C6-    C3
     2      4      6      8      9   180.00  15.16700   2 ;     C2-    C4-    C6-   CL1
     2      5      7     13      9   180.00   4.39320   2 ;     C2-    C5-    N1-    H5
     2      5      7     14      9   180.00   4.39320   2 ;     C2-    C5-    N1-    H6
     3      1      5      2      9   180.00  15.16700   2 ;     C3-    C1-    C5-    C2
     3      1      5      7      9   180.00  15.16700   2 ;     C3-    C1-    C5-    N1
     3      6      4     12      9   180.00  15.16700   2 ;     C3-    C6-    C4-    H4
     4      2      5      7      9   180.00  15.16700   2 ;     C4-    C2-    C5-    N1
     4      6      3     11      9   180.00  15.16700   2 ;     C4-    C6-    C3-    H3
     5      1      3      6      9   180.00  15.16700   2 ;     C5-    C1-    C3-    C6
     5      1      3     11      9   180.00  15.16700   2 ;     C5-    C1-    C3-    H3
     5      2      4      6      9   180.00  15.16700   2 ;     C5-    C2-    C4-    C6
     5      2      4     12      9   180.00  15.16700   2 ;     C5-    C2-    C4-    H4
     6      4      2     10      9   180.00  15.16700   2 ;     C6-    C4-    C2-    H2
     7      5      2     10      9   180.00  15.16700   2 ;     N1-    C5-    C2-    H2
     8      6      3     11      9   180.00  15.16700   2 ;    CL1-    C6-    C3-    H3
     8      6      4     12      9   180.00  15.16700   2 ;    CL1-    C6-    C4-    H4
     9      1      3      6      9   180.00  15.16700   2 ;     H1-    C1-    C3-    C6
     9      1      3     11      9   180.00  15.16700   2 ;     H1-    C1-    C3-    H3
     9      1      5      2      9   180.00  15.16700   2 ;     H1-    C1-    C5-    C2
     9      1      5      7      9   180.00  15.16700   2 ;     H1-    C1-    C5-    N1
    10      2      4     12      9   180.00  15.16700   2 ;     H2-    C2-    C4-    H4

[ dihedrals ] ; impropers
; treated as propers in GROMACS to use correct AMBER analytical function
;    i      j      k      l   func   phase     kd      pn
     1      2      5      7      4   180.00   4.60240   2 ;     C1-    C2-    C5-    N1
     1      6      3     11      4   180.00   4.60240   2 ;     C1-    C6-    C3-    H3
     2      6      4     12      4   180.00   4.60240   2 ;     C2-    C6-    C4-    H4
     3      4      6      8      4   180.00   4.60240   2 ;     C3-    C4-    C6-   CL1
     4      5      2     10      4   180.00   4.60240   2 ;     C4-    C5-    C2-    H2
     5     13      7     14      4   180.00   4.60240   2 ;     C5-    H5-    N1-    H6
     9      1      5      3      4   180.00   4.60240   2 ;     H1-    C1-    C5-    C3
