mobley_2295058_GMX.gro created by acpype (v: 2023.10.27) on Thu May 21 00:02:00 2026
   19
    1MOL     C1    1   2.308   2.479   2.307
    1MOL     C2    2   2.407   2.418   2.518
    1MOL     C3    3   2.200   2.537   2.374
    1MOL     C4    4   2.299   2.475   2.586
    1MOL     C5    5   2.411   2.420   2.379
    1MOL     C6    6   2.195   2.535   2.514
    1MOL     C7    7   2.524   2.360   2.309
    1MOL     C8    8   2.731   2.245   2.339
    1MOL     O1    9   2.536   2.357   2.185
    1MOL     O2   10   2.090   2.590   2.579
    1MOL     O3   11   2.615   2.307   2.396
    1MOL     H1   12   2.310   2.482   2.198
    1MOL     H2   13   2.487   2.372   2.575
    1MOL     H3   14   2.119   2.583   2.317
    1MOL     H4   15   2.296   2.473   2.694
    1MOL     H5   16   2.795   2.207   2.418
    1MOL     H6   17   2.785   2.318   2.278
    1MOL     H7   18   2.699   2.162   2.275
    1MOL     H8   19   2.102   2.581   2.675
   4.83263   4.83263   4.83263
