; mobley_5520946_GMX_OPLS.top created by acpype (v: 2023.10.27) on Wed May 20 23:56:17 2026

; Include forcefield parameters
#include "ffoplsaa.itp"

; Include mobley_5520946_GMX.itp topology
#include "mobley_5520946_GMX.itp"

; Ligand position restraints
#ifdef POSRES_LIG
#include "posre_mobley_5520946.itp"
#endif

[ system ]
 mobley_5520946

[ molecules ]
; Compound        nmols
 mobley_5520946   1     
