%VERSION  VERSION_STAMP = V0001.000  DATE = 05/20/26  23:56:17                  
%FLAG TITLE                                                                     
%FORMAT(20a4)                                                                   
thiophenol                                                                      
%FLAG POINTERS                                                                  
%FORMAT(10I8)                                                                   
      13       4       6       7      11       8      23       9       0       0
      58       1       7       8       9       4       4       3       4       0
       0       0       0       0       0       0       0       0      13       0
       0
%FLAG ATOM_NAME                                                                 
%FORMAT(20a4)                                                                   
C1  C2  C3  C4  C5  C6  S1  H1  H2  H3  H4  H5  H6  
%FLAG CHARGE                                                                    
%FORMAT(5E16.8)                                                                 
 -2.49645510E+00 -2.05911990E+00 -2.05911990E+00 -2.40534360E+00 -2.40534360E+00
  2.89734570E-01 -4.64121981E+00  2.44178820E+00  2.43267705E+00  2.43267705E+00
  2.48734395E+00  2.48734395E+00  3.47681484E+00
%FLAG ATOMIC_NUMBER                                                             
%FORMAT(10I8)                                                                   
       6       6       6       6       6       6      16       1       1       1
       1       1       1
%FLAG MASS                                                                      
%FORMAT(5E16.8)                                                                 
  1.20100000E+01  1.20100000E+01  1.20100000E+01  1.20100000E+01  1.20100000E+01
  1.20100000E+01  3.20600000E+01  1.00800000E+00  1.00800000E+00  1.00800000E+00
  1.00800000E+00  1.00800000E+00  1.00800000E+00
%FLAG ATOM_TYPE_INDEX                                                           
%FORMAT(10I8)                                                                   
       1       1       1       1       1       1       2       3       3       3
       3       3       4
%FLAG NUMBER_EXCLUDED_ATOMS                                                     
%FORMAT(10I8)                                                                   
      10       9       8       8       7       6       3       2       1       1
       1       1       1
%FLAG NONBONDED_PARM_INDEX                                                      
%FORMAT(10I8)                                                                   
       1       2       4       7       2       3       5       8       4       5
       6       9       7       8       9      10
%FLAG RESIDUE_LABEL                                                             
%FORMAT(20a4)                                                                   
MOL 
%FLAG RESIDUE_POINTER                                                           
%FORMAT(10I8)                                                                   
       1
%FLAG BOND_FORCE_CONSTANT                                                       
%FORMAT(5E16.8)                                                                 
  3.54250000E+02  3.60690000E+02  2.15160000E+02  2.77510000E+02
%FLAG BOND_EQUIL_VALUE                                                          
%FORMAT(5E16.8)                                                                 
  1.39860000E+00  1.08600000E+00  1.78170000E+00  1.35030000E+00
%FLAG ANGLE_FORCE_CONSTANT                                                      
%FORMAT(5E16.8)                                                                 
  6.36700000E+01  4.49000000E+01  6.27300000E+01  6.91200000E+01
%FLAG ANGLE_EQUIL_VALUE                                                         
%FORMAT(5E16.8)                                                                 
  2.09474507E+00  2.09230160E+00  2.12546287E+00  1.67150254E+00
%FLAG DIHEDRAL_FORCE_CONSTANT                                                   
%FORMAT(5E16.8)                                                                 
  3.62500000E+00  1.15000000E-01  1.10000000E+00
%FLAG DIHEDRAL_PERIODICITY                                                      
%FORMAT(5E16.8)                                                                 
  2.00000000E+00  2.00000000E+00  2.00000000E+00
%FLAG DIHEDRAL_PHASE                                                            
%FORMAT(5E16.8)                                                                 
  3.14159400E+00  3.14159400E+00  3.14159400E+00
%FLAG SCEE_SCALE_FACTOR                                                         
%FORMAT(5E16.8)                                                                 
  1.20000000E+00  1.20000000E+00  0.00000000E+00
%FLAG SCNB_SCALE_FACTOR                                                         
%FORMAT(5E16.8)                                                                 
  2.00000000E+00  2.00000000E+00  0.00000000E+00
%FLAG SOLTY                                                                     
%FORMAT(5E16.8)                                                                 
  0.00000000E+00  0.00000000E+00  0.00000000E+00  0.00000000E+00
%FLAG LENNARD_JONES_ACOEF                                                       
%FORMAT(5E16.8)                                                                 
  6.96551276E+05  1.73376823E+06  4.26366419E+06  7.52549148E+04  1.95762765E+05
  6.90855956E+03  1.82074552E+03  5.48504371E+03  9.52021108E+01  1.38032635E-01
%FLAG LENNARD_JONES_BCOEF                                                       
%FORMAT(5E16.8)                                                                 
  5.24668528E+02  1.07629402E+03  2.19459223E+03  1.09570372E+02  2.29782888E+02
  2.10929191E+01  1.59661159E+01  3.60322711E+01  2.31961108E+00  8.27430886E-02
%FLAG BONDS_INC_HYDROGEN                                                        
%FORMAT(10I8)                                                                   
       0      21       2       3      24       2       6      27       2       9
      30       2      12      33       2      18      36       4
%FLAG BONDS_WITHOUT_HYDROGEN                                                    
%FORMAT(10I8)                                                                   
       0       3       1       0       6       1       3       9       1       6
      12       1       9      15       1      12      15       1      15      18
       3
%FLAG ANGLES_INC_HYDROGEN                                                       
%FORMAT(10I8)                                                                   
       0       3      24       2       0       6      27       2       3       0
      21       2       3       9      30       2       6       0      21       2
       6      12      33       2       9       3      24       2      12       6
      27       2      15       9      30       2      15      12      33       2
      15      18      36       4
%FLAG ANGLES_WITHOUT_HYDROGEN                                                   
%FORMAT(10I8)                                                                   
       0       3       9       1       0       6      12       1       3       0
       6       1       3       9      15       1       6      12      15       1
       9      15      12       1       9      15      18       3      12      15
      18       3
%FLAG DIHEDRALS_INC_HYDROGEN                                                    
%FORMAT(10I8)                                                                   
       0       3       9      30       1       0       6      12      33       1
       3       0       6      27       1       6       0       3      24       1
      21       0       3       9       1       9      15      12      33       1
       9      15      18      36       2      21       0       6      12       1
      12      15       9      30       1      12      15      18      36       2
      15       9       3      24       1      15      12       6      27       1
      18      15       9      30       1      18      15      12      33       1
      21       0       3      24       1      21       0       6      27       1
      24       3       9      30       1      27       6      12      33       1
      21       0      -6      -3       3       0       9      -3     -24       3
       0      12      -6     -27       3       3      15      -9     -30       3
       6      15     -12     -33       3
%FLAG DIHEDRALS_WITHOUT_HYDROGEN                                                
%FORMAT(10I8)                                                                   
       0       3       9      15       1       0       6     -12      15       1
       3       0       6      12       1       3       9     -15      12       1
       3       9      15      18       1       6       0       3       9       1
       6      12     -15       9       1       6      12      15      18       1
       9      12     -15     -18       3
%FLAG EXCLUDED_ATOMS_LIST                                                       
%FORMAT(10I8)                                                                   
       2       3       4       5       6       8       9      10      11      12
       3       4       5       6       7       8       9      10      11       4
       5       6       7       8       9      10      12       5       6       7
       8       9      11      12      13       6       7       8      10      11
      12      13       7       9      10      11      12      13      11      12
      13       9      10      11      12       0       0       0
%FLAG HBOND_ACOEF                                                               
%FORMAT(5E16.8)                                                                 

%FLAG HBOND_BCOEF                                                               
%FORMAT(5E16.8)                                                                 

%FLAG HBCUT                                                                     
%FORMAT(5E16.8)                                                                 

%FLAG AMBER_ATOM_TYPE                                                           
%FORMAT(20a4)                                                                   
ca  ca  ca  ca  ca  ca  sh  ha  ha  ha  ha  ha  hs  
%FLAG TREE_CHAIN_CLASSIFICATION                                                 
%FORMAT(20a4)                                                                   
BLA BLA BLA BLA BLA BLA BLA BLA BLA BLA BLA BLA BLA 
%FLAG JOIN_ARRAY                                                                
%FORMAT(10I8)                                                                   
       0       0       0       0       0       0       0       0       0       0
       0       0       0
%FLAG IROTAT                                                                    
%FORMAT(10I8)                                                                   
       0       0       0       0       0       0       0       0       0       0
       0       0       0
%FLAG RADIUS_SET                                                                
%FORMAT(1a80)                                                                   
modified Bondi radii (mbondi)                                                   
%FLAG RADII                                                                     
%FORMAT(5E16.8)                                                                 
  1.70000000E+00  1.70000000E+00  1.70000000E+00  1.70000000E+00  1.70000000E+00
  1.70000000E+00  1.80000000E+00  1.30000000E+00  1.30000000E+00  1.30000000E+00
  1.30000000E+00  1.30000000E+00  8.00000000E-01
%FLAG SCREEN                                                                    
%FORMAT(5E16.8)                                                                 
  7.20000000E-01  7.20000000E-01  7.20000000E-01  7.20000000E-01  7.20000000E-01
  7.20000000E-01  9.60000000E-01  8.50000000E-01  8.50000000E-01  8.50000000E-01
  8.50000000E-01  8.50000000E-01  8.50000000E-01
%FLAG IPOL                                                                      
%FORMAT(1I8)                                                                    
       0
