thiophenol
    13
   1.8850000  -1.0380000  -0.1090000   0.8180000  -0.4410000   0.5630000
   2.9350000  -1.6040000   0.6140000   0.8010000  -0.4100000   1.9570000
   2.9180000  -1.5730000   2.0080000   1.8510000  -0.9770000   2.6800000
   1.8290000  -0.9380000   4.4620000   1.8980000  -1.0620000  -1.1950000
   0.0010000   0.0000000  -0.0010000   3.7650000  -2.0680000   0.0900000
  -0.0390000   0.0590000   2.4630000   3.7450000  -2.0200000   2.5540000
   0.6760000  -0.2680000   4.6040000
