; mobley_8765203_GMX_OPLS.itp created by acpype (v: 2023.10.27) on Thu May 21 00:04:39 2026

; For OPLS atomtypes manual fine tuning
; AC_at:OPLS_at:OPLScode: Possible_Alternatives (see ffoplsaa.atp and ffoplsaanb.itp)
; c2:CR:opls_509: ['510']
; ce:x:opls_x: []
; c3:CT:opls_135: ['136', '137', '149', '157', '158', '206', '209', '210', '223B', '224B', '245', '246', '274', '283', '284', '285', '292', '292B', '293B', '296', '307', '308', '505']
; ha:HA:opls_146: []
; hc:HC:opls_140: []

[ moleculetype ]
;name            nrexcl
 mobley_8765203   3

[ atoms ]
;   nr  type  resi  res  atom  cgnr     charge      mass       ; qtot   bond_type
     1 opls_509     1   MOL    C1    1    -0.213000     12.01100 ; qtot -0.213  CR  
     2 opls_509     1   MOL    C2    2    -0.213000     12.01100 ; qtot -0.426  CR  
     3 opls_x     1   MOL    C3    3    -0.131000      0.00000 ; qtot -0.557  x   
     4 opls_x     1   MOL    C4    4    -0.083200      0.00000 ; qtot -0.640  x   
     5 opls_135     1   MOL    C5    5    -0.060900     12.01100 ; qtot -0.701  CT  
     6 opls_146     1   MOL    H1    6     0.113000      1.00800 ; qtot -0.588  HA  
     7 opls_146     1   MOL    H2    7     0.113000      1.00800 ; qtot -0.475  HA  
     8 opls_146     1   MOL    H3    8     0.113500      1.00800 ; qtot -0.362  HA  
     9 opls_146     1   MOL    H4    9     0.113500      1.00800 ; qtot -0.248  HA  
    10 opls_146     1   MOL    H5   10     0.120000      1.00800 ; qtot -0.128  HA  
    11 opls_140     1   MOL    H6   11     0.042700      1.00800 ; qtot -0.085  HC  
    12 opls_140     1   MOL    H7   12     0.042700      1.00800 ; qtot -0.043  HC  
    13 opls_140     1   MOL    H8   13     0.042700      1.00800 ; qtot  0.000  HC  

[ bonds ]
;   ai     aj funct   r             k
     1      3   1 ;    1.3457e-01    3.5505e+05 ;     C1 - C3         CR - x     
     1      6   1 ;    1.0882e-01    2.9898e+05 ;     C1 - H1         CR - HA    
     1      7   1 ;    1.0882e-01    2.9898e+05 ;     C1 - H2         CR - HA    
     2      4   1 ;    1.3457e-01    3.5505e+05 ;     C2 - C4         CR - x     
     2      8   1 ;    1.0882e-01    2.9898e+05 ;     C2 - H3         CR - HA    
     2      9   1 ;    1.0882e-01    2.9898e+05 ;     C2 - H4         CR - HA    
     3      4   1 ;    1.4615e-01    2.4127e+05 ;     C3 - C4          x - x     
     3     10   1 ;    1.0880e-01    2.9923e+05 ;     C3 - H5          x - HA    
     4      5   1 ;    1.5109e-01    2.0651e+05 ;     C4 - C5          x - CT    
     5     11   1 ;    1.0962e-01    2.8891e+05 ;     C5 - H6         CT - HC    
     5     12   1 ;    1.0962e-01    2.8891e+05 ;     C5 - H7         CT - HC    
     5     13   1 ;    1.0962e-01    2.8891e+05 ;     C5 - H8         CT - HC    

[ pairs ]
;   ai     aj    funct
     1      2      1 ;     C1 - C2    
     1      5      1 ;     C1 - C5    
     2     10      1 ;     C2 - H5    
     2     11      1 ;     C2 - H6    
     2     12      1 ;     C2 - H7    
     2     13      1 ;     C2 - H8    
     3      8      1 ;     C3 - H3    
     3      9      1 ;     C3 - H4    
     3     11      1 ;     C3 - H6    
     3     12      1 ;     C3 - H7    
     3     13      1 ;     C3 - H8    
     5      8      1 ;     C5 - H3    
     5      9      1 ;     C5 - H4    
     5     10      1 ;     C5 - H5    
     6      4      1 ;     H1 - C4    
     6     10      1 ;     H1 - H5    
     7      4      1 ;     H2 - C4    
     7     10      1 ;     H2 - H5    

[ angles ]
;   ai     aj     ak    funct   theta         cth
     1      3      4      1 ;    1.2323e+02    5.2216e+02 ;     C1 - C3   - C4       CR -    x - x   
     1      3     10      1 ;    1.2000e+02    3.8694e+02 ;     C1 - C3   - H5       CR -    x - HA  
     2      4      3      1 ;    1.2323e+02    5.2216e+02 ;     C2 - C4   - C3       CR -    x - x   
     2      4      5      1 ;    1.2365e+02    5.1062e+02 ;     C2 - C4   - C5       CR -    x - CT  
     3      1      6      1 ;    1.2049e+02    3.8618e+02 ;     C3 - C1   - H1        x -   CR - HA  
     3      1      7      1 ;    1.2049e+02    3.8618e+02 ;     C3 - C1   - H2        x -   CR - HA  
     3      4      5      1 ;    1.1824e+02    5.0493e+02 ;     C3 - C4   - C5        x -    x - CT  
     4      2      8      1 ;    1.2049e+02    3.8618e+02 ;     C4 - C2   - H3        x -   CR - HA  
     4      2      9      1 ;    1.2049e+02    3.8618e+02 ;     C4 - C2   - H4        x -   CR - HA  
     4      3     10      1 ;    1.1662e+02    3.6710e+02 ;     C4 - C3   - H5        x -    x - HA  
     4      5     11      1 ;    1.1088e+02    3.6535e+02 ;     C4 - C5   - H6        x -   CT - HC  
     4      5     12      1 ;    1.1088e+02    3.6535e+02 ;     C4 - C5   - H7        x -   CT - HC  
     4      5     13      1 ;    1.1088e+02    3.6535e+02 ;     C4 - C5   - H8        x -   CT - HC  
     6      1      7      1 ;    1.1666e+02    2.9003e+02 ;     H1 - C1   - H2       HA -   CR - HA  
     8      2      9      1 ;    1.1666e+02    2.9003e+02 ;     H3 - C2   - H4       HA -   CR - HA  
    11      5     12      1 ;    1.0773e+02    2.9957e+02 ;     H6 - C5   - H7       HC -   CT - HC  
    11      5     13      1 ;    1.0773e+02    2.9957e+02 ;     H6 - C5   - H8       HC -   CT - HC  
    12      5     13      1 ;    1.0773e+02    2.9957e+02 ;     H7 - C5   - H8       HC -   CT - HC  

[ dihedrals ] ; propers
; for gromacs 4.5 or higher, using funct 9
;    i      j      k      l   func   phase     kd      pn
     1      3      4      2      9 ;     0.00   3.09616   3 ;     C1-    C3-    C4-    C2
     1      3      4      5      9 ;   180.00   1.88280   3 ;     C1-    C3-    C4-    C5
     2      4      3     10      9 ;   180.00   4.18400   2 ;     C2-    C4-    C3-    H5
     2      4      5     11      9 ;   180.00   1.08784   3 ;     C2-    C4-    C5-    H6
     2      4      5     12      9 ;   180.00   1.08784   3 ;     C2-    C4-    C5-    H7
     2      4      5     13      9 ;   180.00   1.08784   3 ;     C2-    C4-    C5-    H8
     3      4      2      8      9 ;   180.00  27.82360   2 ;     C3-    C4-    C2-    H3
     3      4      2      9      9 ;   180.00  27.82360   2 ;     C3-    C4-    C2-    H4
     3      4      5     11      9 ;   180.00   1.08784   3 ;     C3-    C4-    C5-    H6
     3      4      5     12      9 ;   180.00   1.08784   3 ;     C3-    C4-    C5-    H7
     3      4      5     13      9 ;   180.00   1.08784   3 ;     C3-    C4-    C5-    H8
     5      4      2      8      9 ;   180.00  27.82360   2 ;     C5-    C4-    C2-    H3
     5      4      2      9      9 ;   180.00  27.82360   2 ;     C5-    C4-    C2-    H4
     5      4      3     10      9 ;   180.00   4.18400   2 ;     C5-    C4-    C3-    H5
     6      1      3      4      9 ;   180.00  27.82360   2 ;     H1-    C1-    C3-    C4
     6      1      3     10      9 ;   180.00  27.82360   2 ;     H1-    C1-    C3-    H5
     7      1      3      4      9 ;   180.00  27.82360   2 ;     H2-    C1-    C3-    C4
     7      1      3     10      9 ;   180.00  27.82360   2 ;     H2-    C1-    C3-    H5

[ dihedrals ] ; impropers
; treated as propers in GROMACS to use correct AMBER analytical function
;    i      j      k      l   func   phase     kd      pn
     1      4      3     10      4 ;   180.00   4.60240   2 ;     C1-    C4-    C3-    H5
     2      5      4      3      4 ;   180.00   4.60240   2 ;     C2-    C5-    C4-    C3
     4      8      2      9      4 ;   180.00   4.60240   2 ;     C4-    H3-    C2-    H4
     7      1      6      3      4 ;   180.00   4.60240   2 ;     H2-    C1-    H1-    C3
