mobley_8765203_GMX.gro created by acpype (v: 2023.10.27) on Thu May 21 00:04:39 2026
 13
    1  MOL   C1    1  -0.013  -0.032   0.103
    1  MOL   C2    2  -0.097  -0.390   0.094
    1  MOL   C3    3  -0.045  -0.157   0.137
    1  MOL   C4    4  -0.066  -0.269   0.045
    1  MOL   C5    5  -0.052  -0.247  -0.103
    1  MOL   H1    6   0.000   0.043   0.180
    1  MOL   H2    7  -0.000   0.000  -0.000
    1  MOL   H3    8  -0.113  -0.475   0.027
    1  MOL   H4    9  -0.107  -0.409   0.200
    1  MOL   H5   10  -0.056  -0.179   0.243
    1  MOL   H6   11  -0.124  -0.172  -0.138
    1  MOL   H7   12  -0.070  -0.338  -0.160
    1  MOL   H8   13   0.049  -0.213  -0.128
    3.46400    10.36600     8.05200
