2_methylbuta_13_diene
    13
  -0.1320000  -0.3170000   1.0280000  -0.9690000  -3.9040000   0.9360000
  -0.4460000  -1.5740000   1.3660000  -0.6570000  -2.6890000   0.4540000
  -0.5220000  -2.4670000  -1.0270000   0.0010000   0.4340000   1.8000000
  -0.0000000   0.0000000  -0.0000000  -1.1300000  -4.7490000   0.2730000
  -1.0720000  -4.0910000   2.0000000  -0.5550000  -1.7880000   2.4280000
  -1.2430000  -1.7200000  -1.3750000  -0.7050000  -3.3840000  -1.5980000
   0.4890000  -2.1270000  -1.2780000
