mobley_8118832_GMX.gro created by acpype (v: 2023.10.27) on Wed May 20 23:46:34 2026
 10
    1  MOL   C1    1  -0.047   0.060   0.077
    1  MOL   C2    2  -0.159   0.019   0.137
    1  MOL   C3    3  -0.227  -0.110   0.106
    1  MOL   O1    4  -0.231  -0.190   0.224
    1  MOL   H1    5  -0.000   0.155   0.103
    1  MOL   H2    6   0.000   0.000   0.000
    1  MOL   H3    7  -0.204   0.082   0.213
    1  MOL   H4    8  -0.175  -0.167   0.028
    1  MOL   H5    9  -0.330  -0.091   0.074
    1  MOL   H6   10  -0.148  -0.173   0.272
    6.59000     6.89200     5.43800
