prop_2_en_1_ol
    10
  -0.4680000   0.6050000   0.7690000  -1.5850000   0.1860000   1.3740000
  -2.2690000  -1.1040000   1.0630000  -2.3090000  -1.8950000   2.2420000
  -0.0040000   1.5510000   1.0260000   0.0000000   0.0000000   0.0000000
  -2.0350000   0.8200000   2.1340000  -1.7500000  -1.6680000   0.2810000
  -3.2950000  -0.9100000   0.7360000  -1.4800000  -1.7300000   2.7190000
