%VERSION  VERSION_STAMP = V0001.000  DATE = 05/20/26  23:46:34                  
%FLAG TITLE                                                                     
%FORMAT(20a4)                                                                   
prop_2_en_1_ol                                                                  
%FLAG POINTERS                                                                  
%FORMAT(10I8)                                                                   
      10       6       6       3      11       2      14       1       0       0
      36       1       3       2       1       6       9       5       6       0
       0       0       0       0       0       0       0       0      10       0
       0
%FLAG ATOM_NAME                                                                 
%FORMAT(20a4)                                                                   
C1  C2  C3  O1  H1  H2  H3  H4  H5  H6  
%FLAG CHARGE                                                                    
%FORMAT(5E16.8)                                                                 
 -3.82668300E+00 -3.86677206E+00  2.83538988E+00 -1.08750686E+01  2.07734220E+00
  2.07734220E+00  2.42356590E+00  9.60315210E-01  9.60315210E-01  7.27069770E+00
%FLAG ATOMIC_NUMBER                                                             
%FORMAT(10I8)                                                                   
       6       6       6       8       1       1       1       1       1       1
%FLAG MASS                                                                      
%FORMAT(5E16.8)                                                                 
  1.20100000E+01  1.20100000E+01  1.20100000E+01  1.60000000E+01  1.00800000E+00
  1.00800000E+00  1.00800000E+00  1.00800000E+00  1.00800000E+00  1.00800000E+00
%FLAG ATOM_TYPE_INDEX                                                           
%FORMAT(10I8)                                                                   
       1       1       2       3       4       4       4       5       5       6
%FLAG NUMBER_EXCLUDED_ATOMS                                                     
%FORMAT(10I8)                                                                   
       8       8       7       4       2       1       2       2       1       1
%FLAG NONBONDED_PARM_INDEX                                                      
%FORMAT(10I8)                                                                   
       1       2       4       7      11      16       2       3       5       8
      12      17       4       5       6       9      13      18       7       8
       9      10      14      19      11      12      13      14      15      20
      16      17      18      19      20      21
%FLAG RESIDUE_LABEL                                                             
%FORMAT(20a4)                                                                   
MOL 
%FLAG RESIDUE_POINTER                                                           
%FORMAT(10I8)                                                                   
       1
%FLAG BOND_FORCE_CONSTANT                                                       
%FORMAT(5E16.8)                                                                 
  4.36000000E+02  3.57290000E+02  2.48400000E+02  2.85150000E+02  3.44220000E+02
  5.35510000E+02
%FLAG BOND_EQUIL_VALUE                                                          
%FORMAT(5E16.8)                                                                 
  1.33790000E+00  1.08820000E+00  1.50880000E+00  1.42420000E+00  1.09690000E+00
  9.72500000E-01
%FLAG ANGLE_FORCE_CONSTANT                                                      
%FORMAT(5E16.8)                                                                 
  6.08800000E+01  4.63700000E+01  7.73400000E+01  4.38900000E+01  4.29500000E+01
  6.51300000E+01  5.62900000E+01  3.46600000E+01  3.56400000E+01
%FLAG ANGLE_EQUIL_VALUE                                                         
%FORMAT(5E16.8)                                                                 
  2.18078984E+00  2.10120279E+00  1.92562259E+00  1.91916487E+00  2.00800217E+00
  1.87430989E+00  1.92649525E+00  2.03610198E+00  1.89455572E+00
%FLAG DIHEDRAL_FORCE_CONSTANT                                                   
%FORMAT(5E16.8)                                                                 
  0.00000000E+00  1.66666667E-01  6.65000000E+00  1.23000000E-01  1.10000000E+00
%FLAG DIHEDRAL_PERIODICITY                                                      
%FORMAT(5E16.8)                                                                 
  2.00000000E+00  3.00000000E+00  2.00000000E+00  3.00000000E+00  2.00000000E+00
%FLAG DIHEDRAL_PHASE                                                            
%FORMAT(5E16.8)                                                                 
  0.00000000E+00  0.00000000E+00  3.14159400E+00  0.00000000E+00  3.14159400E+00
%FLAG SCEE_SCALE_FACTOR                                                         
%FORMAT(5E16.8)                                                                 
  1.20000000E+00  1.20000000E+00  1.20000000E+00  1.20000000E+00  0.00000000E+00
%FLAG SCNB_SCALE_FACTOR                                                         
%FORMAT(5E16.8)                                                                 
  2.00000000E+00  2.00000000E+00  2.00000000E+00  2.00000000E+00  0.00000000E+00
%FLAG SOLTY                                                                     
%FORMAT(5E16.8)                                                                 
  0.00000000E+00  0.00000000E+00  0.00000000E+00  0.00000000E+00  0.00000000E+00
  0.00000000E+00
%FLAG LENNARD_JONES_ACOEF                                                       
%FORMAT(5E16.8)                                                                 
  6.96551276E+05  8.43969952E+05  1.02073671E+06  5.92438683E+05  7.18991463E+05
  5.03152404E+05  7.52549148E+04  9.27554496E+04  6.30298721E+04  6.90855956E+03
  5.63013422E+04  6.97998263E+04  4.69084694E+04  4.88692384E+03  3.39005767E+03
  2.25372434E+02  3.03553352E+02  1.74176419E+02  8.53132435E+00  4.36660257E+00
  1.10360882E-05
%FLAG LENNARD_JONES_BCOEF                                                       
%FORMAT(5E16.8)                                                                 
  5.24668528E+02  5.90251928E+02  6.63431737E+02  4.76608379E+02  5.36620538E+02
  4.32634597E+02  1.09570372E+02  1.24325688E+02  9.87712192E+01  2.10929191E+01
  1.01040256E+02  1.14981426E+02  9.08431526E+01  1.89134207E+01  1.67944276E+01
  4.40751799E+00  5.22789272E+00  3.81654050E+00  5.44840215E-01  4.15568027E-01
  4.55498033E-04
%FLAG BONDS_INC_HYDROGEN                                                        
%FORMAT(10I8)                                                                   
       0      12       2       0      15       2       3      18       2       6
      21       5       6      24       5       9      27       6
%FLAG BONDS_WITHOUT_HYDROGEN                                                    
%FORMAT(10I8)                                                                   
       0       3       1       3       6       3       6       9       4
%FLAG ANGLES_INC_HYDROGEN                                                       
%FORMAT(10I8)                                                                   
       0       3      18       2       3       0      12       2       3       0
      15       2       3       6      21       4       3       6      24       4
       6       3      18       5       6       9      27       6       9       6
      21       7       9       6      24       7      12       0      15       8
      21       6      24       9
%FLAG ANGLES_WITHOUT_HYDROGEN                                                   
%FORMAT(10I8)                                                                   
       0       3       6       1       3       6       9       3
%FLAG DIHEDRALS_INC_HYDROGEN                                                    
%FORMAT(10I8)                                                                   
       0       3       6      21       1       0       3       6      24       1
       3       6       9      27       2      12       0       3       6       3
      15       0       3       6       3       9       6       3      18       1
      12       0       3      18       3      15       0       3      18       3
      18       3       6      21       1      18       3       6      24       1
      21       6       9      27       4      24       6       9      27       4
      15       0     -12      -3       5       0       6      -3     -18       5
%FLAG DIHEDRALS_WITHOUT_HYDROGEN                                                
%FORMAT(10I8)                                                                   
       0       3       6       9       1
%FLAG EXCLUDED_ATOMS_LIST                                                       
%FORMAT(10I8)                                                                   
       2       3       4       5       6       7       8       9       3       4
       5       6       7       8       9      10       4       5       6       7
       8       9      10       7       8       9      10       6       7       7
       8       9       9      10      10       0
%FLAG HBOND_ACOEF                                                               
%FORMAT(5E16.8)                                                                 

%FLAG HBOND_BCOEF                                                               
%FORMAT(5E16.8)                                                                 

%FLAG HBCUT                                                                     
%FORMAT(5E16.8)                                                                 

%FLAG AMBER_ATOM_TYPE                                                           
%FORMAT(20a4)                                                                   
c2  c2  c3  oh  ha  ha  ha  h1  h1  ho  
%FLAG TREE_CHAIN_CLASSIFICATION                                                 
%FORMAT(20a4)                                                                   
BLA BLA BLA BLA BLA BLA BLA BLA BLA BLA 
%FLAG JOIN_ARRAY                                                                
%FORMAT(10I8)                                                                   
       0       0       0       0       0       0       0       0       0       0
%FLAG IROTAT                                                                    
%FORMAT(10I8)                                                                   
       0       0       0       0       0       0       0       0       0       0
%FLAG RADIUS_SET                                                                
%FORMAT(1a80)                                                                   
modified Bondi radii (mbondi)                                                   
%FLAG RADII                                                                     
%FORMAT(5E16.8)                                                                 
  1.70000000E+00  1.70000000E+00  1.70000000E+00  1.50000000E+00  1.30000000E+00
  1.30000000E+00  1.30000000E+00  1.30000000E+00  1.30000000E+00  8.00000000E-01
%FLAG SCREEN                                                                    
%FORMAT(5E16.8)                                                                 
  7.20000000E-01  7.20000000E-01  7.20000000E-01  8.50000000E-01  8.50000000E-01
  8.50000000E-01  8.50000000E-01  8.50000000E-01  8.50000000E-01  8.50000000E-01
%FLAG IPOL                                                                      
%FORMAT(1I8)                                                                    
       0
