; mobley_8118832_GMX_OPLS.top created by acpype (v: 2023.10.27) on Wed May 20 23:46:34 2026

; Include forcefield parameters
#include "ffoplsaa.itp"

; Include mobley_8118832_GMX.itp topology
#include "mobley_8118832_GMX.itp"

; Ligand position restraints
#ifdef POSRES_LIG
#include "posre_mobley_8118832.itp"
#endif

[ system ]
 mobley_8118832

[ molecules ]
; Compound        nmols
 mobley_8118832   1     
