; mobley_5063386_GMX_OPLS.itp created by acpype (v: 2023.10.27) on Wed May 20 23:51:45 2026

; For OPLS atomtypes manual fine tuning
; AC_at:OPLS_at:OPLScode: Possible_Alternatives (see ffoplsaa.atp and ffoplsaanb.itp)
; ca:CA:opls_145: ['166', '501', '502']
; no:x:opls_x: []
; o:O:opls_236: ['272']
; oh:OH:opls_154: ['167']
; ha:HA:opls_146: []
; ho:HO:opls_155: ['168']

[ moleculetype ]
;name            nrexcl
 mobley_5063386   3

[ atoms ]
;   nr  type  resi  res  atom  cgnr     charge      mass       ; qtot   bond_type
     1 opls_145     1   MOL    C1    1    -0.178000     12.01100 ; qtot -0.178  CA  
     2 opls_145     1   MOL    C2    2    -0.047000     12.01100 ; qtot -0.225  CA  
     3 opls_145     1   MOL    C3    3    -0.034000     12.01100 ; qtot -0.259  CA  
     4 opls_145     1   MOL    C4    4    -0.232000     12.01100 ; qtot -0.491  CA  
     5 opls_145     1   MOL    C5    5    -0.217200     12.01100 ; qtot -0.708  CA  
     6 opls_145     1   MOL    C6    6     0.194100     12.01100 ; qtot -0.514  CA  
     7 opls_x     1   MOL    N1    7     0.324200      0.00000 ; qtot -0.190  x   
     8 opls_236     1   MOL    O1    8    -0.203500     15.99940 ; qtot -0.393  O   
     9 opls_236     1   MOL    O2    9    -0.203500     15.99940 ; qtot -0.597  O   
    10 opls_154     1   MOL    O3   10    -0.447100     15.99940 ; qtot -1.044  OH  
    11 opls_146     1   MOL    H1   11     0.150000      1.00800 ; qtot -0.894  HA  
    12 opls_146     1   MOL    H2   12     0.145000      1.00800 ; qtot -0.749  HA  
    13 opls_146     1   MOL    H3   13     0.174000      1.00800 ; qtot -0.575  HA  
    14 opls_146     1   MOL    H4   14     0.147000      1.00800 ; qtot -0.428  HA  
    15 opls_155     1   MOL    H5   15     0.428000      1.00800 ; qtot  0.000  HO  

[ bonds ]
;   ai     aj funct   r             k
     1      2   1 ;    1.3986e-01    2.9644e+05 ;     C1 - C2         CA - CA    
     1      3   1 ;    1.3986e-01    2.9644e+05 ;     C1 - C3         CA - CA    
     1     11   1 ;    1.0860e-01    3.0183e+05 ;     C1 - H1         CA - HA    
     2      4   1 ;    1.3986e-01    2.9644e+05 ;     C2 - C4         CA - CA    
     2     12   1 ;    1.0860e-01    3.0183e+05 ;     C2 - H2         CA - HA    
     3      5   1 ;    1.3986e-01    2.9644e+05 ;     C3 - C5         CA - CA    
     3     13   1 ;    1.0860e-01    3.0183e+05 ;     C3 - H3         CA - HA    
     4      6   1 ;    1.3986e-01    2.9644e+05 ;     C4 - C6         CA - CA    
     4     14   1 ;    1.0860e-01    3.0183e+05 ;     C4 - H4         CA - HA    
     5      6   1 ;    1.3986e-01    2.9644e+05 ;     C5 - C6         CA - CA    
     5      7   1 ;    1.4696e-01    2.0937e+05 ;     C5 - N1         CA - x     
     6     10   1 ;    1.3644e-01    2.9167e+05 ;     C6 - O3         CA - OH    
     7      8   1 ;    1.2311e-01    3.0270e+05 ;     N1 - O1          x - O     
     7      9   1 ;    1.2311e-01    3.0270e+05 ;     N1 - O2          x - O     
    10     15   1 ;    9.7250e-02    4.4811e+05 ;     O3 - H5         OH - HO    

[ pairs ]
;   ai     aj    funct
     1      6      1 ;     C1 - C6    
     1      7      1 ;     C1 - N1    
     1     14      1 ;     C1 - H4    
     2      5      1 ;     C2 - C5    
     2     10      1 ;     C2 - O3    
     2     13      1 ;     C2 - H3    
     3      4      1 ;     C3 - C4    
     3      8      1 ;     C3 - O1    
     3      9      1 ;     C3 - O2    
     3     10      1 ;     C3 - O3    
     3     12      1 ;     C3 - H2    
     4      7      1 ;     C4 - N1    
     4     15      1 ;     C4 - H5    
     5     14      1 ;     C5 - H4    
     5     15      1 ;     C5 - H5    
     6      8      1 ;     C6 - O1    
     6      9      1 ;     C6 - O2    
     6     12      1 ;     C6 - H2    
     6     13      1 ;     C6 - H3    
     7     10      1 ;     N1 - O3    
     7     13      1 ;     N1 - H3    
    10     14      1 ;     O3 - H4    
    11      4      1 ;     H1 - C4    
    11      5      1 ;     H1 - C5    
    11     12      1 ;     H1 - H2    
    11     13      1 ;     H1 - H3    
    12     14      1 ;     H2 - H4    

[ angles ]
;   ai     aj     ak    funct   theta         cth
     1      2      4      1 ;    1.2002e+02    5.3279e+02 ;     C1 - C2   - C4       CA -   CA - CA  
     1      2     12      1 ;    1.1988e+02    3.7572e+02 ;     C1 - C2   - H2       CA -   CA - HA  
     1      3      5      1 ;    1.2002e+02    5.3279e+02 ;     C1 - C3   - C5       CA -   CA - CA  
     1      3     13      1 ;    1.1988e+02    3.7572e+02 ;     C1 - C3   - H3       CA -   CA - HA  
     2      1      3      1 ;    1.2002e+02    5.3279e+02 ;     C2 - C1   - C3       CA -   CA - CA  
     2      1     11      1 ;    1.1988e+02    3.7572e+02 ;     C2 - C1   - H1       CA -   CA - HA  
     2      4      6      1 ;    1.2002e+02    5.3279e+02 ;     C2 - C4   - C6       CA -   CA - CA  
     2      4     14      1 ;    1.1988e+02    3.7572e+02 ;     C2 - C4   - H4       CA -   CA - HA  
     3      1     11      1 ;    1.1988e+02    3.7572e+02 ;     C3 - C1   - H1       CA -   CA - HA  
     3      5      6      1 ;    1.2002e+02    5.3279e+02 ;     C3 - C5   - C6       CA -   CA - CA  
     3      5      7      1 ;    1.1900e+02    5.5329e+02 ;     C3 - C5   - N1       CA -   CA - x   
     4      2     12      1 ;    1.1988e+02    3.7572e+02 ;     C4 - C2   - H2       CA -   CA - HA  
     4      6      5      1 ;    1.2002e+02    5.3279e+02 ;     C4 - C6   - C5       CA -   CA - CA  
     4      6     10      1 ;    1.1990e+02    6.5990e+02 ;     C4 - C6   - O3       CA -   CA - OH  
     5      3     13      1 ;    1.1988e+02    3.7572e+02 ;     C5 - C3   - H3       CA -   CA - HA  
     5      6     10      1 ;    1.1990e+02    6.5990e+02 ;     C5 - C6   - O3       CA -   CA - OH  
     5      7      8      1 ;    1.1776e+02    8.2910e+02 ;     C5 - N1   - O1       CA -    x - O   
     5      7      9      1 ;    1.1776e+02    8.2910e+02 ;     C5 - N1   - O2       CA -    x - O   
     6      4     14      1 ;    1.1988e+02    3.7572e+02 ;     C6 - C4   - H4       CA -   CA - HA  
     6      5      7      1 ;    1.1900e+02    5.5329e+02 ;     C6 - C5   - N1       CA -   CA - x   
     6     10     15      1 ;    1.0858e+02    5.6409e+02 ;     C6 - O3   - H5       CA -   OH - HO  
     8      7      9      1 ;    1.2505e+02    1.0964e+03 ;     O1 - N1   - O2        O -    x - O   

[ dihedrals ] ; propers
; for gromacs 4.5 or higher, using funct 9
;    i      j      k      l   func   phase     kd      pn
     1      2      4      6      9 ;   180.00  15.16700   2 ;     C1-    C2-    C4-    C6
     1      2      4     14      9 ;   180.00  15.16700   2 ;     C1-    C2-    C4-    H4
     1      3      5      6      9 ;   180.00  15.16700   2 ;     C1-    C3-    C5-    C6
     1      3      5      7      9 ;   180.00  15.16700   2 ;     C1-    C3-    C5-    N1
     2      1      3      5      9 ;   180.00  15.16700   2 ;     C2-    C1-    C3-    C5
     2      1      3     13      9 ;   180.00  15.16700   2 ;     C2-    C1-    C3-    H3
     2      4      6      5      9 ;   180.00  15.16700   2 ;     C2-    C4-    C6-    C5
     2      4      6     10      9 ;   180.00  15.16700   2 ;     C2-    C4-    C6-    O3
     3      1      2      4      9 ;   180.00  15.16700   2 ;     C3-    C1-    C2-    C4
     3      1      2     12      9 ;   180.00  15.16700   2 ;     C3-    C1-    C2-    H2
     3      5      6      4      9 ;   180.00  15.16700   2 ;     C3-    C5-    C6-    C4
     3      5      6     10      9 ;   180.00  15.16700   2 ;     C3-    C5-    C6-    O3
     3      5      7      8      9 ;   180.00   3.01248   2 ;     C3-    C5-    N1-    O1
     3      5      7      9      9 ;   180.00   3.01248   2 ;     C3-    C5-    N1-    O2
     4      6      5      7      9 ;   180.00  15.16700   2 ;     C4-    C6-    C5-    N1
     4      6     10     15      9 ;   180.00   3.57732   2 ;     C4-    C6-    O3-    H5
     5      6      4     14      9 ;   180.00  15.16700   2 ;     C5-    C6-    C4-    H4
     5      6     10     15      9 ;   180.00   3.57732   2 ;     C5-    C6-    O3-    H5
     6      4      2     12      9 ;   180.00  15.16700   2 ;     C6-    C4-    C2-    H2
     6      5      3     13      9 ;   180.00  15.16700   2 ;     C6-    C5-    C3-    H3
     6      5      7      8      9 ;   180.00   3.01248   2 ;     C6-    C5-    N1-    O1
     6      5      7      9      9 ;   180.00   3.01248   2 ;     C6-    C5-    N1-    O2
     7      5      3     13      9 ;   180.00  15.16700   2 ;     N1-    C5-    C3-    H3
     7      5      6     10      9 ;   180.00  15.16700   2 ;     N1-    C5-    C6-    O3
    10      6      4     14      9 ;   180.00  15.16700   2 ;     O3-    C6-    C4-    H4
    11      1      2      4      9 ;   180.00  15.16700   2 ;     H1-    C1-    C2-    C4
    11      1      2     12      9 ;   180.00  15.16700   2 ;     H1-    C1-    C2-    H2
    11      1      3      5      9 ;   180.00  15.16700   2 ;     H1-    C1-    C3-    C5
    11      1      3     13      9 ;   180.00  15.16700   2 ;     H1-    C1-    C3-    H3
    12      2      4     14      9 ;   180.00  15.16700   2 ;     H2-    C2-    C4-    H4

[ dihedrals ] ; impropers
; treated as propers in GROMACS to use correct AMBER analytical function
;    i      j      k      l   func   phase     kd      pn
     1      4      2     12      4 ;   180.00   4.60240   2 ;     C1-    C4-    C2-    H2
     1      5      3     13      4 ;   180.00   4.60240   2 ;     C1-    C5-    C3-    H3
     2      6      4     14      4 ;   180.00   4.60240   2 ;     C2-    C6-    C4-    H4
     3      6      5      7      4 ;   180.00   4.60240   2 ;     C3-    C6-    C5-    N1
     4      5      6     10      4 ;   180.00   4.60240   2 ;     C4-    C5-    C6-    O3
     5      8      7      9      4 ;   180.00   4.60240   2 ;     C5-    O1-    N1-    O2
    11      1      3      2      4 ;   180.00   4.60240   2 ;     H1-    C1-    C3-    C2
