2_nitrophenol
    15
   1.8850000  -1.0380000  -0.1090000   0.8180000  -0.4410000   0.5630000
   2.9350000  -1.6040000   0.6140000   0.8010000  -0.4100000   1.9570000
   2.9180000  -1.5730000   2.0080000   1.8510000  -0.9770000   2.6800000
   3.9970000  -2.1550000   2.7290000   4.9390000  -2.6820000   2.0900000
   3.9750000  -2.1240000   3.9820000   1.8120000  -0.9350000   4.0420000
   1.8980000  -1.0610000  -1.1950000  -0.0000000  -0.0000000  -0.0000000
   3.7600000  -2.0650000   0.0770000  -0.0330000   0.0560000   2.4740000
   1.1530000  -0.2720000   4.3160000
