mobley_5063386_GMX.gro created by acpype (v: 2023.10.27) on Wed May 20 23:51:45 2026
 15
    1  MOL   C1    1   0.189  -0.104  -0.011
    1  MOL   C2    2   0.082  -0.044   0.056
    1  MOL   C3    3   0.294  -0.160   0.061
    1  MOL   C4    4   0.080  -0.041   0.196
    1  MOL   C5    5   0.292  -0.157   0.201
    1  MOL   C6    6   0.185  -0.098   0.268
    1  MOL   N1    7   0.400  -0.215   0.273
    1  MOL   O1    8   0.494  -0.268   0.209
    1  MOL   O2    9   0.398  -0.212   0.398
    1  MOL   O3   10   0.181  -0.094   0.404
    1  MOL   H1   11   0.190  -0.106  -0.120
    1  MOL   H2   12  -0.000  -0.000  -0.000
    1  MOL   H3   13   0.376  -0.207   0.008
    1  MOL   H4   14  -0.003   0.006   0.247
    1  MOL   H5   15   0.115  -0.027   0.432
    9.94400     5.47600    11.02200
