%VERSION  VERSION_STAMP = V0001.000  DATE = 05/20/26  23:51:47                  
%FLAG TITLE                                                                     
%FORMAT(20a4)                                                                   
2_nitrophenol                                                                   
%FLAG POINTERS                                                                  
%FORMAT(10I8)                                                                   
      15       6       5      10       9      13      19      18       0       0
      68       1      10      13      18       6       7       4       6       0
       0       0       0       0       0       0       0       0      15       0
       0
%FLAG ATOM_NAME                                                                 
%FORMAT(20a4)                                                                   
C1  C2  C3  C4  C5  C6  N1  O1  O2  O3  H1  H2  H3  H4  H5  
%FLAG CHARGE                                                                    
%FORMAT(5E16.8)                                                                 
 -3.24356940E+00 -8.56448100E-01 -6.19558200E-01 -4.22757360E+00 -3.95788356E+00
  3.53694843E+00  5.90766966E+00 -3.70823805E+00 -3.70823805E+00 -8.20185723E+00
  2.73334500E+00  2.64223350E+00  3.17068020E+00  2.67867810E+00  7.79914440E+00
%FLAG ATOMIC_NUMBER                                                             
%FORMAT(10I8)                                                                   
       6       6       6       6       6       6       7       8       8       8
       1       1       1       1       1
%FLAG MASS                                                                      
%FORMAT(5E16.8)                                                                 
  1.20100000E+01  1.20100000E+01  1.20100000E+01  1.20100000E+01  1.20100000E+01
  1.20100000E+01  1.40100000E+01  1.60000000E+01  1.60000000E+01  1.60000000E+01
  1.00800000E+00  1.00800000E+00  1.00800000E+00  1.00800000E+00  1.00800000E+00
%FLAG ATOM_TYPE_INDEX                                                           
%FORMAT(10I8)                                                                   
       1       1       1       1       1       1       2       3       3       4
       5       5       5       5       6
%FLAG NUMBER_EXCLUDED_ATOMS                                                     
%FORMAT(10I8)                                                                   
      10       9      10       8       9       8       4       1       1       2
       2       1       1       1       1
%FLAG NONBONDED_PARM_INDEX                                                      
%FORMAT(10I8)                                                                   
       1       2       4       7      11      16       2       3       5       8
      12      17       4       5       6       9      13      18       7       8
       9      10      14      19      11      12      13      14      15      20
      16      17      18      19      20      21
%FLAG RESIDUE_LABEL                                                             
%FORMAT(20a4)                                                                   
MOL 
%FLAG RESIDUE_POINTER                                                           
%FORMAT(10I8)                                                                   
       1
%FLAG BOND_FORCE_CONSTANT                                                       
%FORMAT(5E16.8)                                                                 
  3.54250000E+02  3.60690000E+02  2.50200000E+02  3.48550000E+02  3.61740000E+02
  5.35510000E+02
%FLAG BOND_EQUIL_VALUE                                                          
%FORMAT(5E16.8)                                                                 
  1.39860000E+00  1.08600000E+00  1.46960000E+00  1.36440000E+00  1.23110000E+00
  9.72500000E-01
%FLAG ANGLE_FORCE_CONSTANT                                                      
%FORMAT(5E16.8)                                                                 
  6.36700000E+01  4.49000000E+01  6.61200000E+01  7.88600000E+01  9.90800000E+01
  6.74100000E+01  1.31020000E+02
%FLAG ANGLE_EQUIL_VALUE                                                         
%FORMAT(5E16.8)                                                                 
  2.09474507E+00  2.09230160E+00  2.07694270E+00  2.09265067E+00  2.05530061E+00
  1.89507931E+00  2.18253516E+00
%FLAG DIHEDRAL_FORCE_CONSTANT                                                   
%FORMAT(5E16.8)                                                                 
  3.62500000E+00  7.20000000E-01  8.55000000E-01  1.10000000E+00
%FLAG DIHEDRAL_PERIODICITY                                                      
%FORMAT(5E16.8)                                                                 
  2.00000000E+00  2.00000000E+00  2.00000000E+00  2.00000000E+00
%FLAG DIHEDRAL_PHASE                                                            
%FORMAT(5E16.8)                                                                 
  3.14159400E+00  3.14159400E+00  3.14159400E+00  3.14159400E+00
%FLAG SCEE_SCALE_FACTOR                                                         
%FORMAT(5E16.8)                                                                 
  1.20000000E+00  1.20000000E+00  1.20000000E+00  0.00000000E+00
%FLAG SCNB_SCALE_FACTOR                                                         
%FORMAT(5E16.8)                                                                 
  2.00000000E+00  2.00000000E+00  2.00000000E+00  0.00000000E+00
%FLAG SOLTY                                                                     
%FORMAT(5E16.8)                                                                 
  0.00000000E+00  0.00000000E+00  0.00000000E+00  0.00000000E+00  0.00000000E+00
  0.00000000E+00
%FLAG LENNARD_JONES_ACOEF                                                       
%FORMAT(5E16.8)                                                                 
  6.96551276E+05  7.10207765E+05  7.23647490E+05  5.17507491E+05  5.29641935E+05
  3.76435470E+05  5.92438683E+05  6.04651377E+05  4.37717034E+05  5.03152404E+05
  7.52549148E+04  7.75325560E+04  5.27277400E+04  6.30298721E+04  6.90855956E+03
  2.25372434E+02  2.45082140E+02  1.15813907E+02  1.74176419E+02  8.53132435E+00
  1.10360882E-05
%FLAG LENNARD_JONES_BCOEF                                                       
%FORMAT(5E16.8)                                                                 
  5.24668528E+02  5.11427129E+02  4.98353106E+02  4.98871431E+02  4.87196412E+02
  4.69350655E+02  4.76608379E+02  4.64809588E+02  4.51916854E+02  4.32634597E+02
  1.09570372E+02  1.07361937E+02  1.01173582E+02  9.87712192E+01  2.10929191E+01
  4.40751799E+00  4.43692527E+00  3.48534600E+00  3.81654050E+00  5.44840215E-01
  4.55498033E-04
%FLAG BONDS_INC_HYDROGEN                                                        
%FORMAT(10I8)                                                                   
       0      30       2       3      33       2       6      36       2       9
      39       2      27      42       6
%FLAG BONDS_WITHOUT_HYDROGEN                                                    
%FORMAT(10I8)                                                                   
       0       3       1       0       6       1       3       9       1       6
      12       1       9      15       1      12      15       1      12      18
       3      15      27       4      18      21       5      18      24       5
%FLAG ANGLES_INC_HYDROGEN                                                       
%FORMAT(10I8)                                                                   
       0       3      33       2       0       6      36       2       3       0
      30       2       3       9      39       2       6       0      30       2
       9       3      33       2      12       6      36       2      15       9
      39       2      15      27      42       6
%FLAG ANGLES_WITHOUT_HYDROGEN                                                   
%FORMAT(10I8)                                                                   
       0       3       9       1       0       6      12       1       3       0
       6       1       3       9      15       1       6      12      15       1
       6      12      18       3       9      15      12       1       9      15
      27       4      12      15      27       4      12      18      21       5
      12      18      24       5      15      12      18       3      21      18
      24       7
%FLAG DIHEDRALS_INC_HYDROGEN                                                    
%FORMAT(10I8)                                                                   
       0       3       9      39       1       3       0       6      36       1
       6       0       3      33       1      30       0       3       9       1
       9      15      27      42       3      30       0       6      12       1
      12      15       9      39       1      12      15      27      42       3
      15       9       3      33       1      15      12       6      36       1
      18      12       6      36       1      27      15       9      39       1
      30       0       3      33       1      30       0       6      36       1
      33       3       9      39       1      30       0      -6      -3       4
       0       9      -3     -33       4       0      12      -6     -36       4
       3      15      -9     -39       4
%FLAG DIHEDRALS_WITHOUT_HYDROGEN                                                
%FORMAT(10I8)                                                                   
       0       3       9      15       1       0       6     -12      15       1
       0       6      12      18       1       3       0       6      12       1
       3       9     -15      12       1       3       9      15      27       1
       6       0       3       9       1       6      12     -15       9       1
       6      12      15      27       1       6      12      18      21       2
       6      12      18      24       2       9      15      12      18       1
      15      12      18      21       2      15      12      18      24       2
      18      12      15      27       1       6      15     -12     -18       4
       9      12     -15     -27       4      12      21     -18     -24       4
%FLAG EXCLUDED_ATOMS_LIST                                                       
%FORMAT(10I8)                                                                   
       2       3       4       5       6       7      11      12      13      14
       3       4       5       6      10      11      12      13      14       4
       5       6       7       8       9      10      11      12      13       5
       6       7      10      11      12      14      15       6       7       8
       9      10      11      13      14      15       7       8       9      10
      12      13      14      15       8       9      10      13       9       0
      14      15      12      13      14       0       0       0
%FLAG HBOND_ACOEF                                                               
%FORMAT(5E16.8)                                                                 

%FLAG HBOND_BCOEF                                                               
%FORMAT(5E16.8)                                                                 

%FLAG HBCUT                                                                     
%FORMAT(5E16.8)                                                                 

%FLAG AMBER_ATOM_TYPE                                                           
%FORMAT(20a4)                                                                   
ca  ca  ca  ca  ca  ca  no  o   o   oh  ha  ha  ha  ha  ho  
%FLAG TREE_CHAIN_CLASSIFICATION                                                 
%FORMAT(20a4)                                                                   
BLA BLA BLA BLA BLA BLA BLA BLA BLA BLA BLA BLA BLA BLA BLA 
%FLAG JOIN_ARRAY                                                                
%FORMAT(10I8)                                                                   
       0       0       0       0       0       0       0       0       0       0
       0       0       0       0       0
%FLAG IROTAT                                                                    
%FORMAT(10I8)                                                                   
       0       0       0       0       0       0       0       0       0       0
       0       0       0       0       0
%FLAG RADIUS_SET                                                                
%FORMAT(1a80)                                                                   
modified Bondi radii (mbondi)                                                   
%FLAG RADII                                                                     
%FORMAT(5E16.8)                                                                 
  1.70000000E+00  1.70000000E+00  1.70000000E+00  1.70000000E+00  1.70000000E+00
  1.70000000E+00  1.55000000E+00  1.50000000E+00  1.50000000E+00  1.50000000E+00
  1.30000000E+00  1.30000000E+00  1.30000000E+00  1.30000000E+00  8.00000000E-01
%FLAG SCREEN                                                                    
%FORMAT(5E16.8)                                                                 
  7.20000000E-01  7.20000000E-01  7.20000000E-01  7.20000000E-01  7.20000000E-01
  7.20000000E-01  7.90000000E-01  8.50000000E-01  8.50000000E-01  8.50000000E-01
  8.50000000E-01  8.50000000E-01  8.50000000E-01  8.50000000E-01  8.50000000E-01
%FLAG IPOL                                                                      
%FORMAT(1I8)                                                                    
       0
