; mobley_5063386_GMX_OPLS.top created by acpype (v: 2023.10.27) on Wed May 20 23:51:45 2026

; Include forcefield parameters
#include "ffoplsaa.itp"

; Include mobley_5063386_GMX.itp topology
#include "mobley_5063386_GMX.itp"

; Ligand position restraints
#ifdef POSRES_LIG
#include "posre_mobley_5063386.itp"
#endif

[ system ]
 mobley_5063386

[ molecules ]
; Compound        nmols
 mobley_5063386   1     
