mobley_9281946_GMX.gro created by acpype (v: 2023.10.27) on Wed May 20 23:53:04 2026
   32
    1MOL     C1    1   2.315   2.492   2.332
    1MOL     C2    2   2.280   2.731   2.356
    1MOL     C3    3   2.408   2.495   2.436
    1MOL     C4    4   2.373   2.733   2.460
    1MOL     C5    5   2.251   2.610   2.292
    1MOL     C6    6   2.437   2.615   2.500
    1MOL     C7    7   2.787   2.767   2.909
    1MOL     C8    8   2.878   2.319   2.485
    1MOL     C9    9   2.669   2.681   2.867
    1MOL    C10   10   2.790   2.348   2.605
    1MOL     N1   11   2.153   2.607   2.183
    1MOL     O1   12   2.130   2.498   2.129
    1MOL     O2   13   2.099   2.714   2.151
    1MOL     O3   14   2.527   2.629   2.603
    1MOL     O4   15   2.712   2.592   2.766
    1MOL     O5   16   2.692   2.443   2.567
    1MOL     P1   17   2.600   2.509   2.682
    1MOL     S1   18   2.489   2.389   2.786
    1MOL     H1   19   2.293   2.397   2.283
    1MOL     H2   20   2.231   2.824   2.327
    1MOL     H3   21   2.457   2.402   2.463
    1MOL     H4   22   2.396   2.827   2.510
    1MOL     H5   23   2.868   2.704   2.947
    1MOL     H6   24   2.826   2.823   2.824
    1MOL     H7   25   2.757   2.837   2.988
    1MOL     H8   26   2.818   2.281   2.401
    1MOL     H9   27   2.927   2.410   2.450
    1MOL    H10   28   2.955   2.245   2.510
    1MOL    H11   29   2.588   2.745   2.829
    1MOL    H12   30   2.632   2.624   2.953
    1MOL    H13   31   2.851   2.387   2.687
    1MOL    H14   32   2.741   2.256   2.638
   5.12080   5.12080   5.12080
